Protein in INSANE! Membrane UpperLeaflet>POPC=1.0 LowerLeaflet>POPC=1.0
248719
    1AU     AUC    1  38.534  24.793   7.526
    1AU     AUC    2  38.797  24.793   7.366
    1AU     AUC    3  38.771  24.790   7.702
    1AU     AUC    4  38.266  24.786   7.361
    1AU     AUC    5  38.279  24.836   7.687
    1AU     AUC    6  38.377  25.052   7.486
    1AU     AUC    7  38.718  25.060   7.503
    1AU     AUC    8  38.360  24.536   7.544
    1AU     AUC    9  38.694  24.521   7.550
    1AU     AUC   10  38.521  24.645   7.803
    1AU     AUC   11  38.536  24.989   7.769
    1AU     AUC   12  38.539  24.607   7.276
    1AU     AUC   13  38.554  24.919   7.253
    1AU     AUC   14  39.116  24.794   7.217
    1AU     AUC   15  39.096  24.773   7.558
    1AU     AUC   16  39.044  24.767   7.913
    1AU     AUC   17  37.969  24.749   7.213
    1AU     AUC   18  37.961  24.831   7.539
    1AU     AUC   19  37.979  24.890   7.858
    1AU     AUC   20  38.218  25.355   7.421
    1AU     AUC   21  38.577  25.341   7.419
    1AU     AUC   22  38.913  25.331   7.467
    1AU     AUC   23  38.169  24.252   7.561
    1AU     AUC   24  38.519  24.229   7.550
    1AU     AUC   25  38.871  24.225   7.566
    1AU     AUC   26  38.486  24.488   8.103
    1AU     AUC   27  38.504  24.840   8.089
    1AU     AUC   28  38.561  25.198   8.049
    1AU     AUC   29  38.582  24.419   7.000
    1AU     AUC   30  38.536  24.745   6.949
    1AU     AUC   31  38.525  25.061   6.939
    1AU     AUC   32  38.757  24.606   8.020
    1AU     AUC   33  38.808  24.966   7.996
    1AU     AUC   34  38.853  24.626   7.074
    1AU     AUC   35  38.822  24.939   7.081
    1AU     AUC   36  38.227  24.710   7.997
    1AU     AUC   37  38.267  25.065   7.947
    1AU     AUC   38  38.262  24.566   7.100
    1AU     AUC   39  38.228  24.875   7.052
    1AU     AUC   40  39.034  25.063   7.353
    1AU     AUC   41  38.973  25.056   7.702
    1AU     AUC   42  38.077  25.063   7.339
    1AU     AUC   43  38.113  25.153   7.667
    1AU     AUC   44  39.003  24.511   7.403
    1AU     AUC   45  38.944  24.478   7.748
    1AU     AUC   46  38.066  24.486   7.392
    1AU     AUC   47  38.085  24.566   7.723
    1AU     AUC   48  38.422  25.298   7.743
    1AU     AUC   49  38.744  25.263   7.775
    1AU     AUC   50  38.337  24.367   7.831
    1AU     AUC   51  38.649  24.316   7.826
    1AU     AUC   52  38.358  25.206   7.173
    1AU     AUC   53  38.719  25.233   7.197
    1AU     AUC   54  38.379  24.319   7.271
    1AU     AUC   55  38.754  24.356   7.277
    1AU    AUSL   56  38.998  24.706   8.316
    1AU    AUSL   57  38.768  24.328   8.229
    1AU     AUL   58  39.077  24.350   8.415
    1AU    AUSL   59  38.583  24.652   8.430
    1AU    AUSL   60  38.349  25.048   8.409
    1AU     AUL   61  38.570  24.950   8.702
    1AU    AUSL   62  38.701  25.009   8.192
    1AU    AUSL   63  39.147  25.053   8.126
    1AU     AUL   64  38.974  25.018   8.464
    1AU    AUSL   65  38.990  24.819   6.877
    1AU    AUSL   66  38.842  25.208   6.970
    1AU     AUL   67  39.062  25.146   6.685
    1AU    AUSL   68  38.818  24.530   6.619
    1AU    AUSL   69  39.293  24.565   7.010
    1AU     AUL   70  39.198  24.686   6.658
    1AU    AUSL   71  38.626  24.949   6.698
    1AU    AUSL   72  38.442  24.555   6.808
    1AU     AUL   73  38.550  24.602   6.482
    1AU    AUSL   74  37.969  25.003   8.191
    1AU    AUSL   75  38.313  25.320   8.089
    1AU     AUL   76  38.135  25.298   8.405
    1AU    AUSL   77  38.260  24.698   8.172
    1AU    AUSL   78  37.854  24.572   8.123
    1AU     AUL   79  37.765  24.794   8.257
    1AU    AUSL   80  38.015  24.555   6.802
    1AU    AUSL   81  38.240  24.234   6.991
    1AU     AUL   82  38.295  24.247   6.661
    1AU    AUSL   83  38.206  24.902   6.649
    1AU    AUSL   84  37.901  24.920   7.001
    1AU     AUL   85  37.785  24.742   6.744
    1AU    AUSL   86  39.308  25.265   7.511
    1AU    AUSL   87  39.243  25.067   7.104
    1AU     AUL   88  39.570  25.269   7.193
    1AU    AUSL   89  39.481  24.880   7.405
    1AU    AUSL   90  39.430  24.577   7.779
    1AU     AUL   91  39.730  24.673   7.586
    1AU    AUSL   92  39.196  24.917   7.733
    1AU    AUSL   93  39.024  25.320   7.809
    1AU     AUL   94  39.390  25.084   7.880
    1AU    AUSL   95  37.963  25.425   7.458
    1AU    AUSL   96  37.987  25.214   7.830
    1AU     AUL   97  37.678  25.455   7.648
    1AU    AUSL   98  37.793  25.030   7.389
    1AU    AUSL   99  37.935  25.341   7.051
    1AU     AUL  100  37.678  25.264   7.193
    1AU    AUSL  101  37.625  25.023   7.796
    1AU    AUSL  102  37.609  24.656   7.376
    1AU     AUL  103  37.432  24.995   7.492
    1AU    AUSL  104  39.204  24.233   7.633
    1AU    AUSL  105  39.045  24.512   7.947
    1AU     AUL  106  39.347  24.412   8.026
    1AU    AUSL  107  39.185  24.590   7.410
    1AU    AUSL  108  39.181  24.186   7.210
    1AU     AUL  109  39.444  24.401   7.299
    1AU    AUSL  110  37.780  24.292   7.578
    1AU    AUSL  111  37.948  24.481   7.205
    1AU     AUL  112  37.570  24.364   7.266
    1AU    AUSL  113  37.861  24.688   7.723
    1AU    AUSL  114  38.087  24.318   7.870
    1AU     AUL  115  37.769  24.300   7.909
    1AU    AUSL  116  38.602  25.575   7.910
    1AU    AUSL  117  38.160  25.607   7.794
    1AU     AUL  118  38.365  25.661   8.164
    1AU    AUSL  119  38.448  25.484   7.523
    1AU    AUSL  120  38.694  25.601   7.185
    1AU     AUL  121  38.441  25.836   7.454
    1AU    AUSL  122  38.867  25.625   7.572
    1AU    AUSL  123  38.857  25.393   8.191
    1AU     AUL  124  38.960  25.656   7.937
    1AU    AUSL  125  38.471  24.143   7.987
    1AU    AUSL  126  38.894  24.111   7.885
    1AU     AUL  127  38.643  24.041   8.260
    1AU    AUSL  128  38.181  23.943   7.716
    1AU    AUSL  129  38.231  24.306   8.287
    1AU     AUL  130  38.145  24.005   8.060
    1AU    AUSL  131  38.615  23.872   7.688
    1AU    AUSL  132  38.401  24.088   7.380
    1AU     AUL  133  38.299  23.730   7.486
    1AU    AUSL  134  38.534  25.430   6.800
    1AU    AUSL  135  39.081  25.454   7.219
    1AU     AUL  136  38.862  25.541   6.872
    1AU    AUSL  137  38.280  25.550   7.143
    1AU    AUSL  138  38.296  25.134   6.976
    1AU     AUL  139  38.209  25.404   6.774
    1AU    AUSL  140  38.619  24.048   7.007
    1AU    AUSL  141  37.995  24.057   7.301
    1AU     AUL  142  38.280  23.898   7.054
    1AU    AUSL  143  38.826  24.089   7.397
    1AU    AUSL  144  38.864  24.393   7.010
    1AU     AUL  145  38.940  24.033   7.008
    1AU       S  146  39.081  23.894   8.277
    1AU     LIG  147  39.280  23.460   8.325
    1AU     LIG  148  39.581  23.130   8.561
    1AU     LIG  149  39.943  23.000   8.846
    1AU       S  150  38.930  24.631   8.752
    1AU     LIG  151  39.338  24.681   8.767
    1AU     LIG  152  39.479  24.766   9.203
    1AU     LIG  153  39.369  24.745   9.670
    1AU       S  154  38.577  24.475   8.637
    1AU     LIG  155  38.573  24.541   9.082
    1AU     LIG  156  38.998  24.548   9.300
    1AU     LIG  157  39.295  24.252   9.525
    1AU       S  158  38.126  24.853   8.622
    1AU     LIG  159  38.181  24.877   9.067
    1AU     LIG  160  37.894  24.730   9.387
    1AU     LIG  161  37.723  24.807   9.813
    1AU       S  162  38.600  25.409   8.563
    1AU     LIG  163  38.852  25.784   8.637
    1AU     LIG  164  39.220  25.625   8.861
    1AU     LIG  165  39.263  25.172   8.879
    1AU       S  166  39.326  25.292   8.296
    1AU     LIG  167  39.606  25.398   8.569
    1AU     LIG  168  39.749  25.642   8.877
    1AU     LIG  169  40.002  25.982   8.989
    1AU       S  170  38.913  24.922   6.321
    1AU     LIG  171  39.305  24.990   6.079
    1AU     LIG  172  39.507  24.603   5.944
    1AU     LIG  173  39.400  24.179   5.780
    1AU       S  174  39.313  25.549   6.828
    1AU     LIG  175  39.131  25.900   6.615
    1AU     LIG  176  39.359  26.134   6.288
    1AU     LIG  177  39.762  26.278   6.082
    1AU       S  178  39.470  24.331   6.814
    1AU     LIG  179  39.503  24.240   6.321
    1AU     LIG  180  39.479  23.810   6.157
    1AU     LIG  181  39.597  23.374   6.335
    1AU       S  182  38.927  24.746   6.275
    1AU     LIG  183  39.011  24.351   6.143
    1AU     LIG  184  38.887  24.136   5.746
    1AU     LIG  185  39.048  24.147   5.299
    1AU       S  186  38.123  24.554   6.332
    1AU     LIG  187  38.123  24.575   5.909
    1AU     LIG  188  38.164  24.455   5.487
    1AU     LIG  189  38.240  24.640   5.081
    1AU       S  190  38.662  25.059   6.443
    1AU     LIG  191  38.459  24.926   6.071
    1AU     LIG  192  38.641  24.621   5.817
    1AU     LIG  193  39.075  24.605   5.667
    1AU       S  194  37.914  24.969   8.655
    1AU     LIG  195  37.633  24.672   8.754
    1AU     LIG  196  37.561  24.406   9.099
    1AU     LIG  197  37.536  24.389   9.559
    1AU       S  198  37.886  25.609   8.155
    1AU     LIG  199  37.824  25.678   8.576
    1AU     LIG  200  37.543  25.517   8.892
    1AU     LIG  201  37.345  25.778   9.214
    1AU       S  202  37.757  24.343   8.397
    1AU     LIG  203  37.334  24.293   8.206
    1AU     LIG  204  36.976  24.007   8.241
    1AU     LIG  205  36.849  23.702   8.578
    1AU       S  206  38.111  24.677   8.561
    1AU     LIG  207  38.062  24.410   8.916
    1AU     LIG  208  37.993  24.227   9.315
    1AU     LIG  209  38.022  24.352   9.752
    1AU       S  210  37.961  24.471   6.422
    1AU     LIG  211  37.661  24.424   6.102
    1AU     LIG  212  37.659  24.550   5.662
    1AU     LIG  213  37.800  24.790   5.309
    1AU       S  214  37.895  24.069   6.830
    1AU     LIG  215  37.805  23.643   6.734
    1AU     LIG  216  37.625  23.460   6.362
    1AU     LIG  217  37.209  23.380   6.175
    1AU       S  218  37.647  25.172   6.700
    1AU     LIG  219  37.337  25.405   6.821
    1AU     LIG  220  37.262  25.825   6.686
    1AU     LIG  221  37.177  25.872   6.236
    1AU       S  222  38.138  24.847   6.434
    1AU     LIG  223  37.811  24.928   6.181
    1AU     LIG  224  37.920  25.020   5.758
    1AU     LIG  225  38.302  24.950   5.508
    1AU       S  226  39.396  25.429   6.811
    1AU     LIG  227  39.435  25.464   6.348
    1AU     LIG  228  39.744  25.749   6.138
    1AU     LIG  229  40.175  25.898   6.014
    1AU       S  230  39.480  25.472   7.609
    1AU     LIG  231  39.874  25.655   7.384
    1AU     LIG  232  40.347  25.740   7.464
    1AU     LIG  233  40.664  25.911   7.790
    1AU       S  234  39.773  25.142   7.591
    1AU     LIG  235  40.194  25.232   7.402
    1AU     LIG  236  40.660  25.171   7.279
    1AU     LIG  237  41.050  25.336   7.043
    1AU       S  238  39.676  24.230   7.762
    1AU     LIG  239  39.833  24.054   8.116
    1AU     LIG  240  40.251  23.897   8.068
    1AU     LIG  241  40.590  24.092   7.782
    1AU       S  242  39.359  25.496   8.097
    1AU     LIG  243  39.747  25.679   8.164
    1AU     LIG  244  39.874  25.992   8.487
    1AU     LIG  245  39.960  26.420   8.699
    1AU       S  246  39.727  25.324   7.718
    1AU     LIG  247  40.113  25.477   7.848
    1AU     LIG  248  40.553  25.372   7.782
    1AU     LIG  249  40.984  25.434   7.935
    1AU       S  250  37.805  25.423   8.087
    1AU     LIG  251  37.555  25.282   8.415
    1AU     LIG  252  37.150  25.501   8.531
    1AU     LIG  253  36.954  25.652   8.911
    1AU       S  254  37.913  25.752   7.362
    1AU     LIG  255  37.830  26.159   7.459
    1AU     LIG  256  37.533  26.046   7.133
    1AU     LIG  257  37.215  25.714   7.193
    1AU       S  258  37.416  24.900   7.030
    1AU     LIG  259  37.112  24.601   6.897
    1AU     LIG  260  36.747  24.854   7.025
    1AU     LIG  261  36.910  25.295   7.113
    1AU       S  262  37.801  25.599   6.883
    1AU     LIG  263  37.873  25.999   6.740
    1AU     LIG  264  37.525  26.260   6.644
    1AU     LIG  265  37.293  26.361   6.232
    1AU       S  266  37.389  24.565   7.667
    1AU     LIG  267  37.051  24.624   7.395
    1AU     LIG  268  36.672  24.389   7.277
    1AU     LIG  269  36.279  24.299   7.035
    1AU       S  270  37.483  25.071   7.970
    1AU     LIG  271  37.108  25.091   8.227
    1AU     LIG  272  36.777  25.397   8.147
    1AU     LIG  273  36.923  25.722   7.850
    1AU       S  274  39.370  24.071   7.652
    1AU     LIG  275  39.477  23.687   7.470
    1AU     LIG  276  39.911  23.496   7.581
    1AU     LIG  277  40.359  23.635   7.649
    1AU       S  278  39.273  23.979   8.131
    1AU     LIG  279  39.573  23.659   7.958
    1AU     LIG  280  39.948  23.467   8.119
    1AU     LIG  281  40.019  23.427   8.567
    1AU       S  282  39.656  24.151   7.608
    1AU     LIG  283  39.811  24.001   7.250
    1AU     LIG  284  40.243  23.860   7.198
    1AU     LIG  285  40.689  23.880   7.320
    1AU       S  286  39.405  24.084   6.938
    1AU     LIG  287  39.295  23.677   6.895
    1AU     LIG  288  39.312  23.246   6.773
    1AU     LIG  289  39.429  22.904   6.476
    1AU       S  290  37.763  24.182   6.897
    1AU     LIG  291  37.489  24.280   6.606
    1AU     LIG  292  37.289  23.887   6.462
    1AU     LIG  293  36.886  23.654   6.510
    1AU       S  294  37.364  24.363   7.699
    1AU     LIG  295  37.159  24.029   7.729
    1AU     LIG  296  36.950  23.842   7.379
    1AU     LIG  297  36.544  23.879   7.165
    1AU       S  298  37.787  24.123   8.332
    1AU     LIG  299  37.587  23.857   8.028
    1AU     LIG  300  37.218  23.615   8.030
    1AU     LIG  301  37.096  23.334   8.332
    1AU       S  302  37.429  24.602   7.830
    1AU     LIG  303  36.978  24.756   7.878
    1AU     LIG  304  36.579  24.561   7.768
    1AU     LIG  305  36.626  24.097   7.713
    1AU       S  306  38.045  25.787   7.830
    1AU     LIG  307  37.739  26.064   7.982
    1AU     LIG  308  37.442  25.843   8.253
    1AU     LIG  309  37.349  25.944   8.692
    1AU       S  310  38.606  25.944   7.872
    1AU     LIG  311  38.667  26.156   8.259
    1AU     LIG  312  38.523  26.567   8.482
    1AU     LIG  313  38.123  26.756   8.687
    1AU       S  314  38.755  26.097   7.734
    1AU     LIG  315  38.322  26.277   7.629
    1AU     LIG  316  38.009  26.504   7.832
    1AU     LIG  317  38.176  26.738   8.156
    1AU       S  318  38.609  25.904   7.021
    1AU     LIG  319  38.681  26.280   7.232
    1AU     LIG  320  38.816  26.715   7.195
    1AU     LIG  321  38.634  27.051   6.966
    1AU       S  322  39.114  25.481   8.354
    1AU     LIG  323  39.352  25.870   8.443
    1AU     LIG  324  39.494  26.083   8.834
    1AU     LIG  325  39.544  25.924   9.275
    1AU       S  326  38.911  25.903   7.532
    1AU     LIG  327  39.091  26.367   7.510
    1AU     LIG  328  38.752  26.616   7.713
    1AU     LIG  329  38.712  26.918   8.081
    1AU       S  330  38.475  23.651   8.082
    1AU     LIG  331  38.796  23.323   8.167
    1AU     LIG  332  38.660  22.894   8.361
    1AU     LIG  333  38.335  22.684   8.681
    1AU       S  334  39.030  23.966   7.995
    1AU     LIG  335  39.091  23.608   7.820
    1AU     LIG  336  39.212  23.228   7.826
    1AU     LIG  337  39.561  23.118   8.060
    1AU       S  338  38.293  23.579   7.928
    1AU     LIG  339  38.354  23.139   7.996
    1AU     LIG  340  38.173  22.784   8.215
    1AU     LIG  341  38.034  22.358   8.289
    1AU       S  342  38.040  24.215   8.469
    1AU     LIG  343  37.802  23.929   8.773
    1AU     LIG  344  37.462  23.607   8.611
    1AU     LIG  345  37.156  23.330   8.847
    1AU       S  346  38.705  23.647   7.285
    1AU     LIG  347  38.408  23.287   7.206
    1AU     LIG  348  38.410  22.873   7.052
    1AU     LIG  349  38.725  22.619   7.161
    1AU       S  350  38.612  23.692   7.850
    1AU     LIG  351  38.705  23.303   7.650
    1AU     LIG  352  38.809  22.895   7.853
    1AU     LIG  353  38.999  22.561   8.139
    1AU       S  354  38.474  25.794   6.749
    1AU     LIG  355  38.441  26.204   6.655
    1AU     LIG  356  38.766  26.523   6.677
    1AU     LIG  357  38.776  26.794   6.325
    1AU       S  358  39.253  25.633   7.136
    1AU     LIG  359  39.467  26.042   6.970
    1AU     LIG  360  39.747  26.249   6.623
    1AU     LIG  361  40.173  26.250   6.404
    1AU       S  362  38.274  25.815   7.007
    1AU     LIG  363  38.193  26.223   7.120
    1AU     LIG  364  38.342  26.605   6.936
    1AU     LIG  365  38.282  26.701   6.505
    1AU       S  366  37.834  25.223   6.609
    1AU     LIG  367  37.654  25.602   6.403
    1AU     LIG  368  37.690  26.023   6.226
    1AU     LIG  369  37.836  26.464   6.293
    1AU       S  370  37.816  23.979   7.135
    1AU     LIG  371  37.400  23.832   6.999
    1AU     LIG  372  37.293  23.440   6.769
    1AU     LIG  373  37.385  23.052   6.542
    1AU       S  374  38.689  23.679   7.144
    1AU     LIG  375  38.829  23.503   6.789
    1AU     LIG  376  38.879  23.088   6.558
    1AU     LIG  377  38.698  22.680   6.661
    1AU       S  378  38.960  23.766   7.386
    1AU     LIG  379  39.118  23.367   7.301
    1AU     LIG  380  38.909  23.083   7.068
    1AU     LIG  381  39.164  22.747   6.896
    1AU       S  382  39.201  24.221   6.694
    1AU     LIG  383  38.978  23.935   6.505
    1AU     LIG  384  39.100  23.523   6.363
    1AU     LIG  385  39.170  23.153   6.099
    2AU     AUC  386  17.684  39.520   7.523
    2AU     AUC  387  17.947  39.522   7.364
    2AU     AUC  388  17.926  39.533   7.699
    2AU     AUC  389  17.422  39.500   7.358
    2AU     AUC  390  17.426  39.558   7.683
    2AU     AUC  391  17.513  39.773   7.475
    2AU     AUC  392  17.851  39.790   7.491
    2AU     AUC  393  17.520  39.256   7.549
    2AU     AUC  394  17.853  39.254   7.556
    2AU     AUC  395  17.676  39.383   7.803
    2AU     AUC  396  17.676  39.726   7.759
    2AU     AUC  397  17.699  39.327   7.278
    2AU     AUC  398  17.701  39.641   7.245
    2AU     AUC  399  18.269  39.528   7.216
    2AU     AUC  400  18.249  39.517   7.552
    2AU     AUC  401  18.207  39.532   7.905
    2AU     AUC  402  17.130  39.446   7.207
    2AU     AUC  403  17.110  39.533   7.530
    2AU     AUC  404  17.124  39.602   7.852
    2AU     AUC  405  17.337  40.066   7.402
    2AU     AUC  406  17.693  40.073   7.403
    2AU     AUC  407  18.027  40.067   7.461
    2AU     AUC  408  17.339  38.965   7.572
    2AU     AUC  409  17.686  38.956   7.566
    2AU     AUC  410  18.036  38.962   7.583
    2AU     AUC  411  17.644  39.238   8.111
    2AU     AUC  412  17.656  39.590   8.083
    2AU     AUC  413  17.691  39.949   8.030
    2AU     AUC  414  17.751  39.130   7.007
    2AU     AUC  415  17.691  39.457   6.948
    2AU     AUC  416  17.673  39.778   6.929
    2AU     AUC  417  17.917  39.367   8.019
    2AU     AUC  418  17.955  39.727   7.979
    2AU     AUC  419  18.009  39.349   7.080
    2AU     AUC  420  17.971  39.672   7.074
    2AU     AUC  421  17.378  39.442   7.995
    2AU     AUC  422  17.404  39.793   7.935
    2AU     AUC  423  17.430  39.270   7.100
    2AU     AUC  424  17.380  39.577   7.045
    2AU     AUC  425  18.174  39.791   7.343
    2AU     AUC  426  18.116  39.798   7.683
    2AU     AUC  427  17.216  39.766   7.327
    2AU     AUC  428  17.242  39.864   7.653
    2AU     AUC  429  18.160  39.245   7.410
    2AU     AUC  430  18.105  39.226   7.757
    2AU     AUC  431  17.237  39.188   7.392
    2AU     AUC  432  17.245  39.283   7.724
    2AU     AUC  433  17.541  40.029   7.726
    2AU     AUC  434  17.867  40.011   7.754
    2AU     AUC  435  17.496  39.098   7.842
    2AU     AUC  436  17.812  39.062   7.839
    2AU     AUC  437  17.490  39.918   7.160
    2AU     AUC  438  17.845  39.952   7.183
    2AU     AUC  439  17.555  39.028   7.279
    2AU     AUC  440  17.919  39.078   7.289
    2AU    AUSL  441  18.161  39.491   8.300
    2AU    AUSL  442  17.927  39.100   8.234
    2AU     AUL  443  18.226  39.144   8.421
    2AU    AUSL  444  17.753  39.428   8.434
    2AU    AUSL  445  17.497  39.802   8.399
    2AU     AUL  446  17.739  39.751   8.683
    2AU    AUSL  447  17.847  39.777   8.176
    2AU    AUSL  448  18.290  39.844   8.101
    2AU     AUL  449  18.133  39.810   8.435
    2AU    AUSL  450  18.139  39.545   6.897
    2AU    AUSL  451  18.007  39.951   6.920
    2AU     AUL  452  18.237  39.874   6.667
    2AU    AUSL  453  17.989  39.250   6.629
    2AU    AUSL  454  18.450  39.291   7.014
    2AU     AUL  455  18.349  39.413   6.680
    2AU    AUSL  456  17.779  39.659   6.698
    2AU    AUSL  457  17.608  39.259   6.809
    2AU     AUL  458  17.722  39.303   6.484
    2AU    AUSL  459  17.121  39.733   8.185
    2AU    AUSL  460  17.429  40.049   8.064
    2AU     AUL  461  17.255  40.031   8.389
    2AU    AUSL  462  17.423  39.436   8.177
    2AU    AUSL  463  17.011  39.312   8.120
    2AU     AUL  464  16.947  39.534   8.286
    2AU    AUSL  465  17.181  39.239   6.800
    2AU    AUSL  466  17.422  38.930   6.993
    2AU     AUL  467  17.480  38.942   6.666
    2AU    AUSL  468  17.362  39.591   6.642
    2AU    AUSL  469  17.051  39.604   6.995
    2AU     AUL  470  16.948  39.418   6.741
    2AU    AUSL  471  18.479  40.015   7.500
    2AU    AUSL  472  18.392  39.815   7.096
    2AU     AUL  473  18.734  39.983   7.144
    2AU    AUSL  474  18.629  39.616   7.389
    2AU    AUSL  475  18.594  39.333   7.771
    2AU     AUL  476  18.903  39.379   7.543
    2AU    AUSL  477  18.356  39.670   7.728
    2AU    AUSL  478  18.145  40.073   7.753
    2AU     AUL  479  18.488  39.947   7.875
    2AU    AUSL  480  17.077  40.127   7.434
    2AU    AUSL  481  17.108  39.919   7.808
    2AU     AUL  482  16.782  40.139   7.622
    2AU    AUSL  483  16.928  39.724   7.377
    2AU    AUSL  484  17.064  40.029   7.029
    2AU     AUL  485  16.808  39.943   7.169
    2AU    AUSL  486  16.758  39.704   7.789
    2AU    AUSL  487  16.777  39.336   7.355
    2AU     AUL  488  16.581  39.667   7.480
    2AU    AUSL  489  18.372  38.978   7.650
    2AU    AUSL  490  18.210  39.270   7.948
    2AU     AUL  491  18.516  39.193   8.032
    2AU    AUSL  492  18.337  39.324   7.412
    2AU    AUSL  493  18.346  38.914   7.227
    2AU     AUL  494  18.594  39.126   7.298
    2AU    AUSL  495  16.960  38.987   7.573
    2AU    AUSL  496  17.135  39.178   7.206
    2AU     AUL  497  16.777  39.084   7.201
    2AU    AUSL  498  17.014  39.390   7.709
    2AU    AUSL  499  17.243  39.043   7.884
    2AU     AUL  500  16.920  39.037   7.922
    2AU    AUSL  501  17.696  40.328   7.894
    2AU    AUSL  502  17.257  40.322   7.768
    2AU     AUL  503  17.436  40.398   8.137
    2AU    AUSL  504  17.558  40.211   7.506
    2AU    AUSL  505  17.807  40.337   7.166
    2AU     AUL  506  17.520  40.563   7.431
    2AU    AUSL  507  17.957  40.395   7.558
    2AU    AUSL  508  17.991  40.165   8.141
    2AU     AUL  509  18.068  40.414   7.881
    2AU    AUSL  510  17.633  38.889   8.006
    2AU    AUSL  511  18.057  38.868   7.903
    2AU     AUL  512  17.808  38.804   8.282
    2AU    AUSL  513  17.351  38.670   7.737
    2AU    AUSL  514  17.385  39.048   8.301
    2AU     AUL  515  17.295  38.746   8.081
    2AU    AUSL  516  17.786  38.607   7.721
    2AU    AUSL  517  17.574  38.804   7.398
    2AU     AUL  518  17.472  38.449   7.529
    2AU    AUSL  519  17.660  40.141   6.790
    2AU    AUSL  520  18.154  40.132   7.268
    2AU     AUL  521  17.975  40.275   6.874
    2AU    AUSL  522  17.395  40.258   7.121
    2AU    AUSL  523  17.434  39.836   6.963
    2AU     AUL  524  17.340  40.104   6.753
    2AU    AUSL  525  17.803  38.755   7.030
    2AU    AUSL  526  17.174  38.751   7.300
    2AU     AUL  527  17.469  38.593   7.084
    2AU    AUSL  528  17.997  38.816   7.424
    2AU    AUSL  529  18.027  39.111   7.020
    2AU     AUL  530  18.117  38.753   7.033
    2AU       S  531  18.253  38.683   8.310
    2AU     LIG  532  18.385  38.229   8.325
    2AU     LIG  533  18.548  37.769   8.266
    2AU     LIG  534  18.706  37.414   8.515
    2AU       S  535  18.110  39.448   8.752
    2AU     LIG  536  18.538  39.393   8.741
    2AU     LIG  537  18.754  39.467   9.140
    2AU     LIG  538  18.724  39.336   9.597
    2AU       S  539  17.774  39.272   8.654
    2AU     LIG  540  17.820  39.228   9.115
    2AU     LIG  541  18.181  39.176   9.454
    2AU     LIG  542  18.405  38.995   9.851
    2AU       S  543  17.308  39.598   8.621
    2AU     LIG  544  17.427  39.589   9.055
    2AU     LIG  545  17.043  39.534   9.274
    2AU     LIG  546  16.812  39.715   9.651
    2AU       S  547  17.721  40.197   8.504
    2AU     LIG  548  18.000  40.482   8.710
    2AU     LIG  549  18.395  40.302   8.807
    2AU     LIG  550  18.543  39.896   8.769
    2AU       S  551  18.451  40.137   8.302
    2AU     LIG  552  18.814  39.982   8.338
    2AU     LIG  553  18.910  40.285   8.676
    2AU     LIG  554  19.171  40.578   8.918
    2AU       S  555  18.070  39.626   6.328
    2AU     LIG  556  18.516  39.707   6.259
    2AU     LIG  557  18.567  39.449   5.894
    2AU     LIG  558  18.468  39.013   5.785
    2AU       S  559  18.423  40.326   6.921
    2AU     LIG  560  18.402  40.599   6.575
    2AU     LIG  561  18.569  40.688   6.168
    2AU     LIG  562  18.846  40.621   5.821
    2AU       S  563  18.638  39.066   6.815
    2AU     LIG  564  18.545  39.144   6.309
    2AU     LIG  565  18.419  38.729   6.211
    2AU     LIG  566  18.539  38.417   6.523
    2AU       S  567  18.102  39.446   6.277
    2AU     LIG  568  18.034  39.065   6.112
    2AU     LIG  569  17.973  38.925   5.669
    2AU     LIG  570  17.984  38.985   5.196
    2AU       S  571  17.299  39.235   6.329
    2AU     LIG  572  17.524  39.131   5.957
    2AU     LIG  573  17.550  39.152   5.490
    2AU     LIG  574  17.250  39.297   5.163
    2AU       S  575  17.827  39.761   6.446
    2AU     LIG  576  17.632  39.618   6.071
    2AU     LIG  577  17.902  39.434   5.764
    2AU     LIG  578  18.247  39.355   5.468
    2AU       S  579  17.103  39.699   8.687
    2AU     LIG  580  16.810  39.416   8.763
    2AU     LIG  581  16.741  39.125   9.060
    2AU     LIG  582  16.654  39.254   9.479
    2AU       S  583  16.968  40.288   8.119
    2AU     LIG  584  17.021  40.462   8.505
    2AU     LIG  585  16.726  40.507   8.859
    2AU     LIG  586  16.285  40.569   9.024
    2AU       S  587  16.920  39.086   8.411
    2AU     LIG  588  16.516  39.160   8.247
    2AU     LIG  589  16.196  38.839   8.323
    2AU     LIG  590  16.165  38.367   8.323
    2AU       S  591  17.292  39.415   8.580
    2AU     LIG  592  17.252  39.139   8.934
    2AU     LIG  593  17.149  39.039   9.370
    2AU     LIG  594  17.103  39.294   9.743
    2AU       S  595  17.128  39.137   6.428
    2AU     LIG  596  16.918  39.084   6.044
    2AU     LIG  597  17.072  39.293   5.681
    2AU     LIG  598  16.946  39.645   5.415
    2AU       S  599  17.093  38.722   6.818
    2AU     LIG  600  16.750  38.442   6.650
    2AU     LIG  601  16.516  38.201   6.350
    2AU     LIG  602  16.254  38.120   5.978
    2AU       S  603  16.784  39.837   6.679
    2AU     LIG  604  16.462  40.082   6.731
    2AU     LIG  605  16.503  40.494   6.555
    2AU     LIG  606  16.630  40.708   6.155
    2AU       S  607  17.298  39.520   6.424
    2AU     LIG  608  16.953  39.586   6.201
    2AU     LIG  609  17.136  39.780   5.871
    2AU     LIG  610  17.451  39.648   5.565
    2AU       S  611  18.449  40.211   6.889
    2AU     LIG  612  18.724  40.099   6.571
    2AU     LIG  613  18.964  40.330   6.243
    2AU     LIG  614  19.323  40.559   6.013
    2AU       S  615  18.769  40.154   7.580
    2AU     LIG  616  19.123  40.323   7.555
    2AU     LIG  617  19.518  40.168   7.604
    2AU     LIG  618  19.896  40.370   7.503
    2AU       S  619  18.928  39.850   7.548
    2AU     LIG  620  19.244  39.965   7.206
    2AU     LIG  621  19.683  40.114   7.105
    2AU     LIG  622  20.050  40.440   7.020
    2AU       S  623  18.844  38.969   7.798
    2AU     LIG  624  19.193  38.724   7.939
    2AU     LIG  625  19.628  38.748   7.840
    2AU     LIG  626  19.805  38.792   7.449
    2AU       S  627  18.468  40.344   8.090
    2AU     LIG  628  18.865  40.470   8.184
    2AU     LIG  629  19.016  40.794   8.454
    2AU     LIG  630  19.080  41.070   8.810
    2AU       S  631  18.894  39.809   7.754
    2AU     LIG  632  19.213  39.704   8.038
    2AU     LIG  633  19.681  39.673   7.983
    2AU     LIG  634  19.977  40.037   7.940
    2AU       S  635  16.898  40.114   8.066
    2AU     LIG  636  16.731  40.004   8.465
    2AU     LIG  637  16.347  40.249   8.598
    2AU     LIG  638  16.091  40.663   8.554
    2AU       S  639  17.008  40.440   7.328
    2AU     LIG  640  16.835  40.806   7.482
    2AU     LIG  641  16.493  40.779   7.259
    2AU     LIG  642  16.470  40.352   7.160
    2AU       S  643  16.564  39.567   7.014
    2AU     LIG  644  16.148  39.566   6.920
    2AU     LIG  645  15.878  39.796   7.172
    2AU     LIG  646  15.934  40.240   7.248
    2AU       S  647  16.918  40.273   6.849
    2AU     LIG  648  16.838  40.680   6.896
    2AU     LIG  649  16.706  40.975   6.585
    2AU     LIG  650  16.348  41.131   6.299
    2AU       S  651  16.546  39.211   7.609
    2AU     LIG  652  16.263  39.295   7.339
    2AU     LIG  653  15.865  39.326   7.429
    2AU     LIG  654  15.651  38.959   7.341
    2AU       S  655  16.633  39.709   7.970
    2AU     LIG  656  16.374  40.036   8.090
    2AU     LIG  657  15.970  40.209   7.974
    2AU     LIG  658  15.605  40.104   7.688
    2AU       S  659  18.536  38.825   7.679
    2AU     LIG  660  18.646  38.434   7.512
    2AU     LIG  661  19.081  38.361   7.573
    2AU     LIG  662  19.528  38.348   7.400
    2AU       S  663  18.431  38.771   8.166
    2AU     LIG  664  18.737  38.495   8.035
    2AU     LIG  665  18.887  38.195   8.371
    2AU     LIG  666  18.640  37.988   8.723
    2AU       S  667  18.824  38.895   7.609
    2AU     LIG  668  18.995  38.741   7.224
    2AU     LIG  669  19.463  38.767   7.058
    2AU     LIG  670  19.916  38.583   6.995
    2AU       S  671  18.574  38.806   6.936
    2AU     LIG  672  18.459  38.376   7.016
    2AU     LIG  673  18.401  37.893   6.899
    2AU     LIG  674  18.370  37.469   6.633
    2AU       S  675  16.967  38.835   6.873
    2AU     LIG  676  16.660  38.965   6.617
    2AU     LIG  677  16.357  38.697   6.372
    2AU     LIG  678  16.028  38.573   6.067
    2AU       S  679  16.591  38.949   7.610
    2AU     LIG  680  16.355  38.769   7.853
    2AU     LIG  681  15.934  38.856   7.761
    2AU     LIG  682  15.524  38.652   7.764
    2AU       S  683  16.933  38.887   8.355
    2AU     LIG  684  16.803  38.577   8.067
    2AU     LIG  685  16.548  38.225   8.003
    2AU     LIG  686  16.395  37.875   8.262
    2AU       S  687  16.558  39.262   7.766
    2AU     LIG  688  16.188  39.498   7.824
    2AU     LIG  689  15.815  39.304   7.981
    2AU     LIG  690  15.687  38.897   8.215
    2AU       S  691  17.102  40.491   7.808
    2AU     LIG  692  16.728  40.693   7.975
    2AU     LIG  693  16.568  40.657   8.386
    2AU     LIG  694  16.486  40.958   8.752
    2AU       S  695  17.683  40.675   7.854
    2AU     LIG  696  17.876  40.716   8.245
    2AU     LIG  697  17.803  41.172   8.345
    2AU     LIG  698  17.443  41.490   8.304
    2AU       S  699  17.791  40.846   7.737
    2AU     LIG  700  17.350  40.992   7.661
    2AU     LIG  701  17.231  41.387   7.843
    2AU     LIG  702  17.392  41.789   7.867
    2AU       S  703  17.705  40.638   7.006
    2AU     LIG  704  17.678  41.045   7.244
    2AU     LIG  705  17.664  41.514   7.349
    2AU     LIG  706  17.902  41.911   7.189
    2AU       S  707  18.210  40.284   8.313
    2AU     LIG  708  18.440  40.668   8.455
    2AU     LIG  709  18.670  40.739   8.832
    2AU     LIG  710  18.743  40.458   9.184
    2AU       S  711  17.969  40.701   7.515
    2AU     LIG  712  18.055  41.200   7.550
    2AU     LIG  713  17.772  41.399   7.867
    2AU     LIG  714  17.855  41.755   8.181
    2AU       S  715  17.633  38.405   8.125
    2AU     LIG  716  17.935  38.043   8.189
    2AU     LIG  717  18.038  37.660   8.449
    2AU     LIG  718  17.779  37.235   8.469
    2AU       S  719  18.199  38.734   8.026
    2AU     LIG  720  18.266  38.389   7.859
    2AU     LIG  721  18.412  38.030   7.851
    2AU     LIG  722  18.844  38.016   7.901
    2AU       S  723  17.465  38.322   7.978
    2AU     LIG  724  17.427  37.942   7.790
    2AU     LIG  725  17.222  37.605   7.950
    2AU     LIG  726  17.282  37.306   8.260
    2AU       S  727  17.187  38.953   8.488
    2AU     LIG  728  17.082  38.460   8.514
    2AU     LIG  729  16.646  38.255   8.527
    2AU     LIG  730  16.454  37.868   8.773
    2AU       S  731  17.868  38.378   7.310
    2AU     LIG  732  17.548  38.028   7.273
    2AU     LIG  733  17.496  37.685   6.979
    2AU     LIG  734  17.603  37.224   7.012
    2AU       S  735  17.782  38.441   7.903
    2AU     LIG  736  17.887  38.100   7.690
    2AU     LIG  737  17.951  37.737   7.758
    2AU     LIG  738  17.713  37.565   8.076
    2AU       S  739  17.581  40.516   6.727
    2AU     LIG  740  17.485  40.983   6.712
    2AU     LIG  741  17.738  41.399   6.817
    2AU     LIG  742  17.864  41.859   6.689
    2AU       S  743  18.339  40.357   7.196
    2AU     LIG  744  18.814  40.489   7.162
    2AU     LIG  745  18.944  40.561   6.724
    2AU     LIG  746  19.033  40.838   6.352
    2AU       S  747  17.372  40.525   6.976
    2AU     LIG  748  17.215  40.896   7.149
    2AU     LIG  749  17.281  41.340   7.021
    2AU     LIG  750  17.405  41.788   6.986
    2AU       S  751  16.977  39.888   6.595
    2AU     LIG  752  16.923  40.240   6.354
    2AU     LIG  753  17.086  40.648   6.447
    2AU     LIG  754  17.054  41.047   6.199
    2AU       S  755  16.991  38.669   7.124
    2AU     LIG  756  16.518  38.671   7.051
    2AU     LIG  757  16.215  38.403   6.780
    2AU     LIG  758  16.006  38.148   6.441
    2AU       S  759  17.890  38.378   7.166
    2AU     LIG  760  18.017  38.222   6.806
    2AU     LIG  761  17.921  37.853   6.543
    2AU     LIG  762  17.661  37.444   6.545
    2AU       S  763  18.127  38.496   7.416
    2AU     LIG  764  18.277  38.092   7.375
    2AU     LIG  765  18.012  37.830   7.242
    2AU     LIG  766  17.983  37.556   6.940
    2AU       S  767  18.364  38.936   6.703
    2AU     LIG  768  18.011  38.725   6.538
    2AU     LIG  769  18.089  38.312   6.307
    2AU     LIG  770  18.405  37.940   6.375
    3AU     AUC  771  10.569  17.638   7.539
    3AU     AUC  772  10.829  17.637   7.375
    3AU     AUC  773  10.808  17.643   7.712
    3AU     AUC  774  10.300  17.624   7.381
    3AU     AUC  775  10.316  17.680   7.705
    3AU     AUC  776  10.407  17.895   7.496
    3AU     AUC  777  10.747  17.907   7.506
    3AU     AUC  778  10.400  17.376   7.564
    3AU     AUC  779  10.734  17.368   7.566
    3AU     AUC  780  10.564  17.496   7.818
    3AU     AUC  781  10.572  17.839   7.778
    3AU     AUC  782  10.573  17.446   7.293
    3AU     AUC  783  10.581  17.756   7.264
    3AU     AUC  784  11.143  17.637   7.221
    3AU     AUC  785  11.130  17.630   7.566
    3AU     AUC  786  11.087  17.633   7.920
    3AU     AUC  787  10.000  17.580   7.239
    3AU     AUC  788   9.997  17.666   7.564
    3AU     AUC  789  10.021  17.732   7.882
    3AU     AUC  790  10.241  18.193   7.428
    3AU     AUC  791  10.599  18.184   7.417
    3AU     AUC  792  10.936  18.180   7.456
    3AU     AUC  793  10.215  17.090   7.588
    3AU     AUC  794  10.564  17.074   7.570
    3AU     AUC  795  10.917  17.075   7.586
    3AU     AUC  796  10.536  17.343   8.123
    3AU     AUC  797  10.551  17.698   8.103
    3AU     AUC  798  10.601  18.054   8.052
    3AU     AUC  799  10.611  17.252   7.019
    3AU     AUC  800  10.561  17.575   6.964
    3AU     AUC  801  10.542  17.888   6.943
    3AU     AUC  802  10.802  17.466   8.034
    3AU     AUC  803  10.849  17.828   8.001
    3AU     AUC  804  10.883  17.465   7.086
    3AU     AUC  805  10.843  17.769   7.081
    3AU     AUC  806  10.274  17.559   8.016
    3AU     AUC  807  10.307  17.914   7.960
    3AU     AUC  808  10.292  17.398   7.122
    3AU     AUC  809  10.249  17.707   7.072
    3AU     AUC  810  11.058  17.910   7.352
    3AU     AUC  811  11.005  17.913   7.702
    3AU     AUC  812  10.103  17.897   7.358
    3AU     AUC  813  10.146  17.994   7.683
    3AU     AUC  814  11.043  17.363   7.425
    3AU     AUC  815  10.985  17.334   7.765
    3AU     AUC  816  10.107  17.319   7.419
    3AU     AUC  817  10.129  17.407   7.749
    3AU     AUC  818  10.453  18.146   7.746
    3AU     AUC  819  10.775  18.118   7.771
    3AU     AUC  820  10.384  17.216   7.854
    3AU     AUC  821  10.694  17.167   7.844
    3AU     AUC  822  10.378  18.040   7.180
    3AU     AUC  823  10.740  18.070   7.193
    3AU     AUC  824  10.420  17.155   7.292
    3AU     AUC  825  10.795  17.200   7.296
    3AU    AUSL  826  11.052  17.578   8.322
    3AU    AUSL  827  10.813  17.191   8.245
    3AU     AUL  828  11.115  17.223   8.433
    3AU    AUSL  829  10.643  17.521   8.450
    3AU    AUSL  830  10.402  17.911   8.422
    3AU     AUL  831  10.633  17.828   8.711
    3AU    AUSL  832  10.748  17.873   8.197
    3AU    AUSL  833  11.192  17.926   8.124
    3AU     AUL  834  11.029  17.895   8.463
    3AU    AUSL  835  11.018  17.645   6.854
    3AU    AUSL  836  10.856  18.029   6.963
    3AU     AUL  837  11.092  17.946   6.682
    3AU    AUSL  838  10.825  17.328   6.639
    3AU    AUSL  839  11.328  17.419   7.026
    3AU     AUL  840  11.195  17.448   6.665
    3AU    AUSL  841  10.642  17.769   6.698
    3AU    AUSL  842  10.459  17.388   6.834
    3AU     AUL  843  10.566  17.422   6.504
    3AU    AUSL  844  10.021  17.855   8.212
    3AU    AUSL  845  10.353  18.171   8.094
    3AU     AUL  846  10.180  18.153   8.419
    3AU    AUSL  847  10.317  17.553   8.194
    3AU    AUSL  848   9.909  17.426   8.154
    3AU     AUL  849   9.831  17.646   8.301
    3AU    AUSL  850  10.030  17.378   6.827
    3AU    AUSL  851  10.270  17.058   7.009
    3AU     AUL  852  10.305  17.078   6.686
    3AU    AUSL  853  10.219  17.726   6.669
    3AU    AUSL  854   9.919  17.743   7.030
    3AU     AUL  855   9.803  17.578   6.770
    3AU    AUSL  856  11.326  18.124   7.493
    3AU    AUSL  857  11.247  17.890   7.111
    3AU     AUL  858  11.550  18.092   7.136
    3AU    AUSL  859  11.514  17.739   7.410
    3AU    AUSL  860  11.468  17.446   7.796
    3AU     AUL  861  11.764  17.549   7.628
    3AU    AUSL  862  11.230  17.781   7.733
    3AU    AUSL  863  11.055  18.181   7.803
    3AU     AUL  864  11.424  17.965   7.871
    3AU    AUSL  865   9.986  18.262   7.469
    3AU    AUSL  866  10.020  18.057   7.844
    3AU     AUL  867   9.697  18.283   7.664
    3AU    AUSL  868   9.819  17.863   7.418
    3AU    AUSL  869   9.951  18.165   7.066
    3AU     AUL  870   9.696  18.086   7.216
    3AU    AUSL  871   9.664  17.852   7.834
    3AU    AUSL  872   9.650  17.482   7.403
    3AU     AUL  873   9.470  17.820   7.532
    3AU    AUSL  874  11.252  17.093   7.656
    3AU    AUSL  875  11.083  17.374   7.958
    3AU     AUL  876  11.390  17.290   8.047
    3AU    AUSL  877  11.222  17.445   7.425
    3AU    AUSL  878  11.231  17.039   7.234
    3AU     AUL  879  11.488  17.272   7.329
    3AU    AUSL  880   9.828  17.123   7.610
    3AU    AUSL  881   9.994  17.312   7.235
    3AU     AUL  882   9.624  17.205   7.276
    3AU    AUSL  883   9.901  17.523   7.748
    3AU    AUSL  884  10.133  17.163   7.902
    3AU     AUL  885   9.812  17.158   7.957
    3AU    AUSL  886  10.635  18.426   7.900
    3AU    AUSL  887  10.189  18.450   7.799
    3AU     AUL  888  10.401  18.508   8.167
    3AU    AUSL  889  10.470  18.331   7.520
    3AU    AUSL  890  10.709  18.434   7.172
    3AU     AUL  891  10.447  18.681   7.444
    3AU    AUSL  892  10.891  18.472   7.552
    3AU    AUSL  893  10.895  18.261   8.186
    3AU     AUL  894  10.996  18.514   7.914
    3AU    AUSL  895  10.520  16.990   8.010
    3AU    AUSL  896  10.941  16.969   7.905
    3AU     AUL  897  10.695  16.894   8.281
    3AU    AUSL  898  10.233  16.791   7.743
    3AU    AUSL  899  10.291  17.162   8.314
    3AU     AUL  900  10.189  16.862   8.087
    3AU    AUSL  901  10.668  16.721   7.708
    3AU    AUSL  902  10.447  16.925   7.398
    3AU     AUL  903  10.343  16.568   7.521
    3AU    AUSL  904  10.545  18.253   6.797
    3AU    AUSL  905  11.099  18.294   7.188
    3AU     AUL  906  10.866  18.355   6.843
    3AU    AUSL  907  10.294  18.384   7.140
    3AU    AUSL  908  10.315  17.962   6.989
    3AU     AUL  909  10.222  18.232   6.779
    3AU    AUSL  910  10.661  16.899   7.019
    3AU    AUSL  911  10.039  16.889   7.332
    3AU     AUL  912  10.331  16.727   7.083
    3AU    AUSL  913  10.871  16.937   7.410
    3AU    AUSL  914  10.909  17.240   7.037
    3AU     AUL  915  10.990  16.903   7.001
    3AU       S  916  11.139  16.766   8.299
    3AU     LIG  917  11.324  16.321   8.297
    3AU     LIG  918  11.497  15.951   8.562
    3AU     LIG  919  11.525  15.488   8.470
    3AU       S  920  10.999  17.520   8.769
    3AU     LIG  921  11.421  17.575   8.696
    3AU     LIG  922  11.636  17.638   9.110
    3AU     LIG  923  11.562  17.489   9.572
    3AU       S  924  10.665  17.352   8.670
    3AU     LIG  925  10.698  17.341   9.149
    3AU     LIG  926  11.022  17.249   9.519
    3AU     LIG  927  11.272  17.171   9.930
    3AU       S  928  10.192  17.711   8.644
    3AU     LIG  929  10.278  17.709   9.090
    3AU     LIG  930   9.937  17.568   9.363
    3AU     LIG  931   9.653  17.572   9.734
    3AU       S  932  10.645  18.283   8.563
    3AU     LIG  933  10.912  18.639   8.653
    3AU     LIG  934  11.307  18.481   8.829
    3AU     LIG  935  11.462  18.072   8.791
    3AU       S  936  11.368  18.180   8.285
    3AU     LIG  937  11.763  18.134   8.380
    3AU     LIG  938  11.868  18.474   8.667
    3AU     LIG  939  12.138  18.823   8.867
    3AU       S  940  10.935  17.707   6.328
    3AU     LIG  941  11.374  17.776   6.281
    3AU     LIG  942  11.543  17.495   5.970
    3AU     LIG  943  11.253  17.121   5.983
    3AU       S  944  11.314  18.358   6.779
    3AU     LIG  945  11.346  18.752   6.587
    3AU     LIG  946  11.594  18.930   6.228
    3AU     LIG  947  11.965  18.939   5.949
    3AU       S  948  11.568  17.228   6.868
    3AU     LIG  949  11.584  17.252   6.404
    3AU     LIG  950  11.547  16.808   6.269
    3AU     LIG  951  11.635  16.392   6.478
    3AU       S  952  10.944  17.520   6.268
    3AU     LIG  953  10.733  17.189   6.071
    3AU     LIG  954  10.795  17.037   5.626
    3AU     LIG  955  10.973  17.103   5.188
    3AU       S  956  10.141  17.381   6.350
    3AU     LIG  957  10.216  17.330   5.920
    3AU     LIG  958  10.340  17.287   5.493
    3AU     LIG  959  10.245  17.103   5.086
    3AU       S  960  10.691  17.868   6.440
    3AU     LIG  961  10.486  17.723   6.081
    3AU     LIG  962  10.705  17.564   5.728
    3AU     LIG  963  11.133  17.432   5.585
    3AU       S  964   9.986  17.826   8.694
    3AU     LIG  965   9.725  17.519   8.819
    3AU     LIG  966   9.742  17.167   9.086
    3AU     LIG  967   9.720  17.083   9.544
    3AU       S  968   9.924  18.450   8.170
    3AU     LIG  969   9.778  18.631   8.533
    3AU     LIG  970   9.519  18.612   8.907
    3AU     LIG  971   9.148  18.457   9.131
    3AU       S  972   9.834  17.201   8.452
    3AU     LIG  973   9.434  17.285   8.303
    3AU     LIG  974   9.247  16.907   8.155
    3AU     LIG  975   9.071  16.541   8.395
    3AU       S  976  10.184  17.531   8.593
    3AU     LIG  977  10.227  17.242   8.937
    3AU     LIG  978  10.222  17.148   9.385
    3AU     LIG  979  10.100  17.309   9.816
    3AU       S  980   9.981  17.315   6.442
    3AU     LIG  981   9.777  17.101   6.110
    3AU     LIG  982   9.777  17.204   5.661
    3AU     LIG  983   9.884  17.455   5.292
    3AU       S  984   9.928  16.862   6.867
    3AU     LIG  985   9.788  16.621   6.526
    3AU     LIG  986   9.664  16.590   6.081
    3AU     LIG  987   9.296  16.381   5.892
    3AU       S  988   9.617  17.998   6.742
    3AU     LIG  989   9.301  18.339   6.777
    3AU     LIG  990   9.222  18.666   6.436
    3AU     LIG  991   9.257  18.752   5.979
    3AU       S  992  10.164  17.679   6.462
    3AU     LIG  993   9.893  17.775   6.158
    3AU     LIG  994   9.972  17.742   5.715
    3AU     LIG  995  10.285  17.791   5.380
    3AU       S  996  11.414  18.261   6.746
    3AU     LIG  997  11.842  18.236   6.629
    3AU     LIG  998  12.090  18.486   6.286
    3AU     LIG  999  12.423  18.802   6.123
    3AU       S 1000  11.515  18.310   7.558
    3AU     LIG 1001  11.891  18.558   7.501
    3AU     LIG 1002  12.328  18.428   7.531
    3AU     LIG 1003  12.642  18.596   7.804
    3AU       S 1004  11.789  17.999   7.515
    3AU     LIG 1005  12.037  18.158   7.175
    3AU     LIG 1006  12.462  18.097   7.127
    3AU     LIG 1007  12.795  18.342   7.267
    3AU       S 1008  11.722  17.094   7.796
    3AU     LIG 1009  12.084  17.036   8.017
    3AU     LIG 1010  12.528  17.053   7.908
    3AU     LIG 1011  12.839  16.722   7.815
    3AU       S 1012  11.404  18.379   8.072
    3AU     LIG 1013  11.812  18.568   8.117
    3AU     LIG 1014  11.956  18.927   8.392
    3AU     LIG 1015  11.938  19.285   8.711
    3AU       S 1016  11.779  18.104   7.642
    3AU     LIG 1017  12.060  17.952   7.940
    3AU     LIG 1018  12.471  18.134   7.972
    3AU     LIG 1019  12.933  18.202   7.962
    3AU       S 1020   9.837  18.266   8.100
    3AU     LIG 1021   9.610  18.141   8.452
    3AU     LIG 1022   9.200  18.325   8.613
    3AU     LIG 1023   8.807  18.575   8.737
    3AU       S 1024   9.928  18.581   7.370
    3AU     LIG 1025   9.867  19.003   7.432
    3AU     LIG 1026   9.539  18.974   7.130
    3AU     LIG 1027   9.413  18.545   7.250
    3AU       S 1028   9.426  17.714   7.074
    3AU     LIG 1029   8.992  17.786   6.960
    3AU     LIG 1030   8.739  18.140   6.958
    3AU     LIG 1031   8.913  18.408   7.279
    3AU       S 1032   9.810  18.414   6.896
    3AU     LIG 1033   9.845  18.794   6.745
    3AU     LIG 1034   9.517  19.061   6.599
    3AU     LIG 1035   9.240  19.185   6.251
    3AU       S 1036   9.427  17.376   7.682
    3AU     LIG 1037   9.106  17.471   7.411
    3AU     LIG 1038   8.743  17.387   7.169
    3AU     LIG 1039   8.348  17.173   7.145
    3AU       S 1040   9.533  17.887   8.010
    3AU     LIG 1041   9.164  17.969   8.219
    3AU     LIG 1042   8.953  18.355   8.144
    3AU     LIG 1043   9.108  18.582   7.751
    3AU       S 1044  11.421  16.945   7.679
    3AU     LIG 1045  11.515  16.609   7.434
    3AU     LIG 1046  11.936  16.490   7.568
    3AU     LIG 1047  12.293  16.602   7.820
    3AU       S 1048  11.321  16.858   8.155
    3AU     LIG 1049  11.652  16.580   7.992
    3AU     LIG 1050  11.840  16.227   8.278
    3AU     LIG 1051  11.918  16.198   8.765
    3AU       S 1052  11.708  17.028   7.633
    3AU     LIG 1053  11.910  16.928   7.288
    3AU     LIG 1054  12.358  16.846   7.357
    3AU     LIG 1055  12.808  16.845   7.309
    3AU       S 1056  11.473  16.925   7.010
    3AU     LIG 1057  11.337  16.521   6.916
    3AU     LIG 1058  11.304  16.096   6.740
    3AU     LIG 1059  11.495  15.666   6.610
    3AU       S 1060   9.799  16.985   6.919
    3AU     LIG 1061   9.540  17.070   6.582
    3AU     LIG 1062   9.252  16.775   6.360
    3AU     LIG 1063   8.919  16.430   6.494
    3AU       S 1064   9.429  17.137   7.704
    3AU     LIG 1065   9.046  17.004   7.689
    3AU     LIG 1066   8.692  16.959   7.458
    3AU     LIG 1067   8.630  16.688   7.101
    3AU       S 1068   9.844  16.989   8.383
    3AU     LIG 1069   9.716  16.685   8.058
    3AU     LIG 1070   9.405  16.367   8.060
    3AU     LIG 1071   9.307  16.078   8.394
    3AU       S 1072   9.458  17.425   7.837
    3AU     LIG 1073   9.019  17.512   7.932
    3AU     LIG 1074   8.663  17.232   7.922
    3AU     LIG 1075   8.381  17.003   8.168
    3AU       S 1076  10.078  18.621   7.835
    3AU     LIG 1077   9.666  18.735   7.872
    3AU     LIG 1078   9.386  18.616   8.202
    3AU     LIG 1079   9.215  18.849   8.564
    3AU       S 1080  10.626  18.775   7.856
    3AU     LIG 1081  10.669  18.952   8.242
    3AU     LIG 1082  10.542  19.395   8.306
    3AU     LIG 1083  10.276  19.772   8.409
    3AU       S 1084  10.746  18.940   7.734
    3AU     LIG 1085  10.305  19.130   7.744
    3AU     LIG 1086  10.166  19.508   7.965
    3AU     LIG 1087  10.300  19.933   7.917
    3AU       S 1088  10.638  18.725   7.021
    3AU     LIG 1089  10.637  19.121   7.246
    3AU     LIG 1090  10.791  19.543   7.172
    3AU     LIG 1091  10.788  19.939   6.980
    3AU       S 1092  11.158  18.362   8.335
    3AU     LIG 1093  11.420  18.742   8.414
    3AU     LIG 1094  11.610  18.898   8.794
    3AU     LIG 1095  11.729  18.658   9.165
    3AU       S 1096  10.913  18.769   7.519
    3AU     LIG 1097  11.024  19.280   7.543
    3AU     LIG 1098  10.685  19.519   7.783
    3AU     LIG 1099  10.748  19.844   8.122
    3AU       S 1100  10.518  16.504   8.105
    3AU     LIG 1101  10.865  16.166   8.139
    3AU     LIG 1102  11.021  15.816   8.405
    3AU     LIG 1103  10.719  15.505   8.582
    3AU       S 1104  11.082  16.827   8.019
    3AU     LIG 1105  11.176  16.500   7.809
    3AU     LIG 1106  11.291  16.097   7.795
    3AU     LIG 1107  11.415  15.814   8.085
    3AU       S 1108  10.338  16.439   7.965
    3AU     LIG 1109  10.368  16.042   7.844
    3AU     LIG 1110  10.126  15.704   8.002
    3AU     LIG 1111  10.265  15.438   8.349
    3AU       S 1112  10.116  17.060   8.502
    3AU     LIG 1113  10.053  16.556   8.455
    3AU     LIG 1114   9.610  16.461   8.528
    3AU     LIG 1115   9.276  16.299   8.842
    3AU       S 1116  10.730  16.506   7.284
    3AU     LIG 1117  10.436  16.139   7.280
    3AU     LIG 1118  10.435  15.798   6.995
    3AU     LIG 1119  10.596  15.405   6.964
    3AU       S 1120  10.672  16.546   7.874
    3AU     LIG 1121  10.798  16.202   7.642
    3AU     LIG 1122  10.849  15.811   7.721
    3AU     LIG 1123  10.668  15.661   8.086
    3AU       S 1124  10.485  18.638   6.748
    3AU     LIG 1125  10.588  19.117   6.710
    3AU     LIG 1126  10.736  19.565   6.634
    3AU     LIG 1127  10.791  20.000   6.456
    3AU       S 1128  11.260  18.466   7.090
    3AU     LIG 1129  11.700  18.573   7.024
    3AU     LIG 1130  11.866  18.766   6.652
    3AU     LIG 1131  12.114  19.082   6.426
    3AU       S 1132  10.287  18.648   6.998
    3AU     LIG 1133  10.188  19.055   7.032
    3AU     LIG 1134  10.327  19.504   6.946
    3AU     LIG 1135  10.334  19.949   6.761
    3AU       S 1136   9.841  18.040   6.632
    3AU     LIG 1137   9.666  18.376   6.407
    3AU     LIG 1138   9.724  18.753   6.242
    3AU     LIG 1139   9.690  19.057   5.962
    3AU       S 1140   9.876  16.818   7.184
    3AU     LIG 1141   9.489  16.682   7.199
    3AU     LIG 1142   9.352  16.522   6.805
    3AU     LIG 1143   9.401  16.288   6.396
    3AU       S 1144  10.760  16.526   7.135
    3AU     LIG 1145  10.868  16.401   6.761
    3AU     LIG 1146  10.850  16.010   6.516
    3AU     LIG 1147  10.656  15.576   6.471
    3AU       S 1148  10.990  16.626   7.378
    3AU     LIG 1149  11.167  16.237   7.301
    3AU     LIG 1150  10.912  15.972   7.086
    3AU     LIG 1151  11.021  15.634   6.812
    3AU       S 1152  11.359  17.019   6.762
    3AU     LIG 1153  11.071  16.852   6.495
    3AU     LIG 1154  11.143  16.421   6.322
    3AU     LIG 1155  11.357  16.002   6.233
    4AU     AUC 1156  44.859  10.916   7.529
    4AU     AUC 1157   0.121  10.918   7.367
    4AU     AUC 1158   0.098  10.919   7.702
    4AU     AUC 1159  44.589  10.903   7.369
    4AU     AUC 1160  44.606  10.959   7.693
    4AU     AUC 1161  44.698  11.174   7.486
    4AU     AUC 1162   0.038  11.186   7.499
    4AU     AUC 1163  44.689  10.657   7.555
    4AU     AUC 1164   0.024  10.647   7.556
    4AU     AUC 1165  44.853  10.772   7.808
    4AU     AUC 1166  44.861  11.115   7.769
    4AU     AUC 1167  44.863  10.727   7.283
    4AU     AUC 1168  44.873  11.039   7.254
    4AU     AUC 1169   0.438  10.923   7.214
    4AU     AUC 1170   0.422  10.908   7.556
    4AU     AUC 1171   0.375  10.905   7.912
    4AU     AUC 1172  44.290  10.860   7.227
    4AU     AUC 1173  44.287  10.947   7.551
    4AU     AUC 1174  44.309  11.011   7.867
    4AU     AUC 1175  44.534  11.474   7.419
    4AU     AUC 1176  44.892  11.464   7.412
    4AU     AUC 1177   0.227  11.460   7.454
    4AU     AUC 1178  44.502  10.370   7.580
    4AU     AUC 1179  44.852  10.352   7.561
    4AU     AUC 1180   0.207  10.355   7.573
    4AU     AUC 1181  44.827  10.616   8.112
    4AU     AUC 1182  44.836  10.969   8.092
    4AU     AUC 1183  44.886  11.328   8.045
    4AU     AUC 1184  44.903  10.535   7.010
    4AU     AUC 1185  44.853  10.858   6.955
    4AU     AUC 1186  44.838  11.175   6.939
    4AU     AUC 1187   0.092  10.738   8.023
    4AU     AUC 1188   0.134  11.099   7.995
    4AU     AUC 1189   0.175  10.746   7.079
    4AU     AUC 1190   0.139  11.059   7.080
    4AU     AUC 1191  44.562  10.834   8.007
    4AU     AUC 1192  44.594  11.189   7.950
    4AU     AUC 1193  44.584  10.679   7.113
    4AU     AUC 1194  44.545  10.987   7.059
    4AU     AUC 1195   0.353  11.194   7.346
    4AU     AUC 1196   0.293  11.189   7.697
    4AU     AUC 1197  44.398  11.178   7.344
    4AU     AUC 1198  44.435  11.273   7.671
    4AU     AUC 1199   0.333  10.640   7.407
    4AU     AUC 1200   0.279  10.612   7.750
    4AU     AUC 1201  44.393  10.601   7.410
    4AU     AUC 1202  44.416  10.686   7.738
    4AU     AUC 1203  44.743  11.423   7.739
    4AU     AUC 1204   0.063  11.392   7.768
    4AU     AUC 1205  44.673  10.493   7.843
    4AU     AUC 1206  44.986  10.445   7.834
    4AU     AUC 1207  44.672  11.322   7.172
    4AU     AUC 1208   0.035  11.356   7.188
    4AU     AUC 1209  44.706  10.436   7.286
    4AU     AUC 1210   0.081  10.480   7.287
    4AU    AUSL 1211   0.335  10.849   8.314
    4AU    AUSL 1212   0.119  10.457   8.237
    4AU     AUL 1213   0.422  10.507   8.431
    4AU    AUSL 1214  44.924  10.784   8.431
    4AU    AUSL 1215  44.681  11.179   8.409
    4AU     AUL 1216  44.901  11.090   8.700
    4AU    AUSL 1217   0.031  11.143   8.189
    4AU    AUSL 1218   0.474  11.197   8.121
    4AU     AUL 1219   0.300  11.163   8.460
    4AU    AUSL 1220   0.305  10.937   6.880
    4AU    AUSL 1221   0.153  11.325   6.962
    4AU     AUL 1222   0.363  11.255   6.677
    4AU    AUSL 1223   0.134  10.643   6.627
    4AU    AUSL 1224   0.614  10.688   7.007
    4AU     AUL 1225   0.516  10.801   6.666
    4AU    AUSL 1226  44.937  11.056   6.701
    4AU    AUSL 1227  44.758  10.663   6.816
    4AU     AUL 1228  44.859  10.703   6.487
    4AU    AUSL 1229  44.300  11.125   8.197
    4AU    AUSL 1230  44.642  11.449   8.086
    4AU     AUL 1231  44.462  11.424   8.405
    4AU    AUSL 1232  44.595  10.823   8.179
    4AU    AUSL 1233  44.190  10.691   8.144
    4AU     AUL 1234  44.098  10.917   8.268
    4AU    AUSL 1235  44.330  10.659   6.819
    4AU    AUSL 1236  44.564  10.345   7.010
    4AU     AUL 1237  44.607  10.354   6.679
    4AU    AUSL 1238  44.518  11.005   6.657
    4AU    AUSL 1239  44.219  11.028   7.011
    4AU     AUL 1240  44.102  10.853   6.757
    4AU    AUSL 1241   0.612  11.404   7.497
    4AU    AUSL 1242   0.562  11.195   7.092
    4AU     AUL 1243   0.884  11.419   7.191
    4AU    AUSL 1244   0.803  11.025   7.400
    4AU    AUSL 1245   0.762  10.725   7.781
    4AU     AUL 1246   1.056  10.824   7.578
    4AU    AUSL 1247   0.519  11.058   7.729
    4AU    AUSL 1248   0.335  11.453   7.802
    4AU     AUL 1249   0.709  11.236   7.875
    4AU    AUSL 1250  44.279  11.540   7.460
    4AU    AUSL 1251  44.311  11.337   7.836
    4AU     AUL 1252  43.992  11.571   7.650
    4AU    AUSL 1253  44.114  11.142   7.398
    4AU    AUSL 1254  44.248  11.451   7.055
    4AU     AUL 1255  43.992  11.370   7.199
    4AU    AUSL 1256  43.952  11.139   7.806
    4AU    AUSL 1257  43.935  10.765   7.402
    4AU     AUL 1258  43.752  11.102   7.507
    4AU    AUSL 1259   0.548  10.372   7.639
    4AU    AUSL 1260   0.378  10.650   7.947
    4AU     AUL 1261   0.676  10.550   8.032
    4AU    AUSL 1262   0.516  10.725   7.409
    4AU    AUSL 1263   0.511  10.314   7.218
    4AU     AUL 1264   0.774  10.543   7.294
    4AU    AUSL 1265  44.114  10.407   7.604
    4AU    AUSL 1266  44.273  10.593   7.224
    4AU     AUL 1267  43.896  10.473   7.294
    4AU    AUSL 1268  44.193  10.807   7.743
    4AU    AUSL 1269  44.424  10.439   7.891
    4AU     AUL 1270  44.108  10.422   7.933
    4AU    AUSL 1271  44.924  11.706   7.897
    4AU    AUSL 1272  44.480  11.729   7.789
    4AU     AUL 1273  44.690  11.787   8.153
    4AU    AUSL 1274  44.763  11.607   7.515
    4AU    AUSL 1275   0.004  11.720   7.171
    4AU     AUL 1276  44.752  11.959   7.447
    4AU    AUSL 1277   0.185  11.751   7.552
    4AU    AUSL 1278   0.175  11.532   8.185
    4AU     AUL 1279   0.284  11.788   7.907
    4AU    AUSL 1280  44.815  10.276   7.999
    4AU    AUSL 1281   0.235  10.247   7.884
    4AU     AUL 1282   0.001  10.158   8.253
    4AU    AUSL 1283  44.521  10.065   7.739
    4AU    AUSL 1284  44.579  10.434   8.305
    4AU     AUL 1285  44.506  10.135   8.087
    4AU    AUSL 1286  44.953   9.994   7.705
    4AU    AUSL 1287  44.735  10.205   7.397
    4AU     AUL 1288  44.635   9.848   7.513
    4AU    AUSL 1289  44.842  11.544   6.792
    4AU    AUSL 1290   0.397  11.587   7.191
    4AU     AUL 1291   0.171  11.661   6.849
    4AU    AUSL 1292  44.589  11.669   7.137
    4AU    AUSL 1293  44.611  11.248   6.976
    4AU     AUL 1294  44.520  11.518   6.771
    4AU    AUSL 1295  44.948  10.169   7.020
    4AU    AUSL 1296  44.328  10.170   7.329
    4AU     AUL 1297  44.619  10.008   7.078
    4AU    AUSL 1298   0.159  10.214   7.411
    4AU    AUSL 1299   0.188  10.514   7.019
    4AU     AUL 1300   0.271  10.156   7.026
    4AU       S 1301   0.454  10.068   8.272
    4AU     LIG 1302   0.306   9.651   8.321
    4AU     LIG 1303   0.489   9.266   8.537
    4AU     LIG 1304   0.896   9.202   8.776
    4AU       S 1305   0.267  10.786   8.764
    4AU     LIG 1306   0.646  11.007   8.814
    4AU     LIG 1307   0.831  10.984   9.243
    4AU     LIG 1308   0.771  10.775   9.674
    4AU       S 1309  44.930  10.617   8.644
    4AU     LIG 1310  44.910  10.642   9.098
    4AU     LIG 1311   0.256  10.601   9.438
    4AU     LIG 1312   0.457  10.366   9.804
    4AU       S 1313  44.460  10.978   8.627
    4AU     LIG 1314  44.525  11.001   9.076
    4AU     LIG 1315  44.198  10.845   9.372
    4AU     LIG 1316  43.926  10.955   9.750
    4AU       S 1317  44.919  11.550   8.558
    4AU     LIG 1318   0.223  11.796   8.746
    4AU     LIG 1319   0.565  11.521   8.815
    4AU     LIG 1320   0.965  11.415   8.966
    4AU       S 1321   0.647  11.440   8.295
    4AU     LIG 1322   1.027  11.469   8.451
    4AU     LIG 1323   1.236  11.770   8.703
    4AU     LIG 1324   1.304  12.181   8.905
    4AU       S 1325   0.214  11.025   6.315
    4AU     LIG 1326   0.460  11.116   5.929
    4AU     LIG 1327   0.747  10.829   5.726
    4AU     LIG 1328   0.633  10.447   5.483
    4AU       S 1329   0.626  11.625   6.791
    4AU     LIG 1330   0.564  11.954   6.522
    4AU     LIG 1331   0.764  12.074   6.115
    4AU     LIG 1332   1.105  12.259   5.860
    4AU       S 1333   0.791  10.445   6.819
    4AU     LIG 1334   0.913  10.176   6.454
    4AU     LIG 1335   0.774   9.741   6.409
    4AU     LIG 1336   0.877   9.290   6.495
    4AU       S 1337   0.240  10.854   6.292
    4AU     LIG 1338   0.322  10.598   5.952
    4AU     LIG 1339   0.114  10.425   5.586
    4AU     LIG 1340   0.201  10.447   5.135
    4AU       S 1341  44.427  10.654   6.345
    4AU     LIG 1342  44.479  10.728   5.916
    4AU     LIG 1343  44.622  10.606   5.509
    4AU     LIG 1344  44.518  10.721   5.081
    4AU       S 1345  44.963  11.161   6.448
    4AU     LIG 1346  44.765  11.108   6.086
    4AU     LIG 1347  44.967  10.918   5.749
    4AU     LIG 1348   0.318  10.878   5.456
    4AU       S 1349  44.255  11.091   8.664
    4AU     LIG 1350  43.962  10.804   8.753
    4AU     LIG 1351  43.883  10.515   9.068
    4AU     LIG 1352  43.782  10.528   9.508
    4AU       S 1353  44.212  11.741   8.159
    4AU     LIG 1354  43.878  11.919   8.379
    4AU     LIG 1355  43.688  11.913   8.789
    4AU     LIG 1356  43.395  12.164   9.018
    4AU       S 1357  44.104  10.467   8.417
    4AU     LIG 1358  43.688  10.387   8.231
    4AU     LIG 1359  43.515   9.964   8.255
    4AU     LIG 1360  43.322   9.737   8.639
    4AU       S 1361  44.452  10.805   8.572
    4AU     LIG 1362  44.392  10.537   8.946
    4AU     LIG 1363  44.273  10.337   9.364
    4AU     LIG 1364  44.239  10.514   9.804
    4AU       S 1365  44.264  10.567   6.441
    4AU     LIG 1366  44.037  10.321   6.145
    4AU     LIG 1367  44.096  10.435   5.694
    4AU     LIG 1368  44.169  10.848   5.486
    4AU       S 1369  44.220  10.164   6.864
    4AU     LIG 1370  44.011   9.893   6.603
    4AU     LIG 1371  43.901   9.799   6.170
    4AU     LIG 1372  43.616  10.021   5.900
    4AU       S 1373  43.943  11.279   6.716
    4AU     LIG 1374  43.673  11.602   6.679
    4AU     LIG 1375  43.674  12.009   6.489
    4AU     LIG 1376  43.710  12.088   6.013
    4AU       S 1377  44.450  10.941   6.439
    4AU     LIG 1378  44.208  11.107   6.160
    4AU     LIG 1379  44.352  11.245   5.764
    4AU     LIG 1380  44.614  11.124   5.415
    4AU       S 1381   0.741  11.496   6.771
    4AU     LIG 1382   0.888  11.599   6.335
    4AU     LIG 1383   1.227  11.814   6.093
    4AU     LIG 1384   1.574  12.117   6.196
    4AU       S 1385   0.755  11.623   7.597
    4AU     LIG 1386   1.045  11.919   7.408
    4AU     LIG 1387   1.496  11.987   7.472
    4AU     LIG 1388   1.771  11.740   7.746
    4AU       S 1389   1.079  11.296   7.591
    4AU     LIG 1390   1.482  11.443   7.450
    4AU     LIG 1391   1.936  11.332   7.370
    4AU     LIG 1392   2.246  11.251   6.999
    4AU       S 1393   1.025  10.388   7.781
    4AU     LIG 1394   1.177  10.029   7.993
    4AU     LIG 1395   1.576   9.893   7.907
    4AU     LIG 1396   1.700  10.221   7.586
    4AU       S 1397   0.674  11.644   8.097
    4AU     LIG 1398   1.059  11.846   8.096
    4AU     LIG 1399   1.161  12.169   8.390
    4AU     LIG 1400   0.895  12.405   8.679
    4AU       S 1401   1.021  11.505   7.700
    4AU     LIG 1402   1.374  11.432   7.976
    4AU     LIG 1403   1.799  11.258   7.886
    4AU     LIG 1404   2.219  11.468   7.858
    4AU       S 1405  44.136  11.545   8.085
    4AU     LIG 1406  43.901  11.405   8.423
    4AU     LIG 1407  43.462  11.592   8.451
    4AU     LIG 1408  43.163  11.793   8.753
    4AU       S 1409  44.220  11.869   7.360
    4AU     LIG 1410  43.965  12.219   7.296
    4AU     LIG 1411  43.653  12.179   7.000
    4AU     LIG 1412  43.317  11.857   6.913
    4AU       S 1413  43.736  10.992   7.049
    4AU     LIG 1414  43.391  10.769   6.867
    4AU     LIG 1415  43.017  11.017   6.946
    4AU     LIG 1416  43.088  11.434   7.131
    4AU       S 1417  44.111  11.709   6.884
    4AU     LIG 1418  44.146  12.155   6.819
    4AU     LIG 1419  43.874  12.472   6.609
    4AU     LIG 1420  43.582  12.502   6.276
    4AU       S 1421  43.728  10.674   7.695
    4AU     LIG 1422  43.417  10.697   7.368
    4AU     LIG 1423  42.994  10.570   7.211
    4AU     LIG 1424  42.576  10.415   7.023
    4AU       S 1425  43.822  11.195   7.975
    4AU     LIG 1426  43.570  11.034   8.274
    4AU     LIG 1427  43.213  11.275   8.130
    4AU     LIG 1428  43.329  11.390   7.685
    4AU       S 1429   0.727  10.230   7.655
    4AU     LIG 1430   0.799   9.832   7.575
    4AU     LIG 1431   1.183   9.621   7.655
    4AU     LIG 1432   1.536   9.759   7.420
    4AU       S 1433   0.618  10.108   8.114
    4AU     LIG 1434   0.839   9.679   8.089
    4AU     LIG 1435   1.278   9.508   8.181
    4AU     LIG 1436   1.388   9.233   8.570
    4AU       S 1437   1.007  10.318   7.604
    4AU     LIG 1438   1.165  10.108   7.272
    4AU     LIG 1439   1.605  10.125   7.079
    4AU     LIG 1440   2.078  10.109   7.154
    4AU       S 1441   0.734  10.201   6.953
    4AU     LIG 1442   0.603   9.782   6.943
    4AU     LIG 1443   0.459   9.385   6.772
    4AU     LIG 1444   0.428   9.033   6.440
    4AU       S 1445  44.085  10.281   6.928
    4AU     LIG 1446  43.804  10.385   6.638
    4AU     LIG 1447  43.533  10.072   6.423
    4AU     LIG 1448  43.142  10.014   6.174
    4AU       S 1449  43.696  10.478   7.734
    4AU     LIG 1450  43.611  10.092   7.700
    4AU     LIG 1451  43.271  10.075   7.390
    4AU     LIG 1452  42.821  10.114   7.374
    4AU       S 1453  44.138  10.227   8.348
    4AU     LIG 1454  44.047   9.945   7.966
    4AU     LIG 1455  43.776   9.602   7.923
    4AU     LIG 1456  43.646   9.472   8.331
    4AU       S 1457  43.763  10.720   7.863
    4AU     LIG 1458  43.327  10.881   7.841
    4AU     LIG 1459  43.068  10.552   7.730
    4AU     LIG 1460  42.734  10.428   7.995
    4AU       S 1461  44.360  11.905   7.828
    4AU     LIG 1462  43.934  12.048   7.810
    4AU     LIG 1463  43.519  12.007   8.026
    4AU     LIG 1464  43.374  12.150   8.454
    4AU       S 1465  44.926  12.077   7.857
    4AU     LIG 1466   0.090  12.083   8.275
    4AU     LIG 1467  44.950  12.494   8.462
    4AU     LIG 1468  44.596  12.832   8.440
    4AU       S 1469   0.077  12.228   7.716
    4AU     LIG 1470  44.709  12.530   7.655
    4AU     LIG 1471  44.531  12.905   7.910
    4AU     LIG 1472  44.619  13.303   8.194
    4AU       S 1473  44.918  12.020   7.013
    4AU     LIG 1474  44.962  12.408   7.221
    4AU     LIG 1475   0.024  12.868   7.285
    4AU     LIG 1476   0.212  13.286   7.100
    4AU       S 1477   0.417  11.631   8.331
    4AU     LIG 1478   0.722  11.910   8.526
    4AU     LIG 1479   0.829  11.956   8.952
    4AU     LIG 1480   1.143  11.820   9.257
    4AU       S 1481   0.223  12.035   7.504
    4AU     LIG 1482   0.399  12.497   7.468
    4AU     LIG 1483   0.170  12.741   7.775
    4AU     LIG 1484  44.995  12.920   8.136
    4AU       S 1485  44.816   9.760   8.097
    4AU     LIG 1486  44.999   9.296   8.106
    4AU     LIG 1487   0.095   8.915   8.395
    4AU     LIG 1488  44.882   8.529   8.611
    4AU       S 1489   0.378  10.064   7.970
    4AU     LIG 1490   0.413   9.637   7.832
    4AU     LIG 1491   0.544   9.254   8.039
    4AU     LIG 1492   0.928   9.138   8.268
    4AU       S 1493  44.616   9.703   7.955
    4AU     LIG 1494  44.524   9.372   7.725
    4AU     LIG 1495  44.743   8.968   7.703
    4AU     LIG 1496  44.743   8.683   8.081
    4AU       S 1497  44.375  10.342   8.492
    4AU     LIG 1498  44.116  10.112   8.828
    4AU     LIG 1499  43.825   9.742   8.765
    4AU     LIG 1500  43.596   9.327   8.838
    4AU       S 1501   0.027   9.782   7.288
    4AU     LIG 1502  44.699   9.426   7.225
    4AU     LIG 1503  44.711   8.977   7.150
    4AU     LIG 1504  44.972   8.607   7.089
    4AU       S 1505  44.949   9.813   7.877
    4AU     LIG 1506  44.999   9.457   7.631
    4AU     LIG 1507   0.244   9.142   7.655
    4AU     LIG 1508   0.220   8.805   7.917
    4AU       S 1509  44.775  11.920   6.742
    4AU     LIG 1510  44.681  12.381   6.751
    4AU     LIG 1511  44.972  12.746   6.783
    4AU     LIG 1512   0.123  13.175   6.608
    4AU       S 1513   0.570  11.753   7.086
    4AU     LIG 1514   0.918  12.008   6.916
    4AU     LIG 1515   1.106  12.099   6.512
    4AU     LIG 1516   1.229  12.483   6.303
    4AU       S 1517  44.580  11.932   7.001
    4AU     LIG 1518  44.465  12.301   7.211
    4AU     LIG 1519  44.554  12.733   7.122
    4AU     LIG 1520  44.734  13.154   6.959
    4AU       S 1521  44.145  11.322   6.619
    4AU     LIG 1522  44.097  11.683   6.375
    4AU     LIG 1523  44.149  12.124   6.308
    4AU     LIG 1524  44.049  12.487   6.067
    4AU       S 1525  44.165  10.103   7.180
    4AU     LIG 1526  43.788   9.958   7.237
    4AU     LIG 1527  43.559   9.790   6.908
    4AU     LIG 1528  43.625   9.562   6.531
    4AU       S 1529   0.038   9.785   7.151
    4AU     LIG 1530  44.987   9.588   6.797
    4AU     LIG 1531  44.972   9.161   6.660
    4AU     LIG 1532   0.029   8.698   6.559
    4AU       S 1533   0.303   9.894   7.412
    4AU     LIG 1534   0.426   9.502   7.324
    4AU     LIG 1535   0.173   9.218   7.159
    4AU     LIG 1536   0.324   8.905   6.920
    4AU       S 1537   0.514  10.332   6.691
    4AU     LIG 1538   0.297   9.939   6.564
    4AU     LIG 1539   0.318   9.530   6.309
    4AU     LIG 1540   0.633   9.277   6.031
    5AU     AUC 1541  27.014   5.024   7.515
    5AU     AUC 1542  27.271   5.020   7.350
    5AU     AUC 1543  27.263   5.024   7.687
    5AU     AUC 1544  26.743   5.016   7.354
    5AU     AUC 1545  26.764   5.071   7.680
    5AU     AUC 1546  26.853   5.285   7.473
    5AU     AUC 1547  27.192   5.286   7.481
    5AU     AUC 1548  26.839   4.768   7.541
    5AU     AUC 1549  27.173   4.752   7.540
    5AU     AUC 1550  27.008   4.884   7.795
    5AU     AUC 1551  27.020   5.226   7.753
    5AU     AUC 1552  27.013   4.836   7.266
    5AU     AUC 1553  27.029   5.148   7.239
    5AU     AUC 1554  27.589   5.013   7.194
    5AU     AUC 1555  27.580   4.997   7.534
    5AU     AUC 1556  27.550   5.010   7.887
    5AU     AUC 1557  26.443   4.976   7.210
    5AU     AUC 1558  26.440   5.060   7.536
    5AU     AUC 1559  26.466   5.126   7.858
    5AU     AUC 1560  26.690   5.587   7.409
    5AU     AUC 1561  27.049   5.577   7.402
    5AU     AUC 1562  27.383   5.558   7.446
    5AU     AUC 1563  26.647   4.486   7.565
    5AU     AUC 1564  26.994   4.463   7.548
    5AU     AUC 1565  27.343   4.453   7.559
    5AU     AUC 1566  26.980   4.736   8.100
    5AU     AUC 1567  27.000   5.086   8.076
    5AU     AUC 1568  27.052   5.444   8.028
    5AU     AUC 1569  27.050   4.643   6.992
    5AU     AUC 1570  27.005   4.972   6.938
    5AU     AUC 1571  26.997   5.291   6.926
    5AU     AUC 1572  27.253   4.853   8.005
    5AU     AUC 1573  27.303   5.207   7.972
    5AU     AUC 1574  27.321   4.849   7.058
    5AU     AUC 1575  27.295   5.167   7.063
    5AU     AUC 1576  26.717   4.953   7.995
    5AU     AUC 1577  26.755   5.303   7.937
    5AU     AUC 1578  26.736   4.794   7.095
    5AU     AUC 1579  26.700   5.103   7.044
    5AU     AUC 1580  27.513   5.280   7.333
    5AU     AUC 1581  27.463   5.274   7.673
    5AU     AUC 1582  26.552   5.292   7.331
    5AU     AUC 1583  26.590   5.384   7.657
    5AU     AUC 1584  27.472   4.734   7.385
    5AU     AUC 1585  27.428   4.709   7.735
    5AU     AUC 1586  26.545   4.714   7.391
    5AU     AUC 1587  26.573   4.804   7.723
    5AU     AUC 1588  26.900   5.535   7.727
    5AU     AUC 1589  27.224   5.502   7.749
    5AU     AUC 1590  26.819   4.610   7.832
    5AU     AUC 1591  27.135   4.557   7.822
    5AU     AUC 1592  26.829   5.436   7.162
    5AU     AUC 1593  27.189   5.457   7.180
    5AU     AUC 1594  26.853   4.546   7.268
    5AU     AUC 1595  27.223   4.580   7.267
    5AU    AUSL 1596  27.506   4.968   8.280
    5AU    AUSL 1597  27.268   4.578   8.223
    5AU     AUL 1598  27.584   4.624   8.398
    5AU    AUSL 1599  27.095   4.912   8.416
    5AU    AUSL 1600  26.856   5.299   8.397
    5AU     AUL 1601  27.080   5.221   8.687
    5AU    AUSL 1602  27.200   5.264   8.166
    5AU    AUSL 1603  27.651   5.321   8.086
    5AU     AUL 1604  27.469   5.276   8.428
    5AU    AUSL 1605  27.459   5.042   6.867
    5AU    AUSL 1606  27.325   5.441   6.936
    5AU     AUL 1607  27.553   5.367   6.663
    5AU    AUSL 1608  27.284   4.758   6.606
    5AU    AUSL 1609  27.757   4.776   6.984
    5AU     AUL 1610  27.662   4.902   6.640
    5AU    AUSL 1611  27.096   5.174   6.688
    5AU    AUSL 1612  26.911   4.780   6.798
    5AU     AUL 1613  27.021   4.827   6.470
    5AU    AUSL 1614  26.469   5.252   8.194
    5AU    AUSL 1615  26.798   5.559   8.070
    5AU     AUL 1616  26.633   5.547   8.397
    5AU    AUSL 1617  26.758   4.942   8.172
    5AU    AUSL 1618  26.344   4.830   8.129
    5AU     AUL 1619  26.271   5.047   8.276
    5AU    AUSL 1620  26.485   4.782   6.800
    5AU    AUSL 1621  26.712   4.461   6.988
    5AU     AUL 1622  26.766   4.473   6.655
    5AU    AUSL 1623  26.676   5.127   6.641
    5AU    AUSL 1624  26.372   5.148   6.997
    5AU     AUL 1625  26.259   4.977   6.739
    5AU    AUSL 1626  27.817   5.486   7.485
    5AU    AUSL 1627  27.717   5.292   7.085
    5AU     AUL 1628  28.064   5.457   7.141
    5AU    AUSL 1629  27.959   5.084   7.368
    5AU    AUSL 1630  27.918   4.788   7.733
    5AU     AUL 1631  28.227   4.834   7.505
    5AU    AUSL 1632  27.702   5.145   7.716
    5AU    AUSL 1633  27.479   5.544   7.742
    5AU     AUL 1634  27.792   5.539   7.817
    5AU    AUSL 1635  26.434   5.650   7.448
    5AU    AUSL 1636  26.467   5.442   7.821
    5AU     AUL 1637  26.152   5.676   7.642
    5AU    AUSL 1638  26.266   5.255   7.386
    5AU    AUSL 1639  26.406   5.570   7.041
    5AU     AUL 1640  26.150   5.488   7.185
    5AU    AUSL 1641  26.105   5.248   7.799
    5AU    AUSL 1642  26.088   4.878   7.383
    5AU     AUL 1643  25.912   5.217   7.494
    5AU    AUSL 1644  27.674   4.453   7.612
    5AU    AUSL 1645  27.541   4.745   7.927
    5AU     AUL 1646  27.846   4.648   7.992
    5AU    AUSL 1647  27.652   4.808   7.384
    5AU    AUSL 1648  27.641   4.400   7.190
    5AU     AUL 1649  27.897   4.605   7.265
    5AU    AUSL 1650  26.268   4.522   7.588
    5AU    AUSL 1651  26.426   4.710   7.205
    5AU     AUL 1652  26.060   4.589   7.270
    5AU    AUSL 1653  26.348   4.923   7.721
    5AU    AUSL 1654  26.567   4.559   7.884
    5AU     AUL 1655  26.250   4.579   7.934
    5AU    AUSL 1656  27.078   5.823   7.893
    5AU    AUSL 1657  26.631   5.838   7.778
    5AU     AUL 1658  26.836   5.906   8.139
    5AU    AUSL 1659  26.922   5.718   7.510
    5AU    AUSL 1660  27.164   5.833   7.166
    5AU     AUL 1661  26.903   6.073   7.450
    5AU    AUSL 1662  27.334   5.885   7.551
    5AU    AUSL 1663  27.363   5.645   8.142
    5AU     AUL 1664  27.465   5.889   7.889
    5AU    AUSL 1665  26.958   4.400   7.988
    5AU    AUSL 1666  27.376   4.346   7.883
    5AU     AUL 1667  27.130   4.288   8.257
    5AU    AUSL 1668  26.657   4.186   7.726
    5AU    AUSL 1669  26.721   4.553   8.296
    5AU     AUL 1670  26.643   4.253   8.071
    5AU    AUSL 1671  27.086   4.109   7.698
    5AU    AUSL 1672  26.871   4.318   7.383
    5AU     AUL 1673  26.771   3.963   7.498
    5AU    AUSL 1674  27.001   5.659   6.790
    5AU    AUSL 1675  27.532   5.655   7.234
    5AU     AUL 1676  27.326   5.766   6.858
    5AU    AUSL 1677  26.748   5.785   7.133
    5AU    AUSL 1678  26.766   5.363   6.966
    5AU     AUL 1679  26.683   5.643   6.766
    5AU    AUSL 1680  27.086   4.265   7.009
    5AU    AUSL 1681  26.467   4.285   7.301
    5AU     AUL 1682  26.750   4.124   7.061
    5AU    AUSL 1683  27.294   4.313   7.397
    5AU    AUSL 1684  27.326   4.612   6.994
    5AU     AUL 1685  27.404   4.244   7.012
    5AU       S 1686  27.573   4.161   8.288
    5AU     LIG 1687  27.759   3.722   8.296
    5AU     LIG 1688  27.949   3.304   8.335
    5AU     LIG 1689  28.288   3.250   8.616
    5AU       S 1690  27.443   4.906   8.738
    5AU     LIG 1691  27.856   4.835   8.796
    5AU     LIG 1692  27.996   4.886   9.227
    5AU     LIG 1693  27.898   4.751   9.670
    5AU       S 1694  27.100   4.746   8.634
    5AU     LIG 1695  27.104   4.732   9.095
    5AU     LIG 1696  27.407   4.609   9.465
    5AU     LIG 1697  27.636   4.298   9.751
    5AU       S 1698  26.640   5.103   8.622
    5AU     LIG 1699  26.712   5.098   9.068
    5AU     LIG 1700  26.364   4.925   9.327
    5AU     LIG 1701  26.087   4.975   9.707
    5AU       S 1702  27.105   5.673   8.514
    5AU     LIG 1703  27.374   5.973   8.717
    5AU     LIG 1704  27.783   5.803   8.800
    5AU     LIG 1705  27.823   5.346   8.794
    5AU       S 1706  27.845   5.519   8.286
    5AU     LIG 1707  28.179   5.610   8.533
    5AU     LIG 1708  28.298   5.961   8.756
    5AU     LIG 1709  28.590   6.263   8.945
    5AU       S 1710  27.373   5.147   6.309
    5AU     LIG 1711  27.784   5.286   6.194
    5AU     LIG 1712  27.964   4.938   5.960
    5AU     LIG 1713  27.796   4.508   5.841
    5AU       S 1714  27.774   5.813   6.848
    5AU     LIG 1715  27.620   5.798   6.405
    5AU     LIG 1716  27.937   5.870   6.086
    5AU     LIG 1717  28.294   6.118   5.914
    5AU       S 1718  27.928   4.543   6.792
    5AU     LIG 1719  27.964   4.570   6.340
    5AU     LIG 1720  27.886   4.146   6.212
    5AU     LIG 1721  27.717   3.816   5.959
    5AU       S 1722  27.399   4.971   6.255
    5AU     LIG 1723  27.328   4.590   6.093
    5AU     LIG 1724  27.286   4.458   5.655
    5AU     LIG 1725  27.287   4.674   5.232
    5AU       S 1726  26.591   4.776   6.325
    5AU     LIG 1727  26.810   4.635   5.947
    5AU     LIG 1728  26.826   4.627   5.470
    5AU     LIG 1729  26.528   4.751   5.130
    5AU       S 1730  27.139   5.283   6.434
    5AU     LIG 1731  26.928   5.128   6.053
    5AU     LIG 1732  27.150   4.954   5.717
    5AU     LIG 1733  27.578   4.914   5.604
    5AU       S 1734  26.434   5.222   8.668
    5AU     LIG 1735  26.135   4.942   8.760
    5AU     LIG 1736  26.074   4.601   9.023
    5AU     LIG 1737  25.994   4.507   9.471
    5AU       S 1738  26.360   5.830   8.144
    5AU     LIG 1739  26.297   5.927   8.556
    5AU     LIG 1740  25.979   5.958   8.879
    5AU     LIG 1741  25.571   6.089   9.079
    5AU       S 1742  26.254   4.598   8.422
    5AU     LIG 1743  25.845   4.602   8.251
    5AU     LIG 1744  25.606   4.228   8.191
    5AU     LIG 1745  25.457   3.849   8.425
    5AU       S 1746  26.626   4.929   8.568
    5AU     LIG 1747  26.595   4.640   8.913
    5AU     LIG 1748  26.492   4.429   9.300
    5AU     LIG 1749  26.431   4.566   9.745
    5AU       S 1750  26.413   4.681   6.426
    5AU     LIG 1751  26.280   4.514   6.029
    5AU     LIG 1752  26.367   4.755   5.655
    5AU     LIG 1753  26.171   5.045   5.361
    5AU       S 1754  26.369   4.303   6.834
    5AU     LIG 1755  26.240   3.973   6.599
    5AU     LIG 1756  26.040   4.013   6.198
    5AU     LIG 1757  25.647   4.109   5.979
    5AU       S 1758  26.103   5.401   6.698
    5AU     LIG 1759  25.807   5.654   6.828
    5AU     LIG 1760  25.796   6.075   6.676
    5AU     LIG 1761  25.704   6.263   6.278
    5AU       S 1762  26.608   5.064   6.424
    5AU     LIG 1763  26.269   5.141   6.191
    5AU     LIG 1764  26.398   5.256   5.780
    5AU     LIG 1765  26.710   5.130   5.460
    5AU       S 1766  27.819   5.688   6.849
    5AU     LIG 1767  28.083   5.575   6.503
    5AU     LIG 1768  28.434   5.727   6.226
    5AU     LIG 1769  28.784   5.968   5.986
    5AU       S 1770  28.182   5.512   7.587
    5AU     LIG 1771  28.358   5.913   7.660
    5AU     LIG 1772  28.790   6.046   7.558
    5AU     LIG 1773  29.219   5.988   7.717
    5AU       S 1774  28.251   5.293   7.565
    5AU     LIG 1775  28.616   5.554   7.373
    5AU     LIG 1776  29.052   5.631   7.366
    5AU     LIG 1777  29.394   5.772   7.080
    5AU       S 1778  28.138   4.415   7.722
    5AU     LIG 1779  28.420   4.344   7.990
    5AU     LIG 1780  28.829   4.395   7.877
    5AU     LIG 1781  29.237   4.458   8.002
    5AU       S 1782  27.827   5.793   8.186
    5AU     LIG 1783  28.215   6.038   8.236
    5AU     LIG 1784  28.317   6.416   8.507
    5AU     LIG 1785  28.289   6.671   8.900
    5AU       S 1786  28.109   5.209   7.824
    5AU     LIG 1787  28.315   5.552   8.048
    5AU     LIG 1788  28.737   5.701   7.946
    5AU     LIG 1789  29.127   5.489   7.863
    5AU       S 1790  26.277   5.656   8.086
    5AU     LIG 1791  26.007   5.521   8.427
    5AU     LIG 1792  25.598   5.734   8.618
    5AU     LIG 1793  25.210   6.030   8.712
    5AU       S 1794  26.364   5.979   7.344
    5AU     LIG 1795  26.076   6.347   7.346
    5AU     LIG 1796  25.690   6.353   7.099
    5AU     LIG 1797  25.453   5.941   7.054
    5AU       S 1798  25.884   5.118   7.034
    5AU     LIG 1799  25.405   5.167   7.053
    5AU     LIG 1800  24.991   5.381   7.169
    5AU     LIG 1801  24.925   5.857   7.184
    5AU       S 1802  26.271   5.828   6.870
    5AU     LIG 1803  26.232   6.280   6.861
    5AU     LIG 1804  25.895   6.591   6.686
    5AU     LIG 1805  25.534   6.736   6.422
    5AU       S 1806  25.871   4.783   7.671
    5AU     LIG 1807  25.581   4.816   7.376
    5AU     LIG 1808  25.164   4.744   7.329
    5AU     LIG 1809  24.967   4.475   7.028
    5AU       S 1810  25.989   5.289   7.965
    5AU     LIG 1811  25.735   5.113   8.231
    5AU     LIG 1812  25.379   5.393   8.296
    5AU     LIG 1813  25.240   5.847   8.221
    5AU       S 1814  27.832   4.281   7.629
    5AU     LIG 1815  27.963   3.869   7.482
    5AU     LIG 1816  28.335   3.690   7.664
    5AU     LIG 1817  28.683   3.898   7.898
    5AU       S 1818  27.750   4.232   8.134
    5AU     LIG 1819  28.062   3.978   7.971
    5AU     LIG 1820  28.287   3.683   8.194
    5AU     LIG 1821  28.167   3.736   8.631
    5AU       S 1822  28.119   4.339   7.548
    5AU     LIG 1823  28.498   4.130   7.471
    5AU     LIG 1824  28.943   4.169   7.424
    5AU     LIG 1825  29.259   3.954   7.192
    5AU       S 1826  27.860   4.289   6.899
    5AU     LIG 1827  27.766   3.874   7.015
    5AU     LIG 1828  27.854   3.439   6.868
    5AU     LIG 1829  27.925   3.227   6.440
    5AU       S 1830  26.228   4.410   6.886
    5AU     LIG 1831  25.946   4.399   6.539
    5AU     LIG 1832  25.504   4.281   6.444
    5AU     LIG 1833  25.258   3.914   6.312
    5AU       S 1834  25.861   4.533   7.698
    5AU     LIG 1835  25.482   4.393   7.705
    5AU     LIG 1836  25.183   4.217   7.474
    5AU     LIG 1837  24.979   3.799   7.526
    5AU       S 1838  26.272   4.353   8.329
    5AU     LIG 1839  26.172   4.108   7.925
    5AU     LIG 1840  25.845   3.851   7.926
    5AU     LIG 1841  25.865   3.573   8.306
    5AU       S 1842  25.882   4.828   7.817
    5AU     LIG 1843  25.406   4.866   7.868
    5AU     LIG 1844  24.998   4.586   7.806
    5AU     LIG 1845  24.862   4.138   7.905
    5AU       S 1846  26.505   6.009   7.813
    5AU     LIG 1847  26.077   6.124   7.856
    5AU     LIG 1848  25.855   6.000   8.247
    5AU     LIG 1849  25.655   6.256   8.588
    5AU       S 1850  27.100   6.181   7.857
    5AU     LIG 1851  27.258   6.223   8.252
    5AU     LIG 1852  27.178   6.675   8.417
    5AU     LIG 1853  27.039   7.151   8.465
    5AU       S 1854  27.267   6.357   7.725
    5AU     LIG 1855  26.930   6.660   7.826
    5AU     LIG 1856  26.762   7.037   8.032
    5AU     LIG 1857  26.958   7.455   8.006
    5AU       S 1858  27.089   6.134   7.026
    5AU     LIG 1859  27.083   6.528   7.266
    5AU     LIG 1860  27.193   6.949   7.122
    5AU     LIG 1861  27.277   7.275   6.815
    5AU       S 1862  27.584   5.745   8.330
    5AU     LIG 1863  27.756   6.190   8.455
    5AU     LIG 1864  27.926   6.310   8.843
    5AU     LIG 1865  28.146   6.168   9.218
    5AU       S 1866  27.373   6.153   7.503
    5AU     LIG 1867  27.568   6.583   7.391
    5AU     LIG 1868  27.365   6.915   7.605
    5AU     LIG 1869  27.265   7.014   8.028
    5AU       S 1870  26.951   3.890   8.097
    5AU     LIG 1871  27.287   3.582   8.184
    5AU     LIG 1872  27.465   3.151   8.240
    5AU     LIG 1873  27.373   2.708   8.399
    5AU       S 1874  27.514   4.199   7.993
    5AU     LIG 1875  27.590   3.829   7.831
    5AU     LIG 1876  27.870   3.479   7.839
    5AU     LIG 1877  28.270   3.240   7.939
    5AU       S 1878  26.752   3.815   7.939
    5AU     LIG 1879  26.704   3.420   7.689
    5AU     LIG 1880  26.860   2.974   7.741
    5AU     LIG 1881  26.882   2.658   8.099
    5AU       S 1882  26.515   4.476   8.464
    5AU     LIG 1883  26.310   4.209   8.795
    5AU     LIG 1884  25.897   3.992   8.710
    5AU     LIG 1885  25.554   3.785   8.956
    5AU       S 1886  27.175   3.872   7.296
    5AU     LIG 1887  27.019   3.416   7.253
    5AU     LIG 1888  26.933   3.040   7.012
    5AU     LIG 1889  26.867   2.565   7.001
    5AU       S 1890  27.086   3.942   7.869
    5AU     LIG 1891  27.174   3.586   7.696
    5AU     LIG 1892  27.373   3.213   7.729
    5AU     LIG 1893  27.349   2.782   7.886
    5AU       S 1894  26.943   6.046   6.752
    5AU     LIG 1895  26.879   6.526   6.785
    5AU     LIG 1896  27.175   6.833   6.594
    5AU     LIG 1897  27.394   7.146   6.318
    5AU       S 1898  27.701   5.835   7.162
    5AU     LIG 1899  28.150   5.941   7.171
    5AU     LIG 1900  28.334   5.963   6.742
    5AU     LIG 1901  28.532   6.209   6.386
    5AU       S 1902  26.739   6.056   7.001
    5AU     LIG 1903  26.591   6.419   7.228
    5AU     LIG 1904  26.684   6.866   7.180
    5AU     LIG 1905  26.764   7.074   6.774
    5AU       S 1906  26.310   5.451   6.600
    5AU     LIG 1907  26.156   5.833   6.386
    5AU     LIG 1908  26.199   6.299   6.347
    5AU     LIG 1909  25.980   6.687   6.161
    5AU       S 1910  26.283   4.199   7.120
    5AU     LIG 1911  25.868   4.069   6.973
    5AU     LIG 1912  25.720   3.850   6.599
    5AU     LIG 1913  25.687   3.631   6.195
    5AU       S 1914  27.149   3.888   7.147
    5AU     LIG 1915  27.350   3.633   6.862
    5AU     LIG 1916  27.394   3.252   6.614
    5AU     LIG 1917  27.178   2.848   6.615
    5AU       S 1918  27.425   3.983   7.398
    5AU     LIG 1919  27.558   3.548   7.363
    5AU     LIG 1920  27.461   3.194   7.112
    5AU     LIG 1921  27.725   2.939   6.851
    5AU       S 1922  27.639   4.430   6.672
    5AU     LIG 1923  27.515   4.045   6.570
    5AU     LIG 1924  27.663   3.669   6.449
    5AU     LIG 1925  27.536   3.354   6.133
    6AU     AUC 1926  23.232  20.495   7.534
    6AU     AUC 1927  23.493  20.494   7.374
    6AU     AUC 1928  23.470  20.495   7.709
    6AU     AUC 1929  22.965  20.486   7.371
    6AU     AUC 1930  22.977  20.539   7.697
    6AU     AUC 1931  23.073  20.755   7.493
    6AU     AUC 1932  23.413  20.763   7.508
    6AU     AUC 1933  23.059  20.237   7.556
    6AU     AUC 1934  23.392  20.223   7.560
    6AU     AUC 1935  23.221  20.351   7.813
    6AU     AUC 1936  23.234  20.694   7.776
    6AU     AUC 1937  23.238  20.306   7.285
    6AU     AUC 1938  23.250  20.619   7.261
    6AU     AUC 1939  23.812  20.494   7.224
    6AU     AUC 1940  23.793  20.477   7.563
    6AU     AUC 1941  23.745  20.476   7.918
    6AU     AUC 1942  22.668  20.445   7.223
    6AU     AUC 1943  22.659  20.529   7.548
    6AU     AUC 1944  22.680  20.593   7.868
    6AU     AUC 1945  22.910  21.056   7.427
    6AU     AUC 1946  23.270  21.045   7.423
    6AU     AUC 1947  23.605  21.036   7.468
    6AU     AUC 1948  22.868  19.953   7.577
    6AU     AUC 1949  23.216  19.932   7.565
    6AU     AUC 1950  23.567  19.930   7.580
    6AU     AUC 1951  23.186  20.198   8.117
    6AU     AUC 1952  23.207  20.550   8.098
    6AU     AUC 1953  23.262  20.907   8.054
    6AU     AUC 1954  23.280  20.114   7.009
    6AU     AUC 1955  23.230  20.443   6.959
    6AU     AUC 1956  23.219  20.760   6.947
    6AU     AUC 1957  23.458  20.316   8.029
    6AU     AUC 1958  23.509  20.674   8.001
    6AU     AUC 1959  23.549  20.323   7.083
    6AU     AUC 1960  23.516  20.639   7.089
    6AU     AUC 1961  22.927  20.418   8.008
    6AU     AUC 1962  22.967  20.770   7.955
    6AU     AUC 1963  22.962  20.263   7.110
    6AU     AUC 1964  22.923  20.573   7.062
    6AU     AUC 1965  23.730  20.765   7.357
    6AU     AUC 1966  23.671  20.760   7.704
    6AU     AUC 1967  22.772  20.761   7.348
    6AU     AUC 1968  22.808  20.852   7.674
    6AU     AUC 1969  23.698  20.211   7.410
    6AU     AUC 1970  23.643  20.184   7.758
    6AU     AUC 1971  22.769  20.182   7.403
    6AU     AUC 1972  22.786  20.269   7.735
    6AU     AUC 1973  23.117  21.002   7.748
    6AU     AUC 1974  23.439  20.969   7.777
    6AU     AUC 1975  23.033  20.074   7.846
    6AU     AUC 1976  23.346  20.023   7.839
    6AU     AUC 1977  23.051  20.906   7.181
    6AU     AUC 1978  23.413  20.935   7.201
    6AU     AUC 1979  23.082  20.015   7.282
    6AU     AUC 1980  23.453  20.053   7.288
    6AU    AUSL 1981  23.705  20.421   8.318
    6AU    AUSL 1982  23.469  20.038   8.240
    6AU     AUL 1983  23.770  20.070   8.428
    6AU    AUSL 1984  23.293  20.368   8.441
    6AU    AUSL 1985  23.060  20.761   8.419
    6AU     AUL 1986  23.292  20.679   8.699
    6AU    AUSL 1987  23.407  20.723   8.195
    6AU    AUSL 1988  23.851  20.769   8.126
    6AU     AUL 1989  23.692  20.737   8.460
    6AU    AUSL 1990  23.681  20.516   6.891
    6AU    AUSL 1991  23.535  20.908   6.974
    6AU     AUL 1992  23.747  20.840   6.692
    6AU    AUSL 1993  23.511  20.232   6.628
    6AU    AUSL 1994  23.988  20.263   7.018
    6AU     AUL 1995  23.889  20.385   6.665
    6AU    AUSL 1996  23.319  20.646   6.707
    6AU    AUSL 1997  23.137  20.254   6.818
    6AU     AUL 1998  23.250  20.298   6.492
    6AU    AUSL 1999  22.679  20.716   8.206
    6AU    AUSL 2000  23.011  21.023   8.092
    6AU     AUL 2001  22.838  21.004   8.418
    6AU    AUSL 2002  22.967  20.407   8.185
    6AU    AUSL 2003  22.554  20.294   8.136
    6AU     AUL 2004  22.483  20.514   8.281
    6AU    AUSL 2005  22.710  20.250   6.812
    6AU    AUSL 2006  22.945  19.927   6.997
    6AU     AUL 2007  22.993  19.946   6.668
    6AU    AUSL 2008  22.899  20.600   6.661
    6AU    AUSL 2009  22.595  20.615   7.014
    6AU     AUL 2010  22.480  20.453   6.750
    6AU    AUSL 2011  24.004  20.968   7.511
    6AU    AUSL 2012  23.939  20.769   7.107
    6AU     AUL 2013  24.267  20.967   7.191
    6AU    AUSL 2014  24.179  20.581   7.408
    6AU    AUSL 2015  24.130  20.284   7.787
    6AU     AUL 2016  24.433  20.359   7.588
    6AU    AUSL 2017  23.895  20.622   7.737
    6AU    AUSL 2018  23.712  21.022   7.802
    6AU     AUL 2019  24.084  20.801   7.890
    6AU    AUSL 2020  22.655  21.122   7.464
    6AU    AUSL 2021  22.682  20.911   7.836
    6AU     AUL 2022  22.369  21.145   7.656
    6AU    AUSL 2023  22.484  20.727   7.401
    6AU    AUSL 2024  22.628  21.037   7.057
    6AU     AUL 2025  22.370  20.958   7.200
    6AU    AUSL 2026  22.322  20.714   7.813
    6AU    AUSL 2027  22.313  20.346   7.380
    6AU     AUL 2028  22.131  20.685   7.504
    6AU    AUSL 2029  23.905  19.937   7.648
    6AU    AUSL 2030  23.744  20.219   7.954
    6AU     AUL 2031  24.049  20.128   8.039
    6AU    AUSL 2032  23.882  20.291   7.419
    6AU    AUSL 2033  23.875  19.886   7.226
    6AU     AUL 2034  24.138  20.102   7.306
    6AU    AUSL 2035  22.486  19.987   7.589
    6AU    AUSL 2036  22.659  20.177   7.216
    6AU     AUL 2037  22.293  20.061   7.260
    6AU    AUSL 2038  22.560  20.387   7.728
    6AU    AUSL 2039  22.778  20.025   7.893
    6AU     AUL 2040  22.453  20.038   7.933
    6AU    AUSL 2041  23.297  21.282   7.914
    6AU    AUSL 2042  22.851  21.306   7.798
    6AU     AUL 2043  23.050  21.360   8.170
    6AU    AUSL 2044  23.140  21.189   7.528
    6AU    AUSL 2045  23.385  21.304   7.187
    6AU     AUL 2046  23.128  21.542   7.460
    6AU    AUSL 2047  23.558  21.335   7.571
    6AU    AUSL 2048  23.562  21.108   8.188
    6AU     AUL 2049  23.668  21.358   7.914
    6AU    AUSL 2050  23.165  19.855   8.003
    6AU    AUSL 2051  23.587  19.821   7.893
    6AU     AUL 2052  23.340  19.748   8.267
    6AU    AUSL 2053  22.874  19.654   7.732
    6AU    AUSL 2054  22.928  20.017   8.307
    6AU     AUL 2055  22.836  19.723   8.080
    6AU    AUSL 2056  23.304  19.575   7.711
    6AU    AUSL 2057  23.100  19.790   7.396
    6AU     AUL 2058  22.993  19.429   7.507
    6AU    AUSL 2059  23.225  21.130   6.805
    6AU    AUSL 2060  23.772  21.156   7.221
    6AU     AUL 2061  23.554  21.245   6.870
    6AU    AUSL 2062  22.969  21.251   7.149
    6AU    AUSL 2063  22.991  20.833   6.986
    6AU     AUL 2064  22.905  21.100   6.778
    6AU    AUSL 2065  23.323  19.738   7.028
    6AU    AUSL 2066  22.697  19.753   7.308
    6AU     AUL 2067  22.995  19.590   7.073
    6AU    AUSL 2068  23.525  19.783   7.421
    6AU    AUSL 2069  23.560  20.085   7.016
    6AU     AUL 2070  23.645  19.706   7.050
    6AU       S 2071  23.780  19.613   8.291
    6AU     LIG 2072  23.998  19.198   8.359
    6AU     LIG 2073  24.106  18.750   8.374
    6AU     LIG 2074  24.404  18.425   8.543
    6AU       S 2075  23.655  20.366   8.763
    6AU     LIG 2076  24.100  20.417   8.635
    6AU     LIG 2077  24.381  20.410   9.009
    6AU     LIG 2078  24.250  20.236   9.446
    6AU       S 2079  23.307  20.204   8.655
    6AU     LIG 2080  23.336  20.182   9.113
    6AU     LIG 2081  23.704  20.110   9.410
    6AU     LIG 2082  23.906  19.868   9.768
    6AU       S 2083  22.850  20.562   8.634
    6AU     LIG 2084  22.967  20.559   9.061
    6AU     LIG 2085  22.663  20.447   9.339
    6AU     LIG 2086  22.453  20.538   9.749
    6AU       S 2087  23.303  21.136   8.559
    6AU     LIG 2088  23.626  21.415   8.743
    6AU     LIG 2089  24.070  21.269   8.763
    6AU     LIG 2090  24.216  20.868   8.831
    6AU       S 2091  24.036  21.024   8.303
    6AU     LIG 2092  24.442  20.914   8.380
    6AU     LIG 2093  24.601  21.198   8.725
    6AU     LIG 2094  24.831  21.530   8.968
    6AU       S 2095  23.598  20.620   6.326
    6AU     LIG 2096  24.050  20.701   6.287
    6AU     LIG 2097  24.198  20.352   6.032
    6AU     LIG 2098  24.059  19.942   5.822
    6AU       S 2099  24.007  21.212   6.826
    6AU     LIG 2100  23.897  21.541   6.565
    6AU     LIG 2101  24.113  21.714   6.180
    6AU     LIG 2102  24.475  21.962   5.995
    6AU       S 2103  24.140  20.016   6.820
    6AU     LIG 2104  24.137  19.935   6.334
    6AU     LIG 2105  24.163  19.523   6.133
    6AU     LIG 2106  24.555  19.266   6.138
    6AU       S 2107  23.621  20.452   6.278
    6AU     LIG 2108  23.644  20.063   6.154
    6AU     LIG 2109  23.543  19.921   5.751
    6AU     LIG 2110  23.511  20.110   5.324
    6AU       S 2111  22.824  20.258   6.340
    6AU     LIG 2112  23.084  20.077   6.036
    6AU     LIG 2113  23.057  20.048   5.573
    6AU     LIG 2114  22.868  20.163   5.160
    6AU       S 2115  23.347  20.757   6.444
    6AU     LIG 2116  23.145  20.593   6.068
    6AU     LIG 2117  23.388  20.407   5.770
    6AU     LIG 2118  23.814  20.372   5.682
    6AU       S 2119  22.641  20.672   8.685
    6AU     LIG 2120  22.299  20.443   8.733
    6AU     LIG 2121  22.356  20.114   8.995
    6AU     LIG 2122  22.320  20.091   9.446
    6AU       S 2123  22.578  21.295   8.163
    6AU     LIG 2124  22.526  21.386   8.574
    6AU     LIG 2125  22.175  21.317   8.846
    6AU     LIG 2126  21.868  21.500   9.148
    6AU       S 2127  22.462  20.070   8.433
    6AU     LIG 2128  22.069  20.124   8.268
    6AU     LIG 2129  21.862  19.745   8.123
    6AU     LIG 2130  21.656  19.370   8.355
    6AU       S 2131  22.826  20.389   8.583
    6AU     LIG 2132  22.864  20.091   8.910
    6AU     LIG 2133  22.795  19.941   9.317
    6AU     LIG 2134  22.759  20.124   9.743
    6AU       S 2135  22.668  20.189   6.428
    6AU     LIG 2136  22.511  20.065   6.007
    6AU     LIG 2137  22.541  20.191   5.557
    6AU     LIG 2138  22.537  20.548   5.225
    6AU       S 2139  22.607  19.745   6.838
    6AU     LIG 2140  22.638  19.689   6.397
    6AU     LIG 2141  22.302  19.586   6.111
    6AU     LIG 2142  21.931  19.303   6.044
    6AU       S 2143  22.311  20.880   6.717
    6AU     LIG 2144  22.020  21.229   6.788
    6AU     LIG 2145  21.920  21.611   6.531
    6AU     LIG 2146  21.948  21.882   6.148
    6AU       S 2147  22.845  20.556   6.455
    6AU     LIG 2148  22.512  20.628   6.193
    6AU     LIG 2149  22.613  20.657   5.756
    6AU     LIG 2150  22.978  20.554   5.493
    6AU       S 2151  24.108  21.104   6.793
    6AU     LIG 2152  24.243  21.210   6.362
    6AU     LIG 2153  24.555  21.452   6.109
    6AU     LIG 2154  24.918  21.691   5.934
    6AU       S 2155  24.159  21.169   7.603
    6AU     LIG 2156  24.483  21.395   7.394
    6AU     LIG 2157  24.904  21.361   7.587
    6AU     LIG 2158  25.332  21.260   7.539
    6AU       S 2159  24.456  20.823   7.589
    6AU     LIG 2160  24.766  20.956   7.303
    6AU     LIG 2161  25.200  20.903   7.207
    6AU     LIG 2162  25.473  21.211   6.979
    6AU       S 2163  24.373  19.920   7.788
    6AU     LIG 2164  24.734  19.818   7.986
    6AU     LIG 2165  25.131  19.982   7.849
    6AU     LIG 2166  25.231  20.097   7.424
    6AU       S 2167  24.062  21.216   8.099
    6AU     LIG 2168  24.419  21.400   8.244
    6AU     LIG 2169  24.498  21.679   8.581
    6AU     LIG 2170  24.538  21.978   8.924
    6AU       S 2171  24.430  21.006   7.696
    6AU     LIG 2172  24.757  20.977   7.959
    6AU     LIG 2173  25.172  20.901   7.878
    6AU     LIG 2174  25.491  21.192   8.019
    6AU       S 2175  22.496  21.124   8.098
    6AU     LIG 2176  22.273  20.955   8.441
    6AU     LIG 2177  21.838  21.045   8.552
    6AU     LIG 2178  21.519  21.294   8.789
    6AU       S 2179  22.590  21.449   7.363
    6AU     LIG 2180  22.314  21.750   7.143
    6AU     LIG 2181  21.874  21.786   7.009
    6AU     LIG 2182  21.621  21.399   7.071
    6AU       S 2183  22.103  20.593   7.043
    6AU     LIG 2184  21.645  20.703   7.093
    6AU     LIG 2185  21.276  20.992   7.074
    6AU     LIG 2186  21.208  21.323   7.366
    6AU       S 2187  22.501  21.296   6.890
    6AU     LIG 2188  22.583  21.695   6.715
    6AU     LIG 2189  22.246  22.007   6.613
    6AU     LIG 2190  21.793  22.134   6.571
    6AU       S 2191  22.081  20.243   7.655
    6AU     LIG 2192  21.811  20.268   7.319
    6AU     LIG 2193  21.372  20.267   7.279
    6AU     LIG 2194  20.954  20.080   7.328
    6AU       S 2195  22.199  20.759   7.977
    6AU     LIG 2196  21.908  20.616   8.231
    6AU     LIG 2197  21.489  20.792   8.166
    6AU     LIG 2198  21.387  21.063   7.800
    6AU       S 2199  24.072  19.773   7.668
    6AU     LIG 2200  24.258  19.369   7.572
    6AU     LIG 2201  24.646  19.238   7.780
    6AU     LIG 2202  25.044  19.461   7.784
    6AU       S 2203  23.951  19.704   8.154
    6AU     LIG 2204  24.302  19.498   8.063
    6AU     LIG 2205  24.523  19.177   8.282
    6AU     LIG 2206  24.523  18.910   8.650
    6AU       S 2207  24.360  19.863   7.614
    6AU     LIG 2208  24.614  19.669   7.335
    6AU     LIG 2209  25.068  19.574   7.262
    6AU     LIG 2210  25.484  19.559   7.005
    6AU       S 2211  24.104  19.777   6.958
    6AU     LIG 2212  24.083  19.494   6.648
    6AU     LIG 2213  23.805  19.245   6.786
    6AU     LIG 2214  23.707  18.895   6.560
    6AU       S 2215  22.471  19.863   6.888
    6AU     LIG 2216  22.215  19.950   6.535
    6AU     LIG 2217  21.850  19.753   6.310
    6AU     LIG 2218  21.504  19.422   6.322
    6AU       S 2219  22.070  19.998   7.680
    6AU     LIG 2220  21.630  19.956   7.691
    6AU     LIG 2221  21.367  19.755   7.391
    6AU     LIG 2222  21.091  19.617   7.049
    6AU       S 2223  22.473  19.837   8.343
    6AU     LIG 2224  22.339  19.562   7.987
    6AU     LIG 2225  22.006  19.221   7.998
    6AU     LIG 2226  21.885  18.901   8.340
    6AU       S 2227  22.091  20.297   7.809
    6AU     LIG 2228  21.633  20.471   7.765
    6AU     LIG 2229  21.197  20.242   7.766
    6AU     LIG 2230  21.040  19.790   7.781
    6AU       S 2231  22.729  21.477   7.835
    6AU     LIG 2232  22.289  21.583   7.894
    6AU     LIG 2233  22.082  21.440   8.293
    6AU     LIG 2234  21.856  21.664   8.638
    6AU       S 2235  23.293  21.628   7.880
    6AU     LIG 2236  23.461  21.652   8.282
    6AU     LIG 2237  23.421  22.112   8.326
    6AU     LIG 2238  23.067  22.416   8.316
    6AU       S 2239  23.444  21.788   7.786
    6AU     LIG 2240  23.115  22.093   7.862
    6AU     LIG 2241  22.911  22.488   7.842
    6AU     LIG 2242  23.054  22.893   7.985
    6AU       S 2243  23.292  21.600   7.023
    6AU     LIG 2244  23.334  21.968   7.226
    6AU     LIG 2245  23.465  22.377   7.128
    6AU     LIG 2246  23.260  22.673   6.898
    6AU       S 2247  23.798  21.202   8.337
    6AU     LIG 2248  23.963  21.617   8.402
    6AU     LIG 2249  24.059  21.773   8.822
    6AU     LIG 2250  24.335  21.543   9.125
    6AU       S 2251  23.580  21.662   7.555
    6AU     LIG 2252  23.582  22.210   7.610
    6AU     LIG 2253  23.437  22.511   7.940
    6AU     LIG 2254  23.462  22.737   8.355
    6AU       S 2255  23.150  19.359   8.103
    6AU     LIG 2256  23.507  19.092   8.229
    6AU     LIG 2257  23.585  18.655   8.424
    6AU     LIG 2258  23.396  18.226   8.548
    6AU       S 2259  23.723  19.660   7.998
    6AU     LIG 2260  23.858  19.277   7.876
    6AU     LIG 2261  24.207  18.976   7.919
    6AU     LIG 2262  24.577  18.694   8.131
    6AU       S 2263  22.968  19.295   7.952
    6AU     LIG 2264  22.967  18.903   7.799
    6AU     LIG 2265  23.206  18.534   7.856
    6AU     LIG 2266  23.077  18.161   8.107
    6AU       S 2267  22.712  19.937   8.479
    6AU     LIG 2268  22.491  19.655   8.796
    6AU     LIG 2269  22.136  19.328   8.698
    6AU     LIG 2270  21.970  18.911   8.882
    6AU       S 2271  23.404  19.341   7.316
    6AU     LIG 2272  23.132  18.946   7.324
    6AU     LIG 2273  23.090  18.474   7.275
    6AU     LIG 2274  23.154  18.156   6.934
    6AU       S 2275  23.309  19.398   7.871
    6AU     LIG 2276  23.457  19.021   7.716
    6AU     LIG 2277  23.695  18.700   7.935
    6AU     LIG 2278  23.576  18.250   8.071
    6AU       S 2279  23.158  21.502   6.756
    6AU     LIG 2280  23.061  21.950   6.742
    6AU     LIG 2281  23.335  22.275   6.607
    6AU     LIG 2282  23.288  22.672   6.371
    6AU       S 2283  23.942  21.310   7.133
    6AU     LIG 2284  24.215  21.627   6.997
    6AU     LIG 2285  24.419  21.651   6.599
    6AU     LIG 2286  24.775  21.852   6.410
    6AU       S 2287  22.960  21.511   7.014
    6AU     LIG 2288  22.830  21.883   7.205
    6AU     LIG 2289  22.926  22.322   7.084
    6AU     LIG 2290  22.859  22.486   6.645
    6AU       S 2291  22.524  20.924   6.618
    6AU     LIG 2292  22.370  21.313   6.406
    6AU     LIG 2293  22.435  21.730   6.215
    6AU     LIG 2294  22.361  22.171   6.046
    6AU       S 2295  22.527  19.666   7.140
    6AU     LIG 2296  22.069  19.631   7.061
    6AU     LIG 2297  21.860  19.416   6.711
    6AU     LIG 2298  21.800  19.017   6.494
    6AU       S 2299  23.399  19.338   7.161
    6AU     LIG 2300  23.298  19.304   6.736
    6AU     LIG 2301  23.234  18.973   6.428
    6AU     LIG 2302  23.362  18.523   6.457
    6AU       S 2303  23.669  19.461   7.445
    6AU     LIG 2304  23.848  19.094   7.386
    6AU     LIG 2305  23.756  18.826   7.068
    6AU     LIG 2306  23.356  18.752   6.908
    6AU       S 2307  23.861  19.921   6.720
    6AU     LIG 2308  23.553  19.716   6.547
    6AU     LIG 2309  23.669  19.350   6.300
    6AU     LIG 2310  23.757  19.003   6.007
    7AU     AUC 2311   0.325  35.061   7.517
    7AU     AUC 2312   0.584  35.058   7.356
    7AU     AUC 2313   0.562  35.057   7.693
    7AU     AUC 2314   0.062  35.057   7.353
    7AU     AUC 2315   0.068  35.105   7.679
    7AU     AUC 2316   0.167  35.322   7.477
    7AU     AUC 2317   0.507  35.327   7.494
    7AU     AUC 2318   0.149  34.804   7.536
    7AU     AUC 2319   0.481  34.787   7.542
    7AU     AUC 2320   0.309  34.916   7.795
    7AU     AUC 2321   0.326  35.258   7.760
    7AU     AUC 2322   0.330  34.873   7.266
    7AU     AUC 2323   0.345  35.188   7.244
    7AU     AUC 2324   0.901  35.054   7.205
    7AU     AUC 2325   0.885  35.035   7.546
    7AU     AUC 2326   0.839  35.034   7.902
    7AU     AUC 2327  44.767  35.021   7.203
    7AU     AUC 2328  44.752  35.101   7.526
    7AU     AUC 2329  44.769  35.160   7.847
    7AU     AUC 2330   0.005  35.624   7.414
    7AU     AUC 2331   0.365  35.611   7.413
    7AU     AUC 2332   0.702  35.597   7.460
    7AU     AUC 2333  44.954  34.519   7.552
    7AU     AUC 2334   0.303  34.496   7.546
    7AU     AUC 2335   0.650  34.492   7.562
    7AU     AUC 2336   0.267  34.761   8.099
    7AU     AUC 2337   0.295  35.112   8.080
    7AU     AUC 2338   0.353  35.469   8.040
    7AU     AUC 2339   0.372  34.681   6.990
    7AU     AUC 2340   0.323  35.014   6.940
    7AU     AUC 2341   0.314  35.334   6.929
    7AU     AUC 2342   0.546  34.878   8.012
    7AU     AUC 2343   0.602  35.237   7.984
    7AU     AUC 2344   0.638  34.888   7.063
    7AU     AUC 2345   0.609  35.207   7.070
    7AU     AUC 2346   0.010  34.981   7.986
    7AU     AUC 2347   0.056  35.333   7.938
    7AU     AUC 2348   0.059  34.834   7.089
    7AU     AUC 2349   0.019  35.146   7.045
    7AU     AUC 2350   0.823  35.325   7.342
    7AU     AUC 2351   0.768  35.320   7.690
    7AU     AUC 2352  44.867  35.333   7.332
    7AU     AUC 2353  44.900  35.421   7.659
    7AU     AUC 2354   0.784  34.771   7.389
    7AU     AUC 2355   0.730  34.745   7.740
    7AU     AUC 2356  44.864  34.752   7.377
    7AU     AUC 2357  44.875  34.839   7.708
    7AU     AUC 2358   0.209  35.567   7.736
    7AU     AUC 2359   0.536  35.532   7.765
    7AU     AUC 2360   0.115  34.640   7.823
    7AU     AUC 2361   0.432  34.589   7.822
    7AU     AUC 2362   0.147  35.477   7.166
    7AU     AUC 2363   0.507  35.501   7.189
    7AU     AUC 2364   0.176  34.581   7.263
    7AU     AUC 2365   0.541  34.615   7.269
    7AU    AUSL 2366   0.791  34.981   8.304
    7AU    AUSL 2367   0.557  34.599   8.226
    7AU     AUL 2368   0.873  34.635   8.408
    7AU    AUSL 2369   0.378  34.929   8.422
    7AU    AUSL 2370   0.145  35.320   8.400
    7AU     AUL 2371   0.372  35.235   8.690
    7AU    AUSL 2372   0.495  35.284   8.180
    7AU    AUSL 2373   0.945  35.323   8.109
    7AU     AUL 2374   0.771  35.292   8.448
    7AU    AUSL 2375   0.773  35.083   6.871
    7AU    AUSL 2376   0.635  35.480   6.953
    7AU     AUL 2377   0.864  35.412   6.676
    7AU    AUSL 2378   0.602  34.800   6.607
    7AU    AUSL 2379   1.072  34.820   6.997
    7AU     AUL 2380   0.981  34.946   6.650
    7AU    AUSL 2381   0.414  35.222   6.687
    7AU    AUSL 2382   0.230  34.830   6.798
    7AU     AUL 2383   0.332  34.882   6.468
    7AU    AUSL 2384  44.767  35.280   8.184
    7AU    AUSL 2385   0.096  35.587   8.077
    7AU     AUL 2386  44.918  35.573   8.398
    7AU    AUSL 2387   0.051  34.966   8.167
    7AU    AUSL 2388  44.634  34.864   8.100
    7AU     AUL 2389  44.582  35.073   8.269
    7AU    AUSL 2390  44.805  34.821   6.792
    7AU    AUSL 2391   0.043  34.499   6.976
    7AU     AUL 2392   0.094  34.520   6.644
    7AU    AUSL 2393  44.993  35.175   6.644
    7AU    AUSL 2394  44.694  35.186   7.000
    7AU     AUL 2395  44.578  35.009   6.747
    7AU    AUSL 2396   1.111  35.522   7.497
    7AU    AUSL 2397   1.026  35.329   7.097
    7AU     AUL 2398   1.355  35.503   7.141
    7AU    AUSL 2399   1.271  35.132   7.388
    7AU    AUSL 2400   1.218  34.834   7.764
    7AU     AUL 2401   1.520  34.910   7.574
    7AU    AUSL 2402   0.991  35.177   7.719
    7AU    AUSL 2403   0.821  35.584   7.788
    7AU     AUL 2404   1.187  35.356   7.871
    7AU    AUSL 2405  44.747  35.697   7.448
    7AU    AUSL 2406  44.770  35.480   7.816
    7AU     AUL 2407  44.451  35.712   7.640
    7AU    AUSL 2408  44.575  35.305   7.384
    7AU    AUSL 2409  44.725  35.609   7.043
    7AU     AUL 2410  44.468  35.534   7.182
    7AU    AUSL 2411  44.412  35.279   7.799
    7AU    AUSL 2412  44.409  34.925   7.341
    7AU     AUL 2413  44.230  35.263   7.485
    7AU    AUSL 2414   0.984  34.496   7.627
    7AU    AUSL 2415   0.834  34.780   7.940
    7AU     AUL 2416   1.140  34.673   8.010
    7AU    AUSL 2417   0.968  34.849   7.398
    7AU    AUSL 2418   0.957  34.445   7.204
    7AU     AUL 2419   1.222  34.660   7.286
    7AU    AUSL 2420  44.567  34.561   7.550
    7AU    AUSL 2421  44.762  34.752   7.196
    7AU     AUL 2422  44.402  34.676   7.185
    7AU    AUSL 2423  44.649  34.958   7.694
    7AU    AUSL 2424  44.858  34.592   7.858
    7AU     AUL 2425  44.539  34.607   7.891
    7AU    AUSL 2426   0.390  35.843   7.910
    7AU    AUSL 2427  44.943  35.874   7.786
    7AU     AUL 2428   0.129  35.932   8.155
    7AU    AUSL 2429   0.236  35.753   7.520
    7AU    AUSL 2430   0.482  35.872   7.181
    7AU     AUL 2431   0.225  36.106   7.458
    7AU    AUSL 2432   0.652  35.897   7.569
    7AU    AUSL 2433   0.663  35.664   8.174
    7AU     AUL 2434   0.767  35.915   7.924
    7AU    AUSL 2435   0.245  34.432   7.985
    7AU    AUSL 2436   0.670  34.385   7.879
    7AU     AUL 2437   0.412  34.315   8.249
    7AU    AUSL 2438  44.957  34.217   7.711
    7AU    AUSL 2439  44.984  34.577   8.279
    7AU     AUL 2440  44.916  34.289   8.059
    7AU    AUSL 2441   0.385  34.141   7.699
    7AU    AUSL 2442   0.188  34.355   7.379
    7AU     AUL 2443   0.084  33.998   7.484
    7AU    AUSL 2444   0.321  35.705   6.796
    7AU    AUSL 2445   0.861  35.711   7.225
    7AU     AUL 2446   0.652  35.811   6.868
    7AU    AUSL 2447   0.067  35.822   7.141
    7AU    AUSL 2448   0.088  35.405   6.970
    7AU     AUL 2449  44.990  35.685   6.773
    7AU    AUSL 2450   0.412  34.296   7.014
    7AU    AUSL 2451  44.787  34.323   7.282
    7AU     AUL 2452   0.075  34.161   7.049
    7AU    AUSL 2453   0.611  34.342   7.406
    7AU    AUSL 2454   0.645  34.647   6.994
    7AU     AUL 2455   0.730  34.267   7.027
    7AU       S 2456   0.852  34.178   8.281
    7AU     LIG 2457   1.058  33.763   8.342
    7AU     LIG 2458   1.335  33.459   8.549
    7AU     LIG 2459   1.444  33.006   8.535
    7AU       S 2460   0.728  34.912   8.746
    7AU     LIG 2461   1.124  35.077   8.755
    7AU     LIG 2462   1.283  35.071   9.191
    7AU     LIG 2463   1.216  34.843   9.607
    7AU       S 2464   0.381  34.759   8.632
    7AU     LIG 2465   0.353  34.855   9.065
    7AU     LIG 2466   0.726  34.816   9.345
    7AU     LIG 2467   0.817  34.504   9.681
    7AU       S 2468  44.928  35.129   8.624
    7AU     LIG 2469  44.915  35.125   9.104
    7AU     LIG 2470  44.586  35.142   9.418
    7AU     LIG 2471  44.458  35.144   9.872
    7AU       S 2472   0.389  35.690   8.532
    7AU     LIG 2473   0.645  36.008   8.683
    7AU     LIG 2474   0.997  35.889   8.930
    7AU     LIG 2475   1.265  35.543   8.951
    7AU       S 2476   1.131  35.562   8.288
    7AU     LIG 2477   1.480  35.608   8.494
    7AU     LIG 2478   1.575  35.944   8.771
    7AU     LIG 2479   1.773  36.326   8.961
    7AU       S 2480   0.702  35.190   6.313
    7AU     LIG 2481   1.155  35.236   6.265
    7AU     LIG 2482   1.278  34.832   6.107
    7AU     LIG 2483   1.102  34.448   5.879
    7AU       S 2484   1.101  35.859   6.856
    7AU     LIG 2485   1.044  36.203   6.617
    7AU     LIG 2486   1.197  36.182   6.202
    7AU     LIG 2487   1.455  36.191   5.834
    7AU       S 2488   1.228  34.571   6.802
    7AU     LIG 2489   1.299  34.387   6.366
    7AU     LIG 2490   1.213  33.998   6.142
    7AU     LIG 2491   1.369  33.567   6.198
    7AU       S 2492   0.718  35.006   6.260
    7AU     LIG 2493   0.645  34.606   6.128
    7AU     LIG 2494   0.603  34.463   5.701
    7AU     LIG 2495   0.896  34.559   5.357
    7AU       S 2496  44.901  34.835   6.325
    7AU     LIG 2497   0.121  34.657   6.027
    7AU     LIG 2498   0.040  34.732   5.597
    7AU     LIG 2499   0.053  34.966   5.204
    7AU       S 2500   0.459  35.333   6.433
    7AU     LIG 2501   0.244  35.178   6.063
    7AU     LIG 2502   0.463  34.965   5.771
    7AU     LIG 2503   0.901  34.909   5.762
    7AU       S 2504  44.729  35.242   8.669
    7AU     LIG 2505  44.431  34.970   8.753
    7AU     LIG 2506  44.178  34.882   9.094
    7AU     LIG 2507  44.225  34.799   9.548
    7AU       S 2508  44.649  35.853   8.131
    7AU     LIG 2509  44.665  36.073   8.472
    7AU     LIG 2510  44.545  35.948   8.884
    7AU     LIG 2511  44.407  36.237   9.227
    7AU       S 2512  44.493  34.630   8.370
    7AU     LIG 2513  44.064  34.667   8.573
    7AU     LIG 2514  43.749  34.361   8.683
    7AU     LIG 2515  43.520  34.023   8.883
    7AU       S 2516  44.918  34.946   8.568
    7AU     LIG 2517  44.889  34.671   8.887
    7AU     LIG 2518  44.641  34.656   9.257
    7AU     LIG 2519  44.702  34.703   9.729
    7AU       S 2520  44.749  34.739   6.418
    7AU     LIG 2521  44.483  34.700   6.076
    7AU     LIG 2522  44.531  34.881   5.679
    7AU     LIG 2523  44.512  35.175   5.332
    7AU       S 2524  44.700  34.333   6.815
    7AU     LIG 2525  44.772  34.167   6.455
    7AU     LIG 2526  44.538  34.193   6.099
    7AU     LIG 2527  44.687  34.381   5.703
    7AU       S 2528  44.429  35.435   6.693
    7AU     LIG 2529  44.121  35.630   6.512
    7AU     LIG 2530  44.245  35.924   6.216
    7AU     LIG 2531  44.208  36.286   5.965
    7AU       S 2532  44.911  35.118   6.418
    7AU     LIG 2533  44.518  35.194   6.224
    7AU     LIG 2534  44.563  35.368   5.837
    7AU     LIG 2535  44.953  35.252   5.620
    7AU       S 2536   1.146  35.738   6.822
    7AU     LIG 2537   1.331  35.715   6.422
    7AU     LIG 2538   1.677  35.879   6.178
    7AU     LIG 2539   1.962  36.176   5.942
    7AU       S 2540   1.285  35.694   7.565
    7AU     LIG 2541   1.493  35.987   7.718
    7AU     LIG 2542   1.951  35.969   7.732
    7AU     LIG 2543   2.216  36.173   7.399
    7AU       S 2544   1.568  35.372   7.530
    7AU     LIG 2545   1.875  35.684   7.315
    7AU     LIG 2546   2.355  35.711   7.238
    7AU     LIG 2547   2.755  35.483   7.134
    7AU       S 2548   1.450  34.466   7.737
    7AU     LIG 2549   1.825  34.412   7.892
    7AU     LIG 2550   2.270  34.401   7.897
    7AU     LIG 2551   2.605  34.152   8.003
    7AU       S 2552   1.174  35.771   8.080
    7AU     LIG 2553   1.538  36.025   8.216
    7AU     LIG 2554   1.579  36.375   8.470
    7AU     LIG 2555   1.542  36.735   8.722
    7AU       S 2556   1.548  35.491   7.643
    7AU     LIG 2557   1.701  35.585   8.004
    7AU     LIG 2558   2.159  35.562   7.983
    7AU     LIG 2559   2.586  35.690   7.979
    7AU       S 2560  44.571  35.685   8.081
    7AU     LIG 2561  44.373  35.503   8.413
    7AU     LIG 2562  44.237  35.486   8.798
    7AU     LIG 2563  43.933  35.792   8.865
    7AU       S 2564  44.677  35.999   7.339
    7AU     LIG 2565  44.832  36.384   7.333
    7AU     LIG 2566  44.565  36.595   7.072
    7AU     LIG 2567  44.246  36.299   6.898
    7AU       S 2568  44.203  35.180   7.023
    7AU     LIG 2569  43.940  34.820   7.022
    7AU     LIG 2570  43.496  34.935   7.023
    7AU     LIG 2571  43.388  35.451   6.939
    7AU       S 2572  44.560  35.861   6.854
    7AU     LIG 2573  44.716  36.174   6.676
    7AU     LIG 2574  44.597  36.567   6.550
    7AU     LIG 2575  44.461  36.680   6.150
    7AU       S 2576  44.154  34.808   7.581
    7AU     LIG 2577  43.735  34.727   7.487
    7AU     LIG 2578  43.329  34.779   7.545
    7AU     LIG 2579  42.991  34.736   7.255
    7AU       S 2580  44.288  35.302   7.961
    7AU     LIG 2581  44.062  35.083   8.246
    7AU     LIG 2582  43.661  35.261   8.268
    7AU     LIG 2583  43.420  35.546   7.985
    7AU       S 2584   1.143  34.321   7.642
    7AU     LIG 2585   1.264  33.887   7.534
    7AU     LIG 2586   1.657  33.714   7.715
    7AU     LIG 2587   2.005  33.943   7.853
    7AU       S 2588   1.033  34.254   8.136
    7AU     LIG 2589   1.387  34.035   8.015
    7AU     LIG 2590   1.692  33.766   8.243
    7AU     LIG 2591   1.864  33.413   8.539
    7AU       S 2592   1.419  34.371   7.564
    7AU     LIG 2593   1.715  34.131   7.426
    7AU     LIG 2594   2.115  34.280   7.437
    7AU     LIG 2595   2.352  34.554   7.184
    7AU       S 2596   1.185  34.329   6.935
    7AU     LIG 2597   1.070  33.995   6.654
    7AU     LIG 2598   1.039  33.555   6.601
    7AU     LIG 2599   1.089  33.147   6.387
    7AU       S 2600  44.584  34.420   6.857
    7AU     LIG 2601  44.308  34.603   6.609
    7AU     LIG 2602  44.094  34.420   6.289
    7AU     LIG 2603  43.686  34.278   6.271
    7AU       S 2604  44.192  34.553   7.591
    7AU     LIG 2605  43.955  34.232   7.677
    7AU     LIG 2606  43.654  34.010   7.410
    7AU     LIG 2607  43.452  33.879   6.989
    7AU       S 2608  44.524  34.394   8.294
    7AU     LIG 2609  44.455  34.128   7.899
    7AU     LIG 2610  44.460  33.708   7.996
    7AU     LIG 2611  44.260  33.673   8.439
    7AU       S 2612  44.182  34.856   7.758
    7AU     LIG 2613  44.081  34.576   8.081
    7AU     LIG 2614  43.742  34.351   8.156
    7AU     LIG 2615  43.483  34.358   7.792
    7AU       S 2616  44.811  36.029   7.811
    7AU     LIG 2617  44.664  36.347   8.006
    7AU     LIG 2618  44.309  36.474   8.261
    7AU     LIG 2619  44.094  36.706   8.577
    7AU       S 2620   0.402  36.191   7.879
    7AU     LIG 2621   0.586  36.323   8.262
    7AU     LIG 2622   0.448  36.749   8.422
    7AU     LIG 2623   0.063  37.053   8.478
    7AU       S 2624   0.528  36.346   7.762
    7AU     LIG 2625   0.116  36.569   7.749
    7AU     LIG 2626   0.072  37.020   7.753
    7AU     LIG 2627  44.908  37.302   8.057
    7AU       S 2628   0.391  36.168   7.024
    7AU     LIG 2629   0.787  36.326   7.065
    7AU     LIG 2630   0.902  36.767   7.041
    7AU     LIG 2631   0.888  37.222   6.954
    7AU       S 2632   0.917  35.752   8.345
    7AU     LIG 2633   1.118  36.119   8.484
    7AU     LIG 2634   1.251  36.326   8.875
    7AU     LIG 2635   1.390  36.095   9.257
    7AU       S 2636   0.692  36.169   7.534
    7AU     LIG 2637   0.851  36.605   7.529
    7AU     LIG 2638   0.564  36.854   7.826
    7AU     LIG 2639   0.416  37.161   8.120
    7AU       S 2640   0.224  33.923   8.089
    7AU     LIG 2641   0.554  33.595   8.191
    7AU     LIG 2642   0.537  33.139   8.243
    7AU     LIG 2643   0.399  32.826   8.555
    7AU       S 2644   0.803  34.228   7.986
    7AU     LIG 2645   0.883  33.835   7.870
    7AU     LIG 2646   1.234  33.532   7.917
    7AU     LIG 2647   1.570  33.296   8.123
    7AU       S 2648   0.029  33.854   7.924
    7AU     LIG 2649   0.024  33.402   7.992
    7AU     LIG 2650   0.033  32.986   8.213
    7AU     LIG 2651   0.168  32.521   8.202
    7AU       S 2652  44.745  34.515   8.445
    7AU     LIG 2653  44.437  34.417   8.812
    7AU     LIG 2654  44.151  34.046   8.801
    7AU     LIG 2655  44.316  33.679   9.012
    7AU       S 2656   0.505  33.893   7.315
    7AU     LIG 2657   0.336  33.444   7.236
    7AU     LIG 2658   0.385  33.058   7.003
    7AU     LIG 2659   0.215  32.629   6.975
    7AU       S 2660   0.381  33.970   7.870
    7AU     LIG 2661   0.431  33.590   7.707
    7AU     LIG 2662   0.393  33.144   7.727
    7AU     LIG 2663   0.334  32.813   7.453
    7AU       S 2664   0.270  36.069   6.740
    7AU     LIG 2665   0.563  36.425   6.619
    7AU     LIG 2666   0.792  36.840   6.551
    7AU     LIG 2667   0.700  37.293   6.495
    7AU       S 2668   1.029  35.887   7.165
    7AU     LIG 2669   1.478  35.992   7.146
    7AU     LIG 2670   1.560  36.108   6.699
    7AU     LIG 2671   1.657  36.370   6.330
    7AU       S 2672   0.068  36.090   7.009
    7AU     LIG 2673   0.066  36.512   6.849
    7AU     LIG 2674   0.376  36.856   6.862
    7AU     LIG 2675   0.388  37.223   7.138
    7AU       S 2676  44.617  35.484   6.612
    7AU     LIG 2677  44.732  35.752   6.321
    7AU     LIG 2678  44.693  36.187   6.164
    7AU     LIG 2679  44.735  36.432   5.784
    7AU       S 2680  44.608  34.259   7.112
    7AU     LIG 2681  44.135  34.308   6.993
    7AU     LIG 2682  44.287  34.060   6.630
    7AU     LIG 2683  44.230  33.589   6.597
    7AU       S 2684   0.464  33.923   7.168
    7AU     LIG 2685   0.577  33.768   6.772
    7AU     LIG 2686   0.582  33.324   6.549
    7AU     LIG 2687   0.474  32.833   6.537
    7AU       S 2688   0.751  34.025   7.428
    7AU     LIG 2689   0.966  33.800   7.115
    7AU     LIG 2690   0.806  33.379   7.020
    7AU     LIG 2691   0.883  32.986   6.819
    7AU       S 2692   0.948  34.478   6.690
    7AU     LIG 2693   0.626  34.250   6.526
    7AU     LIG 2694   0.725  33.851   6.286
    7AU     LIG 2695   0.872  33.483   6.053
    8AU     AUC 2696  18.742   9.670   7.517
    8AU     AUC 2697  18.999   9.673   7.351
    8AU     AUC 2698  18.992   9.675   7.687
    8AU     AUC 2699  18.472   9.656   7.358
    8AU     AUC 2700  18.492   9.711   7.684
    8AU     AUC 2701  18.576   9.929   7.478
    8AU     AUC 2702  18.914   9.937   7.484
    8AU     AUC 2703  18.574   9.411   7.542
    8AU     AUC 2704  18.908   9.401   7.538
    8AU     AUC 2705  18.742   9.529   7.795
    8AU     AUC 2706  18.745   9.871   7.755
    8AU     AUC 2707  18.744   9.481   7.266
    8AU     AUC 2708  18.753   9.795   7.243
    8AU     AUC 2709  19.317   9.676   7.193
    8AU     AUC 2710  19.309   9.657   7.531
    8AU     AUC 2711  19.281   9.668   7.885
    8AU     AUC 2712  18.172   9.610   7.218
    8AU     AUC 2713  18.169   9.693   7.543
    8AU     AUC 2714  18.197   9.758   7.865
    8AU     AUC 2715  18.408  10.226   7.414
    8AU     AUC 2716  18.766  10.226   7.405
    8AU     AUC 2717  19.099  10.218   7.447
    8AU     AUC 2718  18.387   9.123   7.567
    8AU     AUC 2719  18.734   9.108   7.548
    8AU     AUC 2720  19.084   9.107   7.553
    8AU     AUC 2721  18.720   9.379   8.101
    8AU     AUC 2722  18.732   9.730   8.079
    8AU     AUC 2723  18.772  10.089   8.033
    8AU     AUC 2724  18.782   9.290   6.989
    8AU     AUC 2725  18.730   9.620   6.941
    8AU     AUC 2726  18.716   9.937   6.933
    8AU     AUC 2727  18.991   9.502   8.002
    8AU     AUC 2728  19.027   9.857   7.975
    8AU     AUC 2729  19.049   9.503   7.057
    8AU     AUC 2730  19.018   9.821   7.070
    8AU     AUC 2731  18.452   9.591   7.998
    8AU     AUC 2732  18.481   9.942   7.942
    8AU     AUC 2733  18.467   9.433   7.097
    8AU     AUC 2734  18.425   9.743   7.050
    8AU     AUC 2735  19.237   9.942   7.339
    8AU     AUC 2736  19.185   9.932   7.678
    8AU     AUC 2737  18.274   9.927   7.339
    8AU     AUC 2738  18.314  10.020   7.665
    8AU     AUC 2739  19.205   9.390   7.377
    8AU     AUC 2740  19.166   9.364   7.729
    8AU     AUC 2741  18.281   9.350   7.395
    8AU     AUC 2742  18.308   9.439   7.728
    8AU     AUC 2743  18.619  10.179   7.731
    8AU     AUC 2744  18.938  10.154   7.752
    8AU     AUC 2745  18.560   9.250   7.833
    8AU     AUC 2746  18.875   9.205   7.820
    8AU     AUC 2747  18.548  10.080   7.166
    8AU     AUC 2748  18.909  10.113   7.184
    8AU     AUC 2749  18.591   9.187   7.268
    8AU     AUC 2750  18.960   9.229   7.263
    8AU    AUSL 2751  19.245   9.627   8.271
    8AU    AUSL 2752  19.013   9.229   8.216
    8AU     AUL 2753  19.330   9.294   8.392
    8AU    AUSL 2754  18.839   9.558   8.419
    8AU    AUSL 2755  18.587   9.939   8.404
    8AU     AUL 2756  18.820   9.865   8.692
    8AU    AUSL 2757  18.926   9.910   8.166
    8AU    AUSL 2758  19.369   9.992   8.087
    8AU     AUL 2759  19.200   9.931   8.428
    8AU    AUSL 2760  19.181   9.704   6.878
    8AU    AUSL 2761  19.034  10.094   6.957
    8AU     AUL 2762  19.231  10.036   6.670
    8AU    AUSL 2763  19.012   9.427   6.605
    8AU    AUSL 2764  19.486   9.437   6.975
    8AU     AUL 2765  19.384   9.579   6.643
    8AU    AUSL 2766  18.813   9.825   6.696
    8AU    AUSL 2767  18.637   9.424   6.797
    8AU     AUL 2768  18.741   9.473   6.472
    8AU    AUSL 2769  18.203   9.882   8.201
    8AU    AUSL 2770  18.520  10.198   8.077
    8AU     AUL 2771  18.352  10.177   8.408
    8AU    AUSL 2772  18.500   9.581   8.177
    8AU    AUSL 2773  18.087   9.459   8.135
    8AU     AUL 2774  18.017   9.677   8.289
    8AU    AUSL 2775  18.211   9.416   6.805
    8AU    AUSL 2776  18.449   9.098   6.986
    8AU     AUL 2777  18.496   9.113   6.651
    8AU    AUSL 2778  18.394   9.770   6.653
    8AU    AUSL 2779  18.097   9.780   7.010
    8AU     AUL 2780  17.978   9.609   6.754
    8AU    AUSL 2781  19.517  10.149   7.495
    8AU    AUSL 2782  19.444   9.963   7.082
    8AU     AUL 2783  19.783  10.187   7.247
    8AU    AUSL 2784  19.681   9.757   7.368
    8AU    AUSL 2785  19.655   9.454   7.718
    8AU     AUL 2786  19.963   9.496   7.467
    8AU    AUSL 2787  19.426   9.804   7.724
    8AU    AUSL 2788  19.182  10.203   7.751
    8AU     AUL 2789  19.505  10.226   7.799
    8AU    AUSL 2790  18.154  10.283   7.456
    8AU    AUSL 2791  18.189  10.075   7.829
    8AU     AUL 2792  17.868  10.300   7.652
    8AU    AUSL 2793  17.987   9.886   7.399
    8AU    AUSL 2794  18.120  10.203   7.050
    8AU     AUL 2795  17.867  10.114   7.199
    8AU    AUSL 2796  17.833   9.871   7.816
    8AU    AUSL 2797  17.821   9.503   7.387
    8AU     AUL 2798  17.639   9.840   7.513
    8AU    AUSL 2799  19.418   9.112   7.604
    8AU    AUSL 2800  19.282   9.399   7.921
    8AU     AUL 2801  19.592   9.317   7.979
    8AU    AUSL 2802  19.385   9.469   7.376
    8AU    AUSL 2803  19.377   9.060   7.181
    8AU     AUL 2804  19.628   9.260   7.252
    8AU    AUSL 2805  18.010   9.149   7.591
    8AU    AUSL 2806  18.164   9.342   7.210
    8AU     AUL 2807  17.801   9.218   7.269
    8AU    AUSL 2808  18.079   9.551   7.727
    8AU    AUSL 2809  18.311   9.197   7.884
    8AU     AUL 2810  17.991   9.198   7.935
    8AU    AUSL 2811  18.788  10.470   7.893
    8AU    AUSL 2812  18.345  10.474   7.787
    8AU     AUL 2813  18.548  10.538   8.155
    8AU    AUSL 2814  18.633  10.365   7.511
    8AU    AUSL 2815  18.875  10.482   7.169
    8AU     AUL 2816  18.609  10.715   7.447
    8AU    AUSL 2817  19.045  10.541   7.552
    8AU    AUSL 2818  19.067  10.300   8.154
    8AU     AUL 2819  19.167  10.546   7.899
    8AU    AUSL 2820  18.702   9.039   7.990
    8AU    AUSL 2821  19.119   9.002   7.872
    8AU     AUL 2822  18.878   8.931   8.251
    8AU    AUSL 2823  18.402   8.824   7.728
    8AU    AUSL 2824  18.463   9.191   8.297
    8AU     AUL 2825  18.378   8.899   8.076
    8AU    AUSL 2826  18.833   8.755   7.695
    8AU    AUSL 2827  18.613   8.964   7.384
    8AU     AUL 2828  18.525   8.609   7.495
    8AU    AUSL 2829  18.717  10.305   6.789
    8AU    AUSL 2830  19.259  10.332   7.224
    8AU     AUL 2831  19.047  10.436   6.864
    8AU    AUSL 2832  18.460  10.425   7.132
    8AU    AUSL 2833  18.486  10.007   6.974
    8AU     AUL 2834  18.390  10.270   6.763
    8AU    AUSL 2835  18.825   8.908   7.011
    8AU    AUSL 2836  18.209   8.917   7.301
    8AU     AUL 2837  18.491   8.763   7.061
    8AU    AUSL 2838  19.037   8.963   7.394
    8AU    AUSL 2839  19.056   9.262   6.986
    8AU     AUL 2840  19.144   8.893   7.004
    8AU       S 2841  19.328   8.836   8.281
    8AU     LIG 2842  19.468   8.417   8.348
    8AU     LIG 2843  19.596   7.984   8.367
    8AU     LIG 2844  19.974   7.778   8.527
    8AU       S 2845  19.194   9.565   8.739
    8AU     LIG 2846  19.622   9.609   8.686
    8AU     LIG 2847  19.802   9.701   9.114
    8AU     LIG 2848  19.790   9.590   9.590
    8AU       S 2849  18.856   9.393   8.633
    8AU     LIG 2850  18.873   9.397   9.092
    8AU     LIG 2851  19.246   9.390   9.411
    8AU     LIG 2852  19.464   9.229   9.817
    8AU       S 2853  18.384   9.733   8.627
    8AU     LIG 2854  18.479   9.741   9.070
    8AU     LIG 2855  18.104   9.696   9.314
    8AU     LIG 2856  17.878   9.854   9.707
    8AU       S 2857  18.819  10.321   8.532
    8AU     LIG 2858  19.064  10.639   8.738
    8AU     LIG 2859  19.464  10.491   8.861
    8AU     LIG 2860  19.480  10.058   8.850
    8AU       S 2861  19.566  10.170   8.261
    8AU     LIG 2862  19.857  10.213   8.546
    8AU     LIG 2863  19.983  10.552   8.779
    8AU     LIG 2864  20.241  10.860   8.996
    8AU       S 2865  19.081   9.815   6.305
    8AU     LIG 2866  19.530   9.908   6.277
    8AU     LIG 2867  19.616   9.473   6.178
    8AU     LIG 2868  19.498   9.102   5.902
    8AU       S 2869  19.505  10.394   6.830
    8AU     LIG 2870  19.363  10.513   6.439
    8AU     LIG 2871  19.648  10.748   6.132
    8AU     LIG 2872  19.998  11.062   6.027
    8AU       S 2873  19.650   9.208   6.772
    8AU     LIG 2874  19.747   9.015   6.368
    8AU     LIG 2875  19.671   8.610   6.235
    8AU     LIG 2876  19.972   8.280   6.367
    8AU       S 2877  19.110   9.641   6.263
    8AU     LIG 2878  19.037   9.262   6.097
    8AU     LIG 2879  19.031   9.158   5.648
    8AU     LIG 2880  19.290   9.318   5.292
    8AU       S 2881  18.310   9.439   6.328
    8AU     LIG 2882  18.528   9.298   5.984
    8AU     LIG 2883  18.531   9.316   5.525
    8AU     LIG 2884  18.259   9.359   5.148
    8AU       S 2885  18.831   9.936   6.433
    8AU     LIG 2886  18.629   9.799   6.062
    8AU     LIG 2887  18.867   9.640   5.751
    8AU     LIG 2888  19.315   9.582   5.769
    8AU       S 2889  18.180   9.841   8.686
    8AU     LIG 2890  17.875   9.571   8.766
    8AU     LIG 2891  17.791   9.302   9.089
    8AU     LIG 2892  17.728   9.401   9.519
    8AU       S 2893  18.075  10.454   8.153
    8AU     LIG 2894  18.013  10.575   8.552
    8AU     LIG 2895  17.740  10.509   8.905
    8AU     LIG 2896  17.313  10.602   9.076
    8AU       S 2897  18.001   9.230   8.427
    8AU     LIG 2898  17.600   9.274   8.274
    8AU     LIG 2899  17.410   8.887   8.111
    8AU     LIG 2900  17.240   8.461   8.262
    8AU       S 2901  18.374   9.558   8.577
    8AU     LIG 2902  18.292   9.297   8.931
    8AU     LIG 2903  18.222   9.195   9.361
    8AU     LIG 2904  18.198   9.423   9.757
    8AU       S 2905  18.168   9.355   6.426
    8AU     LIG 2906  18.052   9.051   6.124
    8AU     LIG 2907  18.045   9.235   5.695
    8AU     LIG 2908  17.979   9.647   5.480
    8AU       S 2909  18.110   8.923   6.828
    8AU     LIG 2910  18.098   8.522   6.674
    8AU     LIG 2911  17.786   8.307   6.409
    8AU     LIG 2912  17.497   8.259   6.040
    8AU       S 2913  17.803  10.030   6.718
    8AU     LIG 2914  17.503  10.309   6.874
    8AU     LIG 2915  17.569  10.669   6.618
    8AU     LIG 2916  17.566  10.796   6.175
    8AU       S 2917  18.334   9.725   6.450
    8AU     LIG 2918  18.120   9.910   6.145
    8AU     LIG 2919  18.257  10.012   5.726
    8AU     LIG 2920  18.482   9.808   5.384
    8AU       S 2921  19.610  10.227   6.833
    8AU     LIG 2922  19.850  10.354   6.453
    8AU     LIG 2923  20.153  10.605   6.208
    8AU     LIG 2924  20.546  10.761   6.028
    8AU       S 2925  19.910  10.059   7.686
    8AU     LIG 2926  20.007  10.486   7.594
    8AU     LIG 2927  20.405  10.642   7.396
    8AU     LIG 2928  20.858  10.637   7.474
    8AU       S 2929  19.906   9.912   7.638
    8AU     LIG 2930  20.297  10.098   7.396
    8AU     LIG 2931  20.749  10.150   7.391
    8AU     LIG 2932  21.065  10.329   7.115
    8AU       S 2933  19.893   9.083   7.724
    8AU     LIG 2934  20.232   8.901   7.936
    8AU     LIG 2935  20.638   9.062   7.907
    8AU     LIG 2936  20.789   9.085   7.491
    8AU       S 2937  19.526  10.448   8.196
    8AU     LIG 2938  19.904  10.671   8.280
    8AU     LIG 2939  20.064  11.029   8.536
    8AU     LIG 2940  20.125  11.352   8.887
    8AU       S 2941  19.791   9.862   7.899
    8AU     LIG 2942  20.092  10.228   8.085
    8AU     LIG 2943  20.477  10.359   7.833
    8AU     LIG 2944  20.932  10.268   7.877
    8AU       S 2945  17.996  10.278   8.093
    8AU     LIG 2946  17.782  10.127   8.455
    8AU     LIG 2947  17.362  10.294   8.629
    8AU     LIG 2948  16.980  10.583   8.645
    8AU       S 2949  18.084  10.607   7.358
    8AU     LIG 2950  17.843  10.932   7.219
    8AU     LIG 2951  17.478  11.010   6.988
    8AU     LIG 2952  17.111  10.753   6.877
    8AU       S 2953  17.608   9.741   7.051
    8AU     LIG 2954  17.186   9.863   7.049
    8AU     LIG 2955  16.827  10.132   7.142
    8AU     LIG 2956  16.740  10.575   7.286
    8AU       S 2957  17.981  10.453   6.886
    8AU     LIG 2958  18.051  10.858   6.745
    8AU     LIG 2959  17.771  11.139   6.541
    8AU     LIG 2960  17.309  11.120   6.504
    8AU       S 2961  17.604   9.396   7.666
    8AU     LIG 2962  17.284   9.468   7.388
    8AU     LIG 2963  16.843   9.596   7.348
    8AU     LIG 2964  16.473   9.476   7.110
    8AU       S 2965  17.704   9.898   7.994
    8AU     LIG 2966  17.353  10.108   8.146
    8AU     LIG 2967  16.986  10.407   8.149
    8AU     LIG 2968  16.580  10.452   7.887
    8AU       S 2969  19.585   8.937   7.623
    8AU     LIG 2970  19.802   8.529   7.553
    8AU     LIG 2971  20.167   8.385   7.821
    8AU     LIG 2972  20.609   8.562   7.761
    8AU       S 2973  19.488   8.907   8.132
    8AU     LIG 2974  19.794   8.669   8.039
    8AU     LIG 2975  19.976   8.353   8.307
    8AU     LIG 2976  19.847   8.244   8.735
    8AU       S 2977  19.866   9.022   7.552
    8AU     LIG 2978  19.996   8.867   7.174
    8AU     LIG 2979  20.444   8.854   7.061
    8AU     LIG 2980  20.792   8.633   7.239
    8AU       S 2981  19.586   8.963   6.873
    8AU     LIG 2982  19.793   8.621   6.740
    8AU     LIG 2983  19.750   8.184   6.829
    8AU     LIG 2984  19.727   7.732   6.676
    8AU       S 2985  17.972   9.029   6.892
    8AU     LIG 2986  17.734   9.125   6.559
    8AU     LIG 2987  17.542   8.760   6.370
    8AU     LIG 2988  17.234   8.419   6.463
    8AU       S 2989  17.599   9.151   7.697
    8AU     LIG 2990  17.183   9.028   7.653
    8AU     LIG 2991  16.863   9.069   7.332
    8AU     LIG 2992  16.426   8.958   7.219
    8AU       S 2993  18.013   8.993   8.342
    8AU     LIG 2994  17.897   8.723   7.969
    8AU     LIG 2995  17.590   8.392   7.872
    8AU     LIG 2996  17.453   8.012   8.098
    8AU       S 2997  17.623   9.443   7.818
    8AU     LIG 2998  17.189   9.530   7.903
    8AU     LIG 2999  16.789   9.336   7.790
    8AU     LIG 3000  16.590   8.935   7.737
    8AU       S 3001  18.220  10.640   7.827
    8AU     LIG 3002  17.792  10.742   7.865
    8AU     LIG 3003  17.567  10.579   8.234
    8AU     LIG 3004  17.441  10.810   8.607
    8AU       S 3005  18.786  10.815   7.864
    8AU     LIG 3006  18.971  10.823   8.262
    8AU     LIG 3007  18.950  11.203   8.479
    8AU     LIG 3008  18.770  11.637   8.406
    8AU       S 3009  18.886  10.991   7.755
    8AU     LIG 3010  18.607  11.272   7.990
    8AU     LIG 3011  18.476  11.711   7.993
    8AU     LIG 3012  18.744  12.079   8.077
    8AU       S 3013  18.776  10.794   7.013
    8AU     LIG 3014  18.848  11.206   7.243
    8AU     LIG 3015  19.150  11.605   7.225
    8AU     LIG 3016  19.521  11.827   7.027
    8AU       S 3017  19.296  10.406   8.350
    8AU     LIG 3018  19.468  10.847   8.498
    8AU     LIG 3019  19.696  10.959   8.897
    8AU     LIG 3020  19.815  10.676   9.255
    8AU       S 3021  19.063  10.830   7.531
    8AU     LIG 3022  19.237  11.285   7.622
    8AU     LIG 3023  19.095  11.469   8.036
    8AU     LIG 3024  19.280  11.603   8.475
    8AU       S 3025  18.689   8.538   8.091
    8AU     LIG 3026  19.027   8.248   8.177
    8AU     LIG 3027  19.131   7.820   8.167
    8AU     LIG 3028  18.855   7.494   8.359
    8AU       S 3029  19.261   8.855   7.981
    8AU     LIG 3030  19.347   8.483   7.838
    8AU     LIG 3031  19.672   8.185   7.909
    8AU     LIG 3032  20.052   7.925   8.029
    8AU       S 3033  18.499   8.471   7.937
    8AU     LIG 3034  18.415   8.077   7.863
    8AU     LIG 3035  18.669   7.736   7.925
    8AU     LIG 3036  18.536   7.315   7.974
    8AU       S 3037  18.254   9.102   8.486
    8AU     LIG 3038  17.950   8.881   8.812
    8AU     LIG 3039  17.619   8.534   8.670
    8AU     LIG 3040  17.397   8.091   8.615
    8AU       S 3041  18.933   8.511   7.302
    8AU     LIG 3042  18.958   8.043   7.203
    8AU     LIG 3043  18.842   7.634   7.068
    8AU     LIG 3044  18.826   7.287   6.738
    8AU       S 3045  18.840   8.584   7.859
    8AU     LIG 3046  18.910   8.189   7.686
    8AU     LIG 3047  19.106   7.763   7.636
    8AU     LIG 3048  19.063   7.375   7.902
    8AU       S 3049  18.644  10.673   6.735
    8AU     LIG 3050  18.504  11.115   6.713
    8AU     LIG 3051  18.758  11.463   6.803
    8AU     LIG 3052  19.134  11.659   6.717
    8AU       S 3053  19.437  10.488   7.125
    8AU     LIG 3054  19.869  10.658   7.082
    8AU     LIG 3055  20.110  10.786   6.705
    8AU     LIG 3056  20.468  10.994   6.484
    8AU       S 3057  18.449  10.680   6.998
    8AU     LIG 3058  18.341  11.048   7.197
    8AU     LIG 3059  18.309  11.460   7.076
    8AU     LIG 3060  18.313  11.676   6.669
    8AU       S 3061  18.008  10.079   6.619
    8AU     LIG 3062  18.009  10.455   6.385
    8AU     LIG 3063  18.074  10.871   6.210
    8AU     LIG 3064  17.836  11.182   5.950
    8AU       S 3065  18.023   8.826   7.121
    8AU     LIG 3066  17.669   8.591   6.923
    8AU     LIG 3067  17.510   8.167   6.808
    8AU     LIG 3068  17.388   7.914   6.427
    8AU       S 3069  18.895   8.542   7.158
    8AU     LIG 3070  19.211   8.371   6.888
    8AU     LIG 3071  19.047   7.983   6.699
    8AU     LIG 3072  18.621   7.779   6.612
    8AU       S 3073  19.177   8.641   7.398
    8AU     LIG 3074  19.397   8.252   7.370
    8AU     LIG 3075  19.420   7.889   7.083
    8AU     LIG 3076  19.294   7.512   6.857
    8AU       S 3077  19.359   9.102   6.659
    8AU     LIG 3078  18.984   8.926   6.522
    8AU     LIG 3079  19.076   8.485   6.405
    8AU     LIG 3080  19.439   8.178   6.421
    9AU     AUC 3081  27.213  32.847   7.530
    9AU     AUC 3082  27.470  32.840   7.368
    9AU     AUC 3083  27.459  32.843   7.704
    9AU     AUC 3084  26.944  32.842   7.367
    9AU     AUC 3085  26.961  32.892   7.695
    9AU     AUC 3086  27.056  33.108   7.492
    9AU     AUC 3087  27.396  33.111   7.503
    9AU     AUC 3088  27.036  32.592   7.550
    9AU     AUC 3089  27.370  32.573   7.551
    9AU     AUC 3090  27.204  32.701   7.807
    9AU     AUC 3091  27.221  33.044   7.772
    9AU     AUC 3092  27.211  32.663   7.279
    9AU     AUC 3093  27.230  32.973   7.257
    9AU     AUC 3094  27.781  32.827   7.205
    9AU     AUC 3095  27.777  32.813   7.557
    9AU     AUC 3096  27.742  32.821   7.907
    9AU     AUC 3097  26.645  32.806   7.222
    9AU     AUC 3098  26.640  32.887   7.548
    9AU     AUC 3099  26.663  32.948   7.870
    9AU     AUC 3100  26.896  33.412   7.430
    9AU     AUC 3101  27.255  33.399   7.423
    9AU     AUC 3102  27.590  33.382   7.470
    9AU     AUC 3103  26.843  32.310   7.568
    9AU     AUC 3104  27.190  32.284   7.554
    9AU     AUC 3105  27.539  32.274   7.567
    9AU     AUC 3106  27.171  32.544   8.110
    9AU     AUC 3107  27.195  32.898   8.092
    9AU     AUC 3108  27.252  33.256   8.049
    9AU     AUC 3109  27.249  32.474   7.003
    9AU     AUC 3110  27.214  32.802   6.952
    9AU     AUC 3111  27.200  33.119   6.946
    9AU     AUC 3112  27.445  32.663   8.019
    9AU     AUC 3113  27.503  33.024   7.988
    9AU     AUC 3114  27.527  32.686   7.063
    9AU     AUC 3115  27.493  32.986   7.073
    9AU     AUC 3116  26.912  32.769   8.006
    9AU     AUC 3117  26.955  33.120   7.955
    9AU     AUC 3118  26.936  32.623   7.104
    9AU     AUC 3119  26.903  32.931   7.058
    9AU     AUC 3120  27.702  33.103   7.360
    9AU     AUC 3121  27.665  33.102   7.694
    9AU     AUC 3122  26.754  33.119   7.350
    9AU     AUC 3123  26.794  33.208   7.676
    9AU     AUC 3124  27.671  32.557   7.402
    9AU     AUC 3125  27.621  32.525   7.749
    9AU     AUC 3126  26.743  32.543   7.399
    9AU     AUC 3127  26.766  32.626   7.732
    9AU     AUC 3128  27.105  33.354   7.749
    9AU     AUC 3129  27.429  33.319   7.772
    9AU     AUC 3130  27.014  32.426   7.838
    9AU     AUC 3131  27.326  32.371   7.830
    9AU     AUC 3132  27.033  33.262   7.181
    9AU     AUC 3133  27.391  33.283   7.200
    9AU     AUC 3134  27.051  32.373   7.275
    9AU     AUC 3135  27.421  32.409   7.279
    9AU    AUSL 3136  27.696  32.767   8.303
    9AU    AUSL 3137  27.457  32.379   8.233
    9AU     AUL 3138  27.770  32.414   8.413
    9AU    AUSL 3139  27.284  32.713   8.429
    9AU    AUSL 3140  27.049  33.105   8.414
    9AU     AUL 3141  27.276  33.017   8.700
    9AU    AUSL 3142  27.397  33.070   8.189
    9AU    AUSL 3143  27.844  33.116   8.110
    9AU     AUL 3144  27.675  33.078   8.453
    9AU    AUSL 3145  27.711  32.912   6.805
    9AU    AUSL 3146  27.525  33.270   6.957
    9AU     AUL 3147  27.813  33.251   6.711
    9AU    AUSL 3148  27.492  32.594   6.627
    9AU    AUSL 3149  27.936  32.611   6.999
    9AU     AUL 3150  27.888  32.719   6.631
    9AU    AUSL 3151  27.300  32.998   6.717
    9AU    AUSL 3152  27.111  32.608   6.805
    9AU     AUL 3153  27.229  32.668   6.482
    9AU    AUSL 3154  26.664  33.063   8.206
    9AU    AUSL 3155  27.001  33.375   8.095
    9AU     AUL 3156  26.828  33.355   8.420
    9AU    AUSL 3157  26.949  32.752   8.183
    9AU    AUSL 3158  26.536  32.640   8.133
    9AU     AUL 3159  26.464  32.862   8.285
    9AU    AUSL 3160  26.685  32.616   6.807
    9AU    AUSL 3161  26.911  32.290   6.993
    9AU     AUL 3162  26.966  32.307   6.659
    9AU    AUSL 3163  26.881  32.963   6.657
    9AU    AUSL 3164  26.575  32.979   7.013
    9AU     AUL 3165  26.456  32.813   6.756
    9AU    AUSL 3166  28.022  33.303   7.495
    9AU    AUSL 3167  27.847  33.072   7.166
    9AU     AUL 3168  28.134  33.191   7.053
    9AU    AUSL 3169  28.168  32.900   7.387
    9AU    AUSL 3170  28.112  32.609   7.769
    9AU     AUL 3171  28.412  32.678   7.578
    9AU    AUSL 3172  27.899  32.961   7.726
    9AU    AUSL 3173  27.716  33.371   7.777
    9AU     AUL 3174  28.073  33.205   7.862
    9AU    AUSL 3175  26.641  33.481   7.470
    9AU    AUSL 3176  26.673  33.267   7.840
    9AU     AUL 3177  26.358  33.515   7.664
    9AU    AUSL 3178  26.469  33.087   7.402
    9AU    AUSL 3179  26.610  33.400   7.063
    9AU     AUL 3180  26.354  33.323   7.208
    9AU    AUSL 3181  26.308  33.080   7.813
    9AU    AUSL 3182  26.288  32.712   7.386
    9AU     AUL 3183  26.112  33.050   7.511
    9AU    AUSL 3184  27.875  32.272   7.627
    9AU    AUSL 3185  27.728  32.558   7.942
    9AU     AUL 3186  28.029  32.452   8.013
    9AU    AUSL 3187  27.855  32.631   7.407
    9AU    AUSL 3188  27.841  32.231   7.203
    9AU     AUL 3189  28.105  32.437   7.284
    9AU    AUSL 3190  26.461  32.350   7.587
    9AU    AUSL 3191  26.626  32.540   7.211
    9AU     AUL 3192  26.256  32.421   7.273
    9AU    AUSL 3193  26.542  32.747   7.731
    9AU    AUSL 3194  26.764  32.380   7.882
    9AU     AUL 3195  26.449  32.366   7.918
    9AU    AUSL 3196  27.281  33.638   7.918
    9AU    AUSL 3197  26.841  33.662   7.803
    9AU     AUL 3198  27.045  33.717   8.173
    9AU    AUSL 3199  27.127  33.539   7.531
    9AU    AUSL 3200  27.370  33.661   7.189
    9AU     AUL 3201  27.115  33.897   7.464
    9AU    AUSL 3202  27.538  33.694   7.578
    9AU    AUSL 3203  27.561  33.451   8.167
    9AU     AUL 3204  27.651  33.708   7.917
    9AU    AUSL 3205  27.148  32.207   7.994
    9AU    AUSL 3206  27.567  32.160   7.885
    9AU     AUL 3207  27.322  32.088   8.256
    9AU    AUSL 3208  26.848  32.006   7.724
    9AU    AUSL 3209  26.907  32.361   8.298
    9AU     AUL 3210  26.823  32.070   8.071
    9AU    AUSL 3211  27.277  31.925   7.696
    9AU    AUSL 3212  27.069  32.143   7.385
    9AU     AUL 3213  26.956  31.784   7.493
    9AU    AUSL 3214  27.204  33.488   6.808
    9AU    AUSL 3215  27.741  33.484   7.249
    9AU     AUL 3216  27.530  33.596   6.885
    9AU    AUSL 3217  26.955  33.608   7.153
    9AU    AUSL 3218  26.970  33.191   6.986
    9AU     AUL 3219  26.884  33.460   6.782
    9AU    AUSL 3220  27.286  32.096   7.012
    9AU    AUSL 3221  26.664  32.114   7.303
    9AU     AUL 3222  26.953  31.951   7.061
    9AU    AUSL 3223  27.492  32.134   7.403
    9AU    AUSL 3224  27.520  32.445   7.013
    9AU     AUL 3225  27.603  32.082   7.022
    9AU       S 3226  27.767  31.959   8.281
    9AU     LIG 3227  28.008  31.533   8.294
    9AU     LIG 3228  28.268  31.153   8.330
    9AU     LIG 3229  28.673  31.082   8.608
    9AU       S 3230  27.631  32.696   8.752
    9AU     LIG 3231  28.039  32.768   8.728
    9AU     LIG 3232  28.197  32.875   9.158
    9AU     LIG 3233  28.095  32.824   9.628
    9AU       S 3234  27.290  32.542   8.648
    9AU     LIG 3235  27.307  32.575   9.119
    9AU     LIG 3236  27.668  32.548   9.451
    9AU     LIG 3237  27.968  32.330   9.765
    9AU       S 3238  26.833  32.907   8.636
    9AU     LIG 3239  26.889  32.897   9.095
    9AU     LIG 3240  26.596  32.798   9.446
    9AU     LIG 3241  26.421  32.818   9.893
    9AU       S 3242  27.305  33.471   8.541
    9AU     LIG 3243  27.550  33.790   8.726
    9AU     LIG 3244  27.927  33.641   8.867
    9AU     LIG 3245  28.106  33.263   8.806
    9AU       S 3246  28.024  33.362   8.302
    9AU     LIG 3247  28.413  33.421   8.434
    9AU     LIG 3248  28.467  33.734   8.744
    9AU     LIG 3249  28.764  33.879   9.090
    9AU       S 3250  27.612  33.026   6.361
    9AU     LIG 3251  28.052  33.052   6.282
    9AU     LIG 3252  28.179  32.670   6.073
    9AU     LIG 3253  28.051  32.263   5.851
    9AU       S 3254  27.971  33.674   6.881
    9AU     LIG 3255  27.767  33.953   6.596
    9AU     LIG 3256  27.989  34.219   6.276
    9AU     LIG 3257  28.353  34.195   5.972
    9AU       S 3258  28.130  32.360   6.810
    9AU     LIG 3259  28.192  32.248   6.357
    9AU     LIG 3260  28.131  31.840   6.181
    9AU     LIG 3261  28.330  31.424   6.308
    9AU       S 3262  27.599  32.840   6.277
    9AU     LIG 3263  27.669  32.431   6.170
    9AU     LIG 3264  27.525  32.274   5.756
    9AU     LIG 3265  27.462  32.507   5.338
    9AU       S 3266  26.799  32.624   6.334
    9AU     LIG 3267  27.046  32.452   6.039
    9AU     LIG 3268  27.039  32.380   5.592
    9AU     LIG 3269  26.882  32.495   5.170
    9AU       S 3270  27.376  33.124   6.479
    9AU     LIG 3271  27.145  32.986   6.094
    9AU     LIG 3272  27.360  32.768   5.786
    9AU     LIG 3273  27.799  32.711   5.728
    9AU       S 3274  26.629  33.018   8.683
    9AU     LIG 3275  26.383  32.677   8.816
    9AU     LIG 3276  26.296  32.451   9.184
    9AU     LIG 3277  26.305  32.385   9.634
    9AU       S 3278  26.567  33.653   8.163
    9AU     LIG 3279  26.582  33.955   8.432
    9AU     LIG 3280  26.279  33.937   8.768
    9AU     LIG 3281  25.904  33.881   9.036
    9AU       S 3282  26.426  32.409   8.396
    9AU     LIG 3283  25.996  32.347   8.217
    9AU     LIG 3284  25.697  31.973   8.237
    9AU     LIG 3285  25.440  31.668   8.498
    9AU       S 3286  26.818  32.733   8.574
    9AU     LIG 3287  26.836  32.433   8.914
    9AU     LIG 3288  26.769  32.313   9.345
    9AU     LIG 3289  26.802  32.457   9.776
    9AU       S 3290  26.646  32.559   6.432
    9AU     LIG 3291  26.369  32.462   6.126
    9AU     LIG 3292  26.561  32.531   5.743
    9AU     LIG 3293  26.423  32.701   5.340
    9AU       S 3294  26.569  32.126   6.834
    9AU     LIG 3295  26.579  32.070   6.403
    9AU     LIG 3296  26.357  31.949   6.033
    9AU     LIG 3297  25.989  31.686   5.996
    9AU       S 3298  26.309  33.241   6.718
    9AU     LIG 3299  26.015  33.508   6.836
    9AU     LIG 3300  25.831  33.821   6.564
    9AU     LIG 3301  25.949  34.006   6.147
    9AU       S 3302  26.816  32.920   6.450
    9AU     LIG 3303  26.459  32.986   6.207
    9AU     LIG 3304  26.534  33.041   5.758
    9AU     LIG 3305  26.903  32.883   5.524
    9AU       S 3306  28.084  33.623   6.957
    9AU     LIG 3307  28.128  33.590   6.435
    9AU     LIG 3308  28.433  33.690   6.100
    9AU     LIG 3309  28.807  33.932   5.950
    9AU       S 3310  28.262  33.396   7.467
    9AU     LIG 3311  28.458  33.716   7.633
    9AU     LIG 3312  28.889  33.718   7.704
    9AU     LIG 3313  29.291  33.758   7.755
    9AU       S 3314  28.453  33.116   7.396
    9AU     LIG 3315  28.795  33.386   7.324
    9AU     LIG 3316  29.252  33.407   7.381
    9AU     LIG 3317  29.671  33.555   7.233
    9AU       S 3318  28.352  32.239   7.762
    9AU     LIG 3319  28.779  32.072   7.762
    9AU     LIG 3320  29.240  32.085   7.725
    9AU     LIG 3321  29.675  31.910   7.828
    9AU       S 3322  28.048  33.588   8.109
    9AU     LIG 3323  28.408  33.836   8.138
    9AU     LIG 3324  28.494  34.158   8.435
    9AU     LIG 3325  28.598  34.294   8.849
    9AU       S 3326  28.466  33.159   7.650
    9AU     LIG 3327  28.670  33.350   7.973
    9AU     LIG 3328  29.149  33.330   7.979
    9AU     LIG 3329  29.578  33.314   7.765
    9AU       S 3330  26.496  33.478   8.099
    9AU     LIG 3331  26.283  33.353   8.454
    9AU     LIG 3332  25.914  33.606   8.575
    9AU     LIG 3333  25.498  33.781   8.700
    9AU       S 3334  26.590  33.814   7.375
    9AU     LIG 3335  26.293  34.119   7.318
    9AU     LIG 3336  25.948  34.009   7.037
    9AU     LIG 3337  25.594  33.704   7.023
    9AU       S 3338  26.090  32.963   7.048
    9AU     LIG 3339  25.766  32.773   6.842
    9AU     LIG 3340  25.361  32.897   7.015
    9AU     LIG 3341  25.215  33.317   7.153
    9AU       S 3342  26.484  33.661   6.901
    9AU     LIG 3343  26.411  34.078   6.810
    9AU     LIG 3344  26.034  34.294   6.592
    9AU     LIG 3345  25.756  34.493   6.260
    9AU       S 3346  26.065  32.614   7.672
    9AU     LIG 3347  25.787  32.618   7.328
    9AU     LIG 3348  25.494  32.386   7.065
    9AU     LIG 3349  25.050  32.484   7.047
    9AU       S 3350  26.182  33.127   7.988
    9AU     LIG 3351  25.897  33.027   8.295
    9AU     LIG 3352  25.471  33.243   8.304
    9AU     LIG 3353  25.242  33.589   8.038
    9AU       S 3354  28.037  32.102   7.638
    9AU     LIG 3355  28.187  31.706   7.472
    9AU     LIG 3356  28.632  31.605   7.598
    9AU     LIG 3357  28.968  31.634   7.950
    9AU       S 3358  27.942  32.025   8.124
    9AU     LIG 3359  28.309  31.793   7.974
    9AU     LIG 3360  28.541  31.594   8.294
    9AU     LIG 3361  28.373  31.490   8.713
    9AU       S 3362  28.322  32.182   7.583
    9AU     LIG 3363  28.547  32.009   7.273
    9AU     LIG 3364  29.000  31.950   7.267
    9AU     LIG 3365  29.282  32.324   7.172
    9AU       S 3366  28.062  32.124   6.920
    9AU     LIG 3367  27.944  31.718   6.997
    9AU     LIG 3368  28.031  31.295   6.886
    9AU     LIG 3369  28.055  31.050   6.529
    9AU       S 3370  26.436  32.240   6.894
    9AU     LIG 3371  26.173  32.387   6.611
    9AU     LIG 3372  25.941  32.113   6.318
    9AU     LIG 3373  25.568  31.808   6.266
    9AU       S 3374  26.044  32.401   7.705
    9AU     LIG 3375  25.779  32.097   7.732
    9AU     LIG 3376  25.500  32.001   7.412
    9AU     LIG 3377  25.064  32.029   7.298
    9AU       S 3378  26.454  32.172   8.332
    9AU     LIG 3379  26.213  31.935   7.993
    9AU     LIG 3380  25.900  31.582   7.979
    9AU     LIG 3381  25.805  31.334   8.356
    9AU       S 3382  26.106  32.661   7.837
    9AU     LIG 3383  25.667  32.763   7.919
    9AU     LIG 3384  25.498  32.419   8.071
    9AU     LIG 3385  25.277  32.117   7.873
    9AU       S 3386  26.731  33.837   7.840
    9AU     LIG 3387  26.340  34.012   7.869
    9AU     LIG 3388  26.100  34.017   8.262
    9AU     LIG 3389  25.833  34.161   8.600
    9AU       S 3390  27.288  34.002   7.881
    9AU     LIG 3391  27.474  34.008   8.273
    9AU     LIG 3392  27.453  34.341   8.576
    9AU     LIG 3393  27.167  34.721   8.618
    9AU       S 3394  27.431  34.160   7.746
    9AU     LIG 3395  26.994  34.370   7.674
    9AU     LIG 3396  26.920  34.808   7.854
    9AU     LIG 3397  27.214  35.024   8.201
    9AU       S 3398  27.275  33.965   7.023
    9AU     LIG 3399  27.332  34.314   7.258
    9AU     LIG 3400  27.553  34.624   7.084
    9AU     LIG 3401  27.664  34.470   6.690
    9AU       S 3402  27.789  33.548   8.346
    9AU     LIG 3403  27.984  33.944   8.451
    9AU     LIG 3404  28.119  34.112   8.837
    9AU     LIG 3405  28.260  33.867   9.210
    9AU       S 3406  27.585  33.976   7.534
    9AU     LIG 3407  27.762  34.436   7.507
    9AU     LIG 3408  27.405  34.671   7.674
    9AU     LIG 3409  27.281  34.520   8.106
    9AU       S 3410  27.126  31.704   8.085
    9AU     LIG 3411  27.508  31.511   8.203
    9AU     LIG 3412  27.682  31.106   8.262
    9AU     LIG 3413  27.481  30.672   8.292
    9AU       S 3414  27.701  31.995   7.984
    9AU     LIG 3415  27.827  31.622   7.819
    9AU     LIG 3416  28.168  31.314   7.825
    9AU     LIG 3417  28.628  31.233   7.955
    9AU       S 3418  26.941  31.636   7.933
    9AU     LIG 3419  26.952  31.210   7.775
    9AU     LIG 3420  27.228  30.847   7.873
    9AU     LIG 3421  27.017  30.480   8.037
    9AU       S 3422  26.691  32.285   8.472
    9AU     LIG 3423  26.415  32.110   8.814
    9AU     LIG 3424  26.042  31.838   8.667
    9AU     LIG 3425  25.784  31.476   8.851
    9AU       S 3426  27.357  31.696   7.286
    9AU     LIG 3427  27.074  31.340   7.080
    9AU     LIG 3428  27.236  30.953   6.855
    9AU     LIG 3429  27.337  30.530   7.039
    9AU       S 3430  27.275  31.755   7.850
    9AU     LIG 3431  27.394  31.399   7.677
    9AU     LIG 3432  27.674  31.094   7.743
    9AU     LIG 3433  27.840  30.747   7.942
    9AU       S 3434  27.149  33.853   6.752
    9AU     LIG 3435  26.944  34.244   6.688
    9AU     LIG 3436  27.161  34.631   6.743
    9AU     LIG 3437  27.436  35.004   6.714
    9AU       S 3438  27.896  33.682   7.204
    9AU     LIG 3439  27.821  34.120   7.086
    9AU     LIG 3440  28.140  34.257   6.775
    9AU     LIG 3441  28.430  34.051   6.478
    9AU       S 3442  26.946  33.868   7.018
    9AU     LIG 3443  26.823  34.245   7.196
    9AU     LIG 3444  26.996  34.686   7.220
    9AU     LIG 3445  26.983  35.085   6.943
    9AU       S 3446  26.502  33.287   6.623
    9AU     LIG 3447  26.322  33.676   6.431
    9AU     LIG 3448  26.438  34.091   6.301
    9AU     LIG 3449  26.244  34.441   6.088
    9AU       S 3450  26.484  32.031   7.128
    9AU     LIG 3451  26.013  32.014   7.025
    9AU     LIG 3452  25.858  31.729   6.684
    9AU     LIG 3453  25.909  31.346   6.381
    9AU       S 3454  27.368  31.714   7.138
    9AU     LIG 3455  27.532  31.421   6.838
    9AU     LIG 3456  27.541  31.092   6.482
    9AU     LIG 3457  27.384  30.643   6.398
    9AU       S 3458  27.625  31.807   7.402
    9AU     LIG 3459  27.776  31.382   7.336
    9AU     LIG 3460  27.667  31.001   7.110
    9AU     LIG 3461  27.723  30.712   6.770
    9AU       S 3462  27.841  32.258   6.684
    9AU     LIG 3463  27.685  31.884   6.570
    9AU     LIG 3464  27.834  31.503   6.431
    9AU     LIG 3465  27.900  31.213   6.069
   10AU     AUC 3466  16.748  29.241   7.528
   10AU     AUC 3467  17.009  29.250   7.366
   10AU     AUC 3468  16.987  29.248   7.702
   10AU     AUC 3469  16.482  29.226   7.367
   10AU     AUC 3470  16.493  29.276   7.692
   10AU     AUC 3471  16.580  29.496   7.489
   10AU     AUC 3472  16.920  29.515   7.502
   10AU     AUC 3473  16.584  28.977   7.549
   10AU     AUC 3474  16.918  28.974   7.550
   10AU     AUC 3475  16.744  29.095   7.804
   10AU     AUC 3476  16.745  29.438   7.771
   10AU     AUC 3477  16.757  29.055   7.278
   10AU     AUC 3478  16.760  29.367   7.255
   10AU     AUC 3479  17.326  29.261   7.214
   10AU     AUC 3480  17.310  29.242   7.556
   10AU     AUC 3481  17.264  29.237   7.911
   10AU     AUC 3482  16.184  29.177   7.222
   10AU     AUC 3483  16.175  29.258   7.547
   10AU     AUC 3484  16.195  29.319   7.867
   10AU     AUC 3485  16.408  29.792   7.424
   10AU     AUC 3486  16.767  29.791   7.418
   10AU     AUC 3487  17.104  29.792   7.462
   10AU     AUC 3488  16.402  28.687   7.569
   10AU     AUC 3489  16.753  28.677   7.551
   10AU     AUC 3490  17.104  28.685   7.566
   10AU     AUC 3491  16.718  28.939   8.107
   10AU     AUC 3492  16.725  29.291   8.092
   10AU     AUC 3493  16.765  29.650   8.049
   10AU     AUC 3494  16.802  28.867   7.000
   10AU     AUC 3495  16.745  29.192   6.952
   10AU     AUC 3496  16.721  29.507   6.941
   10AU     AUC 3497  16.983  29.065   8.020
   10AU     AUC 3498  17.020  29.426   7.995
   10AU     AUC 3499  17.068  29.085   7.073
   10AU     AUC 3500  17.024  29.393   7.080
   10AU     AUC 3501  16.450  29.149   8.002
   10AU     AUC 3502  16.476  29.505   7.951
   10AU     AUC 3503  16.482  29.003   7.104
   10AU     AUC 3504  16.433  29.312   7.058
   10AU     AUC 3505  17.236  29.527   7.351
   10AU     AUC 3506  17.178  29.520   7.699
   10AU     AUC 3507  16.279  29.494   7.346
   10AU     AUC 3508  16.314  29.585   7.673
   10AU     AUC 3509  17.225  28.975   7.403
   10AU     AUC 3510  17.170  28.941   7.747
   10AU     AUC 3511  16.295  28.916   7.400
   10AU     AUC 3512  16.312  29.000   7.730
   10AU     AUC 3513  16.617  29.744   7.744
   10AU     AUC 3514  16.939  29.720   7.772
   10AU     AUC 3515  16.567  28.812   7.836
   10AU     AUC 3516  16.881  28.770   7.827
   10AU     AUC 3517  16.552  29.648   7.176
   10AU     AUC 3518  16.913  29.687   7.195
   10AU     AUC 3519  16.611  28.759   7.274
   10AU     AUC 3520  16.982  28.811   7.277
   10AU    AUSL 3521  17.230  29.176   8.310
   10AU    AUSL 3522  17.005  28.788   8.230
   10AU     AUL 3523  17.308  28.821   8.416
   10AU    AUSL 3524  16.820  29.110   8.435
   10AU    AUSL 3525  16.570  29.497   8.414
   10AU     AUL 3526  16.807  29.418   8.700
   10AU    AUSL 3527  16.918  29.467   8.190
   10AU    AUSL 3528  17.359  29.534   8.123
   10AU     AUL 3529  17.203  29.490   8.456
   10AU    AUSL 3530  17.198  29.282   6.865
   10AU    AUSL 3531  17.032  29.661   6.969
   10AU     AUL 3532  17.250  29.601   6.684
   10AU    AUSL 3533  17.027  28.982   6.619
   10AU    AUSL 3534  17.509  29.043   7.007
   10AU     AUL 3535  17.400  29.151   6.641
   10AU    AUSL 3536  16.822  29.395   6.700
   10AU    AUSL 3537  16.653  28.998   6.812
   10AU     AUL 3538  16.758  29.044   6.488
   10AU    AUSL 3539  16.192  29.438   8.200
   10AU    AUSL 3540  16.513  29.761   8.088
   10AU     AUL 3541  16.334  29.737   8.409
   10AU    AUSL 3542  16.494  29.141   8.180
   10AU    AUSL 3543  16.086  29.012   8.134
   10AU     AUL 3544  16.012  29.227   8.287
   10AU    AUSL 3545  16.225  28.982   6.810
   10AU    AUSL 3546  16.468  28.666   6.990
   10AU     AUL 3547  16.510  28.686   6.663
   10AU    AUSL 3548  16.404  29.337   6.659
   10AU    AUSL 3549  16.105  29.344   7.015
   10AU     AUL 3550  15.992  29.176   6.758
   10AU    AUSL 3551  17.499  29.741   7.504
   10AU    AUSL 3552  17.437  29.531   7.105
   10AU     AUL 3553  17.760  29.739   7.171
   10AU    AUSL 3554  17.692  29.360   7.405
   10AU    AUSL 3555  17.651  29.056   7.780
   10AU     AUL 3556  17.946  29.142   7.607
   10AU    AUSL 3557  17.408  29.390   7.732
   10AU    AUSL 3558  17.214  29.784   7.802
   10AU     AUL 3559  17.589  29.578   7.887
   10AU    AUSL 3560  16.153  29.853   7.463
   10AU    AUSL 3561  16.186  29.641   7.834
   10AU     AUL 3562  15.865  29.863   7.652
   10AU    AUSL 3563  15.992  29.453   7.403
   10AU    AUSL 3564  16.123  29.767   7.057
   10AU     AUL 3565  15.870  29.675   7.200
   10AU    AUSL 3566  15.833  29.431   7.817
   10AU    AUSL 3567  15.834  29.068   7.378
   10AU     AUL 3568  15.644  29.400   7.511
   10AU    AUSL 3569  17.439  28.705   7.631
   10AU    AUSL 3570  17.268  28.979   7.943
   10AU     AUL 3571  17.573  28.891   8.026
   10AU    AUSL 3572  17.405  29.062   7.409
   10AU    AUSL 3573  17.413  28.659   7.207
   10AU     AUL 3574  17.670  28.888   7.298
   10AU    AUSL 3575  16.015  28.712   7.586
   10AU    AUSL 3576  16.185  28.910   7.216
   10AU     AUL 3577  15.826  28.797   7.246
   10AU    AUSL 3578  16.080  29.111   7.727
   10AU    AUSL 3579  16.313  28.750   7.885
   10AU     AUL 3580  15.992  28.762   7.936
   10AU    AUSL 3581  16.789  30.030   7.907
   10AU    AUSL 3582  16.343  30.040   7.798
   10AU     AUL 3583  16.538  30.102   8.163
   10AU    AUSL 3584  16.632  29.932   7.523
   10AU    AUSL 3585  16.874  30.050   7.182
   10AU     AUL 3586  16.607  30.284   7.458
   10AU    AUSL 3587  17.049  30.083   7.564
   10AU    AUSL 3588  17.051  29.859   8.186
   10AU     AUL 3589  17.154  30.116   7.914
   10AU    AUSL 3590  16.710  28.598   7.989
   10AU    AUSL 3591  17.134  28.574   7.885
   10AU     AUL 3592  16.888  28.496   8.260
   10AU    AUSL 3593  16.426  28.385   7.722
   10AU    AUSL 3594  16.469  28.749   8.296
   10AU     AUL 3595  16.399  28.445   8.073
   10AU    AUSL 3596  16.860  28.326   7.691
   10AU    AUSL 3597  16.639  28.531   7.382
   10AU     AUL 3598  16.541  28.173   7.497
   10AU    AUSL 3599  16.717  29.876   6.799
   10AU    AUSL 3600  17.269  29.921   7.206
   10AU     AUL 3601  17.037  29.998   6.863
   10AU    AUSL 3602  16.460  29.992   7.144
   10AU    AUSL 3603  16.493  29.574   6.982
   10AU     AUL 3604  16.395  29.848   6.779
   10AU    AUSL 3605  16.857  28.502   7.006
   10AU    AUSL 3606  16.233  28.485   7.306
   10AU     AUL 3607  16.526  28.334   7.063
   10AU    AUSL 3608  17.063  28.544   7.395
   10AU    AUSL 3609  17.088  28.856   7.011
   10AU     AUL 3610  17.179  28.505   6.993
   10AU       S 3611  17.333  28.369   8.274
   10AU     LIG 3612  17.568  28.013   8.449
   10AU     LIG 3613  17.587  27.582   8.684
   10AU     LIG 3614  17.869  27.246   8.926
   10AU       S 3615  17.177  29.111   8.752
   10AU     LIG 3616  17.600  29.169   8.685
   10AU     LIG 3617  17.802  29.200   9.105
   10AU     LIG 3618  17.759  29.014   9.553
   10AU       S 3619  16.835  28.943   8.646
   10AU     LIG 3620  16.864  28.929   9.100
   10AU     LIG 3621  17.272  28.840   9.358
   10AU     LIG 3622  17.541  28.525   9.614
   10AU       S 3623  16.369  29.295   8.631
   10AU     LIG 3624  16.445  29.275   9.084
   10AU     LIG 3625  16.099  29.109   9.367
   10AU     LIG 3626  15.835  29.159   9.766
   10AU       S 3627  16.790  29.878   8.556
   10AU     LIG 3628  17.035  30.196   8.712
   10AU     LIG 3629  17.380  30.004   8.881
   10AU     LIG 3630  17.621  29.664   8.779
   10AU       S 3631  17.519  29.809   8.293
   10AU     LIG 3632  17.854  29.575   8.336
   10AU     LIG 3633  18.094  29.845   8.623
   10AU     LIG 3634  18.307  30.195   8.869
   10AU       S 3635  17.095  29.386   6.316
   10AU     LIG 3636  17.504  29.482   6.173
   10AU     LIG 3637  17.565  29.026   6.091
   10AU     LIG 3638  17.542  28.615   5.895
   10AU       S 3639  17.485  30.004   6.796
   10AU     LIG 3640  17.353  29.960   6.350
   10AU     LIG 3641  17.652  30.073   6.023
   10AU     LIG 3642  17.958  30.427   5.995
   10AU       S 3643  17.698  28.832   6.823
   10AU     LIG 3644  17.829  28.707   6.397
   10AU     LIG 3645  17.805  28.307   6.218
   10AU     LIG 3646  17.877  27.868   6.129
   10AU       S 3647  17.116  29.205   6.264
   10AU     LIG 3648  17.094  28.797   6.138
   10AU     LIG 3649  17.009  28.612   5.734
   10AU     LIG 3650  17.025  28.742   5.289
   10AU       S 3651  16.333  28.995   6.335
   10AU     LIG 3652  16.570  28.826   6.011
   10AU     LIG 3653  16.551  28.820   5.546
   10AU     LIG 3654  16.238  28.947   5.221
   10AU       S 3655  16.848  29.506   6.439
   10AU     LIG 3656  16.649  29.335   6.057
   10AU     LIG 3657  16.909  29.130   5.755
   10AU     LIG 3658  17.333  29.013   5.629
   10AU       S 3659  16.164  29.399   8.687
   10AU     LIG 3660  15.849  29.138   8.749
   10AU     LIG 3661  15.795  28.805   9.002
   10AU     LIG 3662  15.663  28.786   9.441
   10AU       S 3663  16.060  30.017   8.153
   10AU     LIG 3664  16.015  30.147   8.540
   10AU     LIG 3665  15.750  30.080   8.886
   10AU     LIG 3666  15.390  30.202   9.144
   10AU       S 3667  16.008  28.779   8.436
   10AU     LIG 3668  15.623  28.857   8.282
   10AU     LIG 3669  15.447  28.484   8.099
   10AU     LIG 3670  15.379  28.102   8.362
   10AU       S 3671  16.359  29.113   8.586
   10AU     LIG 3672  16.311  28.819   8.933
   10AU     LIG 3673  16.153  28.602   9.319
   10AU     LIG 3674  16.043  28.679   9.781
   10AU       S 3675  16.180  28.920   6.431
   10AU     LIG 3676  15.934  28.830   6.085
   10AU     LIG 3677  16.095  29.032   5.723
   10AU     LIG 3678  15.934  29.331   5.407
   10AU       S 3679  16.129  28.471   6.834
   10AU     LIG 3680  16.074  28.424   6.399
   10AU     LIG 3681  15.728  28.334   6.121
   10AU     LIG 3682  15.300  28.171   6.015
   10AU       S 3683  15.814  29.594   6.716
   10AU     LIG 3684  15.504  29.861   6.858
   10AU     LIG 3685  15.543  30.262   6.651
   10AU     LIG 3686  15.483  30.448   6.212
   10AU       S 3687  16.346  29.288   6.449
   10AU     LIG 3688  16.034  29.374   6.181
   10AU     LIG 3689  16.185  29.541   5.799
   10AU     LIG 3690  16.467  29.342   5.491
   10AU       S 3691  17.585  29.889   6.791
   10AU     LIG 3692  17.838  29.779   6.445
   10AU     LIG 3693  18.153  29.973   6.155
   10AU     LIG 3694  18.457  30.274   5.947
   10AU       S 3695  17.661  29.933   7.589
   10AU     LIG 3696  17.977  30.224   7.609
   10AU     LIG 3697  18.386  30.084   7.709
   10AU     LIG 3698  18.750  30.059   7.442
   10AU       S 3699  17.954  29.600   7.559
   10AU     LIG 3700  18.299  29.737   7.308
   10AU     LIG 3701  18.721  29.590   7.174
   10AU     LIG 3702  19.055  29.888   7.049
   10AU       S 3703  17.906  28.685   7.784
   10AU     LIG 3704  18.171  28.426   8.022
   10AU     LIG 3705  18.604  28.429   7.931
   10AU     LIG 3706  18.805  28.305   7.566
   10AU       S 3707  17.552  29.990   8.092
   10AU     LIG 3708  17.978  30.015   8.102
   10AU     LIG 3709  18.129  30.316   8.393
   10AU     LIG 3710  18.085  30.674   8.688
   10AU       S 3711  17.942  29.738   7.668
   10AU     LIG 3712  18.238  29.557   7.947
   10AU     LIG 3713  18.636  29.639   7.800
   10AU     LIG 3714  18.872  29.970   7.949
   10AU       S 3715  15.980  29.835   8.096
   10AU     LIG 3716  15.784  29.691   8.470
   10AU     LIG 3717  15.357  29.848   8.659
   10AU     LIG 3718  14.973  30.076   8.850
   10AU       S 3719  16.089  30.183   7.367
   10AU     LIG 3720  15.829  30.484   7.216
   10AU     LIG 3721  15.484  30.275   7.170
   10AU     LIG 3722  15.423  29.866   7.374
   10AU       S 3723  15.611  29.304   7.048
   10AU     LIG 3724  15.207  29.427   7.196
   10AU     LIG 3725  15.009  29.818   7.053
   10AU     LIG 3726  15.060  30.254   6.883
   10AU       S 3727  15.977  30.018   6.892
   10AU     LIG 3728  16.056  30.397   6.751
   10AU     LIG 3729  15.776  30.717   6.738
   10AU     LIG 3730  15.330  30.724   6.608
   10AU       S 3731  15.592  28.948   7.637
   10AU     LIG 3732  15.305  28.897   7.298
   10AU     LIG 3733  14.869  28.981   7.120
   10AU     LIG 3734  14.435  28.847   6.976
   10AU       S 3735  15.699  29.446   7.995
   10AU     LIG 3736  15.357  29.597   8.206
   10AU     LIG 3737  15.064  29.926   8.109
   10AU     LIG 3738  14.992  29.959   7.645
   10AU       S 3739  17.606  28.557   7.649
   10AU     LIG 3740  17.704  28.229   7.415
   10AU     LIG 3741  18.132  28.153   7.574
   10AU     LIG 3742  18.449  27.945   7.872
   10AU       S 3743  17.521  28.451   8.121
   10AU     LIG 3744  17.799  28.084   7.968
   10AU     LIG 3745  18.076  27.892   8.246
   10AU     LIG 3746  18.076  28.191   8.583
   10AU       S 3747  17.899  28.651   7.604
   10AU     LIG 3748  18.068  28.555   7.230
   10AU     LIG 3749  18.461  28.335   7.173
   10AU     LIG 3750  18.881  28.534   7.108
   10AU       S 3751  17.643  28.572   6.939
   10AU     LIG 3752  17.683  28.206   6.765
   10AU     LIG 3753  17.668  27.783   6.883
   10AU     LIG 3754  17.663  27.546   6.539
   10AU       S 3755  16.005  28.582   6.886
   10AU     LIG 3756  15.727  28.751   6.605
   10AU     LIG 3757  15.365  28.601   6.369
   10AU     LIG 3758  15.074  28.256   6.472
   10AU       S 3759  15.621  28.709   7.668
   10AU     LIG 3760  15.318  28.453   7.595
   10AU     LIG 3761  15.077  28.272   7.271
   10AU     LIG 3762  14.726  28.457   7.105
   10AU       S 3763  16.025  28.541   8.332
   10AU     LIG 3764  15.937  28.288   7.938
   10AU     LIG 3765  15.670  27.966   7.943
   10AU     LIG 3766  15.617  27.654   8.272
   10AU       S 3767  15.628  28.998   7.800
   10AU     LIG 3768  15.265  29.084   8.003
   10AU     LIG 3769  15.000  28.741   7.946
   10AU     LIG 3770  14.861  28.672   7.541
   10AU       S 3771  16.196  30.207   7.844
   10AU     LIG 3772  15.738  30.289   7.877
   10AU     LIG 3773  15.524  30.152   8.265
   10AU     LIG 3774  15.348  30.375   8.646
   10AU       S 3775  16.780  30.378   7.871
   10AU     LIG 3776  16.942  30.441   8.258
   10AU     LIG 3777  16.868  30.892   8.360
   10AU     LIG 3778  16.719  31.317   8.505
   10AU       S 3779  16.932  30.541   7.745
   10AU     LIG 3780  16.569  30.802   7.750
   10AU     LIG 3781  16.510  31.148   8.020
   10AU     LIG 3782  16.751  31.506   8.019
   10AU       S 3783  16.780  30.355   7.027
   10AU     LIG 3784  16.753  30.742   7.248
   10AU     LIG 3785  16.921  31.131   7.072
   10AU     LIG 3786  17.258  31.222   6.743
   10AU       S 3787  17.276  29.964   8.345
   10AU     LIG 3788  17.530  30.302   8.480
   10AU     LIG 3789  17.808  30.260   8.809
   10AU     LIG 3790  17.901  29.943   9.117
   10AU       S 3791  17.072  30.375   7.520
   10AU     LIG 3792  17.174  30.871   7.494
   10AU     LIG 3793  17.010  31.067   7.878
   10AU     LIG 3794  17.167  31.310   8.240
   10AU       S 3795  16.738  28.097   8.086
   10AU     LIG 3796  17.120  27.812   8.153
   10AU     LIG 3797  17.181  27.397   8.365
   10AU     LIG 3798  16.908  27.092   8.624
   10AU       S 3799  17.275  28.430   7.993
   10AU     LIG 3800  17.348  28.088   7.779
   10AU     LIG 3801  17.492  27.684   7.791
   10AU     LIG 3802  17.650  27.604   8.177
   10AU       S 3803  16.546  28.020   7.935
   10AU     LIG 3804  16.617  27.592   8.037
   10AU     LIG 3805  16.403  27.268   8.286
   10AU     LIG 3806  16.251  26.837   8.304
   10AU       S 3807  16.265  28.656   8.474
   10AU     LIG 3808  16.020  28.375   8.796
   10AU     LIG 3809  15.732  27.969   8.721
   10AU     LIG 3810  15.486  27.536   8.750
   10AU       S 3811  16.938  28.104   7.279
   10AU     LIG 3812  16.645  27.760   7.221
   10AU     LIG 3813  16.662  27.448   6.901
   10AU     LIG 3814  16.415  27.090   6.839
   10AU       S 3815  16.866  28.148   7.853
   10AU     LIG 3816  16.963  27.761   7.651
   10AU     LIG 3817  17.025  27.360   7.852
   10AU     LIG 3818  16.838  27.095   8.122
   10AU       S 3819  16.644  30.255   6.753
   10AU     LIG 3820  16.591  30.723   6.706
   10AU     LIG 3821  16.730  31.159   6.565
   10AU     LIG 3822  16.652  31.536   6.273
   10AU       S 3823  17.431  30.084   7.122
   10AU     LIG 3824  17.873  30.213   7.060
   10AU     LIG 3825  18.043  30.235   6.620
   10AU     LIG 3826  18.341  30.510   6.385
   10AU       S 3827  16.452  30.265   7.010
   10AU     LIG 3828  16.279  30.686   7.106
   10AU     LIG 3829  16.407  31.131   6.978
   10AU     LIG 3830  16.377  31.526   6.700
   10AU       S 3831  16.024  29.647   6.620
   10AU     LIG 3832  15.939  30.032   6.386
   10AU     LIG 3833  15.984  30.490   6.258
   10AU     LIG 3834  15.785  30.914   6.269
   10AU       S 3835  16.053  28.399   7.134
   10AU     LIG 3836  15.564  28.435   7.032
   10AU     LIG 3837  15.561  28.217   6.638
   10AU     LIG 3838  15.594  27.870   6.341
   10AU       S 3839  16.950  28.128   7.117
   10AU     LIG 3840  17.200  28.003   6.794
   10AU     LIG 3841  17.106  27.630   6.508
   10AU     LIG 3842  16.872  27.208   6.481
   10AU       S 3843  17.181  28.232   7.363
   10AU     LIG 3844  17.364  27.845   7.310
   10AU     LIG 3845  17.124  27.596   7.087
   10AU     LIG 3846  17.231  27.292   6.840
   10AU       S 3847  17.446  28.694   6.687
   10AU     LIG 3848  17.307  28.399   6.444
   10AU     LIG 3849  17.427  27.976   6.331
   10AU     LIG 3850  17.437  27.571   6.081
   11POPC   NC3 3851   2.387   6.347   9.807
   11POPC   PO4 3852   3.022   6.681   9.628
   11POPC   GL1 3853   2.876   6.594   9.174
   11POPC   GL2 3854   3.021   6.890   9.110
   11POPC   C1A 3855   2.661   6.460   8.739
   11POPC   D2A 3856   2.648   6.652   8.334
   11POPC   C3A 3857   3.021   6.572   8.106
   11POPC   C4A 3858   2.841   6.400   7.735
   11POPC   C1B 3859   2.984   6.860   8.696
   11POPC   C2B 3860   3.131   7.079   8.356
   11POPC   C3B 3861   2.921   7.070   8.002
   11POPC   C4B 3862   2.557   6.846   7.836
   12POPC   NC3 3863   4.568  18.761   9.506
   12POPC   PO4 3864   4.128  19.287   9.695
   12POPC   GL1 3865   4.283  19.203   9.273
   12POPC   GL2 3866   3.958  19.240   9.151
   12POPC   C1A 3867   4.232  18.878   8.899
   12POPC   D2A 3868   4.317  18.691   8.477
   12POPC   C3A 3869   4.310  18.850   8.040
   12POPC   C4A 3870   3.944  18.876   7.786
   12POPC   C1B 3871   4.200  19.362   8.773
   12POPC   C2B 3872   4.378  19.262   8.351
   12POPC   C3B 3873   4.304  19.375   7.903
   12POPC   C4B 3874   3.972  19.365   7.575
   13POPC   NC3 3875   5.712  18.354   9.503
   13POPC   PO4 3876   6.422  18.505   9.689
   13POPC   GL1 3877   6.240  18.405   9.222
   13POPC   GL2 3878   6.062  18.089   9.142
   13POPC   C1A 3879   6.093  18.452   8.738
   13POPC   D2A 3880   6.233  18.509   8.275
   13POPC   C3A 3881   6.039  18.515   7.839
   13POPC   C4A 3882   6.154  18.510   7.350
   13POPC   C1B 3883   5.878  17.974   8.712
   13POPC   C2B 3884   5.742  18.173   8.319
   13POPC   C3B 3885   5.691  18.114   7.882
   13POPC   C4B 3886   5.744  18.239   7.486
   14POPC   NC3 3887   4.613  11.649   9.463
   14POPC   PO4 3888   4.416  10.995   9.579
   14POPC   GL1 3889   4.414  11.227   9.231
   14POPC   GL2 3890   4.584  10.948   9.074
   14POPC   C1A 3891   4.200  11.469   8.887
   14POPC   D2A 3892   3.911  11.376   8.543
   14POPC   C3A 3893   4.105  11.351   8.128
   14POPC   C4A 3894   4.233  11.515   7.718
   14POPC   C1B 3895   4.708  11.321   8.826
   14POPC   C2B 3896   4.580  11.529   8.456
   14POPC   C3B 3897   4.619  11.397   8.053
   14POPC   C4B 3898   4.515  11.087   7.791
   15POPC   NC3 3899  39.518   2.673   9.346
   15POPC   PO4 3900  38.887   2.691   9.692
   15POPC   GL1 3901  39.001   2.631   9.250
   15POPC   GL2 3902  39.114   2.970   9.183
   15POPC   C1A 3903  39.189   2.624   8.793
   15POPC   D2A 3904  39.233   2.344   8.451
   15POPC   C3A 3905  39.280   2.592   8.078
   15POPC   C4A 3906  39.467   2.569   7.690
   15POPC   C1B 3907  39.126   3.142   8.761
   15POPC   C2B 3908  39.257   3.003   8.382
   15POPC   C3B 3909  39.091   3.089   7.979
   15POPC   C4B 3910  38.950   2.953   7.574
   16POPC   NC3 3911  29.984   9.520   9.542
   16POPC   PO4 3912  29.786  10.207   9.486
   16POPC   GL1 3913  29.901   9.894   9.174
   16POPC   GL2 3914  29.729   9.547   9.118
   16POPC   C1A 3915  29.800   9.902   8.755
   16POPC   D2A 3916  29.885  10.098   8.403
   16POPC   C3A 3917  30.154   9.848   8.225
   16POPC   C4A 3918  30.085   9.751   7.809
   16POPC   C1B 3919  30.094   9.469   8.892
   16POPC   C2B 3920  30.220   9.423   8.503
   16POPC   C3B 3921  30.046   9.352   8.121
   16POPC   C4B 3922  30.196   9.258   7.782
   17POPC   NC3 3923  13.228  14.519   9.285
   17POPC   PO4 3924  12.735  14.556   9.761
   17POPC   GL1 3925  12.678  14.454   9.272
   17POPC   GL2 3926  12.765  14.099   9.193
   17POPC   C1A 3927  12.819  14.528   8.799
   17POPC   D2A 3928  12.833  14.636   8.355
   17POPC   C3A 3929  13.058  14.403   8.027
   17POPC   C4A 3930  13.132  14.257   7.620
   17POPC   C1B 3931  12.841  14.026   8.728
   17POPC   C2B 3932  12.637  14.144   8.313
   17POPC   C3B 3933  12.637  14.127   7.836
   17POPC   C4B 3934  12.656  14.136   7.349
   18POPC   NC3 3935   2.865  40.268   9.422
   18POPC   PO4 3936   2.861  39.597   9.371
   18POPC   GL1 3937   2.924  39.925   9.051
   18POPC   GL2 3938   2.569  40.093   9.038
   18POPC   C1A 3939   2.892  40.107   8.627
   18POPC   D2A 3940   2.493  40.056   8.391
   18POPC   C3A 3941   2.606  39.810   8.040
   18POPC   C4A 3942   3.031  39.844   7.850
   18POPC   C1B 3943   2.552  40.462   8.768
   18POPC   C2B 3944   2.711  40.559   8.384
   18POPC   C3B 3945   2.850  40.287   8.056
   18POPC   C4B 3946   2.639  40.130   7.657
   19POPC   NC3 3947  40.130   2.317   9.498
   19POPC   PO4 3948  40.279   2.937   9.455
   19POPC   GL1 3949  40.031   2.762   9.179
   19POPC   GL2 3950  40.322   2.560   9.089
   19POPC   C1A 3951  39.965   2.664   8.748
   19POPC   D2A 3952  39.648   2.629   8.468
   19POPC   C3A 3953  39.807   2.622   8.076
   19POPC   C4A 3954  39.744   2.971   7.828
   19POPC   C1B 3955  40.428   2.303   8.748
   19POPC   C2B 3956  40.601   2.457   8.362
   19POPC   C3B 3957  40.316   2.722   8.134
   19POPC   C4B 3958  40.172   2.694   7.723
   20POPC   NC3 3959  23.788  23.167   9.630
   20POPC   PO4 3960  23.442  22.729   9.466
   20POPC   GL1 3961  23.608  23.071   9.135
   20POPC   GL2 3962  23.958  23.182   9.144
   20POPC   C1A 3963  23.599  23.210   8.656
   20POPC   D2A 3964  23.362  23.242   8.247
   20POPC   C3A 3965  23.566  23.015   7.935
   20POPC   C4A 3966  23.946  23.155   7.817
   20POPC   C1B 3967  24.035  22.962   8.744
   20POPC   C2B 3968  23.939  22.913   8.271
   20POPC   C3B 3969  23.951  22.646   7.848
   20POPC   C4B 3970  23.995  22.442   7.406
   21POPC   NC3 3971  26.834  39.212   9.615
   21POPC   PO4 3972  27.187  38.828   9.163
   21POPC   GL1 3973  26.765  39.075   9.131
   21POPC   GL2 3974  26.612  39.442   9.231
   21POPC   C1A 3975  26.537  39.032   8.761
   21POPC   D2A 3976  26.713  39.216   8.397
   21POPC   C3A 3977  26.655  39.148   7.981
   21POPC   C4A 3978  27.034  39.356   7.832
   21POPC   C1B 3979  26.642  39.540   8.819
   21POPC   C2B 3980  26.427  39.661   8.459
   21POPC   C3B 3981  26.340  39.562   8.033
   21POPC   C4B 3982  26.594  39.556   7.665
   22POPC   NC3 3983   1.589   2.957   9.390
   22POPC   PO4 3984   1.000   2.639   9.482
   22POPC   GL1 3985   1.218   2.705   9.122
   22POPC   GL2 3986   1.515   2.528   9.089
   22POPC   C1A 3987   1.075   2.888   8.748
   22POPC   D2A 3988   1.258   3.012   8.368
   22POPC   C3A 3989   1.118   2.802   8.028
   22POPC   C4A 3990   1.084   3.037   7.669
   22POPC   C1B 3991   1.501   2.594   8.654
   22POPC   C2B 3992   1.749   2.859   8.403
   22POPC   C3B 3993   1.627   2.965   7.994
   22POPC   C4B 3994   1.472   2.699   7.651
   23POPC   NC3 3995   7.675  16.900   9.873
   23POPC   PO4 3996   7.362  16.543   9.476
   23POPC   GL1 3997   7.293  16.713   9.131
   23POPC   GL2 3998   7.599  16.893   9.146
   23POPC   C1A 3999   7.095  16.593   8.772
   23POPC   D2A 4000   7.214  16.416   8.413
   23POPC   C3A 4001   7.154  16.678   8.097
   23POPC   C4A 4002   7.368  16.877   7.777
   23POPC   C1B 4003   7.649  16.723   8.757
   23POPC   C2B 4004   7.554  16.835   8.361
   23POPC   C3B 4005   7.664  16.580   8.030
   23POPC   C4B 4006   7.882  16.542   7.670
   24POPC   NC3 4007  31.948   4.464   9.568
   24POPC   PO4 4008  32.535   4.107   9.727
   24POPC   GL1 4009  32.431   4.258   9.296
   24POPC   GL2 4010  32.366   4.618   9.278
   24POPC   C1A 4011  32.122   4.288   8.931
   24POPC   D2A 4012  32.183   4.376   8.486
   24POPC   C3A 4013  32.037   4.317   8.079
   24POPC   C4A 4014  32.242   4.196   7.722
   24POPC   C1B 4015  32.252   4.813   8.880
   24POPC   C2B 4016  32.418   4.827   8.460
   24POPC   C3B 4017  32.123   4.829   8.112
   24POPC   C4B 4018  32.176   4.718   7.691
   25POPC   NC3 4019   4.800   9.843   9.754
   25POPC   PO4 4020   5.378   9.671   9.574
   25POPC   GL1 4021   5.179   9.615   9.184
   25POPC   GL2 4022   5.445   9.358   9.116
   25POPC   C1A 4023   4.945   9.778   8.795
   25POPC   D2A 4024   4.768   9.924   8.379
   25POPC   C3A 4025   5.043   9.799   8.060
   25POPC   C4A 4026   5.024   9.605   7.667
   25POPC   C1B 4027   5.289   9.337   8.708
   25POPC   C2B 4028   5.293   9.516   8.368
   25POPC   C3B 4029   5.452   9.480   7.949
   25POPC   C4B 4030   5.734   9.502   7.594
   26POPC   NC3 4031  26.963  17.436   9.415
   26POPC   PO4 4032  26.606  17.987   9.643
   26POPC   GL1 4033  26.632  17.764   9.209
   26POPC   GL2 4034  26.527  17.418   9.094
   26POPC   C1A 4035  26.845  17.702   8.800
   26POPC   D2A 4036  26.720  17.754   8.409
   26POPC   C3A 4037  26.618  17.473   8.086
   26POPC   C4A 4038  26.731  17.689   7.715
   26POPC   C1B 4039  26.824  17.198   8.779
   26POPC   C2B 4040  27.034  17.343   8.407
   26POPC   C3B 4041  27.144  17.505   7.979
   26POPC   C4B 4042  27.076  17.353   7.546
   27POPC   NC3 4043  11.331  35.496   9.443
   27POPC   PO4 4044  11.460  34.775   9.561
   27POPC   GL1 4045  11.360  35.016   9.240
   27POPC   GL2 4046  11.692  35.187   9.270
   27POPC   C1A 4047  11.267  35.225   8.831
   27POPC   D2A 4048  11.285  35.522   8.496
   27POPC   C3A 4049  11.267  35.283   8.110
   27POPC   C4A 4050  11.196  35.469   7.728
   27POPC   C1B 4051  11.723  34.975   8.896
   27POPC   C2B 4052  11.544  34.829   8.516
   27POPC   C3B 4053  11.472  34.799   8.077
   27POPC   C4B 4054  11.615  35.076   7.758
   28POPC   NC3 4055  34.693  24.721   9.564
   28POPC   PO4 4056  34.361  24.146   9.486
   28POPC   GL1 4057  34.664  24.336   9.173
   28POPC   GL2 4058  34.886  24.674   9.119
   28POPC   C1A 4059  34.570  24.488   8.785
   28POPC   D2A 4060  34.496  24.567   8.390
   28POPC   C3A 4061  34.254  24.363   8.131
   28POPC   C4A 4062  34.245  24.500   7.759
   28POPC   C1B 4063  34.823  24.930   8.755
   28POPC   C2B 4064  34.936  24.888   8.332
   28POPC   C3B 4065  34.800  24.668   7.968
   28POPC   C4B 4066  34.823  24.599   7.531
   29POPC   NC3 4067  32.679  19.094   9.714
   29POPC   PO4 4068  33.243  19.155   9.446
   29POPC   GL1 4069  32.909  18.863   9.287
   29POPC   GL2 4070  32.544  18.918   9.258
   29POPC   C1A 4071  32.974  18.695   8.882
   29POPC   D2A 4072  33.345  18.794   8.609
   29POPC   C3A 4073  33.262  18.867   8.175
   29POPC   C4A 4074  33.090  18.715   7.789
   29POPC   C1B 4075  32.630  19.079   8.862
   29POPC   C2B 4076  32.894  19.064   8.487
   29POPC   C3B 4077  32.830  19.139   8.034
   29POPC   C4B 4078  32.881  19.123   7.569
   30POPC   NC3 4079  39.433   9.682   9.498
   30POPC   PO4 4080  38.835   9.807   9.620
   30POPC   GL1 4081  39.044   9.792   9.212
   30POPC   GL2 4082  39.241  10.124   9.226
   30POPC   C1A 4083  39.076   9.508   8.818
   30POPC   D2A 4084  39.131   9.710   8.416
   30POPC   C3A 4085  39.443   9.556   8.164
   30POPC   C4A 4086  39.267   9.553   7.810
   30POPC   C1B 4087  39.376   9.929   8.833
   30POPC   C2B 4088  39.607   9.969   8.445
   30POPC   C3B 4089  39.555  10.124   8.035
   30POPC   C4B 4090  39.360  10.012   7.645
   31POPC   NC3 4091  28.309  39.419   9.574
   31POPC   PO4 4092  28.429  38.736   9.664
   31POPC   GL1 4093  28.473  38.976   9.188
   31POPC   GL2 4094  28.428  39.364   9.093
   31POPC   C1A 4095  28.535  39.056   8.712
   31POPC   D2A 4096  28.449  39.442   8.436
   31POPC   C3A 4097  28.485  39.385   8.008
   31POPC   C4A 4098  28.339  39.015   7.823
   31POPC   C1B 4099  28.129  39.517   8.813
   31POPC   C2B 4100  27.943  39.608   8.456
   31POPC   C3B 4101  27.964  39.328   8.148
   31POPC   C4B 4102  27.903  39.387   7.756
   32POPC   NC3 4103  20.057  20.870   9.523
   32POPC   PO4 4104  19.854  20.196   9.585
   32POPC   GL1 4105  19.807  20.507   9.236
   32POPC   GL2 4106  20.147  20.440   9.210
   32POPC   C1A 4107  19.633  20.706   8.827
   32POPC   D2A 4108  19.801  20.903   8.422
   32POPC   C3A 4109  19.625  20.805   8.009
   32POPC   C4A 4110  19.815  20.736   7.602
   32POPC   C1B 4111  20.136  20.703   8.852
   32POPC   C2B 4112  20.180  20.529   8.436
   32POPC   C3B 4113  20.071  20.573   8.017
   32POPC   C4B 4114  20.188  20.393   7.621
   33POPC   NC3 4115  30.301   4.574   9.417
   33POPC   PO4 4116  30.786   4.062   9.415
   33POPC   GL1 4117  30.712   4.436   9.110
   33POPC   GL2 4118  30.432   4.606   8.932
   33POPC   C1A 4119  30.932   4.452   8.717
   33POPC   D2A 4120  31.129   4.360   8.326
   33POPC   C3A 4121  30.969   4.384   7.939
   33POPC   C4A 4122  31.009   3.972   7.897
   33POPC   C1B 4123  30.490   4.202   8.703
   33POPC   C2B 4124  30.614   4.092   8.267
   33POPC   C3B 4125  30.519   4.142   7.811
   33POPC   C4B 4126  30.394   4.077   7.357
   34POPC   NC3 4127  38.156  29.310   9.481
   34POPC   PO4 4128  38.615  28.773   9.486
   34POPC   GL1 4129  38.404  28.959   9.156
   34POPC   GL2 4130  38.585  29.265   9.089
   34POPC   C1A 4131  38.508  28.932   8.708
   34POPC   D2A 4132  38.457  28.934   8.270
   34POPC   C3A 4133  38.763  29.053   7.958
   34POPC   C4A 4134  38.412  29.217   7.760
   34POPC   C1B 4135  38.508  29.466   8.673
   34POPC   C2B 4136  38.514  29.456   8.225
   34POPC   C3B 4137  38.669  29.637   7.827
   34POPC   C4B 4138  38.800  29.333   7.477
   35POPC   NC3 4139  30.342  13.630   9.402
   35POPC   PO4 4140  29.817  13.895   9.483
   35POPC   GL1 4141  30.040  13.931   9.130
   35POPC   GL2 4142  29.940  13.569   9.072
   35POPC   C1A 4143  30.222  13.836   8.773
   35POPC   D2A 4144  29.887  13.644   8.529
   35POPC   C3A 4145  30.014  13.542   8.144
   35POPC   C4A 4146  29.989  13.851   7.826
   35POPC   C1B 4147  29.642  13.317   8.842
   35POPC   C2B 4148  29.570  13.211   8.389
   35POPC   C3B 4149  29.547  13.194   7.956
   35POPC   C4B 4150  29.779  13.414   7.644
   36POPC   NC3 4151  24.271  16.045   9.396
   36POPC   PO4 4152  24.945  16.122   9.626
   36POPC   GL1 4153  24.784  16.090   9.189
   36POPC   GL2 4154  24.577  16.355   9.104
   36POPC   C1A 4155  24.600  15.923   8.788
   36POPC   D2A 4156  24.347  15.679   8.473
   36POPC   C3A 4157  24.525  15.794   8.069
   36POPC   C4A 4158  24.733  15.764   7.671
   36POPC   C1B 4159  24.240  16.286   8.774
   36POPC   C2B 4160  24.246  16.163   8.363
   36POPC   C3B 4161  24.222  16.198   7.940
   36POPC   C4B 4162  24.540  16.228   7.662
   37POPC   NC3 4163  22.365  32.711   9.633
   37POPC   PO4 4164  21.820  32.562   9.285
   37POPC   GL1 4165  22.141  32.854   9.170
   37POPC   GL2 4166  21.921  33.100   9.108
   37POPC   C1A 4167  22.389  32.942   8.795
   37POPC   D2A 4168  22.576  32.788   8.412
   37POPC   C3A 4169  22.432  32.941   7.976
   37POPC   C4A 4170  22.317  32.684   7.594
   37POPC   C1B 4171  21.815  32.942   8.713
   37POPC   C2B 4172  22.072  32.908   8.365
   37POPC   C3B 4173  22.062  32.598   8.054
   37POPC   C4B 4174  21.744  32.697   7.769
   38POPC   NC3 4175   9.603  43.523   9.359
   38POPC   PO4 4176   9.969  43.132   9.730
   38POPC   GL1 4177   9.912  43.159   9.208
   38POPC   GL2 4178   9.870  42.858   9.012
   38POPC   C1A 4179   9.558  43.216   8.791
   38POPC   D2A 4180   9.462  43.079   8.345
   38POPC   C3A 4181   9.407  43.330   7.978
   38POPC   C4A 4182   9.424  43.157   7.545
   38POPC   C1B 4183  10.035  43.227   8.720
   38POPC   C2B 4184   9.927  43.363   8.293
   38POPC   C3B 4185   9.885  43.106   7.907
   38POPC   C4B 4186   9.924  43.048   7.460
   39POPC   NC3 4187  44.482  42.705   9.372
   39POPC   PO4 4188  44.393  43.348   9.663
   39POPC   GL1 4189  44.590  43.211   9.258
   39POPC   GL2 4190  44.920  43.001   9.266
   39POPC   C1A 4191  44.441  43.247   8.819
   39POPC   D2A 4192  44.534  42.972   8.461
   39POPC   C3A 4193  44.524  43.166   8.072
   39POPC   C4A 4194  44.565  42.886   7.734
   39POPC   C1B 4195  44.915  43.021   8.805
   39POPC   C2B 4196   0.069  42.887   8.349
   39POPC   C3B 4197   0.024  43.017   7.906
   39POPC   C4B 4198  44.936  43.013   7.425
   40POPC   NC3 4199  37.659  40.550   9.479
   40POPC   PO4 4200  37.522  41.162   9.543
   40POPC   GL1 4201  37.586  40.935   9.146
   40POPC   GL2 4202  37.821  41.090   8.949
   40POPC   C1A 4203  37.535  40.710   8.753
   40POPC   D2A 4204  37.331  40.736   8.370
   40POPC   C3A 4205  37.483  40.621   8.003
   40POPC   C4A 4206  37.797  40.389   7.842
   40POPC   C1B 4207  38.048  40.827   8.674
   40POPC   C2B 4208  37.943  40.632   8.321
   40POPC   C3B 4209  38.158  40.723   7.983
   40POPC   C4B 4210  38.101  40.907   7.638
   41POPC   NC3 4211  15.421  40.056   9.732
   41POPC   PO4 4212  14.766  40.179   9.762
   41POPC   GL1 4213  14.958  40.083   9.346
   41POPC   GL2 4214  14.851  40.386   9.186
   41POPC   C1A 4215  15.103  39.900   8.919
   41POPC   D2A 4216  15.189  40.054   8.461
   41POPC   C3A 4217  15.241  39.848   8.029
   41POPC   C4A 4218  15.119  39.969   7.597
   41POPC   C1B 4219  14.806  40.301   8.745
   41POPC   C2B 4220  14.735  40.224   8.321
   41POPC   C3B 4221  14.994  40.310   7.974
   41POPC   C4B 4222  14.717  40.317   7.625
   42POPC   NC3 4223   3.371   2.160   9.299
   42POPC   PO4 4224   3.761   1.719   9.580
   42POPC   GL1 4225   3.750   1.827   9.138
   42POPC   GL2 4226   3.752   2.159   8.944
   42POPC   C1A 4227   3.549   1.739   8.718
   42POPC   D2A 4228   3.265   1.827   8.370
   42POPC   C3A 4229   3.490   1.997   8.022
   42POPC   C4A 4230   3.894   2.064   7.841
   42POPC   C1B 4231   3.562   2.221   8.569
   42POPC   C2B 4232   3.731   2.377   8.234
   42POPC   C3B 4233   3.419   2.523   8.045
   42POPC   C4B 4234   3.251   2.350   7.719
   43POPC   NC3 4235  35.443  38.812   9.805
   43POPC   PO4 4236  35.550  39.378   9.496
   43POPC   GL1 4237  35.413  39.078   9.250
   43POPC   GL2 4238  35.637  39.203   9.025
   43POPC   C1A 4239  35.197  39.054   8.839
   43POPC   D2A 4240  35.341  39.383   8.585
   43POPC   C3A 4241  35.287  39.410   8.155
   43POPC   C4A 4242  35.159  39.309   7.754
   43POPC   C1B 4243  35.714  38.969   8.680
   43POPC   C2B 4244  35.556  38.969   8.296
   43POPC   C3B 4245  35.620  39.060   7.891
   43POPC   C4B 4246  35.771  39.367   7.661
   44POPC   NC3 4247  34.735  18.466   9.376
   44POPC   PO4 4248  34.189  18.002   9.480
   44POPC   GL1 4249  34.396  18.168   9.086
   44POPC   GL2 4250  34.692  18.296   8.911
   44POPC   C1A 4251  34.253  18.230   8.664
   44POPC   D2A 4252  34.446  18.177   8.259
   44POPC   C3A 4253  34.267  18.177   7.846
   44POPC   C4A 4254  34.250  18.082   7.383
   44POPC   C1B 4255  34.886  18.111   8.581
   44POPC   C2B 4256  34.959  18.145   8.135
   44POPC   C3B 4257  34.802  18.394   7.827
   44POPC   C4B 4258  34.857  18.759   7.511
   45POPC   NC3 4259  39.530  11.631   9.532
   45POPC   PO4 4260  39.019  12.115   9.631
   45POPC   GL1 4261  39.031  11.946   9.182
   45POPC   GL2 4262  39.166  11.635   9.172
   45POPC   C1A 4263  39.057  12.145   8.759
   45POPC   D2A 4264  39.269  12.255   8.379
   45POPC   C3A 4265  39.014  12.111   8.085
   45POPC   C4A 4266  39.143  11.947   7.733
   45POPC   C1B 4267  39.468  11.871   8.920
   45POPC   C2B 4268  39.620  11.929   8.523
   45POPC   C3B 4269  39.628  12.027   8.075
   45POPC   C4B 4270  39.896  11.845   7.743
   46POPC   NC3 4271  32.870  11.053   9.647
   46POPC   PO4 4272  33.143  11.665   9.577
   46POPC   GL1 4273  32.895  11.427   9.261
   46POPC   GL2 4274  33.085  11.130   9.197
   46POPC   C1A 4275  32.742  11.384   8.833
   46POPC   D2A 4276  32.837  11.584   8.438
   46POPC   C3A 4277  32.649  11.558   8.071
   46POPC   C4A 4278  32.925  11.517   7.751
   46POPC   C1B 4279  33.230  11.267   8.824
   46POPC   C2B 4280  33.012  11.099   8.461
   46POPC   C3B 4281  32.869  11.100   8.074
   46POPC   C4B 4282  32.999  11.003   7.680
   47POPC   NC3 4283  21.725   7.443   9.470
   47POPC   PO4 4284  21.214   7.887   9.494
   47POPC   GL1 4285  21.360   7.611   9.141
   47POPC   GL2 4286  21.335   7.237   9.176
   47POPC   C1A 4287  21.416   7.663   8.698
   47POPC   D2A 4288  21.335   7.519   8.290
   47POPC   C3A 4289  21.019   7.720   8.031
   47POPC   C4A 4290  21.110   7.884   7.613
   47POPC   C1B 4291  21.655   7.245   8.825
   47POPC   C2B 4292  21.764   7.241   8.388
   47POPC   C3B 4293  21.555   7.141   7.998
   47POPC   C4B 4294  21.347   7.451   7.774
   48POPC   NC3 4295  41.730  22.177   9.491
   48POPC   PO4 4296  41.130  22.531   9.331
   48POPC   GL1 4297  41.467  22.339   9.076
   48POPC   GL2 4298  41.579  21.989   9.063
   48POPC   C1A 4299  41.622  22.280   8.659
   48POPC   D2A 4300  41.381  22.191   8.347
   48POPC   C3A 4301  41.326  22.480   8.054
   48POPC   C4A 4302  41.500  22.273   7.708
   48POPC   C1B 4303  41.470  21.778   8.721
   48POPC   C2B 4304  41.378  21.660   8.356
   48POPC   C3B 4305  41.456  21.844   7.993
   48POPC   C4B 4306  41.537  21.748   7.617
   49POPC   NC3 4307  21.716  36.632   9.489
   49POPC   PO4 4308  21.076  36.959   9.401
   49POPC   GL1 4309  21.417  36.875   9.138
   49POPC   GL2 4310  21.360  36.530   9.144
   49POPC   C1A 4311  21.505  37.063   8.739
   49POPC   D2A 4312  21.710  37.104   8.349
   49POPC   C3A 4313  21.615  36.810   8.016
   49POPC   C4A 4314  21.519  36.721   7.582
   49POPC   C1B 4315  21.145  36.657   8.762
   49POPC   C2B 4316  21.205  36.825   8.338
   49POPC   C3B 4317  21.122  36.688   7.899
   49POPC   C4B 4318  21.050  36.654   7.431
   50POPC   NC3 4319  25.824   1.280   9.518
   50POPC   PO4 4320  26.301   0.719   9.437
   50POPC   GL1 4321  26.261   1.079   9.166
   50POPC   GL2 4322  25.931   0.957   9.134
   50POPC   C1A 4323  26.181   1.093   8.718
   50POPC   D2A 4324  25.894   1.022   8.371
   50POPC   C3A 4325  26.067   1.228   8.011
   50POPC   C4A 4326  25.809   1.260   7.681
   50POPC   C1B 4327  25.631   1.178   8.874
   50POPC   C2B 4328  25.524   1.425   8.545
   50POPC   C3B 4329  25.595   1.415   8.123
   50POPC   C4B 4330  25.587   1.717   7.769
   51POPC   NC3 4331  25.463  18.757   9.387
   51POPC   PO4 4332  25.001  18.323   9.555
   51POPC   GL1 4333  25.220  18.208   9.190
   51POPC   GL2 4334  24.970  17.949   9.124
   51POPC   C1A 4335  25.475  18.352   8.849
   51POPC   D2A 4336  25.329  18.308   8.445
   51POPC   C3A 4337  25.571  18.279   8.109
   51POPC   C4A 4338  25.464  18.375   7.725
   51POPC   C1B 4339  24.943  18.278   8.776
   51POPC   C2B 4340  24.831  18.237   8.338
   51POPC   C3B 4341  24.961  18.377   7.931
   51POPC   C4B 4342  25.030  18.356   7.476
   52POPC   NC3 4343   9.098  36.960   9.622
   52POPC   PO4 4344   8.635  36.541   9.493
   52POPC   GL1 4345   8.898  36.681   9.143
   52POPC   GL2 4346   8.833  37.016   9.138
   52POPC   C1A 4347   8.818  36.723   8.686
   52POPC   D2A 4348   8.848  36.499   8.307
   52POPC   C3A 4349   9.100  36.630   7.976
   52POPC   C4A 4350   9.346  36.913   7.741
   52POPC   C1B 4351   8.658  37.203   8.770
   52POPC   C2B 4352   8.680  37.227   8.305
   52POPC   C3B 4353   8.907  37.103   7.926
   52POPC   C4B 4354   8.970  37.132   7.453
   53POPC   NC3 4355  32.465  20.544   9.341
   53POPC   PO4 4356  31.783  20.512   9.500
   53POPC   GL1 4357  32.003  20.414   9.137
   53POPC   GL2 4358  32.097  20.774   9.072
   53POPC   C1A 4359  32.135  20.269   8.716
   53POPC   D2A 4360  31.978  20.152   8.289
   53POPC   C3A 4361  32.151  20.390   7.911
   53POPC   C4A 4362  32.268  20.459   7.445
   53POPC   C1B 4363  32.274  20.820   8.649
   53POPC   C2B 4364  32.337  20.805   8.194
   53POPC   C3B 4365  32.651  20.556   7.987
   53POPC   C4B 4366  32.827  20.373   7.620
   54POPC   NC3 4367   0.657   3.316   9.336
   54POPC   PO4 4368  44.997   3.656   9.506
   54POPC   GL1 4369   0.188   3.690   9.133
   54POPC   GL2 4370   0.088   3.361   9.052
   54POPC   C1A 4371   0.235   3.704   8.675
   54POPC   D2A 4372   0.005   3.502   8.322
   54POPC   C3A 4373   0.244   3.563   7.925
   54POPC   C4A 4374   0.651   3.733   7.781
   54POPC   C1B 4375   0.254   3.184   8.680
   54POPC   C2B 4376   0.441   3.215   8.281
   54POPC   C3B 4377   0.618   3.207   7.903
   54POPC   C4B 4378   0.378   3.153   7.581
   55POPC   NC3 4379  22.280   4.042   9.444
   55POPC   PO4 4380  21.925   4.582   9.575
   55POPC   GL1 4381  22.039   4.425   9.223
   55POPC   GL2 4382  21.920   4.120   9.072
   55POPC   C1A 4383  22.326   4.450   8.901
   55POPC   D2A 4384  22.223   4.334   8.491
   55POPC   C3A 4385  22.333   4.331   8.049
   55POPC   C4A 4386  22.552   4.307   7.649
   55POPC   C1B 4387  21.829   4.499   8.770
   55POPC   C2B 4388  21.760   4.395   8.327
   55POPC   C3B 4389  21.821   4.131   7.964
   55POPC   C4B 4390  22.073   4.168   7.600
   56POPC   NC3 4391   5.575  34.291   9.469
   56POPC   PO4 4392   6.186  34.442   9.397
   56POPC   GL1 4393   5.978  34.674   9.073
   56POPC   GL2 4394   5.772  34.366   9.014
   56POPC   C1A 4395   5.859  34.635   8.618
   56POPC   D2A 4396   5.962  34.292   8.380
   56POPC   C3A 4397   6.006  34.419   7.992
   56POPC   C4A 4398   5.905  34.675   7.675
   56POPC   C1B 4399   5.477  34.314   8.662
   56POPC   C2B 4400   5.485  34.546   8.241
   56POPC   C3B 4401   5.446  34.467   7.793
   56POPC   C4B 4402   5.344  34.080   7.591
   57POPC   NC3 4403   1.483  16.165   9.525
   57POPC   PO4 4404   0.796  15.954   9.672
   57POPC   GL1 4405   1.037  16.064   9.264
   57POPC   GL2 4406   1.348  15.865   9.143
   57POPC   C1A 4407   1.125  16.187   8.803
   57POPC   D2A 4408   0.902  16.032   8.425
   57POPC   C3A 4409   1.106  16.190   8.069
   57POPC   C4A 4410   1.055  16.104   7.655
   57POPC   C1B 4411   1.206  15.687   8.789
   57POPC   C2B 4412   1.389  15.876   8.437
   57POPC   C3B 4413   1.468  15.828   8.044
   57POPC   C4B 4414   1.492  15.850   7.642
   58POPC   NC3 4415  40.629  19.874   9.486
   58POPC   PO4 4416  41.107  19.608   9.209
   58POPC   GL1 4417  40.771  19.686   8.983
   58POPC   GL2 4418  40.594  19.989   8.990
   58POPC   C1A 4419  40.817  19.642   8.546
   58POPC   D2A 4420  41.125  19.701   8.212
   58POPC   C3A 4421  40.864  19.765   7.836
   58POPC   C4A 4422  40.938  19.625   7.387
   58POPC   C1B 4423  40.893  20.146   8.723
   58POPC   C2B 4424  40.871  20.149   8.294
   58POPC   C3B 4425  40.843  20.271   7.887
   58POPC   C4B 4426  40.515  20.207   7.625
   59POPC   NC3 4427  41.376  29.567   9.295
   59POPC   PO4 4428  41.439  30.219   9.448
   59POPC   GL1 4429  41.638  29.988   9.141
   59POPC   GL2 4430  41.982  30.012   9.162
   59POPC   C1A 4431  41.496  29.890   8.734
   59POPC   D2A 4432  41.304  30.080   8.388
   59POPC   C3A 4433  41.520  30.012   8.023
   59POPC   C4A 4434  41.580  29.669   7.756
   59POPC   C1B 4435  41.985  29.767   8.797
   59POPC   C2B 4436  41.838  29.774   8.374
   59POPC   C3B 4437  42.001  29.875   7.966
   59POPC   C4B 4438  41.959  30.306   7.812
   60POPC   NC3 4439  25.882  35.475   9.448
   60POPC   PO4 4440  26.360  34.977   9.399
   60POPC   GL1 4441  26.130  35.235   9.078
   60POPC   GL2 4442  26.169  35.612   9.072
   60POPC   C1A 4443  26.101  35.126   8.665
   60POPC   D2A 4444  26.258  34.893   8.339
   60POPC   C3A 4445  26.054  35.060   8.007
   60POPC   C4A 4446  25.949  35.057   7.586
   60POPC   C1B 4447  26.052  35.635   8.659
   60POPC   C2B 4448  25.825  35.497   8.307
   60POPC   C3B 4449  25.883  35.522   7.863
   60POPC   C4B 4450  26.245  35.471   7.593
   61POPC   NC3 4451  14.023  40.868   9.444
   61POPC   PO4 4452  14.598  41.149   9.585
   61POPC   GL1 4453  14.455  40.922   9.210
   61POPC   GL2 4454  14.261  41.180   9.131
   61POPC   C1A 4455  14.193  40.732   8.838
   61POPC   D2A 4456  13.989  40.536   8.454
   61POPC   C3A 4457  14.115  40.701   8.033
   61POPC   C4A 4458  14.347  40.679   7.623
   61POPC   C1B 4459  14.431  41.225   8.748
   61POPC   C2B 4460  14.367  41.130   8.346
   61POPC   C3B 4461  14.456  41.104   7.941
   61POPC   C4B 4462  14.331  41.187   7.573
   62POPC   NC3 4463  37.052   1.329   9.420
   62POPC   PO4 4464  36.399   1.408   9.364
   62POPC   GL1 4465  36.703   1.196   9.066
   62POPC   GL2 4466  36.878   0.885   9.212
   62POPC   C1A 4467  37.086   1.282   8.774
   62POPC   D2A 4468  37.360   1.220   8.410
   62POPC   C3A 4469  37.225   1.356   7.984
   62POPC   C4A 4470  36.796   1.460   7.817
   62POPC   C1B 4471  36.931   0.795   8.781
   62POPC   C2B 4472  36.815   0.764   8.347
   62POPC   C3B 4473  36.693   0.967   7.933
   62POPC   C4B 4474  36.597   1.014   7.459
   63POPC   NC3 4475  22.641  33.580   9.572
   63POPC   PO4 4476  23.119  34.028   9.570
   63POPC   GL1 4477  23.047  33.998   9.135
   63POPC   GL2 4478  22.840  33.695   9.128
   63POPC   C1A 4479  23.178  33.740   8.755
   63POPC   D2A 4480  22.980  33.579   8.402
   63POPC   C3A 4481  23.003  33.765   7.985
   63POPC   C4A 4482  23.289  33.629   7.670
   63POPC   C1B 4483  22.704  33.948   8.771
   63POPC   C2B 4484  22.716  34.013   8.339
   63POPC   C3B 4485  22.669  34.182   7.906
   63POPC   C4B 4486  22.552  34.025   7.512
   64POPC   NC3 4487   6.822   7.053   9.530
   64POPC   PO4 4488   6.377   6.499   9.536
   64POPC   GL1 4489   6.691   6.593   9.249
   64POPC   GL2 4490   6.569   6.890   9.133
   64POPC   C1A 4491   6.825   6.609   8.810
   64POPC   D2A 4492   6.776   6.309   8.479
   64POPC   C3A 4493   6.720   6.577   8.131
   64POPC   C4A 4494   6.794   6.573   7.714
   64POPC   C1B 4495   6.300   6.986   8.829
   64POPC   C2B 4496   6.378   6.804   8.469
   64POPC   C3B 4497   6.238   6.842   8.068
   64POPC   C4B 4498   6.482   7.006   7.741
   65POPC   NC3 4499  38.304   1.767   9.442
   65POPC   PO4 4500  38.900   2.052   9.508
   65POPC   GL1 4501  38.644   1.961   9.133
   65POPC   GL2 4502  38.396   2.207   9.089
   65POPC   C1A 4503  38.479   1.895   8.706
   65POPC   D2A 4504  38.380   2.222   8.396
   65POPC   C3A 4505  38.461   2.039   8.021
   65POPC   C4A 4506  38.720   1.819   7.771
   65POPC   C1B 4507  38.043   2.129   8.821
   65POPC   C2B 4508  37.994   1.900   8.476
   65POPC   C3B 4509  37.965   1.956   8.046
   65POPC   C4B 4510  38.151   1.863   7.650
   66POPC   NC3 4511  33.204  27.600   9.456
   66POPC   PO4 4512  32.593  27.680   9.413
   66POPC   GL1 4513  32.884  27.593   9.057
   66POPC   GL2 4514  33.225  27.382   9.008
   66POPC   C1A 4515  32.797  27.668   8.647
   66POPC   D2A 4516  32.651  27.402   8.378
   66POPC   C3A 4517  32.808  27.541   7.980
   66POPC   C4A 4518  33.117  27.789   7.756
   66POPC   C1B 4519  33.308  27.741   8.731
   66POPC   C2B 4520  33.208  27.723   8.288
   66POPC   C3B 4521  33.393  27.437   7.983
   66POPC   C4B 4522  33.607  27.513   7.627
   67POPC   NC3 4523  15.864  23.466   9.450
   67POPC   PO4 4524  16.230  24.027   9.385
   67POPC   GL1 4525  15.982  23.833   9.090
   67POPC   GL2 4526  15.630  23.849   9.165
   67POPC   C1A 4527  16.071  23.700   8.677
   67POPC   D2A 4528  16.295  23.455   8.371
   67POPC   C3A 4529  16.103  23.586   8.002
   67POPC   C4A 4530  15.967  23.979   7.864
   67POPC   C1B 4531  15.585  23.552   8.805
   67POPC   C2B 4532  15.635  23.621   8.362
   67POPC   C3B 4533  15.496  23.885   8.036
   67POPC   C4B 4534  15.615  23.608   7.737
   68POPC   NC3 4535  31.749  26.015   9.384
   68POPC   PO4 4536  31.162  25.871   9.558
   68POPC   GL1 4537  31.318  26.063   9.099
   68POPC   GL2 4538  31.220  26.399   8.955
   68POPC   C1A 4539  31.647  26.107   8.765
   68POPC   D2A 4540  31.733  25.888   8.395
   68POPC   C3A 4541  31.570  26.165   8.100
   68POPC   C4A 4542  31.657  26.326   7.711
   68POPC   C1B 4543  31.188  26.116   8.556
   68POPC   C2B 4544  31.244  25.714   8.373
   68POPC   C3B 4545  31.413  25.690   7.975
   68POPC   C4B 4546  31.252  26.002   7.702
   69POPC   NC3 4547  19.053  16.802   9.743
   69POPC   PO4 4548  18.981  16.149   9.530
   69POPC   GL1 4549  19.062  16.498   9.216
   69POPC   GL2 4550  19.175  16.819   9.262
   69POPC   C1A 4551  18.915  16.802   8.844
   69POPC   D2A 4552  18.680  16.884   8.469
   69POPC   C3A 4553  18.941  16.956   8.105
   69POPC   C4A 4554  18.898  16.767   7.698
   69POPC   C1B 4555  19.404  16.692   8.848
   69POPC   C2B 4556  19.376  16.831   8.393
   69POPC   C3B 4557  19.399  16.778   7.920
   69POPC   C4B 4558  19.316  16.446   7.611
   70POPC   NC3 4559   1.963   7.177   9.445
   70POPC   PO4 4560   2.612   7.585   9.510
   70POPC   GL1 4561   2.250   7.556   9.197
   70POPC   GL2 4562   1.884   7.568   9.099
   70POPC   C1A 4563   2.179   7.357   8.762
   70POPC   D2A 4564   2.321   7.313   8.344
   70POPC   C3A 4565   2.062   7.203   8.016
   70POPC   C4A 4566   2.033   7.516   7.726
   70POPC   C1B 4567   1.663   7.480   8.765
   70POPC   C2B 4568   1.822   7.508   8.372
   70POPC   C3B 4569   1.608   7.521   8.014
   70POPC   C4B 4570   1.639   7.222   7.717
   71POPC   NC3 4571  34.865  16.818   9.451
   71POPC   PO4 4572  35.564  16.591   9.422
   71POPC   GL1 4573  35.274  16.655   9.097
   71POPC   GL2 4574  35.220  17.003   9.098
   71POPC   C1A 4575  35.398  16.760   8.681
   71POPC   D2A 4576  35.293  16.929   8.319
   71POPC   C3A 4577  35.229  16.549   8.138
   71POPC   C4A 4578  35.596  16.572   7.878
   71POPC   C1B 4579  35.037  17.130   8.730
   71POPC   C2B 4580  34.950  17.312   8.340
   71POPC   C3B 4581  35.148  17.284   7.955
   71POPC   C4B 4582  35.216  16.902   7.791
   72POPC   NC3 4583  37.883  42.297   9.566
   72POPC   PO4 4584  37.292  42.653   9.481
   72POPC   GL1 4585  37.586  42.526   9.187
   72POPC   GL2 4586  37.961  42.614   9.161
   72POPC   C1A 4587  37.471  42.451   8.784
   72POPC   D2A 4588  37.314  42.371   8.398
   72POPC   C3A 4589  37.626  42.434   8.114
   72POPC   C4A 4590  37.572  42.158   7.768
   72POPC   C1B 4591  37.905  42.212   8.926
   72POPC   C2B 4592  37.818  42.156   8.512
   72POPC   C3B 4593  37.984  42.070   8.141
   72POPC   C4B 4594  38.037  42.326   7.787
   73POPC   NC3 4595   7.934  41.752   9.509
   73POPC   PO4 4596   8.499  41.348   9.644
   73POPC   GL1 4597   8.178  41.325   9.299
   73POPC   GL2 4598   8.333  41.616   9.158
   73POPC   C1A 4599   7.982  41.424   8.866
   73POPC   D2A 4600   8.256  41.524   8.502
   73POPC   C3A 4601   8.077  41.481   8.079
   73POPC   C4A 4602   8.045  41.357   7.651
   73POPC   C1B 4603   8.554  41.839   8.826
   73POPC   C2B 4604   8.418  42.031   8.471
   73POPC   C3B 4605   8.469  41.835   8.119
   73POPC   C4B 4606   8.361  41.729   7.741
   74POPC   NC3 4607  14.199  22.688   9.435
   74POPC   PO4 4608  14.664  23.254   9.472
   74POPC   GL1 4609  14.506  23.017   9.139
   74POPC   GL2 4610  14.649  22.666   9.119
   74POPC   C1A 4611  14.592  23.019   8.708
   74POPC   D2A 4612  14.555  22.832   8.340
   74POPC   C3A 4613  14.491  23.092   8.018
   74POPC   C4A 4614  14.772  23.297   7.766
   74POPC   C1B 4615  14.335  22.585   8.795
   74POPC   C2B 4616  14.123  22.582   8.410
   74POPC   C3B 4617  14.198  22.671   7.993
   74POPC   C4B 4618  14.004  22.969   7.769
   75POPC   NC3 4619  30.104  39.117   9.276
   75POPC   PO4 4620  29.545  39.411   9.583
   75POPC   GL1 4621  29.599  39.284   9.136
   75POPC   GL2 4622  29.841  39.515   9.073
   75POPC   C1A 4623  29.662  39.305   8.648
   75POPC   D2A 4624  29.847  39.049   8.297
   75POPC   C3A 4625  29.882  39.117   7.889
   75POPC   C4A 4626  30.047  39.062   7.490
   75POPC   C1B 4627  30.123  39.533   8.675
   75POPC   C2B 4628  30.069  39.499   8.239
   75POPC   C3B 4629  30.134  39.551   7.805
   75POPC   C4B 4630  30.087  39.569   7.383
   76POPC   NC3 4631  35.358  10.779   9.438
   76POPC   PO4 4632  34.854  10.329   9.475
   76POPC   GL1 4633  35.138  10.365   9.144
   76POPC   GL2 4634  35.505  10.345   9.200
   76POPC   C1A 4635  35.328  10.582   8.794
   76POPC   D2A 4636  35.507  10.485   8.441
   76POPC   C3A 4637  35.339  10.689   8.104
   76POPC   C4A 4638  35.217  10.588   7.699
   76POPC   C1B 4639  35.821  10.273   8.852
   76POPC   C2B 4640  35.923  10.200   8.420
   76POPC   C3B 4641  35.627  10.215   8.029
   76POPC   C4B 4642  35.661  10.361   7.641
   77POPC   NC3 4643  41.868   9.112   9.609
   77POPC   PO4 4644  41.351   8.763   9.769
   77POPC   GL1 4645  41.556   8.785   9.332
   77POPC   GL2 4646  41.533   9.137   9.230
   77POPC   C1A 4647  41.622   8.827   8.853
   77POPC   D2A 4648  41.771   8.655   8.476
   77POPC   C3A 4649  41.767   8.990   8.168
   77POPC   C4A 4650  41.658   9.045   7.766
   77POPC   C1B 4651  41.369   9.308   8.855
   77POPC   C2B 4652  41.514   9.361   8.461
   77POPC   C3B 4653  41.328   9.318   8.085
   77POPC   C4B 4654  41.264   9.369   7.656
   78POPC   NC3 4655  31.346  38.824   9.577
   78POPC   PO4 4656  31.636  38.162   9.615
   78POPC   GL1 4657  31.766  38.382   9.247
   78POPC   GL2 4658  31.461  38.501   9.212
   78POPC   C1A 4659  31.698  38.309   8.810
   78POPC   D2A 4660  31.447  38.392   8.458
   78POPC   C3A 4661  31.380  38.305   8.038
   78POPC   C4A 4662  31.665  38.563   7.740
   78POPC   C1B 4663  31.295  38.699   8.862
   78POPC   C2B 4664  31.196  38.830   8.456
   78POPC   C3B 4665  31.318  38.807   8.051
   78POPC   C4B 4666  31.249  38.904   7.680
   79POPC   NC3 4667  29.173  25.040   9.549
   79POPC   PO4 4668  29.675  25.452   9.576
   79POPC   GL1 4669  29.279  25.493   9.275
   79POPC   GL2 4670  29.124  25.188   9.079
   79POPC   C1A 4671  29.165  25.614   8.831
   79POPC   D2A 4672  29.183  25.313   8.494
   79POPC   C3A 4673  29.115  25.443   8.074
   79POPC   C4A 4674  29.284  25.312   7.679
   79POPC   C1B 4675  28.957  24.891   8.790
   79POPC   C2B 4676  28.807  24.925   8.386
   79POPC   C3B 4677  29.076  24.944   8.045
   79POPC   C4B 4678  28.940  24.959   7.665
   80POPC   NC3 4679   8.702  21.612   9.468
   80POPC   PO4 4680   8.101  21.334   9.561
   80POPC   GL1 4681   8.313  21.302   9.200
   80POPC   GL2 4682   7.973  21.322   9.061
   80POPC   C1A 4683   8.363  21.238   8.778
   80POPC   D2A 4684   8.079  21.254   8.465
   80POPC   C3A 4685   8.193  21.365   8.073
   80POPC   C4A 4686   8.187  21.156   7.675
   80POPC   C1B 4687   7.924  21.651   8.754
   80POPC   C2B 4688   7.688  21.771   8.348
   80POPC   C3B 4689   7.732  21.694   7.896
   80POPC   C4B 4690   7.831  21.444   7.510
   81POPC   NC3 4691   5.384  43.535   9.600
   81POPC   PO4 4692   5.067  44.093   9.609
   81POPC   GL1 4693   5.163  43.863   9.246
   81POPC   GL2 4694   5.010  43.603   9.248
   81POPC   C1A 4695   5.281  43.903   8.813
   81POPC   D2A 4696   5.168  43.626   8.454
   81POPC   C3A 4697   5.038  43.779   8.075
   81POPC   C4A 4698   5.195  44.049   7.791
   81POPC   C1B 4699   4.830  43.669   8.854
   81POPC   C2B 4700   4.637  43.630   8.437
   81POPC   C3B 4701   4.545  43.508   8.005
   81POPC   C4B 4702   4.832  43.503   7.670
   82POPC   NC3 4703  17.221   0.711   9.537
   82POPC   PO4 4704  17.799   0.270   9.635
   82POPC   GL1 4705  17.617   0.494   9.284
   82POPC   GL2 4706  17.292   0.345   9.185
   82POPC   C1A 4707  17.570   0.517   8.818
   82POPC   D2A 4708  17.728   0.346   8.450
   82POPC   C3A 4709  17.526   0.485   8.117
   82POPC   C4A 4710  17.414   0.464   7.720
   82POPC   C1B 4711  17.160   0.032   8.887
   82POPC   C2B 4712  17.262   0.145   8.456
   82POPC   C3B 4713  17.122   0.199   8.034
   82POPC   C4B 4714  17.148   0.032   7.640
   83POPC   NC3 4715  18.283  24.121   9.585
   83POPC   PO4 4716  18.228  23.459   9.608
   83POPC   GL1 4717  18.182  23.709   9.262
   83POPC   GL2 4718  18.481  23.897   9.188
   83POPC   C1A 4719  17.943  23.832   8.908
   83POPC   D2A 4720  18.156  23.870   8.525
   83POPC   C3A 4721  18.099  23.693   8.108
   83POPC   C4A 4722  18.052  23.656   7.674
   83POPC   C1B 4723  18.598  23.816   8.786
   83POPC   C2B 4724  18.611  23.981   8.363
   83POPC   C3B 4725  18.714  23.634   8.140
   83POPC   C4B 4726  18.642  23.521   7.753
   84POPC   NC3 4727   1.399  22.938   9.281
   84POPC   PO4 4728   1.024  22.474   9.570
   84POPC   GL1 4729   1.005  22.661   9.092
   84POPC   GL2 4730   0.899  23.009   9.036
   84POPC   C1A 4731   1.238  22.798   8.665
   84POPC   D2A 4732   1.590  22.876   8.328
   84POPC   C3A 4733   1.498  22.882   7.846
   84POPC   C4A 4734   1.052  22.834   7.662
   84POPC   C1B 4735   0.850  23.408   8.766
   84POPC   C2B 4736   0.874  23.373   8.306
   84POPC   C3B 4737   1.175  23.230   8.017
   84POPC   C4B 4738   1.208  23.291   7.542
   85POPC   NC3 4739  17.770  23.540   9.639
   85POPC   PO4 4740  17.129  23.777   9.515
   85POPC   GL1 4741  17.467  23.646   9.167
   85POPC   GL2 4742  17.779  23.394   9.175
   85POPC   C1A 4743  17.469  23.772   8.695
   85POPC   D2A 4744  17.708  24.007   8.360
   85POPC   C3A 4745  17.655  23.915   7.930
   85POPC   C4A 4746  17.232  23.903   7.701
   85POPC   C1B 4747  17.686  23.325   8.804
   85POPC   C2B 4748  17.803  23.455   8.431
   85POPC   C3B 4749  17.738  23.325   8.019
   85POPC   C4B 4750  17.569  23.496   7.668
   86POPC   NC3 4751  35.552  37.438   9.479
   86POPC   PO4 4752  35.037  37.896   9.273
   86POPC   GL1 4753  35.330  37.665   9.091
   86POPC   GL2 4754  35.627  37.859   9.169
   86POPC   C1A 4755  35.653  37.517   8.818
   86POPC   D2A 4756  35.908  37.727   8.558
   86POPC   C3A 4757  35.711  37.926   8.208
   86POPC   C4A 4758  35.550  37.755   7.820
   86POPC   C1B 4759  35.465  37.984   8.736
   86POPC   C2B 4760  35.261  37.754   8.391
   86POPC   C3B 4761  34.986  37.807   8.033
   86POPC   C4B 4762  35.084  37.907   7.596
   87POPC   NC3 4763  11.972   3.582   9.622
   87POPC   PO4 4764  12.130   2.915   9.770
   87POPC   GL1 4765  12.228   3.166   9.349
   87POPC   GL2 4766  12.118   3.486   9.167
   87POPC   C1A 4767  12.302   3.125   8.881
   87POPC   D2A 4768  12.415   3.195   8.443
   87POPC   C3A 4769  12.102   3.201   8.118
   87POPC   C4A 4770  12.050   3.277   7.678
   87POPC   C1B 4771  11.948   3.641   8.783
   87POPC   C2B 4772  12.165   3.647   8.383
   87POPC   C3B 4773  12.153   3.682   7.936
   87POPC   C4B 4774  11.890   3.906   7.608
   88POPC   NC3 4775  21.750  29.479   9.529
   88POPC   PO4 4776  22.267  29.072   9.528
   88POPC   GL1 4777  22.024  29.094   9.174
   88POPC   GL2 4778  21.836  28.796   9.155
   88POPC   C1A 4779  22.183  29.257   8.782
   88POPC   D2A 4780  22.139  29.494   8.409
   88POPC   C3A 4781  22.189  29.283   8.027
   88POPC   C4A 4782  22.425  28.960   7.773
   88POPC   C1B 4783  21.736  28.989   8.749
   88POPC   C2B 4784  21.775  29.131   8.322
   88POPC   C3B 4785  21.853  28.917   7.899
   88POPC   C4B 4786  21.985  28.967   7.434
   89POPC   NC3 4787  41.943  25.264   9.787
   89POPC   PO4 4788  42.458  25.497   9.352
   89POPC   GL1 4789  42.363  25.338   8.993
   89POPC   GL2 4790  42.324  25.046   9.116
   89POPC   C1A 4791  42.286  25.294   8.575
   89POPC   D2A 4792  42.470  25.416   8.177
   89POPC   C3A 4793  42.154  25.434   7.838
   89POPC   C4A 4794  42.124  25.378   7.401
   89POPC   C1B 4795  42.660  24.916   8.834
   89POPC   C2B 4796  42.532  24.858   8.455
   89POPC   C3B 4797  42.486  24.890   8.038
   89POPC   C4B 4798  42.119  24.940   7.751
   90POPC   NC3 4799  18.759  43.581   9.477
   90POPC   PO4 4800  18.998  44.156   9.584
   90POPC   GL1 4801  19.015  43.931   9.215
   90POPC   GL2 4802  18.722  44.110   9.169
   90POPC   C1A 4803  19.238  43.943   8.815
   90POPC   D2A 4804  19.309  44.209   8.437
   90POPC   C3A 4805  19.277  43.928   8.112
   90POPC   C4A 4806  19.167  43.854   7.710
   90POPC   C1B 4807  18.710  43.819   8.820
   90POPC   C2B 4808  18.861  43.785   8.416
   90POPC   C3B 4809  18.761  43.727   8.000
   90POPC   C4B 4810  18.668  44.069   7.715
   91POPC   NC3 4811  18.624  35.722   9.704
   91POPC   PO4 4812  19.181  35.320   9.630
   91POPC   GL1 4813  19.149  35.426   9.229
   91POPC   GL2 4814  18.783  35.393   9.273
   91POPC   C1A 4815  19.299  35.602   8.831
   91POPC   D2A 4816  19.441  35.639   8.412
   91POPC   C3A 4817  19.342  35.287   8.138
   91POPC   C4A 4818  19.052  35.261   7.762
   91POPC   C1B 4819  18.902  35.247   8.821
   91POPC   C2B 4820  18.954  35.486   8.419
   91POPC   C3B 4821  18.680  35.531   8.041
   91POPC   C4B 4822  18.518  35.212   7.766
   92POPC   NC3 4823  11.957   0.033   9.580
   92POPC   PO4 4824  12.115  44.394   9.505
   92POPC   GL1 4825  12.161  44.564   9.120
   92POPC   GL2 4826  12.198  44.912   9.149
   92POPC   C1A 4827  12.170  44.373   8.725
   92POPC   D2A 4828  12.141  44.200   8.328
   92POPC   C3A 4829  12.317  44.448   8.027
   92POPC   C4A 4830  12.219  44.561   7.619
   92POPC   C1B 4831  11.913  44.843   8.782
   92POPC   C2B 4832  12.022  44.733   8.363
   92POPC   C3B 4833  11.902  44.805   7.941
   92POPC   C4B 4834  11.731  44.875   7.530
   93POPC   NC3 4835  34.655  43.642   9.535
   93POPC   PO4 4836  34.494  44.259   9.294
   93POPC   GL1 4837  34.710  43.883   9.069
   93POPC   GL2 4838  34.955  43.565   9.136
   93POPC   C1A 4839  34.383  43.730   8.755
   93POPC   D2A 4840  34.273  43.830   8.302
   93POPC   C3A 4841  34.568  44.024   8.047
   93POPC   C4A 4842  34.538  44.098   7.624
   93POPC   C1B 4843  34.800  43.436   8.782
   93POPC   C2B 4844  34.777  43.668   8.430
   93POPC   C3B 4845  34.682  43.518   8.089
   93POPC   C4B 4846  34.807  43.659   7.737
   94POPC   NC3 4847  13.786  43.462   9.511
   94POPC   PO4 4848  13.207  43.157   9.573
   94POPC   GL1 4849  13.509  43.120   9.217
   94POPC   GL2 4850  13.660  42.791   9.166
   94POPC   C1A 4851  13.628  43.104   8.759
   94POPC   D2A 4852  13.581  42.897   8.352
   94POPC   C3A 4853  13.602  43.199   8.012
   94POPC   C4A 4854  13.947  43.277   7.721
   94POPC   C1B 4855  13.920  42.673   8.792
   94POPC   C2B 4856  14.008  42.601   8.352
   94POPC   C3B 4857  13.946  42.824   7.952
   94POPC   C4B 4858  13.922  42.839   7.457
   95POPC   NC3 4859  12.469  12.865   9.490
   95POPC   PO4 4860  13.051  13.140   9.680
   95POPC   GL1 4861  12.966  12.916   9.287
   95POPC   GL2 4862  12.779  13.138   9.161
   95POPC   C1A 4863  12.986  12.818   8.816
   95POPC   D2A 4864  13.187  12.880   8.419
   95POPC   C3A 4865  12.914  12.824   8.054
   95POPC   C4A 4866  12.790  12.619   7.678
   95POPC   C1B 4867  12.559  13.106   8.793
   95POPC   C2B 4868  12.760  13.154   8.429
   95POPC   C3B 4869  12.598  13.247   8.060
   95POPC   C4B 4870  12.664  13.117   7.679
   96POPC   NC3 4871  25.741  37.830   9.887
   96POPC   PO4 4872  25.283  37.436   9.461
   96POPC   GL1 4873  25.320  37.533   9.065
   96POPC   GL2 4874  25.612  37.337   9.088
   96POPC   C1A 4875  25.420  37.703   8.696
   96POPC   D2A 4876  25.267  37.963   8.416
   96POPC   C3A 4877  25.374  37.824   8.043
   96POPC   C4A 4878  25.135  37.650   7.746
   96POPC   C1B 4879  25.615  37.198   8.718
   96POPC   C2B 4880  25.688  37.422   8.341
   96POPC   C3B 4881  25.597  37.386   7.902
   96POPC   C4B 4882  25.796  37.493   7.500
   97POPC   NC3 4883  12.594   4.850   9.794
   97POPC   PO4 4884  13.035   5.394   9.720
   97POPC   GL1 4885  12.931   5.238   9.277
   97POPC   GL2 4886  12.588   5.038   9.273
   97POPC   C1A 4887  13.112   5.065   8.868
   97POPC   D2A 4888  13.150   4.879   8.435
   97POPC   C3A 4889  13.174   5.188   8.096
   97POPC   C4A 4890  13.035   5.150   7.685
   97POPC   C1B 4891  12.623   5.207   8.839
   97POPC   C2B 4892  12.637   4.988   8.453
   97POPC   C3B 4893  12.664   5.137   8.062
   97POPC   C4B 4894  12.570   4.944   7.704
   98POPC   NC3 4895   0.153  41.740   9.456
   98POPC   PO4 4896   0.454  41.276   9.132
   98POPC   GL1 4897   0.314  41.632   8.980
   98POPC   GL2 4898   0.680  41.727   8.965
   98POPC   C1A 4899   0.102  41.532   8.618
   98POPC   D2A 4900   0.437  41.479   8.303
   98POPC   C3A 4901   0.340  41.313   7.897
   98POPC   C4A 4902   0.124  41.642   7.700
   98POPC   C1B 4903   0.625  41.973   8.624
   98POPC   C2B 4904   0.645  41.975   8.196
   98POPC   C3B 4905   0.616  41.741   7.868
   98POPC   C4B 4906   0.786  41.425   7.641
   99POPC   NC3 4907  17.982  14.240   9.888
   99POPC   PO4 4908  18.289  14.658   9.388
   99POPC   GL1 4909  18.252  14.387   9.100
   99POPC   GL2 4910  18.484  14.116   9.264
   99POPC   C1A 4911  18.171  14.582   8.716
   99POPC   D2A 4912  18.117  14.893   8.419
   99POPC   C3A 4913  18.081  14.626   8.038
   99POPC   C4A 4914  18.075  14.518   7.584
   99POPC   C1B 4915  18.577  14.153   8.809
   99POPC   C2B 4916  18.429  14.282   8.394
   99POPC   C3B 4917  18.555  14.428   8.013
   99POPC   C4B 4918  18.527  14.222   7.614
  100POPC   NC3 4919  28.890   5.153   9.966
  100POPC   PO4 4920  29.159   4.735   9.715
  100POPC   GL1 4921  29.364   4.849   9.246
  100POPC   GL2 4922  29.618   5.121   9.182
  100POPC   C1A 4923  29.226   4.934   8.783
  100POPC   D2A 4924  29.426   4.900   8.327
  100POPC   C3A 4925  29.099   4.961   7.964
  100POPC   C4A 4926  28.766   5.156   7.671
  100POPC   C1B 4927  29.610   5.265   8.739
  100POPC   C2B 4928  29.691   5.374   8.314
  100POPC   C3B 4929  29.554   5.200   7.926
  100POPC   C4B 4930  29.554   4.780   7.757
  101POPC   NC3 4931  23.562  39.734   9.465
  101POPC   PO4 4932  24.007  40.167   9.635
  101POPC   GL1 4933  23.924  39.979   9.193
  101POPC   GL2 4934  23.571  40.052   9.062
  101POPC   C1A 4935  24.008  39.790   8.777
  101POPC   D2A 4936  23.849  39.927   8.394
  101POPC   C3A 4937  23.864  39.753   7.996
  101POPC   C4A 4938  23.728  39.986   7.623
  101POPC   C1B 4939  23.482  39.736   8.737
  101POPC   C2B 4940  23.434  39.626   8.286
  101POPC   C3B 4941  23.396  39.982   8.000
  101POPC   C4B 4942  23.230  40.054   7.556
  102POPC   NC3 4943  14.683  32.732   9.495
  102POPC   PO4 4944  14.097  33.084   9.541
  102POPC   GL1 4945  14.226  33.179   9.126
  102POPC   GL2 4946  14.497  32.952   9.085
  102POPC   C1A 4947  14.295  33.127   8.670
  102POPC   D2A 4948  14.664  33.011   8.411
  102POPC   C3A 4949  14.545  33.097   7.973
  102POPC   C4A 4950  14.169  33.157   7.665
  102POPC   C1B 4951  14.807  32.724   8.835
  102POPC   C2B 4952  14.790  32.476   8.484
  102POPC   C3B 4953  14.698  32.570   8.088
  102POPC   C4B 4954  14.437  32.670   7.733
  103POPC   NC3 4955   4.149  22.881   9.492
  103POPC   PO4 4956   4.620  23.270   9.649
  103POPC   GL1 4957   4.522  22.894   9.176
  103POPC   GL2 4958   4.216  22.639   9.074
  103POPC   C1A 4959   4.373  22.907   8.691
  103POPC   D2A 4960   4.580  22.741   8.328
  103POPC   C3A 4961   4.377  22.838   7.947
  103POPC   C4A 4962   4.280  23.175   7.651
  103POPC   C1B 4963   3.918  22.642   8.733
  103POPC   C2B 4964   4.053  22.675   8.322
  103POPC   C3B 4965   4.030  22.461   7.956
  103POPC   C4B 4966   3.852  22.595   7.586
  104POPC   NC3 4967   6.607  18.773   9.347
  104POPC   PO4 4968   6.530  19.457   9.522
  104POPC   GL1 4969   6.440  19.209   9.139
  104POPC   GL2 4970   6.802  19.229   9.136
  104POPC   C1A 4971   6.597  18.988   8.728
  104POPC   D2A 4972   6.668  19.106   8.324
  104POPC   C3A 4973   6.572  18.822   8.009
  104POPC   C4A 4974   6.383  18.844   7.651
  104POPC   C1B 4975   7.025  19.297   8.773
  104POPC   C2B 4976   6.975  19.496   8.376
  104POPC   C3B 4977   6.863  19.427   7.963
  104POPC   C4B 4978   6.849  19.105   7.659
  105POPC   NC3 4979  44.956  26.902   9.792
  105POPC   PO4 4980   0.553  27.180   9.592
  105POPC   GL1 4981   0.407  26.931   9.221
  105POPC   GL2 4982   0.599  26.644   9.142
  105POPC   C1A 4983   0.311  26.784   8.760
  105POPC   D2A 4984   0.088  26.909   8.401
  105POPC   C3A 4985   0.368  26.857   8.069
  105POPC   C4A 4986   0.308  26.741   7.624
  105POPC   C1B 4987   0.779  26.943   8.859
  105POPC   C2B 4988   0.626  27.124   8.474
  105POPC   C3B 4989   0.787  27.215   8.076
  105POPC   C4B 4990   0.912  27.393   7.672
  106POPC   NC3 4991  42.804   0.308   9.694
  106POPC   PO4 4992  42.314   0.578   9.504
  106POPC   GL1 4993  42.549   0.380   9.204
  106POPC   GL2 4994  42.285   0.371   8.990
  106POPC   C1A 4995  42.684   0.098   8.864
  106POPC   D2A 4996  42.420   0.007   8.495
  106POPC   C3A 4997  42.604   0.049   8.079
  106POPC   C4A 4998  42.563   0.270   7.685
  106POPC   C1B 4999  42.077   0.664   8.693
  106POPC   C2B 5000  42.277   0.554   8.347
  106POPC   C3B 5001  42.191   0.349   8.002
  106POPC   C4B 5002  42.147   0.624   7.660
  107POPC   NC3 5003  21.800   0.162   9.639
  107POPC   PO4 5004  22.343   0.385   9.505
  107POPC   GL1 5005  22.200   0.484   9.110
  107POPC   GL2 5006  22.016   0.185   9.143
  107POPC   C1A 5007  22.227   0.443   8.653
  107POPC   D2A 5008  22.192   0.412   8.188
  107POPC   C3A 5009  22.376   0.462   7.781
  107POPC   C4A 5010  22.543   0.452   7.382
  107POPC   C1B 5011  21.925   0.004   8.725
  107POPC   C2B 5012  21.988  44.951   8.284
  107POPC   C3B 5013  22.007   0.097   7.835
  107POPC   C4B 5014  22.043   0.240   7.409
  108POPC   NC3 5015  22.283  31.053   9.520
  108POPC   PO4 5016  22.119  31.700   9.562
  108POPC   GL1 5017  22.323  31.508   9.243
  108POPC   GL2 5018  22.050  31.315   9.162
  108POPC   C1A 5019  22.416  31.515   8.796
  108POPC   D2A 5020  22.503  31.277   8.399
  108POPC   C3A 5021  22.317  31.444   8.000
  108POPC   C4A 5022  22.297  31.722   7.651
  108POPC   C1B 5023  21.906  31.398   8.779
  108POPC   C2B 5024  21.953  31.232   8.415
  108POPC   C3B 5025  21.748  31.270   8.049
  108POPC   C4B 5026  21.892  31.391   7.659
  109POPC   NC3 5027  28.613  13.552   9.510
  109POPC   PO4 5028  27.994  13.744   9.564
  109POPC   GL1 5029  28.237  13.832   9.182
  109POPC   GL2 5030  28.096  13.555   8.997
  109POPC   C1A 5031  28.572  13.661   8.869
  109POPC   D2A 5032  28.526  13.320   8.519
  109POPC   C3A 5033  28.618  13.420   8.067
  109POPC   C4A 5034  28.668  13.743   7.764
  109POPC   C1B 5035  28.175  13.762   8.593
  109POPC   C2B 5036  28.338  13.823   8.200
  109POPC   C3B 5037  28.161  13.716   7.811
  109POPC   C4B 5038  28.092  13.965   7.390
  110POPC   NC3 5039  36.033  16.579   9.568
  110POPC   PO4 5040  36.406  17.090   9.219
  110POPC   GL1 5041  36.070  16.860   9.146
  110POPC   GL2 5042  36.198  16.537   9.109
  110POPC   C1A 5043  35.883  16.820   8.775
  110POPC   D2A 5044  35.904  16.575   8.400
  110POPC   C3A 5045  36.062  16.765   8.039
  110POPC   C4A 5046  35.956  16.850   7.612
  110POPC   C1B 5047  36.360  16.642   8.734
  110POPC   C2B 5048  36.449  16.576   8.347
  110POPC   C3B 5049  36.477  16.460   7.947
  110POPC   C4B 5050  36.448  16.758   7.658
  111POPC   NC3 5051  36.811  42.711   9.422
  111POPC   PO4 5052  36.829  43.354   9.554
  111POPC   GL1 5053  36.900  43.198   9.157
  111POPC   GL2 5054  36.748  42.925   8.964
  111POPC   C1A 5055  37.031  43.346   8.763
  111POPC   D2A 5056  36.963  43.489   8.384
  111POPC   C3A 5057  37.071  43.259   8.073
  111POPC   C4A 5058  36.884  43.194   7.713
  111POPC   C1B 5059  37.178  42.874   8.873
  111POPC   C2B 5060  37.353  42.876   8.484
  111POPC   C3B 5061  37.426  42.908   8.077
  111POPC   C4B 5062  37.296  42.931   7.671
  112POPC   NC3 5063  22.672  18.152   9.623
  112POPC   PO4 5064  22.139  18.603   9.540
  112POPC   GL1 5065  22.082  18.194   9.275
  112POPC   GL2 5066  21.744  18.149   9.086
  112POPC   C1A 5067  22.276  17.974   8.896
  112POPC   D2A 5068  22.159  18.034   8.440
  112POPC   C3A 5069  22.440  18.029   8.046
  112POPC   C4A 5070  22.310  18.239   7.631
  112POPC   C1B 5071  21.572  18.415   8.698
  112POPC   C2B 5072  21.657  18.425   8.222
  112POPC   C3B 5073  22.029  18.574   7.950
  112POPC   C4B 5074  22.071  18.685   7.494
  113POPC   NC3 5075  16.319  24.479   9.481
  113POPC   PO4 5076  15.586  24.583   9.608
  113POPC   GL1 5077  15.818  24.366   9.270
  113POPC   GL2 5078  15.994  24.632   9.120
  113POPC   C1A 5079  15.772  24.236   8.836
  113POPC   D2A 5080  15.834  24.108   8.405
  113POPC   C3A 5081  15.900  24.435   8.100
  113POPC   C4A 5082  15.663  24.394   7.734
  113POPC   C1B 5083  16.256  24.475   8.787
  113POPC   C2B 5084  16.342  24.279   8.365
  113POPC   C3B 5085  16.354  24.327   7.895
  113POPC   C4B 5086  16.149  24.597   7.598
  114POPC   NC3 5087  19.514  21.702   9.405
  114POPC   PO4 5088  19.612  21.026   9.469
  114POPC   GL1 5089  19.861  21.088   9.096
  114POPC   GL2 5090  19.819  21.456   9.086
  114POPC   C1A 5091  20.045  21.260   8.702
  114POPC   D2A 5092  19.827  21.525   8.403
  114POPC   C3A 5093  19.852  21.301   8.076
  114POPC   C4A 5094  20.088  21.081   7.827
  114POPC   C1B 5095  19.543  21.681   8.778
  114POPC   C2B 5096  19.420  21.911   8.408
  114POPC   C3B 5097  19.355  21.908   7.980
  114POPC   C4B 5098  19.693  21.694   7.773
  115POPC   NC3 5099   4.640  40.541   9.828
  115POPC   PO4 5100   4.090  40.862   9.531
  115POPC   GL1 5101   4.326  40.777   9.187
  115POPC   GL2 5102   4.218  40.443   9.181
  115POPC   C1A 5103   4.496  40.908   8.781
  115POPC   D2A 5104   4.453  41.260   8.485
  115POPC   C3A 5105   4.537  41.167   8.055
  115POPC   C4A 5106   4.362  41.011   7.664
  115POPC   C1B 5107   4.170  40.481   8.752
  115POPC   C2B 5108   4.358  40.462   8.347
  115POPC   C3B 5109   4.174  40.585   7.961
  115POPC   C4B 5110   4.206  40.513   7.530
  116POPC   NC3 5111  34.272  29.761   9.309
  116POPC   PO4 5112  33.728  29.945   9.798
  116POPC   GL1 5113  33.692  29.857   9.360
  116POPC   GL2 5114  33.879  30.137   9.217
  116POPC   C1A 5115  33.547  29.835   8.913
  116POPC   D2A 5116  33.522  30.195   8.571
  116POPC   C3A 5117  33.742  30.147   8.163
  116POPC   C4A 5118  33.788  30.351   7.744
  116POPC   C1B 5119  33.976  30.067   8.777
  116POPC   C2B 5120  33.985  29.763   8.448
  116POPC   C3B 5121  34.230  29.789   8.060
  116POPC   C4B 5122  34.162  30.024   7.698
  117POPC   NC3 5123  18.085  21.218   9.485
  117POPC   PO4 5124  18.733  21.257   9.402
  117POPC   GL1 5125  18.475  21.264   9.021
  117POPC   GL2 5126  18.108  21.309   8.998
  117POPC   C1A 5127  18.418  21.534   8.638
  117POPC   D2A 5128  18.137  21.714   8.295
  117POPC   C3A 5129  18.337  21.647   7.898
  117POPC   C4A 5130  18.352  21.270   7.691
  117POPC   C1B 5131  17.762  21.092   8.793
  117POPC   C2B 5132  17.699  21.119   8.347
  117POPC   C3B 5133  17.980  21.030   7.960
  117POPC   C4B 5134  17.945  21.079   7.456
  118POPC   NC3 5135  44.128  43.218  10.028
  118POPC   PO4 5136  43.671  43.224   9.511
  118POPC   GL1 5137  43.764  43.096   9.132
  118POPC   GL2 5138  44.099  43.010   9.200
  118POPC   C1A 5139  43.906  43.232   8.745
  118POPC   D2A 5140  44.069  43.184   8.360
  118POPC   C3A 5141  43.857  43.308   7.993
  118POPC   C4A 5142  43.855  43.123   7.602
  118POPC   C1B 5143  44.175  42.786   8.803
  118POPC   C2B 5144  44.086  42.680   8.387
  118POPC   C3B 5145  44.103  42.843   7.967
  118POPC   C4B 5146  44.125  42.722   7.530
  119POPC   NC3 5147  31.959  39.359   9.419
  119POPC   PO4 5148  31.344  39.300   9.577
  119POPC   GL1 5149  31.383  39.117   9.164
  119POPC   GL2 5150  31.695  38.946   9.155
  119POPC   C1A 5151  31.330  39.259   8.752
  119POPC   D2A 5152  31.035  39.312   8.438
  119POPC   C3A 5153  31.280  39.303   8.104
  119POPC   C4A 5154  31.438  39.375   7.743
  119POPC   C1B 5155  31.727  38.939   8.729
  119POPC   C2B 5156  31.725  38.848   8.334
  119POPC   C3B 5157  31.782  39.034   7.947
  119POPC   C4B 5158  31.764  39.085   7.511
  120POPC   NC3 5159  27.699  10.392   9.560
  120POPC   PO4 5160  27.705  11.058   9.801
  120POPC   GL1 5161  27.854  10.965   9.265
  120POPC   GL2 5162  27.904  10.674   9.193
  120POPC   C1A 5163  27.619  10.865   8.793
  120POPC   D2A 5164  27.460  10.886   8.316
  120POPC   C3A 5165  27.431  10.480   8.022
  120POPC   C4A 5166  27.366  10.506   7.529
  120POPC   C1B 5167  28.000  10.517   8.811
  120POPC   C2B 5168  27.834  10.549   8.422
  120POPC   C3B 5169  27.915  10.672   8.022
  120POPC   C4B 5170  27.866  10.462   7.625
  121POPC   NC3 5171  42.457  33.195   9.584
  121POPC   PO4 5172  42.372  33.867   9.525
  121POPC   GL1 5173  42.527  33.838   9.148
  121POPC   GL2 5174  42.435  33.476   9.137
  121POPC   C1A 5175  42.526  34.099   8.766
  121POPC   D2A 5176  42.667  34.231   8.336
  121POPC   C3A 5177  42.641  33.889   8.037
  121POPC   C4A 5178  42.298  33.773   7.751
  121POPC   C1B 5179  42.292  33.627   8.738
  121POPC   C2B 5180  42.054  33.560   8.369
  121POPC   C3B 5181  42.121  33.337   8.008
  121POPC   C4B 5182  42.277  33.296   7.578
  122POPC   NC3 5183   3.202  20.284   9.400
  122POPC   PO4 5184   2.633  19.909   9.605
  122POPC   GL1 5185   2.857  19.890   9.183
  122POPC   GL2 5186   3.174  19.730   9.140
  122POPC   C1A 5187   2.992  19.988   8.750
  122POPC   D2A 5188   3.178  19.778   8.402
  122POPC   C3A 5189   3.004  19.921   8.069
  122POPC   C4A 5190   2.670  19.698   7.916
  122POPC   C1B 5191   3.145  19.443   8.791
  122POPC   C2B 5192   3.193  19.260   8.373
  122POPC   C3B 5193   3.156  19.440   7.968
  122POPC   C4B 5194   3.194  19.699   7.609
  123POPC   NC3 5195  32.503  12.450   9.785
  123POPC   PO4 5196  32.295  13.068   9.471
  123POPC   GL1 5197  32.310  13.006   9.067
  123POPC   GL2 5198  31.961  13.075   9.080
  123POPC   C1A 5199  32.208  12.764   8.717
  123POPC   D2A 5200  32.249  12.535   8.335
  123POPC   C3A 5201  32.381  12.716   7.949
  123POPC   C4A 5202  32.123  12.536   7.640
  123POPC   C1B 5203  32.026  13.267   8.681
  123POPC   C2B 5204  31.971  12.986   8.319
  123POPC   C3B 5205  31.920  12.953   7.875
  123POPC   C4B 5206  32.030  13.066   7.464
  124POPC   NC3 5207  33.647  37.578   9.651
  124POPC   PO4 5208  34.252  37.485   9.479
  124POPC   GL1 5209  33.983  37.742   9.199
  124POPC   GL2 5210  33.606  37.673   9.162
  124POPC   C1A 5211  33.878  37.698   8.740
  124POPC   D2A 5212  34.106  37.747   8.357
  124POPC   C3A 5213  34.005  37.575   7.974
  124POPC   C4A 5214  33.753  37.755   7.712
  124POPC   C1B 5215  33.290  37.472   8.877
  124POPC   C2B 5216  33.163  37.290   8.462
  124POPC   C3B 5217  33.401  37.225   8.072
  124POPC   C4B 5218  33.606  37.283   7.676
  125POPC   NC3 5219  43.410  12.667   9.482
  125POPC   PO4 5220  44.010  13.010   9.493
  125POPC   GL1 5221  43.798  13.168   9.071
  125POPC   GL2 5222  43.441  13.045   9.089
  125POPC   C1A 5223  43.878  13.227   8.598
  125POPC   D2A 5224  44.153  13.080   8.248
  125POPC   C3A 5225  44.016  12.878   7.854
  125POPC   C4A 5226  44.206  12.634   7.510
  125POPC   C1B 5227  43.385  13.092   8.635
  125POPC   C2B 5228  43.564  13.043   8.225
  125POPC   C3B 5229  43.555  13.086   7.790
  125POPC   C4B 5230  43.328  12.980   7.445
  126POPC   NC3 5231  12.226  22.970   9.415
  126POPC   PO4 5232  11.876  23.456   9.705
  126POPC   GL1 5233  11.925  23.269   9.184
  126POPC   GL2 5234  11.921  22.874   9.030
  126POPC   C1A 5235  11.789  23.253   8.734
  126POPC   D2A 5236  11.802  22.911   8.482
  126POPC   C3A 5237  12.024  23.014   8.119
  126POPC   C4A 5238  11.827  22.943   7.753
  126POPC   C1B 5239  12.263  22.914   8.751
  126POPC   C2B 5240  12.442  22.866   8.376
  126POPC   C3B 5241  12.361  22.628   8.046
  126POPC   C4B 5242  12.314  22.802   7.691
  127POPC   NC3 5243  43.904  29.123   9.597
  127POPC   PO4 5244  43.686  28.510   9.422
  127POPC   GL1 5245  43.859  28.904   9.131
  127POPC   GL2 5246  43.831  29.307   9.127
  127POPC   C1A 5247  44.040  29.082   8.724
  127POPC   D2A 5248  43.810  29.129   8.330
  127POPC   C3A 5249  43.983  29.163   7.906
  127POPC   C4A 5250  43.932  29.007   7.515
  127POPC   C1B 5251  43.750  29.514   8.713
  127POPC   C2B 5252  43.761  29.638   8.264
  127POPC   C3B 5253  43.558  29.439   7.889
  127POPC   C4B 5254  43.680  29.466   7.417
  128POPC   NC3 5255  24.231   7.251   9.750
  128POPC   PO4 5256  23.639   7.151   9.535
  128POPC   GL1 5257  23.759   7.292   9.178
  128POPC   GL2 5258  24.110   7.217   9.202
  128POPC   C1A 5259  23.538   7.452   8.824
  128POPC   D2A 5260  23.688   7.576   8.443
  128POPC   C3A 5261  23.548   7.447   8.065
  128POPC   C4A 5262  23.541   7.648   7.691
  128POPC   C1B 5263  24.049   7.543   8.842
  128POPC   C2B 5264  24.179   7.670   8.425
  128POPC   C3B 5265  24.080   7.364   8.128
  128POPC   C4B 5266  23.920   7.323   7.733
  129POPC   NC3 5267  26.371  10.771   9.830
  129POPC   PO4 5268  26.021  10.218   9.655
  129POPC   GL1 5269  25.963  10.387   9.252
  129POPC   GL2 5270  25.990  10.771   9.287
  129POPC   C1A 5271  26.191  10.296   8.860
  129POPC   D2A 5272  26.144  10.403   8.427
  129POPC   C3A 5273  26.200  10.137   8.071
  129POPC   C4A 5274  26.013  10.309   7.662
  129POPC   C1B 5275  25.877  10.711   8.838
  129POPC   C2B 5276  25.722  10.702   8.408
  129POPC   C3B 5277  25.960  10.668   8.003
  129POPC   C4B 5278  25.828  10.769   7.544
  130POPC   NC3 5279  16.323   0.271   9.528
  130POPC   PO4 5280  16.993   0.287   9.572
  130POPC   GL1 5281  16.761   0.472   9.260
  130POPC   GL2 5282  16.907   0.769   9.134
  130POPC   C1A 5283  16.538   0.435   8.889
  130POPC   D2A 5284  16.612   0.459   8.451
  130POPC   C3A 5285  16.415   0.243   8.099
  130POPC   C4A 5286  16.676   0.202   7.763
  130POPC   C1B 5287  17.029   0.509   8.766
  130POPC   C2B 5288  17.080   0.643   8.322
  130POPC   C3B 5289  16.909   0.655   7.886
  130POPC   C4B 5290  16.969   0.466   7.449
  131POPC   NC3 5291  44.911  38.750   9.420
  131POPC   PO4 5292  44.473  38.290   9.569
  131POPC   GL1 5293  44.595  38.388   9.154
  131POPC   GL2 5294  44.939  38.343   9.122
  131POPC   C1A 5295  44.427  38.442   8.717
  131POPC   D2A 5296  44.653  38.471   8.289
  131POPC   C3A 5297  44.370  38.630   8.014
  131POPC   C4A 5298  44.348  38.871   7.676
  131POPC   C1B 5299  44.926  38.357   8.700
  131POPC   C2B 5300   0.071  38.121   8.332
  131POPC   C3B 5301   0.033  38.238   7.944
  131POPC   C4B 5302  44.863  38.645   7.801
  132POPC   NC3 5303   4.729  40.460   9.287
  132POPC   PO4 5304   4.785  40.984   9.687
  132POPC   GL1 5305   5.045  40.935   9.285
  132POPC   GL2 5306   5.293  40.654   9.258
  132POPC   C1A 5307   5.027  40.831   8.841
  132POPC   D2A 5308   4.907  41.025   8.465
  132POPC   C3A 5309   4.798  40.724   8.128
  132POPC   C4A 5310   4.861  40.861   7.709
  132POPC   C1B 5311   5.512  40.621   8.863
  132POPC   C2B 5312   5.674  40.782   8.492
  132POPC   C3B 5313   5.601  40.633   8.081
  132POPC   C4B 5314   5.337  40.606   7.734
  133POPC   NC3 5315  33.451  29.221   9.496
  133POPC   PO4 5316  34.131  29.347   9.501
  133POPC   GL1 5317  33.847  29.412   9.137
  133POPC   GL2 5318  33.721  29.069   9.098
  133POPC   C1A 5319  33.716  29.347   8.675
  133POPC   D2A 5320  33.876  28.998   8.397
  133POPC   C3A 5321  33.946  29.050   7.915
  133POPC   C4A 5322  33.957  28.748   7.499
  133POPC   C1B 5323  33.325  29.030   8.852
  133POPC   C2B 5324  33.236  29.187   8.433
  133POPC   C3B 5325  33.462  29.063   8.080
  133POPC   C4B 5326  33.503  28.852   7.708
  134POPC   NC3 5327  38.554  10.154   9.555
  134POPC   PO4 5328  38.218   9.575   9.427
  134POPC   GL1 5329  38.209   9.879   9.125
  134POPC   GL2 5330  38.557   9.835   9.134
  134POPC   C1A 5331  38.317   9.845   8.688
  134POPC   D2A 5332  38.481   9.578   8.347
  134POPC   C3A 5333  38.313   9.733   7.976
  134POPC   C4A 5334  38.122  10.021   7.713
  134POPC   C1B 5335  38.805   9.928   8.766
  134POPC   C2B 5336  38.718  10.012   8.326
  134POPC   C3B 5337  38.819   9.768   7.955
  134POPC   C4B 5338  38.730   9.325   7.949
  135POPC   NC3 5339  29.411   8.434   9.542
  135POPC   PO4 5340  28.906   8.017   9.494
  135POPC   GL1 5341  29.106   8.323   9.151
  135POPC   GL2 5342  29.470   8.216   9.094
  135POPC   C1A 5343  29.270   8.506   8.737
  135POPC   D2A 5344  29.083   8.329   8.379
  135POPC   C3A 5345  29.064   8.398   7.947
  135POPC   C4A 5346  28.924   8.479   7.532
  135POPC   C1B 5347  29.320   7.866   8.849
  135POPC   C2B 5348  29.411   7.700   8.439
  135POPC   C3B 5349  29.237   7.926   8.093
  135POPC   C4B 5350  29.086   7.929   7.689
  136POPC   NC3 5351  13.440  18.501   9.609
  136POPC   PO4 5352  13.741  17.978   9.497
  136POPC   GL1 5353  13.761  17.956   9.035
  136POPC   GL2 5354  13.729  18.315   8.934
  136POPC   C1A 5355  13.820  17.981   8.590
  136POPC   D2A 5356  13.785  18.360   8.362
  136POPC   C3A 5357  13.414  18.311   8.153
  136POPC   C4A 5358  13.512  18.012   7.872
  136POPC   C1B 5359  14.066  18.593   8.725
  136POPC   C2B 5360  14.213  18.664   8.288
  136POPC   C3B 5361  13.971  18.604   7.888
  136POPC   C4B 5362  13.556  18.517   7.708
  137POPC   NC3 5363  16.436  36.501   9.616
  137POPC   PO4 5364  16.964  36.872   9.663
  137POPC   GL1 5365  16.793  36.884   9.262
  137POPC   GL2 5366  17.028  37.072   9.091
  137POPC   C1A 5367  16.754  36.694   8.853
  137POPC   D2A 5368  16.857  36.481   8.477
  137POPC   C3A 5369  16.836  36.575   8.063
  137POPC   C4A 5370  16.728  36.856   7.718
  137POPC   C1B 5371  17.045  37.089   8.670
  137POPC   C2B 5372  16.824  37.024   8.315
  137POPC   C3B 5373  16.847  37.259   7.954
  137POPC   C4B 5374  17.116  37.211   7.632
  138POPC   NC3 5375  11.519  25.608   9.334
  138POPC   PO4 5376  11.319  26.211   9.603
  138POPC   GL1 5377  11.335  26.065   9.157
  138POPC   GL2 5378  11.224  25.764   8.976
  138POPC   C1A 5379  11.229  26.178   8.721
  138POPC   D2A 5380  11.144  25.951   8.345
  138POPC   C3A 5381  11.288  26.240   8.016
  138POPC   C4A 5382  11.137  26.290   7.599
  138POPC   C1B 5383  11.564  25.809   8.623
  138POPC   C2B 5384  11.658  25.786   8.167
  138POPC   C3B 5385  11.502  25.840   7.740
  138POPC   C4B 5386  11.743  25.826   7.331
  139POPC   NC3 5387   2.093  10.035   9.730
  139POPC   PO4 5388   2.034   9.447   9.516
  139POPC   GL1 5389   2.218   9.669   9.165
  139POPC   GL2 5390   2.278  10.023   9.233
  139POPC   C1A 5391   2.089   9.570   8.752
  139POPC   D2A 5392   1.796   9.528   8.425
  139POPC   C3A 5393   1.976   9.589   8.046
  139POPC   C4A 5394   1.761   9.421   7.713
  139POPC   C1B 5395   2.030  10.061   8.854
  139POPC   C2B 5396   1.999  10.010   8.404
  139POPC   C3B 5397   2.047  10.086   7.966
  139POPC   C4B 5398   2.039   9.852   7.589
  140POPC   NC3 5399   8.430  30.420   9.527
  140POPC   PO4 5400   8.049  31.042   9.526
  140POPC   GL1 5401   8.308  30.833   9.244
  140POPC   GL2 5402   8.022  30.621   9.163
  140POPC   C1A 5403   8.443  30.682   8.832
  140POPC   D2A 5404   8.320  30.624   8.398
  140POPC   C3A 5405   8.521  30.852   8.054
  140POPC   C4A 5406   8.456  30.733   7.643
  140POPC   C1B 5407   8.034  31.006   8.857
  140POPC   C2B 5408   7.999  31.029   8.424
  140POPC   C3B 5409   7.911  30.747   8.082
  140POPC   C4B 5410   7.940  30.792   7.646
  141POPC   NC3 5411  28.134  42.100   9.180
  141POPC   PO4 5412  28.610  42.488   9.511
  141POPC   GL1 5413  28.515  42.447   9.094
  141POPC   GL2 5414  28.643  42.103   9.094
  141POPC   C1A 5415  28.292  42.478   8.673
  141POPC   D2A 5416  27.999  42.184   8.440
  141POPC   C3A 5417  28.179  42.125   8.026
  141POPC   C4A 5418  28.339  42.506   7.808
  141POPC   C1B 5419  28.761  42.224   8.695
  141POPC   C2B 5420  28.991  42.160   8.305
  141POPC   C3B 5421  28.799  42.327   7.947
  141POPC   C4B 5422  28.588  42.059   7.675
  142POPC   NC3 5423  25.719  32.881   9.810
  142POPC   PO4 5424  25.298  33.147   9.567
  142POPC   GL1 5425  25.005  33.020   9.161
  142POPC   GL2 5426  24.875  32.664   9.148
  142POPC   C1A 5427  24.902  33.121   8.686
  142POPC   D2A 5428  24.887  33.238   8.205
  142POPC   C3A 5429  25.229  33.099   7.873
  142POPC   C4A 5430  25.509  33.025   7.500
  142POPC   C1B 5431  25.136  32.669   8.751
  142POPC   C2B 5432  25.171  32.785   8.300
  142POPC   C3B 5433  25.085  32.625   7.887
  142POPC   C4B 5434  25.335  32.503   7.536
  143POPC   NC3 5435  26.260  36.707   9.449
  143POPC   PO4 5436  26.247  35.968   9.470
  143POPC   GL1 5437  25.892  36.035   9.215
  143POPC   GL2 5438  25.817  36.397   9.188
  143POPC   C1A 5439  25.790  36.057   8.782
  143POPC   D2A 5440  25.987  36.047   8.364
  143POPC   C3A 5441  25.779  36.023   7.974
  143POPC   C4A 5442  25.909  35.954   7.558
  143POPC   C1B 5443  26.143  36.418   8.891
  143POPC   C2B 5444  26.240  36.484   8.479
  143POPC   C3B 5445  26.433  36.325   8.118
  143POPC   C4B 5446  26.196  36.311   7.769
  144POPC   NC3 5447  23.572  36.065   9.555
  144POPC   PO4 5448  24.106  36.393   9.296
  144POPC   GL1 5449  23.803  36.214   9.039
  144POPC   GL2 5450  23.458  36.328   9.051
  144POPC   C1A 5451  23.676  36.263   8.595
  144POPC   D2A 5452  23.800  36.512   8.237
  144POPC   C3A 5453  23.727  36.344   7.796
  144POPC   C4A 5454  23.682  35.907   7.734
  144POPC   C1B 5455  23.460  35.882   8.879
  144POPC   C2B 5456  23.541  35.757   8.475
  144POPC   C3B 5457  23.455  36.075   8.162
  144POPC   C4B 5458  23.228  36.218   7.781
  145POPC   NC3 5459  44.646  16.213   9.653
  145POPC   PO4 5460  44.798  16.780   9.820
  145POPC   GL1 5461  44.712  16.705   9.357
  145POPC   GL2 5462  44.949  16.474   9.205
  145POPC   C1A 5463  44.710  16.869   8.898
  145POPC   D2A 5464  44.937  17.007   8.513
  145POPC   C3A 5465  44.798  16.902   8.111
  145POPC   C4A 5466  44.947  16.905   7.700
  145POPC   C1B 5467  44.859  16.282   8.774
  145POPC   C2B 5468  44.609  16.389   8.400
  145POPC   C3B 5469  44.773  16.322   7.989
  145POPC   C4B 5470  44.620  16.516   7.645
  146POPC   NC3 5471   6.291  38.629   9.534
  146POPC   PO4 5472   5.622  38.532   9.599
  146POPC   GL1 5473   5.804  38.593   9.183
  146POPC   GL2 5474   6.101  38.804   9.099
  146POPC   C1A 5475   5.834  38.517   8.739
  146POPC   D2A 5476   5.645  38.482   8.344
  146POPC   C3A 5477   5.784  38.266   7.955
  146POPC   C4A 5478   5.659  38.513   7.604
  146POPC   C1B 5479   6.342  38.605   8.736
  146POPC   C2B 5480   6.152  38.550   8.297
  146POPC   C3B 5481   6.101  38.642   7.867
  146POPC   C4B 5482   6.092  38.583   7.391
  147POPC   NC3 5483  30.293  35.868   9.590
  147POPC   PO4 5484  30.961  35.573   9.562
  147POPC   GL1 5485  30.589  35.550   9.272
  147POPC   GL2 5486  30.572  35.229   9.064
  147POPC   C1A 5487  30.523  35.659   8.822
  147POPC   D2A 5488  30.728  35.417   8.514
  147POPC   C3A 5489  30.538  35.137   8.234
  147POPC   C4A 5490  30.560  35.148   7.787
  147POPC   C1B 5491  30.980  35.145   8.868
  147POPC   C2B 5492  31.066  35.051   8.418
  147POPC   C3B 5493  31.001  35.317   8.055
  147POPC   C4B 5494  31.052  35.270   7.603
  148POPC   NC3 5495  41.439   6.921   9.433
  148POPC   PO4 5496  41.670   6.171   9.471
  148POPC   GL1 5497  41.532   6.387   9.103
  148POPC   GL2 5498  41.727   6.678   9.075
  148POPC   C1A 5499  41.529   6.493   8.631
  148POPC   D2A 5500  41.234   6.331   8.360
  148POPC   C3A 5501  41.282   6.201   7.971
  148POPC   C4A 5502  41.385   6.588   7.824
  148POPC   C1B 5503  41.883   6.860   8.692
  148POPC   C2B 5504  41.778   6.830   8.252
  148POPC   C3B 5505  41.874   6.743   7.822
  148POPC   C4B 5506  41.680   6.702   7.404
  149POPC   NC3 5507  31.939  23.648   9.626
  149POPC   PO4 5508  31.436  23.977   9.670
  149POPC   GL1 5509  31.604  23.867   9.271
  149POPC   GL2 5510  31.586  23.506   9.271
  149POPC   C1A 5511  31.587  23.981   8.834
  149POPC   D2A 5512  31.686  23.884   8.420
  149POPC   C3A 5513  31.340  23.931   8.152
  149POPC   C4A 5514  31.449  23.883   7.731
  149POPC   C1B 5515  31.688  23.470   8.852
  149POPC   C2B 5516  31.507  23.389   8.462
  149POPC   C3B 5517  31.632  23.512   8.064
  149POPC   C4B 5518  31.485  23.380   7.691
  150POPC   NC3 5519  30.270  41.023   9.494
  150POPC   PO4 5520  29.825  41.523   9.678
  150POPC   GL1 5521  29.832  41.297   9.304
  150POPC   GL2 5522  30.128  41.454   9.210
  150POPC   C1A 5523  29.741  41.315   8.860
  150POPC   D2A 5524  29.696  41.622   8.516
  150POPC   C3A 5525  29.781  41.526   8.084
  150POPC   C4A 5526  29.774  41.276   7.711
  150POPC   C1B 5527  30.126  41.758   8.851
  150POPC   C2B 5528  30.122  41.924   8.426
  150POPC   C3B 5529  30.233  41.776   8.023
  150POPC   C4B 5530  30.099  41.653   7.655
  151POPC   NC3 5531  22.105  14.654   9.596
  151POPC   PO4 5532  22.651  14.667   9.286
  151POPC   GL1 5533  22.240  14.497   9.110
  151POPC   GL2 5534  21.950  14.754   9.121
  151POPC   C1A 5535  22.192  14.183   8.753
  151POPC   D2A 5536  21.974  14.013   8.381
  151POPC   C3A 5537  22.163  14.210   8.050
  151POPC   C4A 5538  22.120  14.349   7.665
  151POPC   C1B 5539  21.846  14.553   8.751
  151POPC   C2B 5540  21.945  14.523   8.366
  151POPC   C3B 5541  21.881  14.695   7.955
  151POPC   C4B 5542  21.489  14.766   7.711
  152POPC   NC3 5543  32.877  20.778   9.735
  152POPC   PO4 5544  32.725  20.177   9.472
  152POPC   GL1 5545  33.038  20.488   9.314
  152POPC   GL2 5546  32.905  20.818   9.213
  152POPC   C1A 5547  33.205  20.417   8.906
  152POPC   D2A 5548  33.092  20.331   8.492
  152POPC   C3A 5549  33.416  20.419   8.211
  152POPC   C4A 5550  33.326  20.529   7.794
  152POPC   C1B 5551  33.006  20.889   8.805
  152POPC   C2B 5552  32.790  20.799   8.454
  152POPC   C3B 5553  33.063  20.814   8.132
  152POPC   C4B 5554  33.016  20.920   7.716
  153POPC   NC3 5555  35.298   6.717   9.494
  153POPC   PO4 5556  35.709   6.148   9.251
  153POPC   GL1 5557  35.567   6.567   9.079
  153POPC   GL2 5558  35.188   6.636   9.018
  153POPC   C1A 5559  35.537   6.710   8.642
  153POPC   D2A 5560  35.579   6.381   8.316
  153POPC   C3A 5561  35.513   6.473   7.882
  153POPC   C4A 5562  35.327   6.409   7.481
  153POPC   C1B 5563  35.034   6.632   8.619
  153POPC   C2B 5564  35.205   6.737   8.220
  153POPC   C3B 5565  35.144   6.813   7.790
  153POPC   C4B 5566  34.849   7.098   7.638
  154POPC   NC3 5567  20.426  34.207   9.572
  154POPC   PO4 5568  20.770  33.579   9.545
  154POPC   GL1 5569  20.630  33.635   9.139
  154POPC   GL2 5570  20.453  33.947   9.120
  154POPC   C1A 5571  20.752  33.785   8.712
  154POPC   D2A 5572  20.867  34.026   8.321
  154POPC   C3A 5573  20.753  33.698   7.992
  154POPC   C4A 5574  20.687  33.442   7.607
  154POPC   C1B 5575  20.238  33.928   8.731
  154POPC   C2B 5576  20.375  33.962   8.331
  154POPC   C3B 5577  20.487  34.120   7.934
  154POPC   C4B 5578  20.272  34.134   7.542
  155POPC   NC3 5579  19.715   5.086   9.653
  155POPC   PO4 5580  20.206   5.004   9.225
  155POPC   GL1 5581  19.811   4.920   9.117
  155POPC   GL2 5582  19.667   5.230   9.177
  155POPC   C1A 5583  19.729   4.899   8.689
  155POPC   D2A 5584  20.036   5.084   8.394
  155POPC   C3A 5585  19.998   4.925   8.006
  155POPC   C4A 5586  19.674   4.841   7.725
  155POPC   C1B 5587  19.856   5.382   8.793
  155POPC   C2B 5588  19.713   5.521   8.424
  155POPC   C3B 5589  19.614   5.274   8.078
  155POPC   C4B 5590  19.878   5.318   7.723
  156POPC   NC3 5591  20.535  31.266   9.587
  156POPC   PO4 5592  20.734  30.589   9.749
  156POPC   GL1 5593  20.635  30.522   9.306
  156POPC   GL2 5594  20.468  30.821   9.311
  156POPC   C1A 5595  20.756  30.634   8.868
  156POPC   D2A 5596  20.673  30.431   8.460
  156POPC   C3A 5597  20.754  30.705   8.120
  156POPC   C4A 5598  20.787  30.485   7.755
  156POPC   C1B 5599  20.313  30.909   8.903
  156POPC   C2B 5600  20.427  30.882   8.506
  156POPC   C3B 5601  20.294  30.987   8.105
  156POPC   C4B 5602  20.468  30.885   7.724
  157POPC   NC3 5603  13.474  11.273   9.617
  157POPC   PO4 5604  13.450  11.881   9.544
  157POPC   GL1 5605  13.268  11.607   9.210
  157POPC   GL2 5606  13.346  11.226   9.135
  157POPC   C1A 5607  13.439  11.589   8.797
  157POPC   D2A 5608  13.805  11.363   8.636
  157POPC   C3A 5609  13.788  11.306   8.202
  157POPC   C4A 5610  13.679  11.483   7.826
  157POPC   C1B 5611  13.377  10.920   8.820
  157POPC   C2B 5612  13.536  10.899   8.416
  157POPC   C3B 5613  13.403  11.024   8.004
  157POPC   C4B 5614  13.622  11.026   7.623
  158POPC   NC3 5615  31.372  28.165   9.410
  158POPC   PO4 5616  31.189  28.742   9.316
  158POPC   GL1 5617  31.525  28.543   9.080
  158POPC   GL2 5618  31.863  28.689   9.130
  158POPC   C1A 5619  31.458  28.222   8.736
  158POPC   D2A 5620  31.115  28.128   8.430
  158POPC   C3A 5621  31.180  28.364   8.046
  158POPC   C4A 5622  31.292  28.375   7.638
  158POPC   C1B 5623  31.944  28.416   8.769
  158POPC   C2B 5624  31.910  28.208   8.387
  158POPC   C3B 5625  31.715  28.291   7.999
  158POPC   C4B 5626  31.742  28.619   7.698
  159POPC   NC3 5627  43.448  33.058   9.591
  159POPC   PO4 5628  42.763  32.836   9.549
  159POPC   GL1 5629  43.042  32.938   9.203
  159POPC   GL2 5630  43.345  33.153   9.117
  159POPC   C1A 5631  42.904  33.169   8.845
  159POPC   D2A 5632  42.959  33.240   8.396
  159POPC   C3A 5633  42.880  32.873   8.078
  159POPC   C4A 5634  43.124  32.611   7.767
  159POPC   C1B 5635  43.351  32.970   8.705
  159POPC   C2B 5636  43.352  32.918   8.278
  159POPC   C3B 5637  43.356  33.068   7.884
  159POPC   C4B 5638  43.563  33.042   7.487
  160POPC   NC3 5639  28.863   1.541   9.537
  160POPC   PO4 5640  29.518   1.451   9.495
  160POPC   GL1 5641  29.259   1.188   9.247
  160POPC   GL2 5642  29.047   1.396   9.099
  160POPC   C1A 5643  29.299   1.048   8.810
  160POPC   D2A 5644  29.047   1.093   8.471
  160POPC   C3A 5645  29.131   0.984   8.057
  160POPC   C4A 5646  29.171   0.799   7.681
  160POPC   C1B 5647  28.850   1.472   8.734
  160POPC   C2B 5648  29.011   1.589   8.346
  160POPC   C3B 5649  28.931   1.457   7.958
  160POPC   C4B 5650  29.060   1.267   7.582
  161POPC   NC3 5651   5.946  41.245   9.537
  161POPC   PO4 5652   5.606  41.810   9.584
  161POPC   GL1 5653   5.784  41.561   9.189
  161POPC   GL2 5654   6.173  41.554   9.205
  161POPC   C1A 5655   5.643  41.617   8.768
  161POPC   D2A 5656   5.821  41.513   8.383
  161POPC   C3A 5657   5.605  41.518   7.977
  161POPC   C4A 5658   5.609  41.840   7.660
  161POPC   C1B 5659   6.314  41.465   8.787
  161POPC   C2B 5660   6.297  41.670   8.374
  161POPC   C3B 5661   6.146  41.504   7.961
  161POPC   C4B 5662   6.118  41.147   7.680
  162POPC   NC3 5663  26.650  41.848   9.510
  162POPC   PO4 5664  27.046  41.229   9.507
  162POPC   GL1 5665  26.770  41.449   9.225
  162POPC   GL2 5666  26.956  41.751   9.116
  162POPC   C1A 5667  26.606  41.523   8.816
  162POPC   D2A 5668  26.747  41.327   8.456
  162POPC   C3A 5669  26.803  41.461   8.053
  162POPC   C4A 5670  26.555  41.470   7.680
  162POPC   C1B 5671  27.073  41.675   8.685
  162POPC   C2B 5672  27.325  41.577   8.340
  162POPC   C3B 5673  27.238  41.704   7.940
  162POPC   C4B 5674  27.100  41.470   7.617
  163POPC   NC3 5675  32.807  37.623   9.438
  163POPC   PO4 5676  33.391  37.980   9.596
  163POPC   GL1 5677  33.098  37.976   9.186
  163POPC   GL2 5678  32.693  37.932   9.052
  163POPC   C1A 5679  33.039  38.081   8.740
  163POPC   D2A 5680  32.856  37.904   8.347
  163POPC   C3A 5681  33.215  37.738   8.122
  163POPC   C4A 5682  33.203  37.584   7.724
  163POPC   C1B 5683  32.795  37.580   8.762
  163POPC   C2B 5684  32.636  37.310   8.436
  163POPC   C3B 5685  32.828  37.407   8.052
  163POPC   C4B 5686  32.697  37.555   7.678
  164POPC   NC3 5687  24.939  33.421   9.494
  164POPC   PO4 5688  24.315  32.984   9.477
  164POPC   GL1 5689  24.466  32.989   9.071
  164POPC   GL2 5690  24.383  32.651   9.005
  164POPC   C1A 5691  24.386  33.147   8.656
  164POPC   D2A 5692  24.234  33.438   8.343
  164POPC   C3A 5693  24.371  33.278   7.925
  164POPC   C4A 5694  24.677  32.934   7.818
  164POPC   C1B 5695  24.084  32.735   8.687
  164POPC   C2B 5696  24.108  32.909   8.287
  164POPC   C3B 5697  24.136  32.795   7.872
  164POPC   C4B 5698  24.250  32.679   7.494
  165POPC   NC3 5699  33.644  19.326   9.588
  165POPC   PO4 5700  34.193  18.896   9.632
  165POPC   GL1 5701  33.987  19.004   9.196
  165POPC   GL2 5702  33.620  19.042   9.132
  165POPC   C1A 5703  33.888  18.936   8.715
  165POPC   D2A 5704  33.792  18.723   8.310
  165POPC   C3A 5705  34.038  18.898   7.972
  165POPC   C4A 5706  34.153  19.344   7.960
  165POPC   C1B 5707  33.316  19.263   8.834
  165POPC   C2B 5708  33.308  19.367   8.426
  165POPC   C3B 5709  33.639  19.221   8.146
  165POPC   C4B 5710  33.596  18.996   7.766
  166POPC   NC3 5711  18.536  44.287   9.634
  166POPC   PO4 5712  18.295  43.594   9.536
  166POPC   GL1 5713  18.321  43.799   9.179
  166POPC   GL2 5714  18.201  44.111   9.244
  166POPC   C1A 5715  18.203  43.696   8.782
  166POPC   D2A 5716  18.404  43.472   8.472
  166POPC   C3A 5717  18.248  43.653   8.105
  166POPC   C4A 5718  18.358  43.584   7.690
  166POPC   C1B 5719  18.394  44.234   8.829
  166POPC   C2B 5720  18.404  44.045   8.441
  166POPC   C3B 5721  18.338  44.207   8.053
  166POPC   C4B 5722  18.223  44.321   7.605
  167POPC   NC3 5723  32.614  17.690   9.433
  167POPC   PO4 5724  32.122  17.213   9.610
  167POPC   GL1 5725  32.113  17.226   9.160
  167POPC   GL2 5726  32.236  17.565   9.111
  167POPC   C1A 5727  32.346  17.244   8.741
  167POPC   D2A 5728  32.614  17.441   8.421
  167POPC   C3A 5729  32.373  17.371   8.057
  167POPC   C4A 5730  32.458  17.448   7.633
  167POPC   C1B 5731  32.501  17.789   8.779
  167POPC   C2B 5732  32.556  17.982   8.367
  167POPC   C3B 5733  32.589  17.840   7.952
  167POPC   C4B 5734  32.586  17.906   7.497
  168POPC   NC3 5735  17.963  37.058   9.475
  168POPC   PO4 5736  18.602  37.129   9.356
  168POPC   GL1 5737  18.270  36.919   9.090
  168POPC   GL2 5738  17.981  37.130   8.976
  168POPC   C1A 5739  18.279  36.691   8.725
  168POPC   D2A 5740  18.484  36.834   8.320
  168POPC   C3A 5741  18.311  36.827   7.915
  168POPC   C4A 5742  18.432  37.081   7.548
  168POPC   C1B 5743  18.262  37.192   8.636
  168POPC   C2B 5744  18.271  37.286   8.203
  168POPC   C3B 5745  18.063  37.256   7.841
  168POPC   C4B 5746  17.935  37.354   7.421
  169POPC   NC3 5747  31.582  40.125   9.635
  169POPC   PO4 5748  31.032  40.241   9.447
  169POPC   GL1 5749  31.314  40.134   9.118
  169POPC   GL2 5750  31.705  40.178   9.140
  169POPC   C1A 5751  31.314  40.096   8.651
  169POPC   D2A 5752  31.207  39.770   8.329
  169POPC   C3A 5753  31.355  39.847   7.917
  169POPC   C4A 5754  31.293  40.252   7.823
  169POPC   C1B 5755  31.831  39.978   8.742
  169POPC   C2B 5756  31.691  39.947   8.304
  169POPC   C3B 5757  31.839  40.040   7.883
  169POPC   C4B 5758  32.116  39.908   7.530
  170POPC   NC3 5759  31.247  10.803   9.803
  170POPC   PO4 5760  30.767  10.397   9.459
  170POPC   GL1 5761  30.683  10.346   9.092
  170POPC   GL2 5762  31.041  10.294   9.018
  170POPC   C1A 5763  30.642  10.597   8.757
  170POPC   D2A 5764  30.951  10.674   8.453
  170POPC   C3A 5765  30.823  10.782   8.044
  170POPC   C4A 5766  30.503  10.548   7.812
  170POPC   C1B 5767  30.840  10.151   8.647
  170POPC   C2B 5768  30.686  10.224   8.244
  170POPC   C3B 5769  30.925  10.263   7.885
  170POPC   C4B 5770  30.822  10.230   7.457
  171POPC   NC3 5771  19.941  18.597   9.534
  171POPC   PO4 5772  19.453  18.155   9.613
  171POPC   GL1 5773  19.605  18.315   9.227
  171POPC   GL2 5774  19.961  18.290   9.119
  171POPC   C1A 5775  19.552  18.273   8.784
  171POPC   D2A 5776  19.433  18.426   8.378
  171POPC   C3A 5777  19.619  18.240   8.033
  171POPC   C4A 5778  19.638  18.358   7.626
  171POPC   C1B 5779  20.059  17.972   8.788
  171POPC   C2B 5780  19.990  17.946   8.336
  171POPC   C3B 5781  20.117  18.221   7.963
  171POPC   C4B 5782  20.124  18.302   7.500
  172POPC   NC3 5783  23.226  27.374   9.495
  172POPC   PO4 5784  22.894  27.965   9.609
  172POPC   GL1 5785  22.882  27.652   9.249
  172POPC   GL2 5786  22.707  27.898   9.121
  172POPC   C1A 5787  23.071  27.381   8.856
  172POPC   D2A 5788  23.282  27.391   8.421
  172POPC   C3A 5789  23.137  27.172   8.044
  172POPC   C4A 5790  23.018  27.374   7.654
  172POPC   C1B 5791  22.937  27.893   8.785
  172POPC   C2B 5792  22.888  28.007   8.416
  172POPC   C3B 5793  22.984  27.727   8.127
  172POPC   C4B 5794  22.756  27.792   7.790
  173POPC   NC3 5795  30.364   8.147   9.642
  173POPC   PO4 5796  31.088   7.962   9.666
  173POPC   GL1 5797  30.851   7.917   9.284
  173POPC   GL2 5798  31.184   7.837   9.156
  173POPC   C1A 5799  30.671   7.872   8.859
  173POPC   D2A 5800  30.665   8.174   8.518
  173POPC   C3A 5801  30.650   8.040   8.100
  173POPC   C4A 5802  30.691   8.115   7.692
  173POPC   C1B 5803  31.150   8.040   8.751
  173POPC   C2B 5804  31.096   7.930   8.317
  173POPC   C3B 5805  31.151   8.006   7.869
  173POPC   C4B 5806  31.161   7.983   7.404
  174POPC   NC3 5807  31.394  32.046   9.783
  174POPC   PO4 5808  31.558  32.545   9.450
  174POPC   GL1 5809  31.488  32.137   9.249
  174POPC   GL2 5810  31.185  31.916   9.277
  174POPC   C1A 5811  31.602  32.204   8.824
  174POPC   D2A 5812  31.471  32.524   8.515
  174POPC   C3A 5813  31.674  32.472   8.136
  174POPC   C4A 5814  31.485  32.528   7.750
  174POPC   C1B 5815  31.143  31.963   8.829
  174POPC   C2B 5816  31.370  31.998   8.416
  174POPC   C3B 5817  31.254  32.161   8.031
  174POPC   C4B 5818  31.299  32.088   7.603
  175POPC   NC3 5819  11.037   1.824   9.529
  175POPC   PO4 5820  11.289   2.400   9.659
  175POPC   GL1 5821  11.161   2.244   9.233
  175POPC   GL2 5822  11.459   2.128   9.114
  175POPC   C1A 5823  11.084   1.941   8.838
  175POPC   D2A 5824  11.271   1.681   8.463
  175POPC   C3A 5825  11.108   1.764   8.064
  175POPC   C4A 5826  10.993   1.919   7.688
  175POPC   C1B 5827  11.584   1.777   8.850
  175POPC   C2B 5828  11.781   1.832   8.475
  175POPC   C3B 5829  11.639   1.731   8.080
  175POPC   C4B 5830  11.500   1.935   7.724
  176POPC   NC3 5831  11.785   0.627   9.487
  176POPC   PO4 5832  12.353   0.267   9.528
  176POPC   GL1 5833  12.182   0.522   9.164
  176POPC   GL2 5834  11.889   0.322   9.095
  176POPC   C1A 5835  12.163   0.819   8.791
  176POPC   D2A 5836  11.921   0.848   8.397
  176POPC   C3A 5837  12.076   0.775   7.997
  176POPC   C4A 5838  11.966   0.782   7.563
  176POPC   C1B 5839  11.993   0.358   8.665
  176POPC   C2B 5840  11.880   0.254   8.258
  176POPC   C3B 5841  12.142   0.266   7.912
  176POPC   C4B 5842  12.328   0.058   7.593
  177POPC   NC3 5843  24.684  30.614   9.412
  177POPC   PO4 5844  25.391  30.619   9.597
  177POPC   GL1 5845  25.233  30.521   9.212
  177POPC   GL2 5846  25.435  30.205   9.202
  177POPC   C1A 5847  25.251  30.701   8.777
  177POPC   D2A 5848  24.981  30.809   8.393
  177POPC   C3A 5849  25.113  30.848   7.970
  177POPC   C4A 5850  25.087  31.258   7.761
  177POPC   C1B 5851  25.585  30.308   8.791
  177POPC   C2B 5852  25.673  30.419   8.344
  177POPC   C3B 5853  25.499  30.451   7.900
  177POPC   C4B 5854  25.509  30.405   7.406
  178POPC   NC3 5855  36.625  13.243   9.574
  178POPC   PO4 5856  37.086  13.878   9.659
  178POPC   GL1 5857  36.830  13.669   9.327
  178POPC   GL2 5858  37.037  13.397   9.218
  178POPC   C1A 5859  36.654  13.593   8.892
  178POPC   D2A 5860  36.497  13.719   8.480
  178POPC   C3A 5861  36.774  13.726   8.114
  178POPC   C4A 5862  36.634  13.572   7.744
  178POPC   C1B 5863  36.949  13.182   8.855
  178POPC   C2B 5864  36.892  13.357   8.459
  178POPC   C3B 5865  37.037  13.257   8.039
  178POPC   C4B 5866  36.806  13.112   7.711
  179POPC   NC3 5867  30.870  29.053   9.414
  179POPC   PO4 5868  30.410  29.440   9.715
  179POPC   GL1 5869  30.635  29.443   9.205
  179POPC   GL2 5870  30.624  29.070   8.963
  179POPC   C1A 5871  30.895  29.454   8.823
  179POPC   D2A 5872  30.768  29.170   8.490
  179POPC   C3A 5873  30.611  29.380   8.176
  179POPC   C4A 5874  30.887  29.408   7.878
  179POPC   C1B 5875  30.529  28.713   8.624
  179POPC   C2B 5876  30.284  28.693   8.203
  179POPC   C3B 5877  30.360  28.777   7.772
  179POPC   C4B 5878  30.480  29.207   7.657
  180POPC   NC3 5879  41.846   3.461   9.536
  180POPC   PO4 5880  41.203   3.300   9.398
  180POPC   GL1 5881  41.492   3.621   9.129
  180POPC   GL2 5882  41.870   3.746   9.122
  180POPC   C1A 5883  41.649   3.549   8.715
  180POPC   D2A 5884  41.410   3.571   8.373
  180POPC   C3A 5885  41.612   3.390   8.085
  180POPC   C4A 5886  41.375   3.554   7.791
  180POPC   C1B 5887  41.794   4.025   8.777
  180POPC   C2B 5888  41.668   4.034   8.403
  180POPC   C3B 5889  41.879   3.831   8.092
  180POPC   C4B 5890  41.794   3.827   7.687
  181POPC   NC3 5891  10.569  31.677   9.819
  181POPC   PO4 5892  10.094  31.280   9.743
  181POPC   GL1 5893  10.232  31.690   9.411
  181POPC   GL2 5894  10.601  31.689   9.254
  181POPC   C1A 5895  10.252  31.783   8.907
  181POPC   D2A 5896  10.471  31.444   8.617
  181POPC   C3A 5897  10.500  31.375   8.163
  181POPC   C4A 5898  10.433  31.252   7.739
  181POPC   C1B 5899  10.753  31.829   8.812
  181POPC   C2B 5900  10.688  31.843   8.298
  181POPC   C3B 5901  10.655  31.723   7.793
  181POPC   C4B 5902  10.591  31.534   7.297
  182POPC   NC3 5903   7.428   8.578   9.424
  182POPC   PO4 5904   7.392   9.236   9.506
  182POPC   GL1 5905   7.219   9.042   9.187
  182POPC   GL2 5906   7.563   8.961   9.072
  182POPC   C1A 5907   7.154   8.857   8.796
  182POPC   D2A 5908   7.522   8.913   8.509
  182POPC   C3A 5909   7.427   8.963   8.070
  182POPC   C4A 5910   7.206   8.754   7.719
  182POPC   C1B 5911   7.860   8.699   8.850
  182POPC   C2B 5912   8.030   8.830   8.481
  182POPC   C3B 5913   7.903   8.806   8.065
  182POPC   C4B 5914   7.715   8.827   7.683
  183POPC   NC3 5915  40.586  14.852   9.453
  183POPC   PO4 5916  40.955  15.489   9.411
  183POPC   GL1 5917  40.986  15.178   9.137
  183POPC   GL2 5918  40.624  15.184   9.063
  183POPC   C1A 5919  40.963  15.215   8.695
  183POPC   D2A 5920  41.112  15.469   8.400
  183POPC   C3A 5921  40.970  15.289   8.026
  183POPC   C4A 5922  41.162  15.137   7.660
  183POPC   C1B 5923  40.464  14.922   8.715
  183POPC   C2B 5924  40.613  14.838   8.270
  183POPC   C3B 5925  40.683  14.871   7.803
  183POPC   C4B 5926  40.408  14.919   7.418
  184POPC   NC3 5927  40.610  43.486   9.479
  184POPC   PO4 5928  40.804  42.844   9.732
  184POPC   GL1 5929  40.861  43.037   9.305
  184POPC   GL2 5930  40.513  43.096   9.146
  184POPC   C1A 5931  40.964  43.129   8.862
  184POPC   D2A 5932  40.734  42.994   8.509
  184POPC   C3A 5933  40.843  43.123   8.093
  184POPC   C4A 5934  41.002  43.252   7.676
  184POPC   C1B 5935  40.526  43.382   8.779
  184POPC   C2B 5936  40.577  43.487   8.327
  184POPC   C3B 5937  40.515  43.417   7.857
  184POPC   C4B 5938  40.591  43.407   7.398
  185POPC   NC3 5939   6.646   1.407   9.465
  185POPC   PO4 5940   6.888   0.704   9.478
  185POPC   GL1 5941   6.724   0.938   9.175
  185POPC   GL2 5942   6.988   1.143   9.178
  185POPC   C1A 5943   6.565   1.099   8.797
  185POPC   D2A 5944   6.354   0.973   8.387
  185POPC   C3A 5945   6.464   1.240   8.072
  185POPC   C4A 5946   6.605   1.154   7.693
  185POPC   C1B 5947   7.103   1.110   8.779
  185POPC   C2B 5948   6.889   1.077   8.399
  185POPC   C3B 5949   7.004   1.064   7.991
  185POPC   C4B 5950   7.129   1.194   7.591
  186POPC   NC3 5951  26.854  13.420   9.458
  186POPC   PO4 5952  27.121  13.968   9.588
  186POPC   GL1 5953  26.939  13.851   9.173
  186POPC   GL2 5954  26.591  13.825   9.215
  186POPC   C1A 5955  26.893  13.664   8.756
  186POPC   D2A 5956  26.602  13.419   8.457
  186POPC   C3A 5957  26.724  13.479   7.997
  186POPC   C4A 5958  27.171  13.534   7.844
  186POPC   C1B 5959  26.403  13.758   8.815
  186POPC   C2B 5960  26.456  13.912   8.398
  186POPC   C3B 5961  26.296  13.857   8.026
  186POPC   C4B 5962  26.387  13.715   7.667
  187POPC   NC3 5963  24.523  13.027   9.469
  187POPC   PO4 5964  24.404  13.679   9.668
  187POPC   GL1 5965  24.461  13.576   9.238
  187POPC   GL2 5966  24.251  13.317   9.143
  187POPC   C1A 5967  24.671  13.669   8.842
  187POPC   D2A 5968  24.785  13.473   8.433
  187POPC   C3A 5969  24.600  13.677   8.064
  187POPC   C4A 5970  24.192  13.673   7.835
  187POPC   C1B 5971  24.362  13.238   8.712
  187POPC   C2B 5972  24.345  13.068   8.284
  187POPC   C3B 5973  24.192  13.154   7.866
  187POPC   C4B 5974  24.269  13.313   7.458
  188POPC   NC3 5975  36.256  44.264   9.644
  188POPC   PO4 5976  35.994  44.812   9.718
  188POPC   GL1 5977  36.105  44.811   9.270
  188POPC   GL2 5978  36.325  44.530   9.213
  188POPC   C1A 5979  35.933  44.844   8.832
  188POPC   D2A 5980  35.889  44.541   8.482
  188POPC   C3A 5981  36.101  44.761   8.167
  188POPC   C4A 5982  35.850  44.989   7.895
  188POPC   C1B 5983  36.263  44.335   8.796
  188POPC   C2B 5984  36.318  44.256   8.335
  188POPC   C3B 5985  36.091  44.331   7.931
  188POPC   C4B 5986  36.310  44.461   7.538
  189POPC   NC3 5987  28.520  44.882   9.566
  189POPC   PO4 5988  28.153  44.292   9.359
  189POPC   GL1 5989  28.433  44.531   9.075
  189POPC   GL2 5990  28.461  44.898   9.075
  189POPC   C1A 5991  28.330  44.683   8.642
  189POPC   D2A 5992  28.013  44.730   8.364
  189POPC   C3A 5993  28.184  44.611   7.966
  189POPC   C4A 5994  28.605  44.563   7.833
  189POPC   C1B 5995  28.102   0.093   8.850
  189POPC   C2B 5996  28.153   0.222   8.422
  189POPC   C3B 5997  28.012   0.104   8.018
  189POPC   C4B 5998  28.372   0.052   7.768
  190POPC   NC3 5999  12.036  31.220   9.465
  190POPC   PO4 6000  11.640  31.794   9.510
  190POPC   GL1 6001  11.833  31.564   9.143
  190POPC   GL2 6002  11.889  31.198   8.983
  190POPC   C1A 6003  12.043  31.626   8.727
  190POPC   D2A 6004  12.033  31.418   8.322
  190POPC   C3A 6005  12.013  31.573   7.896
  190POPC   C4A 6006  11.758  31.437   7.584
  190POPC   C1B 6007  12.331  31.195   8.792
  190POPC   C2B 6008  12.523  31.267   8.364
  190POPC   C3B 6009  12.322  31.172   7.950
  190POPC   C4B 6010  12.166  31.124   7.513
  191POPC   NC3 6011  44.495  42.289   9.971
  191POPC   PO4 6012  44.867  42.484   9.495
  191POPC   GL1 6013  44.862  42.352   9.121
  191POPC   GL2 6014   0.115  42.573   9.008
  191POPC   C1A 6015  44.474  42.283   8.867
  191POPC   D2A 6016  44.374  42.249   8.436
  191POPC   C3A 6017  44.482  42.534   8.103
  191POPC   C4A 6018  44.448  42.382   7.674
  191POPC   C1B 6019  44.843  42.547   8.662
  191POPC   C2B 6020  44.881  42.354   8.334
  191POPC   C3B 6021  44.959  42.513   7.943
  191POPC   C4B 6022  44.964  42.516   7.526
  192POPC   NC3 6023  27.968  18.879   9.439
  192POPC   PO4 6024  28.647  19.146   9.472
  192POPC   GL1 6025  28.418  19.032   9.123
  192POPC   GL2 6026  28.345  18.699   9.126
  192POPC   C1A 6027  28.414  19.243   8.731
  192POPC   D2A 6028  28.649  19.408   8.396
  192POPC   C3A 6029  28.414  19.389   8.042
  192POPC   C4A 6030  28.531  19.081   7.738
  192POPC   C1B 6031  28.099  18.824   8.742
  192POPC   C2B 6032  28.141  19.040   8.323
  192POPC   C3B 6033  28.062  18.931   7.857
  192POPC   C4B 6034  28.057  18.888   7.376
  193POPC   NC3 6035  34.033   7.551   9.752
  193POPC   PO4 6036  33.438   7.347   9.629
  193POPC   GL1 6037  33.611   7.594   9.258
  193POPC   GL2 6038  33.998   7.637   9.235
  193POPC   C1A 6039  33.615   7.495   8.800
  193POPC   D2A 6040  33.526   7.214   8.432
  193POPC   C3A 6041  33.718   7.183   8.026
  193POPC   C4A 6042  33.699   7.468   7.673
  193POPC   C1B 6043  34.191   7.550   8.827
  193POPC   C2B 6044  33.991   7.455   8.437
  193POPC   C3B 6045  33.859   7.689   8.114
  193POPC   C4B 6046  34.231   7.795   7.893
  194POPC   NC3 6047  30.330   1.835   9.538
  194POPC   PO4 6048  29.857   2.312   9.560
  194POPC   GL1 6049  29.888   2.012   9.207
  194POPC   GL2 6050  30.213   2.010   9.076
  194POPC   C1A 6051  29.816   1.945   8.777
  194POPC   D2A 6052  30.126   2.079   8.468
  194POPC   C3A 6053  29.970   2.322   8.113
  194POPC   C4A 6054  29.826   2.158   7.727
  194POPC   C1B 6055  30.245   1.639   8.788
  194POPC   C2B 6056  30.185   1.579   8.330
  194POPC   C3B 6057  30.153   1.851   7.963
  194POPC   C4B 6058  30.176   1.821   7.492
  195POPC   NC3 6059  28.001  29.633   9.378
  195POPC   PO4 6060  28.617  29.279   9.498
  195POPC   GL1 6061  28.467  29.114   9.099
  195POPC   GL2 6062  28.221  28.833   9.103
  195POPC   C1A 6063  28.321  29.227   8.704
  195POPC   D2A 6064  28.155  29.357   8.312
  195POPC   C3A 6065  28.441  29.435   7.958
  195POPC   C4A 6066  28.372  29.596   7.518
  195POPC   C1B 6067  28.014  28.785   8.731
  195POPC   C2B 6068  27.893  28.876   8.342
  195POPC   C3B 6069  28.001  29.026   7.967
  195POPC   C4B 6070  28.207  29.132   7.612
  196POPC   NC3 6071  31.276  11.644   9.427
  196POPC   PO4 6072  31.579  10.979   9.501
  196POPC   GL1 6073  31.344  11.165   9.134
  196POPC   GL2 6074  31.543  11.410   9.088
  196POPC   C1A 6075  31.279  11.351   8.677
  196POPC   D2A 6076  31.170  11.206   8.265
  196POPC   C3A 6077  31.406  11.428   7.944
  196POPC   C4A 6078  31.599  11.204   7.559
  196POPC   C1B 6079  31.681  11.681   8.756
  196POPC   C2B 6080  31.775  11.658   8.360
  196POPC   C3B 6081  31.708  11.858   8.010
  196POPC   C4B 6082  31.728  11.726   7.607
  197POPC   NC3 6083  24.623   6.331   9.753
  197POPC   PO4 6084  24.423   5.662   9.828
  197POPC   GL1 6085  24.306   5.749   9.325
  197POPC   GL2 6086  24.114   5.454   9.216
  197POPC   C1A 6087  24.286   5.982   8.860
  197POPC   D2A 6088  24.380   6.102   8.383
  197POPC   C3A 6089  24.656   5.830   8.111
  197POPC   C4A 6090  24.918   5.860   7.726
  197POPC   C1B 6091  24.063   5.517   8.762
  197POPC   C2B 6092  24.131   5.646   8.346
  197POPC   C3B 6093  24.186   5.815   7.909
  197POPC   C4B 6094  24.029   5.932   7.495
  198POPC   NC3 6095  22.832  30.825   9.707
  198POPC   PO4 6096  23.329  30.465   9.581
  198POPC   GL1 6097  23.096  30.695   9.271
  198POPC   GL2 6098  22.750  30.596   9.178
  198POPC   C1A 6099  23.178  30.575   8.866
  198POPC   D2A 6100  23.250  30.658   8.474
  198POPC   C3A 6101  23.063  30.351   8.229
  198POPC   C4A 6102  23.032  30.533   7.869
  198POPC   C1B 6103  22.687  30.694   8.721
  198POPC   C2B 6104  22.766  30.797   8.282
  198POPC   C3B 6105  22.642  30.842   7.864
  198POPC   C4B 6106  22.691  30.567   7.493
  199POPC   NC3 6107   7.225  27.961   9.364
  199POPC   PO4 6108   7.286  28.616   9.349
  199POPC   GL1 6109   7.488  28.297   9.090
  199POPC   GL2 6110   7.789  28.086   9.139
  199POPC   C1A 6111   7.356  28.143   8.701
  199POPC   D2A 6112   7.477  28.271   8.309
  199POPC   C3A 6113   7.221  28.517   8.019
  199POPC   C4A 6114   7.169  28.324   7.635
  199POPC   C1B 6115   7.847  28.341   8.723
  199POPC   C2B 6116   7.889  28.584   8.307
  199POPC   C3B 6117   7.753  28.447   7.882
  199POPC   C4B 6118   7.752  28.612   7.463
  200POPC   NC3 6119   6.235   3.480   9.252
  200POPC   PO4 6120   5.693   3.386   9.558
  200POPC   GL1 6121   5.649   3.501   9.140
  200POPC   GL2 6122   5.844   3.261   9.028
  200POPC   C1A 6123   5.639   3.703   8.723
  200POPC   D2A 6124   5.501   3.933   8.350
  200POPC   C3A 6125   5.632   3.726   7.976
  200POPC   C4A 6126   5.829   3.480   7.666
  200POPC   C1B 6127   5.965   3.301   8.604
  200POPC   C2B 6128   6.006   3.655   8.342
  200POPC   C3B 6129   6.193   3.689   7.956
  200POPC   C4B 6130   6.282   3.681   7.516
  201POPC   NC3 6131  44.536   3.886   9.558
  201POPC   PO4 6132  44.930   4.516   9.664
  201POPC   GL1 6133  44.694   4.380   9.243
  201POPC   GL2 6134  44.739   4.001   9.114
  201POPC   C1A 6135  44.528   4.491   8.798
  201POPC   D2A 6136  44.664   4.683   8.373
  201POPC   C3A 6137  44.903   4.466   8.027
  201POPC   C4A 6138  44.909   4.443   7.563
  201POPC   C1B 6139  44.396   3.989   8.806
  201POPC   C2B 6140  44.356   4.149   8.389
  201POPC   C3B 6141  44.510   4.135   7.975
  201POPC   C4B 6142  44.438   4.119   7.543
  202POPC   NC3 6143  11.088  24.964   9.304
  202POPC   PO4 6144  11.422  24.432   9.516
  202POPC   GL1 6145  11.270  24.477   9.113
  202POPC   GL2 6146  11.480  24.723   9.040
  202POPC   C1A 6147  11.208  24.519   8.660
  202POPC   D2A 6148  11.272  24.678   8.247
  202POPC   C3A 6149  11.198  24.434   7.878
  202POPC   C4A 6150  11.296  24.261   7.478
  202POPC   C1B 6151  11.741  24.611   8.725
  202POPC   C2B 6152  11.833  24.783   8.306
  202POPC   C3B 6153  11.634  24.834   7.906
  202POPC   C4B 6154  11.480  24.736   7.541
  203POPC   NC3 6155  42.481  36.502   9.296
  203POPC   PO4 6156  42.165  37.034   9.641
  203POPC   GL1 6157  42.160  37.202   9.220
  203POPC   GL2 6158  42.540  37.262   9.170
  203POPC   C1A 6159  42.076  37.068   8.775
  203POPC   D2A 6160  42.345  37.159   8.399
  203POPC   C3A 6161  42.135  37.030   8.031
  203POPC   C4A 6162  41.995  36.612   7.824
  203POPC   C1B 6163  42.591  36.961   8.820
  203POPC   C2B 6164  42.437  36.633   8.526
  203POPC   C3B 6165  42.433  36.638   8.081
  203POPC   C4B 6166  42.529  36.913   7.687
  204POPC   NC3 6167   8.517  44.845   9.595
  204POPC   PO4 6168   7.945  44.448   9.532
  204POPC   GL1 6169   8.288  44.523   9.218
  204POPC   GL2 6170   8.207  44.867   9.177
  204POPC   C1A 6171   8.443  44.655   8.788
  204POPC   D2A 6172   8.278  44.542   8.372
  204POPC   C3A 6173   8.513  44.550   7.975
  204POPC   C4A 6174   8.516  44.772   7.573
  204POPC   C1B 6175   7.918  44.670   8.841
  204POPC   C2B 6176   7.850  44.787   8.395
  204POPC   C3B 6177   8.026  44.741   7.970
  204POPC   C4B 6178   7.806   0.044   7.784
  205POPC   NC3 6179  44.250  24.288   9.575
  205POPC   PO4 6180  43.585  24.234   9.440
  205POPC   GL1 6181  43.896  24.395   9.207
  205POPC   GL2 6182  43.989  24.739   9.221
  205POPC   C1A 6183  43.985  24.262   8.838
  205POPC   D2A 6184  43.987  24.138   8.464
  205POPC   C3A 6185  44.285  24.337   8.244
  205POPC   C4A 6186  44.304  24.123   7.867
  205POPC   C1B 6187  43.757  24.737   8.807
  205POPC   C2B 6188  43.596  24.492   8.433
  205POPC   C3B 6189  43.803  24.357   8.035
  205POPC   C4B 6190  44.120  24.585   7.819
  206POPC   NC3 6191  27.252  36.592   9.504
  206POPC   PO4 6192  27.689  37.235   9.508
  206POPC   GL1 6193  27.762  37.120   9.115
  206POPC   GL2 6194  27.546  36.842   9.152
  206POPC   C1A 6195  27.771  36.921   8.695
  206POPC   D2A 6196  27.567  36.758   8.330
  206POPC   C3A 6197  27.827  36.760   7.979
  206POPC   C4A 6198  28.004  37.141   7.835
  206POPC   C1B 6199  27.327  37.140   8.835
  206POPC   C2B 6200  27.372  37.272   8.389
  206POPC   C3B 6201  27.468  37.133   7.965
  206POPC   C4B 6202  27.334  36.712   7.854
  207POPC   NC3 6203  44.922  32.495   9.270
  207POPC   PO4 6204   0.288  31.976   9.447
  207POPC   GL1 6205   0.466  32.202   9.083
  207POPC   GL2 6206   0.815  32.359   9.199
  207POPC   C1A 6207   0.502  32.027   8.647
  207POPC   D2A 6208   0.503  31.855   8.212
  207POPC   C3A 6209   0.491  32.195   7.931
  207POPC   C4A 6210   0.172  32.409   7.707
  207POPC   C1B 6211   0.743  32.507   8.784
  207POPC   C2B 6212   0.681  32.445   8.357
  207POPC   C3B 6213   0.618  32.698   7.990
  207POPC   C4B 6214   0.737  32.538   7.619
  208POPC   NC3 6215  31.901  33.016   9.733
  208POPC   PO4 6216  32.443  32.777   9.421
  208POPC   GL1 6217  32.149  32.944   9.138
  208POPC   GL2 6218  31.820  32.951   9.233
  208POPC   C1A 6219  32.307  32.983   8.734
  208POPC   D2A 6220  32.495  33.268   8.450
  208POPC   C3A 6221  32.422  33.199   8.048
  208POPC   C4A 6222  32.251  33.032   7.690
  208POPC   C1B 6223  31.824  32.729   8.820
  208POPC   C2B 6224  32.078  32.596   8.480
  208POPC   C3B 6225  32.082  32.794   8.098
  208POPC   C4B 6226  31.963  32.625   7.703
  209POPC   NC3 6227  21.691  40.019   9.785
  209POPC   PO4 6228  22.327  39.786   9.579
  209POPC   GL1 6229  22.187  39.975   9.223
  209POPC   GL2 6230  22.498  39.906   9.073
  209POPC   C1A 6231  22.107  39.999   8.761
  209POPC   D2A 6232  22.385  40.052   8.399
  209POPC   C3A 6233  22.152  40.233   8.061
  209POPC   C4A 6234  22.017  40.018   7.719
  209POPC   C1B 6235  22.523  39.629   8.717
  209POPC   C2B 6236  22.237  39.519   8.403
  209POPC   C3B 6237  22.281  39.694   8.011
  209POPC   C4B 6238  22.532  40.009   7.832
  210POPC   NC3 6239  25.186  24.048   9.451
  210POPC   PO4 6240  24.866  24.592   9.604
  210POPC   GL1 6241  24.936  24.520   9.141
  210POPC   GL2 6242  25.264  24.660   9.018
  210POPC   C1A 6243  25.049  24.294   8.734
  210POPC   D2A 6244  25.342  24.078   8.469
  210POPC   C3A 6245  25.308  24.186   8.032
  210POPC   C4A 6246  25.194  24.533   7.774
  210POPC   C1B 6247  25.502  24.575   8.637
  210POPC   C2B 6248  25.548  24.738   8.212
  210POPC   C3B 6249  25.648  24.720   7.766
  210POPC   C4B 6250  25.611  24.321   7.580
  211POPC   NC3 6251   8.651  43.219   9.382
  211POPC   PO4 6252   9.306  42.995   9.355
  211POPC   GL1 6253   9.116  43.260   9.080
  211POPC   GL2 6254   9.026  43.561   9.255
  211POPC   C1A 6255   9.066  43.193   8.643
  211POPC   D2A 6256   8.934  43.019   8.249
  211POPC   C3A 6257   9.117  42.917   7.878
  211POPC   C4A 6258   8.870  43.015   7.523
  211POPC   C1B 6259   8.793  43.592   8.815
  211POPC   C2B 6260   8.868  43.549   8.334
  211POPC   C3B 6261   8.873  43.417   7.886
  211POPC   C4B 6262   8.604  43.466   7.505
  212POPC   NC3 6263  13.162  25.956   9.596
  212POPC   PO4 6264  12.559  25.951   9.593
  212POPC   GL1 6265  12.825  26.050   9.210
  212POPC   GL2 6266  13.112  25.846   9.116
  212POPC   C1A 6267  13.023  26.199   8.787
  212POPC   D2A 6268  13.125  25.966   8.420
  212POPC   C3A 6269  12.927  26.177   8.073
  212POPC   C4A 6270  12.986  26.285   7.657
  212POPC   C1B 6271  12.761  25.712   8.834
  212POPC   C2B 6272  12.813  25.539   8.436
  212POPC   C3B 6273  12.903  25.667   8.041
  212POPC   C4B 6274  12.753  25.827   7.696
  213POPC   NC3 6275  14.633   0.147   9.398
  213POPC   PO4 6276  14.138   0.546   9.611
  213POPC   GL1 6277  14.282   0.454   9.176
  213POPC   GL2 6278  14.656   0.556   9.089
  213POPC   C1A 6279  14.339   0.298   8.754
  213POPC   D2A 6280  14.527   0.552   8.428
  213POPC   C3A 6281  14.300   0.529   8.056
  213POPC   C4A 6282  14.450   0.557   7.645
  213POPC   C1B 6283  14.846   0.253   8.783
  213POPC   C2B 6284  14.719   0.086   8.374
  213POPC   C3B 6285  14.739   0.259   7.982
  213POPC   C4B 6286  14.599   0.079   7.617
  214POPC   NC3 6287  31.057   4.444   9.482
  214POPC   PO4 6288  31.666   4.092   9.483
  214POPC   GL1 6289  31.468   4.338   9.185
  214POPC   GL2 6290  31.525   4.669   9.301
  214POPC   C1A 6291  31.415   4.294   8.753
  214POPC   D2A 6292  31.639   4.264   8.382
  214POPC   C3A 6293  31.500   4.090   7.981
  214POPC   C4A 6294  31.442   4.010   7.536
  214POPC   C1B 6295  31.652   4.752   8.855
  214POPC   C2B 6296  31.436   4.752   8.439
  214POPC   C3B 6297  31.470   4.587   8.009
  214POPC   C4B 6298  31.778   4.387   7.657
  215POPC   NC3 6299  41.115   0.560   9.489
  215POPC   PO4 6300  40.678   0.039   9.512
  215POPC   GL1 6301  40.795   0.219   9.147
  215POPC   GL2 6302  40.746   0.578   9.118
  215POPC   C1A 6303  41.115   0.245   8.846
  215POPC   D2A 6304  41.183   0.366   8.433
  215POPC   C3A 6305  40.899   0.225   8.072
  215POPC   C4A 6306  40.757   0.155   7.617
  215POPC   C1B 6307  40.624   0.394   8.684
  215POPC   C2B 6308  40.406   0.474   8.280
  215POPC   C3B 6309  40.528   0.523   7.873
  215POPC   C4B 6310  40.948   0.651   7.747
  216POPC   NC3 6311   6.623  26.664   9.736
  216POPC   PO4 6312   6.622  26.111   9.426
  216POPC   GL1 6313   6.726  26.526   9.241
  216POPC   GL2 6314   6.454  26.820   9.263
  216POPC   C1A 6315   6.840  26.833   8.947
  216POPC   D2A 6316   6.847  26.881   8.532
  216POPC   C3A 6317   6.521  26.766   8.273
  216POPC   C4A 6318   6.666  26.841   7.883
  216POPC   C1B 6319   6.331  26.876   8.794
  216POPC   C2B 6320   6.288  27.199   8.443
  216POPC   C3B 6321   6.304  27.189   7.987
  216POPC   C4B 6322   6.342  27.011   7.528
  217POPC   NC3 6323  32.212  39.121   9.875
  217POPC   PO4 6324  32.413  39.458   9.373
  217POPC   GL1 6325  32.437  39.123   9.132
  217POPC   GL2 6326  32.137  39.149   8.981
  217POPC   C1A 6327  32.538  38.938   8.753
  217POPC   D2A 6328  32.210  39.016   8.451
  217POPC   C3A 6329  32.399  39.059   8.057
  217POPC   C4A 6330  32.242  38.969   7.666
  217POPC   C1B 6331  31.874  39.438   8.754
  217POPC   C2B 6332  31.714  39.412   8.340
  217POPC   C3B 6333  31.897  39.536   7.939
  217POPC   C4B 6334  32.325  39.507   7.777
  218POPC   NC3 6335  12.520  44.261   9.313
  218POPC   PO4 6336  13.080  44.656   9.485
  218POPC   GL1 6337  12.742  44.729   9.164
  218POPC   GL2 6338  12.889  44.468   9.024
  218POPC   C1A 6339  12.524  44.743   8.785
  218POPC   D2A 6340  12.671  44.482   8.475
  218POPC   C3A 6341  12.879  44.773   8.210
  218POPC   C4A 6342  12.665  44.781   7.836
  218POPC   C1B 6343  13.159  44.580   8.695
  218POPC   C2B 6344  13.180  44.351   8.316
  218POPC   C3B 6345  13.082  44.439   7.880
  218POPC   C4B 6346  13.115  44.825   7.628
  219POPC   NC3 6347   5.640  27.893   9.394
  219POPC   PO4 6348   5.038  27.599   9.551
  219POPC   GL1 6349   4.875  27.464   9.169
  219POPC   GL2 6350   5.213  27.527   9.057
  219POPC   C1A 6351   4.848  27.313   8.760
  219POPC   D2A 6352   5.021  27.566   8.433
  219POPC   C3A 6353   4.889  27.417   8.032
  219POPC   C4A 6354   5.169  27.419   7.709
  219POPC   C1B 6355   5.108  27.904   8.835
  219POPC   C2B 6356   5.362  28.035   8.489
  219POPC   C3B 6357   5.492  27.728   8.194
  219POPC   C4B 6358   5.585  27.754   7.764
  220POPC   NC3 6359  17.331  25.445   9.737
  220POPC   PO4 6360  17.869  25.600   9.243
  220POPC   GL1 6361  17.677  25.272   9.004
  220POPC   GL2 6362  17.314  25.228   9.096
  220POPC   C1A 6363  17.661  25.255   8.609
  220POPC   D2A 6364  17.409  25.433   8.330
  220POPC   C3A 6365  17.703  25.246   8.067
  220POPC   C4A 6366  17.701  25.051   7.734
  220POPC   C1B 6367  17.233  24.982   8.703
  220POPC   C2B 6368  17.377  24.907   8.266
  220POPC   C3B 6369  17.320  24.746   7.841
  220POPC   C4B 6370  17.410  24.737   7.372
  221POPC   NC3 6371  17.937  36.058   9.479
  221POPC   PO4 6372  17.250  36.167   9.627
  221POPC   GL1 6373  17.384  36.095   9.226
  221POPC   GL2 6374  17.554  35.788   9.243
  221POPC   C1A 6375  17.551  36.214   8.838
  221POPC   D2A 6376  17.699  36.363   8.435
  221POPC   C3A 6377  17.460  36.414   8.090
  221POPC   C4A 6378  17.547  36.256   7.724
  221POPC   C1B 6379  17.765  35.751   8.832
  221POPC   C2B 6380  17.657  35.852   8.440
  221POPC   C3B 6381  17.747  35.901   8.033
  221POPC   C4B 6382  17.538  35.755   7.679
  222POPC   NC3 6383  36.417  44.997   9.646
  222POPC   PO4 6384  35.969   0.516   9.507
  222POPC   GL1 6385  36.011   0.309   9.145
  222POPC   GL2 6386  35.684   0.301   9.026
  222POPC   C1A 6387  36.127   0.444   8.750
  222POPC   D2A 6388  36.347   0.559   8.393
  222POPC   C3A 6389  36.265   0.245   8.156
  222POPC   C4A 6390  36.344   0.058   7.776
  222POPC   C1B 6391  35.751   0.757   8.935
  222POPC   C2B 6392  35.931   0.892   8.555
  222POPC   C3B 6393  35.953   0.760   8.137
  222POPC   C4B 6394  36.030   0.469   7.777
  223POPC   NC3 6395  40.687  32.014   9.355
  223POPC   PO4 6396  41.038  31.401   9.409
  223POPC   GL1 6397  40.892  31.459   9.046
  223POPC   GL2 6398  40.564  31.508   9.174
  223POPC   C1A 6399  40.905  31.319   8.628
  223POPC   D2A 6400  40.655  31.301   8.252
  223POPC   C3A 6401  40.907  31.350   7.916
  223POPC   C4A 6402  40.962  31.333   7.464
  223POPC   C1B 6403  40.409  31.491   8.781
  223POPC   C2B 6404  40.414  31.732   8.413
  223POPC   C3B 6405  40.395  31.687   7.989
  223POPC   C4B 6406  40.562  31.571   7.612
  224POPC   NC3 6407  35.006  12.466   9.371
  224POPC   PO4 6408  35.697  12.251   9.579
  224POPC   GL1 6409  35.491  12.095   9.222
  224POPC   GL2 6410  35.333  11.795   9.299
  224POPC   C1A 6411  35.600  11.987   8.778
  224POPC   D2A 6412  35.377  12.171   8.405
  224POPC   C3A 6413  35.529  12.115   7.992
  224POPC   C4A 6414  35.856  12.289   7.782
  224POPC   C1B 6415  35.121  11.964   8.906
  224POPC   C2B 6416  35.131  11.741   8.508
  224POPC   C3B 6417  35.240  11.698   8.097
  224POPC   C4B 6418  35.212  11.893   7.674
  225POPC   NC3 6419  20.009   7.709   9.782
  225POPC   PO4 6420  19.842   7.103   9.775
  225POPC   GL1 6421  19.925   7.218   9.311
  225POPC   GL2 6422  20.033   6.910   9.162
  225POPC   C1A 6423  19.992   7.354   8.868
  225POPC   D2A 6424  20.054   7.289   8.393
  225POPC   C3A 6425  19.721   7.548   8.123
  225POPC   C4A 6426  19.692   7.741   7.686
  225POPC   C1B 6427  19.912   6.856   8.749
  225POPC   C2B 6428  19.646   6.972   8.417
  225POPC   C3B 6429  19.783   7.070   8.008
  225POPC   C4B 6430  19.518   7.267   7.712
  226POPC   NC3 6431  42.354  22.640   9.579
  226POPC   PO4 6432  42.596  22.016   9.532
  226POPC   GL1 6433  42.269  22.042   9.218
  226POPC   GL2 6434  42.084  22.369   9.201
  226POPC   C1A 6435  42.345  22.173   8.811
  226POPC   D2A 6436  42.598  22.153   8.487
  226POPC   C3A 6437  42.399  22.044   8.144
  226POPC   C4A 6438  42.388  22.210   7.771
  226POPC   C1B 6439  42.019  22.561   8.788
  226POPC   C2B 6440  42.065  22.349   8.382
  226POPC   C3B 6441  41.923  22.189   7.968
  226POPC   C4B 6442  41.937  22.042   7.536
  227POPC   NC3 6443  14.529  12.435   9.492
  227POPC   PO4 6444  14.177  11.855   9.507
  227POPC   GL1 6445  14.407  12.014   9.181
  227POPC   GL2 6446  14.163  12.257   9.119
  227POPC   C1A 6447  14.623  11.821   8.814
  227POPC   D2A 6448  14.708  12.023   8.428
  227POPC   C3A 6449  14.445  11.931   8.094
  227POPC   C4A 6450  14.482  11.834   7.696
  227POPC   C1B 6451  14.337  12.225   8.732
  227POPC   C2B 6452  14.142  12.248   8.359
  227POPC   C3B 6453  14.344  12.449   8.052
  227POPC   C4B 6454  14.668  12.356   7.754
  228POPC   NC3 6455   6.874  24.037   9.296
  228POPC   PO4 6456   6.893  23.370   9.443
  228POPC   GL1 6457   6.719  23.577   9.120
  228POPC   GL2 6458   6.582  23.861   8.929
  228POPC   C1A 6459   6.948  23.537   8.756
  228POPC   D2A 6460   6.992  23.354   8.374
  228POPC   C3A 6461   6.904  23.723   8.136
  228POPC   C4A 6462   6.715  23.735   7.762
  228POPC   C1B 6463   6.804  24.003   8.569
  228POPC   C2B 6464   7.009  24.255   8.250
  228POPC   C3B 6465   6.975  24.181   7.810
  228POPC   C4B 6466   6.778  24.082   7.385
  229POPC   NC3 6467  41.076  30.949   9.426
  229POPC   PO4 6468  40.415  30.903   9.437
  229POPC   GL1 6469  40.661  30.567   9.225
  229POPC   GL2 6470  41.035  30.501   9.159
  229POPC   C1A 6471  40.652  30.461   8.785
  229POPC   D2A 6472  40.809  30.269   8.417
  229POPC   C3A 6473  40.657  30.479   8.060
  229POPC   C4A 6474  40.584  30.549   7.646
  229POPC   C1B 6475  41.041  30.804   8.780
  229POPC   C2B 6476  40.828  30.846   8.374
  229POPC   C3B 6477  40.957  30.847   7.906
  229POPC   C4B 6478  41.054  30.657   7.483
  230POPC   NC3 6479  22.927  17.408   9.572
  230POPC   PO4 6480  23.141  18.065   9.607
  230POPC   GL1 6481  22.925  17.816   9.253
  230POPC   GL2 6482  23.154  17.536   9.141
  230POPC   C1A 6483  22.815  17.700   8.799
  230POPC   D2A 6484  22.966  17.522   8.369
  230POPC   C3A 6485  22.919  17.713   7.959
  230POPC   C4A 6486  22.641  17.792   7.634
  230POPC   C1B 6487  23.337  17.477   8.734
  230POPC   C2B 6488  23.436  17.310   8.332
  230POPC   C3B 6489  23.187  17.256   7.925
  230POPC   C4B 6490  23.045  17.454   7.539
  231POPC   NC3 6491  27.642  38.887   9.304
  231POPC   PO4 6492  27.877  39.519   9.379
  231POPC   GL1 6493  27.523  39.403   9.111
  231POPC   GL2 6494  27.149  39.488   9.179
  231POPC   C1A 6495  27.581  39.314   8.672
  231POPC   D2A 6496  27.417  39.434   8.265
  231POPC   C3A 6497  27.511  39.130   7.968
  231POPC   C4A 6498  27.859  38.862   7.874
  231POPC   C1B 6499  27.083  39.299   8.766
  231POPC   C2B 6500  27.193  38.983   8.450
  231POPC   C3B 6501  27.069  38.867   8.044
  231POPC   C4B 6502  27.195  38.939   7.627
  232POPC   NC3 6503  42.049   0.207   9.441
  232POPC   PO4 6504  41.549   0.717   9.525
  232POPC   GL1 6505  41.550   0.479   9.182
  232POPC   GL2 6506  41.866   0.596   9.141
  232POPC   C1A 6507  41.494   0.598   8.760
  232POPC   D2A 6508  41.427   0.841   8.388
  232POPC   C3A 6509  41.351   0.588   8.017
  232POPC   C4A 6510  41.440   0.691   7.575
  232POPC   C1B 6511  41.831   0.224   8.815
  232POPC   C2B 6512  41.760   0.366   8.385
  232POPC   C3B 6513  41.831   0.683   8.078
  232POPC   C4B 6514  41.732   0.346   7.769
  233POPC   NC3 6515  44.718  18.890   9.502
  233POPC   PO4 6516  44.221  19.297   9.326
  233POPC   GL1 6517  44.558  19.176   9.108
  233POPC   GL2 6518  44.854  19.337   9.166
  233POPC   C1A 6519  44.578  19.019   8.740
  233POPC   D2A 6520  44.377  19.067   8.385
  233POPC   C3A 6521  44.575  18.910   8.025
  233POPC   C4A 6522  44.435  19.165   7.698
  233POPC   C1B 6523   0.061  19.186   8.815
  233POPC   C2B 6524  44.922  19.190   8.408
  233POPC   C3B 6525   0.054  19.306   8.036
  233POPC   C4B 6526  44.919  19.110   7.670
  234POPC   NC3 6527  38.139   7.537   9.425
  234POPC   PO4 6528  38.554   7.076   9.558
  234POPC   GL1 6529  38.296   7.120   9.136
  234POPC   GL2 6530  37.971   7.181   9.077
  234POPC   C1A 6531  38.321   7.143   8.663
  234POPC   D2A 6532  38.583   7.182   8.307
  234POPC   C3A 6533  38.679   7.581   8.135
  234POPC   C4A 6534  38.664   7.596   7.690
  234POPC   C1B 6535  38.097   7.579   8.771
  234POPC   C2B 6536  38.239   7.707   8.344
  234POPC   C3B 6537  38.233   7.413   7.964
  234POPC   C4B 6538  38.024   7.240   7.596
  235POPC   NC3 6539   3.646  11.970   9.972
  235POPC   PO4 6540   3.214  11.971   9.467
  235POPC   GL1 6541   3.481  12.080   9.171
  235POPC   GL2 6542   3.709  11.846   9.326
  235POPC   C1A 6543   3.352  12.086   8.742
  235POPC   D2A 6544   3.106  12.220   8.404
  235POPC   C3A 6545   3.322  12.386   8.088
  235POPC   C4A 6546   3.583  12.167   7.834
  235POPC   C1B 6547   3.773  11.784   8.859
  235POPC   C2B 6548   3.635  11.811   8.404
  235POPC   C3B 6549   3.863  11.787   7.986
  235POPC   C4B 6550   3.949  11.922   7.568
  236POPC   NC3 6551  15.667   4.057   9.589
  236POPC   PO4 6552  16.237   4.460   9.590
  236POPC   GL1 6553  16.113   4.502   9.190
  236POPC   GL2 6554  16.055   4.140   9.165
  236POPC   C1A 6555  16.058   4.660   8.761
  236POPC   D2A 6556  16.073   4.777   8.322
  236POPC   C3A 6557  15.843   4.463   8.096
  236POPC   C4A 6558  15.703   4.217   7.775
  236POPC   C1B 6559  15.785   4.091   8.800
  236POPC   C2B 6560  15.770   3.930   8.360
  236POPC   C3B 6561  16.087   3.951   8.018
  236POPC   C4B 6562  16.089   3.968   7.564
  237POPC   NC3 6563  20.856  26.694   9.704
  237POPC   PO4 6564  20.395  27.129   9.459
  237POPC   GL1 6565  20.471  26.996   9.063
  237POPC   GL2 6566  20.774  27.145   9.019
  237POPC   C1A 6567  20.701  26.645   8.844
  237POPC   D2A 6568  20.952  26.526   8.460
  237POPC   C3A 6569  20.695  26.607   8.086
  237POPC   C4A 6570  20.547  26.744   7.684
  237POPC   C1B 6571  20.941  27.308   8.649
  237POPC   C2B 6572  20.935  27.065   8.277
  237POPC   C3B 6573  20.720  27.177   7.897
  237POPC   C4B 6574  20.774  27.141   7.449
  238POPC   NC3 6575   5.906  20.852   9.499
  238POPC   PO4 6576   5.960  20.163   9.506
  238POPC   GL1 6577   5.818  20.421   9.173
  238POPC   GL2 6578   5.457  20.320   9.085
  238POPC   C1A 6579   6.042  20.495   8.769
  238POPC   D2A 6580   6.195  20.680   8.361
  238POPC   C3A 6581   6.023  20.639   7.930
  238POPC   C4A 6582   6.294  20.635   7.563
  238POPC   C1B 6583   5.544  20.624   8.780
  238POPC   C2B 6584   5.700  20.569   8.366
  238POPC   C3B 6585   5.594  20.347   8.001
  238POPC   C4B 6586   5.407  20.469   7.613
  239POPC   NC3 6587  31.855  11.377   9.509
  239POPC   PO4 6588  32.482  11.303   9.585
  239POPC   GL1 6589  32.366  11.301   9.163
  239POPC   GL2 6590  32.040  11.404   9.044
  239POPC   C1A 6591  32.309  11.126   8.740
  239POPC   D2A 6592  32.191  11.350   8.394
  239POPC   C3A 6593  32.337  11.145   8.059
  239POPC   C4A 6594  32.524  11.162   7.670
  239POPC   C1B 6595  31.793  11.170   8.727
  239POPC   C2B 6596  31.704  11.155   8.283
  239POPC   C3B 6597  31.916  11.375   7.929
  239POPC   C4B 6598  32.083  11.352   7.484
  240POPC   NC3 6599   4.361  32.456   9.958
  240POPC   PO4 6600   4.006  32.065   9.490
  240POPC   GL1 6601   4.319  32.232   9.205
  240POPC   GL2 6602   4.213  32.397   8.989
  240POPC   C1A 6603   4.598  32.104   8.819
  240POPC   D2A 6604   4.765  32.310   8.405
  240POPC   C3A 6605   4.587  32.213   8.001
  240POPC   C4A 6606   4.600  32.255   7.550
  240POPC   C1B 6607   4.390  32.551   8.643
  240POPC   C2B 6608   4.376  32.619   8.217
  240POPC   C3B 6609   4.261  32.556   7.808
  240POPC   C4B 6610   3.846  32.541   7.705
  241POPC   NC3 6611   7.914   7.951   9.334
  241POPC   PO4 6612   7.236   8.165   9.507
  241POPC   GL1 6613   7.432   8.011   9.201
  241POPC   GL2 6614   7.631   8.280   9.061
  241POPC   C1A 6615   7.445   7.893   8.795
  241POPC   D2A 6616   7.353   8.016   8.393
  241POPC   C3A 6617   7.635   7.929   8.081
  241POPC   C4A 6618   7.363   7.951   7.727
  241POPC   C1B 6619   7.429   8.433   8.708
  241POPC   C2B 6620   7.319   8.515   8.268
  241POPC   C3B 6621   7.532   8.403   7.885
  241POPC   C4B 6622   7.539   8.395   7.405
  242POPC   NC3 6623  33.275  13.071   9.916
  242POPC   PO4 6624  32.956  12.460   9.914
  242POPC   GL1 6625  32.948  12.654   9.465
  242POPC   GL2 6626  33.210  12.932   9.389
  242POPC   C1A 6627  32.791  12.755   9.007
  242POPC   D2A 6628  32.695  12.661   8.550
  242POPC   C3A 6629  32.832  12.909   8.181
  242POPC   C4A 6630  32.872  12.849   7.749
  242POPC   C1B 6631  33.309  12.684   8.982
  242POPC   C2B 6632  33.241  12.792   8.528
  242POPC   C3B 6633  33.348  12.800   8.062
  242POPC   C4B 6634  33.309  12.557   7.686
  243POPC   NC3 6635   3.412   2.776   9.640
  243POPC   PO4 6636   3.808   2.320   9.399
  243POPC   GL1 6637   3.519   2.616   9.145
  243POPC   GL2 6638   3.756   2.797   9.177
  243POPC   C1A 6639   3.480   3.001   8.817
  243POPC   D2A 6640   3.494   3.236   8.397
  243POPC   C3A 6641   3.310   3.026   8.066
  243POPC   C4A 6642   3.363   2.838   7.647
  243POPC   C1B 6643   3.823   2.630   8.746
  243POPC   C2B 6644   3.838   2.848   8.363
  243POPC   C3B 6645   3.800   2.845   7.938
  243POPC   C4B 6646   3.753   2.504   7.631
  244POPC   NC3 6647  29.725   1.048   9.418
  244POPC   PO4 6648  30.160   1.436   9.657
  244POPC   GL1 6649  30.092   1.378   9.216
  244POPC   GL2 6650  29.799   1.511   9.068
  244POPC   C1A 6651  30.075   1.074   8.849
  244POPC   D2A 6652  29.864   0.922   8.449
  244POPC   C3A 6653  30.053   1.131   8.082
  244POPC   C4A 6654  30.317   0.963   7.744
  244POPC   C1B 6655  29.769   1.432   8.615
  244POPC   C2B 6656  29.482   1.304   8.280
  244POPC   C3B 6657  29.577   1.162   7.853
  244POPC   C4B 6658  29.906   1.427   7.679
  245POPC   NC3 6659   0.358  18.664   9.536
  245POPC   PO4 6660   0.046  18.203   9.307
  245POPC   GL1 6661   0.450  18.207   9.108
  245POPC   GL2 6662   0.568  18.551   9.071
  245POPC   C1A 6663   0.510  18.227   8.647
  245POPC   D2A 6664   0.787  18.196   8.276
  245POPC   C3A 6665   0.503  18.134   7.946
  245POPC   C4A 6666   0.233  18.447   7.717
  245POPC   C1B 6667   0.873  18.548   8.740
  245POPC   C2B 6668   0.829  18.723   8.329
  245POPC   C3B 6669   0.690  18.624   7.913
  245POPC   C4B 6670   0.654  18.582   7.430
  246POPC   NC3 6671   4.173  24.860   9.565
  246POPC   PO4 6672   4.132  24.142   9.644
  246POPC   GL1 6673   4.242  24.228   9.203
  246POPC   GL2 6674   4.378  24.517   9.234
  246POPC   C1A 6675   4.032  24.300   8.802
  246POPC   D2A 6676   4.012  24.578   8.460
  246POPC   C3A 6677   4.039  24.322   8.095
  246POPC   C4A 6678   4.249  24.231   7.722
  246POPC   C1B 6679   4.440  24.607   8.833
  246POPC   C2B 6680   4.598  24.669   8.445
  246POPC   C3B 6681   4.439  24.620   8.062
  246POPC   C4B 6682   4.625  24.624   7.673
  247POPC   NC3 6683  35.363  27.675   9.523
  247POPC   PO4 6684  35.858  27.425   9.270
  247POPC   GL1 6685  35.588  27.682   9.042
  247POPC   GL2 6686  35.187  27.636   9.060
  247POPC   C1A 6687  35.415  27.766   8.634
  247POPC   D2A 6688  35.342  27.591   8.228
  247POPC   C3A 6689  35.578  27.604   7.863
  247POPC   C4A 6690  35.410  27.659   7.447
  247POPC   C1B 6691  35.336  27.294   8.807
  247POPC   C2B 6692  35.371  27.093   8.417
  247POPC   C3B 6693  35.121  27.128   8.094
  247POPC   C4B 6694  35.177  27.344   7.778
  248POPC   NC3 6695  25.829  30.444   9.587
  248POPC   PO4 6696  26.377  30.785   9.615
  248POPC   GL1 6697  26.104  30.644   9.199
  248POPC   GL2 6698  25.717  30.685   9.141
  248POPC   C1A 6699  26.053  30.484   8.751
  248POPC   D2A 6700  26.200  30.357   8.326
  248POPC   C3A 6701  26.005  30.548   7.942
  248POPC   C4A 6702  25.730  30.807   7.630
  248POPC   C1B 6703  25.824  30.930   8.764
  248POPC   C2B 6704  25.996  30.857   8.343
  248POPC   C3B 6705  26.059  31.073   7.925
  248POPC   C4B 6706  26.077  31.294   7.507
  249POPC   NC3 6707  39.027  11.749   9.964
  249POPC   PO4 6708  39.332  11.166   9.652
  249POPC   GL1 6709  39.130  11.125   9.298
  249POPC   GL2 6710  39.445  11.180   9.138
  249POPC   C1A 6711  38.970  11.244   8.927
  249POPC   D2A 6712  39.000  11.244   8.493
  249POPC   C3A 6713  39.104  11.160   8.090
  249POPC   C4A 6714  39.169  11.271   7.652
  249POPC   C1B 6715  39.424  11.395   8.739
  249POPC   C2B 6716  39.546  11.480   8.301
  249POPC   C3B 6717  39.477  11.577   7.886
  249POPC   C4B 6718  39.634  11.394   7.492
  250POPC   NC3 6719   2.788  36.264   9.577
  250POPC   PO4 6720   2.770  35.660   9.602
  250POPC   GL1 6721   2.657  35.909   9.218
  250POPC   GL2 6722   2.966  36.021   9.156
  250POPC   C1A 6723   2.556  36.106   8.780
  250POPC   D2A 6724   2.484  36.315   8.344
  250POPC   C3A 6725   2.392  36.175   7.909
  250POPC   C4A 6726   2.658  36.003   7.571
  250POPC   C1B 6727   3.067  36.206   8.762
  250POPC   C2B 6728   2.992  36.448   8.366
  250POPC   C3B 6729   2.863  36.379   7.932
  250POPC   C4B 6730   3.127  36.238   7.589
  251POPC   NC3 6731  10.462   7.210   9.421
  251POPC   PO4 6732  10.458   7.863   9.503
  251POPC   GL1 6733  10.689   7.563   9.137
  251POPC   GL2 6734  10.769   7.136   9.047
  251POPC   C1A 6735  10.652   7.450   8.686
  251POPC   D2A 6736  10.396   7.232   8.362
  251POPC   C3A 6737  10.361   7.348   7.925
  251POPC   C4A 6738  10.683   7.477   7.644
  251POPC   C1B 6739  10.701   6.935   8.672
  251POPC   C2B 6740  10.886   6.854   8.294
  251POPC   C3B 6741  10.729   6.981   7.910
  251POPC   C4B 6742  10.511   6.994   7.532
  252POPC   NC3 6743  13.867   3.982   9.499
  252POPC   PO4 6744  13.708   4.552   9.200
  252POPC   GL1 6745  13.570   4.314   8.904
  252POPC   GL2 6746  13.256   4.500   8.851
  252POPC   C1A 6747  13.600   4.287   8.493
  252POPC   D2A 6748  13.625   4.640   8.258
  252POPC   C3A 6749  13.749   4.509   7.867
  252POPC   C4A 6750  13.881   4.144   7.690
  252POPC   C1B 6751  13.150   4.061   8.773
  252POPC   C2B 6752  13.136   4.050   8.359
  252POPC   C3B 6753  13.228   4.351   8.061
  252POPC   C4B 6754  13.368   4.260   7.640
  253POPC   NC3 6755   0.978  23.758   9.518
  253POPC   PO4 6756   1.515  23.339   9.468
  253POPC   GL1 6757   1.263  23.589   9.152
  253POPC   GL2 6758   1.387  23.957   9.251
  253POPC   C1A 6759   1.074  23.906   8.861
  253POPC   D2A 6760   1.192  24.110   8.492
  253POPC   C3A 6761   1.234  23.758   8.249
  253POPC   C4A 6762   1.195  23.718   7.844
  253POPC   C1B 6763   1.571  24.084   8.840
  253POPC   C2B 6764   1.691  23.968   8.390
  253POPC   C3B 6765   1.541  24.106   7.991
  253POPC   C4B 6766   1.633  24.138   7.561
  254POPC   NC3 6767  13.886   8.350   9.543
  254POPC   PO4 6768  13.334   7.987   9.304
  254POPC   GL1 6769  13.691   8.041   9.115
  254POPC   GL2 6770  13.651   8.358   9.044
  254POPC   C1A 6771  13.777   7.927   8.731
  254POPC   D2A 6772  13.632   8.220   8.422
  254POPC   C3A 6773  13.522   8.102   8.032
  254POPC   C4A 6774  13.180   8.063   7.774
  254POPC   C1B 6775  13.911   8.532   8.719
  254POPC   C2B 6776  13.915   8.644   8.276
  254POPC   C3B 6777  13.752   8.527   7.858
  254POPC   C4B 6778  13.407   8.467   7.603
  255POPC   NC3 6779  40.930  35.637   9.376
  255POPC   PO4 6780  40.733  35.176   9.815
  255POPC   GL1 6781  40.699  35.190   9.322
  255POPC   GL2 6782  41.082  35.212   9.165
  255POPC   C1A 6783  40.557  35.250   8.864
  255POPC   D2A 6784  40.583  35.460   8.413
  255POPC   C3A 6785  40.630  35.296   7.962
  255POPC   C4A 6786  40.708  35.567   7.605
  255POPC   C1B 6787  41.049  35.225   8.706
  255POPC   C2B 6788  41.035  35.160   8.253
  255POPC   C3B 6789  41.132  35.499   7.929
  255POPC   C4B 6790  41.188  35.572   7.447
  256POPC   NC3 6791  37.840  38.145   9.496
  256POPC   PO4 6792  37.601  38.798   9.473
  256POPC   GL1 6793  37.446  38.618   9.108
  256POPC   GL2 6794  37.393  38.239   9.195
  256POPC   C1A 6795  37.595  38.772   8.699
  256POPC   D2A 6796  37.678  38.984   8.303
  256POPC   C3A 6797  37.706  38.707   7.941
  256POPC   C4A 6798  38.061  38.682   7.650
  256POPC   C1B 6799  37.657  38.251   8.812
  256POPC   C2B 6800  37.594  38.354   8.383
  256POPC   C3B 6801  37.788  38.214   8.047
  256POPC   C4B 6802  37.818  38.151   7.671
  257POPC   NC3 6803   1.660  28.669   9.537
  257POPC   PO4 6804   2.075  29.237   9.468
  257POPC   GL1 6805   1.984  28.996   9.119
  257POPC   GL2 6806   1.603  28.996   9.138
  257POPC   C1A 6807   2.151  29.130   8.718
  257POPC   D2A 6808   2.154  29.525   8.506
  257POPC   C3A 6809   2.236  29.401   8.086
  257POPC   C4A 6810   1.968  29.370   7.763
  257POPC   C1B 6811   1.650  29.205   8.738
  257POPC   C2B 6812   1.775  29.207   8.309
  257POPC   C3B 6813   1.710  28.994   7.936
  257POPC   C4B 6814   1.546  29.103   7.556
  258POPC   NC3 6815  12.920  36.335   9.498
  258POPC   PO4 6816  12.791  36.995   9.542
  258POPC   GL1 6817  12.876  36.816   9.157
  258POPC   GL2 6818  12.614  36.555   9.117
  258POPC   C1A 6819  13.102  36.922   8.755
  258POPC   D2A 6820  12.984  37.087   8.339
  258POPC   C3A 6821  13.273  36.967   8.018
  258POPC   C4A 6822  13.217  37.146   7.601
  258POPC   C1B 6823  12.628  36.733   8.713
  258POPC   C2B 6824  12.901  36.591   8.392
  258POPC   C3B 6825  12.840  36.713   7.978
  258POPC   C4B 6826  12.684  37.053   7.727
  259POPC   NC3 6827  41.147   3.816   9.446
  259POPC   PO4 6828  40.508   3.548   9.463
  259POPC   GL1 6829  40.781   3.509   9.122
  259POPC   GL2 6830  41.001   3.752   8.961
  259POPC   C1A 6831  40.648   3.359   8.753
  259POPC   D2A 6832  40.800   3.581   8.405
  259POPC   C3A 6833  40.608   3.560   8.008
  259POPC   C4A 6834  40.908   3.772   7.773
  259POPC   C1B 6835  41.163   3.400   8.779
  259POPC   C2B 6836  41.041   3.118   8.522
  259POPC   C3B 6837  41.114   3.191   8.111
  259POPC   C4B 6838  40.959   3.254   7.724
  260POPC   NC3 6839  34.263  29.706   9.822
  260POPC   PO4 6840  34.574  30.176   9.423
  260POPC   GL1 6841  34.784  30.081   9.084
  260POPC   GL2 6842  34.462  30.080   8.919
  260POPC   C1A 6843  34.910  30.047   8.655
  260POPC   D2A 6844  34.629  30.204   8.347
  260POPC   C3A 6845  34.609  30.134   7.923
  260POPC   C4A 6846  34.600  30.097   7.453
  260POPC   C1B 6847  34.475  29.768   8.601
  260POPC   C2B 6848  34.709  29.683   8.226
  260POPC   C3B 6849  34.715  29.667   7.770
  260POPC   C4B 6850  34.362  29.577   7.538
  261POPC   NC3 6851  32.714  13.926   9.861
  261POPC   PO4 6852  33.109  13.409   9.638
  261POPC   GL1 6853  32.989  13.741   9.323
  261POPC   GL2 6854  33.050  13.487   9.073
  261POPC   C1A 6855  32.742  13.880   8.928
  261POPC   D2A 6856  32.844  13.769   8.498
  261POPC   C3A 6857  32.764  13.490   8.139
  261POPC   C4A 6858  32.985  13.357   7.773
  261POPC   C1B 6859  33.245  13.871   8.888
  261POPC   C2B 6860  33.293  14.001   8.453
  261POPC   C3B 6861  33.191  13.802   8.053
  261POPC   C4B 6862  33.227  13.891   7.606
  262POPC   NC3 6863  10.151  26.299  10.004
  262POPC   PO4 6864   9.749  26.079   9.443
  262POPC   GL1 6865   9.903  26.182   9.052
  262POPC   GL2 6866  10.171  26.401   9.031
  262POPC   C1A 6867   9.879  26.184   8.622
  262POPC   D2A 6868  10.094  26.055   8.269
  262POPC   C3A 6869   9.763  26.044   8.016
  262POPC   C4A 6870   9.657  25.974   7.594
  262POPC   C1B 6871  10.115  26.649   8.663
  262POPC   C2B 6872   9.910  26.543   8.250
  262POPC   C3B 6873   9.844  26.596   7.831
  262POPC   C4B 6874   9.707  26.662   7.427
  263POPC   NC3 6875  22.829  34.558   9.483
  263POPC   PO4 6876  23.447  34.551   9.256
  263POPC   GL1 6877  23.059  34.509   9.039
  263POPC   GL2 6878  22.801  34.789   9.031
  263POPC   C1A 6879  22.872  34.440   8.649
  263POPC   D2A 6880  22.920  34.476   8.234
  263POPC   C3A 6881  22.766  34.728   7.952
  263POPC   C4A 6882  23.020  34.539   7.654
  263POPC   C1B 6883  23.183  34.930   8.797
  263POPC   C2B 6884  23.328  34.690   8.453
  263POPC   C3B 6885  23.276  34.794   8.027
  263POPC   C4B 6886  23.377  34.890   7.587
  264POPC   NC3 6887  12.206  27.277   9.332
  264POPC   PO4 6888  11.699  27.729   9.535
  264POPC   GL1 6889  11.928  27.692   9.168
  264POPC   GL2 6890  11.741  27.464   8.969
  264POPC   C1A 6891  12.093  27.765   8.765
  264POPC   D2A 6892  11.870  27.635   8.383
  264POPC   C3A 6893  12.093  27.390   8.049
  264POPC   C4A 6894  12.292  27.476   7.623
  264POPC   C1B 6895  11.596  27.891   8.789
  264POPC   C2B 6896  11.535  28.074   8.357
  264POPC   C3B 6897  11.748  27.949   7.974
  264POPC   C4B 6898  11.781  27.599   7.695
  265POPC   NC3 6899  24.395   7.698   9.380
  265POPC   PO4 6900  24.638   7.187   9.545
  265POPC   GL1 6901  24.625   7.160   9.132
  265POPC   GL2 6902  24.522   7.439   8.972
  265POPC   C1A 6903  24.832   7.098   8.769
  265POPC   D2A 6904  24.617   7.306   8.465
  265POPC   C3A 6905  24.663   7.104   8.076
  265POPC   C4A 6906  24.395   7.170   7.741
  265POPC   C1B 6907  24.514   7.844   8.766
  265POPC   C2B 6908  24.675   7.804   8.362
  265POPC   C3B 6909  24.531   7.594   8.038
  265POPC   C4B 6910  24.210   7.750   7.809
  266POPC   NC3 6911  26.605  43.303   9.412
  266POPC   PO4 6912  27.075  42.850   9.544
  266POPC   GL1 6913  26.963  42.957   9.134
  266POPC   GL2 6914  26.631  42.884   9.113
  266POPC   C1A 6915  27.089  42.993   8.684
  266POPC   D2A 6916  26.933  42.785   8.291
  266POPC   C3A 6917  26.746  43.027   7.930
  266POPC   C4A 6918  26.977  43.280   7.619
  266POPC   C1B 6919  26.590  43.155   8.728
  266POPC   C2B 6920  26.738  43.368   8.311
  266POPC   C3B 6921  26.586  43.503   7.854
  266POPC   C4B 6922  26.565  43.353   7.360
  267POPC   NC3 6923  44.097  19.712   9.439
  267POPC   PO4 6924  44.767  20.009   9.501
  267POPC   GL1 6925  44.624  20.011   9.110
  267POPC   GL2 6926  44.472  19.703   9.089
  267POPC   C1A 6927  44.758  20.032   8.715
  267POPC   D2A 6928  44.691  20.278   8.374
  267POPC   C3A 6929  44.588  20.084   8.025
  267POPC   C4A 6930  44.388  19.936   7.678
  267POPC   C1B 6931  44.633  19.531   8.712
  267POPC   C2B 6932  44.775  19.684   8.316
  267POPC   C3B 6933  44.641  19.570   7.911
  267POPC   C4B 6934  44.773  19.571   7.471
  268POPC   NC3 6935   5.324  38.876   9.469
  268POPC   PO4 6936   4.786  39.356   9.513
  268POPC   GL1 6937   5.123  39.303   9.248
  268POPC   GL2 6938   5.254  39.599   9.204
  268POPC   C1A 6939   5.173  39.158   8.829
  268POPC   D2A 6940   4.975  38.944   8.468
  268POPC   C3A 6941   5.175  38.923   8.066
  268POPC   C4A 6942   5.120  39.168   7.703
  268POPC   C1B 6943   5.411  39.683   8.832
  268POPC   C2B 6944   5.382  39.451   8.464
  268POPC   C3B 6945   5.453  39.369   8.068
  268POPC   C4B 6946   5.486  39.602   7.709
  269POPC   NC3 6947  38.093  22.214   9.538
  269POPC   PO4 6948  38.731  21.959   9.412
  269POPC   GL1 6949  38.382  22.037   9.136
  269POPC   GL2 6950  38.349  22.384   9.114
  269POPC   C1A 6951  38.230  22.090   8.701
  269POPC   D2A 6952  38.492  21.879   8.415
  269POPC   C3A 6953  38.375  21.818   8.017
  269POPC   C4A 6954  38.431  22.044   7.672
  269POPC   C1B 6955  38.680  22.306   8.780
  269POPC   C2B 6956  38.560  22.374   8.346
  269POPC   C3B 6957  38.490  22.486   7.936
  269POPC   C4B 6958  38.795  22.436   7.632
  270POPC   NC3 6959  16.335  13.652   9.397
  270POPC   PO4 6960  15.729  13.749   9.569
  270POPC   GL1 6961  15.739  13.683   9.112
  270POPC   GL2 6962  16.047  13.558   8.946
  270POPC   C1A 6963  15.576  13.503   8.745
  270POPC   D2A 6964  15.871  13.493   8.436
  270POPC   C3A 6965  15.761  13.458   8.020
  270POPC   C4A 6966  15.923  13.450   7.611
  270POPC   C1B 6967  16.287  13.910   8.780
  270POPC   C2B 6968  16.449  14.076   8.416
  270POPC   C3B 6969  16.460  13.877   8.033
  270POPC   C4B 6970  16.390  14.012   7.648
  271POPC   NC3 6971  36.507   3.812   9.433
  271POPC   PO4 6972  35.812   3.762   9.698
  271POPC   GL1 6973  36.021   3.531   9.318
  271POPC   GL2 6974  36.362   3.333   9.272
  271POPC   C1A 6975  35.986   3.493   8.848
  271POPC   D2A 6976  35.850   3.163   8.526
  271POPC   C3A 6977  35.909   3.296   8.105
  271POPC   C4A 6978  35.691   3.374   7.730
  271POPC   C1B 6979  36.367   3.156   8.867
  271POPC   C2B 6980  36.373   3.346   8.475
  271POPC   C3B 6981  36.414   3.219   8.066
  271POPC   C4B 6982  36.330   3.537   7.770
  272POPC   NC3 6983  40.904  28.144   9.565
  272POPC   PO4 6984  41.109  28.788   9.434
  272POPC   GL1 6985  40.864  28.520   9.130
  272POPC   GL2 6986  40.561  28.318   9.226
  272POPC   C1A 6987  40.766  28.469   8.680
  272POPC   D2A 6988  40.589  28.714   8.324
  272POPC   C3A 6989  40.656  28.597   7.886
  272POPC   C4A 6990  41.009  28.392   7.797
  272POPC   C1B 6991  40.307  28.114   8.912
  272POPC   C2B 6992  40.350  28.237   8.500
  272POPC   C3B 6993  40.657  28.205   8.202
  272POPC   C4B 6994  40.587  28.065   7.796
  273POPC   NC3 6995  32.217   2.991   9.450
  273POPC   PO4 6996  32.379   2.329   9.433
  273POPC   GL1 6997  32.230   2.572   9.136
  273POPC   GL2 6998  32.570   2.719   9.110
  273POPC   C1A 6999  32.240   2.737   8.713
  273POPC   D2A 7000  32.031   2.954   8.385
  273POPC   C3A 7001  32.207   2.806   8.035
  273POPC   C4A 7002  32.046   2.958   7.653
  273POPC   C1B 7003  32.545   2.336   8.802
  273POPC   C2B 7004  32.420   2.328   8.378
  273POPC   C3B 7005  32.554   2.405   7.968
  273POPC   C4B 7006  32.376   2.605   7.604
  274POPC   NC3 7007  23.913  37.661   9.404
  274POPC   PO4 7008  23.418  37.103   9.448
  274POPC   GL1 7009  23.542  37.386   9.107
  274POPC   GL2 7010  23.861  37.219   9.053
  274POPC   C1A 7011  23.771  37.657   8.789
  274POPC   D2A 7012  24.041  37.693   8.458
  274POPC   C3A 7013  23.781  37.528   8.212
  274POPC   C4A 7014  23.537  37.726   7.950
  274POPC   C1B 7015  24.127  37.202   8.693
  274POPC   C2B 7016  24.371  37.305   8.337
  274POPC   C3B 7017  24.252  37.555   7.958
  274POPC   C4B 7018  23.899  37.483   7.678
  275POPC   NC3 7019  26.812  19.479   9.363
  275POPC   PO4 7020  26.794  18.743   9.509
  275POPC   GL1 7021  26.787  18.703   9.100
  275POPC   GL2 7022  26.664  19.036   9.051
  275POPC   C1A 7023  27.032  18.645   8.766
  275POPC   D2A 7024  27.126  18.911   8.451
  275POPC   C3A 7025  26.851  18.927   8.089
  275POPC   C4A 7026  26.762  18.629   7.752
  275POPC   C1B 7027  26.789  19.236   8.670
  275POPC   C2B 7028  26.836  19.428   8.264
  275POPC   C3B 7029  26.834  19.359   7.819
  275POPC   C4B 7030  27.052  19.039   7.632
  276POPC   NC3 7031  32.086  23.128   9.666
  276POPC   PO4 7032  32.210  22.520   9.533
  276POPC   GL1 7033  32.243  22.827   9.186
  276POPC   GL2 7034  31.995  23.130   9.178
  276POPC   C1A 7035  32.362  22.692   8.761
  276POPC   D2A 7036  32.344  22.912   8.397
  276POPC   C3A 7037  32.298  22.738   8.023
  276POPC   C4A 7038  32.363  23.001   7.690
  276POPC   C1B 7039  32.004  23.073   8.773
  276POPC   C2B 7040  32.020  23.324   8.410
  276POPC   C3B 7041  31.952  23.109   8.029
  276POPC   C4B 7042  31.848  23.043   7.590
  277POPC   NC3 7043  16.359  22.897   9.501
  277POPC   PO4 7044  15.784  22.619   9.511
  277POPC   GL1 7045  15.945  22.803   9.144
  277POPC   GL2 7046  16.098  23.155   9.131
  277POPC   C1A 7047  15.913  22.605   8.745
  277POPC   D2A 7048  15.986  22.471   8.345
  277POPC   C3A 7049  15.820  22.775   8.057
  277POPC   C4A 7050  15.814  23.184   7.962
  277POPC   C1B 7051  16.260  23.001   8.787
  277POPC   C2B 7052  16.128  22.970   8.421
  277POPC   C3B 7053  16.313  23.011   8.075
  277POPC   C4B 7054  16.246  22.773   7.769
  278POPC   NC3 7055   0.753  29.137   9.487
  278POPC   PO4 7056   0.060  29.097   9.589
  278POPC   GL1 7057   0.300  29.272   9.210
  278POPC   GL2 7058   0.599  29.490   9.131
  278POPC   C1A 7059   0.277  29.138   8.781
  278POPC   D2A 7060   0.415  28.763   8.531
  278POPC   C3A 7061   0.378  28.812   8.089
  278POPC   C4A 7062   0.329  29.226   7.915
  278POPC   C1B 7063   0.773  29.228   8.795
  278POPC   C2B 7064   0.662  29.198   8.379
  278POPC   C3B 7065   0.819  29.304   8.002
  278POPC   C4B 7066   0.772  29.091   7.618
  279POPC   NC3 7067  33.309  43.993   9.663
  279POPC   PO4 7068  32.725  43.621   9.484
  279POPC   GL1 7069  32.931  43.715   9.130
  279POPC   GL2 7070  32.876  44.059   9.095
  279POPC   C1A 7071  32.785  43.748   8.701
  279POPC   D2A 7072  32.741  44.004   8.335
  279POPC   C3A 7073  32.616  43.800   7.996
  279POPC   C4A 7074  32.945  43.558   7.823
  279POPC   C1B 7075  33.084  44.191   8.730
  279POPC   C2B 7076  33.464  44.207   8.478
  279POPC   C3B 7077  33.380  44.239   8.051
  279POPC   C4B 7078  33.054  44.046   7.850
  280POPC   NC3 7079   9.449  39.503   9.547
  280POPC   PO4 7080  10.008  38.998   9.474
  280POPC   GL1 7081   9.884  39.167   9.114
  280POPC   GL2 7082   9.532  39.150   9.153
  280POPC   C1A 7083   9.792  39.380   8.741
  280POPC   D2A 7084   9.640  39.232   8.330
  280POPC   C3A 7085   9.852  39.389   7.985
  280POPC   C4A 7086   9.618  39.515   7.693
  280POPC   C1B 7087   9.583  38.909   8.743
  280POPC   C2B 7088   9.884  38.762   8.448
  280POPC   C3B 7089   9.984  38.904   8.054
  280POPC   C4B 7090   9.775  38.968   7.677
  281POPC   NC3 7091  26.912  18.356   9.751
  281POPC   PO4 7092  27.123  17.860   9.361
  281POPC   GL1 7093  26.941  18.164   9.047
  281POPC   GL2 7094  26.594  18.157   8.897
  281POPC   C1A 7095  27.007  18.161   8.591
  281POPC   D2A 7096  26.919  18.464   8.283
  281POPC   C3A 7097  27.141  18.362   7.970
  281POPC   C4A 7098  27.095  18.027   7.723
  281POPC   C1B 7099  26.504  18.236   8.493
  281POPC   C2B 7100  26.633  18.106   8.065
  281POPC   C3B 7101  26.534  18.173   7.681
  281POPC   C4B 7102  26.184  18.105   7.425
  282POPC   NC3 7103  23.552  34.231   9.550
  282POPC   PO4 7104  24.032  34.754   9.553
  282POPC   GL1 7105  23.936  34.681   9.149
  282POPC   GL2 7106  23.907  34.344   9.113
  282POPC   C1A 7107  23.767  34.692   8.735
  282POPC   D2A 7108  23.778  34.920   8.413
  282POPC   C3A 7109  23.830  34.720   8.036
  282POPC   C4A 7110  23.880  34.851   7.611
  282POPC   C1B 7111  23.845  34.198   8.702
  282POPC   C2B 7112  23.698  34.284   8.269
  282POPC   C3B 7113  23.964  34.219   7.866
  282POPC   C4B 7114  24.086  34.021   7.446
  283POPC   NC3 7115  20.259  11.972   9.659
  283POPC   PO4 7116  19.636  12.170   9.601
  283POPC   GL1 7117  19.787  12.344   9.166
  283POPC   GL2 7118  19.585  12.623   9.005
  283POPC   C1A 7119  19.938  12.374   8.710
  283POPC   D2A 7120  20.193  12.196   8.390
  283POPC   C3A 7121  20.052  11.987   8.028
  283POPC   C4A 7122  20.156  12.113   7.618
  283POPC   C1B 7123  19.450  12.244   8.811
  283POPC   C2B 7124  19.597  12.037   8.487
  283POPC   C3B 7125  19.649  12.281   8.164
  283POPC   C4B 7126  19.656  12.183   7.763
  284POPC   NC3 7127  10.344   1.072   9.687
  284POPC   PO4 7128  10.875   1.375   9.470
  284POPC   GL1 7129  10.682   1.034   9.168
  284POPC   GL2 7130  10.296   1.032   9.161
  284POPC   C1A 7131  10.604   1.166   8.701
  284POPC   D2A 7132  10.882   1.365   8.387
  284POPC   C3A 7133  10.810   1.237   7.973
  284POPC   C4A 7134  10.730   1.410   7.549
  284POPC   C1B 7135  10.105   1.031   8.741
  284POPC   C2B 7136  10.083   1.192   8.313
  284POPC   C3B 7137  10.317   1.235   7.904
  284POPC   C4B 7138  10.258   1.206   7.452
  285POPC   NC3 7139  11.684  12.633   9.766
  285POPC   PO4 7140  12.091  13.117   9.601
  285POPC   GL1 7141  12.022  12.801   9.211
  285POPC   GL2 7142  12.129  12.438   9.145
  285POPC   C1A 7143  12.024  12.780   8.730
  285POPC   D2A 7144  12.265  13.002   8.382
  285POPC   C3A 7145  12.170  13.023   7.936
  285POPC   C4A 7146  11.831  12.782   7.833
  285POPC   C1B 7147  12.485  12.595   8.882
  285POPC   C2B 7148  12.646  12.635   8.459
  285POPC   C3B 7149  12.440  12.585   8.059
  285POPC   C4B 7150  12.273  12.623   7.633
  286POPC   NC3 7151  40.362  44.358   9.347
  286POPC   PO4 7152  39.960  44.991   9.510
  286POPC   GL1 7153  40.090  44.761   9.179
  286POPC   GL2 7154  40.346  44.943   9.113
  286POPC   C1A 7155  40.028  44.553   8.807
  286POPC   D2A 7156  39.895  44.688   8.429
  286POPC   C3A 7157  40.129  44.635   8.106
  286POPC   C4A 7158  39.962  44.565   7.720
  286POPC   C1B 7159  40.234   0.026   8.688
  286POPC   C2B 7160  40.470  44.972   8.314
  286POPC   C3B 7161  40.571  44.814   7.932
  286POPC   C4B 7162  40.384  44.786   7.515
  287POPC   NC3 7163  27.453  35.590  10.068
  287POPC   PO4 7164  27.854  35.330   9.590
  287POPC   GL1 7165  27.785  35.501   9.167
  287POPC   GL2 7166  27.410  35.515   9.143
  287POPC   C1A 7167  27.711  35.583   8.736
  287POPC   D2A 7168  27.600  35.324   8.400
  287POPC   C3A 7169  27.591  35.403   8.017
  287POPC   C4A 7170  27.987  35.396   7.905
  287POPC   C1B 7171  27.488  35.131   8.863
  287POPC   C2B 7172  27.655  34.838   8.520
  287POPC   C3B 7173  27.696  34.881   8.064
  287POPC   C4B 7174  27.730  35.046   7.645
  288POPC   NC3 7175  28.644  26.381   9.480
  288POPC   PO4 7176  28.189  25.942   9.455
  288POPC   GL1 7177  28.355  26.154   9.112
  288POPC   GL2 7178  28.720  26.136   9.033
  288POPC   C1A 7179  28.338  26.299   8.690
  288POPC   D2A 7180  28.601  26.128   8.351
  288POPC   C3A 7181  28.280  26.198   8.036
  288POPC   C4A 7182  28.288  26.145   7.581
  288POPC   C1B 7183  28.520  25.822   8.758
  288POPC   C2B 7184  28.283  25.743   8.374
  288POPC   C3B 7185  28.481  25.740   7.960
  288POPC   C4B 7186  28.340  25.620   7.554
  289POPC   NC3 7187  40.245  40.349   9.817
  289POPC   PO4 7188  39.803  39.874   9.453
  289POPC   GL1 7189  39.844  40.018   9.063
  289POPC   GL2 7190  40.202  39.831   8.933
  289POPC   C1A 7191  39.949  40.247   8.707
  289POPC   D2A 7192  40.242  40.089   8.417
  289POPC   C3A 7193  40.108  40.051   8.014
  289POPC   C4A 7194  40.287  40.182   7.618
  289POPC   C1B 7195  39.877  39.618   8.766
  289POPC   C2B 7196  39.730  39.595   8.369
  289POPC   C3B 7197  39.821  39.630   7.922
  289POPC   C4B 7198  39.908  39.845   7.548
  290POPC   NC3 7199  26.366  17.569   9.600
  290POPC   PO4 7200  25.690  17.597   9.549
  290POPC   GL1 7201  25.930  17.453   9.220
  290POPC   GL2 7202  26.115  17.756   9.142
  290POPC   C1A 7203  25.840  17.454   8.783
  290POPC   D2A 7204  26.021  17.395   8.384
  290POPC   C3A 7205  25.799  17.607   8.064
  290POPC   C4A 7206  25.713  17.458   7.674
  290POPC   C1B 7207  26.305  17.719   8.725
  290POPC   C2B 7208  26.222  17.853   8.285
  290POPC   C3B 7209  26.241  17.754   7.831
  290POPC   C4B 7210  26.175  17.542   7.428
  291POPC   NC3 7211  38.770  41.854   9.438
  291POPC   PO4 7212  38.456  41.322   9.436
  291POPC   GL1 7213  38.393  41.618   9.126
  291POPC   GL2 7214  38.044  41.640   9.043
  291POPC   C1A 7215  38.595  41.683   8.722
  291POPC   D2A 7216  38.656  41.380   8.369
  291POPC   C3A 7217  38.673  41.533   7.923
  291POPC   C4A 7218  38.498  41.686   7.512
  291POPC   C1B 7219  38.203  41.333   8.723
  291POPC   C2B 7220  38.169  41.187   8.297
  291POPC   C3B 7221  38.174  41.347   7.879
  291POPC   C4B 7222  38.097  41.375   7.418
  292POPC   NC3 7223  39.522   4.182   9.515
  292POPC   PO4 7224  40.135   4.470   9.568
  292POPC   GL1 7225  40.164   4.321   9.188
  292POPC   GL2 7226  39.948   4.072   9.228
  292POPC   C1A 7227  40.178   4.222   8.776
  292POPC   D2A 7228  39.936   4.293   8.423
  292POPC   C3A 7229  40.069   4.438   8.027
  292POPC   C4A 7230  40.099   4.208   7.661
  292POPC   C1B 7231  39.673   4.092   8.847
  292POPC   C2B 7232  39.565   3.946   8.427
  292POPC   C3B 7233  39.716   4.035   8.007
  292POPC   C4B 7234  39.669   3.915   7.564
  293POPC   NC3 7235  20.096   4.562   9.386
  293POPC   PO4 7236  19.559   4.250   9.337
  293POPC   GL1 7237  19.772   4.405   8.997
  293POPC   GL2 7238  20.035   4.172   9.078
  293POPC   C1A 7239  20.102   4.531   8.704
  293POPC   D2A 7240  20.178   4.536   8.276
  293POPC   C3A 7241  19.778   4.428   8.016
  293POPC   C4A 7242  19.449   4.301   7.699
  293POPC   C1B 7243  20.115   3.993   8.720
  293POPC   C2B 7244  19.950   4.080   8.367
  293POPC   C3B 7245  20.130   4.061   8.016
  293POPC   C4B 7246  20.181   4.024   7.621
  294POPC   NC3 7247   3.080  44.858   9.423
  294POPC   PO4 7248   2.466  44.664   9.447
  294POPC   GL1 7249   2.725  44.617   9.142
  294POPC   GL2 7250   2.976  44.367   9.294
  294POPC   C1A 7251   2.881  44.826   8.801
  294POPC   D2A 7252   2.858  44.913   8.407
  294POPC   C3A 7253   2.532  44.761   8.204
  294POPC   C4A 7254   2.615  44.968   7.835
  294POPC   C1B 7255   2.848  44.193   8.918
  294POPC   C2B 7256   2.720  44.399   8.556
  294POPC   C3B 7257   2.739  44.304   8.118
  294POPC   C4B 7258   2.550  44.465   7.762
  295POPC   NC3 7259   9.824   9.682   9.541
  295POPC   PO4 7260   9.478  10.276   9.691
  295POPC   GL1 7261   9.507   9.949   9.247
  295POPC   GL2 7262   9.872   9.814   9.075
  295POPC   C1A 7263   9.490   9.756   8.784
  295POPC   D2A 7264   9.599  10.011   8.413
  295POPC   C3A 7265   9.498   9.918   7.964
  295POPC   C4A 7266   9.638   9.521   7.780
  295POPC   C1B 7267  10.128  10.032   8.815
  295POPC   C2B 7268  10.147  10.017   8.411
  295POPC   C3B 7269   9.952   9.780   8.123
  295POPC   C4B 7270   9.990   9.954   7.725
  296POPC   NC3 7271  14.116  13.144   9.343
  296POPC   PO4 7272  14.655  12.862   9.393
  296POPC   GL1 7273  14.545  12.635   9.023
  296POPC   GL2 7274  14.249  12.760   9.015
  296POPC   C1A 7275  14.469  12.688   8.564
  296POPC   D2A 7276  14.772  12.698   8.262
  296POPC   C3A 7277  14.530  12.934   7.992
  296POPC   C4A 7278  14.315  12.782   7.670
  296POPC   C1B 7279  13.978  12.569   8.726
  296POPC   C2B 7280  13.957  12.717   8.291
  296POPC   C3B 7281  13.859  12.644   7.837
  296POPC   C4B 7282  13.874  12.969   7.462
  297POPC   NC3 7283  39.589  34.952   9.524
  297POPC   PO4 7284  38.989  35.208   9.541
  297POPC   GL1 7285  39.105  35.328   9.140
  297POPC   GL2 7286  39.423  35.404   9.249
  297POPC   C1A 7287  38.991  35.655   8.811
  297POPC   D2A 7288  39.149  35.698   8.424
  297POPC   C3A 7289  38.978  35.558   8.063
  297POPC   C4A 7290  39.049  35.452   7.649
  297POPC   C1B 7291  39.497  35.504   8.828
  297POPC   C2B 7292  39.652  35.643   8.442
  297POPC   C3B 7293  39.509  35.474   8.067
  297POPC   C4B 7294  39.632  35.675   7.720
  298POPC   NC3 7295  11.922  28.133   9.447
  298POPC   PO4 7296  12.517  28.293   9.641
  298POPC   GL1 7297  12.341  28.366   9.194
  298POPC   GL2 7298  12.026  28.566   9.091
  298POPC   C1A 7299  12.245  28.254   8.764
  298POPC   D2A 7300  12.047  28.120   8.392
  298POPC   C3A 7301  12.164  28.307   7.995
  298POPC   C4A 7302  12.281  27.994   7.726
  298POPC   C1B 7303  11.762  28.441   8.708
  298POPC   C2B 7304  11.775  28.520   8.259
  298POPC   C3B 7305  11.676  28.439   7.837
  298POPC   C4B 7306  11.872  28.361   7.479
  299POPC   NC3 7307   8.145  24.854   9.610
  299POPC   PO4 7308   8.140  25.475   9.652
  299POPC   GL1 7309   8.136  25.327   9.240
  299POPC   GL2 7310   8.364  25.043   9.198
  299POPC   C1A 7311   8.187  25.297   8.786
  299POPC   D2A 7312   7.979  25.091   8.429
  299POPC   C3A 7313   7.953  25.405   8.097
  299POPC   C4A 7314   8.222  25.274   7.724
  299POPC   C1B 7315   8.362  24.810   8.822
  299POPC   C2B 7316   8.457  24.657   8.432
  299POPC   C3B 7317   8.502  24.772   8.012
  299POPC   C4B 7318   8.443  24.584   7.614
  300POPC   NC3 7319  37.506  33.970   9.358
  300POPC   PO4 7320  38.038  33.670   9.661
  300POPC   GL1 7321  37.923  33.642   9.192
  300POPC   GL2 7322  37.574  33.501   9.107
  300POPC   C1A 7323  37.844  33.768   8.737
  300POPC   D2A 7324  38.011  34.051   8.406
  300POPC   C3A 7325  37.845  33.876   8.034
  300POPC   C4A 7326  37.969  33.548   7.750
  300POPC   C1B 7327  37.373  33.548   8.753
  300POPC   C2B 7328  37.405  33.749   8.386
  300POPC   C3B 7329  37.320  33.869   7.999
  300POPC   C4B 7330  37.544  33.798   7.634
  301POPC   NC3 7331  16.195   9.587   9.654
  301POPC   PO4 7332  15.695   9.895   9.671
  301POPC   GL1 7333  15.804   9.784   9.241
  301POPC   GL2 7334  16.034   9.979   9.059
  301POPC   C1A 7335  15.645   9.688   8.837
  301POPC   D2A 7336  15.638   9.637   8.393
  301POPC   C3A 7337  15.685   9.891   8.030
  301POPC   C4A 7338  15.850   9.554   7.805
  301POPC   C1B 7339  16.077   9.835   8.607
  301POPC   C2B 7340  16.145   9.612   8.213
  301POPC   C3B 7341  16.367   9.634   7.807
  301POPC   C4B 7342  16.512   9.973   7.522
  302POPC   NC3 7343  13.512   7.627   9.537
  302POPC   PO4 7344  13.861   7.043   9.380
  302POPC   GL1 7345  13.588   7.216   9.074
  302POPC   GL2 7346  13.480   7.569   9.033
  302POPC   C1A 7347  13.754   7.387   8.653
  302POPC   D2A 7348  13.568   7.652   8.334
  302POPC   C3A 7349  13.760   7.661   7.940
  302POPC   C4A 7350  13.842   7.400   7.608
  302POPC   C1B 7351  13.247   7.322   8.713
  302POPC   C2B 7352  13.237   7.134   8.328
  302POPC   C3B 7353  13.397   7.274   7.909
  302POPC   C4B 7354  13.329   7.617   7.622
  303POPC   NC3 7355   6.530  37.032   9.451
  303POPC   PO4 7356   7.095  36.650   9.515
  303POPC   GL1 7357   6.886  36.805   9.138
  303POPC   GL2 7358   6.749  37.161   9.012
  303POPC   C1A 7359   6.974  36.803   8.728
  303POPC   D2A 7360   6.768  36.838   8.366
  303POPC   C3A 7361   6.961  36.923   7.988
  303POPC   C4A 7362   6.789  36.736   7.603
  303POPC   C1B 7363   6.422  36.868   8.796
  303POPC   C2B 7364   6.262  36.773   8.347
  303POPC   C3B 7365   6.431  36.888   7.932
  303POPC   C4B 7366   6.492  37.171   7.586
  304POPC   NC3 7367  29.088  29.108   9.585
  304POPC   PO4 7368  29.747  29.129   9.552
  304POPC   GL1 7369  29.411  29.228   9.170
  304POPC   GL2 7370  29.003  29.157   9.111
  304POPC   C1A 7371  29.297  29.102   8.719
  304POPC   D2A 7372  29.084  28.825   8.403
  304POPC   C3A 7373  29.238  28.910   8.006
  304POPC   C4A 7374  29.153  29.310   7.855
  304POPC   C1B 7375  28.836  29.309   8.739
  304POPC   C2B 7376  28.731  29.203   8.330
  304POPC   C3B 7377  28.740  29.006   7.945
  304POPC   C4B 7378  28.724  29.238   7.570
  305POPC   NC3 7379  21.337   3.894   9.612
  305POPC   PO4 7380  21.550   3.182   9.693
  305POPC   GL1 7381  21.539   3.457   9.276
  305POPC   GL2 7382  21.761   3.513   9.028
  305POPC   C1A 7383  21.272   3.536   8.862
  305POPC   D2A 7384  21.298   3.544   8.441
  305POPC   C3A 7385  21.436   3.852   8.196
  305POPC   C4A 7386  21.398   3.582   7.838
  305POPC   C1B 7387  21.598   3.184   8.694
  305POPC   C2B 7388  21.578   3.024   8.250
  305POPC   C3B 7389  21.635   3.134   7.808
  305POPC   C4B 7390  21.631   3.385   7.411
  306POPC   NC3 7391   8.634  27.858   9.416
  306POPC   PO4 7392   9.322  27.663   9.451
  306POPC   GL1 7393   8.957  27.540   9.130
  306POPC   GL2 7394   8.814  27.172   9.069
  306POPC   C1A 7395   8.921  27.466   8.684
  306POPC   D2A 7396   9.067  27.670   8.348
  306POPC   C3A 7397   8.904  27.548   7.989
  306POPC   C4A 7398   8.786  27.563   7.588
  306POPC   C1B 7399   8.687  27.000   8.658
  306POPC   C2B 7400   8.589  27.232   8.267
  306POPC   C3B 7401   8.594  27.128   7.804
  306POPC   C4B 7402   8.696  27.141   7.333
  307POPC   NC3 7403  20.239  36.329   9.619
  307POPC   PO4 7404  20.805  35.939   9.448
  307POPC   GL1 7405  20.623  35.968   9.078
  307POPC   GL2 7406  20.457  36.271   9.153
  307POPC   C1A 7407  20.554  36.083   8.663
  307POPC   D2A 7408  20.314  36.059   8.326
  307POPC   C3A 7409  20.428  36.015   7.942
  307POPC   C4A 7410  20.750  35.895   7.702
  307POPC   C1B 7411  20.631  36.539   8.835
  307POPC   C2B 7412  20.785  36.500   8.437
  307POPC   C3B 7413  20.535  36.485   8.121
  307POPC   C4B 7414  20.631  36.437   7.710
  308POPC   NC3 7415  36.214  10.262   9.434
  308POPC   PO4 7416  35.771  10.698   9.622
  308POPC   GL1 7417  35.836  10.774   9.185
  308POPC   GL2 7418  36.160  10.614   9.080
  308POPC   C1A 7419  35.842  10.767   8.727
  308POPC   D2A 7420  36.162  10.675   8.419
  308POPC   C3A 7421  35.949  10.606   8.032
  308POPC   C4A 7422  35.659  10.892   7.752
  308POPC   C1B 7423  36.439  10.407   8.764
  308POPC   C2B 7424  36.441  10.176   8.364
  308POPC   C3B 7425  36.506  10.158   7.929
  308POPC   C4B 7426  36.375  10.421   7.622
  309POPC   NC3 7427  37.002  44.192   9.544
  309POPC   PO4 7428  36.396  43.924   9.364
  309POPC   GL1 7429  36.771  43.956   9.121
  309POPC   GL2 7430  37.035  43.721   9.244
  309POPC   C1A 7431  36.738  43.829   8.699
  309POPC   D2A 7432  36.487  43.662   8.344
  309POPC   C3A 7433  36.737  43.647   7.945
  309POPC   C4A 7434  36.935  44.025   7.792
  309POPC   C1B 7435  37.253  43.796   8.867
  309POPC   C2B 7436  37.191  43.933   8.468
  309POPC   C3B 7437  37.284  43.780   8.089
  309POPC   C4B 7438  37.233  43.575   7.712
  310POPC   NC3 7439  19.339  26.137   9.586
  310POPC   PO4 7440  18.819  25.679   9.532
  310POPC   GL1 7441  19.086  25.871   9.205
  310POPC   GL2 7442  19.000  26.248   9.185
  310POPC   C1A 7443  19.071  25.955   8.762
  310POPC   D2A 7444  19.054  26.303   8.490
  310POPC   C3A 7445  19.070  26.127   8.083
  310POPC   C4A 7446  18.756  26.271   7.803
  310POPC   C1B 7447  19.386  26.287   8.945
  310POPC   C2B 7448  19.538  26.447   8.567
  310POPC   C3B 7449  19.580  26.353   8.118
  310POPC   C4B 7450  19.388  26.255   7.702
  311POPC   NC3 7451  16.526   2.301   9.488
  311POPC   PO4 7452  17.038   1.881   9.373
  311POPC   GL1 7453  16.725   2.084   9.056
  311POPC   GL2 7454  16.516   2.424   9.013
  311POPC   C1A 7455  16.728   1.848   8.686
  311POPC   D2A 7456  17.100   1.845   8.430
  311POPC   C3A 7457  17.001   1.863   8.002
  311POPC   C4A 7458  17.273   1.764   7.696
  311POPC   C1B 7459  16.759   2.386   8.648
  311POPC   C2B 7460  16.686   2.153   8.289
  311POPC   C3B 7461  16.545   2.229   7.905
  311POPC   C4B 7462  16.817   2.391   7.626
  312POPC   NC3 7463  18.397   2.945   9.614
  312POPC   PO4 7464  17.873   2.662   9.450
  312POPC   GL1 7465  18.158   2.768   9.108
  312POPC   GL2 7466  18.466   2.950   9.101
  312POPC   C1A 7467  18.094   2.962   8.711
  312POPC   D2A 7468  18.169   2.850   8.306
  312POPC   C3A 7469  18.010   3.035   7.928
  312POPC   C4A 7470  18.219   3.012   7.504
  312POPC   C1B 7471  18.594   3.090   8.674
  312POPC   C2B 7472  18.655   2.930   8.249
  312POPC   C3B 7473  18.455   2.729   7.904
  312POPC   C4B 7474  18.706   2.909   7.594
  313POPC   NC3 7475  28.124  10.927   9.692
  313POPC   PO4 7476  28.163  10.344   9.469
  313POPC   GL1 7477  28.369  10.322   9.116
  313POPC   GL2 7478  28.722  10.442   9.171
  313POPC   C1A 7479  28.492  10.396   8.707
  313POPC   D2A 7480  28.338  10.526   8.330
  313POPC   C3A 7481  28.306  10.354   7.925
  313POPC   C4A 7482  28.350  10.433   7.485
  313POPC   C1B 7483  28.818  10.788   8.833
  313POPC   C2B 7484  28.728  10.886   8.408
  313POPC   C3B 7485  28.794  10.608   8.090
  313POPC   C4B 7486  28.800  10.597   7.678
  314POPC   NC3 7487  10.596  42.129   9.509
  314POPC   PO4 7488  10.153  42.639   9.394
  314POPC   GL1 7489  10.343  42.354   9.100
  314POPC   GL2 7490  10.176  42.065   9.204
  314POPC   C1A 7491  10.569  42.356   8.697
  314POPC   D2A 7492  10.651  42.644   8.379
  314POPC   C3A 7493  10.436  42.461   8.078
  314POPC   C4A 7494  10.530  42.396   7.677
  314POPC   C1B 7495  10.279  41.936   8.762
  314POPC   C2B 7496  10.466  41.994   8.318
  314POPC   C3B 7497  10.352  41.940   7.864
  314POPC   C4B 7498  10.489  41.936   7.416
  315POPC   NC3 7499  44.003  14.832   9.477
  315POPC   PO4 7500  44.130  15.451   9.518
  315POPC   GL1 7501  43.973  15.271   9.145
  315POPC   GL2 7502  43.687  15.016   9.130
  315POPC   C1A 7503  43.849  15.259   8.713
  315POPC   D2A 7504  43.828  14.964   8.394
  315POPC   C3A 7505  43.718  15.221   8.101
  315POPC   C4A 7506  43.795  15.313   7.700
  315POPC   C1B 7507  44.065  14.834   8.840
  315POPC   C2B 7508  44.358  14.965   8.500
  315POPC   C3B 7509  44.258  15.218   8.159
  315POPC   C4B 7510  44.117  14.954   7.845
  316POPC   NC3 7511  11.784  21.792   9.516
  316POPC   PO4 7512  12.056  22.527   9.384
  316POPC   GL1 7513  12.078  22.106   9.221
  316POPC   GL2 7514  12.409  21.981   9.132
  316POPC   C1A 7515  11.935  21.911   8.843
  316POPC   D2A 7516  11.953  21.747   8.426
  316POPC   C3A 7517  11.986  22.001   8.049
  316POPC   C4A 7518  12.078  21.881   7.615
  316POPC   C1B 7519  12.313  22.301   8.798
  316POPC   C2B 7520  12.092  22.491   8.472
  316POPC   C3B 7521  11.847  22.533   8.101
  316POPC   C4B 7522  11.990  22.415   7.702
  317POPC   NC3 7523  39.583  22.921   9.567
  317POPC   PO4 7524  40.163  22.670   9.399
  317POPC   GL1 7525  40.344  22.721   8.998
  317POPC   GL2 7526  40.471  23.058   9.128
  317POPC   C1A 7527  40.238  22.638   8.563
  317POPC   D2A 7528  40.025  22.963   8.303
  317POPC   C3A 7529  40.002  23.029   7.838
  317POPC   C4A 7530  39.613  23.057   7.560
  317POPC   C1B 7531  40.426  23.116   8.685
  317POPC   C2B 7532  40.445  23.338   8.301
  317POPC   C3B 7533  40.493  23.218   7.906
  317POPC   C4B 7534  40.385  23.155   7.475
  318POPC   NC3 7535  13.207  19.305   9.481
  318POPC   PO4 7536  12.580  19.349   9.463
  318POPC   GL1 7537  12.878  19.382   9.093
  318POPC   GL2 7538  13.042  19.076   9.049
  318POPC   C1A 7539  12.975  19.437   8.659
  318POPC   D2A 7540  12.732  19.227   8.344
  318POPC   C3A 7541  12.751  19.104   7.920
  318POPC   C4A 7542  13.085  19.147   7.641
  318POPC   C1B 7543  12.734  18.931   8.749
  318POPC   C2B 7544  12.807  18.720   8.314
  318POPC   C3B 7545  13.112  18.715   7.968
  318POPC   C4B 7546  13.082  18.651   7.541
  319POPC   NC3 7547   2.989  14.333   9.779
  319POPC   PO4 7548   2.402  14.416   9.418
  319POPC   GL1 7549   2.591  14.238   9.094
  319POPC   GL2 7550   2.594  14.538   8.924
  319POPC   C1A 7551   2.870  14.140   8.718
  319POPC   D2A 7552   2.824  14.372   8.371
  319POPC   C3A 7553   2.716  14.179   8.028
  319POPC   C4A 7554   2.428  14.286   7.745
  319POPC   C1B 7555   3.019  14.609   8.785
  319POPC   C2B 7556   3.193  14.732   8.463
  319POPC   C3B 7557   3.041  14.819   8.109
  319POPC   C4B 7558   2.916  14.574   7.768
  320POPC   NC3 7559  35.340  34.126   9.434
  320POPC   PO4 7560  35.602  33.555   9.644
  320POPC   GL1 7561  35.537  33.664   9.187
  320POPC   GL2 7562  35.186  33.750   9.131
  320POPC   C1A 7563  35.568  33.745   8.725
  320POPC   D2A 7564  35.481  34.049   8.406
  320POPC   C3A 7565  35.435  33.917   7.983
  320POPC   C4A 7566  35.043  34.013   7.837
  320POPC   C1B 7567  35.096  33.906   8.719
  320POPC   C2B 7568  35.101  33.716   8.297
  320POPC   C3B 7569  34.879  33.549   7.927
  320POPC   C4B 7570  34.807  33.347   7.511
  321POPC   NC3 7571  43.577  28.072   9.266
  321POPC   PO4 7572  43.028  28.486   9.567
  321POPC   GL1 7573  43.020  28.551   9.134
  321POPC   GL2 7574  43.355  28.695   9.079
  321POPC   C1A 7575  42.865  28.370   8.770
  321POPC   D2A 7576  43.005  28.275   8.368
  321POPC   C3A 7577  43.045  28.569   8.037
  321POPC   C4A 7578  43.125  28.379   7.658
  321POPC   C1B 7579  43.277  28.632   8.646
  321POPC   C2B 7580  43.432  28.794   8.261
  321POPC   C3B 7581  43.491  28.736   7.778
  321POPC   C4B 7582  43.374  28.658   7.310
  322POPC   NC3 7583  12.906  13.532   9.500
  322POPC   PO4 7584  13.301  14.097   9.485
  322POPC   GL1 7585  13.158  13.751   9.140
  322POPC   GL2 7586  13.252  13.361   9.189
  322POPC   C1A 7587  12.898  13.526   8.797
  322POPC   D2A 7588  12.581  13.634   8.469
  322POPC   C3A 7589  12.784  13.700   8.062
  322POPC   C4A 7590  12.689  13.678   7.596
  322POPC   C1B 7591  13.338  13.289   8.748
  322POPC   C2B 7592  13.185  13.447   8.367
  322POPC   C3B 7593  13.135  13.281   7.996
  322POPC   C4B 7594  13.105  13.407   7.608
  323POPC   NC3 7595  30.451  37.538   9.592
  323POPC   PO4 7596  30.840  38.065   9.489
  323POPC   GL1 7597  30.553  37.832   9.202
  323POPC   GL2 7598  30.793  37.580   9.183
  323POPC   C1A 7599  30.429  37.668   8.760
  323POPC   D2A 7600  30.688  37.809   8.359
  323POPC   C3A 7601  30.711  37.634   7.919
  323POPC   C4A 7602  30.496  37.837   7.536
  323POPC   C1B 7603  30.928  37.589   8.770
  323POPC   C2B 7604  31.008  37.405   8.360
  323POPC   C3B 7605  31.269  37.281   8.045
  323POPC   C4B 7606  31.200  37.356   7.592
  324POPC   NC3 7607  36.124  20.653   9.697
  324POPC   PO4 7608  36.911  20.624   9.668
  324POPC   GL1 7609  37.023  20.662   9.230
  324POPC   GL2 7610  36.716  20.730   9.162
  324POPC   C1A 7611  37.044  20.626   8.760
  324POPC   D2A 7612  37.083  20.357   8.347
  324POPC   C3A 7613  37.075  20.539   7.926
  324POPC   C4A 7614  37.080  20.716   7.484
  324POPC   C1B 7615  36.558  20.820   8.801
  324POPC   C2B 7616  36.659  20.629   8.413
  324POPC   C3B 7617  36.659  20.847   8.022
  324POPC   C4B 7618  36.604  20.694   7.620
  325POPC   NC3 7619  42.821  42.313   9.595
  325POPC   PO4 7620  43.365  42.557   9.363
  325POPC   GL1 7621  42.976  42.461   9.119
  325POPC   GL2 7622  42.680  42.175   9.124
  325POPC   C1A 7623  43.057  42.630   8.701
  325POPC   D2A 7624  43.329  42.519   8.367
  325POPC   C3A 7625  43.160  42.588   7.974
  325POPC   C4A 7626  43.239  42.377   7.575
  325POPC   C1B 7627  42.863  42.150   8.724
  325POPC   C2B 7628  42.872  42.292   8.291
  325POPC   C3B 7629  43.159  42.081   8.001
  325POPC   C4B 7630  43.023  41.730   7.754
  326POPC   NC3 7631  37.019  38.710   9.412
  326POPC   PO4 7632  36.694  38.113   9.549
  326POPC   GL1 7633  36.839  38.263   9.162
  326POPC   GL2 7634  36.598  38.530   9.088
  326POPC   C1A 7635  36.806  38.256   8.706
  326POPC   D2A 7636  36.696  38.136   8.290
  326POPC   C3A 7637  36.833  38.396   7.955
  326POPC   C4A 7638  37.266  38.449   7.781
  326POPC   C1B 7639  36.717  38.821   8.738
  326POPC   C2B 7640  36.681  38.763   8.299
  326POPC   C3B 7641  36.591  38.851   7.894
  326POPC   C4B 7642  36.863  38.736   7.567
  327POPC   NC3 7643  31.593   9.310   9.809
  327POPC   PO4 7644  31.244   8.830   9.600
  327POPC   GL1 7645  31.433   9.112   9.339
  327POPC   GL2 7646  31.593   8.878   9.163
  327POPC   C1A 7647  31.340   9.227   8.900
  327POPC   D2A 7648  31.082   8.954   8.593
  327POPC   C3A 7649  31.259   8.860   8.169
  327POPC   C4A 7650  31.396   9.031   7.775
  327POPC   C1B 7651  31.802   8.727   8.797
  327POPC   C2B 7652  31.759   8.763   8.347
  327POPC   C3B 7653  31.713   8.658   7.921
  327POPC   C4B 7654  31.693   8.676   7.499
  328POPC   NC3 7655  19.672  32.596   9.563
  328POPC   PO4 7656  19.883  33.191   9.483
  328POPC   GL1 7657  19.898  33.088   9.113
  328POPC   GL2 7658  19.989  32.775   9.187
  328POPC   C1A 7659  20.012  33.073   8.717
  328POPC   D2A 7660  19.790  33.165   8.370
  328POPC   C3A 7661  19.899  33.230   7.994
  328POPC   C4A 7662  19.725  33.468   7.694
  328POPC   C1B 7663  19.717  32.670   8.852
  328POPC   C2B 7664  19.822  32.668   8.423
  328POPC   C3B 7665  19.609  32.788   8.047
  328POPC   C4B 7666  19.638  32.973   7.621
  329POPC   NC3 7667  38.720   6.852   9.176
  329POPC   PO4 7668  39.236   6.688   9.622
  329POPC   GL1 7669  39.230   6.732   9.163
  329POPC   GL2 7670  39.272   7.091   9.162
  329POPC   C1A 7671  39.165   6.629   8.702
  329POPC   D2A 7672  39.250   6.384   8.300
  329POPC   C3A 7673  39.104   6.499   7.877
  329POPC   C4A 7674  39.384   6.542   7.491
  329POPC   C1B 7675  39.449   7.076   8.721
  329POPC   C2B 7676  39.339   6.904   8.270
  329POPC   C3B 7677  39.319   6.967   7.790
  329POPC   C4B 7678  39.372   7.016   7.301
  330POPC   NC3 7679  36.785  33.276   9.486
  330POPC   PO4 7680  36.890  32.599   9.371
  330POPC   GL1 7681  36.945  32.928   9.074
  330POPC   GL2 7682  37.087  33.267   9.083
  330POPC   C1A 7683  36.944  33.030   8.651
  330POPC   D2A 7684  37.166  33.266   8.379
  330POPC   C3A 7685  37.090  33.084   8.014
  330POPC   C4A 7686  37.054  33.013   7.588
  330POPC   C1B 7687  36.875  33.511   8.805
  330POPC   C2B 7688  36.865  33.684   8.421
  330POPC   C3B 7689  36.924  33.556   8.003
  330POPC   C4B 7690  37.191  33.466   7.682
  331POPC   NC3 7691   5.133  41.350   9.594
  331POPC   PO4 7692   4.621  41.703   9.440
  331POPC   GL1 7693   4.918  41.479   9.108
  331POPC   GL2 7694   5.285  41.496   9.142
  331POPC   C1A 7695   5.128  41.574   8.664
  331POPC   D2A 7696   5.393  41.809   8.358
  331POPC   C3A 7697   5.195  41.842   7.977
  331POPC   C4A 7698   5.091  41.833   7.530
  331POPC   C1B 7699   5.395  41.172   8.838
  331POPC   C2B 7700   5.416  41.208   8.409
  331POPC   C3B 7701   5.214  41.057   8.059
  331POPC   C4B 7702   5.149  41.348   7.737
  332POPC   NC3 7703   5.794  43.036   9.761
  332POPC   PO4 7704   6.209  42.580   9.793
  332POPC   GL1 7705   6.175  43.008   9.421
  332POPC   GL2 7706   5.805  43.100   9.272
  332POPC   C1A 7707   6.170  43.119   8.934
  332POPC   D2A 7708   6.069  42.822   8.588
  332POPC   C3A 7709   6.023  42.931   8.120
  332POPC   C4A 7710   5.897  42.826   7.686
  332POPC   C1B 7711   5.660  43.020   8.860
  332POPC   C2B 7712   5.726  43.210   8.483
  332POPC   C3B 7713   5.520  43.330   8.126
  332POPC   C4B 7714   5.672  43.270   7.754
  333POPC   NC3 7715  42.988   7.760   9.496
  333POPC   PO4 7716  42.796   8.468   9.456
  333POPC   GL1 7717  43.138   8.359   9.132
  333POPC   GL2 7718  43.393   8.093   9.195
  333POPC   C1A 7719  43.117   8.172   8.739
  333POPC   D2A 7720  42.838   8.016   8.471
  333POPC   C3A 7721  42.966   8.043   8.059
  333POPC   C4A 7722  43.056   8.378   7.789
  333POPC   C1B 7723  43.494   7.852   8.809
  333POPC   C2B 7724  43.518   8.051   8.396
  333POPC   C3B 7725  43.471   8.083   7.958
  333POPC   C4B 7726  43.611   7.688   7.837
  334POPC   NC3 7727  12.110  16.102   9.464
  334POPC   PO4 7728  11.821  15.592   9.388
  334POPC   GL1 7729  11.908  15.705   8.996
  334POPC   GL2 7730  12.228  15.782   9.054
  334POPC   C1A 7731  11.975  15.749   8.548
  334POPC   D2A 7732  11.913  15.646   8.145
  334POPC   C3A 7733  11.828  15.977   7.826
  334POPC   C4A 7734  11.654  16.096   7.418
  334POPC   C1B 7735  12.363  15.502   8.749
  334POPC   C2B 7736  12.444  15.619   8.302
  334POPC   C3B 7737  12.338  15.767   7.860
  334POPC   C4B 7738  12.134  15.904   7.430
  335POPC   NC3 7739  33.664  39.147   9.451
  335POPC   PO4 7740  33.787  39.827   9.440
  335POPC   GL1 7741  33.712  39.555   9.141
  335POPC   GL2 7742  34.047  39.454   9.151
  335POPC   C1A 7743  33.503  39.377   8.761
  335POPC   D2A 7744  33.310  39.302   8.337
  335POPC   C3A 7745  33.427  38.999   8.050
  335POPC   C4A 7746  33.596  39.061   7.670
  335POPC   C1B 7747  34.008  39.197   8.805
  335POPC   C2B 7748  33.789  39.046   8.446
  335POPC   C3B 7749  33.947  39.146   8.055
  335POPC   C4B 7750  34.084  39.235   7.629
  336POPC   NC3 7751  25.106  30.977   9.544
  336POPC   PO4 7752  25.163  31.620   9.517
  336POPC   GL1 7753  25.150  31.403   9.098
  336POPC   GL2 7754  25.309  31.077   9.103
  336POPC   C1A 7755  24.943  31.416   8.671
  336POPC   D2A 7756  25.140  31.300   8.265
  336POPC   C3A 7757  25.331  31.622   7.996
  336POPC   C4A 7758  24.959  31.755   7.741
  336POPC   C1B 7759  25.395  31.177   8.689
  336POPC   C2B 7760  25.486  30.914   8.352
  336POPC   C3B 7761  25.546  31.107   7.989
  336POPC   C4B 7762  25.597  31.325   7.647
  337POPC   NC3 7763  17.934  33.350   9.619
  337POPC   PO4 7764  18.583  33.233   9.394
  337POPC   GL1 7765  18.315  33.294   9.071
  337POPC   GL2 7766  17.957  33.400   9.118
  337POPC   C1A 7767  18.367  33.083   8.692
  337POPC   D2A 7768  18.351  32.715   8.434
  337POPC   C3A 7769  18.419  32.937   8.044
  337POPC   C4A 7770  18.199  32.960   7.611
  337POPC   C1B 7771  17.997  33.482   8.683
  337POPC   C2B 7772  18.035  33.403   8.241
  337POPC   C3B 7773  18.283  33.396   7.890
  337POPC   C4B 7774  18.416  33.409   7.453
  338POPC   NC3 7775  26.282  23.759   9.773
  338POPC   PO4 7776  26.811  23.363   9.593
  338POPC   GL1 7777  26.772  23.710   9.278
  338POPC   GL2 7778  26.415  23.817   9.283
  338POPC   C1A 7779  26.972  23.700   8.864
  338POPC   D2A 7780  27.116  23.536   8.472
  338POPC   C3A 7781  26.799  23.474   8.144
  338POPC   C4A 7782  26.716  23.610   7.734
  338POPC   C1B 7783  26.361  23.818   8.853
  338POPC   C2B 7784  26.604  23.771   8.486
  338POPC   C3B 7785  26.636  23.975   8.067
  338POPC   C4B 7786  26.499  24.058   7.628
  339POPC   NC3 7787   2.600   4.800   9.330
  339POPC   PO4 7788   2.955   5.285   9.590
  339POPC   GL1 7789   2.881   5.184   9.142
  339POPC   GL2 7790   2.521   5.293   9.135
  339POPC   C1A 7791   2.999   4.892   8.763
  339POPC   D2A 7792   3.160   4.871   8.325
  339POPC   C3A 7793   2.950   4.985   7.938
  339POPC   C4A 7794   2.912   5.422   7.803
  339POPC   C1B 7795   2.548   5.173   8.701
  339POPC   C2B 7796   2.659   5.264   8.262
  339POPC   C3B 7797   2.442   5.223   7.845
  339POPC   C4B 7798   2.363   5.561   7.517
  340POPC   NC3 7799  32.722  19.705   9.504
  340POPC   PO4 7800  33.287  19.559   9.799
  340POPC   GL1 7801  33.166  19.635   9.284
  340POPC   GL2 7802  32.892  19.377   9.173
  340POPC   C1A 7803  33.140  19.901   8.855
  340POPC   D2A 7804  32.952  19.825   8.392
  340POPC   C3A 7805  33.070  20.095   8.027
  340POPC   C4A 7806  33.368  20.034   7.708
  340POPC   C1B 7807  32.863  19.502   8.771
  340POPC   C2B 7808  32.539  19.471   8.490
  340POPC   C3B 7809  32.514  19.567   8.082
  340POPC   C4B 7810  32.908  19.628   7.900
  341POPC   NC3 7811  30.924  31.499   9.526
  341POPC   PO4 7812  30.383  31.014   9.458
  341POPC   GL1 7813  30.666  31.291   9.083
  341POPC   GL2 7814  31.035  31.473   9.034
  341POPC   C1A 7815  30.750  31.385   8.609
  341POPC   D2A 7816  30.504  31.547   8.229
  341POPC   C3A 7817  30.523  31.347   7.799
  341POPC   C4A 7818  30.439  31.305   7.312
  341POPC   C1B 7819  31.205  31.185   8.740
  341POPC   C2B 7820  31.081  31.071   8.359
  341POPC   C3B 7821  30.954  31.357   8.101
  341POPC   C4B 7822  31.010  31.316   7.703
  342POPC   NC3 7823  42.543  39.250   9.717
  342POPC   PO4 7824  43.151  39.168   9.368
  342POPC   GL1 7825  43.134  39.440   9.042
  342POPC   GL2 7826  42.829  39.334   8.893
  342POPC   C1A 7827  43.257  39.415   8.612
  342POPC   D2A 7828  43.128  39.284   8.227
  342POPC   C3A 7829  43.040  39.483   7.873
  342POPC   C4A 7830  43.028  39.262   7.490
  342POPC   C1B 7831  42.992  38.972   8.687
  342POPC   C2B 7832  43.187  38.799   8.323
  342POPC   C3B 7833  42.992  38.870   7.915
  342POPC   C4B 7834  43.058  38.745   7.490
  343POPC   NC3 7835  41.513  25.921   9.569
  343POPC   PO4 7836  41.028  26.307   9.380
  343POPC   GL1 7837  41.418  26.282   9.113
  343POPC   GL2 7838  41.684  25.992   9.090
  343POPC   C1A 7839  41.589  26.263   8.691
  343POPC   D2A 7840  41.716  25.974   8.397
  343POPC   C3A 7841  41.610  26.230   8.075
  343POPC   C4A 7842  41.501  26.192   7.685
  343POPC   C1B 7843  41.406  25.790   8.809
  343POPC   C2B 7844  41.382  25.586   8.405
  343POPC   C3B 7845  41.332  25.788   8.039
  343POPC   C4B 7846  41.298  25.710   7.626
  344POPC   NC3 7847  18.515  42.211   9.555
  344POPC   PO4 7848  18.009  41.961   9.449
  344POPC   GL1 7849  18.146  42.369   9.156
  344POPC   GL2 7850  18.492  42.476   9.108
  344POPC   C1A 7851  18.226  42.543   8.689
  344POPC   D2A 7852  18.271  42.507   8.215
  344POPC   C3A 7853  18.101  42.166   7.946
  344POPC   C4A 7854  17.866  41.861   7.688
  344POPC   C1B 7855  18.756  42.574   8.729
  344POPC   C2B 7856  18.814  42.545   8.266
  344POPC   C3B 7857  18.614  42.715   7.899
  344POPC   C4B 7858  18.265  42.597   7.694
  345POPC   NC3 7859  33.621  10.413   9.484
  345POPC   PO4 7860  34.139  10.776   9.784
  345POPC   GL1 7861  34.052  10.846   9.302
  345POPC   GL2 7862  33.828  10.624   9.085
  345POPC   C1A 7863  34.133  10.897   8.831
  345POPC   D2A 7864  33.969  10.644   8.498
  345POPC   C3A 7865  34.017  10.706   8.050
  345POPC   C4A 7866  34.012  10.300   7.826
  345POPC   C1B 7867  33.572  10.392   8.809
  345POPC   C2B 7868  33.473  10.450   8.407
  345POPC   C3B 7869  33.560  10.456   8.005
  345POPC   C4B 7870  33.341  10.193   7.745
  346POPC   NC3 7871  42.641  24.205   9.409
  346POPC   PO4 7872  42.885  23.587   9.534
  346POPC   GL1 7873  42.880  23.751   9.165
  346POPC   GL2 7874  42.908  23.438   8.990
  346POPC   C1A 7875  43.066  23.907   8.795
  346POPC   D2A 7876  42.943  24.053   8.404
  346POPC   C3A 7877  43.157  23.890   8.068
  346POPC   C4A 7878  43.065  23.894   7.663
  346POPC   C1B 7879  43.337  23.434   8.835
  346POPC   C2B 7880  43.409  23.584   8.407
  346POPC   C3B 7881  43.351  23.418   7.976
  346POPC   C4B 7882  42.910  23.436   7.877
  347POPC   NC3 7883  27.741  13.063   9.496
  347POPC   PO4 7884  27.342  12.490   9.526
  347POPC   GL1 7885  27.452  12.624   9.103
  347POPC   GL2 7886  27.391  12.969   9.084
  347POPC   C1A 7887  27.737  12.672   8.732
  347POPC   D2A 7888  27.924  12.771   8.295
  347POPC   C3A 7889  27.556  12.913   8.044
  347POPC   C4A 7890  27.143  12.910   7.820
  347POPC   C1B 7891  27.713  13.207   8.872
  347POPC   C2B 7892  28.017  13.263   8.576
  347POPC   C3B 7893  28.112  13.354   8.178
  347POPC   C4B 7894  27.965  13.171   7.827
  348POPC   NC3 7895   5.773   0.120   9.207
  348POPC   PO4 7896   5.929  44.596   9.680
  348POPC   GL1 7897   5.967  44.565   9.218
  348POPC   GL2 7898   5.664  44.618   9.125
  348POPC   C1A 7899   6.066  44.621   8.776
  348POPC   D2A 7900   6.295  44.509   8.403
  348POPC   C3A 7901   6.090  44.582   8.038
  348POPC   C4A 7902   5.972  44.465   7.632
  348POPC   C1B 7903   5.542  44.739   8.697
  348POPC   C2B 7904   5.816  44.888   8.371
  348POPC   C3B 7905   5.812   0.070   7.967
  348POPC   C4B 7906   5.786  44.916   7.552
  349POPC   NC3 7907  29.055   0.701   9.358
  349POPC   PO4 7908  28.956   0.069   9.541
  349POPC   GL1 7909  29.188   0.206   9.175
  349POPC   GL2 7910  28.865   0.238   9.032
  349POPC   C1A 7911  29.272   0.409   8.750
  349POPC   D2A 7912  29.384   0.693   8.411
  349POPC   C3A 7913  29.351   0.479   8.017
  349POPC   C4A 7914  29.187   0.297   7.637
  349POPC   C1B 7915  28.614   0.159   8.662
  349POPC   C2B 7916  28.595  44.934   8.259
  349POPC   C3B 7917  28.857  44.997   7.893
  349POPC   C4B 7918  28.767   0.078   7.451
  350POPC   NC3 7919  35.751  26.376   9.613
  350POPC   PO4 7920  35.386  25.834   9.453
  350POPC   GL1 7921  35.363  26.200   9.210
  350POPC   GL2 7922  35.020  26.289   9.199
  350POPC   C1A 7923  35.438  26.266   8.776
  350POPC   D2A 7924  35.662  26.120   8.407
  350POPC   C3A 7925  35.486  26.172   8.037
  350POPC   C4A 7926  35.416  25.959   7.696
  350POPC   C1B 7927  34.972  26.068   8.796
  350POPC   C2B 7928  35.172  25.875   8.432
  350POPC   C3B 7929  35.030  25.881   8.013
  350POPC   C4B 7930  35.007  26.266   7.750
  351POPC   NC3 7931  43.624   1.254   9.444
  351POPC   PO4 7932  44.216   1.604   9.195
  351POPC   GL1 7933  44.068   1.185   9.040
  351POPC   GL2 7934  43.670   1.166   8.938
  351POPC   C1A 7935  44.030   1.031   8.616
  351POPC   D2A 7936  43.989   1.360   8.338
  351POPC   C3A 7937  44.082   1.273   7.942
  351POPC   C4A 7938  43.819   1.565   7.742
  351POPC   C1B 7939  43.565   0.728   8.750
  351POPC   C2B 7940  43.648   0.604   8.367
  351POPC   C3B 7941  43.723   0.970   8.157
  351POPC   C4B 7942  43.667   1.067   7.742
  352POPC   NC3 7943  30.644  42.627   9.479
  352POPC   PO4 7944  30.537  41.922   9.447
  352POPC   GL1 7945  30.737  42.196   9.157
  352POPC   GL2 7946  30.388  42.273   9.082
  352POPC   C1A 7947  30.726  42.513   8.798
  352POPC   D2A 7948  30.556  42.494   8.389
  352POPC   C3A 7949  30.739  42.510   7.978
  352POPC   C4A 7950  30.613  42.523   7.550
  352POPC   C1B 7951  30.537  42.049   8.697
  352POPC   C2B 7952  30.628  42.004   8.247
  352POPC   C3B 7953  30.617  42.050   7.796
  352POPC   C4B 7954  30.320  42.113   7.475
  353POPC   NC3 7955  18.200   3.922   9.528
  353POPC   PO4 7956  18.086   3.261   9.697
  353POPC   GL1 7957  18.281   3.403   9.258
  353POPC   GL2 7958  18.573   3.621   9.311
  353POPC   C1A 7959  18.107   3.457   8.786
  353POPC   D2A 7960  17.928   3.326   8.376
  353POPC   C3A 7961  18.140   3.532   8.073
  353POPC   C4A 7962  18.460   3.301   7.877
  353POPC   C1B 7963  18.475   3.782   8.883
  353POPC   C2B 7964  18.510   3.548   8.462
  353POPC   C3B 7965  18.595   3.776   8.085
  353POPC   C4B 7966  18.801   3.680   7.713
  354POPC   NC3 7967  18.637  19.810   9.737
  354POPC   PO4 7968  18.101  20.102   9.568
  354POPC   GL1 7969  18.368  19.889   9.267
  354POPC   GL2 7970  18.676  20.049   9.079
  354POPC   C1A 7971  18.301  19.691   8.915
  354POPC   D2A 7972  18.396  19.719   8.494
  354POPC   C3A 7973  18.280  19.909   8.123
  354POPC   C4A 7974  18.336  19.794   7.732
  354POPC   C1B 7975  18.301  20.210   8.846
  354POPC   C2B 7976  18.023  20.097   8.522
  354POPC   C3B 7977  17.879  20.198   8.089
  354POPC   C4B 7978  17.855  20.063   7.659
  355POPC   NC3 7979  31.816  41.096   9.581
  355POPC   PO4 7980  31.411  40.665   9.956
  355POPC   GL1 7981  31.416  40.617   9.423
  355POPC   GL2 7982  31.362  40.945   9.221
  355POPC   C1A 7983  31.446  40.565   8.915
  355POPC   D2A 7984  31.683  40.449   8.527
  355POPC   C3A 7985  31.578  40.635   8.121
  355POPC   C4A 7986  31.696  40.511   7.706
  355POPC   C1B 7987  31.092  40.931   8.854
  355POPC   C2B 7988  31.167  40.747   8.483
  355POPC   C3B 7989  31.062  40.570   8.128
  355POPC   C4B 7990  31.232  40.761   7.747
  356POPC   NC3 7991  31.388  35.380   9.596
  356POPC   PO4 7992  31.534  35.996   9.456
  356POPC   GL1 7993  31.615  35.592   9.179
  356POPC   GL2 7994  31.413  35.260   9.120
  356POPC   C1A 7995  31.626  35.491   8.738
  356POPC   D2A 7996  31.283  35.503   8.490
  356POPC   C3A 7997  31.488  35.589   8.121
  356POPC   C4A 7998  31.304  35.674   7.738
  356POPC   C1B 7999  31.465  35.017   8.751
  356POPC   C2B 8000  31.563  35.088   8.332
  356POPC   C3B 8001  31.443  35.117   7.924
  356POPC   C4B 8002  31.549  35.135   7.519
  357POPC   NC3 8003  37.375  10.754   9.451
  357POPC   PO4 8004  38.016  10.940   9.496
  357POPC   GL1 8005  37.844  10.670   9.131
  357POPC   GL2 8006  37.567  10.451   9.022
  357POPC   C1A 8007  37.645  10.823   8.714
  357POPC   D2A 8008  37.322  10.579   8.440
  357POPC   C3A 8009  37.291  10.744   8.013
  357POPC   C4A 8010  37.696  10.819   7.822
  357POPC   C1B 8011  37.985  10.284   8.825
  357POPC   C2B 8012  38.071  10.157   8.358
  357POPC   C3B 8013  37.794  10.295   7.999
  357POPC   C4B 8014  37.715  10.271   7.538
  358POPC   NC3 8015  36.393  14.993   9.359
  358POPC   PO4 8016  36.233  14.400   9.634
  358POPC   GL1 8017  36.133  14.520   9.226
  358POPC   GL2 8018  36.459  14.515   9.133
  358POPC   C1A 8019  35.940  14.472   8.805
  358POPC   D2A 8020  36.117  14.405   8.396
  358POPC   C3A 8021  35.925  14.604   8.058
  358POPC   C4A 8022  35.871  14.367   7.705
  358POPC   C1B 8023  36.373  14.750   8.748
  358POPC   C2B 8024  36.541  14.699   8.350
  358POPC   C3B 8025  36.434  14.516   7.942
  358POPC   C4B 8026  36.431  14.584   7.476
  359POPC   NC3 8027  42.975  15.867   9.494
  359POPC   PO4 8028  43.379  15.331   9.476
  359POPC   GL1 8029  43.299  15.683   9.142
  359POPC   GL2 8030  43.109  16.041   9.037
  359POPC   C1A 8031  43.411  15.751   8.731
  359POPC   D2A 8032  43.451  16.074   8.421
  359POPC   C3A 8033  43.421  15.868   8.035
  359POPC   C4A 8034  43.178  16.055   7.697
  359POPC   C1B 8035  42.981  16.012   8.605
  359POPC   C2B 8036  42.960  16.105   8.165
  359POPC   C3B 8037  42.695  16.158   7.800
  359POPC   C4B 8038  42.766  15.999   7.389
  360POPC   NC3 8039  26.496   1.801   9.570
  360POPC   PO4 8040  27.195   1.723   9.655
  360POPC   GL1 8041  26.903   1.720   9.235
  360POPC   GL2 8042  26.508   1.649   9.098
  360POPC   C1A 8043  26.851   1.876   8.812
  360POPC   D2A 8044  26.971   1.853   8.390
  360POPC   C3A 8045  26.820   2.122   8.060
  360POPC   C4A 8046  26.915   1.964   7.661
  360POPC   C1B 8047  26.486   1.516   8.690
  360POPC   C2B 8048  26.465   1.754   8.326
  360POPC   C3B 8049  26.494   1.770   7.893
  360POPC   C4B 8050  26.434   2.072   7.528
  361POPC   NC3 8051  15.024  43.650   9.317
  361POPC   PO4 8052  15.618  43.379   9.210
  361POPC   GL1 8053  15.433  43.718   8.973
  361POPC   GL2 8054  15.172  43.999   8.974
  361POPC   C1A 8055  15.458  43.731   8.546
  361POPC   D2A 8056  15.238  43.519   8.266
  361POPC   C3A 8057  15.118  43.827   8.035
  361POPC   C4A 8058  15.187  44.100   7.723
  361POPC   C1B 8059  14.955  43.735   8.669
  361POPC   C2B 8060  14.721  43.864   8.327
  361POPC   C3B 8061  14.763  44.191   8.022
  361POPC   C4B 8062  14.728  43.874   7.710
  362POPC   NC3 8063  23.702  31.899   9.557
  362POPC   PO4 8064  23.536  32.536   9.546
  362POPC   GL1 8065  23.739  32.355   9.202
  362POPC   GL2 8066  23.649  32.056   9.102
  362POPC   C1A 8067  23.728  32.386   8.742
  362POPC   D2A 8068  23.927  32.355   8.355
  362POPC   C3A 8069  23.713  32.340   7.993
  362POPC   C4A 8070  23.898  32.302   7.620
  362POPC   C1B 8071  23.455  31.884   8.778
  362POPC   C2B 8072  23.457  32.084   8.426
  362POPC   C3B 8073  23.447  31.901   8.071
  362POPC   C4B 8074  23.552  31.928   7.692
  363POPC   NC3 8075  13.156  35.786   9.955
  363POPC   PO4 8076  12.619  36.010   9.597
  363POPC   GL1 8077  12.710  36.055   9.150
  363POPC   GL2 8078  13.037  35.891   9.224
  363POPC   C1A 8079  12.708  36.217   8.723
  363POPC   D2A 8080  12.873  36.100   8.299
  363POPC   C3A 8081  12.768  36.224   7.861
  363POPC   C4A 8082  13.009  36.502   7.544
  363POPC   C1B 8083  12.941  35.773   8.807
  363POPC   C2B 8084  13.089  35.655   8.392
  363POPC   C3B 8085  13.045  35.785   7.933
  363POPC   C4B 8086  12.977  35.674   7.458
  364POPC   NC3 8087  38.462  11.066   9.501
  364POPC   PO4 8088  38.666  11.638   9.685
  364POPC   GL1 8089  38.653  11.516   9.252
  364POPC   GL2 8090  38.304  11.521   9.247
  364POPC   C1A 8091  38.483  11.281   8.866
  364POPC   D2A 8092  38.512  11.361   8.448
  364POPC   C3A 8093  38.613  11.012   8.204
  364POPC   C4A 8094  38.695  11.103   7.796
  364POPC   C1B 8095  38.082  11.621   8.822
  364POPC   C2B 8096  38.073  11.600   8.362
  364POPC   C3B 8097  38.364  11.594   8.000
  364POPC   C4B 8098  38.091  11.708   7.689
  365POPC   NC3 8099   4.319   4.115   9.510
  365POPC   PO4 8100   4.687   4.639   9.417
  365POPC   GL1 8101   4.357   4.485   9.178
  365POPC   GL2 8102   4.009   4.562   9.309
  365POPC   C1A 8103   4.394   4.232   8.819
  365POPC   D2A 8104   4.629   4.181   8.444
  365POPC   C3A 8105   4.400   4.235   8.078
  365POPC   C4A 8106   4.262   4.281   7.694
  365POPC   C1B 8107   3.937   4.462   8.851
  365POPC   C2B 8108   4.009   4.178   8.474
  365POPC   C3B 8109   3.890   4.233   8.035
  365POPC   C4B 8110   3.773   4.543   7.694
  366POPC   NC3 8111   4.326  30.891   9.540
  366POPC   PO4 8112   4.431  30.162   9.418
  366POPC   GL1 8113   4.527  30.521   9.143
  366POPC   GL2 8114   4.460  30.902   9.068
  366POPC   C1A 8115   4.356  30.491   8.729
  366POPC   D2A 8116   4.045  30.321   8.466
  366POPC   C3A 8117   4.144  30.391   8.052
  366POPC   C4A 8118   4.551  30.498   7.842
  366POPC   C1B 8119   4.225  30.989   8.720
  366POPC   C2B 8120   4.265  30.806   8.310
  366POPC   C3B 8121   4.220  30.871   7.880
  366POPC   C4B 8122   4.478  30.948   7.542
  367POPC   NC3 8123  15.934   1.132   9.617
  367POPC   PO4 8124  16.207   1.564   9.168
  367POPC   GL1 8125  16.169   1.255   8.949
  367POPC   GL2 8126  15.896   1.048   9.087
  367POPC   C1A 8127  16.374   1.286   8.567
  367POPC   D2A 8128  16.108   1.119   8.275
  367POPC   C3A 8129  15.940   1.446   8.043
  367POPC   C4A 8130  16.041   1.508   7.645
  367POPC   C1B 8131  15.746   0.774   8.715
  367POPC   C2B 8132  15.637   0.719   8.283
  367POPC   C3B 8133  15.799   0.905   7.917
  367POPC   C4B 8134  15.603   0.884   7.542
  368POPC   NC3 8135  27.434  43.453   9.664
  368POPC   PO4 8136  26.902  43.644   9.368
  368POPC   GL1 8137  27.264  43.404   9.171
  368POPC   GL2 8138  27.459  43.092   9.260
  368POPC   C1A 8139  27.616  43.413   8.875
  368POPC   D2A 8140  27.681  43.273   8.451
  368POPC   C3A 8141  27.333  43.144   8.153
  368POPC   C4A 8142  27.444  43.170   7.714
  368POPC   C1B 8143  27.657  42.894   8.870
  368POPC   C2B 8144  27.867  42.763   8.467
  368POPC   C3B 8145  27.796  42.938   8.072
  368POPC   C4B 8146  27.964  43.129   7.759
  369POPC   NC3 8147  31.747   7.460   9.536
  369POPC   PO4 8148  31.105   7.139   9.517
  369POPC   GL1 8149  31.371   7.317   9.183
  369POPC   GL2 8150  31.676   7.111   9.157
  369POPC   C1A 8151  31.606   7.610   8.893
  369POPC   D2A 8152  31.564   7.812   8.488
  369POPC   C3A 8153  31.543   7.715   8.056
  369POPC   C4A 8154  31.379   7.594   7.668
  369POPC   C1B 8155  31.592   7.143   8.711
  369POPC   C2B 8156  31.717   7.303   8.311
  369POPC   C3B 8157  31.433   7.183   7.965
  369POPC   C4B 8158  31.057   7.153   7.664
  370POPC   NC3 8159  17.108  17.940   9.426
  370POPC   PO4 8160  17.357  17.319   9.509
  370POPC   GL1 8161  17.664  17.365   9.142
  370POPC   GL2 8162  17.764  17.746   9.070
  370POPC   C1A 8163  17.842  17.347   8.745
  370POPC   D2A 8164  17.628  17.453   8.398
  370POPC   C3A 8165  17.674  17.261   8.030
  370POPC   C4A 8166  17.668  17.473   7.652
  370POPC   C1B 8167  17.405  17.681   8.805
  370POPC   C2B 8168  17.226  17.756   8.380
  370POPC   C3B 8169  17.407  17.731   8.007
  370POPC   C4B 8170  17.450  18.038   7.740
  371POPC   NC3 8171   3.413   5.286   9.650
  371POPC   PO4 8172   3.780   4.762   9.806
  371POPC   GL1 8173   3.758   5.027   9.355
  371POPC   GL2 8174   3.877   5.368   9.242
  371POPC   C1A 8175   3.420   5.119   8.993
  371POPC   D2A 8176   3.519   5.197   8.521
  371POPC   C3A 8177   3.321   5.329   8.121
  371POPC   C4A 8178   3.506   5.598   7.797
  371POPC   C1B 8179   3.899   5.066   8.859
  371POPC   C2B 8180   3.990   5.006   8.438
  371POPC   C3B 8181   3.818   5.151   8.063
  371POPC   C4B 8182   3.548   5.019   7.737
  372POPC   NC3 8183   4.659   7.275   9.531
  372POPC   PO4 8184   4.174   7.684   9.677
  372POPC   GL1 8185   4.310   7.513   9.240
  372POPC   GL2 8186   4.296   7.168   9.102
  372POPC   C1A 8187   4.566   7.487   8.827
  372POPC   D2A 8188   4.692   7.441   8.400
  372POPC   C3A 8189   4.321   7.588   8.182
  372POPC   C4A 8190   4.159   7.715   7.776
  372POPC   C1B 8191   4.474   6.992   8.683
  372POPC   C2B 8192   4.477   7.003   8.216
  372POPC   C3B 8193   4.400   7.214   7.830
  372POPC   C4B 8194   4.347   7.189   7.387
  373POPC   NC3 8195  42.410  43.439   9.593
  373POPC   PO4 8196  41.756  43.086   9.545
  373POPC   GL1 8197  42.133  43.122   9.285
  373POPC   GL2 8198  41.907  43.295   9.054
  373POPC   C1A 8199  42.370  43.155   8.862
  373POPC   D2A 8200  42.139  43.158   8.453
  373POPC   C3A 8201  42.417  43.159   8.058
  373POPC   C4A 8202  42.598  43.159   7.605
  373POPC   C1B 8203  41.970  42.847   8.890
  373POPC   C2B 8204  42.167  42.667   8.528
  373POPC   C3B 8205  42.133  42.667   8.112
  373POPC   C4B 8206  42.200  42.833   7.720
  374POPC   NC3 8207  10.913  36.011   9.469
  374POPC   PO4 8208  10.296  36.237   9.602
  374POPC   GL1 8209  10.492  36.276   9.199
  374POPC   GL2 8210  10.774  36.465   9.233
  374POPC   C1A 8211  10.491  36.092   8.784
  374POPC   D2A 8212  10.630  35.857   8.412
  374POPC   C3A 8213  10.375  36.037   8.099
  374POPC   C4A 8214  10.507  36.104   7.717
  374POPC   C1B 8215  10.968  36.271   8.855
  374POPC   C2B 8216  11.137  36.169   8.458
  374POPC   C3B 8217  10.867  36.217   8.094
  374POPC   C4B 8218  10.882  36.443   7.699
  375POPC   NC3 8219   7.961  29.842   9.748
  375POPC   PO4 8220   8.536  29.777   9.698
  375POPC   GL1 8221   8.266  29.936   9.323
  375POPC   GL2 8222   8.346  30.231   9.076
  375POPC   C1A 8223   8.123  29.847   8.875
  375POPC   D2A 8224   8.087  30.181   8.549
  375POPC   C3A 8225   8.021  30.055   8.116
  375POPC   C4A 8226   8.290  29.854   7.795
  375POPC   C1B 8227   8.577  30.056   8.732
  375POPC   C2B 8228   8.633  30.224   8.344
  375POPC   C3B 8229   8.447  30.337   7.952
  375POPC   C4B 8230   8.510  30.228   7.487
  376POPC   NC3 8231  35.033  40.290   9.665
  376POPC   PO4 8232  34.696  40.809   9.604
  376POPC   GL1 8233  34.475  40.722   9.233
  376POPC   GL2 8234  34.416  40.364   9.288
  376POPC   C1A 8235  34.391  40.914   8.813
  376POPC   D2A 8236  34.326  41.004   8.391
  376POPC   C3A 8237  34.538  40.793   8.101
  376POPC   C4A 8238  34.748  40.889   7.750
  376POPC   C1B 8239  34.237  40.430   8.877
  376POPC   C2B 8240  34.271  40.498   8.450
  376POPC   C3B 8241  34.161  40.447   8.021
  376POPC   C4B 8242  34.489  40.437   7.716
  377POPC   NC3 8243   4.291  23.677   9.622
  377POPC   PO4 8244   4.576  23.380   9.114
  377POPC   GL1 8245   4.401  23.749   9.121
  377POPC   GL2 8246   4.645  23.944   9.316
  377POPC   C1A 8247   4.231  23.821   8.716
  377POPC   D2A 8248   4.350  23.558   8.370
  377POPC   C3A 8249   4.233  23.609   7.932
  377POPC   C4A 8250   4.307  23.726   7.499
  377POPC   C1B 8251   4.617  24.132   8.879
  377POPC   C2B 8252   4.405  24.218   8.477
  377POPC   C3B 8253   4.450  24.026   8.139
  377POPC   C4B 8254   4.663  23.939   7.787
  378POPC   NC3 8255  27.933  14.216   9.498
  378POPC   PO4 8256  28.648  14.085   9.436
  378POPC   GL1 8257  28.389  14.345   9.139
  378POPC   GL2 8258  28.041  14.300   9.017
  378POPC   C1A 8259  28.439  14.190   8.725
  378POPC   D2A 8260  28.373  14.315   8.322
  378POPC   C3A 8261  28.721  14.205   8.084
  378POPC   C4A 8262  28.823  14.233   7.649
  378POPC   C1B 8263  28.122  14.612   8.701
  378POPC   C2B 8264  28.207  14.793   8.284
  378POPC   C3B 8265  28.367  14.612   7.888
  378POPC   C4B 8266  28.301  14.187   7.808
  379POPC   NC3 8267  29.092  19.269   9.430
  379POPC   PO4 8268  29.176  18.640   9.354
  379POPC   GL1 8269  28.927  18.899   9.073
  379POPC   GL2 8270  29.213  19.092   8.972
  379POPC   C1A 8271  28.853  18.984   8.630
  379POPC   D2A 8272  29.179  18.891   8.318
  379POPC   C3A 8273  29.041  19.022   7.920
  379POPC   C4A 8274  28.939  19.334   7.571
  379POPC   C1B 8275  29.531  18.818   8.851
  379POPC   C2B 8276  29.588  18.573   8.499
  379POPC   C3B 8277  29.630  18.718   8.091
  379POPC   C4B 8278  29.475  18.839   7.684
  380POPC   NC3 8279   5.495  11.183   9.417
  380POPC   PO4 8280   6.130  11.388   9.507
  380POPC   GL1 8281   5.857  11.471   9.157
  380POPC   GL2 8282   5.542  11.694   9.200
  380POPC   C1A 8283   5.911  11.256   8.769
  380POPC   D2A 8284   6.217  11.303   8.426
  380POPC   C3A 8285   6.076  11.239   8.003
  380POPC   C4A 8286   5.640  11.174   7.821
  380POPC   C1B 8287   5.632  11.676   8.729
  380POPC   C2B 8288   5.648  11.409   8.333
  380POPC   C3B 8289   5.410  11.589   8.005
  380POPC   C4B 8290   5.435  11.633   7.570
  381POPC   NC3 8291  39.590  18.265   9.636
  381POPC   PO4 8292  39.029  18.570   9.474
  381POPC   GL1 8293  39.336  18.612   9.121
  381POPC   GL2 8294  39.376  18.298   9.170
  381POPC   C1A 8295  39.320  18.662   8.671
  381POPC   D2A 8296  38.955  18.572   8.419
  381POPC   C3A 8297  38.996  18.374   8.014
  381POPC   C4A 8298  39.332  18.309   7.715
  381POPC   C1B 8299  39.149  18.195   8.792
  381POPC   C2B 8300  39.312  18.135   8.379
  381POPC   C3B 8301  39.170  17.902   8.009
  381POPC   C4B 8302  39.260  17.823   7.538
  382POPC   NC3 8303  10.777  37.866   9.609
  382POPC   PO4 8304  11.460  37.793   9.622
  382POPC   GL1 8305  11.549  37.652   9.217
  382POPC   GL2 8306  11.725  37.952   9.154
  382POPC   C1A 8307  11.395  37.578   8.776
  382POPC   D2A 8308  11.138  37.599   8.399
  382POPC   C3A 8309  11.348  37.602   8.008
  382POPC   C4A 8310  11.692  37.389   7.823
  382POPC   C1B 8311  11.314  38.051   8.971
  382POPC   C2B 8312  11.307  38.061   8.542
  382POPC   C3B 8313  11.086  38.081   8.175
  382POPC   C4B 8314  11.029  37.960   7.773
  383POPC   NC3 8315  18.136   5.584   9.305
  383POPC   PO4 8316  18.411   5.102   9.700
  383POPC   GL1 8317  18.289   5.082   9.250
  383POPC   GL2 8318  17.922   4.985   9.255
  383POPC   C1A 8319  18.350   5.239   8.794
  383POPC   D2A 8320  18.334   5.495   8.405
  383POPC   C3A 8321  18.405   5.212   8.090
  383POPC   C4A 8322  18.229   5.099   7.711
  383POPC   C1B 8323  18.043   4.824   8.845
  383POPC   C2B 8324  18.240   4.851   8.442
  383POPC   C3B 8325  18.000   4.860   8.094
  383POPC   C4B 8326  17.966   4.638   7.731
  384POPC   NC3 8327  37.265  15.457   9.199
  384POPC   PO4 8328  37.700  15.169   9.618
  384POPC   GL1 8329  37.653  15.092   9.213
  384POPC   GL2 8330  37.813  15.374   9.139
  384POPC   C1A 8331  37.786  14.918   8.833
  384POPC   D2A 8332  37.794  15.114   8.440
  384POPC   C3A 8333  37.776  14.902   8.064
  384POPC   C4A 8334  37.665  15.010   7.668
  384POPC   C1B 8335  37.876  15.552   8.749
  384POPC   C2B 8336  38.083  15.534   8.347
  384POPC   C3B 8337  37.850  15.404   7.994
  384POPC   C4B 8338  37.707  15.511   7.582
  385POPC   NC3 8339   3.938   3.212   9.360
  385POPC   PO4 8340   4.333   3.679   9.409
  385POPC   GL1 8341   4.378   3.411   9.099
  385POPC   GL2 8342   4.717   3.585   9.077
  385POPC   C1A 8343   4.113   3.420   8.701
  385POPC   D2A 8344   4.104   3.265   8.276
  385POPC   C3A 8345   4.301   3.431   7.904
  385POPC   C4A 8346   4.155   3.814   7.810
  385POPC   C1B 8347   4.504   3.741   8.711
  385POPC   C2B 8348   4.309   3.768   8.320
  385POPC   C3B 8349   4.641   3.808   8.027
  385POPC   C4B 8350   4.654   3.923   7.602
  386POPC   NC3 8351  29.968  31.220   9.509
  386POPC   PO4 8352  30.006  31.836   9.540
  386POPC   GL1 8353  30.217  31.570   9.175
  386POPC   GL2 8354  30.158  31.204   9.041
  386POPC   C1A 8355  30.276  31.549   8.709
  386POPC   D2A 8356  30.019  31.612   8.338
  386POPC   C3A 8357  30.102  31.224   8.093
  386POPC   C4A 8358  30.066  31.150   7.658
  386POPC   C1B 8359  29.808  31.323   8.763
  386POPC   C2B 8360  29.656  31.231   8.337
  386POPC   C3B 8361  29.643  31.366   7.898
  386POPC   C4B 8362  29.533  31.138   7.534
  387POPC   NC3 8363   7.738  26.514   9.512
  387POPC   PO4 8364   7.049  26.772   9.582
  387POPC   GL1 8365   7.323  26.689   9.218
  387POPC   GL2 8366   7.230  26.354   9.096
  387POPC   C1A 8367   7.642  26.914   8.922
  387POPC   D2A 8368   7.696  27.287   8.637
  387POPC   C3A 8369   7.712  27.165   8.169
  387POPC   C4A 8370   7.619  26.790   7.879
  387POPC   C1B 8371   7.259  26.641   8.719
  387POPC   C2B 8372   7.280  26.734   8.277
  387POPC   C3B 8373   7.137  26.614   7.863
  387POPC   C4B 8374   7.275  26.589   7.412
  388POPC   NC3 8375  16.948   8.063   9.560
  388POPC   PO4 8376  16.343   8.243   9.507
  388POPC   GL1 8377  16.563   7.997   9.209
  388POPC   GL2 8378  16.472   8.185   8.946
  388POPC   C1A 8379  16.904   7.937   8.871
  388POPC   D2A 8380  16.796   7.905   8.408
  388POPC   C3A 8381  16.950   8.061   8.003
  388POPC   C4A 8382  17.233   8.056   7.645
  388POPC   C1B 8383  16.192   8.466   8.699
  388POPC   C2B 8384  16.327   8.611   8.272
  388POPC   C3B 8385  16.576   8.438   7.895
  388POPC   C4B 8386  16.482   8.495   7.435
  389POPC   NC3 8387  12.275   1.497   9.541
  389POPC   PO4 8388  11.824   1.073   9.561
  389POPC   GL1 8389  11.980   1.078   9.180
  389POPC   GL2 8390  12.317   1.065   9.223
  389POPC   C1A 8391  11.815   1.205   8.779
  389POPC   D2A 8392  11.878   1.359   8.368
  389POPC   C3A 8393  11.777   1.191   7.976
  389POPC   C4A 8394  11.799   1.505   7.652
  389POPC   C1B 8395  12.304   1.343   8.843
  389POPC   C2B 8396  12.341   1.158   8.421
  389POPC   C3B 8397  12.265   1.312   7.999
  389POPC   C4B 8398  12.377   1.106   7.643
  390POPC   NC3 8399   9.003  38.847   9.829
  390POPC   PO4 8400   9.005  38.312   9.520
  390POPC   GL1 8401   8.986  38.484   9.112
  390POPC   GL2 8402   8.666  38.610   9.003
  390POPC   C1A 8403   9.105  38.736   8.752
  390POPC   D2A 8404   9.185  38.947   8.356
  390POPC   C3A 8405   9.197  38.647   8.016
  390POPC   C4A 8406   9.026  38.456   7.665
  390POPC   C1B 8407   8.701  38.301   8.717
  390POPC   C2B 8408   8.882  38.460   8.379
  390POPC   C3B 8409   8.647  38.514   8.019
  390POPC   C4B 8410   8.591  38.211   7.727
  391POPC   NC3 8411  41.608  43.521   9.434
  391POPC   PO4 8412  41.532  44.191   9.385
  391POPC   GL1 8413  41.470  43.902   9.084
  391POPC   GL2 8414  41.832  43.844   9.067
  391POPC   C1A 8415  41.490  43.598   8.753
  391POPC   D2A 8416  41.567  43.413   8.350
  391POPC   C3A 8417  41.489  43.724   8.025
  391POPC   C4A 8418  41.482  43.766   7.583
  391POPC   C1B 8419  42.019  43.636   8.684
  391POPC   C2B 8420  42.001  43.606   8.211
  391POPC   C3B 8421  41.989  43.821   7.805
  391POPC   C4B 8422  41.800  44.166   7.540
  392POPC   NC3 8423  34.081  42.408   9.791
  392POPC   PO4 8424  33.632  42.032   9.510
  392POPC   GL1 8425  33.873  42.187   9.190
  392POPC   GL2 8426  33.954  42.540   9.248
  392POPC   C1A 8427  33.771  42.291   8.780
  392POPC   D2A 8428  33.783  42.014   8.450
  392POPC   C3A 8429  33.871  42.201   8.060
  392POPC   C4A 8430  33.715  42.056   7.681
  392POPC   C1B 8431  34.063  42.723   8.835
  392POPC   C2B 8432  34.020  42.908   8.411
  392POPC   C3B 8433  33.981  42.772   7.974
  392POPC   C4B 8434  33.970  42.494   7.623
  393POPC   NC3 8435  44.867  43.570   9.580
  393POPC   PO4 8436  44.429  44.029   9.370
  393POPC   GL1 8437  44.629  43.711   9.148
  393POPC   GL2 8438   0.002  43.788   9.150
  393POPC   C1A 8439  44.695  43.709   8.734
  393POPC   D2A 8440  44.655  44.025   8.444
  393POPC   C3A 8441  44.691  43.777   8.097
  393POPC   C4A 8442  44.600  43.960   7.757
  393POPC   C1B 8443   0.136  43.998   8.789
  393POPC   C2B 8444   0.136  43.854   8.380
  393POPC   C3B 8445   0.091  44.022   7.963
  393POPC   C4B 8446   0.081  43.820   7.578
  394POPC   NC3 8447  34.567  15.798   9.582
  394POPC   PO4 8448  34.631  16.422   9.339
  394POPC   GL1 8449  34.566  16.064   9.090
  394POPC   GL2 8450  34.502  15.677   9.109
  394POPC   C1A 8451  34.569  16.190   8.677
  394POPC   D2A 8452  34.489  16.399   8.300
  394POPC   C3A 8453  34.377  16.182   7.952
  394POPC   C4A 8454  34.725  16.183   7.699
  394POPC   C1B 8455  34.713  15.690   8.759
  394POPC   C2B 8456  34.706  15.840   8.343
  394POPC   C3B 8457  34.602  15.721   7.955
  394POPC   C4B 8458  34.531  15.715   7.520
  395POPC   NC3 8459   2.899  37.321   9.409
  395POPC   PO4 8460   2.688  36.704   9.688
  395POPC   GL1 8461   2.727  36.851   9.238
  395POPC   GL2 8462   2.811  36.519   9.118
  395POPC   C1A 8463   2.636  37.123   8.822
  395POPC   D2A 8464   2.772  37.317   8.401
  395POPC   C3A 8465   2.545  37.226   8.043
  395POPC   C4A 8466   2.543  36.952   7.674
  395POPC   C1B 8467   2.585  36.619   8.749
  395POPC   C2B 8468   2.603  36.815   8.338
  395POPC   C3B 8469   2.943  36.902   8.020
  395POPC   C4B 8470   3.013  36.770   7.589
  396POPC   NC3 8471  35.934  11.122   9.653
  396POPC   PO4 8472  36.454  11.488   9.586
  396POPC   GL1 8473  36.248  11.357   9.183
  396POPC   GL2 8474  35.896  11.318   9.146
  396POPC   C1A 8475  36.329  11.021   8.838
  396POPC   D2A 8476  36.497  11.086   8.399
  396POPC   C3A 8477  36.272  11.134   8.011
  396POPC   C4A 8478  36.156  10.872   7.668
  396POPC   C1B 8479  35.908  11.265   8.709
  396POPC   C2B 8480  36.107  11.465   8.371
  396POPC   C3B 8481  35.947  11.643   7.998
  396POPC   C4B 8482  35.942  11.349   7.664
  397POPC   NC3 8483  17.796  42.372   9.532
  397POPC   PO4 8484  17.177  42.238   9.590
  397POPC   GL1 8485  17.266  42.496   9.174
  397POPC   GL2 8486  17.636  42.505   9.080
  397POPC   C1A 8487  17.347  42.410   8.683
  397POPC   D2A 8488  17.507  42.141   8.312
  397POPC   C3A 8489  17.534  42.267   7.868
  397POPC   C4A 8490  17.455  42.086   7.410
  397POPC   C1B 8491  17.763  42.737   8.715
  397POPC   C2B 8492  17.775  42.615   8.269
  397POPC   C3B 8493  17.788  42.719   7.829
  397POPC   C4B 8494  17.479  42.592   7.488
  398POPC   NC3 8495  29.543  20.059   9.845
  398POPC   PO4 8496  29.018  19.720   9.511
  398POPC   GL1 8497  28.884  19.761   9.146
  398POPC   GL2 8498  28.925  20.110   9.131
  398POPC   C1A 8499  28.946  19.482   8.811
  398POPC   D2A 8500  29.226  19.384   8.495
  398POPC   C3A 8501  29.074  19.502   8.080
  398POPC   C4A 8502  29.178  19.774   7.733
  398POPC   C1B 8503  29.102  19.960   8.738
  398POPC   C2B 8504  29.291  19.888   8.330
  398POPC   C3B 8505  29.383  20.171   7.981
  398POPC   C4B 8506  29.127  20.329   7.700
  399POPC   NC3 8507  43.674   4.666   9.473
  399POPC   PO4 8508  44.233   4.207   9.414
  399POPC   GL1 8509  43.933   4.306   9.131
  399POPC   GL2 8510  43.765   3.987   9.096
  399POPC   C1A 8511  43.996   4.341   8.710
  399POPC   D2A 8512  44.159   4.625   8.395
  399POPC   C3A 8513  43.945   4.623   8.018
  399POPC   C4A 8514  44.037   4.249   7.833
  399POPC   C1B 8515  43.604   3.996   8.700
  399POPC   C2B 8516  43.729   4.179   8.293
  399POPC   C3B 8517  43.646   3.974   7.913
  399POPC   C4B 8518  43.422   4.064   7.604
  400POPC   NC3 8519  43.427  28.238   9.708
  400POPC   PO4 8520  44.035  28.085   9.233
  400POPC   GL1 8521  43.937  28.332   8.951
  400POPC   GL2 8522  44.176  28.591   8.877
  400POPC   C1A 8523  44.121  28.198   8.561
  400POPC   D2A 8524  44.151  27.848   8.292
  400POPC   C3A 8525  44.019  28.067   7.931
  400POPC   C4A 8526  43.588  28.226   7.841
  400POPC   C1B 8527  43.792  28.662   8.621
  400POPC   C2B 8528  43.828  28.484   8.226
  400POPC   C3B 8529  43.976  28.591   7.839
  400POPC   C4B 8530  43.833  28.478   7.443
  401POPC   NC3 8531  12.188  11.961   9.597
  401POPC   PO4 8532  11.577  12.193   9.585
  401POPC   GL1 8533  11.782  12.044   9.198
  401POPC   GL2 8534  12.113  11.882   9.123
  401POPC   C1A 8535  11.913  12.136   8.753
  401POPC   D2A 8536  12.064  11.890   8.392
  401POPC   C3A 8537  12.000  12.132   8.011
  401POPC   C4A 8538  11.976  11.954   7.621
  401POPC   C1B 8539  12.399  11.857   8.787
  401POPC   C2B 8540  12.572  12.088   8.465
  401POPC   C3B 8541  12.481  11.987   8.079
  401POPC   C4B 8542  12.455  12.175   7.727
  402POPC   NC3 8543  24.075  12.444   9.415
  402POPC   PO4 8544  24.686  12.647   9.658
  402POPC   GL1 8545  24.560  12.560   9.199
  402POPC   GL2 8546  24.435  12.833   9.025
  402POPC   C1A 8547  24.759  12.483   8.748
  402POPC   D2A 8548  24.963  12.534   8.321
  402POPC   C3A 8549  24.716  12.768   7.999
  402POPC   C4A 8550  24.711  13.210   7.900
  402POPC   C1B 8551  24.271  12.657   8.698
  402POPC   C2B 8552  24.042  12.658   8.339
  402POPC   C3B 8553  24.193  12.642   7.906
  402POPC   C4B 8554  24.314  12.789   7.489
  403POPC   NC3 8555   7.936  10.687   9.725
  403POPC   PO4 8556   8.488  10.371   9.588
  403POPC   GL1 8557   8.431  10.451   9.204
  403POPC   GL2 8558   8.205  10.716   9.231
  403POPC   C1A 8559   8.554  10.651   8.849
  403POPC   D2A 8560   8.397  10.606   8.446
  403POPC   C3A 8561   8.439  10.856   8.104
  403POPC   C4A 8562   8.402  10.657   7.718
  403POPC   C1B 8563   8.034  10.578   8.832
  403POPC   C2B 8564   7.916  10.408   8.418
  403POPC   C3B 8565   7.981  10.602   8.037
  403POPC   C4B 8566   7.712  10.700   7.715
  404POPC   NC3 8567   8.350   6.319   9.529
  404POPC   PO4 8568   8.153   6.968   9.514
  404POPC   GL1 8569   8.032   6.929   9.114
  404POPC   GL2 8570   8.167   6.582   9.118
  404POPC   C1A 8571   8.146   6.846   8.668
  404POPC   D2A 8572   8.089   6.922   8.230
  404POPC   C3A 8573   8.079   6.742   7.843
  404POPC   C4A 8574   8.079   6.755   7.407
  404POPC   C1B 8575   8.115   6.311   8.758
  404POPC   C2B 8576   8.150   6.414   8.343
  404POPC   C3B 8577   8.083   6.246   7.959
  404POPC   C4B 8578   8.240   6.293   7.555
  405POPC   NC3 8579  11.192  33.693   9.509
  405POPC   PO4 8580  11.858  33.962   9.590
  405POPC   GL1 8581  11.531  33.982   9.207
  405POPC   GL2 8582  11.142  33.963   9.088
  405POPC   C1A 8583  11.514  33.798   8.815
  405POPC   D2A 8584  11.179  33.903   8.520
  405POPC   C3A 8585  11.363  33.863   8.137
  405POPC   C4A 8586  11.191  33.908   7.702
  405POPC   C1B 8587  11.062  33.545   8.873
  405POPC   C2B 8588  11.036  33.410   8.443
  405POPC   C3B 8589  10.936  33.627   8.050
  405POPC   C4B 8590  11.170  33.403   7.741
  406POPC   NC3 8591  19.889  14.893   9.557
  406POPC   PO4 8592  19.673  15.443   9.929
  406POPC   GL1 8593  19.724  15.287   9.301
  406POPC   GL2 8594  19.672  14.991   9.123
  406POPC   C1A 8595  19.794  15.361   8.792
  406POPC   D2A 8596  20.024  15.219   8.389
  406POPC   C3A 8597  19.922  15.208   7.941
  406POPC   C4A 8598  20.034  15.444   7.560
  406POPC   C1B 8599  19.481  14.942   8.725
  406POPC   C2B 8600  19.520  15.063   8.304
  406POPC   C3B 8601  19.582  14.827   7.933
  406POPC   C4B 8602  19.649  14.690   7.498
  407POPC   NC3 8603  13.905   2.067   9.503
  407POPC   PO4 8604  13.246   1.993   9.463
  407POPC   GL1 8605  13.598   1.803   9.177
  407POPC   GL2 8606  13.790   2.073   9.021
  407POPC   C1A 8607  13.799   1.635   8.782
  407POPC   D2A 8608  13.874   1.842   8.404
  407POPC   C3A 8609  13.629   1.726   8.065
  407POPC   C4A 8610  13.558   1.539   7.695
  407POPC   C1B 8611  13.892   2.304   8.675
  407POPC   C2B 8612  13.869   2.332   8.256
  407POPC   C3B 8613  13.774   2.171   7.849
  407POPC   C4B 8614  13.981   2.267   7.487
  408POPC   NC3 8615   2.021   1.988  10.018
  408POPC   PO4 8616   1.781   2.309   9.471
  408POPC   GL1 8617   1.887   1.977   9.207
  408POPC   GL2 8618   1.665   1.661   9.157
  408POPC   C1A 8619   2.106   2.006   8.839
  408POPC   D2A 8620   2.126   1.881   8.420
  408POPC   C3A 8621   2.082   2.054   8.052
  408POPC   C4A 8622   2.140   2.207   7.647
  408POPC   C1B 8623   1.750   1.639   8.734
  408POPC   C2B 8624   1.832   1.490   8.351
  408POPC   C3B 8625   1.710   1.704   7.987
  408POPC   C4B 8626   1.483   1.570   7.640
  409POPC   NC3 8627   1.218  42.808   9.508
  409POPC   PO4 8628   1.280  43.500   9.525
  409POPC   GL1 8629   1.277  43.252   9.155
  409POPC   GL2 8630   0.949  43.092   9.151
  409POPC   C1A 8631   1.164  43.326   8.729
  409POPC   D2A 8632   0.957  43.196   8.353
  409POPC   C3A 8633   1.127  43.355   7.972
  409POPC   C4A 8634   1.388  43.394   7.575
  409POPC   C1B 8635   0.960  42.816   8.796
  409POPC   C2B 8636   1.233  42.751   8.443
  409POPC   C3B 8637   1.110  42.811   8.008
  409POPC   C4B 8638   1.291  42.910   7.612
  410POPC   NC3 8639  33.848  28.287   9.605
  410POPC   PO4 8640  33.333  28.745   9.516
  410POPC   GL1 8641  33.618  28.580   9.223
  410POPC   GL2 8642  33.608  28.246   9.149
  410POPC   C1A 8643  33.718  28.658   8.801
  410POPC   D2A 8644  33.874  28.431   8.477
  410POPC   C3A 8645  33.728  28.586   8.105
  410POPC   C4A 8646  33.739  28.368   7.757
  410POPC   C1B 8647  33.400  28.257   8.746
  410POPC   C2B 8648  33.411  28.202   8.287
  410POPC   C3B 8649  33.547  27.936   7.950
  410POPC   C4B 8650  33.523  27.986   7.465
  411POPC   NC3 8651  40.577   4.510   9.456
  411POPC   PO4 8652  41.151   4.296   9.444
  411POPC   GL1 8653  40.871   4.226   9.091
  411POPC   GL2 8654  40.585   4.001   9.191
  411POPC   C1A 8655  40.907   4.137   8.623
  411POPC   D2A 8656  40.986   4.132   8.164
  411POPC   C3A 8657  40.837   4.528   7.943
  411POPC   C4A 8658  40.455   4.792   7.890
  411POPC   C1B 8659  40.517   3.848   8.765
  411POPC   C2B 8660  40.409   3.996   8.340
  411POPC   C3B 8661  40.528   4.105   7.918
  411POPC   C4B 8662  40.501   3.925   7.511
  412POPC   NC3 8663   1.847  27.903   9.444
  412POPC   PO4 8664   2.144  28.510   9.483
  412POPC   GL1 8665   1.930  28.486   9.120
  412POPC   GL2 8666   1.791  28.177   9.001
  412POPC   C1A 8667   2.129  28.612   8.744
  412POPC   D2A 8668   2.019  28.451   8.340
  412POPC   C3A 8669   2.126  28.728   8.023
  412POPC   C4A 8670   2.299  28.677   7.634
  412POPC   C1B 8671   2.163  28.102   8.741
  412POPC   C2B 8672   2.294  27.759   8.396
  412POPC   C3B 8673   2.289  27.886   7.962
  412POPC   C4B 8674   2.035  28.239   7.809
  413POPC   NC3 8675  39.145   6.241   9.584
  413POPC   PO4 8676  39.226   5.693   9.649
  413POPC   GL1 8677  39.267   5.777   9.129
  413POPC   GL2 8678  39.226   6.182   9.043
  413POPC   C1A 8679  39.087   5.829   8.706
  413POPC   D2A 8680  39.442   5.941   8.455
  413POPC   C3A 8681  39.478   5.665   8.148
  413POPC   C4A 8682  39.247   5.584   7.796
  413POPC   C1B 8683  39.598   6.357   8.769
  413POPC   C2B 8684  39.781   6.344   8.342
  413POPC   C3B 8685  39.608   6.114   7.972
  413POPC   C4B 8686  39.299   6.077   7.677
  414POPC   NC3 8687   4.354   0.568   9.500
  414POPC   PO4 8688   4.219   1.227   9.620
  414POPC   GL1 8689   4.231   1.281   9.186
  414POPC   GL2 8690   3.943   1.071   9.179
  414POPC   C1A 8691   4.377   1.433   8.775
  414POPC   D2A 8692   4.579   1.518   8.366
  414POPC   C3A 8693   4.511   1.294   7.965
  414POPC   C4A 8694   4.638   1.270   7.548
  414POPC   C1B 8695   3.841   1.335   8.818
  414POPC   C2B 8696   4.029   1.379   8.406
  414POPC   C3B 8697   3.997   1.191   7.981
  414POPC   C4B 8698   4.125   1.322   7.592
  415POPC   NC3 8699  44.248   4.666   9.421
  415POPC   PO4 8700  43.768   5.126   9.311
  415POPC   GL1 8701  43.983   4.955   9.039
  415POPC   GL2 8702  44.087   5.298   8.940
  415POPC   C1A 8703  43.789   4.817   8.676
  415POPC   D2A 8704  43.577   4.949   8.298
  415POPC   C3A 8705  43.736   5.094   7.909
  415POPC   C4A 8706  44.025   5.392   7.663
  415POPC   C1B 8707  43.744   5.334   8.701
  415POPC   C2B 8708  43.736   5.649   8.445
  415POPC   C3B 8709  43.740   5.575   8.050
  415POPC   C4B 8710  43.595   5.643   7.652
  416POPC   NC3 8711  24.361   3.377   9.481
  416POPC   PO4 8712  24.952   3.215   9.688
  416POPC   GL1 8713  24.794   3.535   9.281
  416POPC   GL2 8714  24.573   3.289   9.030
  416POPC   C1A 8715  24.657   3.753   8.860
  416POPC   D2A 8716  24.469   3.573   8.476
  416POPC   C3A 8717  24.568   3.707   8.027
  416POPC   C4A 8718  24.611   3.474   7.645
  416POPC   C1B 8719  24.190   3.118   8.837
  416POPC   C2B 8720  24.016   3.283   8.464
  416POPC   C3B 8721  24.229   3.320   8.098
  416POPC   C4B 8722  24.134   3.321   7.721
  417POPC   NC3 8723   9.517  33.964   9.599
  417POPC   PO4 8724  10.147  33.800   9.447
  417POPC   GL1 8725   9.922  33.768   9.068
  417POPC   GL2 8726   9.565  33.785   9.112
  417POPC   C1A 8727  10.004  33.602   8.647
  417POPC   D2A 8728   9.757  33.597   8.249
  417POPC   C3A 8729  10.039  33.803   7.949
  417POPC   C4A 8730  10.204  34.184   7.767
  417POPC   C1B 8731   9.547  33.821   8.673
  417POPC   C2B 8732   9.359  33.978   8.316
  417POPC   C3B 8733   9.577  34.013   7.931
  417POPC   C4B 8734   9.604  33.613   7.711
  418POPC   NC3 8735  41.190   6.085   9.469
  418POPC   PO4 8736  40.521   5.950   9.616
  418POPC   GL1 8737  40.679   6.019   9.223
  418POPC   GL2 8738  40.895   5.769   9.147
  418POPC   C1A 8739  40.531   5.905   8.810
  418POPC   D2A 8740  40.437   5.640   8.457
  418POPC   C3A 8741  40.477   5.783   8.052
  418POPC   C4A 8742  40.676   5.854   7.668
  418POPC   C1B 8743  41.010   5.664   8.751
  418POPC   C2B 8744  40.956   5.489   8.345
  418POPC   C3B 8745  41.060   5.683   7.957
  418POPC   C4B 8746  41.100   5.513   7.558
  419POPC   NC3 8747  26.050  14.249   9.596
  419POPC   PO4 8748  25.723  13.637   9.508
  419POPC   GL1 8749  26.019  13.696   9.172
  419POPC   GL2 8750  26.118  14.039   9.136
  419POPC   C1A 8751  25.986  13.470   8.786
  419POPC   D2A 8752  25.977  13.627   8.387
  419POPC   C3A 8753  26.208  13.377   8.118
  419POPC   C4A 8754  26.074  13.322   7.714
  419POPC   C1B 8755  26.181  14.206   8.738
  419POPC   C2B 8756  25.995  14.146   8.366
  419POPC   C3B 8757  25.871  14.107   7.975
  419POPC   C4B 8758  26.125  14.150   7.595
  420POPC   NC3 8759  32.635  31.704   9.803
  420POPC   PO4 8760  32.976  31.244   9.438
  420POPC   GL1 8761  33.088  31.580   9.143
  420POPC   GL2 8762  32.933  31.334   8.936
  420POPC   C1A 8763  33.245  31.667   8.743
  420POPC   D2A 8764  32.998  31.529   8.419
  420POPC   C3A 8765  33.141  31.559   8.010
  420POPC   C4A 8766  32.890  31.757   7.781
  420POPC   C1B 8767  33.266  31.140   8.703
  420POPC   C2B 8768  33.365  31.210   8.292
  420POPC   C3B 8769  33.370  31.055   7.865
  420POPC   C4B 8770  33.329  30.993   7.413
  421POPC   NC3 8771   4.546  27.644   9.584
  421POPC   PO4 8772   3.840  27.638   9.383
  421POPC   GL1 8773   4.174  27.415   9.177
  421POPC   GL2 8774   4.409  27.649   9.111
  421POPC   C1A 8775   4.164  27.455   8.721
  421POPC   D2A 8776   3.908  27.700   8.440
  421POPC   C3A 8777   4.088  27.820   8.080
  421POPC   C4A 8778   4.275  27.443   7.915
  421POPC   C1B 8779   4.603  27.749   8.755
  421POPC   C2B 8780   4.518  27.639   8.334
  421POPC   C3B 8781   4.599  27.836   7.940
  421POPC   C4B 8782   4.684  27.859   7.482
  422POPC   NC3 8783  10.157  12.165   9.481
  422POPC   PO4 8784   9.536  11.874   9.579
  422POPC   GL1 8785   9.738  11.992   9.212
  422POPC   GL2 8786   9.994  11.719   9.197
  422POPC   C1A 8787   9.702  12.259   8.831
  422POPC   D2A 8788   9.904  12.441   8.466
  422POPC   C3A 8789   9.748  12.251   8.073
  422POPC   C4A 8790   9.868  12.330   7.642
  422POPC   C1B 8791   9.899  11.772   8.785
  422POPC   C2B 8792   9.594  11.883   8.482
  422POPC   C3B 8793   9.539  11.718   8.103
  422POPC   C4B 8794   9.590  11.840   7.713
  423POPC   NC3 8795  11.393   5.050   9.520
  423POPC   PO4 8796  10.781   5.467   9.447
  423POPC   GL1 8797  11.070   5.278   9.138
  423POPC   GL2 8798  11.457   5.291   9.082
  423POPC   C1A 8799  11.138   5.202   8.692
  423POPC   D2A 8800  11.455   5.162   8.360
  423POPC   C3A 8801  11.203   4.969   8.045
  423POPC   C4A 8802  10.828   5.128   7.831
  423POPC   C1B 8803  11.618   4.944   8.825
  423POPC   C2B 8804  11.840   4.811   8.436
  423POPC   C3B 8805  11.697   4.797   8.028
  423POPC   C4B 8806  11.574   5.083   7.721
  424POPC   NC3 8807   6.944   0.218   9.547
  424POPC   PO4 8808   7.555   0.468   9.417
  424POPC   GL1 8809   7.222   0.517   9.111
  424POPC   GL2 8810   7.154   0.172   9.059
  424POPC   C1A 8811   7.034   0.625   8.710
  424POPC   D2A 8812   7.072   0.621   8.263
  424POPC   C3A 8813   7.367   0.361   8.122
  424POPC   C4A 8814   7.404   0.321   7.733
  424POPC   C1B 8815   7.369   0.208   8.639
  424POPC   C2B 8816   7.775   0.304   8.415
  424POPC   C3B 8817   7.891   0.518   8.028
  424POPC   C4B 8818   7.843   0.525   7.601
  425POPC   NC3 8819  29.594  24.180   9.481
  425POPC   PO4 8820  30.179  24.503   9.536
  425POPC   GL1 8821  30.036  24.363   9.168
  425POPC   GL2 8822  30.059  24.739   9.108
  425POPC   C1A 8823  29.786  24.276   8.785
  425POPC   D2A 8824  29.632  24.389   8.371
  425POPC   C3A 8825  29.913  24.423   8.022
  425POPC   C4A 8826  29.805  24.326   7.624
  425POPC   C1B 8827  30.183  24.583   8.713
  425POPC   C2B 8828  29.979  24.778   8.392
  425POPC   C3B 8829  30.048  24.979   8.052
  425POPC   C4B 8830  30.068  24.772   7.651
  426POPC   NC3 8831  31.052  13.556   9.495
  426POPC   PO4 8832  30.535  14.050   9.444
  426POPC   GL1 8833  30.751  13.772   9.130
  426POPC   GL2 8834  31.102  13.878   9.098
  426POPC   C1A 8835  30.656  13.540   8.742
  426POPC   D2A 8836  30.439  13.725   8.349
  426POPC   C3A 8837  30.495  13.628   7.912
  426POPC   C4A 8838  30.288  13.557   7.528
  426POPC   C1B 8839  30.947  13.937   8.671
  426POPC   C2B 8840  30.898  13.867   8.221
  426POPC   C3B 8841  30.825  13.997   7.788
  426POPC   C4B 8842  31.130  14.010   7.480
  427POPC   NC3 8843  15.595  17.199   9.648
  427POPC   PO4 8844  15.934  17.835   9.617
  427POPC   GL1 8845  16.106  17.556   9.231
  427POPC   GL2 8846  16.119  17.731   8.933
  427POPC   C1A 8847  15.997  17.282   8.803
  427POPC   D2A 8848  16.011  17.568   8.415
  427POPC   C3A 8849  16.115  17.366   8.083
  427POPC   C4A 8850  16.031  17.344   7.646
  427POPC   C1B 8851  15.656  17.665   8.742
  427POPC   C2B 8852  15.491  17.710   8.354
  427POPC   C3B 8853  15.711  17.647   7.965
  427POPC   C4B 8854  15.739  17.748   7.530
  428POPC   NC3 8855  44.814  24.167   9.292
  428POPC   PO4 8856  44.470  24.703   9.483
  428POPC   GL1 8857  44.415  24.452   9.113
  428POPC   GL2 8858  44.347  24.065   9.121
  428POPC   C1A 8859  44.315  24.656   8.752
  428POPC   D2A 8860  44.552  24.940   8.509
  428POPC   C3A 8861  44.531  24.758   8.096
  428POPC   C4A 8862  44.593  24.746   7.665
  428POPC   C1B 8863  44.487  24.154   8.696
  428POPC   C2B 8864  44.735  24.450   8.487
  428POPC   C3B 8865  44.948  24.436   8.125
  428POPC   C4B 8866  44.769  24.275   7.773
  429POPC   NC3 8867  28.289   3.055   9.746
  429POPC   PO4 8868  28.467   2.517   9.555
  429POPC   GL1 8869  28.322   2.737   9.167
  429POPC   GL2 8870  27.987   2.627   9.136
  429POPC   C1A 8871  28.523   2.827   8.746
  429POPC   D2A 8872  28.399   2.885   8.299
  429POPC   C3A 8873  28.689   2.886   7.972
  429POPC   C4A 8874  28.503   2.550   7.811
  429POPC   C1B 8875  27.986   2.828   8.714
  429POPC   C2B 8876  27.881   2.743   8.272
  429POPC   C3B 8877  27.822   2.967   7.901
  429POPC   C4B 8878  27.722   2.955   7.460
  430POPC   NC3 8879  38.735  21.486   9.498
  430POPC   PO4 8880  38.283  21.068   9.487
  430POPC   GL1 8881  38.510  21.193   9.120
  430POPC   GL2 8882  38.570  21.565   9.030
  430POPC   C1A 8883  38.756  21.149   8.767
  430POPC   D2A 8884  38.762  21.474   8.537
  430POPC   C3A 8885  38.770  21.478   8.090
  430POPC   C4A 8886  38.493  21.298   7.772
  430POPC   C1B 8887  38.243  21.560   8.740
  430POPC   C2B 8888  38.019  21.436   8.379
  430POPC   C3B 8889  38.028  21.457   7.953
  430POPC   C4B 8890  38.133  21.610   7.569
  431POPC   NC3 8891   3.770  40.262   9.503
  431POPC   PO4 8892   3.695  39.574   9.594
  431POPC   GL1 8893   3.426  39.829   9.270
  431POPC   GL2 8894   3.431  40.195   9.108
  431POPC   C1A 8895   3.372  39.773   8.827
  431POPC   D2A 8896   3.559  40.039   8.525
  431POPC   C3A 8897   3.363  40.116   8.135
  431POPC   C4A 8898   3.497  40.009   7.710
  431POPC   C1B 8899   3.649  40.454   8.778
  431POPC   C2B 8900   3.801  40.481   8.341
  431POPC   C3B 8901   3.671  40.454   7.904
  431POPC   C4B 8902   3.724  40.372   7.418
  432POPC   NC3 8903  28.497  28.822   9.529
  432POPC   PO4 8904  28.193  28.317   9.433
  432POPC   GL1 8905  28.547  28.439   9.186
  432POPC   GL2 8906  28.492  28.173   9.007
  432POPC   C1A 8907  28.643  28.701   8.806
  432POPC   D2A 8908  28.413  28.831   8.415
  432POPC   C3A 8909  28.360  28.682   8.009
  432POPC   C4A 8910  28.385  28.280   7.872
  432POPC   C1B 8911  28.731  28.210   8.660
  432POPC   C2B 8912  28.723  28.437   8.262
  432POPC   C3B 8913  28.856  28.493   7.818
  432POPC   C4B 8914  28.784  28.388   7.339
  433POPC   NC3 8915  10.718  14.736   9.436
  433POPC   PO4 8916  10.398  15.294   9.621
  433POPC   GL1 8917  10.298  15.143   9.210
  433POPC   GL2 8918  10.051  14.933   9.299
  433POPC   C1A 8919  10.380  15.137   8.747
  433POPC   D2A 8920  10.604  15.060   8.305
  433POPC   C3A 8921  10.427  15.284   7.890
  433POPC   C4A 8922  10.394  15.638   7.522
  433POPC   C1B 8923   9.934  14.839   8.855
  433POPC   C2B 8924  10.021  14.965   8.434
  433POPC   C3B 8925  10.212  14.821   8.053
  433POPC   C4B 8926  10.249  14.911   7.620
  434POPC   NC3 8927  21.631  27.768   9.569
  434POPC   PO4 8928  21.234  27.301   9.255
  434POPC   GL1 8929  21.437  27.664   9.060
  434POPC   GL2 8930  21.703  27.930   9.074
  434POPC   C1A 8931  21.521  27.646   8.627
  434POPC   D2A 8932  21.218  27.765   8.319
  434POPC   C3A 8933  21.119  27.478   8.017
  434POPC   C4A 8934  21.203  27.301   7.641
  434POPC   C1B 8935  21.876  28.027   8.630
  434POPC   C2B 8936  21.695  27.921   8.204
  434POPC   C3B 8937  21.545  27.698   7.790
  434POPC   C4B 8938  21.741  27.807   7.354
  435POPC   NC3 8939  42.907  31.428   9.412
  435POPC   PO4 8940  43.383  31.750   9.385
  435POPC   GL1 8941  43.225  31.562   9.033
  435POPC   GL2 8942  43.329  31.275   9.125
  435POPC   C1A 8943  43.135  31.488   8.583
  435POPC   D2A 8944  42.918  31.663   8.206
  435POPC   C3A 8945  42.843  31.339   7.881
  435POPC   C4A 8946  42.743  31.424   7.416
  435POPC   C1B 8947  43.562  31.246   8.761
  435POPC   C2B 8948  43.626  31.444   8.385
  435POPC   C3B 8949  43.357  31.454   8.018
  435POPC   C4B 8950  43.120  31.720   7.734
  436POPC   NC3 8951   2.602  32.188   9.711
  436POPC   PO4 8952   3.247  32.209   9.712
  436POPC   GL1 8953   2.988  32.284   9.308
  436POPC   GL2 8954   2.624  32.183   9.214
  436POPC   C1A 8955   3.023  32.086   8.883
  436POPC   D2A 8956   3.212  32.236   8.497
  436POPC   C3A 8957   3.011  32.140   8.120
  436POPC   C4A 8958   2.834  32.449   7.854
  436POPC   C1B 8959   2.520  32.005   8.833
  436POPC   C2B 8960   2.616  32.259   8.459
  436POPC   C3B 8961   2.509  32.124   8.059
  436POPC   C4B 8962   2.585  32.068   7.608
  437POPC   NC3 8963   5.116   2.195   9.608
  437POPC   PO4 8964   4.621   1.742   9.337
  437POPC   GL1 8965   5.045   1.854   9.204
  437POPC   GL2 8966   5.237   2.171   9.139
  437POPC   C1A 8967   5.226   1.815   8.796
  437POPC   D2A 8968   4.967   1.911   8.431
  437POPC   C3A 8969   4.960   1.740   8.052
  437POPC   C4A 8970   5.251   1.877   7.739
  437POPC   C1B 8971   5.030   2.280   8.800
  437POPC   C2B 8972   5.190   2.380   8.406
  437POPC   C3B 8973   5.091   2.275   8.014
  437POPC   C4B 8974   5.415   2.393   7.750
  438POPC   NC3 8975  37.926   4.699   9.618
  438POPC   PO4 8976  37.330   4.473   9.506
  438POPC   GL1 8977  37.554   4.300   9.146
  438POPC   GL2 8978  37.921   4.257   9.195
  438POPC   C1A 8979  37.551   4.214   8.706
  438POPC   D2A 8980  37.380   4.416   8.318
  438POPC   C3A 8981  37.555   4.364   7.901
  438POPC   C4A 8982  37.527   4.052   7.533
  438POPC   C1B 8983  38.055   4.224   8.747
  438POPC   C2B 8984  37.890   4.177   8.305
  438POPC   C3B 8985  38.042   4.315   7.890
  438POPC   C4B 8986  37.843   4.441   7.464
  439POPC   NC3 8987  31.232  37.831   9.573
  439POPC   PO4 8988  31.604  37.343   9.333
  439POPC   GL1 8989  31.349  37.613   9.097
  439POPC   GL2 8990  31.434  37.982   9.137
  439POPC   C1A 8991  31.409  37.506   8.672
  439POPC   D2A 8992  31.657  37.389   8.361
  439POPC   C3A 8993  31.802  37.618   8.051
  439POPC   C4A 8994  31.675  37.552   7.675
  439POPC   C1B 8995  31.258  38.008   8.742
  439POPC   C2B 8996  31.269  37.866   8.335
  439POPC   C3B 8997  31.246  37.777   7.925
  439POPC   C4B 8998  31.454  37.990   7.626
  440POPC   NC3 8999  12.597  26.863   9.452
  440POPC   PO4 9000  13.241  26.776   9.521
  440POPC   GL1 9001  13.025  26.898   9.169
  440POPC   GL2 9002  12.907  26.553   9.175
  440POPC   C1A 9003  13.020  27.075   8.750
  440POPC   D2A 9004  12.853  27.289   8.422
  440POPC   C3A 9005  12.988  27.111   8.052
  440POPC   C4A 9006  12.710  27.097   7.706
  440POPC   C1B 9007  12.757  26.641   8.794
  440POPC   C2B 9008  12.846  26.736   8.375
  440POPC   C3B 9009  12.717  26.642   7.945
  440POPC   C4B 9010  12.611  26.642   7.479
  441POPC   NC3 9011   7.409   9.715   9.575
  441POPC   PO4 9012   7.076  10.221   9.346
  441POPC   GL1 9013   7.400   9.935   9.114
  441POPC   GL2 9014   7.515   9.542   9.110
  441POPC   C1A 9015   7.568   9.818   8.686
  441POPC   D2A 9016   7.584   9.902   8.257
  441POPC   C3A 9017   7.355   9.921   7.888
  441POPC   C4A 9018   7.635  10.019   7.534
  441POPC   C1B 9019   7.357   9.343   8.767
  441POPC   C2B 9020   7.499   9.402   8.346
  441POPC   C3B 9021   7.293   9.430   7.975
  441POPC   C4B 9022   7.355   9.230   7.608
  442POPC   NC3 9023  26.032  38.715   9.522
  442POPC   PO4 9024  25.933  38.064   9.526
  442POPC   GL1 9025  25.806  38.295   9.150
  442POPC   GL2 9026  25.685  38.648   9.130
  442POPC   C1A 9027  26.053  38.398   8.766
  442POPC   D2A 9028  26.225  38.160   8.408
  442POPC   C3A 9029  26.060  38.324   8.026
  442POPC   C4A 9030  26.260  38.696   7.863
  442POPC   C1B 9031  25.880  38.881   8.761
  442POPC   C2B 9032  25.940  38.730   8.333
  442POPC   C3B 9033  25.699  38.787   7.955
  442POPC   C4B 9034  25.885  38.837   7.563
  443POPC   NC3 9035  27.442   2.110   9.666
  443POPC   PO4 9036  27.844   1.759   9.364
  443POPC   GL1 9037  27.694   2.085   9.145
  443POPC   GL2 9038  27.357   1.950   9.159
  443POPC   C1A 9039  27.752   2.342   8.773
  443POPC   D2A 9040  27.812   2.144   8.405
  443POPC   C3A 9041  27.674   2.145   7.988
  443POPC   C4A 9042  27.969   1.894   7.768
  443POPC   C1B 9043  27.387   1.977   8.715
  443POPC   C2B 9044  27.469   1.760   8.346
  443POPC   C3B 9045  27.447   1.680   7.949
  443POPC   C4B 9046  27.424   1.889   7.570
  444POPC   NC3 9047  34.808  21.776   9.501
  444POPC   PO4 9048  34.476  22.431   9.536
  444POPC   GL1 9049  34.544  22.166   9.204
  444POPC   GL2 9050  34.217  22.029   9.109
  444POPC   C1A 9051  34.657  22.379   8.838
  444POPC   D2A 9052  34.695  22.575   8.440
  444POPC   C3A 9053  34.854  22.293   8.171
  444POPC   C4A 9054  34.591  22.128   7.880
  444POPC   C1B 9055  34.432  21.898   8.761
  444POPC   C2B 9056  34.614  21.909   8.374
  444POPC   C3B 9057  34.689  21.666   8.016
  444POPC   C4B 9058  34.947  21.422   7.803
  445POPC   NC3 9059   1.624  32.005   9.609
  445POPC   PO4 9060   2.229  32.378   9.526
  445POPC   GL1 9061   2.109  32.291   9.137
  445POPC   GL2 9062   1.771  32.223   9.160
  445POPC   C1A 9063   2.221  32.406   8.757
  445POPC   D2A 9064   2.154  32.514   8.361
  445POPC   C3A 9065   1.989  32.234   8.080
  445POPC   C4A 9066   2.229  32.405   7.743
  445POPC   C1B 9067   1.717  32.365   8.726
  445POPC   C2B 9068   1.639  32.575   8.318
  445POPC   C3B 9069   1.513  32.414   7.928
  445POPC   C4B 9070   1.771  32.249   7.614
  446POPC   NC3 9071   7.259  23.581   9.647
  446POPC   PO4 9072   7.710  23.951   9.368
  446POPC   GL1 9073   7.349  23.776   9.177
  446POPC   GL2 9074   7.292  23.452   9.157
  446POPC   C1A 9075   7.267  23.920   8.791
  446POPC   D2A 9076   7.326  23.731   8.438
  446POPC   C3A 9077   7.372  23.907   8.084
  446POPC   C4A 9078   7.262  23.752   7.705
  446POPC   C1B 9079   7.429  23.379   8.795
  446POPC   C2B 9080   7.629  23.301   8.447
  446POPC   C3B 9081   7.426  23.367   8.082
  446POPC   C4B 9082   7.445  23.278   7.654
  447POPC   NC3 9083  12.304   7.365   9.499
  447POPC   PO4 9084  11.609   7.246   9.535
  447POPC   GL1 9085  11.874   7.499   9.245
  447POPC   GL2 9086  12.242   7.615   9.073
  447POPC   C1A 9087  11.939   7.258   8.887
  447POPC   D2A 9088  12.122   7.372   8.542
  447POPC   C3A 9089  11.949   7.137   8.223
  447POPC   C4A 9090  12.285   7.137   7.952
  447POPC   C1B 9091  11.964   7.780   8.813
  447POPC   C2B 9092  12.047   7.878   8.427
  447POPC   C3B 9093  12.047   7.631   8.091
  447POPC   C4B 9094  11.894   7.787   7.758
  448POPC   NC3 9095  35.989  12.607   9.492
  448POPC   PO4 9096  36.484  12.840   9.764
  448POPC   GL1 9097  36.285  12.977   9.285
  448POPC   GL2 9098  36.068  12.761   9.015
  448POPC   C1A 9099  36.404  13.089   8.834
  448POPC   D2A 9100  36.259  12.843   8.440
  448POPC   C3A 9101  36.370  13.080   8.025
  448POPC   C4A 9102  36.333  12.972   7.572
  448POPC   C1B 9103  35.856  13.051   8.746
  448POPC   C2B 9104  35.769  13.017   8.307
  448POPC   C3B 9105  35.976  12.765   7.994
  448POPC   C4B 9106  35.883  13.064   7.732
  449POPC   NC3 9107   9.565  16.100   9.822
  449POPC   PO4 9108  10.057  15.811   9.731
  449POPC   GL1 9109   9.794  15.852   9.298
  449POPC   GL2 9110   9.444  15.983   9.224
  449POPC   C1A 9111   9.810  16.113   8.863
  449POPC   D2A 9112   9.809  15.985   8.398
  449POPC   C3A 9113   9.876  16.176   7.988
  449POPC   C4A 9114   9.948  16.008   7.558
  449POPC   C1B 9115   9.501  15.724   8.808
  449POPC   C2B 9116   9.296  15.585   8.408
  449POPC   C3B 9117   9.554  15.714   7.985
  449POPC   C4B 9118   9.566  15.671   7.500
  450POPC   NC3 9119  29.161  39.638   9.317
  450POPC   PO4 9120  29.261  40.316   9.290
  450POPC   GL1 9121  29.326  40.015   9.012
  450POPC   GL2 9122  28.996  40.025   8.960
  450POPC   C1A 9123  29.323  39.803   8.619
  450POPC   D2A 9124  29.294  39.807   8.171
  450POPC   C3A 9125  29.418  40.146   7.923
  450POPC   C4A 9126  29.431  40.145   7.454
  450POPC   C1B 9127  28.772  39.795   8.684
  450POPC   C2B 9128  28.639  39.882   8.268
  450POPC   C3B 9129  28.842  39.767   7.903
  450POPC   C4B 9130  28.960  40.000   7.529
  451POPC   NC3 9131  43.355  22.863   9.699
  451POPC   PO4 9132  42.661  23.013   9.670
  451POPC   GL1 9133  43.068  23.077   9.324
  451POPC   GL2 9134  43.391  22.836   9.202
  451POPC   C1A 9135  43.068  22.974   8.835
  451POPC   D2A 9136  43.229  23.113   8.433
  451POPC   C3A 9137  43.079  22.938   8.061
  451POPC   C4A 9138  43.113  23.024   7.668
  451POPC   C1B 9139  43.322  22.512   8.858
  451POPC   C2B 9140  43.120  22.574   8.437
  451POPC   C3B 9141  43.311  22.479   8.006
  451POPC   C4B 9142  43.330  22.575   7.555
  452POPC   NC3 9143  33.548  13.519   9.490
  452POPC   PO4 9144  34.087  13.889   9.349
  452POPC   GL1 9145  33.941  13.508   9.128
  452POPC   GL2 9146  33.591  13.490   8.986
  452POPC   C1A 9147  34.039  13.428   8.713
  452POPC   D2A 9148  34.232  13.361   8.332
  452POPC   C3A 9149  34.020  13.503   8.004
  452POPC   C4A 9150  33.975  13.411   7.609
  452POPC   C1B 9151  33.744  13.847   8.715
  452POPC   C2B 9152  33.763  13.932   8.254
  452POPC   C3B 9153  33.664  13.830   7.861
  452POPC   C4B 9154  33.494  13.420   7.754
  453POPC   NC3 9155  36.233  24.864   9.639
  453POPC   PO4 9156  36.018  24.211   9.518
  453POPC   GL1 9157  35.833  24.371   9.128
  453POPC   GL2 9158  35.934  24.745   9.160
  453POPC   C1A 9159  35.852  24.258   8.691
  453POPC   D2A 9160  36.081  24.423   8.328
  453POPC   C3A 9161  36.167  24.192   7.951
  453POPC   C4A 9162  36.178  24.315   7.527
  453POPC   C1B 9163  36.070  24.829   8.716
  453POPC   C2B 9164  35.911  24.892   8.279
  453POPC   C3B 9165  36.051  24.710   7.858
  453POPC   C4B 9166  35.798  24.675   7.472
  454POPC   NC3 9167  42.530  18.448   9.422
  454POPC   PO4 9168  42.085  17.845   9.400
  454POPC   GL1 9169  42.148  18.186   9.140
  454POPC   GL2 9170  41.925  18.427   9.296
  454POPC   C1A 9171  42.411  18.317   8.784
  454POPC   D2A 9172  42.564  18.418   8.374
  454POPC   C3A 9173  42.632  18.388   7.933
  454POPC   C4A 9174  42.560  18.507   7.531
  454POPC   C1B 9175  41.888  18.510   8.833
  454POPC   C2B 9176  42.072  18.640   8.423
  454POPC   C3B 9177  42.143  18.374   8.066
  454POPC   C4B 9178  42.074  18.380   7.648
  455POPC   NC3 9179   9.035  28.812   9.371
  455POPC   PO4 9180   8.556  28.330   9.394
  455POPC   GL1 9181   8.822  28.232   9.082
  455POPC   GL2 9182   9.178  28.326   9.168
  455POPC   C1A 9183   8.800  27.976   8.729
  455POPC   D2A 9184   8.717  28.039   8.306
  455POPC   C3A 9185   8.915  28.435   8.141
  455POPC   C4A 9186   8.754  28.679   7.776
  455POPC   C1B 9187   9.143  28.387   8.704
  455POPC   C2B 9188   9.276  28.125   8.368
  455POPC   C3B 9189   9.162  28.016   7.942
  455POPC   C4B 9190   9.161  28.351   7.651
  456POPC   NC3 9191   0.934  28.440   9.416
  456POPC   PO4 9192   1.483  28.188   9.574
  456POPC   GL1 9193   1.311  28.197   9.174
  456POPC   GL2 9194   1.389  28.530   9.128
  456POPC   C1A 9195   1.261  28.315   8.702
  456POPC   D2A 9196   1.576  28.141   8.400
  456POPC   C3A 9197   1.402  28.078   7.974
  456POPC   C4A 9198   1.182  28.277   7.609
  456POPC   C1B 9199   1.627  28.652   8.734
  456POPC   C2B 9200   1.505  28.652   8.278
  456POPC   C3B 9201   1.597  28.523   7.816
  456POPC   C4B 9202   1.465  28.629   7.361
  457POPC   NC3 9203  21.338   8.364   9.529
  457POPC   PO4 9204  21.865   8.527   9.900
  457POPC   GL1 9205  21.821   8.383   9.361
  457POPC   GL2 9206  21.669   8.037   9.261
  457POPC   C1A 9207  21.835   8.312   8.878
  457POPC   D2A 9208  21.591   8.313   8.458
  457POPC   C3A 9209  21.466   8.078   8.069
  457POPC   C4A 9210  21.557   8.312   7.743
  457POPC   C1B 9211  21.354   8.131   8.877
  457POPC   C2B 9212  21.121   8.082   8.435
  457POPC   C3B 9213  20.972   8.226   7.969
  457POPC   C4B 9214  21.093   8.387   7.555
  458POPC   NC3 9215  12.057  43.964   9.632
  458POPC   PO4 9216  11.788  43.421   9.382
  458POPC   GL1 9217  11.812  43.803   9.144
  458POPC   GL2 9218  12.119  44.019   9.115
  458POPC   C1A 9219  11.921  43.769   8.714
  458POPC   D2A 9220  11.736  43.923   8.385
  458POPC   C3A 9221  11.869  43.818   8.012
  458POPC   C4A 9222  11.941  44.133   7.735
  458POPC   C1B 9223  12.412  43.920   8.748
  458POPC   C2B 9224  12.601  43.984   8.337
  458POPC   C3B 9225  12.379  43.946   7.927
  458POPC   C4B 9226  12.159  43.683   7.612
  459POPC   NC3 9227  16.068  12.524   9.432
  459POPC   PO4 9228  16.129  13.232   9.334
  459POPC   GL1 9229  15.875  13.003   9.042
  459POPC   GL2 9230  15.771  12.645   9.019
  459POPC   C1A 9231  15.846  13.003   8.610
  459POPC   D2A 9232  16.140  13.084   8.322
  459POPC   C3A 9233  15.994  13.015   7.935
  459POPC   C4A 9234  16.185  13.013   7.552
  459POPC   C1B 9235  16.026  12.528   8.669
  459POPC   C2B 9236  16.039  12.578   8.242
  459POPC   C3B 9237  16.011  12.354   7.904
  459POPC   C4B 9238  15.840  12.643   7.624
  460POPC   NC3 9239  10.120  24.726   9.381
  460POPC   PO4 9240  10.794  24.607   9.316
  460POPC   GL1 9241  10.447  24.458   9.086
  460POPC   GL2 9242  10.157  24.236   9.143
  460POPC   C1A 9243  10.354  24.688   8.723
  460POPC   D2A 9244  10.730  24.664   8.498
  460POPC   C3A 9245  10.758  24.661   8.067
  460POPC   C4A 9246  10.598  24.392   7.758
  460POPC   C1B 9247  10.288  24.187   8.680
  460POPC   C2B 9248  10.318  24.396   8.251
  460POPC   C3B 9249  10.117  24.235   7.845
  460POPC   C4B 9250  10.260  24.144   7.403
  461POPC   NC3 9251  29.619   1.886   9.610
  461POPC   PO4 9252  28.898   2.032   9.518
  461POPC   GL1 9253  29.050   1.920   9.148
  461POPC   GL2 9254  29.381   1.817   9.161
  461POPC   C1A 9255  29.180   2.145   8.787
  461POPC   D2A 9256  29.006   2.087   8.402
  461POPC   C3A 9257  29.166   1.967   8.019
  461POPC   C4A 9258  28.917   1.865   7.667
  461POPC   C1B 9259  29.339   1.659   8.759
  461POPC   C2B 9260  29.493   1.864   8.399
  461POPC   C3B 9261  29.652   1.752   8.017
  461POPC   C4B 9262  29.380   1.618   7.727
  462POPC   NC3 9263  27.469   1.487   9.374
  462POPC   PO4 9264  27.844   0.968   9.565
  462POPC   GL1 9265  27.635   1.053   9.166
  462POPC   GL2 9266  27.743   1.357   8.966
  462POPC   C1A 9267  27.405   1.011   8.760
  462POPC   D2A 9268  27.601   1.283   8.450
  462POPC   C3A 9269  27.474   1.154   8.034
  462POPC   C4A 9270  27.454   1.297   7.635
  462POPC   C1B 9271  27.851   1.706   8.687
  462POPC   C2B 9272  27.985   1.667   8.237
  462POPC   C3B 9273  27.920   1.399   7.835
  462POPC   C4B 9274  27.800   1.555   7.389
  463POPC   NC3 9275  21.964  35.811   9.476
  463POPC   PO4 9276  22.166  36.482   9.559
  463POPC   GL1 9277  21.974  36.270   9.207
  463POPC   GL2 9278  22.291  36.094   9.183
  463POPC   C1A 9279  21.992  36.036   8.800
  463POPC   D2A 9280  22.306  36.107   8.476
  463POPC   C3A 9281  22.104  36.278   8.143
  463POPC   C4A 9282  22.074  36.079   7.764
  463POPC   C1B 9283  22.559  35.893   8.867
  463POPC   C2B 9284  22.555  35.645   8.467
  463POPC   C3B 9285  22.399  35.772   8.046
  463POPC   C4B 9286  22.441  35.760   7.576
  464POPC   NC3 9287   6.841  28.681   9.455
  464POPC   PO4 9288   6.211  28.478   9.464
  464POPC   GL1 9289   6.493  28.460   9.140
  464POPC   GL2 9290   6.389  28.190   8.979
  464POPC   C1A 9291   6.710  28.714   8.825
  464POPC   D2A 9292   6.944  28.740   8.456
  464POPC   C3A 9293   6.648  28.700   8.131
  464POPC   C4A 9294   6.771  28.715   7.690
  464POPC   C1B 9295   6.790  28.197   8.765
  464POPC   C2B 9296   6.943  28.221   8.339
  464POPC   C3B 9297   6.758  28.247   7.930
  464POPC   C4B 9298   6.707  28.274   7.442
  465POPC   NC3 9299  41.102  22.139   9.553
  465POPC   PO4 9300  40.429  21.976   9.506
  465POPC   GL1 9301  40.724  22.050   9.154
  465POPC   GL2 9302  41.072  21.889   9.127
  465POPC   C1A 9303  40.592  21.931   8.732
  465POPC   D2A 9304  40.453  22.156   8.349
  465POPC   C3A 9305  40.556  21.982   7.950
  465POPC   C4A 9306  40.670  22.213   7.554
  465POPC   C1B 9307  41.080  22.094   8.748
  465POPC   C2B 9308  40.940  21.924   8.342
  465POPC   C3B 9309  41.032  22.094   7.931
  465POPC   C4B 9310  41.093  21.951   7.521
  466POPC   NC3 9311  30.673   3.172   9.552
  466POPC   PO4 9312  30.821   2.576   9.529
  466POPC   GL1 9313  30.703   2.815   9.180
  466POPC   GL2 9314  30.972   3.006   9.156
  466POPC   C1A 9315  30.397   2.845   8.849
  466POPC   D2A 9316  30.220   2.608   8.475
  466POPC   C3A 9317  30.349   2.693   8.033
  466POPC   C4A 9318  30.744   2.537   7.836
  466POPC   C1B 9319  30.833   3.120   8.744
  466POPC   C2B 9320  30.582   3.011   8.383
  466POPC   C3B 9321  30.764   3.009   8.003
  466POPC   C4B 9322  30.809   3.281   7.709
  467POPC   NC3 9323  20.852  18.186   9.518
  467POPC   PO4 9324  20.382  18.553   9.715
  467POPC   GL1 9325  20.465  18.350   9.238
  467POPC   GL2 9326  20.679  18.052   9.054
  467POPC   C1A 9327  20.424  18.371   8.769
  467POPC   D2A 9328  20.500  18.030   8.495
  467POPC   C3A 9329  20.621  18.168   8.114
  467POPC   C4A 9330  20.535  18.473   7.776
  467POPC   C1B 9331  20.952  18.196   8.674
  467POPC   C2B 9332  21.151  18.155   8.227
  467POPC   C3B 9333  20.974  18.179   7.765
  467POPC   C4B 9334  21.026  17.899   7.442
  468POPC   NC3 9335  11.541  31.353   9.627
  468POPC   PO4 9336  10.898  31.447   9.603
  468POPC   GL1 9337  11.189  31.370   9.274
  468POPC   GL2 9338  11.104  31.667   9.147
  468POPC   C1A 9339  11.439  31.425   8.875
  468POPC   D2A 9340  11.561  31.643   8.511
  468POPC   C3A 9341  11.530  31.477   8.105
  468POPC   C4A 9342  11.334  31.662   7.736
  468POPC   C1B 9343  10.928  31.375   8.849
  468POPC   C2B 9344  11.016  31.488   8.448
  468POPC   C3B 9345  11.002  31.414   8.026
  468POPC   C4B 9346  10.929  31.339   7.587
  469POPC   NC3 9347  13.121  43.633   9.547
  469POPC   PO4 9348  12.482  43.838   9.474
  469POPC   GL1 9349  12.741  43.782   9.134
  469POPC   GL2 9350  13.035  43.969   9.155
  469POPC   C1A 9351  12.809  43.604   8.737
  469POPC   D2A 9352  12.762  43.488   8.321
  469POPC   C3A 9353  12.852  43.747   7.956
  469POPC   C4A 9354  12.663  43.795   7.532
  469POPC   C1B 9355  12.939  44.084   8.718
  469POPC   C2B 9356  13.128  43.837   8.396
  469POPC   C3B 9357  13.366  43.751   8.054
  469POPC   C4B 9358  13.236  43.981   7.689
  470POPC   NC3 9359  32.719  23.250   9.522
  470POPC   PO4 9360  33.059  23.742   9.904
  470POPC   GL1 9361  32.927  23.711   9.395
  470POPC   GL2 9362  32.684  23.593   9.124
  470POPC   C1A 9363  33.032  23.842   8.895
  470POPC   D2A 9364  32.917  23.937   8.488
  470POPC   C3A 9365  32.860  23.661   8.140
  470POPC   C4A 9366  32.964  23.938   7.811
  470POPC   C1B 9367  32.984  23.346   8.835
  470POPC   C2B 9368  33.204  23.297   8.430
  470POPC   C3B 9369  33.366  23.326   8.013
  470POPC   C4B 9370  33.118  23.479   7.709
  471POPC   NC3 9371  16.363  14.631   9.596
  471POPC   PO4 9372  16.953  14.340   9.593
  471POPC   GL1 9373  16.728  14.467   9.232
  471POPC   GL2 9374  17.024  14.510   9.041
  471POPC   C1A 9375  16.599  14.380   8.795
  471POPC   D2A 9376  16.855  14.400   8.410
  471POPC   C3A 9377  16.655  14.343   8.013
  471POPC   C4A 9378  16.491  14.516   7.652
  471POPC   C1B 9379  17.233  14.641   8.657
  471POPC   C2B 9380  17.221  14.720   8.195
  471POPC   C3B 9381  17.083  14.525   7.814
  471POPC   C4B 9382  16.943  14.605   7.394
  472POPC   NC3 9383  12.416  40.675   9.474
  472POPC   PO4 9384  11.847  40.391   9.341
  472POPC   GL1 9385  12.078  40.559   9.083
  472POPC   GL2 9386  12.031  40.886   9.199
  472POPC   C1A 9387  12.281  40.465   8.703
  472POPC   D2A 9388  12.478  40.677   8.412
  472POPC   C3A 9389  12.442  40.591   7.966
  472POPC   C4A 9390  12.132  40.442   7.644
  472POPC   C1B 9391  12.128  40.943   8.768
  472POPC   C2B 9392  11.960  40.924   8.376
  472POPC   C3B 9393  11.838  40.693   8.030
  472POPC   C4B 9394  12.092  40.925   7.791
  473POPC   NC3 9395  29.975  34.579   9.578
  473POPC   PO4 9396  30.238  35.171   9.453
  473POPC   GL1 9397  29.991  34.904   9.132
  473POPC   GL2 9398  29.826  34.540   9.105
  473POPC   C1A 9399  29.630  34.915   8.823
  473POPC   D2A 9400  29.512  34.835   8.395
  473POPC   C3A 9401  29.900  34.870   8.176
  473POPC   C4A 9402  30.035  34.737   7.795
  473POPC   C1B 9403  29.948  34.469   8.661
  473POPC   C2B 9404  30.002  34.220   8.241
  473POPC   C3B 9405  30.034  34.239   7.794
  473POPC   C4B 9406  29.755  34.328   7.452
  474POPC   NC3 9407   8.370  19.372   9.435
  474POPC   PO4 9408   7.938  18.870   9.492
  474POPC   GL1 9409   7.942  18.978   9.085
  474POPC   GL2 9410   8.312  18.950   9.076
  474POPC   C1A 9411   8.027  18.862   8.653
  474POPC   D2A 9412   8.413  18.940   8.393
  474POPC   C3A 9413   8.379  18.786   7.969
  474POPC   C4A 9414   7.958  18.846   7.829
  474POPC   C1B 9415   8.257  19.320   8.784
  474POPC   C2B 9416   8.467  19.467   8.413
  474POPC   C3B 9417   8.516  19.293   8.005
  474POPC   C4B 9418   8.320  19.147   7.592
  475POPC   NC3 9419   9.756   0.267   9.947
  475POPC   PO4 9420  10.091   0.719   9.534
  475POPC   GL1 9421   9.993   0.648   9.105
  475POPC   GL2 9422   9.731   0.477   9.109
  475POPC   C1A 9423  10.046   0.464   8.696
  475POPC   D2A 9424   9.960   0.260   8.322
  475POPC   C3A 9425  10.067   0.547   7.973
  475POPC   C4A 9426  10.168   0.683   7.559
  475POPC   C1B 9427   9.549   0.254   8.780
  475POPC   C2B 9428   9.446   0.372   8.374
  475POPC   C3B 9429   9.599   0.336   7.958
  475POPC   C4B 9430   9.668   0.609   7.634
  476POPC   NC3 9431  39.985  20.633   9.585
  476POPC   PO4 9432  40.263  20.127   9.350
  476POPC   GL1 9433  40.081  20.459   9.116
  476POPC   GL2 9434  40.232  20.812   9.186
  476POPC   C1A 9435  39.767  20.643   8.873
  476POPC   D2A 9436  39.520  20.633   8.500
  476POPC   C3A 9437  39.846  20.595   8.177
  476POPC   C4A 9438  40.057  20.537   7.775
  476POPC   C1B 9439  40.243  20.881   8.768
  476POPC   C2B 9440  40.259  20.883   8.355
  476POPC   C3B 9441  40.074  21.042   8.031
  476POPC   C4B 9442  40.191  21.032   7.652
  477POPC   NC3 9443  14.817  16.015   9.572
  477POPC   PO4 9444  14.183  15.644   9.541
  477POPC   GL1 9445  14.200  15.882   9.174
  477POPC   GL2 9446  14.494  16.066   9.199
  477POPC   C1A 9447  14.228  15.752   8.746
  477POPC   D2A 9448  14.003  15.822   8.353
  477POPC   C3A 9449  14.273  15.699   8.038
  477POPC   C4A 9450  14.541  15.740   7.700
  477POPC   C1B 9451  14.366  16.277   8.867
  477POPC   C2B 9452  14.407  16.141   8.457
  477POPC   C3B 9453  14.609  16.102   8.078
  477POPC   C4B 9454  14.841  16.150   7.713
  478POPC   NC3 9455   6.548   3.690   9.654
  478POPC   PO4 9456   7.202   3.931   9.551
  478POPC   GL1 9457   6.917   3.837   9.234
  478POPC   GL2 9458   6.981   3.510   9.130
  478POPC   C1A 9459   6.861   3.889   8.790
  478POPC   D2A 9460   6.516   3.881   8.477
  478POPC   C3A 9461   6.689   3.757   8.085
  478POPC   C4A 9462   6.613   3.405   7.847
  478POPC   C1B 9463   6.700   3.419   8.763
  478POPC   C2B 9464   6.453   3.371   8.371
  478POPC   C3B 9465   6.134   3.199   8.101
  478POPC   C4B 9466   6.203   3.135   7.673
  479POPC   NC3 9467  36.318  11.935   9.544
  479POPC   PO4 9468  36.382  12.477   9.297
  479POPC   GL1 9469  36.007  12.235   9.147
  479POPC   GL2 9470  35.937  11.857   9.215
  479POPC   C1A 9471  36.038  12.228   8.729
  479POPC   D2A 9472  35.912  12.047   8.341
  479POPC   C3A 9473  36.223  12.288   8.126
  479POPC   C4A 9474  36.319  12.473   7.708
  479POPC   C1B 9475  36.065  11.735   8.815
  479POPC   C2B 9476  36.369  11.885   8.494
  479POPC   C3B 9477  36.438  11.777   8.096
  479POPC   C4B 9478  36.300  11.936   7.736
  480POPC   NC3 9479  28.019  27.161   9.482
  480POPC   PO4 9480  28.645  26.850   9.478
  480POPC   GL1 9481  28.566  26.651   9.062
  480POPC   GL2 9482  28.195  26.648   9.090
  480POPC   C1A 9483  28.770  26.549   8.657
  480POPC   D2A 9484  28.522  26.607   8.273
  480POPC   C3A 9485  28.407  26.987   8.091
  480POPC   C4A 9486  28.633  26.823   7.760
  480POPC   C1B 9487  28.279  26.838   8.674
  480POPC   C2B 9488  28.042  26.675   8.318
  480POPC   C3B 9489  28.110  26.648   7.864
  480POPC   C4B 9490  27.964  26.906   7.535
  481POPC   NC3 9491   8.680   4.868   9.567
  481POPC   PO4 9492   9.030   5.451   9.496
  481POPC   GL1 9493   8.761   5.209   9.198
  481POPC   GL2 9494   8.958   4.911   9.140
  481POPC   C1A 9495   8.670   5.034   8.751
  481POPC   D2A 9496   8.920   5.020   8.327
  481POPC   C3A 9497   8.681   5.066   7.929
  481POPC   C4A 9498   8.807   5.088   7.495
  481POPC   C1B 9499   9.167   4.796   8.730
  481POPC   C2B 9500   9.387   4.693   8.326
  481POPC   C3B 9501   9.187   4.809   7.938
  481POPC   C4B 9502   9.231   5.214   7.754
  482POPC   NC3 9503  33.445  40.061   9.247
  482POPC   PO4 9504  32.919  40.266   9.673
  482POPC   GL1 9505  32.892  40.231   9.170
  482POPC   GL2 9506  33.171  40.263   8.892
  482POPC   C1A 9507  32.767  40.000   8.784
  482POPC   D2A 9508  32.760  39.892   8.316
  482POPC   C3A 9509  32.927  40.151   7.924
  482POPC   C4A 9510  33.076  40.130   7.443
  482POPC   C1B 9511  33.377  39.959   8.622
  482POPC   C2B 9512  33.288  39.805   8.221
  482POPC   C3B 9513  33.324  39.867   7.800
  482POPC   C4B 9514  33.354  39.659   7.407
  483POPC   NC3 9515  18.188   5.901   9.854
  483POPC   PO4 9516  18.640   5.604   9.456
  483POPC   GL1 9517  18.490   5.930   9.179
  483POPC   GL2 9518  18.117   6.076   9.271
  483POPC   C1A 9519  18.468   5.843   8.755
  483POPC   D2A 9520  18.747   5.790   8.412
  483POPC   C3A 9521  18.519   5.805   8.044
  483POPC   C4A 9522  18.258   5.606   7.744
  483POPC   C1B 9523  17.994   6.042   8.830
  483POPC   C2B 9524  18.105   5.980   8.393
  483POPC   C3B 9525  17.913   5.912   7.999
  483POPC   C4B 9526  17.819   6.176   7.647
  484POPC   NC3 9527  21.982  19.006   9.672
  484POPC   PO4 9528  21.315  18.851   9.508
  484POPC   GL1 9529  21.423  18.891   9.114
  484POPC   GL2 9530  21.122  19.072   9.066
  484POPC   C1A 9531  21.502  18.989   8.701
  484POPC   D2A 9532  21.365  18.853   8.335
  484POPC   C3A 9533  21.522  19.029   7.984
  484POPC   C4A 9534  21.511  19.470   7.845
  484POPC   C1B 9535  21.012  19.184   8.657
  484POPC   C2B 9536  20.854  19.102   8.269
  484POPC   C3B 9537  21.026  19.056   7.890
  484POPC   C4B 9538  21.119  19.328   7.545
  485POPC   NC3 9539   0.403  40.924   9.413
  485POPC   PO4 9540   0.400  40.260   9.653
  485POPC   GL1 9541   0.465  40.489   9.181
  485POPC   GL2 9542   0.129  40.630   9.075
  485POPC   C1A 9543   0.446  40.745   8.729
  485POPC   D2A 9544   0.617  40.990   8.361
  485POPC   C3A 9545   0.574  40.843   7.915
  485POPC   C4A 9546   0.641  40.998   7.430
  485POPC   C1B 9547  44.977  41.000   8.800
  485POPC   C2B 9548   0.124  41.063   8.382
  485POPC   C3B 9549  44.962  40.979   7.968
  485POPC   C4B 9550   0.176  40.878   7.593
  486POPC   NC3 9551  34.863  33.025   9.397
  486POPC   PO4 9552  34.200  32.772   9.414
  486POPC   GL1 9553  34.472  32.937   9.076
  486POPC   GL2 9554  34.507  33.304   9.137
  486POPC   C1A 9555  34.805  33.041   8.724
  486POPC   D2A 9556  34.973  33.178   8.297
  486POPC   C3A 9557  34.763  32.983   7.915
  486POPC   C4A 9558  34.303  32.913   7.812
  486POPC   C1B 9559  34.344  33.254   8.711
  486POPC   C2B 9560  34.424  33.116   8.298
  486POPC   C3B 9561  34.417  33.373   7.957
  486POPC   C4B 9562  34.293  33.344   7.544
  487POPC   NC3 9563  38.321  35.844   9.506
  487POPC   PO4 9564  38.889  36.194   9.498
  487POPC   GL1 9565  38.687  36.046   9.145
  487POPC   GL2 9566  38.619  36.425   9.107
  487POPC   C1A 9567  38.385  36.079   8.798
  487POPC   D2A 9568  38.122  36.032   8.409
  487POPC   C3A 9569  38.376  36.142   8.063
  487POPC   C4A 9570  38.580  36.001   7.695
  487POPC   C1B 9571  38.489  36.583   8.717
  487POPC   C2B 9572  38.610  36.511   8.327
  487POPC   C3B 9573  38.483  36.624   7.924
  487POPC   C4B 9574  38.461  36.522   7.512
  488POPC   NC3 9575   4.559  25.495   9.555
  488POPC   PO4 9576   4.447  26.171   9.535
  488POPC   GL1 9577   4.441  26.048   9.163
  488POPC   GL2 9578   4.706  25.805   9.149
  488POPC   C1A 9579   4.178  26.107   8.810
  488POPC   D2A 9580   4.049  26.287   8.429
  488POPC   C3A 9581   4.113  26.040   8.068
  488POPC   C4A 9582   4.007  25.992   7.649
  488POPC   C1B 9583   4.699  25.986   8.749
  488POPC   C2B 9584   4.527  26.134   8.383
  488POPC   C3B 9585   4.625  26.098   7.965
  488POPC   C4B 9586   4.486  25.832   7.673
  489POPC   NC3 9587  34.159  20.177   9.488
  489POPC   PO4 9588  34.695  19.760   9.601
  489POPC   GL1 9589  34.847  19.961   9.230
  489POPC   GL2 9590  34.752  20.299   9.257
  489POPC   C1A 9591  34.903  19.865   8.804
  489POPC   D2A 9592  34.603  19.699   8.517
  489POPC   C3A 9593  34.693  19.816   8.091
  489POPC   C4A 9594  34.541  19.611   7.736
  489POPC   C1B 9595  34.473  20.152   8.904
  489POPC   C2B 9596  34.437  20.242   8.461
  489POPC   C3B 9597  34.282  20.205   8.052
  489POPC   C4B 9598  34.492  20.138   7.714
  490POPC   NC3 9599  41.075   2.061   9.467
  490POPC   PO4 9600  40.392   1.935   9.559
  490POPC   GL1 9601  40.670   1.930   9.169
  490POPC   GL2 9602  40.947   1.662   9.174
  490POPC   C1A 9603  40.907   2.137   8.823
  490POPC   D2A 9604  41.096   2.177   8.417
  490POPC   C3A 9605  40.820   2.084   8.073
  490POPC   C4A 9606  40.583   1.908   7.746
  490POPC   C1B 9607  41.189   1.719   8.799
  490POPC   C2B 9608  41.080   1.672   8.397
  490POPC   C3B 9609  41.197   1.755   7.976
  490POPC   C4B 9610  41.041   1.850   7.548
  491POPC   NC3 9611  36.826  16.935   9.353
  491POPC   PO4 9612  36.520  16.272   9.460
  491POPC   GL1 9613  36.706  16.502   9.110
  491POPC   GL2 9614  37.040  16.450   9.140
  491POPC   C1A 9615  36.871  16.702   8.729
  491POPC   D2A 9616  36.959  16.583   8.333
  491POPC   C3A 9617  36.797  16.856   8.031
  491POPC   C4A 9618  37.111  16.892   7.752
  491POPC   C1B 9619  37.119  16.230   8.729
  491POPC   C2B 9620  37.333  16.212   8.318
  491POPC   C3B 9621  37.224  16.410   7.917
  491POPC   C4B 9622  37.138  16.418   7.475
  492POPC   NC3 9623  13.543  28.325   9.502
  492POPC   PO4 9624  13.917  28.885   9.419
  492POPC   GL1 9625  13.716  28.576   9.101
  492POPC   GL2 9626  13.332  28.515   9.081
  492POPC   C1A 9627  13.677  28.319   8.700
  492POPC   D2A 9628  13.870  28.152   8.275
  492POPC   C3A 9629  13.732  28.218   7.810
  492POPC   C4A 9630  13.649  28.072   7.347
  492POPC   C1B 9631  13.258  28.656   8.662
  492POPC   C2B 9632  13.500  28.547   8.282
  492POPC   C3B 9633  13.458  28.640   7.875
  492POPC   C4B 9634  13.325  28.436   7.515
  493POPC   NC3 9635  39.624   6.521   9.421
  493POPC   PO4 9636  40.122   6.896   9.485
  493POPC   GL1 9637  40.098   6.660   9.118
  493POPC   GL2 9638  39.756   6.845   9.066
  493POPC   C1A 9639  40.343   6.571   8.707
  493POPC   D2A 9640  40.362   6.755   8.271
  493POPC   C3A 9641  40.066   6.616   7.947
  493POPC   C4A 9642  39.619   6.606   7.940
  493POPC   C1B 9643  39.928   6.863   8.687
  493POPC   C2B 9644  39.845   6.889   8.314
  493POPC   C3B 9645  39.849   7.090   7.949
  493POPC   C4B 9646  39.646   7.310   7.650
  494POPC   NC3 9647  20.420   3.639   9.592
  494POPC   PO4 9648  21.075   3.517   9.465
  494POPC   GL1 9649  20.700   3.676   9.165
  494POPC   GL2 9650  20.304   3.723   9.125
  494POPC   C1A 9651  20.620   3.755   8.733
  494POPC   D2A 9652  20.779   3.520   8.421
  494POPC   C3A 9653  20.946   3.659   8.059
  494POPC   C4A 9654  20.919   3.394   7.680
  494POPC   C1B 9655  20.191   3.494   8.769
  494POPC   C2B 9656  20.281   3.658   8.338
  494POPC   C3B 9657  20.458   3.691   7.931
  494POPC   C4B 9658  20.475   3.578   7.503
  495POPC   NC3 9659  31.448  20.220   9.332
  495POPC   PO4 9660  31.505  19.569   9.662
  495POPC   GL1 9661  31.280  19.510   9.196
  495POPC   GL2 9662  31.100  19.846   9.160
  495POPC   C1A 9663  31.268  19.656   8.737
  495POPC   D2A 9664  31.227  19.852   8.342
  495POPC   C3A 9665  31.573  19.926   8.044
  495POPC   C4A 9666  31.683  19.608   7.736
  495POPC   C1B 9667  31.085  20.157   8.783
  495POPC   C2B 9668  30.941  20.260   8.339
  495POPC   C3B 9669  31.098  20.126   7.917
  495POPC   C4B 9670  31.355  19.989   7.579
  496POPC   NC3 9671  37.762   9.552   9.453
  496POPC   PO4 9672  37.494  10.286   9.486
  496POPC   GL1 9673  37.657   9.976   9.181
  496POPC   GL2 9674  37.394   9.727   9.158
  496POPC   C1A 9675  37.803   9.815   8.773
  496POPC   D2A 9676  37.974   9.646   8.383
  496POPC   C3A 9677  37.774   9.678   8.014
  496POPC   C4A 9678  37.660   9.794   7.631
  496POPC   C1B 9679  37.297   9.504   8.787
  496POPC   C2B 9680  37.183   9.637   8.388
  496POPC   C3B 9681  37.269   9.463   8.004
  496POPC   C4B 9682  37.177   9.570   7.628
  497POPC   NC3 9683  44.855   5.067   9.706
  497POPC   PO4 9684  44.175   5.058   9.641
  497POPC   GL1 9685  44.459   5.068   9.210
  497POPC   GL2 9686  44.809   4.984   9.214
  497POPC   C1A 9687  44.407   4.993   8.725
  497POPC   D2A 9688  44.090   5.124   8.368
  497POPC   C3A 9689  44.267   5.050   7.944
  497POPC   C4A 9690  44.530   5.394   7.722
  497POPC   C1B 9691  44.924   4.886   8.809
  497POPC   C2B 9692   0.049   5.042   8.400
  497POPC   C3B 9693  44.765   5.091   8.051
  497POPC   C4B 9694  44.743   4.949   7.579
  498POPC   NC3 9695  29.667  11.359   9.450
  498POPC   PO4 9696  30.185  11.672   9.509
  498POPC   GL1 9697  30.103  11.352   9.173
  498POPC   GL2 9698  29.922  11.548   9.048
  498POPC   C1A 9699  29.837  11.104   8.839
  498POPC   D2A 9700  29.990  10.936   8.459
  498POPC   C3A 9701  29.821  10.994   8.043
  498POPC   C4A 9702  30.024  11.122   7.649
  498POPC   C1B 9703  30.197  11.468   8.698
  498POPC   C2B 9704  29.936  11.443   8.378
  498POPC   C3B 9705  29.933  11.497   7.971
  498POPC   C4B 9706  29.569  11.366   7.781
  499POPC   NC3 9707  44.141   0.321   9.454
  499POPC   PO4 9708  43.791   0.849   9.308
  499POPC   GL1 9709  43.783   0.415   9.083
  499POPC   GL2 9710  44.041   0.185   8.963
  499POPC   C1A 9711  43.581   0.189   8.738
  499POPC   D2A 9712  43.404   0.140   8.333
  499POPC   C3A 9713  43.757   0.219   8.043
  499POPC   C4A 9714  43.789   0.576   7.830
  499POPC   C1B 9715  44.060   0.490   8.628
  499POPC   C2B 9716  44.158   0.724   8.219
  499POPC   C3B 9717  44.250   0.793   7.768
  499POPC   C4B 9718  44.182   0.417   7.504
  500POPC   NC3 9719  17.302  24.313   9.553
  500POPC   PO4 9720  17.332  25.012   9.578
  500POPC   GL1 9721  17.470  24.749   9.246
  500POPC   GL2 9722  17.855  24.773   9.202
  500POPC   C1A 9723  17.248  24.511   8.897
  500POPC   D2A 9724  17.437  24.429   8.485
  500POPC   C3A 9725  17.314  24.288   8.071
  500POPC   C4A 9726  17.512  24.311   7.648
  500POPC   C1B 9727  17.695  24.773   8.786
  500POPC   C2B 9728  17.848  24.707   8.369
  500POPC   C3B 9729  17.803  24.562   7.973
  500POPC   C4B 9730  17.894  24.630   7.541
  501POPC   NC3 9731  20.955  25.853   9.743
  501POPC   PO4 9732  21.445  26.328   9.479
  501POPC   GL1 9733  21.495  26.079   9.127
  501POPC   GL2 9734  21.778  25.821   9.179
  501POPC   C1A 9735  21.263  26.091   8.713
  501POPC   D2A 9736  21.047  26.032   8.334
  501POPC   C3A 9737  21.302  26.110   7.994
  501POPC   C4A 9738  21.179  26.356   7.651
  501POPC   C1B 9739  21.514  25.639   8.870
  501POPC   C2B 9740  21.161  25.598   8.584
  501POPC   C3B 9741  21.227  25.620   8.099
  501POPC   C4B 9742  21.440  25.662   7.699
  502POPC   NC3 9743  43.575  27.306   9.547
  502POPC   PO4 9744  43.786  27.928   9.673
  502POPC   GL1 9745  43.890  27.608   9.256
  502POPC   GL2 9746  43.711  27.334   9.075
  502POPC   C1A 9747  44.092  27.527   8.782
  502POPC   D2A 9748  44.121  27.297   8.330
  502POPC   C3A 9749  44.052  27.525   7.899
  502POPC   C4A 9750  44.301  27.785   7.579
  502POPC   C1B 9751  43.740  27.132   8.705
  502POPC   C2B 9752  43.601  27.239   8.310
  502POPC   C3B 9753  43.647  27.193   7.898
  502POPC   C4B 9754  43.423  27.538   7.699
  503POPC   NC3 9755  10.876   3.371   9.453
  503POPC   PO4 9756  11.492   3.620   9.632
  503POPC   GL1 9757  11.599   3.520   9.233
  503POPC   GL2 9758  11.714   3.203   9.345
  503POPC   C1A 9759  11.393   3.472   8.822
  503POPC   D2A 9760  11.066   3.551   8.475
  503POPC   C3A 9761  11.162   3.641   8.036
  503POPC   C4A 9762  11.115   3.485   7.627
  503POPC   C1B 9763  11.782   3.148   8.923
  503POPC   C2B 9764  11.759   3.251   8.501
  503POPC   C3B 9765  11.521   3.271   8.135
  503POPC   C4B 9766  11.602   3.498   7.761
  504POPC   NC3 9767  38.682   9.409   9.458
  504POPC   PO4 9768  38.322   8.819   9.519
  504POPC   GL1 9769  38.669   8.931   9.233
  504POPC   GL2 9770  38.428   9.176   9.107
  504POPC   C1A 9771  38.803   9.051   8.793
  504POPC   D2A 9772  38.572   9.087   8.384
  504POPC   C3A 9773  38.502   8.791   8.040
  504POPC   C4A 9774  38.717   8.803   7.653
  504POPC   C1B 9775  38.272   9.331   8.746
  504POPC   C2B 9776  38.076   9.148   8.381
  504POPC   C3B 9777  38.201   9.224   7.982
  504POPC   C4B 9778  38.024   8.997   7.648
  505POPC   NC3 9779  39.388  16.640   9.509
  505POPC   PO4 9780  38.736  16.773   9.509
  505POPC   GL1 9781  38.919  16.896   9.128
  505POPC   GL2 9782  39.238  17.043   9.197
  505POPC   C1A 9783  39.008  16.740   8.709
  505POPC   D2A 9784  39.187  16.864   8.314
  505POPC   C3A 9785  39.277  16.548   8.028
  505POPC   C4A 9786  39.017  16.498   7.709
  505POPC   C1B 9787  39.229  17.221   8.779
  505POPC   C2B 9788  39.569  17.170   8.479
  505POPC   C3B 9789  39.563  17.190   8.061
  505POPC   C4B 9790  39.313  16.978   7.762
  506POPC   NC3 9791  40.151  27.919   9.582
  506POPC   PO4 9792  39.769  27.343   9.541
  506POPC   GL1 9793  39.854  27.656   9.216
  506POPC   GL2 9794  39.825  28.034   9.231
  506POPC   C1A 9795  40.087  27.618   8.834
  506POPC   D2A 9796  40.354  27.714   8.515
  506POPC   C3A 9797  40.242  27.813   8.113
  506POPC   C4A 9798  40.082  27.555   7.763
  506POPC   C1B 9799  39.707  27.967   8.822
  506POPC   C2B 9800  39.730  27.727   8.453
  506POPC   C3B 9801  39.708  27.842   8.049
  506POPC   C4B 9802  39.943  28.040   7.762
  507POPC   NC3 9803  36.763  12.521   9.578
  507POPC   PO4 9804  37.088  13.075   9.598
  507POPC   GL1 9805  37.092  12.825   9.258
  507POPC   GL2 9806  36.758  12.835   9.174
  507POPC   C1A 9807  37.267  12.767   8.869
  507POPC   D2A 9808  37.239  12.983   8.463
  507POPC   C3A 9809  37.197  12.748   8.087
  507POPC   C4A 9810  37.202  12.816   7.672
  507POPC   C1B 9811  36.779  12.721   8.734
  507POPC   C2B 9812  36.756  12.868   8.324
  507POPC   C3B 9813  36.714  12.684   7.930
  507POPC   C4B 9814  36.723  12.673   7.454
  508POPC   NC3 9815   3.536  31.940   9.454
  508POPC   PO4 9816   3.455  32.590   9.411
  508POPC   GL1 9817   3.441  32.352   9.051
  508POPC   GL2 9818   3.751  32.251   9.095
  508POPC   C1A 9819   3.515  31.941   8.790
  508POPC   D2A 9820   3.374  31.756   8.421
  508POPC   C3A 9821   3.510  32.035   8.093
  508POPC   C4A 9822   3.360  32.334   7.789
  508POPC   C1B 9823   3.804  32.370   8.656
  508POPC   C2B 9824   3.917  32.374   8.220
  508POPC   C3B 9825   4.047  32.114   7.936
  508POPC   C4B 9826   3.749  32.029   7.647
  509POPC   NC3 9827   1.309  37.042   9.802
  509POPC   PO4 9828   1.768  36.898   9.349
  509POPC   GL1 9829   1.595  37.168   8.978
  509POPC   GL2 9830   1.275  37.203   9.075
  509POPC   C1A 9831   1.430  37.187   8.522
  509POPC   D2A 9832   1.451  36.814   8.200
  509POPC   C3A 9833   1.661  36.880   7.794
  509POPC   C4A 9834   1.745  36.808   7.360
  509POPC   C1B 9835   0.978  37.070   8.740
  509POPC   C2B 9836   0.944  36.963   8.294
  509POPC   C3B 9837   1.061  36.954   7.850
  509POPC   C4B 9838   0.794  37.094   7.441
  510POPC   NC3 9839   2.365   6.447   9.289
  510POPC   PO4 9840   1.778   6.744   9.554
  510POPC   GL1 9841   1.875   6.650   9.127
  510POPC   GL2 9842   1.825   6.992   8.990
  510POPC   C1A 9843   2.068   6.620   8.711
  510POPC   D2A 9844   2.128   6.752   8.278
  510POPC   C3A 9845   2.255   6.463   7.967
  510POPC   C4A 9846   2.369   6.453   7.547
  510POPC   C1B 9847   1.750   7.005   8.555
  510POPC   C2B 9848   1.663   6.918   8.142
  510POPC   C3B 9849   1.854   6.764   7.760
  510POPC   C4B 9850   1.657   6.852   7.337
  511POPC   NC3 9851  33.314  17.078   9.480
  511POPC   PO4 9852  33.067  17.780   9.501
  511POPC   GL1 9853  33.029  17.515   9.166
  511POPC   GL2 9854  32.770  17.253   9.148
  511POPC   C1A 9855  32.995  17.602   8.752
  511POPC   D2A 9856  33.225  17.459   8.432
  511POPC   C3A 9857  32.996  17.490   8.066
  511POPC   C4A 9858  33.006  17.713   7.694
  511POPC   C1B 9859  33.105  17.103   8.843
  511POPC   C2B 9860  33.059  16.965   8.409
  511POPC   C3B 9861  33.334  17.079   8.081
  511POPC   C4B 9862  33.257  17.270   7.677
  512POPC   NC3 9863  15.754   5.595   9.464
  512POPC   PO4 9864  16.264   5.979   9.585
  512POPC   GL1 9865  15.955   6.049   9.263
  512POPC   GL2 9866  16.197   6.046   9.048
  512POPC   C1A 9867  15.732   5.933   8.856
  512POPC   D2A 9868  16.024   5.843   8.545
  512POPC   C3A 9869  15.900   5.870   8.141
  512POPC   C4A 9870  15.816   5.563   7.833
  512POPC   C1B 9871  16.383   6.191   8.685
  512POPC   C2B 9872  16.402   6.096   8.259
  512POPC   C3B 9873  16.178   6.234   7.909
  512POPC   C4B 9874  16.153   5.918   7.624
  513POPC   NC3 9875  10.320  14.255   9.946
  513POPC   PO4 9876  10.548  14.318   9.320
  513POPC   GL1 9877  10.189  14.452   9.188
  513POPC   GL2 9878  10.395  14.679   8.983
  513POPC   C1A 9879  10.065  14.330   8.801
  513POPC   D2A 9880  10.316  14.499   8.476
  513POPC   C3A 9881  10.260  14.305   8.076
  513POPC   C4A 9882  10.483  14.478   7.733
  513POPC   C1B 9883  10.770  14.809   8.754
  513POPC   C2B 9884  11.060  14.745   8.445
  513POPC   C3B 9885  10.878  14.656   8.063
  513POPC   C4B 9886  10.900  14.842   7.679
  514POPC   NC3 9887  34.929  25.845   9.409
  514POPC   PO4 9888  34.486  26.331   9.569
  514POPC   GL1 9889  34.451  26.075   9.231
  514POPC   GL2 9890  34.108  26.159   9.227
  514POPC   C1A 9891  34.475  25.887   8.798
  514POPC   D2A 9892  34.665  25.991   8.386
  514POPC   C3A 9893  34.497  25.850   7.974
  514POPC   C4A 9894  34.735  25.880   7.577
  514POPC   C1B 9895  34.012  26.128   8.804
  514POPC   C2B 9896  34.169  26.153   8.394
  514POPC   C3B 9897  34.065  26.173   7.966
  514POPC   C4B 9898  34.344  26.183   7.600
  515POPC   NC3 9899   6.992  37.916   9.522
  515POPC   PO4 9900   6.412  37.477   9.506
  515POPC   GL1 9901   6.686  37.647   9.224
  515POPC   GL2 9902   6.434  37.855   9.080
  515POPC   C1A 9903   6.791  37.640   8.793
  515POPC   D2A 9904   6.479  37.775   8.499
  515POPC   C3A 9905   6.719  37.830   8.159
  515POPC   C4A 9906   6.843  37.906   7.752
  515POPC   C1B 9907   6.306  37.450   8.866
  515POPC   C2B 9908   6.476  37.264   8.503
  515POPC   C3B 9909   6.476  37.365   8.106
  515POPC   C4B 9910   6.831  37.410   7.884
  516POPC   NC3 9911  15.439  25.839   9.521
  516POPC   PO4 9912  15.195  25.178   9.658
  516POPC   GL1 9913  15.372  25.365   9.269
  516POPC   GL2 9914  15.047  25.325   9.139
  516POPC   C1A 9915  15.435  25.342   8.806
  516POPC   D2A 9916  15.292  25.006   8.520
  516POPC   C3A 9917  15.220  25.140   8.132
  516POPC   C4A 9918  15.519  25.239   7.871
  516POPC   C1B 9919  14.957  24.952   8.891
  516POPC   C2B 9920  14.832  24.758   8.473
  516POPC   C3B 9921  14.762  24.906   8.033
  516POPC   C4B 9922  14.989  25.132   7.677
  517POPC   NC3 9923  12.783   1.929   9.653
  517POPC   PO4 9924  12.788   2.600   9.691
  517POPC   GL1 9925  12.704   2.219   9.269
  517POPC   GL2 9926  12.873   1.837   9.155
  517POPC   C1A 9927  12.744   2.150   8.794
  517POPC   D2A 9928  12.778   1.852   8.478
  517POPC   C3A 9929  12.759   2.010   8.057
  517POPC   C4A 9930  12.512   2.015   7.711
  517POPC   C1B 9931  13.208   1.917   8.784
  517POPC   C2B 9932  13.241   1.978   8.289
  517POPC   C3B 9933  13.151   1.774   7.845
  517POPC   C4B 9934  13.194   1.643   7.359
  518POPC   NC3 9935  29.975   2.769   9.506
  518POPC   PO4 9936  29.317   2.934   9.411
  518POPC   GL1 9937  29.674   2.827   9.103
  518POPC   GL2 9938  29.952   2.523   9.062
  518POPC   C1A 9939  29.899   2.926   8.740
  518POPC   D2A 9940  30.018   3.071   8.342
  518POPC   C3A 9941  29.830   2.856   8.012
  518POPC   C4A 9942  30.006   2.881   7.624
  518POPC   C1B 9943  29.613   2.434   8.772
  518POPC   C2B 9944  29.374   2.446   8.378
  518POPC   C3B 9945  29.470   2.447   7.942
  518POPC   C4B 9946  29.618   2.577   7.510
  519POPC   NC3 9947  33.807   6.121   9.587
  519POPC   PO4 9948  33.350   5.605   9.519
  519POPC   GL1 9949  33.477   5.735   9.156
  519POPC   GL2 9950  33.781   5.929   9.126
  519POPC   C1A 9951  33.586   5.598   8.759
  519POPC   D2A 9952  33.542   5.810   8.388
  519POPC   C3A 9953  33.572   5.584   8.010
  519POPC   C4A 9954  33.587   5.817   7.598
  519POPC   C1B 9955  33.738   6.149   8.745
  519POPC   C2B 9956  33.938   6.188   8.377
  519POPC   C3B 9957  33.833   6.047   8.004
  519POPC   C4B 9958  33.913   6.207   7.639
  520POPC   NC3 9959  34.303  27.547   9.446
  520POPC   PO4 9960  34.917  27.745   9.543
  520POPC   GL1 9961  34.699  27.742   9.183
  520POPC   GL2 9962  34.539  28.032   9.172
  520POPC   C1A 9963  34.696  27.449   8.850
  520POPC   D2A 9964  34.940  27.441   8.485
  520POPC   C3A 9965  34.772  27.505   8.061
  520POPC   C4A 9966  34.819  27.636   7.594
  520POPC   C1B 9967  34.363  27.911   8.780
  520POPC   C2B 9968  34.348  27.788   8.345
  520POPC   C3B 9969  34.445  27.856   7.914
  520POPC   C4B 9970  34.336  27.461   7.730
  521POPC   NC3 9971  26.961  22.236   9.495
  521POPC   PO4 9972  26.398  21.814   9.480
  521POPC   GL1 9973  26.698  22.008   9.130
  521POPC   GL2 9974  26.665  22.394   9.095
  521POPC   C1A 9975  26.973  22.220   8.763
  521POPC   D2A 9976  26.961  22.502   8.394
  521POPC   C3A 9977  26.995  22.243   8.029
  521POPC   C4A 9978  26.938  22.176   7.587
  521POPC   C1B 9979  26.562  22.673   8.722
  521POPC   C2B 9980  26.443  22.576   8.281
  521POPC   C3B 9981  26.581  22.535   7.794
  521POPC   C4B 9982  26.577  22.454   7.332
  522POPC   NC3 9983   6.532  42.615   9.452
  522POPC   PO4 9984   6.804  43.309   9.454
  522POPC   GL1 9985   6.623  43.322   9.073
  522POPC   GL2 9986   6.625  42.970   9.102
  522POPC   C1A 9987   6.615  43.195   8.643
  522POPC   D2A 9988   6.955  43.113   8.375
  522POPC   C3A 9989   6.916  43.228   7.938
  522POPC   C4A 9990   6.835  43.045   7.512
  522POPC   C1B 9991   6.569  42.696   8.766
  522POPC   C2B 9992   6.478  42.676   8.327
  522POPC   C3B 9993   6.629  42.828   7.964
  522POPC   C4B 9994   6.361  43.051   7.701
  523POPC   NC3 9995  10.920  41.227   9.796
  523POPC   PO4 9996  11.504  41.418   9.513
  523POPC   GL1 9997  11.146  41.492   9.223
  523POPC   GL2 9998  11.141  41.819   9.127
  523POPC   C1A 9999  11.086  41.428   8.760
  523POPC   D2A10000  11.378  41.493   8.394
  523POPC   C3A10001  11.226  41.452   7.975
  523POPC   C4A10002  11.250  41.271   7.561
  523POPC   C1B10003  11.345  41.896   8.736
  523POPC   C2B10004  11.226  41.981   8.300
  523POPC   C3B10005  11.327  41.974   7.867
  523POPC   C4B10006  11.341  41.806   7.449
  524POPC   NC310007  36.007  14.050   9.431
  524POPC   PO410008  36.204  13.444   9.476
  524POPC   GL110009  36.234  13.690   9.144
  524POPC   GL210010  36.445  13.997   9.180
  524POPC   C1A10011  36.045  13.553   8.783
  524POPC   D2A10012  36.160  13.339   8.439
  524POPC   C3A10013  35.976  13.428   8.082
  524POPC   C4A10014  36.148  13.498   7.710
  524POPC   C1B10015  36.212  14.043   8.768
  524POPC   C2B10016  35.991  13.875   8.383
  524POPC   C3B10017  35.949  13.922   7.931
  524POPC   C4B10018  35.898  13.882   7.464
  525POPC   NC310019  30.009  28.763   9.398
  525POPC   PO410020  29.731  28.079   9.539
  525POPC   GL110021  29.880  28.281   9.180
  525POPC   GL210022  29.666  28.556   9.025
  525POPC   C1A10023  29.958  28.210   8.758
  525POPC   D2A10024  29.905  28.391   8.374
  525POPC   C3A10025  29.934  28.157   8.016
  525POPC   C4A10026  30.228  28.238   7.697
  525POPC   C1B10027  29.557  28.691   8.581
  525POPC   C2B10028  29.766  28.850   8.197
  525POPC   C3B10029  29.872  28.623   7.833
  525POPC   C4B10030  29.774  28.694   7.396
  526POPC   NC310031   1.194  12.460   9.794
  526POPC   PO410032   1.454  13.035   9.613
  526POPC   GL110033   1.456  12.994   9.203
  526POPC   GL210034   1.456  12.661   9.066
  526POPC   C1A10035   1.340  13.084   8.791
  526POPC   D2A10036   1.481  13.101   8.385
  526POPC   C3A10037   1.234  13.145   8.049
  526POPC   C4A10038   1.315  12.891   7.720
  526POPC   C1B10039   1.370  12.609   8.599
  526POPC   C2B10040   1.251  12.611   8.140
  526POPC   C3B10041   1.240  12.391   7.708
  526POPC   C4B10042   1.129  12.502   7.257
  527POPC   NC310043  36.571   1.851   9.442
  527POPC   PO410044  37.247   1.743   9.445
  527POPC   GL110045  37.037   2.138   9.271
  527POPC   GL210046  36.717   2.359   9.149
  527POPC   C1A10047  37.030   2.122   8.847
  527POPC   D2A10048  37.054   2.147   8.457
  527POPC   C3A10049  37.142   1.816   8.228
  527POPC   C4A10050  37.015   1.920   7.843
  527POPC   C1B10051  36.548   2.208   8.694
  527POPC   C2B10052  36.591   2.032   8.241
  527POPC   C3B10053  36.560   2.120   7.778
  527POPC   C4B10054  36.498   2.314   7.318
  528POPC   NC310055   1.532  44.063   9.517
  528POPC   PO410056   0.958  44.432   9.357
  528POPC   GL110057   1.131  44.038   9.156
  528POPC   GL210058   1.433  43.772   9.119
  528POPC   C1A10059   1.127  43.865   8.725
  528POPC   D2A10060   0.893  43.700   8.389
  528POPC   C3A10061   1.028  43.908   8.025
  528POPC   C4A10062   1.301  44.054   7.722
  528POPC   C1B10063   1.585  43.643   8.728
  528POPC   C2B10064   1.404  43.701   8.330
  528POPC   C3B10065   1.553  43.654   7.964
  528POPC   C4B10066   1.727  43.807   7.604
  529POPC   NC310067  16.477  34.349   9.423
  529POPC   PO410068  16.884  34.787   9.697
  529POPC   GL110069  16.865  34.615   9.244
  529POPC   GL210070  16.591  34.701   9.035
  529POPC   C1A10071  16.955  34.480   8.780
  529POPC   D2A10072  16.667  34.703   8.512
  529POPC   C3A10073  16.644  34.615   8.106
  529POPC   C4A10074  16.965  34.616   7.811
  529POPC   C1B10075  16.394  35.032   8.819
  529POPC   C2B10076  16.437  35.203   8.454
  529POPC   C3B10077  16.421  35.108   8.034
  529POPC   C4B10078  16.577  34.911   7.668
  530POPC   NC310079  26.022  40.298   9.631
  530POPC   PO410080  26.103  40.974   9.721
  530POPC   GL110081  25.997  40.903   9.260
  530POPC   GL210082  26.250  40.675   9.224
  530POPC   C1A10083  26.045  40.899   8.767
  530POPC   D2A10084  25.941  41.009   8.314
  530POPC   C3A10085  25.947  40.784   7.918
  530POPC   C4A10086  25.895  40.864   7.452
  530POPC   C1B10087  26.362  40.504   8.828
  530POPC   C2B10088  26.230  40.459   8.402
  530POPC   C3B10089  26.465  40.573   8.027
  530POPC   C4B10090  26.278  40.499   7.646
  531POPC   NC310091  32.282  35.631   9.381
  531POPC   PO410092  32.319  36.259   9.465
  531POPC   GL110093  32.261  36.096   9.079
  531POPC   GL210094  31.950  35.971   9.152
  531POPC   C1A10095  32.000  36.219   8.716
  531POPC   D2A10096  32.013  36.309   8.296
  531POPC   C3A10097  32.345  36.066   8.140
  531POPC   C4A10098  32.382  36.169   7.738
  531POPC   C1B10099  32.069  35.713   8.782
  531POPC   C2B10100  31.946  35.786   8.372
  531POPC   C3B10101  31.937  35.820   7.953
  531POPC   C4B10102  31.797  35.534   7.713
  532POPC   NC310103  17.747  44.814   9.688
  532POPC   PO410104  17.252  44.384   9.487
  532POPC   GL110105  17.580  44.583   9.227
  532POPC   GL210106  17.646  44.963   9.224
  532POPC   C1A10107  17.527  44.490   8.798
  532POPC   D2A10108  17.238  44.634   8.479
  532POPC   C3A10109  17.425  44.492   8.107
  532POPC   C4A10110  17.317  44.572   7.727
  532POPC   C1B10111  17.653  44.986   8.812
  532POPC   C2B10112  17.727  44.816   8.427
  532POPC   C3B10113  17.599  44.974   8.048
  532POPC   C4B10114  17.655  44.966   7.629
  533POPC   NC310115  16.259  15.488   9.523
  533POPC   PO410116  15.808  14.942   9.616
  533POPC   GL110117  16.029  15.064   9.275
  533POPC   GL210118  15.807  15.321   9.210
  533POPC   C1A10119  16.284  15.172   8.921
  533POPC   D2A10120  16.340  15.082   8.503
  533POPC   C3A10121  16.119  15.000   8.135
  533POPC   C4A10122  16.287  15.171   7.766
  533POPC   C1B10123  15.826  15.079   8.770
  533POPC   C2B10124  15.663  15.129   8.328
  533POPC   C3B10125  15.675  15.213   7.855
  533POPC   C4B10126  15.491  15.410   7.437
  534POPC   NC310127  10.441  41.394  10.169
  534POPC   PO410128  10.205  41.751   9.638
  534POPC   GL110129  10.353  41.573   9.226
  534POPC   GL210130  10.629  41.797   9.129
  534POPC   C1A10131  10.504  41.445   8.785
  534POPC   D2A10132  10.378  41.194   8.429
  534POPC   C3A10133  10.548  41.308   8.061
  534POPC   C4A10134  10.452  41.438   7.678
  534POPC   C1B10135  10.813  41.874   8.716
  534POPC   C2B10136  10.844  41.632   8.344
  534POPC   C3B10137  10.820  41.748   7.913
  534POPC   C4B10138  10.879  41.630   7.491
  535POPC   NC310139  42.490  14.244   9.300
  535POPC   PO410140  42.401  13.703   9.786
  535POPC   GL110141  42.348  13.695   9.320
  535POPC   GL210142  42.626  13.483   9.196
  535POPC   C1A10143  42.330  13.689   8.819
  535POPC   D2A10144  42.103  13.416   8.464
  535POPC   C3A10145  42.220  13.508   8.028
  535POPC   C4A10146  42.421  13.803   7.743
  535POPC   C1B10147  42.772  13.402   8.791
  535POPC   C2B10148  42.667  13.542   8.366
  535POPC   C3B10149  42.708  13.342   7.970
  535POPC   C4B10150  42.623  13.389   7.514
  536POPC   NC310151  10.353  44.681   9.829
  536POPC   PO410152  10.397  44.091   9.701
  536POPC   GL110153  10.424  44.428   9.331
  536POPC   GL210154  10.753  44.613   9.241
  536POPC   C1A10155  10.344  44.615   8.891
  536POPC   D2A10156  10.263  44.883   8.506
  536POPC   C3A10157  10.303  44.746   8.093
  536POPC   C4A10158  10.485  44.836   7.688
  536POPC   C1B10159  10.834  44.817   8.802
  536POPC   C2B10160  10.763  44.822   8.335
  536POPC   C3B10161  10.888   0.041   7.924
  536POPC   C4B10162  10.846   0.053   7.416
  537POPC   NC310163  30.431  12.051   9.513
  537POPC   PO410164  31.095  12.124   9.503
  537POPC   GL110165  30.757  12.127   9.123
  537POPC   GL210166  30.397  11.905   9.034
  537POPC   C1A10167  30.776  11.951   8.693
  537POPC   D2A10168  30.770  11.834   8.272
  537POPC   C3A10169  30.481  11.945   7.972
  537POPC   C4A10170  30.686  12.304   7.823
  537POPC   C1B10171  30.390  12.275   8.749
  537POPC   C2B10172  30.452  12.332   8.316
  537POPC   C3B10173  30.200  12.382   7.937
  537POPC   C4B10174  30.277  12.312   7.518
  538POPC   NC310175   1.981  38.481   9.476
  538POPC   PO410176   1.361  38.471   9.488
  538POPC   GL110177   1.601  38.704   9.130
  538POPC   GL210178   1.992  38.636   9.013
  538POPC   C1A10179   1.716  38.932   8.734
  538POPC   D2A10180   1.976  38.657   8.468
  538POPC   C3A10181   1.819  38.443   8.125
  538POPC   C4A10182   1.603  38.566   7.788
  538POPC   C1B10183   2.296  38.370   8.764
  538POPC   C2B10184   2.204  38.163   8.376
  538POPC   C3B10185   2.314  38.396   8.009
  538POPC   C4B10186   2.098  38.468   7.615
  539POPC   NC310187  29.839  17.446   9.505
  539POPC   PO410188  30.501  17.578   9.365
  539POPC   GL110189  30.103  17.469   9.063
  539POPC   GL210190  29.737  17.247   9.063
  539POPC   C1A10191  30.028  17.279   8.662
  539POPC   D2A10192  29.767  17.147   8.348
  539POPC   C3A10193  29.986  17.282   7.993
  539POPC   C4A10194  29.905  17.366   7.561
  539POPC   C1B10195  29.576  17.535   8.741
  539POPC   C2B10196  29.617  17.647   8.292
  539POPC   C3B10197  29.498  17.436   7.903
  539POPC   C4B10198  29.343  17.555   7.482
  540POPC   NC310199  24.474   4.422   9.627
  540POPC   PO410200  24.872   4.062   9.447
  540POPC   GL110201  24.517   4.290   9.146
  540POPC   GL210202  24.222   4.568   9.218
  540POPC   C1A10203  24.337   4.168   8.769
  540POPC   D2A10204  24.576   4.077   8.415
  540POPC   C3A10205  24.367   4.188   8.083
  540POPC   C4A10206  24.464   4.420   7.759
  540POPC   C1B10207  24.044   4.638   8.823
  540POPC   C2B10208  24.135   4.513   8.421
  540POPC   C3B10209  24.118   4.725   8.023
  540POPC   C4B10210  24.096   4.752   7.578
  541POPC   NC310211  17.052  21.381   9.533
  541POPC   PO410212  17.710  21.312   9.738
  541POPC   GL110213  17.625  21.330   9.276
  541POPC   GL210214  17.340  21.123   9.195
  541POPC   C1A10215  17.630  21.584   8.879
  541POPC   D2A10216  17.383  21.690   8.475
  541POPC   C3A10217  17.465  21.478   8.065
  541POPC   C4A10218  17.833  21.479   7.782
  541POPC   C1B10219  17.221  21.296   8.776
  541POPC   C2B10220  17.066  21.310   8.351
  541POPC   C3B10221  17.148  21.051   7.993
  541POPC   C4B10222  17.519  21.045   7.749
  542POPC   NC310223  29.632  33.747   9.402
  542POPC   PO410224  30.109  34.155   9.423
  542POPC   GL110225  30.017  33.984   9.066
  542POPC   GL210226  29.957  33.613   9.058
  542POPC   C1A10227  29.883  33.955   8.675
  542POPC   D2A10228  29.957  33.705   8.356
  542POPC   C3A10229  29.692  33.794   8.064
  542POPC   C4A10230  29.766  33.826   7.652
  542POPC   C1B10231  29.909  33.335   8.707
  542POPC   C2B10232  29.870  33.210   8.250
  542POPC   C3B10233  30.037  33.436   7.908
  542POPC   C4B10234  30.113  33.484   7.471
  543POPC   NC310235   9.356  19.230   9.520
  543POPC   PO410236   8.803  19.517   9.495
  543POPC   GL110237   8.797  19.179   9.197
  543POPC   GL210238   9.093  18.970   9.129
  543POPC   C1A10239   8.724  19.092   8.776
  543POPC   D2A10240   8.883  19.188   8.395
  543POPC   C3A10241   8.871  18.871   8.129
  543POPC   C4A10242   8.843  19.028   7.735
  543POPC   C1B10243   9.188  19.310   8.838
  543POPC   C2B10244   9.354  19.371   8.420
  543POPC   C3B10245   9.315  19.114   8.048
  543POPC   C4B10246   9.352  19.000   7.607
  544POPC   NC310247   2.185  18.037   9.576
  544POPC   PO410248   2.368  18.637   9.413
  544POPC   GL110249   2.278  18.405   9.077
  544POPC   GL210250   1.984  18.196   9.138
  544POPC   C1A10251   2.255  18.219   8.701
  544POPC   D2A10252   1.979  18.047   8.410
  544POPC   C3A10253   2.150  18.137   8.060
  544POPC   C4A10254   2.000  18.233   7.666
  544POPC   C1B10255   1.761  18.301   8.795
  544POPC   C2B10256   1.751  18.507   8.399
  544POPC   C3B10257   1.647  18.286   8.035
  544POPC   C4B10258   1.486  18.241   7.628
  545POPC   NC310259  22.178  17.146   9.466
  545POPC   PO410260  22.563  17.701   9.616
  545POPC   GL110261  22.388  17.582   9.241
  545POPC   GL210262  22.021  17.652   9.264
  545POPC   C1A10263  22.360  17.437   8.818
  545POPC   D2A10264  22.468  17.636   8.424
  545POPC   C3A10265  22.514  17.435   8.038
  545POPC   C4A10266  22.272  17.429   7.683
  545POPC   C1B10267  21.889  17.647   8.836
  545POPC   C2B10268  21.947  17.462   8.449
  545POPC   C3B10269  22.061  17.672   8.095
  545POPC   C4B10270  21.935  18.069   7.938
  546POPC   NC310271   6.988  44.223   9.462
  546POPC   PO410272   7.557  43.934   9.659
  546POPC   GL110273   7.447  43.905   9.232
  546POPC   GL210274   7.105  43.763   9.168
  546POPC   C1A10275   7.519  43.851   8.798
  546POPC   D2A10276   7.263  43.708   8.485
  546POPC   C3A10277   7.402  43.891   8.098
  546POPC   C4A10278   7.431  43.714   7.692
  546POPC   C1B10279   7.051  44.074   8.836
  546POPC   C2B10280   7.149  44.218   8.435
  546POPC   C3B10281   7.130  44.386   8.028
  546POPC   C4B10282   7.348  44.226   7.690
  547POPC   NC310283  37.895   5.981   9.614
  547POPC   PO410284  37.211   5.753   9.686
  547POPC   GL110285  37.492   5.864   9.323
  547POPC   GL210286  37.833   5.706   9.190
  547POPC   C1A10287  37.482   5.942   8.903
  547POPC   D2A10288  37.570   5.877   8.487
  547POPC   C3A10289  37.267   5.991   8.210
  547POPC   C4A10290  37.441   5.919   7.845
  547POPC   C1B10291  38.011   5.840   8.776
  547POPC   C2B10292  38.060   5.678   8.329
  547POPC   C3B10293  37.966   5.716   7.853
  547POPC   C4B10294  38.013   5.592   7.346
  548POPC   NC310295  44.933  40.255   9.858
  548POPC   PO410296  44.487  39.887   9.492
  548POPC   GL110297  44.674  39.950   9.122
  548POPC   GL210298  44.627  40.263   9.156
  548POPC   C1A10299  44.835  40.082   8.683
  548POPC   D2A10300  44.724  40.045   8.237
  548POPC   C3A10301   0.045  39.968   7.908
  548POPC   C4A10302   0.085  40.215   7.551
  548POPC   C1B10303  44.350  40.235   8.823
  548POPC   C2B10304  44.340  40.414   8.427
  548POPC   C3B10305  44.318  40.311   8.002
  548POPC   C4B10306  44.600  40.118   7.696
  549POPC   NC310307  10.822   9.746   9.396
  549POPC   PO410308  10.207   9.392   9.464
  549POPC   GL110309  10.357   9.640   9.138
  549POPC   GL210310  10.404   9.988   9.225
  549POPC   C1A10311  10.412   9.626   8.700
  549POPC   D2A10312  10.341   9.463   8.314
  549POPC   C3A10313  10.381   9.660   7.919
  549POPC   C4A10314  10.108   9.482   7.579
  549POPC   C1B10315  10.656  10.047   8.829
  549POPC   C2B10316  10.659  10.042   8.394
  549POPC   C3B10317  10.787   9.984   7.976
  549POPC   C4B10318  10.565  10.013   7.609
  550POPC   NC310319  32.622   5.234   9.627
  550POPC   PO410320  32.031   4.916   9.535
  550POPC   GL110321  32.143   5.321   9.283
  550POPC   GL210322  32.505   5.377   9.165
  550POPC   C1A10323  32.148   5.527   8.858
  550POPC   D2A10324  32.245   5.320   8.485
  550POPC   C3A10325  32.088   5.459   8.114
  550POPC   C4A10326  32.117   5.230   7.759
  550POPC   C1B10327  32.611   5.183   8.814
  550POPC   C2B10328  32.752   5.245   8.395
  550POPC   C3B10329  32.562   5.079   8.027
  550POPC   C4B10330  32.736   4.886   7.687
  551POPC   NC310331  39.825  32.320   9.561
  551POPC   PO410332  40.283  31.829   9.439
  551POPC   GL110333  40.083  32.143   9.168
  551POPC   GL210334  40.285  32.439   9.112
  551POPC   C1A10335  39.827  32.356   8.865
  551POPC   D2A10336  39.789  32.203   8.439
  551POPC   C3A10337  40.155  32.134   8.189
  551POPC   C4A10338  40.116  32.163   7.779
  551POPC   C1B10339  40.272  32.370   8.639
  551POPC   C2B10340  40.122  32.638   8.260
  551POPC   C3B10341  40.067  32.657   7.796
  551POPC   C4B10342  39.794  32.626   7.379
  552POPC   NC310343   0.844   4.933   9.647
  552POPC   PO410344   1.539   4.984   9.684
  552POPC   GL110345   1.262   5.103   9.344
  552POPC   GL210346   1.531   5.242   9.162
  552POPC   C1A10347   0.998   5.176   8.922
  552POPC   D2A10348   1.146   5.198   8.471
  552POPC   C3A10349   1.022   5.213   8.004
  552POPC   C4A10350   0.996   5.115   7.487
  552POPC   C1B10351   1.600   5.148   8.721
  552POPC   C2B10352   1.578   5.396   8.329
  552POPC   C3B10353   1.521   5.380   7.878
  552POPC   C4B10354   1.517   5.172   7.494
  553POPC   NC310355  31.802  36.397   9.447
  553POPC   PO410356  31.109  36.561   9.514
  553POPC   GL110357  31.366  36.395   9.168
  553POPC   GL210358  31.347  36.068   9.002
  553POPC   C1A10359  31.583  36.500   8.775
  553POPC   D2A10360  31.394  36.417   8.374
  553POPC   C3A10361  31.588  36.184   8.041
  553POPC   C4A10362  31.899  36.269   7.716
  553POPC   C1B10363  31.509  35.978   8.599
  553POPC   C2B10364  31.195  35.964   8.281
  553POPC   C3B10365  31.066  36.105   7.905
  553POPC   C4B10366  31.054  36.025   7.444
  554POPC   NC310367   5.164  33.632   9.570
  554POPC   PO410368   4.499  33.782   9.681
  554POPC   GL110369   4.828  33.918   9.292
  554POPC   GL210370   5.051  33.633   9.084
  554POPC   C1A10371   5.025  34.062   8.867
  554POPC   D2A10372   5.007  33.799   8.497
  554POPC   C3A10373   5.142  33.949   8.088
  554POPC   C4A10374   4.862  34.035   7.738
  554POPC   C1B10375   4.991  33.345   8.771
  554POPC   C2B10376   4.747  33.346   8.418
  554POPC   C3B10377   4.786  33.595   8.064
  554POPC   C4B10378   5.100  33.604   7.716
  555POPC   NC310379  43.358   5.315   9.409
  555POPC   PO410380  43.205   4.717   9.522
  555POPC   GL110381  43.303   4.885   9.143
  555POPC   GL210382  42.970   5.091   9.141
  555POPC   C1A10383  43.292   5.013   8.730
  555POPC   D2A10384  43.117   4.749   8.404
  555POPC   C3A10385  43.169   4.838   7.978
  555POPC   C4A10386  42.863   4.862   7.630
  555POPC   C1B10387  42.862   5.349   8.771
  555POPC   C2B10388  42.784   5.201   8.344
  555POPC   C3B10389  42.934   5.287   7.934
  555POPC   C4B10390  43.291   5.227   7.668
  556POPC   NC310391  31.950  19.779   9.729
  556POPC   PO410392  31.671  19.820   9.183
  556POPC   GL110393  32.064  19.808   9.035
  556POPC   GL210394  32.316  19.926   9.249
  556POPC   C1A10395  32.120  19.740   8.612
  556POPC   D2A10396  31.958  19.621   8.228
  556POPC   C3A10397  32.102  19.852   7.892
  556POPC   C4A10398  31.888  20.092   7.583
  556POPC   C1B10399  32.554  19.922   8.830
  556POPC   C2B10400  32.479  20.021   8.372
  556POPC   C3B10401  32.572  20.050   7.936
  556POPC   C4B10402  32.436  20.004   7.528
  557POPC   NC310403  39.820  34.766  10.004
  557POPC   PO410404  39.225  34.648   9.671
  557POPC   GL110405  39.278  34.628   9.206
  557POPC   GL210406  39.575  34.796   9.057
  557POPC   C1A10407  39.361  34.443   8.787
  557POPC   D2A10408  39.650  34.610   8.531
  557POPC   C3A10409  39.424  34.668   8.201
  557POPC   C4A10410  39.382  34.542   7.789
  557POPC   C1B10411  39.284  34.989   8.761
  557POPC   C2B10412  39.181  35.146   8.336
  557POPC   C3B10413  39.290  35.043   7.896
  557POPC   C4B10414  39.068  34.948   7.505
  558POPC   NC310415  44.004  30.076   9.541
  558POPC   PO410416  43.332  30.180   9.517
  558POPC   GL110417  43.649  29.860   9.214
  558POPC   GL210418  44.060  29.778   9.140
  558POPC   C1A10419  43.801  30.007   8.766
  558POPC   D2A10420  43.657  30.281   8.451
  558POPC   C3A10421  43.818  30.193   8.054
  558POPC   C4A10422  43.882  29.807   7.770
  558POPC   C1B10423  44.262  30.143   8.919
  558POPC   C2B10424  44.214  30.191   8.481
  558POPC   C3B10425  44.212  29.922   8.157
  558POPC   C4B10426  44.279  30.154   7.774
  559POPC   NC310427   0.077   7.189   9.618
  559POPC   PO410428  44.461   7.111   9.459
  559POPC   GL110429  44.470   7.246   9.074
  559POPC   GL210430  44.621   7.569   9.118
  559POPC   C1A10431  44.374   7.109   8.671
  559POPC   D2A10432  44.448   7.362   8.299
  559POPC   C3A10433  44.855   7.325   8.161
  559POPC   C4A10434  44.731   7.127   7.815
  559POPC   C1B10435  44.382   7.631   8.741
  559POPC   C2B10436  44.256   7.828   8.378
  559POPC   C3B10437  44.463   7.868   8.034
  559POPC   C4B10438  44.628   7.609   7.758
  560POPC   NC310439  40.604  28.955   9.439
  560POPC   PO410440  40.926  29.580   9.429
  560POPC   GL110441  40.835  29.400   9.082
  560POPC   GL210442  40.866  29.032   9.016
  560POPC   C1A10443  40.693  29.370   8.681
  560POPC   D2A10444  40.876  29.135   8.386
  560POPC   C3A10445  40.798  29.349   8.043
  560POPC   C4A10446  40.643  29.213   7.706
  560POPC   C1B10447  41.136  28.804   8.727
  560POPC   C2B10448  41.118  28.655   8.299
  560POPC   C3B10449  41.048  28.903   7.940
  560POPC   C4B10450  40.963  28.855   7.515
  561POPC   NC310451   4.346  34.156   9.456
  561POPC   PO410452   4.262  34.820   9.477
  561POPC   GL110453   4.460  34.586   9.118
  561POPC   GL210454   4.219  34.375   8.970
  561POPC   C1A10455   4.510  34.675   8.651
  561POPC   D2A10456   4.622  34.591   8.279
  561POPC   C3A10457   4.570  34.832   7.922
  561POPC   C4A10458   4.114  34.742   7.843
  561POPC   C1B10459   4.567  34.177   8.687
  561POPC   C2B10460   4.613  34.072   8.223
  561POPC   C3B10461   4.469  34.330   7.848
  561POPC   C4B10462   4.491  34.191   7.405
  562POPC   NC310463  37.225   0.577   9.464
  562POPC   PO410464  36.844   0.198   9.645
  562POPC   GL110465  36.834   0.316   9.218
  562POPC   GL210466  37.121   0.142   9.183
  562POPC   C1A10467  36.666   0.365   8.775
  562POPC   D2A10468  36.770   0.214   8.345
  562POPC   C3A10469  36.703   0.449   7.958
  562POPC   C4A10470  36.964   0.654   7.642
  562POPC   C1B10471  37.197   0.339   8.791
  562POPC   C2B10472  37.417   0.205   8.434
  562POPC   C3B10473  37.199   0.290   8.054
  562POPC   C4B10474  37.316   0.296   7.632
  563POPC   NC310475  13.546   6.232   9.438
  563POPC   PO410476  13.813   5.586   9.433
  563POPC   GL110477  13.752   5.840   9.055
  563POPC   GL210478  13.415   5.926   9.040
  563POPC   C1A10479  13.676   5.836   8.578
  563POPC   D2A10480  13.498   5.632   8.183
  563POPC   C3A10481  13.629   5.807   7.777
  563POPC   C4A10482  13.897   6.103   7.532
  563POPC   C1B10483  13.239   6.104   8.656
  563POPC   C2B10484  13.103   5.978   8.261
  563POPC   C3B10485  13.093   6.056   7.836
  563POPC   C4B10486  13.346   6.031   7.428
  564POPC   NC310487  14.448  26.033   9.495
  564POPC   PO410488  14.131  25.567   9.129
  564POPC   GL110489  14.372  25.890   8.975
  564POPC   GL210490  14.733  26.008   9.053
  564POPC   C1A10491  14.507  25.918   8.554
  564POPC   D2A10492  14.758  25.827   8.205
  564POPC   C3A10493  14.588  25.881   7.776
  564POPC   C4A10494  14.276  25.894   7.410
  564POPC   C1B10495  14.463  26.367   8.843
  564POPC   C2B10496  14.281  26.354   8.426
  564POPC   C3B10497  14.374  26.314   7.989
  564POPC   C4B10498  14.797  26.364   7.866
  565POPC   NC310499  19.605  35.556   9.612
  565POPC   PO410500  20.170  35.258   9.498
  565POPC   GL110501  19.841  35.186   9.231
  565POPC   GL210502  19.711  35.485   9.120
  565POPC   C1A10503  19.895  35.131   8.783
  565POPC   D2A10504  19.869  35.287   8.360
  565POPC   C3A10505  19.797  34.978   8.055
  565POPC   C4A10506  19.513  35.037   7.736
  565POPC   C1B10507  19.878  35.645   8.745
  565POPC   C2B10508  19.897  35.808   8.333
  565POPC   C3B10509  20.008  35.623   7.947
  565POPC   C4B10510  19.905  35.696   7.503
  566POPC   NC310511  10.474   1.479   9.259
  566POPC   PO410512  10.544   2.052   9.488
  566POPC   GL110513  10.356   2.128   9.123
  566POPC   GL210514  10.154   1.828   9.074
  566POPC   C1A10515  10.497   1.993   8.724
  566POPC   D2A10516  10.797   1.955   8.404
  566POPC   C3A10517  10.700   2.184   8.043
  566POPC   C4A10518  10.432   2.234   7.702
  566POPC   C1B10519  10.204   1.570   8.697
  566POPC   C2B10520  10.422   1.583   8.335
  566POPC   C3B10521  10.594   1.693   7.966
  566POPC   C4B10522  10.309   1.701   7.655
  567POPC   NC310523  23.736  30.622   9.731
  567POPC   PO410524  24.183  30.314   9.400
  567POPC   GL110525  23.841  30.478   9.127
  567POPC   GL210526  23.605  30.718   9.183
  567POPC   C1A10527  23.788  30.577   8.710
  567POPC   D2A10528  24.070  30.450   8.414
  567POPC   C3A10529  23.996  30.684   8.068
  567POPC   C4A10530  24.090  30.585   7.668
  567POPC   C1B10531  23.496  30.982   8.813
  567POPC   C2B10532  23.560  31.104   8.390
  567POPC   C3B10533  23.344  30.954   8.048
  567POPC   C4B10534  23.546  30.620   7.825
  568POPC   NC310535   3.788  20.873   9.306
  568POPC   PO410536   3.303  20.648   9.684
  568POPC   GL110537   3.198  20.739   9.173
  568POPC   GL210538   3.454  20.862   8.934
  568POPC   C1A10539   3.105  20.529   8.762
  568POPC   D2A10540   3.280  20.284   8.427
  568POPC   C3A10541   3.477  20.525   8.136
  568POPC   C4A10542   3.393  20.664   7.720
  568POPC   C1B10543   3.856  20.854   8.667
  568POPC   C2B10544   3.941  20.996   8.268
  568POPC   C3B10545   3.809  20.859   7.915
  568POPC   C4B10546   3.910  20.738   7.500
  569POPC   NC310547  40.956  19.319   9.529
  569POPC   PO410548  40.587  18.729   9.548
  569POPC   GL110549  40.598  19.041   9.288
  569POPC   GL210550  40.925  18.979   9.148
  569POPC   C1A10551  40.512  19.253   8.945
  569POPC   D2A10552  40.494  19.206   8.504
  569POPC   C3A10553  40.747  19.278   8.127
  569POPC   C4A10554  40.523  19.405   7.747
  569POPC   C1B10555  40.965  19.150   8.745
  569POPC   C2B10556  41.060  18.939   8.396
  569POPC   C3B10557  41.167  18.604   8.149
  569POPC   C4B10558  40.967  18.736   7.818
  570POPC   NC310559   2.393  39.391   9.512
  570POPC   PO410560   1.739  39.094   9.436
  570POPC   GL110561   1.943  39.296   9.118
  570POPC   GL210562   2.235  39.081   9.132
  570POPC   C1A10563   2.085  39.305   8.686
  570POPC   D2A10564   1.886  39.191   8.296
  570POPC   C3A10565   2.012  39.459   7.953
  570POPC   C4A10566   2.303  39.335   7.633
  570POPC   C1B10567   2.355  38.872   8.754
  570POPC   C2B10568   2.416  38.874   8.319
  570POPC   C3B10569   2.240  38.896   7.901
  570POPC   C4B10570   2.406  38.857   7.470
  571POPC   NC310571   6.761  11.416   9.606
  571POPC   PO410572   6.712  10.715   9.738
  571POPC   GL110573   6.598  11.012   9.318
  571POPC   GL210574   6.853  11.034   8.991
  571POPC   C1A10575   6.429  11.291   8.941
  571POPC   D2A10576   6.673  11.493   8.615
  571POPC   C3A10577   6.656  11.387   8.165
  571POPC   C4A10578   6.752  11.595   7.788
  571POPC   C1B10579   6.650  10.962   8.593
  571POPC   C2B10580   6.740  10.869   8.164
  571POPC   C3B10581   6.499  10.977   7.795
  571POPC   C4B10582   6.644  10.874   7.344
  572POPC   NC310583   0.392  13.885   9.556
  572POPC   PO410584   0.842  13.544   9.234
  572POPC   GL110585   0.516  13.793   9.027
  572POPC   GL210586   0.174  13.739   9.089
  572POPC   C1A10587   0.402  13.743   8.575
  572POPC   D2A10588   0.660  13.492   8.269
  572POPC   C3A10589   0.606  13.696   7.902
  572POPC   C4A10590   0.279  13.938   7.892
  572POPC   C1B10591   0.163  13.368   8.808
  572POPC   C2B10592   0.147  13.360   8.332
  572POPC   C3B10593   0.346  13.256   7.918
  572POPC   C4B10594   0.420  13.082   7.513
  573POPC   NC310595  44.110  43.678   9.426
  573POPC   PO410596  43.560  44.156   9.553
  573POPC   GL110597  43.741  43.987   9.180
  573POPC   GL210598  43.703  43.623   9.075
  573POPC   C1A10599  43.908  44.199   8.819
  573POPC   D2A10600  44.140  44.116   8.430
  573POPC   C3A10601  43.894  43.802   8.225
  573POPC   C4A10602  43.718  43.817   7.845
  573POPC   C1B10603  44.093  43.704   8.769
  573POPC   C2B10604  44.331  43.601   8.384
  573POPC   C3B10605  44.256  43.603   7.897
  573POPC   C4B10606  44.080  43.542   7.471
  574POPC   NC310607  25.026   9.440   9.886
  574POPC   PO410608  25.478   9.147   9.484
  574POPC   GL110609  25.304   8.974   9.125
  574POPC   GL210610  25.125   8.686   9.164
  574POPC   C1A10611  25.499   9.005   8.740
  574POPC   D2A10612  25.379   8.894   8.341
  574POPC   C3A10613  25.370   9.112   7.950
  574POPC   C4A10614  25.047   9.378   7.728
  574POPC   C1B10615  25.198   8.566   8.746
  574POPC   C2B10616  25.228   8.418   8.321
  574POPC   C3B10617  25.017   8.704   8.034
  574POPC   C4B10618  25.068   8.853   7.614
  575POPC   NC310619   3.916  32.626   9.412
  575POPC   PO410620   4.325  32.928   9.881
  575POPC   GL110621   4.299  33.088   9.346
  575POPC   GL210622   4.380  32.806   9.208
  575POPC   C1A10623   4.250  33.274   8.894
  575POPC   D2A10624   4.303  33.081   8.464
  575POPC   C3A10625   4.497  33.091   8.052
  575POPC   C4A10626   4.566  33.348   7.700
  575POPC   C1B10627   4.035  32.831   8.838
  575POPC   C2B10628   3.876  32.824   8.435
  575POPC   C3B10629   3.987  32.925   8.038
  575POPC   C4B10630   4.170  33.031   7.654
  576POPC   NC310631  26.520  18.341   9.357
  576POPC   PO410632  25.870  18.578   9.476
  576POPC   GL110633  25.849  18.213   9.193
  576POPC   GL210634  26.127  18.339   9.023
  576POPC   C1A10635  25.867  18.030   8.730
  576POPC   D2A10636  26.016  18.341   8.397
  576POPC   C3A10637  26.049  18.214   7.948
  576POPC   C4A10638  25.765  17.965   7.677
  576POPC   C1B10639  26.353  18.674   8.830
  576POPC   C2B10640  26.588  18.775   8.500
  576POPC   C3B10641  26.408  18.574   8.111
  576POPC   C4B10642  26.176  18.642   7.704
  577POPC   NC310643  37.967  41.260   9.404
  577POPC   PO410644  37.592  41.904   9.501
  577POPC   GL110645  37.401  41.798   9.122
  577POPC   GL210646  37.556  41.498   9.121
  577POPC   C1A10647  37.407  41.940   8.706
  577POPC   D2A10648  37.368  41.684   8.316
  577POPC   C3A10649  37.759  41.567   8.108
  577POPC   C4A10650  37.957  41.778   7.733
  577POPC   C1B10651  37.694  41.504   8.684
  577POPC   C2B10652  37.674  41.133   8.426
  577POPC   C3B10653  37.755  41.040   8.022
  577POPC   C4B10654  37.691  41.212   7.653
  578POPC   NC310655   2.202  31.338   9.527
  578POPC   PO410656   1.540  31.543   9.619
  578POPC   GL110657   1.721  31.685   9.230
  578POPC   GL210658   2.077  31.792   9.262
  578POPC   C1A10659   1.866  31.421   8.947
  578POPC   D2A10660   1.923  31.418   8.540
  578POPC   C3A10661   1.754  31.650   8.248
  578POPC   C4A10662   1.827  31.419   7.900
  578POPC   C1B10663   2.005  31.902   8.811
  578POPC   C2B10664   2.208  31.891   8.410
  578POPC   C3B10665   2.217  31.736   7.955
  578POPC   C4B10666   2.131  31.888   7.527
  579POPC   NC310667  34.700  44.969   9.656
  579POPC   PO410668  34.344  44.514   9.748
  579POPC   GL110669  34.345  44.743   9.292
  579POPC   GL210670  34.678  44.766   9.158
  579POPC   C1A10671  34.316  44.633   8.799
  579POPC   D2A10672  34.160  44.343   8.419
  579POPC   C3A10673  34.322  44.496   8.008
  579POPC   C4A10674  34.521  44.866   7.850
  579POPC   C1B10675  34.898  44.751   8.734
  579POPC   C2B10676  34.860  44.738   8.266
  579POPC   C3B10677  34.852  44.459   7.907
  579POPC   C4B10678  34.820  44.497   7.460
  580POPC   NC310679  16.910  41.913   9.415
  580POPC   PO410680  16.947  41.300   9.330
  580POPC   GL110681  16.642  41.414   9.017
  580POPC   GL210682  16.609  41.747   9.026
  580POPC   C1A10683  16.640  41.419   8.578
  580POPC   D2A10684  16.533  41.138   8.254
  580POPC   C3A10685  16.737  41.199   7.859
  580POPC   C4A10686  16.515  41.228   7.492
  580POPC   C1B10687  16.833  41.881   8.681
  580POPC   C2B10688  16.680  41.858   8.269
  580POPC   C3B10689  16.686  41.745   7.828
  580POPC   C4B10690  16.560  42.049   7.503
  581POPC   NC310691  33.890   3.034   9.543
  581POPC   PO410692  34.129   2.467   9.589
  581POPC   GL110693  34.204   2.717   9.214
  581POPC   GL210694  33.851   2.773   9.111
  581POPC   C1A10695  34.189   2.699   8.735
  581POPC   D2A10696  33.829   2.754   8.435
  581POPC   C3A10697  33.876   2.701   8.000
  581POPC   C4A10698  33.884   2.814   7.601
  581POPC   C1B10699  33.621   2.499   8.855
  581POPC   C2B10700  33.389   2.474   8.509
  581POPC   C3B10701  33.423   2.546   8.126
  581POPC   C4B10702  33.585   2.333   7.775
  582POPC   NC310703  32.931   4.285   9.572
  582POPC   PO410704  33.398   4.751   9.505
  582POPC   GL110705  33.224   4.452   9.188
  582POPC   GL210706  32.862   4.564   9.153
  582POPC   C1A10707  33.114   4.339   8.763
  582POPC   D2A10708  33.257   4.365   8.356
  582POPC   C3A10709  33.088   4.017   8.119
  582POPC   C4A10710  32.757   4.053   7.832
  582POPC   C1B10711  32.611   4.433   8.797
  582POPC   C2B10712  32.686   4.299   8.359
  582POPC   C3B10713  32.556   4.506   7.978
  582POPC   C4B10714  32.602   4.454   7.493
  583POPC   NC310715  16.192  37.986   9.718
  583POPC   PO410716  15.586  37.701   9.562
  583POPC   GL110717  15.720  37.669   9.130
  583POPC   GL210718  15.414  37.594   9.008
  583POPC   C1A10719  16.044  37.508   8.807
  583POPC   D2A10720  16.139  37.306   8.387
  583POPC   C3A10721  16.105  37.549   7.991
  583POPC   C4A10722  16.183  37.948   7.755
  583POPC   C1B10723  15.566  37.617   8.627
  583POPC   C2B10724  15.658  37.511   8.246
  583POPC   C3B10725  15.602  37.657   7.866
  583POPC   C4B10726  15.781  37.748   7.489
  584POPC   NC310727  44.166   5.454   9.416
  584POPC   PO410728  44.126   6.172   9.525
  584POPC   GL110729  44.036   5.891   9.189
  584POPC   GL210730  43.725   5.652   9.158
  584POPC   C1A10731  44.155   5.792   8.781
  584POPC   D2A10732  44.184   6.089   8.458
  584POPC   C3A10733  44.054   5.963   8.070
  584POPC   C4A10734  43.933   6.070   7.647
  584POPC   C1B10735  43.684   5.995   8.838
  584POPC   C2B10736  43.668   6.150   8.410
  584POPC   C3B10737  43.535   6.074   7.965
  584POPC   C4B10738  43.441   6.088   7.495
  585POPC   NC310739  26.631  42.604   9.567
  585POPC   PO410740  27.119  42.082   9.474
  585POPC   GL110741  26.881  42.403   9.169
  585POPC   GL210742  26.520  42.352   9.127
  585POPC   C1A10743  26.737  42.576   8.735
  585POPC   D2A10744  26.517  42.415   8.349
  585POPC   C3A10745  26.719  42.498   7.913
  585POPC   C4A10746  27.117  42.745   7.769
  585POPC   C1B10747  26.642  42.047   8.801
  585POPC   C2B10748  26.671  41.854   8.385
  585POPC   C3B10749  26.620  41.931   7.935
  585POPC   C4B10750  26.907  41.979   7.592
  586POPC   NC310751  44.633  17.209   9.741
  586POPC   PO410752  44.168  16.908   9.370
  586POPC   GL110753  44.513  17.222   9.246
  586POPC   GL210754  44.902  17.189   9.298
  586POPC   C1A10755  44.532  17.512   8.904
  586POPC   D2A10756  44.546  17.344   8.495
  586POPC   C3A10757  44.470  17.554   8.119
  586POPC   C4A10758  44.548  17.245   7.788
  586POPC   C1B10759   0.004  17.350   8.896
  586POPC   C2B10760   0.089  17.483   8.484
  586POPC   C3B10761  44.980  17.396   8.055
  586POPC   C4B10762  44.798  17.692   7.758
  587POPC   NC310763  18.123  16.746   9.379
  587POPC   PO410764  18.633  17.003   9.739
  587POPC   GL110765  18.642  16.798   9.290
  587POPC   GL210766  18.493  17.021   9.070
  587POPC   C1A10767  18.478  16.551   8.856
  587POPC   D2A10768  18.178  16.294   8.596
  587POPC   C3A10769  18.216  16.381   8.139
  587POPC   C4A10770  18.374  16.705   7.842
  587POPC   C1B10771  18.211  16.975   8.681
  587POPC   C2B10772  18.121  17.012   8.215
  587POPC   C3B10773  18.097  17.177   7.761
  587POPC   C4B10774  18.275  17.034   7.395
  588POPC   NC310775  24.009   5.860   9.740
  588POPC   PO410776  23.552   5.500   9.364
  588POPC   GL110777  23.669   5.642   9.036
  588POPC   GL210778  23.851   5.894   9.119
  588POPC   C1A10779  23.564   5.562   8.659
  588POPC   D2A10780  23.466   5.587   8.282
  588POPC   C3A10781  23.747   5.587   8.013
  588POPC   C4A10782  23.633   5.631   7.624
  588POPC   C1B10783  23.765   6.031   8.699
  588POPC   C2B10784  23.871   6.081   8.266
  588POPC   C3B10785  23.700   6.072   7.871
  588POPC   C4B10786  23.409   6.165   7.576
  589POPC   NC310787   5.634  32.909   9.593
  589POPC   PO410788   6.313  33.059   9.640
  589POPC   GL110789   6.087  32.874   9.286
  589POPC   GL210790   5.885  33.150   9.218
  589POPC   C1A10791   5.849  32.691   8.915
  589POPC   D2A10792   5.700  32.799   8.501
  589POPC   C3A10793   5.946  32.964   8.189
  589POPC   C4A10794   5.840  33.177   7.814
  589POPC   C1B10795   6.027  33.159   8.792
  589POPC   C2B10796   5.958  33.411   8.442
  589POPC   C3B10797   6.199  33.414   8.069
  589POPC   C4B10798   6.197  33.526   7.654
  590POPC   NC310799  13.836  25.595   9.490
  590POPC   PO410800  13.554  26.158   9.693
  590POPC   GL110801  13.599  25.991   9.270
  590POPC   GL210802  13.960  26.067   9.271
  590POPC   C1A10803  13.508  25.979   8.813
  590POPC   D2A10804  13.530  26.307   8.481
  590POPC   C3A10805  13.480  26.160   8.041
  590POPC   C4A10806  13.312  25.844   7.763
  590POPC   C1B10807  13.962  26.216   8.846
  590POPC   C2B10808  13.965  25.933   8.488
  590POPC   C3B10809  14.162  25.859   8.087
  590POPC   C4B10810  13.888  26.004   7.718
  591POPC   NC310811   5.610  37.196   9.406
  591POPC   PO410812   6.119  36.772   9.400
  591POPC   GL110813   5.910  36.554   9.064
  591POPC   GL210814   5.554  36.542   9.125
  591POPC   C1A10815   5.924  36.504   8.641
  591POPC   D2A10816   5.745  36.601   8.247
  591POPC   C3A10817   5.977  36.674   7.871
  591POPC   C4A10818   5.999  37.142   7.789
  591POPC   C1B10819   5.606  36.889   8.812
  591POPC   C2B10820   5.595  37.272   8.549
  591POPC   C3B10821   5.565  37.297   8.100
  591POPC   C4B10822   5.507  36.900   7.879
  592POPC   NC310823   7.963   0.656   9.435
  592POPC   PO410824   8.536   0.321   9.551
  592POPC   GL110825   8.293   0.379   9.157
  592POPC   GL210826   7.914   0.299   9.073
  592POPC   C1A10827   8.277   0.670   8.811
  592POPC   D2A10828   8.630   0.760   8.518
  592POPC   C3A10829   8.489   0.708   8.104
  592POPC   C4A10830   8.605   0.514   7.727
  592POPC   C1B10831   8.133   0.125   8.735
  592POPC   C2B10832   8.309   0.337   8.414
  592POPC   C3B10833   8.264   0.186   8.039
  592POPC   C4B10834   8.247   0.187   7.618
  593POPC   NC310835  14.182  10.826   9.643
  593POPC   PO410836  14.369  10.185   9.609
  593POPC   GL110837  14.431  10.304   9.201
  593POPC   GL210838  14.479  10.659   9.213
  593POPC   C1A10839  14.362  10.402   8.759
  593POPC   D2A10840  14.399  10.493   8.319
  593POPC   C3A10841  14.088  10.228   8.071
  593POPC   C4A10842  14.148  10.101   7.652
  593POPC   C1B10843  14.656  10.858   8.839
  593POPC   C2B10844  14.604  11.051   8.427
  593POPC   C3B10845  14.467  10.944   8.031
  593POPC   C4B10846  14.307  10.598   7.814
  594POPC   NC310847   1.786   4.730   9.378
  594POPC   PO410848   2.210   4.273   9.729
  594POPC   GL110849   2.046   4.299   9.285
  594POPC   GL210850   2.167   4.588   9.066
  594POPC   C1A10851   2.100   4.116   8.874
  594POPC   D2A10852   2.229   4.363   8.533
  594POPC   C3A10853   2.086   4.156   8.170
  594POPC   C4A10854   1.856   4.225   7.786
  594POPC   C1B10855   1.799   4.525   8.770
  594POPC   C2B10856   1.821   4.597   8.333
  594POPC   C3B10857   2.052   4.636   7.977
  594POPC   C4B10858   1.681   4.721   7.713
  595POPC   NC310859  26.870  12.753   9.600
  595POPC   PO410860  26.464  13.264   9.302
  595POPC   GL110861  26.873  12.993   9.147
  595POPC   GL210862  26.926  12.558   9.154
  595POPC   C1A10863  27.008  12.852   8.750
  595POPC   D2A10864  27.064  12.892   8.331
  595POPC   C3A10865  26.690  12.992   8.174
  595POPC   C4A10866  26.635  13.006   7.769
  595POPC   C1B10867  27.097  12.358   8.789
  595POPC   C2B10868  27.314  12.453   8.381
  595POPC   C3B10869  27.119  12.422   7.968
  595POPC   C4B10870  27.122  12.496   7.508
  596POPC   NC310871  42.657  12.587   9.472
  596POPC   PO410872  43.194  13.073   9.547
  596POPC   GL110873  42.923  12.982   9.197
  596POPC   GL210874  43.048  12.660   9.131
  596POPC   C1A10875  42.906  12.905   8.735
  596POPC   D2A10876  42.965  13.111   8.354
  596POPC   C3A10877  43.099  12.957   7.981
  596POPC   C4A10878  42.841  12.930   7.654
  596POPC   C1B10879  43.333  12.617   8.794
  596POPC   C2B10880  43.217  12.638   8.373
  596POPC   C3B10881  43.437  12.571   7.982
  596POPC   C4B10882  43.188  12.526   7.628
  597POPC   NC310883   6.981  16.326   9.379
  597POPC   PO410884   6.365  16.617   9.498
  597POPC   GL110885   6.620  16.646   9.156
  597POPC   GL210886   6.826  16.959   9.095
  597POPC   C1A10887   6.549  16.706   8.750
  597POPC   D2A10888   6.732  16.643   8.383
  597POPC   C3A10889   6.453  16.810   8.108
  597POPC   C4A10890   6.409  16.671   7.714
  597POPC   C1B10891   6.952  17.071   8.650
  597POPC   C2B10892   6.875  17.139   8.199
  597POPC   C3B10893   6.858  16.937   7.786
  597POPC   C4B10894   7.078  16.932   7.363
  598POPC   NC310895   5.119  16.433   9.603
  598POPC   PO410896   5.420  17.003   9.615
  598POPC   GL110897   5.251  16.932   9.187
  598POPC   GL210898   4.887  16.767   9.172
  598POPC   C1A10899   5.226  16.704   8.790
  598POPC   D2A10900   5.149  16.440   8.435
  598POPC   C3A10901   5.368  16.628   8.105
  598POPC   C4A10902   5.258  16.943   7.815
  598POPC   C1B10903   4.707  16.837   8.729
  598POPC   C2B10904   4.552  16.720   8.304
  598POPC   C3B10905   4.871  16.597   8.011
  598POPC   C4B10906   4.918  16.443   7.611
  599POPC   NC310907   8.642  25.336   9.515
  599POPC   PO410908   9.171  25.681   9.556
  599POPC   GL110909   9.068  25.405   9.226
  599POPC   GL210910   9.010  25.035   9.304
  599POPC   C1A10911   9.274  25.371   8.837
  599POPC   D2A10912   9.340  25.295   8.406
  599POPC   C3A10913   9.041  25.528   8.149
  599POPC   C4A10914   9.092  25.390   7.728
  599POPC   C1B10915   8.801  25.084   8.906
  599POPC   C2B10916   8.866  25.030   8.467
  599POPC   C3B10917   9.005  25.000   8.055
  599POPC   C4B10918   8.841  24.915   7.643
  600POPC   NC310919  12.775  30.561   9.601
  600POPC   PO410920  13.156  31.118   9.484
  600POPC   GL110921  12.904  30.846   9.191
  600POPC   GL210922  12.986  30.458   9.152
  600POPC   C1A10923  12.687  30.779   8.801
  600POPC   D2A10924  12.578  30.578   8.404
  600POPC   C3A10925  12.695  30.853   8.076
  600POPC   C4A10926  12.633  30.921   7.625
  600POPC   C1B10927  13.155  30.522   8.788
  600POPC   C2B10928  13.093  30.700   8.423
  600POPC   C3B10929  13.008  30.467   8.074
  600POPC   C4B10930  13.020  30.574   7.647
  601POPC   NC310931  35.160  40.939   9.577
  601POPC   PO410932  35.664  40.560   9.275
  601POPC   GL110933  35.306  40.703   9.109
  601POPC   GL210934  35.008  40.582   9.246
  601POPC   C1A10935  35.241  40.689   8.660
  601POPC   D2A10936  35.584  40.591   8.367
  601POPC   C3A10937  35.497  40.620   7.940
  601POPC   C4A10938  35.429  41.047   7.797
  601POPC   C1B10939  34.873  40.922   8.948
  601POPC   C2B10940  34.831  41.018   8.516
  601POPC   C3B10941  35.061  40.864   8.159
  601POPC   C4B10942  34.971  40.485   7.954
  602POPC   NC310943  24.819   1.319   9.632
  602POPC   PO410944  25.387   1.522   9.431
  602POPC   GL110945  25.047   1.342   9.149
  602POPC   GL210946  24.898   0.980   9.217
  602POPC   C1A10947  25.129   1.129   8.752
  602POPC   D2A10948  25.373   0.912   8.445
  602POPC   C3A10949  25.257   1.037   8.068
  602POPC   C4A10950  25.289   1.279   7.739
  602POPC   C1B10951  24.716   0.831   8.814
  602POPC   C2B10952  24.802   0.982   8.367
  602POPC   C3B10953  24.837   0.771   7.957
  602POPC   C4B10954  24.809   0.811   7.477
  603POPC   NC310955   4.767  18.049   9.386
  603POPC   PO410956   5.265  18.518   9.512
  603POPC   GL110957   5.225  18.273   9.134
  603POPC   GL210958   5.570  18.246   9.027
  603POPC   C1A10959   5.103  18.485   8.733
  603POPC   D2A10960   5.246  18.673   8.334
  603POPC   C3A10961   4.969  18.733   7.976
  603POPC   C4A10962   4.803  18.396   7.707
  603POPC   C1B10963   5.380  18.060   8.669
  603POPC   C2B10964   5.128  18.124   8.349
  603POPC   C3B10965   5.228  18.288   7.973
  603POPC   C4B10966   5.250  18.121   7.531
  604POPC   NC310967  28.995  36.850   9.571
  604POPC   PO410968  29.561  36.531   9.320
  604POPC   GL110969  29.232  36.830   9.084
  604POPC   GL210970  28.861  36.952   9.092
  604POPC   C1A10971  29.076  36.823   8.649
  604POPC   D2A10972  29.241  36.594   8.300
  604POPC   C3A10973  29.404  36.913   7.986
  604POPC   C4A10974  29.439  37.055   7.519
  604POPC   C1B10975  28.615  36.663   8.838
  604POPC   C2B10976  28.688  36.539   8.420
  604POPC   C3B10977  28.832  36.747   8.056
  604POPC   C4B10978  29.055  36.744   7.669
  605POPC   NC310979  38.695   0.051   9.318
  605POPC   PO410980  38.391   0.688   9.410
  605POPC   GL110981  38.509   0.542   9.026
  605POPC   GL210982  38.257   0.760   8.910
  605POPC   C1A10983  38.432   0.223   8.680
  605POPC   D2A10984  38.426  44.953   8.272
  605POPC   C3A10985  38.626   0.125   7.927
  605POPC   C4A10986  38.574   0.589   7.934
  605POPC   C1B10987  38.340   0.725   8.522
  605POPC   C2B10988  38.244   0.943   8.181
  605POPC   C3B10989  38.083   0.730   7.870
  605POPC   C4B10990  38.135   0.281   7.837
  606POPC   NC310991   5.563   3.840   9.575
  606POPC   PO410992   5.185   3.256   9.717
  606POPC   GL110993   5.220   3.219   9.239
  606POPC   GL210994   4.929   3.122   9.047
  606POPC   C1A10995   5.173   3.540   8.867
  606POPC   D2A10996   4.987   3.781   8.496
  606POPC   C3A10997   5.132   3.651   8.071
  606POPC   C4A10998   5.313   3.350   7.754
  606POPC   C1B10999   4.653   3.221   8.722
  606POPC   C2B11000   4.646   3.371   8.321
  606POPC   C3B11001   4.768   3.141   7.965
  606POPC   C4B11002   4.814   3.448   7.715
  607POPC   NC311003   3.670  27.211   9.373
  607POPC   PO411004   3.746  26.512   9.495
  607POPC   GL111005   3.782  26.757   9.167
  607POPC   GL211006   4.115  26.902   9.184
  607POPC   C1A11007   3.587  26.874   8.774
  607POPC   D2A11008   3.363  26.735   8.415
  607POPC   C3A11009   3.492  26.890   8.029
  607POPC   C4A11010   3.341  26.706   7.650
  607POPC   C1B11011   4.088  26.644   8.793
  607POPC   C2B11012   3.945  26.801   8.386
  607POPC   C3B11013   3.986  27.018   7.990
  607POPC   C4B11014   3.861  26.746   7.679
  608POPC   NC311015  28.810  20.859   9.779
  608POPC   PO411016  29.360  20.601   9.503
  608POPC   GL111017  29.362  20.592   9.059
  608POPC   GL211018  29.012  20.580   8.959
  608POPC   C1A11019  29.383  20.374   8.661
  608POPC   D2A11020  29.059  20.327   8.357
  608POPC   C3A11021  29.065  20.656   8.091
  608POPC   C4A11022  29.341  20.782   7.749
  608POPC   C1B11023  28.901  20.756   8.587
  608POPC   C2B11024  28.643  20.995   8.343
  608POPC   C3B11025  28.618  20.926   7.946
  608POPC   C4B11026  28.822  20.766   7.656
  609POPC   NC311027  41.145  42.001   9.440
  609POPC   PO411028  41.751  42.219   9.656
  609POPC   GL111029  41.692  42.360   9.180
  609POPC   GL211030  41.388  42.230   9.046
  609POPC   C1A11031  41.669  42.473   8.726
  609POPC   D2A11032  41.826  42.326   8.359
  609POPC   C3A11033  41.636  42.478   7.957
  609POPC   C4A11034  41.602  42.423   7.456
  609POPC   C1B11035  41.258  42.054   8.697
  609POPC   C2B11036  41.272  42.216   8.288
  609POPC   C3B11037  41.361  41.988   7.917
  609POPC   C4B11038  41.624  41.920   7.594
  610POPC   NC311039  10.684  30.148   9.300
  610POPC   PO411040  10.179  29.688   9.514
  610POPC   GL111041  10.376  29.660   9.128
  610POPC   GL211042  10.737  29.657   9.131
  610POPC   C1A11043  10.323  29.826   8.710
  610POPC   D2A11044  10.603  29.948   8.397
  610POPC   C3A11045  10.538  30.094   7.995
  610POPC   C4A11046  10.943  30.145   7.740
  610POPC   C1B11047  10.962  29.730   8.766
  610POPC   C2B11048  10.950  29.551   8.381
  610POPC   C3B11049  10.892  29.693   7.994
  610POPC   C4B11050  10.509  29.613   7.833
  611POPC   NC311051  25.661  41.109   9.602
  611POPC   PO411052  25.234  40.575   9.527
  611POPC   GL111053  25.432  40.824   9.225
  611POPC   GL211054  25.265  41.140   9.160
  611POPC   C1A11055  25.516  40.892   8.800
  611POPC   D2A11056  25.239  40.966   8.490
  611POPC   C3A11057  25.449  41.001   8.122
  611POPC   C4A11058  25.536  41.123   7.735
  611POPC   C1B11059  24.923  41.142   8.874
  611POPC   C2B11060  24.725  41.054   8.481
  611POPC   C3B11061  24.908  40.905   8.097
  611POPC   C4B11062  25.031  41.133   7.741
  612POPC   NC311063  10.664  36.873   9.610
  612POPC   PO411064  10.166  37.274   9.480
  612POPC   GL111065  10.439  37.040   9.184
  612POPC   GL211066  10.816  37.062   9.188
  612POPC   C1A11067  10.308  36.890   8.788
  612POPC   D2A11068  10.338  36.627   8.473
  612POPC   C3A11069  10.457  36.792   8.109
  612POPC   C4A11070  10.384  36.599   7.744
  612POPC   C1B11071  10.806  36.778   8.852
  612POPC   C2B11072  10.847  36.592   8.466
  612POPC   C3B11073  10.963  36.736   8.092
  612POPC   C4B11074  10.778  36.954   7.721
  613POPC   NC311075  42.600  40.890   9.805
  613POPC   PO411076  42.335  41.184   9.285
  613POPC   GL111077  42.128  40.885   9.110
  613POPC   GL211078  42.165  40.530   9.249
  613POPC   C1A11079  42.241  40.973   8.673
  613POPC   D2A11080  42.301  41.068   8.271
  613POPC   C3A11081  42.653  40.895   8.097
  613POPC   C4A11082  42.493  40.800   7.712
  613POPC   C1B11083  42.107  40.491   8.796
  613POPC   C2B11084  42.372  40.532   8.428
  613POPC   C3B11085  42.187  40.591   8.066
  613POPC   C4B11086  42.159  40.389   7.696
  614POPC   NC311087  42.447  44.344   9.732
  614POPC   PO411088  42.522  44.971   9.527
  614POPC   GL111089  42.330  44.877   9.149
  614POPC   GL211090  42.428  44.572   9.206
  614POPC   C1A11091  42.129  44.680   8.781
  614POPC   D2A11092  42.028  44.526   8.380
  614POPC   C3A11093  42.145  44.848   8.081
  614POPC   C4A11094  42.393  44.786   7.680
  614POPC   C1B11095  42.642  44.580   8.819
  614POPC   C2B11096  42.536  44.461   8.413
  614POPC   C3B11097  42.672  44.532   8.013
  614POPC   C4B11098  42.746  44.453   7.565
  615POPC   NC311099  30.048  19.350   9.556
  615POPC   PO411100  29.920  18.729   9.458
  615POPC   GL111101  29.854  19.040   9.189
  615POPC   GL211102  29.599  19.267   9.299
  615POPC   C1A11103  30.108  19.183   8.877
  615POPC   D2A11104  30.149  19.362   8.485
  615POPC   C3A11105  30.111  19.060   8.179
  615POPC   C4A11106  29.900  19.088   7.827
  615POPC   C1B11107  29.633  19.350   8.845
  615POPC   C2B11108  29.676  19.111   8.463
  615POPC   C3B11109  29.497  19.216   8.087
  615POPC   C4B11110  29.431  19.335   7.669
  616POPC   NC311111  10.260  21.535   9.593
  616POPC   PO411112  10.799  21.216   9.769
  616POPC   GL111113  10.707  21.511   9.324
  616POPC   GL211114  10.370  21.407   9.106
  616POPC   C1A11115  10.825  21.503   8.861
  616POPC   D2A11116  10.870  21.744   8.457
  616POPC   C3A11117  10.859  21.589   8.045
  616POPC   C4A11118  10.841  21.208   7.795
  616POPC   C1B11119  10.355  21.074   8.747
  616POPC   C2B11120  10.497  21.011   8.311
  616POPC   C3B11121  10.419  21.359   8.054
  616POPC   C4B11122  10.301  21.604   7.721
  617POPC   NC311123  34.590  17.485   9.504
  617POPC   PO411124  34.881  18.026   9.299
  617POPC   GL111125  34.634  17.708   9.058
  617POPC   GL211126  34.678  17.312   9.043
  617POPC   C1A11127  34.515  17.742   8.666
  617POPC   D2A11128  34.706  17.740   8.293
  617POPC   C3A11129  34.637  17.835   7.889
  617POPC   C4A11130  34.693  17.438   7.804
  617POPC   C1B11131  34.522  17.175   8.650
  617POPC   C2B11132  34.390  17.339   8.233
  617POPC   C3B11133  34.262  17.174   7.803
  617POPC   C4B11134  34.106  17.246   7.362
  618POPC   NC311135  22.426  27.972   9.551
  618POPC   PO411136  22.026  27.477   9.701
  618POPC   GL111137  22.044  27.599   9.305
  618POPC   GL211138  22.369  27.552   9.269
  618POPC   C1A11139  22.018  27.583   8.860
  618POPC   D2A11140  22.242  27.547   8.467
  618POPC   C3A11141  22.213  27.787   8.100
  618POPC   C4A11142  22.049  27.635   7.723
  618POPC   C1B11143  22.553  27.464   8.884
  618POPC   C2B11144  22.738  27.466   8.477
  618POPC   C3B11145  22.648  27.341   8.044
  618POPC   C4B11146  22.478  27.376   7.616
  619POPC   NC311147   3.293   6.279   9.621
  619POPC   PO411148   3.555   5.700   9.542
  619POPC   GL111149   3.544   5.982   9.206
  619POPC   GL211150   3.175   6.008   9.197
  619POPC   C1A11151   3.495   5.897   8.760
  619POPC   D2A11152   3.603   5.700   8.360
  619POPC   C3A11153   3.865   5.975   8.147
  619POPC   C4A11154   3.761   6.070   7.756
  619POPC   C1B11155   3.111   6.247   8.817
  619POPC   C2B11156   3.368   6.326   8.467
  619POPC   C3B11157   3.365   6.099   8.106
  619POPC   C4B11158   3.334   6.314   7.737
  620POPC   NC311159   9.115   1.715   9.690
  620POPC   PO411160   9.158   1.067   9.562
  620POPC   GL111161   9.273   1.376   9.261
  620POPC   GL211162   8.936   1.503   9.251
  620POPC   C1A11163   9.281   1.261   8.830
  620POPC   D2A11164   9.370   1.138   8.416
  620POPC   C3A11165   9.004   0.999   8.193
  620POPC   C4A11166   8.812   0.979   7.814
  620POPC   C1B11167   8.911   1.623   8.844
  620POPC   C2B11168   8.867   1.386   8.501
  620POPC   C3B11169   8.818   1.474   8.090
  620POPC   C4B11170   9.018   1.448   7.736
  621POPC   NC311171  38.176  28.549   9.483
  621POPC   PO411172  37.512  28.213   9.375
  621POPC   GL111173  37.677  28.523   9.134
  621POPC   GL211174  37.967  28.342   9.067
  621POPC   C1A11175  37.469  28.716   8.783
  621POPC   D2A11176  37.543  28.776   8.337
  621POPC   C3A11177  37.574  28.366   8.137
  621POPC   C4A11178  37.442  28.377   7.732
  621POPC   C1B11179  37.855  28.389   8.620
  621POPC   C2B11180  38.043  28.582   8.228
  621POPC   C3B11181  37.942  28.464   7.796
  621POPC   C4B11182  37.808  28.133   7.485
  622POPC   NC311183   4.768   3.161   9.535
  622POPC   PO411184   5.219   2.618   9.425
  622POPC   GL111185   5.028   2.641   9.144
  622POPC   GL211186   4.706   2.710   9.281
  622POPC   C1A11187   5.151   2.765   8.745
  622POPC   D2A11188   4.979   2.935   8.397
  622POPC   C3A11189   5.188   2.801   8.030
  622POPC   C4A11190   5.284   2.857   7.607
  622POPC   C1B11191   4.650   2.688   8.826
  622POPC   C2B11192   4.699   2.457   8.458
  622POPC   C3B11193   4.697   2.597   8.046
  622POPC   C4B11194   4.807   2.682   7.649
  623POPC   NC311195  33.459  32.160   9.467
  623POPC   PO411196  33.835  32.543   9.803
  623POPC   GL111197  33.838  32.351   9.218
  623POPC   GL211198  33.543  32.334   8.974
  623POPC   C1A11199  34.002  32.260   8.776
  623POPC   D2A11200  33.827  32.145   8.354
  623POPC   C3A11201  34.036  32.238   7.948
  623POPC   C4A11202  33.884  32.232   7.526
  623POPC   C1B11203  33.613  32.590   8.604
  623POPC   C2B11204  33.482  32.484   8.193
  623POPC   C3B11205  33.485  32.422   7.772
  623POPC   C4B11206  33.488  32.459   7.298
  624POPC   NC311207  32.743  36.092   9.594
  624POPC   PO411208  33.338  36.199   9.285
  624POPC   GL111209  32.989  36.055   9.058
  624POPC   GL211210  32.729  36.340   9.154
  624POPC   C1A11211  33.154  36.046   8.605
  624POPC   D2A11212  33.168  36.332   8.251
  624POPC   C3A11213  33.139  36.192   7.791
  624POPC   C4A11214  33.200  36.062   7.314
  624POPC   C1B11215  32.925  36.470   8.785
  624POPC   C2B11216  32.711  36.297   8.439
  624POPC   C3B11217  32.718  36.422   8.018
  624POPC   C4B11218  32.736  36.489   7.580
  625POPC   NC311219   5.461  19.048   9.456
  625POPC   PO411220   4.786  19.180   9.470
  625POPC   GL111221   5.099  19.055   9.117
  625POPC   GL211222   5.365  18.764   9.071
  625POPC   C1A11223   5.164  19.025   8.692
  625POPC   D2A11224   4.845  19.020   8.388
  625POPC   C3A11225   5.001  19.265   8.052
  625POPC   C4A11226   5.243  19.086   7.691
  625POPC   C1B11227   5.611  18.659   8.729
  625POPC   C2B11228   5.758  18.693   8.322
  625POPC   C3B11229   5.553  18.687   7.920
  625POPC   C4B11230   5.274  18.609   7.582
  626POPC   NC311231  21.825   1.367   9.456
  626POPC   PO411232  22.398   1.212   9.473
  626POPC   GL111233  22.208   1.187   9.129
  626POPC   GL211234  21.927   0.938   9.191
  626POPC   C1A11235  22.380   1.373   8.768
  626POPC   D2A11236  22.197   1.332   8.380
  626POPC   C3A11237  22.391   1.340   7.982
  626POPC   C4A11238  22.008   1.400   7.701
  626POPC   C1B11239  21.977   0.943   8.750
  626POPC   C2B11240  21.866   0.740   8.376
  626POPC   C3B11241  22.013   0.981   8.018
  626POPC   C4B11242  22.283   0.963   7.647
  627POPC   NC311243   7.052  25.969   9.419
  627POPC   PO411244   7.668  25.987   9.550
  627POPC   GL111245   7.576  25.946   9.181
  627POPC   GL211246   7.705  25.636   9.131
  627POPC   C1A11247   7.636  26.155   8.808
  627POPC   D2A11248   7.342  26.203   8.490
  627POPC   C3A11249   7.523  26.318   8.107
  627POPC   C4A11250   7.432  26.200   7.709
  627POPC   C1B11251   7.371  25.703   8.787
  627POPC   C2B11252   7.022  25.809   8.464
  627POPC   C3B11253   7.183  25.919   8.062
  627POPC   C4B11254   7.495  25.637   7.879
  628POPC   NC311255  34.942  44.344   9.361
  628POPC   PO411256  35.645  44.585   9.341
  628POPC   GL111257  35.356  44.496   9.104
  628POPC   GL211258  35.188  44.804   9.177
  628POPC   C1A11259  35.417  44.343   8.727
  628POPC   D2A11260  35.364  44.613   8.395
  628POPC   C3A11261  35.573  44.524   8.019
  628POPC   C4A11262  35.322  44.499   7.642
  628POPC   C1B11263  35.373  44.964   8.801
  628POPC   C2B11264  35.216   0.116   8.411
  628POPC   C3B11265  35.280  44.961   8.015
  628POPC   C4B11266  35.007  44.915   7.702
  629POPC   NC311267  36.657  30.185  10.025
  629POPC   PO411268  37.099  29.773   9.577
  629POPC   GL111269  37.021  29.824   9.131
  629POPC   GL211270  37.363  29.694   9.145
  629POPC   C1A11271  36.807  29.780   8.677
  629POPC   D2A11272  36.781  29.953   8.196
  629POPC   C3A11273  36.909  29.927   7.732
  629POPC   C4A11274  36.847  29.559   7.480
  629POPC   C1B11275  37.257  29.578   8.761
  629POPC   C2B11276  37.229  29.762   8.384
  629POPC   C3B11277  37.185  29.613   7.987
  629POPC   C4B11278  37.377  29.595   7.598
  630POPC   NC311279  11.709   2.247   9.535
  630POPC   PO411280  12.314   1.941   9.642
  630POPC   GL111281  12.332   1.855   9.197
  630POPC   GL211282  11.955   1.874   9.188
  630POPC   C1A11283  12.285   1.892   8.759
  630POPC   D2A11284  12.299   1.669   8.402
  630POPC   C3A11285  12.148   1.891   8.097
  630POPC   C4A11286  12.014   1.953   7.720
  630POPC   C1B11287  11.877   2.189   8.842
  630POPC   C2B11288  11.921   2.313   8.431
  630POPC   C3B11289  11.728   2.253   8.072
  630POPC   C4B11290  11.765   2.378   7.678
  631POPC   NC311291  30.201  21.599   9.435
  631POPC   PO411292  29.481  21.279   9.422
  631POPC   GL111293  29.788  21.540   9.146
  631POPC   GL211294  30.171  21.593   8.949
  631POPC   C1A11295  29.706  21.566   8.738
  631POPC   D2A11296  29.562  21.418   8.377
  631POPC   C3A11297  29.713  21.565   7.985
  631POPC   C4A11298  29.945  21.458   7.616
  631POPC   C1B11299  30.075  21.204   8.818
  631POPC   C2B11300  30.004  21.141   8.411
  631POPC   C3B11301  30.168  21.306   8.034
  631POPC   C4B11302  30.402  21.188   7.644
  632POPC   NC311303  10.276  39.312   9.697
  632POPC   PO411304  10.759  39.549   9.284
  632POPC   GL111305  10.472  39.052   9.230
  632POPC   GL211306  10.622  38.717   9.103
  632POPC   C1A11307  10.222  38.930   8.811
  632POPC   D2A11308  10.162  39.224   8.434
  632POPC   C3A11309  10.364  39.246   8.034
  632POPC   C4A11310  10.294  39.458   7.707
  632POPC   C1B11311  10.699  39.077   8.799
  632POPC   C2B11312  10.708  39.215   8.408
  632POPC   C3B11313  10.830  39.045   8.003
  632POPC   C4B11314  10.835  39.297   7.662
  633POPC   NC311315  20.707   4.590   9.703
  633POPC   PO411316  20.247   4.072   9.534
  633POPC   GL111317  20.540   4.186   9.206
  633POPC   GL211318  20.877   4.293   9.279
  633POPC   C1A11319  20.546   4.265   8.769
  633POPC   D2A11320  20.521   4.097   8.341
  633POPC   C3A11321  20.519   4.364   7.953
  633POPC   C4A11322  20.189   4.545   7.740
  633POPC   C1B11323  20.975   4.513   8.862
  633POPC   C2B11324  20.772   4.549   8.404
  633POPC   C3B11325  20.917   4.651   7.990
  633POPC   C4B11326  21.032   4.482   7.598
  634POPC   NC311327  37.246  22.738   9.453
  634POPC   PO411328  36.738  23.222   9.497
  634POPC   GL111329  36.836  22.924   9.162
  634POPC   GL211330  36.513  22.875   8.990
  634POPC   C1A11331  36.961  22.775   8.746
  634POPC   D2A11332  36.843  22.893   8.347
  634POPC   C3A11333  37.233  22.916   8.091
  634POPC   C4A11334  37.182  23.177   7.777
  634POPC   C1B11335  36.679  23.223   8.733
  634POPC   C2B11336  36.592  23.338   8.295
  634POPC   C3B11337  36.662  23.166   7.871
  634POPC   C4B11338  36.810  23.320   7.436
  635POPC   NC311339  10.809   8.145   9.341
  635POPC   PO411340  11.411   8.095   9.616
  635POPC   GL111341  11.322   8.357   9.271
  635POPC   GL211342  11.316   8.027   9.099
  635POPC   C1A11343  11.280   8.448   8.811
  635POPC   D2A11344  11.399   8.137   8.475
  635POPC   C3A11345  11.246   8.203   8.054
  635POPC   C4A11346  11.477   8.079   7.704
  635POPC   C1B11347  11.050   7.773   8.832
  635POPC   C2B11348  11.025   7.660   8.408
  635POPC   C3B11349  10.766   7.767   8.070
  635POPC   C4B11350  11.037   7.822   7.738
  636POPC   NC311351  22.960  35.694   9.452
  636POPC   PO411352  23.056  34.973   9.481
  636POPC   GL111353  22.894  35.264   9.181
  636POPC   GL211354  23.198  35.394   9.088
  636POPC   C1A11355  22.759  35.224   8.753
  636POPC   D2A11356  22.837  34.946   8.430
  636POPC   C3A11357  22.856  35.249   8.158
  636POPC   C4A11358  22.645  35.364   7.809
  636POPC   C1B11359  23.016  35.663   8.773
  636POPC   C2B11360  23.056  35.715   8.344
  636POPC   C3B11361  23.311  35.607   8.017
  636POPC   C4B11362  23.155  35.292   7.761
  637POPC   NC311363  13.056  12.060   9.403
  637POPC   PO411364  12.432  12.365   9.549
  637POPC   GL111365  12.591  12.154   9.164
  637POPC   GL211366  12.647  11.781   9.220
  637POPC   C1A11367  12.887  12.290   8.813
  637POPC   D2A11368  13.082  12.350   8.423
  637POPC   C3A11369  12.873  12.277   8.058
  637POPC   C4A11370  12.959  12.100   7.643
  637POPC   C1B11371  12.916  11.770   8.830
  637POPC   C2B11372  13.012  11.805   8.391
  637POPC   C3B11373  13.161  11.524   8.032
  637POPC   C4B11374  13.278  11.694   7.632
  638POPC   NC311375  23.615  39.053   9.593
  638POPC   PO411376  23.973  39.496   9.369
  638POPC   GL111377  23.753  39.312   9.087
  638POPC   GL211378  23.410  39.349   9.150
  638POPC   C1A11379  23.871  39.113   8.718
  638POPC   D2A11380  23.899  39.388   8.365
  638POPC   C3A11381  24.055  39.232   7.964
  638POPC   C4A11382  23.910  39.035   7.535
  638POPC   C1B11383  23.391  39.237   8.687
  638POPC   C2B11384  23.554  39.023   8.297
  638POPC   C3B11385  23.568  39.213   7.882
  638POPC   C4B11386  23.441  39.577   7.732
  639POPC   NC311387  23.389  43.529   9.460
  639POPC   PO411388  23.089  43.087   9.867
  639POPC   GL111389  23.074  42.973   9.326
  639POPC   GL211390  23.309  43.130   9.144
  639POPC   C1A11391  22.776  42.985   8.837
  639POPC   D2A11392  22.848  42.762   8.440
  639POPC   C3A11393  22.622  42.911   8.092
  639POPC   C4A11394  22.705  43.062   7.695
  639POPC   C1B11395  23.258  42.903   8.783
  639POPC   C2B11396  23.296  43.022   8.386
  639POPC   C3B11397  23.122  43.037   8.005
  639POPC   C4B11398  23.174  42.868   7.610
  640POPC   NC311399  10.257  33.340   9.468
  640POPC   PO411400  10.089  32.747   9.209
  640POPC   GL111401  10.449  33.038   9.092
  640POPC   GL211402  10.813  32.979   9.129
  640POPC   C1A11403  10.578  33.170   8.692
  640POPC   D2A11404  10.361  33.051   8.301
  640POPC   C3A11405  10.519  32.746   8.048
  640POPC   C4A11406  10.350  32.994   7.727
  640POPC   C1B11407  10.844  32.720   8.751
  640POPC   C2B11408  10.916  32.887   8.377
  640POPC   C3B11409  10.815  33.146   8.049
  640POPC   C4B11410  10.848  33.017   7.650
  641POPC   NC311411   2.998  17.662   9.690
  641POPC   PO411412   2.647  17.040   9.549
  641POPC   GL111413   2.513  17.299   9.174
  641POPC   GL211414   2.421  17.662   9.261
  641POPC   C1A11415   2.704  17.463   8.767
  641POPC   D2A11416   2.904  17.678   8.423
  641POPC   C3A11417   2.790  17.536   7.972
  641POPC   C4A11418   2.496  17.285   7.704
  641POPC   C1B11419   2.272  17.739   8.836
  641POPC   C2B11420   2.391  17.754   8.411
  641POPC   C3B11421   2.301  17.668   7.981
  641POPC   C4B11422   2.526  17.825   7.624
  642POPC   NC311423  23.362   5.942   9.318
  642POPC   PO411424  22.725   5.607   9.531
  642POPC   GL111425  22.876   5.776   9.137
  642POPC   GL211426  23.165   5.596   9.000
  642POPC   C1A11427  22.739   5.663   8.723
  642POPC   D2A11428  22.762   5.894   8.331
  642POPC   C3A11429  22.635   5.608   8.057
  642POPC   C4A11430  22.831   5.577   7.734
  642POPC   C1B11431  23.188   5.918   8.664
  642POPC   C2B11432  23.334   6.074   8.274
  642POPC   C3B11433  23.224   5.843   7.915
  642POPC   C4B11434  22.930   6.057   7.670
  643POPC   NC311435  37.679   2.548   9.454
  643POPC   PO411436  37.725   3.312   9.250
  643POPC   GL111437  37.849   2.990   9.002
  643POPC   GL211438  37.553   2.848   9.081
  643POPC   C1A11439  37.651   2.895   8.588
  643POPC   D2A11440  37.404   3.053   8.231
  643POPC   C3A11441  37.646   3.035   7.831
  643POPC   C4A11442  37.932   2.749   7.618
  643POPC   C1B11443  37.345   2.536   8.842
  643POPC   C2B11444  37.272   2.592   8.418
  643POPC   C3B11445  37.555   2.580   8.073
  643POPC   C4B11446  37.422   2.598   7.658
  644POPC   NC311447  38.921  14.221   9.658
  644POPC   PO411448  39.441  14.601   9.455
  644POPC   GL111449  39.487  14.458   9.039
  644POPC   GL211450  39.162  14.306   9.089
  644POPC   C1A11451  39.356  14.456   8.623
  644POPC   D2A11452  39.018  14.404   8.401
  644POPC   C3A11453  39.061  14.219   8.036
  644POPC   C4A11454  39.386  14.226   7.787
  644POPC   C1B11455  38.927  14.052   8.779
  644POPC   C2B11456  38.841  13.926   8.389
  644POPC   C3B11457  38.709  13.869   7.990
  644POPC   C4B11458  38.909  13.981   7.598
  645POPC   NC311459  41.459  16.223   9.439
  645POPC   PO411460  41.817  16.884   9.461
  645POPC   GL111461  41.585  16.844   9.070
  645POPC   GL211462  41.275  16.610   9.143
  645POPC   C1A11463  41.540  16.714   8.658
  645POPC   D2A11464  41.563  16.831   8.246
  645POPC   C3A11465  41.730  16.548   7.956
  645POPC   C4A11466  41.500  16.628   7.601
  645POPC   C1B11467  41.061  16.761   8.807
  645POPC   C2B11468  41.100  16.562   8.411
  645POPC   C3B11469  41.087  16.702   8.001
  645POPC   C4B11470  40.984  16.513   7.589
  646POPC   NC311471  11.968  34.819   9.553
  646POPC   PO411472  12.164  35.405   9.529
  646POPC   GL111473  12.177  35.201   9.121
  646POPC   GL211474  12.047  35.517   9.049
  646POPC   C1A11475  12.122  35.171   8.663
  646POPC   D2A11476  12.296  35.317   8.312
  646POPC   C3A11477  12.076  35.257   7.964
  646POPC   C4A11478  12.126  34.945   7.716
  646POPC   C1B11479  11.718  35.470   8.782
  646POPC   C2B11480  11.744  35.349   8.349
  646POPC   C3B11481  11.658  35.557   7.957
  646POPC   C4B11482  11.648  35.650   7.539
  647POPC   NC311483  21.939  34.137   9.373
  647POPC   PO411484  22.375  34.692   9.472
  647POPC   GL111485  22.298  34.612   9.074
  647POPC   GL211486  21.948  34.562   9.093
  647POPC   C1A11487  22.430  34.707   8.664
  647POPC   D2A11488  22.414  34.423   8.324
  647POPC   C3A11489  22.256  34.550   7.933
  647POPC   C4A11490  22.361  34.948   7.742
  647POPC   C1B11491  22.017  34.338   8.689
  647POPC   C2B11492  21.905  34.298   8.249
  647POPC   C3B11493  21.857  34.228   7.784
  647POPC   C4B11494  22.133  34.272   7.432
  648POPC   NC311495   4.455   5.002   9.586
  648POPC   PO411496   4.309   5.568   9.543
  648POPC   GL111497   4.392   5.333   9.165
  648POPC   GL211498   4.301   4.993   9.126
  648POPC   C1A11499   4.339   5.287   8.717
  648POPC   D2A11500   4.496   5.073   8.362
  648POPC   C3A11501   4.347   5.178   7.967
  648POPC   C4A11502   4.462   5.236   7.535
  648POPC   C1B11503   4.371   4.763   8.767
  648POPC   C2B11504   4.290   4.591   8.419
  648POPC   C3B11505   4.130   4.700   8.033
  648POPC   C4B11506   4.315   4.767   7.641
  649POPC   NC311507  33.455  42.446   9.373
  649POPC   PO411508  32.910  41.997   9.496
  649POPC   GL111509  32.980  42.332   9.169
  649POPC   GL211510  32.957  42.687   9.313
  649POPC   C1A11511  32.853  42.299   8.744
  649POPC   D2A11512  32.755  42.286   8.302
  649POPC   C3A11513  32.872  41.995   7.964
  649POPC   C4A11514  33.192  42.143   7.691
  649POPC   C1B11515  32.957  42.788   8.890
  649POPC   C2B11516  32.668  42.818   8.530
  649POPC   C3B11517  32.728  42.756   8.087
  649POPC   C4B11518  32.525  42.723   7.714
  650POPC   NC311519  38.861   5.864   9.382
  650POPC   PO411520  38.322   6.120   9.672
  650POPC   GL111521  38.301   6.017   9.225
  650POPC   GL211522  38.380   5.682   9.196
  650POPC   C1A11523  38.557   6.001   8.810
  650POPC   D2A11524  38.763   6.189   8.437
  650POPC   C3A11525  38.983   5.952   8.102
  650POPC   C4A11526  38.823   5.908   7.670
  650POPC   C1B11527  38.423   5.517   8.768
  650POPC   C2B11528  38.628   5.660   8.401
  650POPC   C3B11529  38.479   5.737   8.002
  650POPC   C4B11530  38.359   5.442   7.697
  651POPC   NC311531  28.093  43.904   9.641
  651POPC   PO411532  28.677  43.589   9.525
  651POPC   GL111533  28.327  43.730   9.225
  651POPC   GL211534  28.445  43.982   9.005
  651POPC   C1A11535  28.063  43.706   8.835
  651POPC   D2A11536  28.301  43.860   8.487
  651POPC   C3A11537  28.064  43.879   8.137
  651POPC   C4A11538  28.097  43.764   7.721
  651POPC   C1B11539  28.586  44.243   8.686
  651POPC   C2B11540  28.611  44.276   8.257
  651POPC   C3B11541  28.492  44.061   7.877
  651POPC   C4B11542  28.211  44.247   7.573
  652POPC   NC311543  20.359  17.339   9.490
  652POPC   PO411544  20.850  17.724   9.414
  652POPC   GL111545  20.644  17.405   9.059
  652POPC   GL211546  20.275  17.473   9.006
  652POPC   C1A11547  20.780  17.248   8.600
  652POPC   D2A11548  20.677  17.374   8.162
  652POPC   C3A11549  20.882  17.217   7.785
  652POPC   C4A11550  20.659  17.071   7.380
  652POPC   C1B11551  20.366  17.546   8.580
  652POPC   C2B11552  20.170  17.446   8.183
  652POPC   C3B11553  20.290  17.261   7.773
  652POPC   C4B11554  20.213  17.283   7.299
  653POPC   NC311555  21.663   4.814   9.871
  653POPC   PO411556  21.202   4.369   9.663
  653POPC   GL111557  21.411   4.294   9.219
  653POPC   GL211558  21.437   3.942   9.124
  653POPC   C1A11559  21.399   4.263   8.728
  653POPC   D2A11560  21.276   4.546   8.402
  653POPC   C3A11561  21.392   4.437   7.990
  653POPC   C4A11562  21.302   4.080   7.764
  653POPC   C1B11563  21.033   3.983   8.928
  653POPC   C2B11564  21.008   3.999   8.501
  653POPC   C3B11565  20.975   4.165   8.125
  653POPC   C4B11566  20.802   4.021   7.733
  654POPC   NC311567  34.132  18.475   9.396
  654POPC   PO411568  33.532  18.203   9.345
  654POPC   GL111569  33.867  18.179   9.051
  654POPC   GL211570  34.006  17.846   9.027
  654POPC   C1A11571  33.739  18.312   8.630
  654POPC   D2A11572  33.378  18.369   8.322
  654POPC   C3A11573  33.536  18.500   7.933
  654POPC   C4A11574  33.898  18.491   7.656
  654POPC   C1B11575  33.612  17.804   8.798
  654POPC   C2B11576  33.555  17.897   8.401
  654POPC   C3B11577  33.816  18.128   8.128
  654POPC   C4B11578  33.817  17.989   7.703
  655POPC   NC311579  16.018   7.078   9.323
  655POPC   PO411580  15.635   7.545   9.617
  655POPC   GL111581  15.744   7.514   9.158
  655POPC   GL211582  16.043   7.600   9.044
  655POPC   C1A11583  15.665   7.696   8.690
  655POPC   D2A11584  15.843   7.808   8.255
  655POPC   C3A11585  15.785   7.500   7.911
  655POPC   C4A11586  15.739   7.048   7.939
  655POPC   C1B11587  16.089   7.323   8.702
  655POPC   C2B11588  16.274   7.104   8.342
  655POPC   C3B11589  16.246   7.274   7.900
  655POPC   C4B11590  16.173   7.618   7.564
  656POPC   NC311591   7.228  40.333   9.502
  656POPC   PO411592   7.461  39.795   9.482
  656POPC   GL111593   7.398  40.040   9.130
  656POPC   GL211594   7.601  40.262   9.148
  656POPC   C1A11595   7.226  40.161   8.731
  656POPC   D2A11596   7.079  40.054   8.300
  656POPC   C3A11597   7.292  39.960   7.887
  656POPC   C4A11598   7.138  39.998   7.423
  656POPC   C1B11599   7.734  40.277   8.771
  656POPC   C2B11600   7.586  40.144   8.362
  656POPC   C3B11601   7.689  40.271   7.943
  656POPC   C4B11602   7.613  40.165   7.495
  657POPC   NC311603  21.197   9.362   9.500
  657POPC   PO411604  21.537   8.790   9.482
  657POPC   GL111605  21.535   8.957   9.082
  657POPC   GL211606  21.481   8.615   9.014
  657POPC   C1A11607  21.511   9.210   8.682
  657POPC   D2A11608  21.324   9.086   8.262
  657POPC   C3A11609  21.546   8.818   7.956
  657POPC   C4A11610  21.577   9.152   7.667
  657POPC   C1B11611  21.335   8.717   8.634
  657POPC   C2B11612  21.190   8.583   8.243
  657POPC   C3B11613  21.061   8.790   7.858
  657POPC   C4B11614  21.236   8.856   7.454
  658POPC   NC311615   0.436   6.494   9.525
  658POPC   PO411616   0.516   7.216   9.463
  658POPC   GL111617   0.579   6.881   9.103
  658POPC   GL211618   0.600   6.503   9.044
  658POPC   C1A11619   0.414   6.829   8.681
  658POPC   D2A11620   0.315   7.058   8.303
  658POPC   C3A11621   0.398   6.833   7.926
  658POPC   C4A11622   0.138   6.910   7.611
  658POPC   C1B11623   0.549   6.332   8.613
  658POPC   C2B11624   0.235   6.488   8.288
  658POPC   C3B11625   0.150   6.368   7.859
  658POPC   C4B11626   0.494   6.319   7.673
  659POPC   NC311627  20.157  29.634   9.498
  659POPC   PO411628  19.814  30.241   9.568
  659POPC   GL111629  19.817  30.028   9.185
  659POPC   GL211630  19.539  29.828   9.047
  659POPC   C1A11631  19.833  30.195   8.791
  659POPC   D2A11632  19.669  30.079   8.410
  659POPC   C3A11633  19.864  30.231   8.072
  659POPC   C4A11634  19.801  30.151   7.676
  659POPC   C1B11635  19.831  29.691   8.714
  659POPC   C2B11636  19.909  29.590   8.292
  659POPC   C3B11637  19.676  29.765   7.996
  659POPC   C4B11638  19.357  30.019   7.863
  660POPC   NC311639   1.125  15.256   9.739
  660POPC   PO411640   1.548  15.712   9.582
  660POPC   GL111641   1.389  15.353   9.256
  660POPC   GL211642   1.016  15.219   9.240
  660POPC   C1A11643   1.380  15.199   8.786
  660POPC   D2A11644   1.212  15.392   8.366
  660POPC   C3A11645   1.371  15.329   7.931
  660POPC   C4A11646   1.369  15.388   7.483
  660POPC   C1B11647   0.872  15.084   8.840
  660POPC   C2B11648   0.933  14.963   8.393
  660POPC   C3B11649   0.867  15.179   8.006
  660POPC   C4B11650   0.952  15.082   7.586
  661POPC   NC311651  21.321  38.216   9.558
  661POPC   PO411652  21.566  38.892   9.431
  661POPC   GL111653  21.560  38.507   9.201
  661POPC   GL211654  21.192  38.567   9.209
  661POPC   C1A11655  21.432  38.296   8.820
  661POPC   D2A11656  21.300  38.476   8.422
  661POPC   C3A11657  21.408  38.390   7.983
  661POPC   C4A11658  21.146  38.394   7.572
  661POPC   C1B11659  20.970  38.506   8.837
  661POPC   C2B11660  20.837  38.713   8.479
  661POPC   C3B11661  20.949  38.636   8.064
  661POPC   C4B11662  21.023  38.922   7.743
  662POPC   NC311663  12.167  26.175   9.653
  662POPC   PO411664  12.119  26.827   9.427
  662POPC   GL111665  12.324  26.834   9.014
  662POPC   GL211666  12.554  27.108   8.948
  662POPC   C1A11667  12.341  26.794   8.549
  662POPC   D2A11668  12.461  27.047   8.200
  662POPC   C3A11669  12.272  26.896   7.848
  662POPC   C4A11670  12.040  26.583   7.641
  662POPC   C1B11671  12.194  27.269   8.672
  662POPC   C2B11672  11.807  27.123   8.459
  662POPC   C3B11673  11.775  26.959   8.032
  662POPC   C4B11674  11.873  27.065   7.591
  663POPC   NC311675  31.192  16.760   9.486
  663POPC   PO411676  30.670  16.500   9.445
  663POPC   GL111677  30.629  16.583   9.055
  663POPC   GL211678  30.919  16.831   9.052
  663POPC   C1A11679  30.510  16.670   8.635
  663POPC   D2A11680  30.193  16.846   8.336
  663POPC   C3A11681  30.407  16.973   7.960
  663POPC   C4A11682  30.764  16.773   7.809
  663POPC   C1B11683  31.009  16.516   8.743
  663POPC   C2B11684  30.947  16.623   8.315
  663POPC   C3B11685  30.978  16.341   7.990
  663POPC   C4B11686  31.021  16.353   7.571
  664POPC   NC311687  41.659  12.626   9.431
  664POPC   PO411688  41.494  13.326   9.598
  664POPC   GL111689  41.677  13.119   9.270
  664POPC   GL211690  41.381  12.985   9.116
  664POPC   C1A11691  41.791  13.138   8.831
  664POPC   D2A11692  42.015  12.847   8.592
  664POPC   C3A11693  41.809  12.668   8.235
  664POPC   C4A11694  41.620  12.778   7.837
  664POPC   C1B11695  41.293  13.118   8.710
  664POPC   C2B11696  41.486  13.081   8.314
  664POPC   C3B11697  41.323  13.197   7.930
  664POPC   C4B11698  41.216  13.052   7.522
  665POPC   NC311699  37.493  30.055   9.553
  665POPC   PO411700  37.806  29.599   9.577
  665POPC   GL111701  37.834  29.870   9.212
  665POPC   GL211702  37.645  30.145   9.069
  665POPC   C1A11703  37.737  29.716   8.788
  665POPC   D2A11704  37.681  29.980   8.455
  665POPC   C3A11705  37.684  29.710   8.115
  665POPC   C4A11706  37.774  29.880   7.740
  665POPC   C1B11707  37.290  30.104   8.795
  665POPC   C2B11708  37.127  30.248   8.411
  665POPC   C3B11709  37.320  30.130   8.026
  665POPC   C4B11710  37.379  30.135   7.593
  666POPC   NC311711  22.520  11.451   9.526
  666POPC   PO411712  22.790  10.815   9.553
  666POPC   GL111713  22.672  11.072   9.181
  666POPC   GL211714  22.850  11.403   9.151
  666POPC   C1A11715  22.730  11.146   8.730
  666POPC   D2A11716  22.974  11.182   8.355
  666POPC   C3A11717  22.843  11.104   7.932
  666POPC   C4A11718  22.798  11.258   7.520
  666POPC   C1B11719  23.019  11.602   8.768
  666POPC   C2B11720  23.087  11.719   8.362
  666POPC   C3B11721  23.082  11.561   7.965
  666POPC   C4B11722  23.125  11.699   7.521
  667POPC   NC311723  25.033  15.706   9.426
  667POPC   PO411724  25.160  15.054   9.625
  667POPC   GL111725  25.365  15.127   9.188
  667POPC   GL211726  25.596  14.880   9.103
  667POPC   C1A11727  25.489  15.332   8.788
  667POPC   D2A11728  25.232  15.339   8.424
  667POPC   C3A11729  25.370  15.410   8.015
  667POPC   C4A11730  25.191  15.175   7.691
  667POPC   C1B11731  25.466  14.835   8.678
  667POPC   C2B11732  25.638  15.029   8.338
  667POPC   C3B11733  25.581  14.939   7.938
  667POPC   C4B11734  25.557  14.889   7.476
  668POPC   NC311735  14.750  23.716   9.463
  668POPC   PO411736  14.053  23.968   9.500
  668POPC   GL111737  14.305  23.858   9.179
  668POPC   GL211738  14.281  23.511   9.241
  668POPC   C1A11739  14.398  24.002   8.766
  668POPC   D2A11740  14.640  23.750   8.468
  668POPC   C3A11741  14.526  23.640   8.073
  668POPC   C4A11742  14.573  23.817   7.682
  668POPC   C1B11743  14.421  23.472   8.844
  668POPC   C2B11744  14.277  23.336   8.438
  668POPC   C3B11745  14.054  23.402   8.061
  668POPC   C4B11746  14.269  23.393   7.683
  669POPC   NC311747  26.332  27.853   9.657
  669POPC   PO411748  25.968  27.248   9.562
  669POPC   GL111749  26.100  27.457   9.197
  669POPC   GL211750  26.012  27.822   9.222
  669POPC   C1A11751  25.904  27.510   8.790
  669POPC   D2A11752  26.047  27.466   8.378
  669POPC   C3A11753  25.801  27.544   8.025
  669POPC   C4A11754  26.073  27.598   7.711
  669POPC   C1B11755  26.262  27.865   8.849
  669POPC   C2B11756  26.251  28.020   8.465
  669POPC   C3B11757  26.158  27.934   8.061
  669POPC   C4B11758  26.120  28.121   7.611
  670POPC   NC311759  23.713  14.569   9.458
  670POPC   PO411760  24.072  13.995   9.263
  670POPC   GL111761  23.832  14.317   9.022
  670POPC   GL211762  23.886  14.718   8.998
  670POPC   C1A11763  23.752  14.393   8.597
  670POPC   D2A11764  23.877  14.760   8.365
  670POPC   C3A11765  23.940  14.537   8.002
  670POPC   C4A11766  23.575  14.309   7.810
  670POPC   C1B11767  23.487  14.791   8.763
  670POPC   C2B11768  23.358  14.703   8.359
  670POPC   C3B11769  23.506  14.794   7.994
  670POPC   C4B11770  23.391  14.736   7.605
  671POPC   NC311771  44.391  31.085   9.638
  671POPC   PO411772  44.875  31.520   9.588
  671POPC   GL111773  44.672  31.489   9.165
  671POPC   GL211774  44.315  31.383   9.177
  671POPC   C1A11775  44.531  31.581   8.726
  671POPC   D2A11776  44.503  31.926   8.417
  671POPC   C3A11777  44.586  31.751   7.993
  671POPC   C4A11778  44.413  31.831   7.584
  671POPC   C1B11779  44.464  31.091   8.857
  671POPC   C2B11780  44.578  31.155   8.430
  671POPC   C3B11781  44.379  30.944   8.117
  671POPC   C4B11782  44.227  31.046   7.720
  672POPC   NC311783  35.493  16.120   9.474
  672POPC   PO411784  35.098  15.568   9.569
  672POPC   GL111785  35.053  15.810   9.194
  672POPC   GL211786  35.421  15.829   9.051
  672POPC   C1A11787  35.038  16.078   8.836
  672POPC   D2A11788  35.208  15.912   8.457
  672POPC   C3A11789  35.071  16.057   8.061
  672POPC   C4A11790  35.043  15.800   7.699
  672POPC   C1B11791  35.532  16.205   8.745
  672POPC   C2B11792  35.597  16.194   8.266
  672POPC   C3B11793  35.524  16.066   7.826
  672POPC   C4B11794  35.694  16.247   7.433
  673POPC   NC311795  23.949   5.004   9.396
  673POPC   PO411796  23.530   5.214   9.845
  673POPC   GL111797  23.451   5.015   9.333
  673POPC   GL211798  23.370   4.713   9.155
  673POPC   C1A11799  23.653   5.075   8.848
  673POPC   D2A11800  23.833   5.189   8.414
  673POPC   C3A11801  23.594   5.112   8.036
  673POPC   C4A11802  23.673   5.078   7.597
  673POPC   C1B11803  23.535   4.578   8.737
  673POPC   C2B11804  23.652   4.681   8.302
  673POPC   C3B11805  23.653   4.632   7.824
  673POPC   C4B11806  23.603   4.609   7.352
  674POPC   NC311807  30.063  41.887   9.514
  674POPC   PO411808  30.198  42.538   9.632
  674POPC   GL111809  29.930  42.389   9.285
  674POPC   GL211810  29.652  42.598   9.296
  674POPC   C1A11811  29.931  42.241   8.832
  674POPC   D2A11812  30.052  42.434   8.434
  674POPC   C3A11813  30.198  42.279   8.051
  674POPC   C4A11814  29.915  42.129   7.751
  674POPC   C1B11815  29.690  42.695   8.867
  674POPC   C2B11816  29.707  42.848   8.446
  674POPC   C3B11817  29.779  42.657   8.041
  674POPC   C4B11818  29.615  42.531   7.661
  675POPC   NC311819   4.805  24.527   9.509
  675POPC   PO411820   5.468  24.740   9.487
  675POPC   GL111821   5.303  24.477   9.135
  675POPC   GL211822   4.937  24.474   9.043
  675POPC   C1A11823   5.284  24.369   8.688
  675POPC   D2A11824   4.911  24.215   8.455
  675POPC   C3A11825   4.862  24.342   8.055
  675POPC   C4A11826   5.201  24.508   7.879
  675POPC   C1B11827   4.932  24.834   8.801
  675POPC   C2B11828   5.090  24.771   8.392
  675POPC   C3B11829   4.882  24.881   8.043
  675POPC   C4B11830   4.994  24.993   7.648
  676POPC   NC311831  40.118   7.379   9.562
  676POPC   PO411832  39.433   7.621   9.486
  676POPC   GL111833  39.779   7.367   9.169
  676POPC   GL211834  40.134   7.203   9.096
  676POPC   C1A11835  39.898   7.383   8.708
  676POPC   D2A11836  39.962   7.723   8.389
  676POPC   C3A11837  40.033   7.570   7.966
  676POPC   C4A11838  39.959   7.686   7.528
  676POPC   C1B11839  40.366   7.134   8.728
  676POPC   C2B11840  40.229   7.242   8.321
  676POPC   C3B11841  40.361   7.135   7.910
  676POPC   C4B11842  40.195   7.204   7.524
  677POPC   NC311843  35.347  28.625   9.213
  677POPC   PO411844  35.656  28.078   9.488
  677POPC   GL111845  35.381  28.123   9.129
  677POPC   GL211846  35.050  28.160   9.084
  677POPC   C1A11847  35.469  28.264   8.696
  677POPC   D2A11848  35.408  28.127   8.273
  677POPC   C3A11849  35.140  28.422   8.098
  677POPC   C4A11850  35.169  28.610   7.719
  677POPC   C1B11851  34.902  27.926   8.746
  677POPC   C2B11852  34.838  27.954   8.320
  677POPC   C3B11853  35.055  27.920   7.945
  677POPC   C4B11854  35.378  28.128   7.746
  678POPC   NC311855   5.010  27.125   9.509
  678POPC   PO411856   5.346  26.530   9.410
  678POPC   GL111857   5.062  26.666   9.078
  678POPC   GL211858   5.171  27.010   9.045
  678POPC   C1A11859   4.972  26.805   8.636
  678POPC   D2A11860   5.301  26.733   8.326
  678POPC   C3A11861   5.094  26.786   7.937
  678POPC   C4A11862   4.728  26.586   7.809
  678POPC   C1B11863   5.343  27.213   8.668
  678POPC   C2B11864   5.347  27.228   8.210
  678POPC   C3B11865   5.506  27.051   7.830
  678POPC   C4B11866   5.330  27.052   7.416
  679POPC   NC311867  29.972  15.735   9.792
  679POPC   PO411868  29.792  16.351   9.477
  679POPC   GL111869  30.012  16.080   9.199
  679POPC   GL211870  29.976  15.724   9.272
  679POPC   C1A11871  29.882  15.951   8.807
  679POPC   D2A11872  29.803  16.094   8.411
  679POPC   C3A11873  29.633  15.919   8.074
  679POPC   C4A11874  29.703  15.956   7.669
  679POPC   C1B11875  30.246  15.634   8.916
  679POPC   C2B11876  30.262  15.819   8.491
  679POPC   C3B11877  30.151  15.919   8.055
  679POPC   C4B11878  30.370  15.643   7.761
  680POPC   NC311879  43.710  42.775   9.586
  680POPC   PO411880  44.222  42.379   9.608
  680POPC   GL111881  44.085  42.401   9.178
  680POPC   GL211882  43.797  42.586   9.110
  680POPC   C1A11883  43.963  42.321   8.731
  680POPC   D2A11884  43.780  42.265   8.342
  680POPC   C3A11885  44.049  42.298   8.008
  680POPC   C4A11886  43.917  42.224   7.604
  680POPC   C1B11887  43.642  42.789   8.711
  680POPC   C2B11888  43.647  42.902   8.257
  680POPC   C3B11889  43.661  42.604   7.907
  680POPC   C4B11890  43.637  42.657   7.471
  681POPC   NC311891  17.199  43.174   9.527
  681POPC   PO411892  17.792  42.839   9.457
  681POPC   GL111893  17.508  42.985   9.155
  681POPC   GL211894  17.581  43.306   9.207
  681POPC   C1A11895  17.292  42.916   8.750
  681POPC   D2A11896  17.483  43.023   8.368
  681POPC   C3A11897  17.326  42.899   7.948
  681POPC   C4A11898  17.517  43.083   7.569
  681POPC   C1B11899  17.441  43.414   8.790
  681POPC   C2B11900  17.637  43.514   8.394
  681POPC   C3B11901  17.462  43.402   8.001
  681POPC   C4B11902  17.496  43.582   7.622
  682POPC   NC311903   5.902  12.699   9.396
  682POPC   PO411904   5.449  13.161   9.372
  682POPC   GL111905   5.810  13.154   9.120
  682POPC   GL211906   6.159  13.000   9.077
  682POPC   C1A11907   5.803  13.104   8.708
  682POPC   D2A11908   6.052  13.126   8.392
  682POPC   C3A11909   5.740  13.083   8.118
  682POPC   C4A11910   5.772  13.127   7.707
  682POPC   C1B11911   6.078  12.675   8.737
  682POPC   C2B11912   5.889  12.632   8.346
  682POPC   C3B11913   5.801  12.616   7.920
  682POPC   C4B11914   6.131  12.558   7.615
  683POPC   NC311915  28.302  15.236   9.542
  683POPC   PO411916  27.945  14.665   9.374
  683POPC   GL111917  28.183  14.934   9.104
  683POPC   GL211918  28.536  14.877   9.113
  683POPC   C1A11919  28.345  15.074   8.687
  683POPC   D2A11920  28.445  15.463   8.492
  683POPC   C3A11921  28.288  15.484   8.109
  683POPC   C4A11922  28.266  15.114   7.897
  683POPC   C1B11923  28.715  15.296   8.928
  683POPC   C2B11924  28.932  15.320   8.516
  683POPC   C3B11925  28.812  15.414   8.070
  683POPC   C4B11926  28.726  15.106   7.718
  684POPC   NC311927  34.289  31.722   9.526
  684POPC   PO411928  34.592  31.173   9.500
  684POPC   GL111929  34.460  31.381   9.158
  684POPC   GL211930  34.627  31.647   9.158
  684POPC   C1A11931  34.470  31.419   8.707
  684POPC   D2A11932  34.488  31.257   8.329
  684POPC   C3A11933  34.304  31.491   8.020
  684POPC   C4A11934  34.525  31.408   7.621
  684POPC   C1B11935  34.925  31.541   8.864
  684POPC   C2B11936  34.891  31.700   8.433
  684POPC   C3B11937  34.803  31.550   8.057
  684POPC   C4B11938  34.906  31.730   7.726
  685POPC   NC311939  36.404  15.719   9.375
  685POPC   PO411940  35.939  16.094   9.575
  685POPC   GL111941  36.065  16.047   9.167
  685POPC   GL211942  35.938  15.731   9.082
  685POPC   C1A11943  36.050  16.220   8.751
  685POPC   D2A11944  36.211  16.117   8.349
  685POPC   C3A11945  35.978  15.911   8.032
  685POPC   C4A11946  36.002  16.291   7.838
  685POPC   C1B11947  36.178  15.731   8.700
  685POPC   C2B11948  36.515  15.697   8.409
  685POPC   C3B11949  36.414  15.450   8.075
  685POPC   C4B11950  36.186  15.491   7.734
  686POPC   NC311951  12.439  29.744   9.411
  686POPC   PO411952  12.971  30.139   9.569
  686POPC   GL111953  12.942  29.909   9.216
  686POPC   GL211954  12.640  30.070   9.051
  686POPC   C1A11955  13.125  30.013   8.844
  686POPC   D2A11956  12.907  30.157   8.497
  686POPC   C3A11957  13.061  29.955   8.137
  686POPC   C4A11958  12.936  30.066   7.745
  686POPC   C1B11959  12.704  29.708   8.775
  686POPC   C2B11960  12.815  29.561   8.367
  686POPC   C3B11961  12.639  29.643   7.939
  686POPC   C4B11962  12.758  29.618   7.513
  687POPC   NC311963   0.762  43.425   9.520
  687POPC   PO411964   0.750  42.729   9.476
  687POPC   GL111965   0.466  42.913   9.162
  687POPC   GL211966   0.385  43.267   9.158
  687POPC   C1A11967   0.417  42.966   8.727
  687POPC   D2A11968   0.628  42.821   8.370
  687POPC   C3A11969   0.608  43.043   7.993
  687POPC   C4A11970   0.821  43.136   7.602
  687POPC   C1B11971   0.155  43.462   8.789
  687POPC   C2B11972  44.920  43.386   8.385
  687POPC   C3B11973   0.123  43.505   7.985
  687POPC   C4B11974   0.310  43.323   7.598
  688POPC   NC311975  15.925  42.042   9.531
  688POPC   PO411976  16.357  42.486   9.611
  688POPC   GL111977  16.096  42.389   9.204
  688POPC   GL211978  16.146  42.041   9.090
  688POPC   C1A11979  15.905  42.343   8.746
  688POPC   D2A11980  15.728  42.138   8.349
  688POPC   C3A11981  15.871  42.366   7.988
  688POPC   C4A11982  15.817  42.512   7.536
  688POPC   C1B11983  16.375  42.107   8.755
  688POPC   C2B11984  16.221  42.074   8.365
  688POPC   C3B11985  16.266  42.006   7.955
  688POPC   C4B11986  16.002  42.048   7.606
  689POPC   NC311987   7.676  25.526   9.649
  689POPC   PO411988   7.665  24.863   9.602
  689POPC   GL111989   7.657  25.127   9.251
  689POPC   GL211990   7.323  25.270   9.157
  689POPC   C1A11991   7.679  25.232   8.815
  689POPC   D2A11992   7.529  25.379   8.423
  689POPC   C3A11993   7.507  25.078   8.110
  689POPC   C4A11994   7.710  25.185   7.717
  689POPC   C1B11995   6.992  25.369   8.820
  689POPC   C2B11996   7.035  25.287   8.433
  689POPC   C3B11997   6.992  25.431   8.049
  689POPC   C4B11998   7.203  25.257   7.724
  690POPC   NC311999   3.488  27.935   9.430
  690POPC   PO412000   3.190  27.221   9.450
  690POPC   GL112001   3.317  27.544   9.158
  690POPC   GL212002   3.174  27.881   9.023
  690POPC   C1A12003   3.539  27.599   8.775
  690POPC   D2A12004   3.380  27.655   8.355
  690POPC   C3A12005   3.624  27.414   8.084
  690POPC   C4A12006   3.814  27.560   7.737
  690POPC   C1B12007   3.035  27.539   8.733
  690POPC   C2B12008   3.110  27.207   8.405
  690POPC   C3B12009   3.114  27.362   7.980
  690POPC   C4B12010   3.296  27.739   7.805
  691POPC   NC312011  32.511   9.876   9.779
  691POPC   PO412012  31.959   9.524   9.623
  691POPC   GL112013  32.108   9.740   9.236
  691POPC   GL212014  32.469   9.677   9.176
  691POPC   C1A12015  32.199   9.970   8.807
  691POPC   D2A12016  32.143  10.009   8.330
  691POPC   C3A12017  32.234   9.850   7.914
  691POPC   C4A12018  31.882   9.966   7.629
  691POPC   C1B12019  32.249   9.460   8.803
  691POPC   C2B12020  32.345   9.493   8.340
  691POPC   C3B12021  32.335   9.329   7.924
  691POPC   C4B12022  32.453   9.283   7.490
  692POPC   NC312023  14.032  29.213   9.719
  692POPC   PO412024  13.442  29.374   9.397
  692POPC   GL112025  13.433  29.343   8.972
  692POPC   GL212026  13.451  29.009   8.988
  692POPC   C1A12027  13.568  29.285   8.550
  692POPC   D2A12028  13.369  29.522   8.228
  692POPC   C3A12029  13.666  29.472   7.937
  692POPC   C4A12030  13.731  29.469   7.525
  692POPC   C1B12031  13.757  28.831   8.673
  692POPC   C2B12032  14.004  28.625   8.363
  692POPC   C3B12033  13.984  28.665   7.921
  692POPC   C4B12034  13.755  28.995   7.715
  693POPC   NC312035  34.192  26.637   9.378
  693POPC   PO412036  33.635  26.321   9.580
  693POPC   GL112037  33.654  26.698   9.318
  693POPC   GL212038  33.825  26.568   9.049
  693POPC   C1A12039  33.449  26.888   8.912
  693POPC   D2A12040  33.353  26.764   8.460
  693POPC   C3A12041  33.577  26.954   8.128
  693POPC   C4A12042  33.459  26.915   7.693
  693POPC   C1B12043  34.102  26.631   8.718
  693POPC   C2B12044  34.175  26.888   8.391
  693POPC   C3B12045  34.187  26.729   8.012
  693POPC   C4B12046  34.051  26.582   7.673
  694POPC   NC312047  37.656  31.905   9.520
  694POPC   PO412048  37.961  31.355   9.541
  694POPC   GL112049  37.657  31.442   9.183
  694POPC   GL212050  37.779  31.147   9.087
  694POPC   C1A12051  37.478  31.295   8.728
  694POPC   D2A12052  37.484  31.085   8.324
  694POPC   C3A12053  37.573  31.380   7.971
  694POPC   C4A12054  37.548  31.771   7.678
  694POPC   C1B12055  37.988  31.362   8.767
  694POPC   C2B12056  37.978  31.247   8.348
  694POPC   C3B12057  38.089  31.475   8.011
  694POPC   C4B12058  37.930  31.402   7.619
  695POPC   NC312059   7.961  23.139   9.514
  695POPC   PO412060   8.270  22.537   9.593
  695POPC   GL112061   8.146  22.789   9.211
  695POPC   GL212062   8.070  22.517   9.116
  695POPC   C1A12063   8.267  23.085   8.868
  695POPC   D2A12064   8.242  23.177   8.445
  695POPC   C3A12065   8.483  22.981   8.124
  695POPC   C4A12066   8.368  23.111   7.709
  695POPC   C1B12067   8.303  22.593   8.753
  695POPC   C2B12068   8.186  22.487   8.333
  695POPC   C3B12069   8.145  22.654   7.903
  695POPC   C4B12070   8.203  22.662   7.438
  696POPC   NC312071  39.337  41.385   9.718
  696POPC   PO412072  39.138  42.000   9.711
  696POPC   GL112073  39.211  41.600   9.286
  696POPC   GL212074  39.380  41.245   9.221
  696POPC   C1A12075  39.423  41.636   8.842
  696POPC   D2A12076  39.259  41.931   8.510
  696POPC   C3A12077  39.317  41.790   8.088
  696POPC   C4A12078  39.081  41.802   7.737
  696POPC   C1B12079  39.132  41.221   8.821
  696POPC   C2B12080  39.337  41.336   8.408
  696POPC   C3B12081  39.311  41.275   7.946
  696POPC   C4B12082  39.029  41.310   7.569
  697POPC   NC312083   8.377   7.339   9.375
  697POPC   PO412084   7.758   7.550   9.506
  697POPC   GL112085   7.944   7.493   9.117
  697POPC   GL212086   8.255   7.717   9.060
  697POPC   C1A12087   7.885   7.644   8.712
  697POPC   D2A12088   8.120   7.378   8.512
  697POPC   C3A12089   8.082   7.399   8.099
  697POPC   C4A12090   7.814   7.516   7.815
  697POPC   C1B12091   8.451   7.722   8.689
  697POPC   C2B12092   8.499   7.654   8.273
  697POPC   C3B12093   8.504   7.507   7.857
  697POPC   C4B12094   8.289   7.181   7.680
  698POPC   NC312095  40.083   1.913   9.906
  698POPC   PO412096  39.695   2.372   9.670
  698POPC   GL112097  39.922   2.256   9.079
  698POPC   GL212098  39.949   1.904   9.184
  698POPC   C1A12099  39.936   2.138   8.621
  698POPC   D2A12100  39.668   2.150   8.236
  698POPC   C3A12101  39.815   2.168   7.787
  698POPC   C4A12102  40.086   1.832   7.734
  698POPC   C1B12103  40.273   1.768   8.891
  698POPC   C2B12104  40.575   1.817   8.557
  698POPC   C3B12105  40.351   1.931   8.218
  698POPC   C4B12106  40.258   2.254   8.000
  699POPC   NC312107  42.634  40.844   9.207
  699POPC   PO412108  43.206  40.910   9.558
  699POPC   GL112109  43.187  40.844   9.118
  699POPC   GL212110  42.952  41.021   8.850
  699POPC   C1A12111  43.405  40.720   8.759
  699POPC   D2A12112  43.267  40.937   8.405
  699POPC   C3A12113  43.287  40.756   8.028
  699POPC   C4A12114  42.984  40.675   7.730
  699POPC   C1B12115  42.853  40.680   8.589
  699POPC   C2B12116  42.900  40.439   8.224
  699POPC   C3B12117  42.608  40.313   7.915
  699POPC   C4B12118  42.601  40.341   7.433
  700POPC   NC312119  43.740  33.659   9.679
  700POPC   PO412120  43.977  34.203   9.422
  700POPC   GL112121  43.862  33.778   9.205
  700POPC   GL212122  43.521  33.631   9.207
  700POPC   C1A12123  43.846  33.592   8.803
  700POPC   D2A12124  43.742  33.850   8.452
  700POPC   C3A12125  43.964  33.883   8.069
  700POPC   C4A12126  44.010  33.705   7.677
  700POPC   C1B12127  43.321  33.548   8.800
  700POPC   C2B12128  43.451  33.411   8.409
  700POPC   C3B12129  43.642  33.467   8.037
  700POPC   C4B12130  43.497  33.624   7.685
  701POPC   NC312131   6.935  20.642   9.391
  701POPC   PO412132   6.364  21.078   9.498
  701POPC   GL112133   6.308  20.728   9.177
  701POPC   GL212134   6.366  20.341   9.211
  701POPC   C1A12135   6.530  20.687   8.778
  701POPC   D2A12136   6.682  20.862   8.380
  701POPC   C3A12137   6.520  20.848   7.977
  701POPC   C4A12138   6.812  20.693   7.647
  701POPC   C1B12139   6.443  20.156   8.795
  701POPC   C2B12140   6.575  20.332   8.408
  701POPC   C3B12141   6.747  20.345   8.014
  701POPC   C4B12142   6.582  20.237   7.625
  702POPC   NC312143  36.180   9.540   9.471
  702POPC   PO412144  35.760  10.010   9.463
  702POPC   GL112145  35.992   9.878   9.135
  702POPC   GL212146  35.865   9.538   9.067
  702POPC   C1A12147  36.235   9.862   8.757
  702POPC   D2A12148  36.096   9.635   8.401
  702POPC   C3A12149  36.077   9.859   8.067
  702POPC   C4A12150  36.370   9.676   7.841
  702POPC   C1B12151  35.731   9.742   8.722
  702POPC   C2B12152  35.587   9.831   8.338
  702POPC   C3B12153  35.597   9.713   7.922
  702POPC   C4B12154  35.887   9.563   7.661
  703POPC   NC312155  10.241  20.986   9.473
  703POPC   PO412156  10.242  20.313   9.514
  703POPC   GL112157   9.986  20.479   9.147
  703POPC   GL212158   9.986  20.861   9.046
  703POPC   C1A12159   9.824  20.516   8.707
  703POPC   D2A12160  10.052  20.772   8.397
  703POPC   C3A12161   9.979  20.895   7.964
  703POPC   C4A12162   9.787  20.571   7.684
  703POPC   C1B12163   9.679  20.997   8.707
  703POPC   C2B12164   9.586  21.101   8.249
  703POPC   C3B12165   9.478  20.948   7.799
  703POPC   C4B12166   9.425  20.718   7.350
  704POPC   NC312167  43.245   2.158   9.642
  704POPC   PO412168  42.658   1.943   9.701
  704POPC   GL112169  42.835   1.980   9.248
  704POPC   GL212170  43.127   2.149   9.145
  704POPC   C1A12171  42.831   1.762   8.807
  704POPC   D2A12172  42.662   1.773   8.354
  704POPC   C3A12173  42.978   1.659   8.043
  704POPC   C4A12174  43.371   1.805   7.881
  704POPC   C1B12175  43.037   2.230   8.710
  704POPC   C2B12176  43.025   2.128   8.255
  704POPC   C3B12177  42.986   2.165   7.799
  704POPC   C4B12178  43.244   2.192   7.398
  705POPC   NC312179  13.432  34.145   9.524
  705POPC   PO412180  14.087  33.949   9.543
  705POPC   GL112181  13.751  33.859   9.236
  705POPC   GL212182  13.704  34.123   9.005
  705POPC   C1A12183  13.453  33.681   8.907
  705POPC   D2A12184  13.675  33.601   8.515
  705POPC   C3A12185  13.554  33.624   8.077
  705POPC   C4A12186  13.790  33.690   7.683
  705POPC   C1B12187  13.892  34.131   8.593
  705POPC   C2B12188  13.830  34.322   8.197
  705POPC   C3B12189  13.578  34.117   7.840
  705POPC   C4B12190  13.583  34.142   7.363
  706POPC   NC312191  29.927  26.727   9.588
  706POPC   PO412192  30.614  26.846   9.523
  706POPC   GL112193  30.219  26.936   9.215
  706POPC   GL212194  29.882  26.772   9.093
  706POPC   C1A12195  30.143  27.034   8.759
  706POPC   D2A12196  29.945  26.678   8.523
  706POPC   C3A12197  29.890  26.763   8.094
  706POPC   C4A12198  30.022  26.697   7.698
  706POPC   C1B12199  29.622  26.983   8.766
  706POPC   C2B12200  29.594  27.109   8.349
  706POPC   C3B12201  29.417  26.960   7.984
  706POPC   C4B12202  29.571  26.909   7.552
  707POPC   NC312203  25.261  44.814   9.487
  707POPC   PO412204  24.765  44.365   9.397
  707POPC   GL112205  25.157  44.471   9.126
  707POPC   GL212206  25.532  44.643   9.103
  707POPC   C1A12207  25.192  44.649   8.724
  707POPC   D2A12208  25.173  44.423   8.350
  707POPC   C3A12209  25.093  44.658   8.015
  707POPC   C4A12210  25.176  44.474   7.650
  707POPC   C1B12211  25.676  44.812   8.729
  707POPC   C2B12212  25.483  44.835   8.313
  707POPC   C3B12213  25.608  44.662   7.902
  707POPC   C4B12214  25.766  44.914   7.514
  708POPC   NC312215  43.845   8.267   9.579
  708POPC   PO412216  44.209   7.797   9.386
  708POPC   GL112217  43.910   7.992   9.123
  708POPC   GL212218  43.835   8.363   9.087
  708POPC   C1A12219  43.945   8.043   8.701
  708POPC   D2A12220  43.989   8.273   8.331
  708POPC   C3A12221  43.980   8.040   7.961
  708POPC   C4A12222  44.031   8.236   7.570
  708POPC   C1B12223  43.556   8.411   8.762
  708POPC   C2B12224  43.552   8.541   8.310
  708POPC   C3B12225  43.766   8.527   7.918
  708POPC   C4B12226  43.534   8.467   7.527
  709POPC   NC312227  39.527   8.088   9.550
  709POPC   PO412228  40.179   7.894   9.509
  709POPC   GL112229  39.899   7.933   9.151
  709POPC   GL212230  39.743   8.267   9.110
  709POPC   C1A12231  40.078   8.089   8.761
  709POPC   D2A12232  40.424   8.167   8.507
  709POPC   C3A12233  40.308   8.040   8.111
  709POPC   C4A12234  40.189   8.394   7.819
  709POPC   C1B12235  39.582   8.147   8.705
  709POPC   C2B12236  39.816   8.252   8.336
  709POPC   C3B12237  39.833   8.045   7.952
  709POPC   C4B12238  39.807   8.176   7.567
  710POPC   NC312239   7.644  21.220   9.523
  710POPC   PO412240   7.082  21.494   9.231
  710POPC   GL112241   7.464  21.398   9.071
  710POPC   GL212242   7.653  21.687   9.222
  710POPC   C1A12243   7.617  21.176   8.710
  710POPC   D2A12244   7.613  21.272   8.278
  710POPC   C3A12245   7.709  21.119   7.898
  710POPC   C4A12246   7.367  21.376   7.736
  710POPC   C1B12247   7.461  21.844   8.804
  710POPC   C2B12248   7.206  21.586   8.515
  710POPC   C3B12249   7.092  21.643   8.077
  710POPC   C4B12250   7.262  21.889   7.724
  711POPC   NC312251  42.304  16.754   9.504
  711POPC   PO412252  42.680  16.421   9.192
  711POPC   GL112253  42.460  16.775   9.003
  711POPC   GL212254  42.157  17.013   9.099
  711POPC   C1A12255  42.544  16.717   8.573
  711POPC   D2A12256  42.522  16.423   8.230
  711POPC   C3A12257  42.340  16.720   7.947
  711POPC   C4A12258  42.533  17.009   7.700
  711POPC   C1B12259  42.044  16.819   8.715
  711POPC   C2B12260  42.058  16.983   8.307
  711POPC   C3B12261  41.906  17.025   7.880
  711POPC   C4B12262  42.107  17.169   7.489
  712POPC   NC312263  19.514  22.438   9.568
  712POPC   PO412264  20.027  21.979   9.442
  712POPC   GL112265  19.741  22.146   9.183
  712POPC   GL212266  19.782  22.499   9.135
  712POPC   C1A12267  19.716  22.168   8.747
  712POPC   D2A12268  20.020  22.270   8.446
  712POPC   C3A12269  20.003  22.031   8.077
  712POPC   C4A12270  19.892  22.164   7.687
  712POPC   C1B12271  19.509  22.639   8.821
  712POPC   C2B12272  19.397  22.456   8.441
  712POPC   C3B12273  19.596  22.348   8.093
  712POPC   C4B12274  19.489  22.483   7.694
  713POPC   NC312275  40.518  34.741   9.828
  713POPC   PO412276  40.972  34.766   9.360
  713POPC   GL112277  40.857  34.810   8.955
  713POPC   GL212278  40.779  34.452   8.906
  713POPC   C1A12279  40.688  34.826   8.568
  713POPC   D2A12280  40.681  34.439   8.378
  713POPC   C3A12281  40.715  34.579   7.986
  713POPC   C4A12282  40.744  34.714   7.597
  713POPC   C1B12283  40.360  34.260   8.782
  713POPC   C2B12284  40.150  34.121   8.429
  713POPC   C3B12285  40.301  34.279   8.061
  713POPC   C4B12286  40.494  34.251   7.646
  714POPC   NC312287  43.514  25.652   9.306
  714POPC   PO412288  43.937  26.150   9.582
  714POPC   GL112289  43.758  26.261   9.170
  714POPC   GL212290  43.468  26.087   8.983
  714POPC   C1A12291  43.940  26.162   8.751
  714POPC   D2A12292  43.871  26.085   8.302
  714POPC   C3A12293  44.103  26.210   7.982
  714POPC   C4A12294  44.060  26.119   7.539
  714POPC   C1B12295  43.626  25.754   8.654
  714POPC   C2B12296  43.690  25.630   8.210
  714POPC   C3B12297  43.674  25.888   7.808
  714POPC   C4B12298  43.362  25.878   7.434
  715POPC   NC312299  34.048  12.654   9.437
  715POPC   PO412300  33.671  13.120   9.683
  715POPC   GL112301  33.703  13.002   9.198
  715POPC   GL212302  33.835  12.655   8.993
  715POPC   C1A12303  33.662  13.041   8.740
  715POPC   D2A12304  33.783  12.766   8.397
  715POPC   C3A12305  33.825  13.022   8.051
  715POPC   C4A12306  33.769  12.930   7.651
  715POPC   C1B12307  34.178  12.458   8.745
  715POPC   C2B12308  34.130  12.318   8.311
  715POPC   C3B12309  33.981  12.502   7.937
  715POPC   C4B12310  34.204  12.653   7.611
  716POPC   NC312311  29.099   3.339   9.446
  716POPC   PO412312  29.378   3.931   9.458
  716POPC   GL112313  29.360   3.660   9.079
  716POPC   GL212314  29.453   3.299   9.049
  716POPC   C1A12315  29.346   3.606   8.642
  716POPC   D2A12316  29.381   3.272   8.356
  716POPC   C3A12317  29.306   3.491   7.975
  716POPC   C4A12318  29.230   3.938   7.789
  716POPC   C1B12319  29.049   3.201   8.780
  716POPC   C2B12320  28.763   3.265   8.394
  716POPC   C3B12321  28.769   3.394   7.952
  716POPC   C4B12322  29.005   3.206   7.623
  717POPC   NC312323  43.765  35.904   9.467
  717POPC   PO412324  43.659  36.513   9.674
  717POPC   GL112325  43.529  36.334   9.268
  717POPC   GL212326  43.891  36.289   9.145
  717POPC   C1A12327  43.535  36.135   8.834
  717POPC   D2A12328  43.742  36.252   8.471
  717POPC   C3A12329  43.632  36.107   8.072
  717POPC   C4A12330  43.819  36.261   7.711
  717POPC   C1B12331  44.151  36.232   8.759
  717POPC   C2B12332  44.171  35.975   8.374
  717POPC   C3B12333  44.230  36.063   7.933
  717POPC   C4B12334  44.374  36.303   7.577
  718POPC   NC312335  37.101  37.045   9.529
  718POPC   PO412336  37.089  36.364   9.451
  718POPC   GL112337  36.847  36.696   9.192
  718POPC   GL212338  36.896  37.043   9.082
  718POPC   C1A12339  36.665  36.689   8.778
  718POPC   D2A12340  36.872  36.576   8.405
  718POPC   C3A12341  36.725  36.685   7.970
  718POPC   C4A12342  36.742  36.907   7.575
  718POPC   C1B12343  36.784  37.219   8.737
  718POPC   C2B12344  36.651  37.073   8.388
  718POPC   C3B12345  36.738  37.188   8.006
  718POPC   C4B12346  36.545  37.402   7.647
  719POPC   NC312347  29.383  16.954   9.709
  719POPC   PO412348  28.914  16.534   9.425
  719POPC   GL112349  29.051  16.753   9.095
  719POPC   GL212350  29.342  16.929   9.205
  719POPC   C1A12351  29.067  16.589   8.695
  719POPC   D2A12352  28.920  16.406   8.323
  719POPC   C3A12353  29.014  16.725   8.003
  719POPC   C4A12354  29.042  16.767   7.554
  719POPC   C1B12355  29.293  17.091   8.787
  719POPC   C2B12356  29.323  16.888   8.373
  719POPC   C3B12357  29.507  16.870   7.966
  719POPC   C4B12358  29.496  17.053   7.560
  720POPC   NC312359  41.416  19.830   9.497
  720POPC   PO412360  41.867  20.258   9.237
  720POPC   GL112361  41.600  19.937   9.028
  720POPC   GL212362  41.569  19.573   9.066
  720POPC   C1A12363  41.362  19.925   8.655
  720POPC   D2A12364  41.369  20.230   8.324
  720POPC   C3A12365  41.476  20.017   7.965
  720POPC   C4A12366  41.248  19.987   7.609
  720POPC   C1B12367  41.730  19.517   8.688
  720POPC   C2B12368  41.730  19.734   8.327
  720POPC   C3B12369  41.716  19.549   7.959
  720POPC   C4B12370  41.620  19.653   7.512
  721POPC   NC312371  23.785  44.731   9.623
  721POPC   PO412372  23.138  44.814   9.571
  721POPC   GL112373  23.439  44.799   9.203
  721POPC   GL212374  23.716  44.574   9.136
  721POPC   C1A12375  23.397  44.731   8.754
  721POPC   D2A12376  23.545   0.025   8.461
  721POPC   C3A12377  23.715  44.850   8.129
  721POPC   C4A12378  23.574  44.726   7.742
  721POPC   C1B12379  23.908  44.779   8.720
  721POPC   C2B12380  24.149  44.680   8.356
  721POPC   C3B12381  24.094  44.576   7.938
  721POPC   C4B12382  24.073  44.715   7.569
  722POPC   NC312383   1.369  38.904   9.652
  722POPC   PO412384   0.942  38.297   9.751
  722POPC   GL112385   0.935  38.387   9.260
  722POPC   GL212386   1.051  38.761   9.200
  722POPC   C1A12387   1.170  38.346   8.863
  722POPC   D2A12388   1.459  38.516   8.555
  722POPC   C3A12389   1.298  38.407   8.174
  722POPC   C4A12390   1.452  38.104   7.924
  722POPC   C1B12391   1.212  38.863   8.821
  722POPC   C2B12392   1.094  38.841   8.406
  722POPC   C3B12393   1.266  38.892   8.009
  722POPC   C4B12394   1.240  38.881   7.571
  723POPC   NC312395   4.390  38.144   9.611
  723POPC   PO412396   4.234  38.790   9.688
  723POPC   GL112397   4.316  38.604   9.267
  723POPC   GL212398   4.600  38.378   9.194
  723POPC   C1A12399   4.212  38.638   8.817
  723POPC   D2A12400   4.039  38.824   8.423
  723POPC   C3A12401   4.159  38.576   8.072
  723POPC   C4A12402   4.297  38.489   7.681
  723POPC   C1B12403   4.728  38.620   8.832
  723POPC   C2B12404   4.577  38.580   8.421
  723POPC   C3B12405   4.661  38.789   8.057
  723POPC   C4B12406   4.803  38.768   7.634
  724POPC   NC312407  30.397  22.454   9.354
  724POPC   PO412408  30.019  21.950   9.688
  724POPC   GL112409  29.994  22.047   9.222
  724POPC   GL212410  29.878  22.383   9.172
  724POPC   C1A12411  29.986  22.018   8.746
  724POPC   D2A12412  30.068  21.686   8.424
  724POPC   C3A12413  30.184  21.820   8.049
  724POPC   C4A12414  29.983  21.962   7.717
  724POPC   C1B12415  29.699  22.443   8.788
  724POPC   C2B12416  29.857  22.453   8.401
  724POPC   C3B12417  29.846  22.384   7.977
  724POPC   C4B12418  30.161  22.532   7.739
  725POPC   NC312419   5.349   8.254   9.569
  725POPC   PO412420   6.009   8.197   9.613
  725POPC   GL112421   5.960   8.124   9.194
  725POPC   GL212422   5.595   8.121   9.110
  725POPC   C1A12423   5.999   8.015   8.785
  725POPC   D2A12424   5.728   8.196   8.497
  725POPC   C3A12425   5.925   8.163   8.122
  725POPC   C4A12426   5.777   8.124   7.738
  725POPC   C1B12427   5.494   8.486   8.880
  725POPC   C2B12428   5.415   8.607   8.487
  725POPC   C3B12429   5.582   8.568   8.078
  725POPC   C4B12430   5.380   8.506   7.685
  726POPC   NC312431  14.217  37.068   9.353
  726POPC   PO412432  14.692  36.627   9.372
  726POPC   GL112433  14.505  36.745   8.995
  726POPC   GL212434  14.526  37.085   8.970
  726POPC   C1A12435  14.591  36.873   8.528
  726POPC   D2A12436  14.774  37.201   8.263
  726POPC   C3A12437  14.540  37.146   7.884
  726POPC   C4A12438  14.586  37.199   7.420
  726POPC   C1B12439  14.119  36.945   8.732
  726POPC   C2B12440  14.109  36.708   8.353
  726POPC   C3B12441  14.091  36.884   7.951
  726POPC   C4B12442  14.103  37.178   7.622
  727POPC   NC312443   5.477  13.597   9.509
  727POPC   PO412444   4.857  13.744   9.470
  727POPC   GL112445   5.090  13.555   9.111
  727POPC   GL212446   5.459  13.537   9.012
  727POPC   C1A12447   5.125  13.759   8.688
  727POPC   D2A12448   5.318  13.882   8.305
  727POPC   C3A12449   5.045  13.826   7.933
  727POPC   C4A12450   5.009  13.418   7.811
  727POPC   C1B12451   5.283  13.252   8.707
  727POPC   C2B12452   5.259  13.284   8.259
  727POPC   C3B12453   5.485  13.505   7.941
  727POPC   C4B12454   5.479  13.488   7.500
  728POPC   NC312455  31.309  15.127   9.435
  728POPC   PO412456  31.903  15.584   9.588
  728POPC   GL112457  31.688  15.413   9.247
  728POPC   GL212458  31.787  15.052   9.181
  728POPC   C1A12459  31.451  15.385   8.852
  728POPC   D2A12460  31.242  15.185   8.532
  728POPC   C3A12461  31.304  15.320   8.113
  728POPC   C4A12462  31.572  15.265   7.818
  728POPC   C1B12463  31.708  14.940   8.751
  728POPC   C2B12464  31.582  14.865   8.305
  728POPC   C3B12465  31.608  14.770   7.872
  728POPC   C4B12466  31.373  14.928   7.522
  729POPC   NC312467  23.864   8.312   9.522
  729POPC   PO412468  23.980   7.587   9.554
  729POPC   GL112469  23.839   7.880   9.201
  729POPC   GL212470  23.645   8.235   9.082
  729POPC   C1A12471  24.019   8.052   8.817
  729POPC   D2A12472  23.824   8.280   8.466
  729POPC   C3A12473  23.908   8.034   8.105
  729POPC   C4A12474  23.828   8.082   7.643
  729POPC   C1B12475  23.516   7.956   8.771
  729POPC   C2B12476  23.401   7.979   8.348
  729POPC   C3B12477  23.427   8.136   7.970
  729POPC   C4B12478  23.278   8.075   7.601
  730POPC   NC312479  37.041  18.574   9.839
  730POPC   PO412480  36.631  18.250   9.458
  730POPC   GL112481  36.771  18.395   9.077
  730POPC   GL212482  37.070  18.563   9.191
  730POPC   C1A12483  36.691  18.135   8.706
  730POPC   D2A12484  36.506  18.160   8.301
  730POPC   C3A12485  36.833  18.059   7.980
  730POPC   C4A12486  37.051  18.176   7.595
  730POPC   C1B12487  37.202  18.322   8.800
  730POPC   C2B12488  37.042  18.330   8.389
  730POPC   C3B12489  37.218  18.388   8.016
  730POPC   C4B12490  37.126  18.669   7.709
  731POPC   NC312491  40.983  36.301   9.689
  731POPC   PO412492  40.507  36.814   9.523
  731POPC   GL112493  40.643  36.775   9.149
  731POPC   GL212494  40.850  36.997   9.079
  731POPC   C1A12495  40.573  36.697   8.754
  731POPC   D2A12496  40.734  36.983   8.452
  731POPC   C3A12497  40.866  36.911   8.017
  731POPC   C4A12498  40.697  36.874   7.584
  731POPC   C1B12499  41.101  37.218   8.817
  731POPC   C2B12500  41.211  37.159   8.405
  731POPC   C3B12501  41.250  37.253   7.978
  731POPC   C4B12502  41.194  37.021   7.608
  732POPC   NC312503  24.782  22.766   9.570
  732POPC   PO412504  24.242  23.138   9.585
  732POPC   GL112505  24.478  23.081   9.221
  732POPC   GL212506  24.720  23.290   9.331
  732POPC   C1A12507  24.539  22.915   8.792
  732POPC   D2A12508  24.425  23.033   8.340
  732POPC   C3A12509  24.403  22.957   7.885
  732POPC   C4A12510  24.178  22.915   7.442
  732POPC   C1B12511  24.785  23.351   8.883
  732POPC   C2B12512  24.637  23.464   8.470
  732POPC   C3B12513  24.744  23.406   8.047
  732POPC   C4B12514  24.887  23.368   7.628
  733POPC   NC312515   7.753  14.561   9.539
  733POPC   PO412516   8.289  14.126   9.456
  733POPC   GL112517   8.211  14.283   9.087
  733POPC   GL212518   7.935  14.491   9.044
  733POPC   C1A12519   8.384  14.418   8.739
  733POPC   D2A12520   8.193  14.405   8.358
  733POPC   C3A12521   8.440  14.435   8.011
  733POPC   C4A12522   8.400  14.191   7.647
  733POPC   C1B12523   7.711  14.535   8.638
  733POPC   C2B12524   7.800  14.666   8.197
  733POPC   C3B12525   7.949  14.437   7.840
  733POPC   C4B12526   7.922  14.013   7.776
  734POPC   NC312527  23.887   6.778   9.479
  734POPC   PO412528  23.721   6.148   9.543
  734POPC   GL112529  24.013   6.380   9.151
  734POPC   GL212530  23.925   6.754   8.994
  734POPC   C1A12531  24.099   6.434   8.662
  734POPC   D2A12532  23.816   6.765   8.482
  734POPC   C3A12533  23.817   6.911   8.072
  734POPC   C4A12534  23.642   6.577   7.837
  734POPC   C1B12535  23.525   6.943   8.865
  734POPC   C2B12536  23.382   7.103   8.449
  734POPC   C3B12537  23.299   7.002   8.009
  734POPC   C4B12538  23.535   7.028   7.649
  735POPC   NC312539  32.622  31.636   9.314
  735POPC   PO412540  32.479  31.157   9.892
  735POPC   GL112541  32.450  31.162   9.364
  735POPC   GL212542  32.170  31.428   9.213
  735POPC   C1A12543  32.473  31.200   8.857
  735POPC   D2A12544  32.522  31.581   8.589
  735POPC   C3A12545  32.539  31.537   8.128
  735POPC   C4A12546  32.449  31.173   7.888
  735POPC   C1B12547  32.038  31.477   8.749
  735POPC   C2B12548  31.946  31.480   8.269
  735POPC   C3B12549  32.088  31.635   7.836
  735POPC   C4B12550  32.103  31.860   7.397
  736POPC   NC312551  18.951   3.321   9.805
  736POPC   PO412552  19.287   3.825   9.669
  736POPC   GL112553  19.093   3.527   9.336
  736POPC   GL212554  19.367   3.407   9.152
  736POPC   C1A12555  18.886   3.506   8.910
  736POPC   D2A12556  18.944   3.800   8.533
  736POPC   C3A12557  19.075   3.634   8.176
  736POPC   C4A12558  18.951   3.271   8.004
  736POPC   C1B12559  19.340   3.565   8.728
  736POPC   C2B12560  19.398   3.295   8.377
  736POPC   C3B12561  19.474   3.384   7.967
  736POPC   C4B12562  19.298   3.700   7.705
  737POPC   NC312563  37.072  18.086   9.386
  737POPC   PO412564  36.922  17.403   9.469
  737POPC   GL112565  36.826  17.627   9.127
  737POPC   GL212566  37.174  17.586   9.013
  737POPC   C1A12567  36.592  17.599   8.748
  737POPC   D2A12568  36.776  17.697   8.368
  737POPC   C3A12569  36.626  17.574   7.980
  737POPC   C4A12570  36.921  17.674   7.625
  737POPC   C1B12571  36.982  17.245   8.767
  737POPC   C2B12572  37.100  17.094   8.365
  737POPC   C3B12573  37.072  17.351   7.984
  737POPC   C4B12574  37.273  17.326   7.528
  738POPC   NC312575  43.458  41.318   9.519
  738POPC   PO412576  43.011  41.906   9.432
  738POPC   GL112577  42.970  41.695   9.088
  738POPC   GL212578  43.116  41.386   9.160
  738POPC   C1A12579  43.084  41.661   8.688
  738POPC   D2A12580  42.992  41.675   8.268
  738POPC   C3A12581  43.070  41.268   8.043
  738POPC   C4A12582  42.860  41.166   7.680
  738POPC   C1B12583  43.393  41.257   8.819
  738POPC   C2B12584  43.435  41.412   8.385
  738POPC   C3B12585  43.440  41.621   8.014
  738POPC   C4B12586  43.381  41.414   7.593
  739POPC   NC312587  43.000   4.304   9.577
  739POPC   PO412588  43.669   4.199   9.561
  739POPC   GL112589  43.392   4.352   9.188
  739POPC   GL212590  43.010   4.436   9.083
  739POPC   C1A12591  43.406   4.470   8.761
  739POPC   D2A12592  43.197   4.203   8.456
  739POPC   C3A12593  43.291   4.337   8.062
  739POPC   C4A12594  43.084   4.411   7.715
  739POPC   C1B12595  42.769   4.107   8.796
  739POPC   C2B12596  42.760   3.949   8.335
  739POPC   C3B12597  42.745   4.063   7.892
  739POPC   C4B12598  42.610   4.378   7.563
  740POPC   NC312599  35.380  30.986   9.614
  740POPC   PO412600  35.561  30.332   9.469
  740POPC   GL112601  35.376  30.647   9.209
  740POPC   GL212602  35.623  30.915   9.187
  740POPC   C1A12603  35.203  30.581   8.811
  740POPC   D2A12604  35.042  30.491   8.407
  740POPC   C3A12605  35.257  30.453   8.043
  740POPC   C4A12606  34.985  30.381   7.713
  740POPC   C1B12607  35.457  31.036   8.817
  740POPC   C2B12608  35.355  30.880   8.429
  740POPC   C3B12609  35.136  30.924   8.068
  740POPC   C4B12610  35.523  31.059   7.883
  741POPC   NC312611  42.440   4.927   9.504
  741POPC   PO412612  42.623   5.530   9.504
  741POPC   GL112613  42.454   5.292   9.136
  741POPC   GL212614  42.121   5.277   9.267
  741POPC   C1A12615  42.438   5.069   8.722
  741POPC   D2A12616  42.369   4.858   8.316
  741POPC   C3A12617  42.480   5.062   7.929
  741POPC   C4A12618  42.403   4.971   7.458
  741POPC   C1B12619  42.008   5.323   8.834
  741POPC   C2B12620  42.202   5.416   8.422
  741POPC   C3B12621  42.026   5.389   8.025
  741POPC   C4B12622  42.002   5.078   7.743
  742POPC   NC312623   4.226  19.507  10.075
  742POPC   PO412624   4.359  19.976   9.636
  742POPC   GL112625   4.204  19.742   9.247
  742POPC   GL212626   4.457  19.695   9.047
  742POPC   C1A12627   4.029  19.848   8.817
  742POPC   D2A12628   4.127  19.705   8.407
  742POPC   C3A12629   4.111  19.965   8.070
  742POPC   C4A12630   4.196  19.843   7.688
  742POPC   C1B12631   4.454  20.134   8.882
  742POPC   C2B12632   4.386  20.154   8.480
  742POPC   C3B12633   4.573  20.177   8.124
  742POPC   C4B12634   4.547  20.202   7.726
  743POPC   NC312635  11.566  22.657   9.433
  743POPC   PO412636  11.321  22.035   9.696
  743POPC   GL112637  11.223  22.247   9.340
  743POPC   GL212638  11.547  22.180   9.196
  743POPC   C1A12639  11.015  22.172   8.944
  743POPC   D2A12640  11.158  22.169   8.514
  743POPC   C3A12641  10.976  22.106   8.102
  743POPC   C4A12642  11.113  22.192   7.696
  743POPC   C1B12643  11.714  22.383   8.824
  743POPC   C2B12644  11.678  22.174   8.451
  743POPC   C3B12645  11.485  22.179   8.077
  743POPC   C4B12646  11.617  22.079   7.681
  744POPC   NC312647  20.347  39.798   9.594
  744POPC   PO412648  20.709  39.240   9.656
  744POPC   GL112649  20.726  39.361   9.186
  744POPC   GL212650  20.975  39.631   9.137
  744POPC   C1A12651  20.604  39.135   8.772
  744POPC   D2A12652  20.430  39.004   8.371
  744POPC   C3A12653  20.525  39.170   7.959
  744POPC   C4A12654  20.684  39.219   7.498
  744POPC   C1B12655  20.875  39.555   8.693
  744POPC   C2B12656  20.888  39.342   8.278
  744POPC   C3B12657  20.828  39.556   7.856
  744POPC   C4B12658  20.964  39.644   7.387
  745POPC   NC312659  17.220  14.693   9.480
  745POPC   PO412660  17.883  14.676   9.744
  745POPC   GL112661  17.693  14.484   9.340
  745POPC   GL212662  17.400  14.245   9.288
  745POPC   C1A12663  17.690  14.458   8.859
  745POPC   D2A12664  17.689  14.619   8.398
  745POPC   C3A12665  17.597  14.434   7.950
  745POPC   C4A12666  17.472  14.489   7.476
  745POPC   C1B12667  17.300  14.132   8.837
  745POPC   C2B12668  17.353  14.199   8.365
  745POPC   C3B12669  17.446  13.944   7.968
  745POPC   C4B12670  17.294  13.969   7.505
  746POPC   NC312671  39.004  28.449   9.503
  746POPC   PO412672  38.376  28.146   9.645
  746POPC   GL112673  38.565  28.281   9.254
  746POPC   GL212674  38.413  27.985   9.143
  746POPC   C1A12675  38.766  28.481   8.866
  746POPC   D2A12676  38.584  28.465   8.446
  746POPC   C3A12677  38.700  28.523   8.038
  746POPC   C4A12678  38.398  28.691   7.813
  746POPC   C1B12679  38.330  28.168   8.775
  746POPC   C2B12680  38.215  28.096   8.374
  746POPC   C3B12681  38.321  28.201   7.989
  746POPC   C4B12682  38.277  28.035   7.622
  747POPC   NC312683  16.055  20.038   9.514
  747POPC   PO412684  16.104  19.382   9.388
  747POPC   GL112685  15.943  19.622   9.025
  747POPC   GL212686  16.018  19.974   9.007
  747POPC   C1A12687  15.901  19.685   8.571
  747POPC   D2A12688  16.114  19.798   8.194
  747POPC   C3A12689  15.896  19.606   7.845
  747POPC   C4A12690  15.676  19.419   7.478
  747POPC   C1B12691  15.627  20.046   8.811
  747POPC   C2B12692  15.487  20.087   8.400
  747POPC   C3B12693  15.679  20.141   8.017
  747POPC   C4B12694  15.997  20.106   7.721
  748POPC   NC312695   4.231  12.781   9.952
  748POPC   PO412696   4.549  12.989   9.407
  748POPC   GL112697   4.219  12.744   9.223
  748POPC   GL212698   4.194  12.975   8.996
  748POPC   C1A12699   4.259  12.512   8.822
  748POPC   D2A12700   4.202  12.667   8.418
  748POPC   C3A12701   4.490  12.604   8.111
  748POPC   C4A12702   4.360  12.623   7.689
  748POPC   C1B12703   4.539  12.941   8.746
  748POPC   C2B12704   4.484  13.134   8.374
  748POPC   C3B12705   4.276  13.049   8.015
  748POPC   C4B12706   4.401  13.105   7.588
  749POPC   NC312707  24.156  11.449   9.346
  749POPC   PO412708  24.771  11.338   9.577
  749POPC   GL112709  24.606  11.186   9.182
  749POPC   GL212710  24.349  10.931   9.265
  749POPC   C1A12711  24.624  11.287   8.727
  749POPC   D2A12712  24.811  11.198   8.312
  749POPC   C3A12713  24.738  11.548   8.012
  749POPC   C4A12714  24.348  11.611   7.814
  749POPC   C1B12715  24.462  10.810   8.841
  749POPC   C2B12716  24.359  10.929   8.428
  749POPC   C3B12717  24.359  11.143   8.040
  749POPC   C4B12718  24.361  11.064   7.618
  750POPC   NC312719  42.005  35.180   9.801
  750POPC   PO412720  42.636  35.284   9.744
  750POPC   GL112721  42.470  35.399   9.330
  750POPC   GL212722  42.115  35.338   9.288
  750POPC   C1A12723  42.441  35.365   8.880
  750POPC   D2A12724  42.261  35.313   8.472
  750POPC   C3A12725  42.391  35.546   8.124
  750POPC   C4A12726  42.506  35.314   7.754
  750POPC   C1B12727  41.926  35.489   8.886
  750POPC   C2B12728  41.866  35.645   8.459
  750POPC   C3B12729  41.912  35.395   8.093
  750POPC   C4B12730  42.043  35.562   7.709
  751POPC   NC312731   4.361  39.503   9.360
  751POPC   PO412732   4.490  40.179   9.559
  751POPC   GL112733   4.157  39.965   9.319
  751POPC   GL212734   4.404  39.935   9.073
  751POPC   C1A12735   3.929  40.007   8.905
  751POPC   D2A12736   4.100  40.031   8.488
  751POPC   C3A12737   3.867  39.965   8.122
  751POPC   C4A12738   3.998  40.103   7.748
  751POPC   C1B12739   4.564  40.120   8.710
  751POPC   C2B12740   4.660  40.011   8.290
  751POPC   C3B12741   4.505  40.210   7.910
  751POPC   C4B12742   4.618  40.212   7.473
  752POPC   NC312743  10.090   6.362   9.314
  752POPC   PO412744   9.803   5.671   9.404
  752POPC   GL112745   9.804   5.971   9.108
  752POPC   GL212746   9.559   6.240   9.229
  752POPC   C1A12747   9.806   5.809   8.681
  752POPC   D2A12748   9.646   5.705   8.275
  752POPC   C3A12749   9.713   5.976   7.925
  752POPC   C4A12750   9.753   5.694   7.572
  752POPC   C1B12751   9.438   6.125   8.807
  752POPC   C2B12752   9.559   6.199   8.398
  752POPC   C3B12753   9.405   6.399   8.049
  752POPC   C4B12754   9.323   6.227   7.674
  753POPC   NC312755  38.261  20.620   9.578
  753POPC   PO412756  38.915  20.976   9.397
  753POPC   GL112757  38.658  20.695   9.090
  753POPC   GL212758  38.318  20.552   9.100
  753POPC   C1A12759  38.446  20.779   8.679
  753POPC   D2A12760  38.408  21.106   8.391
  753POPC   C3A12761  38.430  20.870   8.054
  753POPC   C4A12762  38.351  20.806   7.627
  753POPC   C1B12763  38.350  20.285   8.721
  753POPC   C2B12764  38.545  20.428   8.313
  753POPC   C3B12765  38.408  20.372   7.881
  753POPC   C4B12766  38.252  19.958   7.825
  754POPC   NC312767  17.752  20.867   9.937
  754POPC   PO412768  17.301  20.456  10.053
  754POPC   GL112769  17.377  20.712   9.559
  754POPC   GL212770  17.136  20.604   9.283
  754POPC   C1A12771  17.562  20.691   9.043
  754POPC   D2A12772  17.601  20.494   8.592
  754POPC   C3A12773  17.690  20.660   8.157
  754POPC   C4A12774  17.814  20.588   7.729
  754POPC   C1B12775  17.090  20.817   8.874
  754POPC   C2B12776  17.236  20.835   8.458
  754POPC   C3B12777  17.217  20.532   8.118
  754POPC   C4B12778  17.250  20.613   7.687
  755POPC   NC312779  37.972  36.559   9.459
  755POPC   PO412780  37.552  37.047   9.625
  755POPC   GL112781  37.695  36.948   9.237
  755POPC   GL212782  37.362  36.824   9.145
  755POPC   C1A12783  37.720  36.911   8.802
  755POPC   D2A12784  37.916  36.797   8.435
  755POPC   C3A12785  37.655  36.930   8.090
  755POPC   C4A12786  37.661  36.718   7.695
  755POPC   C1B12787  37.174  36.794   8.745
  755POPC   C2B12788  37.162  36.981   8.321
  755POPC   C3B12789  37.194  36.832   7.876
  755POPC   C4B12790  37.257  36.862   7.417
  756POPC   NC312791  43.479  25.590   9.835
  756POPC   PO412792  43.093  26.136   9.575
  756POPC   GL112793  42.925  26.164   9.184
  756POPC   GL212794  43.022  25.852   9.127
  756POPC   C1A12795  42.836  26.154   8.740
  756POPC   D2A12796  43.092  26.041   8.366
  756POPC   C3A12797  42.851  25.979   8.007
  756POPC   C4A12798  42.902  26.053   7.567
  756POPC   C1B12799  43.131  25.723   8.765
  756POPC   C2B12800  43.213  25.556   8.372
  756POPC   C3B12801  43.231  25.645   7.920
  756POPC   C4B12802  42.986  25.555   7.557
  757POPC   NC312803  32.067  37.333   9.359
  757POPC   PO412804  32.455  37.943   9.519
  757POPC   GL112805  32.235  37.786   9.211
  757POPC   GL212806  31.918  37.879   9.270
  757POPC   C1A12807  32.290  37.613   8.807
  757POPC   D2A12808  32.139  37.513   8.445
  757POPC   C3A12809  32.364  37.640   8.114
  757POPC   C4A12810  32.201  37.565   7.720
  757POPC   C1B12811  31.803  37.781   8.835
  757POPC   C2B12812  31.808  37.965   8.421
  757POPC   C3B12813  31.849  38.126   7.974
  757POPC   C4B12814  31.971  37.973   7.558
  758POPC   NC312815  13.985   7.467   9.272
  758POPC   PO412816  14.658   7.410   9.413
  758POPC   GL112817  14.453   7.440   9.045
  758POPC   GL212818  14.327   7.129   9.088
  758POPC   C1A12819  14.257   7.575   8.656
  758POPC   D2A12820  14.124   7.389   8.258
  758POPC   C3A12821  14.270   7.616   7.897
  758POPC   C4A12822  14.474   7.708   7.526
  758POPC   C1B12823  14.627   6.971   8.786
  758POPC   C2B12824  14.730   7.012   8.344
  758POPC   C3B12825  14.618   7.222   7.946
  758POPC   C4B12826  14.818   7.131   7.553
  759POPC   NC312827  26.904  10.108   9.786
  759POPC   PO412828  26.825  10.694   9.909
  759POPC   GL112829  26.749  10.737   9.444
  759POPC   GL212830  26.451  10.545   9.357
  759POPC   C1A12831  26.881  10.565   9.019
  759POPC   D2A12832  27.124  10.583   8.600
  759POPC   C3A12833  26.935  10.368   8.219
  759POPC   C4A12834  27.002  10.277   7.780
  759POPC   C1B12835  26.400  10.768   8.950
  759POPC   C2B12836  26.592  10.627   8.551
  759POPC   C3B12837  26.528  10.671   8.114
  759POPC   C4B12838  26.524  10.388   7.794
  760POPC   NC312839  31.743  26.978   9.655
  760POPC   PO412840  31.511  26.417   9.407
  760POPC   GL112841  31.535  26.825   9.196
  760POPC   GL212842  31.878  26.944   9.168
  760POPC   C1A12843  31.399  26.875   8.774
  760POPC   D2A12844  31.465  26.538   8.468
  760POPC   C3A12845  31.478  26.689   8.031
  760POPC   C4A12846  31.255  26.624   7.645
  760POPC   C1B12847  31.897  26.815   8.757
  760POPC   C2B12848  31.817  26.893   8.363
  760POPC   C3B12849  31.956  27.052   7.984
  760POPC   C4B12850  31.653  27.017   7.655
  761POPC   NC312851  37.040  10.047   9.408
  761POPC   PO412852  36.643   9.540   9.456
  761POPC   GL112853  36.906   9.550   9.104
  761POPC   GL212854  36.938   9.878   8.928
  761POPC   C1A12855  36.788   9.441   8.674
  761POPC   D2A12856  36.604   9.669   8.331
  761POPC   C3A12857  36.859   9.785   7.986
  761POPC   C4A12858  36.755   9.826   7.547
  761POPC   C1B12859  37.346  10.029   8.757
  761POPC   C2B12860  37.535  10.020   8.358
  761POPC   C3B12861  37.339   9.984   7.949
  761POPC   C4B12862  37.214  10.074   7.493
  762POPC   NC312863   4.868  37.294   9.391
  762POPC   PO412864   5.351  36.833   9.546
  762POPC   GL112865   5.117  36.853   9.153
  762POPC   GL212866   4.740  36.864   9.147
  762POPC   C1A12867   5.105  36.962   8.716
  762POPC   D2A12868   5.245  36.938   8.318
  762POPC   C3A12869   4.985  36.861   7.955
  762POPC   C4A12870   5.161  36.631   7.592
  762POPC   C1B12871   4.621  37.089   8.780
  762POPC   C2B12872   4.697  37.068   8.360
  762POPC   C3B12873   4.606  37.244   7.988
  762POPC   C4B12874   4.773  37.219   7.601
  763POPC   NC312875  18.643  21.682   9.256
  763POPC   PO412876  19.069  22.258   9.516
  763POPC   GL112877  19.244  22.320   9.128
  763POPC   GL212878  19.269  22.008   9.032
  763POPC   C1A12879  19.014  22.345   8.740
  763POPC   D2A12880  18.971  22.142   8.348
  763POPC   C3A12881  19.083  22.362   8.018
  763POPC   C4A12882  18.983  22.632   7.689
  763POPC   C1B12883  19.030  21.794   8.726
  763POPC   C2B12884  18.850  21.641   8.351
  763POPC   C3B12885  18.815  21.828   7.959
  763POPC   C4B12886  18.936  22.045   7.651
  764POPC   NC312887   4.243  16.319   9.420
  764POPC   PO412888   4.213  16.992   9.443
  764POPC   GL112889   4.350  16.870   9.077
  764POPC   GL212890   4.075  16.663   9.044
  764POPC   C1A12891   4.198  16.971   8.654
  764POPC   D2A12892   3.924  16.721   8.380
  764POPC   C3A12893   4.098  16.673   7.941
  764POPC   C4A12894   4.511  16.792   7.721
  764POPC   C1B12895   4.308  16.468   8.707
  764POPC   C2B12896   4.211  16.303   8.291
  764POPC   C3B12897   4.461  16.320   7.924
  764POPC   C4B12898   4.441  16.331   7.482
  765POPC   NC312899   2.095  44.886   9.591
  765POPC   PO412900   1.963  44.220   9.644
  765POPC   GL112901   2.007  44.505   9.240
  765POPC   GL212902   1.823  44.846   9.175
  765POPC   C1A12903   2.246  44.569   8.834
  765POPC   D2A12904   2.231  44.344   8.441
  765POPC   C3A12905   2.119  44.508   8.067
  765POPC   C4A12906   2.104  44.707   7.689
  765POPC   C1B12907   1.741  44.695   8.787
  765POPC   C2B12908   1.741  44.520   8.406
  765POPC   C3B12909   1.636  44.694   8.011
  765POPC   C4B12910   1.635  44.486   7.623
  766POPC   NC312911  42.618   7.126   9.199
  766POPC   PO412912  42.477   7.772   9.361
  766POPC   GL112913  42.234   7.686   9.005
  766POPC   GL212914  42.172   7.322   9.013
  766POPC   C1A12915  42.432   7.716   8.608
  766POPC   D2A12916  42.545   7.744   8.172
  766POPC   C3A12917  42.508   7.382   7.985
  766POPC   C4A12918  42.356   7.422   7.599
  766POPC   C1B12919  42.173   7.279   8.570
  766POPC   C2B12920  42.065   7.536   8.220
  766POPC   C3B12921  41.974   7.255   7.888
  766POPC   C4B12922  42.013   7.082   7.467
  767POPC   NC312923  23.476  24.047   9.293
  767POPC   PO412924  23.828  23.615   9.721
  767POPC   GL112925  23.904  23.683   9.260
  767POPC   GL212926  23.951  24.023   9.120
  767POPC   C1A12927  23.767  23.677   8.804
  767POPC   D2A12928  23.572  23.895   8.441
  767POPC   C3A12929  23.707  23.609   8.131
  767POPC   C4A12930  23.556  23.478   7.739
  767POPC   C1B12931  24.185  23.965   8.765
  767POPC   C2B12932  24.092  23.882   8.365
  767POPC   C3B12933  23.928  24.085   8.030
  767POPC   C4B12934  24.051  24.141   7.628
  768POPC   NC312935   3.723  44.091   9.415
  768POPC   PO412936   3.457  44.684   9.635
  768POPC   GL112937   3.725  44.598   9.278
  768POPC   GL212938   3.432  44.571   9.118
  768POPC   C1A12939   3.845  44.754   8.834
  768POPC   D2A12940   3.845  44.963   8.386
  768POPC   C3A12941   3.670  44.741   7.978
  768POPC   C4A12942   3.488  44.683   7.530
  768POPC   C1B12943   3.241  44.473   8.758
  768POPC   C2B12944   3.196  44.337   8.372
  768POPC   C3B12945   3.202  44.490   7.970
  768POPC   C4B12946   3.263  44.231   7.630
  769POPC   NC312947  13.389  31.976   9.288
  769POPC   PO412948  13.903  32.383   9.484
  769POPC   GL112949  13.779  32.304   9.035
  769POPC   GL212950  13.591  32.041   8.837
  769POPC   C1A12951  13.854  32.367   8.571
  769POPC   D2A12952  13.613  32.459   8.184
  769POPC   C3A12953  13.745  32.233   7.821
  769POPC   C4A12954  13.829  32.001   7.391
  769POPC   C1B12955  13.327  32.336   8.649
  769POPC   C2B12956  13.219  32.125   8.269
  769POPC   C3B12957  13.170  32.315   7.880
  769POPC   C4B12958  13.365  32.280   7.495
  770POPC   NC312959   1.562  24.675   9.560
  770POPC   PO412960   1.034  24.210   9.579
  770POPC   GL112961   1.198  24.461   9.239
  770POPC   GL212962   0.939  24.720   9.167
  770POPC   C1A12963   1.438  24.599   8.879
  770POPC   D2A12964   1.577  24.494   8.452
  770POPC   C3A12965   1.459  24.808   8.144
  770POPC   C4A12966   1.176  24.711   7.812
  770POPC   C1B12967   0.962  24.499   8.751
  770POPC   C2B12968   1.014  24.563   8.292
  770POPC   C3B12969   0.807  24.385   7.899
  770POPC   C4B12970   0.801  24.583   7.476
  771POPC   NC312971   1.536   3.699   9.622
  771POPC   PO412972   0.989   3.634   9.389
  771POPC   GL112973   1.332   3.575   9.141
  771POPC   GL212974   1.304   3.908   9.112
  771POPC   C1A12975   1.282   3.397   8.728
  771POPC   D2A12976   0.903   3.389   8.439
  771POPC   C3A12977   1.043   3.444   8.012
  771POPC   C4A12978   1.428   3.404   7.836
  771POPC   C1B12979   1.061   3.861   8.758
  771POPC   C2B12980   1.205   3.797   8.375
  771POPC   C3B12981   1.055   3.961   8.021
  771POPC   C4B12982   1.160   3.817   7.614
  772POPC   NC312983  19.591  23.432   9.501
  772POPC   PO412984  19.906  22.739   9.580
  772POPC   GL112985  19.899  22.999   9.208
  772POPC   GL212986  19.538  23.052   9.127
  772POPC   C1A12987  20.009  22.813   8.792
  772POPC   D2A12988  19.815  22.754   8.375
  772POPC   C3A12989  19.994  22.648   7.954
  772POPC   C4A12990  19.949  22.647   7.503
  772POPC   C1B12991  19.708  23.243   8.771
  772POPC   C2B12992  19.727  23.347   8.360
  772POPC   C3B12993  19.739  23.096   8.004
  772POPC   C4B12994  19.913  23.121   7.634
  773POPC   NC312995   2.245  29.672   9.443
  773POPC   PO412996   1.567  30.012   9.536
  773POPC   GL112997   1.893  29.992   9.232
  773POPC   GL212998   2.160  30.264   9.166
  773POPC   C1A12999   1.834  29.807   8.841
  773POPC   D2A13000   1.883  29.994   8.466
  773POPC   C3A13001   1.913  29.789   8.115
  773POPC   C4A13002   1.773  29.935   7.767
  773POPC   C1B13003   2.312  30.089   8.737
  773POPC   C2B13004   2.318  30.137   8.245
  773POPC   C3B13005   2.280  30.040   7.793
  773POPC   C4B13006   2.554  30.027   7.406
  774POPC   NC313007  32.269  24.678   9.429
  774POPC   PO413008  32.764  24.313   9.696
  774POPC   GL113009  32.706  24.451   9.247
  774POPC   GL213010  32.804  24.152   9.210
  774POPC   C1A13011  32.502  24.608   8.827
  774POPC   D2A13012  32.273  24.678   8.417
  774POPC   C3A13013  32.369  24.577   8.003
  774POPC   C4A13014  32.037  24.585   7.718
  774POPC   C1B13015  32.562  24.072   8.866
  774POPC   C2B13016  32.527  24.244   8.470
  774POPC   C3B13017  32.538  24.076   8.068
  774POPC   C4B13018  32.352  24.129   7.690
  775POPC   NC313019  13.876  27.727   9.528
  775POPC   PO413020  14.478  27.472   9.761
  775POPC   GL113021  14.311  27.605   9.290
  775POPC   GL213022  14.422  27.912   9.163
  775POPC   C1A13023  14.064  27.734   8.860
  775POPC   D2A13024  13.920  27.658   8.420
  775POPC   C3A13025  14.194  27.596   8.063
  775POPC   C4A13026  14.504  27.269   7.898
  775POPC   C1B13027  14.533  27.564   8.829
  775POPC   C2B13028  14.605  27.525   8.387
  775POPC   C3B13029  14.671  27.756   8.008
  775POPC   C4B13030  14.820  27.738   7.629
  776POPC   NC313031  36.877  11.032   9.361
  776POPC   PO413032  36.689  10.373   9.394
  776POPC   GL113033  37.049  10.498   9.147
  776POPC   GL213034  37.189  10.816   8.988
  776POPC   C1A13035  36.984  10.372   8.758
  776POPC   D2A13036  36.943  10.084   8.433
  776POPC   C3A13037  36.984  10.306   8.085
  776POPC   C4A13038  36.896  10.460   7.717
  776POPC   C1B13039  36.827  10.858   8.734
  776POPC   C2B13040  36.725  10.620   8.390
  776POPC   C3B13041  36.519  10.669   8.041
  776POPC   C4B13042  36.653  10.900   7.707
  777POPC   NC313043  25.682  11.463   9.616
  777POPC   PO413044  26.281  11.184   9.633
  777POPC   GL113045  26.121  11.283   9.215
  777POPC   GL213046  25.880  11.530   9.146
  777POPC   C1A13047  26.136  11.218   8.767
  777POPC   D2A13048  26.190  10.923   8.449
  777POPC   C3A13049  26.253  11.095   8.057
  777POPC   C4A13050  26.009  11.175   7.758
  777POPC   C1B13051  25.801  11.627   8.714
  777POPC   C2B13052  26.122  11.594   8.379
  777POPC   C3B13053  26.209  11.601   7.940
  777POPC   C4B13054  26.050  11.602   7.498
  778POPC   NC313055  35.953   4.846   9.428
  778POPC   PO413056  36.418   5.299   9.567
  778POPC   GL113057  36.217   5.243   9.151
  778POPC   GL213058  35.903   5.311   9.024
  778POPC   C1A13059  36.330   5.288   8.705
  778POPC   D2A13060  36.343   4.946   8.405
  778POPC   C3A13061  36.273   5.058   7.984
  778POPC   C4A13062  36.265   5.513   7.864
  778POPC   C1B13063  35.837   5.157   8.609
  778POPC   C2B13064  35.900   5.361   8.222
  778POPC   C3B13065  35.833   5.207   7.802
  778POPC   C4B13066  35.733   5.135   7.388
  779POPC   NC313067  15.200  24.738   9.803
  779POPC   PO413068  14.878  24.230   9.499
  779POPC   GL113069  15.122  24.519   9.190
  779POPC   GL213070  15.270  24.842   9.281
  779POPC   C1A13071  15.221  24.500   8.747
  779POPC   D2A13072  15.314  24.287   8.339
  779POPC   C3A13073  15.007  24.455   8.066
  779POPC   C4A13074  14.948  24.610   7.653
  779POPC   C1B13075  15.567  24.829   8.932
  779POPC   C2B13076  15.657  24.625   8.514
  779POPC   C3B13077  15.468  24.709   8.084
  779POPC   C4B13078  15.402  24.815   7.634
  780POPC   NC313079   8.162  15.347   9.500
  780POPC   PO413080   7.581  14.979   9.451
  780POPC   GL113081   8.015  15.004   9.162
  780POPC   GL213082   8.326  14.828   9.042
  780POPC   C1A13083   8.232  15.323   8.850
  780POPC   D2A13084   8.083  15.383   8.433
  780POPC   C3A13085   8.179  15.448   7.983
  780POPC   C4A13086   8.282  15.268   7.549
  780POPC   C1B13087   8.130  14.854   8.661
  780POPC   C2B13088   8.284  14.932   8.270
  780POPC   C3B13089   8.135  14.914   7.881
  780POPC   C4B13090   8.345  14.688   7.569
  781POPC   NC313091  29.377  14.039   9.538
  781POPC   PO413092  29.024  13.455   9.734
  781POPC   GL113093  29.109  13.575   9.295
  781POPC   GL213094  29.457  13.579   9.262
  781POPC   C1A13095  29.059  13.506   8.825
  781POPC   D2A13096  28.837  13.727   8.441
  781POPC   C3A13097  29.060  13.813   8.076
  781POPC   C4A13098  29.195  13.537   7.764
  781POPC   C1B13099  29.493  13.816   8.874
  781POPC   C2B13100  29.370  13.666   8.466
  781POPC   C3B13101  29.555  13.709   8.072
  781POPC   C4B13102  29.481  13.952   7.704
  782POPC   NC313103  26.195  12.537   9.623
  782POPC   PO413104  25.944  11.851   9.561
  782POPC   GL113105  26.011  12.015   9.169
  782POPC   GL213106  25.940  12.329   9.193
  782POPC   C1A13107  26.195  11.973   8.753
  782POPC   D2A13108  26.302  12.248   8.412
  782POPC   C3A13109  26.274  12.095   8.004
  782POPC   C4A13110  26.458  11.913   7.611
  782POPC   C1B13111  26.082  12.480   8.822
  782POPC   C2B13112  25.831  12.556   8.485
  782POPC   C3B13113  25.865  12.495   8.086
  782POPC   C4B13114  26.090  12.474   7.737
  783POPC   NC313115   5.608  29.628   9.439
  783POPC   PO413116   6.181  30.051   9.499
  783POPC   GL113117   6.025  29.834   9.153
  783POPC   GL213118   5.700  29.980   9.068
  783POPC   C1A13119   6.012  29.707   8.716
  783POPC   D2A13120   6.039  29.936   8.320
  783POPC   C3A13121   6.168  29.783   7.931
  783POPC   C4A13122   6.027  29.903   7.523
  783POPC   C1B13123   5.811  30.224   8.684
  783POPC   C2B13124   5.647  30.280   8.247
  783POPC   C3B13125   5.571  30.068   7.845
  783POPC   C4B13126   5.515  29.853   7.434
  784POPC   NC313127  31.077  21.763   9.889
  784POPC   PO413128  31.542  22.093   9.542
  784POPC   GL113129  31.418  22.172   9.136
  784POPC   GL213130  31.371  22.493   9.032
  784POPC   C1A13131  31.630  22.109   8.755
  784POPC   D2A13132  31.577  22.315   8.392
  784POPC   C3A13133  31.400  22.061   8.120
  784POPC   C4A13134  31.472  21.908   7.744
  784POPC   C1B13135  31.164  22.327   8.712
  784POPC   C2B13136  31.002  22.326   8.341
  784POPC   C3B13137  31.168  22.515   8.001
  784POPC   C4B13138  31.448  22.407   7.697
  785POPC   NC313139   9.134   6.453   9.592
  785POPC   PO413140   9.142   7.084   9.595
  785POPC   GL113141   9.032   6.844   9.232
  785POPC   GL213142   8.723   6.610   9.217
  785POPC   C1A13143   9.115   6.936   8.810
  785POPC   D2A13144   8.916   6.837   8.460
  785POPC   C3A13145   9.089   6.823   8.079
  785POPC   C4A13146   9.010   6.611   7.746
  785POPC   C1B13147   8.570   6.573   8.771
  785POPC   C2B13148   8.677   6.402   8.339
  785POPC   C3B13149   8.526   6.519   7.946
  785POPC   C4B13150   8.584   6.670   7.499
  786POPC   NC313151  25.678  37.225   9.590
  786POPC   PO413152  26.287  37.161   9.344
  786POPC   GL113153  26.239  36.984   8.981
  786POPC   GL213154  25.921  36.899   9.054
  786POPC   C1A13155  26.076  37.034   8.564
  786POPC   D2A13156  25.859  36.937   8.209
  786POPC   C3A13157  26.188  36.771   8.018
  786POPC   C4A13158  26.466  37.045   7.851
  786POPC   C1B13159  25.739  36.660   8.712
  786POPC   C2B13160  25.706  36.466   8.302
  786POPC   C3B13161  25.752  36.534   7.847
  786POPC   C4B13162  25.785  36.488   7.392
  787POPC   NC313163  34.477  11.635   9.470
  787POPC   PO413164  34.848  11.078   9.541
  787POPC   GL113165  34.719  11.297   9.183
  787POPC   GL213166  34.883  11.592   9.151
  787POPC   C1A13167  34.493  11.238   8.816
  787POPC   D2A13168  34.520  10.962   8.472
  787POPC   C3A13169  34.516  11.130   8.061
  787POPC   C4A13170  34.207  11.204   7.739
  787POPC   C1B13171  34.733  11.672   8.793
  787POPC   C2B13172  34.705  11.463   8.398
  787POPC   C3B13173  34.751  11.600   7.978
  787POPC   C4B13174  34.717  11.777   7.588
  788POPC   NC313175   2.020  14.585   9.595
  788POPC   PO413176   1.690  14.001   9.503
  788POPC   GL113177   1.902  14.250   9.170
  788POPC   GL213178   2.040  14.596   9.105
  788POPC   C1A13179   2.158  14.185   8.807
  788POPC   D2A13180   2.303  14.245   8.393
  788POPC   C3A13181   1.900  14.125   8.178
  788POPC   C4A13182   1.918  14.146   7.738
  788POPC   C1B13183   2.157  14.686   8.727
  788POPC   C2B13184   1.913  14.586   8.409
  788POPC   C3B13185   2.065  14.572   8.014
  788POPC   C4B13186   1.912  14.685   7.638
  789POPC   NC313187  28.251  41.307   9.613
  789POPC   PO413188  28.467  40.612   9.573
  789POPC   GL113189  28.304  40.681   9.165
  789POPC   GL213190  28.616  40.813   9.076
  789POPC   C1A13191  28.277  40.719   8.706
  789POPC   D2A13192  28.397  40.891   8.311
  789POPC   C3A13193  28.187  40.728   7.936
  789POPC   C4A13194  28.207  40.825   7.471
  789POPC   C1B13195  28.790  41.117   8.782
  789POPC   C2B13196  28.853  41.136   8.352
  789POPC   C3B13197  28.863  40.749   8.125
  789POPC   C4B13198  28.645  40.675   7.741
  790POPC   NC313199   9.243  37.901   9.614
  790POPC   PO413200   8.887  37.352   9.508
  790POPC   GL113201   8.848  37.559   9.154
  790POPC   GL213202   8.676  37.876   9.226
  790POPC   C1A13203   9.053  37.527   8.778
  790POPC   D2A13204   9.166  37.457   8.390
  790POPC   C3A13205   8.971  37.608   8.033
  790POPC   C4A13206   9.252  37.461   7.721
  790POPC   C1B13207   9.034  37.994   8.948
  790POPC   C2B13208   9.180  37.988   8.503
  790POPC   C3B13209   9.112  38.123   8.081
  790POPC   C4B13210   9.132  37.960   7.687
  791POPC   NC313211  17.284   4.917   9.479
  791POPC   PO413212  17.678   5.510   9.329
  791POPC   GL113213  17.323   5.249   9.101
  791POPC   GL213214  17.465   4.854   9.013
  791POPC   C1A13215  17.211   5.086   8.661
  791POPC   D2A13216  17.472   5.105   8.293
  791POPC   C3A13217  17.324   4.921   7.950
  791POPC   C4A13218  17.073   5.208   7.750
  791POPC   C1B13219  17.696   5.174   8.779
  791POPC   C2B13220  17.926   5.236   8.465
  791POPC   C3B13221  17.906   5.365   8.053
  791POPC   C4B13222  17.726   5.113   7.722
  792POPC   NC313223  20.364  34.843   9.586
  792POPC   PO413224  20.886  34.375   9.603
  792POPC   GL113225  20.820  34.317   9.177
  792POPC   GL213226  20.611  34.583   9.187
  792POPC   C1A13227  20.632  34.276   8.733
  792POPC   D2A13228  20.391  34.476   8.372
  792POPC   C3A13229  20.573  34.631   7.990
  792POPC   C4A13230  20.626  34.475   7.588
  792POPC   C1B13231  20.566  34.776   8.773
  792POPC   C2B13232  20.495  35.003   8.381
  792POPC   C3B13233  20.314  35.075   7.984
  792POPC   C4B13234  20.462  34.992   7.541
  793POPC   NC313235   2.400   7.996   9.613
  793POPC   PO413236   1.806   7.744   9.544
  793POPC   GL113237   2.059   8.061   9.217
  793POPC   GL213238   2.351   8.371   9.278
  793POPC   C1A13239   2.004   8.014   8.758
  793POPC   D2A13240   1.773   8.198   8.375
  793POPC   C3A13241   1.902   7.973   7.982
  793POPC   C4A13242   1.862   7.951   7.511
  793POPC   C1B13243   2.446   8.314   8.857
  793POPC   C2B13244   2.260   8.347   8.460
  793POPC   C3B13245   2.379   8.282   8.083
  793POPC   C4B13246   2.243   8.291   7.706
  794POPC   NC313247   6.260  42.171   9.570
  794POPC   PO413248   6.919  42.319   9.529
  794POPC   GL113249   6.790  42.138   9.167
  794POPC   GL213250   6.438  42.145   9.090
  794POPC   C1A13251   6.878  42.277   8.762
  794POPC   D2A13252   6.953  42.558   8.413
  794POPC   C3A13253   6.856  42.381   8.014
  794POPC   C4A13254   6.652  42.092   7.764
  794POPC   C1B13255   6.358  42.247   8.637
  794POPC   C2B13256   6.290  42.222   8.192
  794POPC   C3B13257   6.268  42.490   7.847
  794POPC   C4B13258   6.185  42.486   7.407
  795POPC   NC313259  18.907  31.276   9.960
  795POPC   PO413260  18.943  31.784   9.579
  795POPC   GL113261  19.075  31.671   9.165
  795POPC   GL213262  19.178  31.345   9.140
  795POPC   C1A13263  18.979  31.600   8.748
  795POPC   D2A13264  19.119  31.421   8.383
  795POPC   C3A13265  18.987  31.496   7.988
  795POPC   C4A13266  19.026  31.748   7.650
  795POPC   C1B13267  19.426  31.367   8.791
  795POPC   C2B13268  19.599  31.190   8.437
  795POPC   C3B13269  19.474  31.320   8.016
  795POPC   C4B13270  19.294  31.288   7.598
  796POPC   NC313271  14.724  40.684   9.596
  796POPC   PO413272  15.408  40.823   9.580
  796POPC   GL113273  15.276  40.973   9.162
  796POPC   GL213274  14.958  40.915   9.191
  796POPC   C1A13275  15.215  40.842   8.746
  796POPC   D2A13276  15.068  40.601   8.418
  796POPC   C3A13277  15.191  40.810   8.079
  796POPC   C4A13278  15.305  41.076   7.762
  796POPC   C1B13279  14.718  40.797   8.816
  796POPC   C2B13280  14.519  40.658   8.457
  796POPC   C3B13281  14.635  40.652   8.059
  796POPC   C4B13282  14.849  40.782   7.715
  797POPC   NC313283  19.022   5.694   9.754
  797POPC   PO413284  19.387   6.265   9.475
  797POPC   GL113285  19.074   5.905   9.288
  797POPC   GL213286  19.099   5.541   9.257
  797POPC   C1A13287  19.000   5.818   8.851
  797POPC   D2A13288  19.169   6.077   8.472
  797POPC   C3A13289  18.972   6.090   8.063
  797POPC   C4A13290  18.930   5.807   7.715
  797POPC   C1B13291  19.335   5.435   8.872
  797POPC   C2B13292  19.210   5.541   8.476
  797POPC   C3B13293  19.310   5.715   8.113
  797POPC   C4B13294  19.366   5.544   7.723
  798POPC   NC313295  42.251  20.048   9.341
  798POPC   PO413296  42.311  20.643   9.674
  798POPC   GL113297  42.427  20.577   9.213
  798POPC   GL213298  42.685  20.275   9.171
  798POPC   C1A13299  42.476  20.835   8.792
  798POPC   D2A13300  42.209  20.945   8.398
  798POPC   C3A13301  42.370  20.812   7.989
  798POPC   C4A13302  42.140  20.688   7.644
  798POPC   C1B13303  42.443  20.307   8.774
  798POPC   C2B13304  42.444  20.480   8.378
  798POPC   C3B13305  42.484  20.305   7.971
  798POPC   C4B13306  42.755  20.112   7.663
  799POPC   NC313307   7.472  18.761   9.484
  799POPC   PO413308   7.742  18.080   9.511
  799POPC   GL113309   7.366  18.210   9.254
  799POPC   GL213310   7.588  18.167   9.007
  799POPC   C1A13311   7.116  18.171   8.837
  799POPC   D2A13312   7.205  18.377   8.440
  799POPC   C3A13313   7.168  18.222   8.038
  799POPC   C4A13314   7.489  18.203   7.724
  799POPC   C1B13315   7.509  18.570   8.824
  799POPC   C2B13316   7.590  18.726   8.401
  799POPC   C3B13317   7.482  18.645   7.977
  799POPC   C4B13318   7.580  18.667   7.520
  800POPC   NC313319  38.809  34.874   9.816
  800POPC   PO413320  38.537  35.442   9.449
  800POPC   GL113321  38.621  35.460   9.090
  800POPC   GL213322  38.319  35.269   8.965
  800POPC   C1A13323  38.793  35.202   8.710
  800POPC   D2A13324  38.618  35.228   8.310
  800POPC   C3A13325  38.796  35.073   7.953
  800POPC   C4A13326  38.568  34.909   7.610
  800POPC   C1B13327  38.443  35.582   8.665
  800POPC   C2B13328  38.613  35.784   8.417
  800POPC   C3B13329  38.486  35.658   8.067
  800POPC   C4B13330  38.544  35.440   7.713
  801POPC   NC313331  31.852  30.262   9.241
  801POPC   PO413332  32.244  29.881   9.627
  801POPC   GL113333  32.296  29.842   9.187
  801POPC   GL213334  32.035  29.620   9.058
  801POPC   C1A13335  32.241  29.993   8.758
  801POPC   D2A13336  32.215  30.294   8.438
  801POPC   C3A13337  32.356  30.161   8.051
  801POPC   C4A13338  32.086  30.057   7.753
  801POPC   C1B13339  31.887  29.381   8.685
  801POPC   C2B13340  31.785  29.430   8.245
  801POPC   C3B13341  31.858  29.590   7.790
  801POPC   C4B13342  32.194  29.679   7.430
  802POPC   NC313343  37.776  18.775   9.562
  802POPC   PO413344  37.548  19.378   9.441
  802POPC   GL113345  37.812  19.233   9.142
  802POPC   GL213346  37.761  18.899   9.085
  802POPC   C1A13347  37.619  19.212   8.718
  802POPC   D2A13348  37.311  19.361   8.418
  802POPC   C3A13349  37.526  19.516   8.054
  802POPC   C4A13350  37.696  19.216   7.794
  802POPC   C1B13351  37.590  18.672   8.776
  802POPC   C2B13352  37.512  18.581   8.378
  802POPC   C3B13353  37.570  18.754   7.971
  802POPC   C4B13354  37.808  18.726   7.595
  803POPC   NC313355  40.667  10.668   9.424
  803POPC   PO413356  41.329  10.574   9.479
  803POPC   GL113357  41.113  10.712   9.159
  803POPC   GL213358  40.982  10.383   9.166
  803POPC   C1A13359  40.836  10.767   8.798
  803POPC   D2A13360  40.761  10.945   8.396
  803POPC   C3A13361  40.758  10.683   8.058
  803POPC   C4A13362  40.563  10.767   7.696
  803POPC   C1B13363  41.115  10.320   8.789
  803POPC   C2B13364  40.953  10.359   8.397
  803POPC   C3B13365  41.143  10.331   8.003
  803POPC   C4B13366  40.970  10.455   7.638
  804POPC   NC313367   9.641   2.825   9.574
  804POPC   PO413368  10.119   2.467   9.460
  804POPC   GL113369   9.850   2.637   9.117
  804POPC   GL213370   9.603   2.948   9.104
  804POPC   C1A13371   9.836   2.725   8.689
  804POPC   D2A13372   9.747   2.545   8.328
  804POPC   C3A13373   9.977   2.651   7.963
  804POPC   C4A13374   9.963   2.449   7.557
  804POPC   C1B13375   9.363   2.927   8.776
  804POPC   C2B13376   9.483   3.008   8.359
  804POPC   C3B13377   9.419   2.750   7.996
  804POPC   C4B13378   9.635   2.841   7.613
  805POPC   NC313379  11.213  44.485   9.504
  805POPC   PO413380  11.512   0.109   9.507
  805POPC   GL113381  11.594  44.899   9.173
  805POPC   GL213382  11.691  44.624   9.332
  805POPC   C1A13383  11.354  44.696   8.847
  805POPC   D2A13384  11.166  44.412   8.522
  805POPC   C3A13385  11.178  44.603   8.105
  805POPC   C4A13386  11.185  44.747   7.663
  805POPC   C1B13387  11.698  44.329   9.003
  805POPC   C2B13388  11.680  44.391   8.581
  805POPC   C3B13389  11.675  44.389   8.158
  805POPC   C4B13390  11.551  44.437   7.761
  806POPC   NC313391  19.200  12.778  10.038
  806POPC   PO413392  18.980  13.288   9.705
  806POPC   GL113393  19.003  13.110   9.285
  806POPC   GL213394  19.122  12.780   9.180
  806POPC   C1A13395  18.827  13.116   8.883
  806POPC   D2A13396  18.853  12.962   8.489
  806POPC   C3A13397  19.214  13.063   8.256
  806POPC   C4A13398  19.147  12.859   7.901
  806POPC   C1B13399  19.115  12.605   8.740
  806POPC   C2B13400  19.109  12.512   8.282
  806POPC   C3B13401  19.190  12.375   7.851
  806POPC   C4B13402  19.459  12.619   7.580
  807POPC   NC313403  11.865  37.578   9.673
  807POPC   PO413404  12.434  37.929   9.562
  807POPC   GL113405  12.174  37.617   9.254
  807POPC   GL213406  12.386  37.608   8.957
  807POPC   C1A13407  11.896  37.507   8.869
  807POPC   D2A13408  11.761  37.582   8.409
  807POPC   C3A13409  12.113  37.492   8.103
  807POPC   C4A13410  12.171  37.186   7.751
  807POPC   C1B13411  12.213  37.838   8.561
  807POPC   C2B13412  11.972  37.989   8.162
  807POPC   C3B13413  11.713  37.954   7.751
  807POPC   C4B13414  11.756  38.141   7.308
  808POPC   NC313415  26.679  36.049   9.632
  808POPC   PO413416  27.260  36.123   9.453
  808POPC   GL113417  26.936  36.294   9.160
  808POPC   GL213418  26.557  36.276   9.177
  808POPC   C1A13419  26.837  36.230   8.705
  808POPC   D2A13420  26.968  35.952   8.355
  808POPC   C3A13421  26.838  36.040   7.927
  808POPC   C4A13422  27.121  36.281   7.671
  808POPC   C1B13423  26.413  35.990   8.839
  808POPC   C2B13424  26.466  35.892   8.412
  808POPC   C3B13425  26.299  35.828   7.988
  808POPC   C4B13426  26.444  35.931   7.573
  809POPC   NC313427  22.504  26.357   9.362
  809POPC   PO413428  23.117  26.216   9.642
  809POPC   GL113429  22.912  26.048   9.227
  809POPC   GL213430  22.760  25.695   9.134
  809POPC   C1A13431  22.959  25.984   8.750
  809POPC   D2A13432  23.241  26.013   8.371
  809POPC   C3A13433  23.018  26.221   8.033
  809POPC   C4A13434  22.875  26.200   7.598
  809POPC   C1B13435  22.574  25.614   8.692
  809POPC   C2B13436  22.651  25.864   8.293
  809POPC   C3B13437  22.804  25.775   7.867
  809POPC   C4B13438  22.837  25.751   7.377
  810POPC   NC313439   3.848  19.908   9.559
  810POPC   PO413440   3.606  20.448   9.215
  810POPC   GL113441   3.590  20.027   9.130
  810POPC   GL213442   3.696  19.674   9.141
  810POPC   C1A13443   3.514  19.929   8.744
  810POPC   D2A13444   3.739  20.040   8.410
  810POPC   C3A13445   3.528  19.979   8.086
  810POPC   C4A13446   3.346  20.162   7.760
  810POPC   C1B13447   3.673  19.450   8.780
  810POPC   C2B13448   3.631  19.527   8.383
  810POPC   C3B13449   3.809  19.549   8.015
  810POPC   C4B13450   3.697  19.787   7.661
  811POPC   NC313451  29.286  23.486   9.511
  811POPC   PO413452  29.264  24.063   9.191
  811POPC   GL113453  29.412  23.665   9.050
  811POPC   GL213454  29.063  23.513   9.041
  811POPC   C1A13455  29.433  23.435   8.672
  811POPC   D2A13456  29.081  23.465   8.363
  811POPC   C3A13457  29.220  23.576   7.940
  811POPC   C4A13458  29.456  23.939   7.752
  811POPC   C1B13459  28.895  23.799   8.718
  811POPC   C2B13460  29.010  24.019   8.336
  811POPC   C3B13461  28.945  24.026   7.895
  811POPC   C4B13462  28.762  23.747   7.619
  812POPC   NC313463   3.259  10.951   9.796
  812POPC   PO413464   2.680  11.250   9.423
  812POPC   GL113465   2.959  11.306   9.137
  812POPC   GL213466   3.150  11.012   9.279
  812POPC   C1A13467   2.886  11.362   8.682
  812POPC   D2A13468   2.766  11.155   8.298
  812POPC   C3A13469   2.745  11.317   7.851
  812POPC   C4A13470   2.474  11.306   7.451
  812POPC   C1B13471   3.131  10.942   8.813
  812POPC   C2B13472   3.200  10.887   8.362
  812POPC   C3B13473   2.991  10.874   7.944
  812POPC   C4B13474   3.299  11.100   7.733
  813POPC   NC313475  22.388  10.447   9.501
  813POPC   PO413476  21.940  10.865   9.848
  813POPC   GL113477  22.048  10.753   9.310
  813POPC   GL213478  21.941  10.450   9.067
  813POPC   C1A13479  22.397  10.672   8.901
  813POPC   D2A13480  22.387  10.372   8.518
  813POPC   C3A13481  22.350  10.477   8.047
  813POPC   C4A13482  22.055  10.508   7.668
  813POPC   C1B13483  21.907  10.234   8.624
  813POPC   C2B13484  21.853  10.009   8.201
  813POPC   C3B13485  22.030   9.996   7.776
  813POPC   C4B13486  22.437  10.171   7.632
  814POPC   NC313487   2.605  23.460   9.726
  814POPC   PO413488   3.176  23.856   9.599
  814POPC   GL113489   3.050  23.613   9.181
  814POPC   GL213490   2.708  23.575   9.019
  814POPC   C1A13491   3.088  23.363   8.790
  814POPC   D2A13492   2.813  23.462   8.435
  814POPC   C3A13493   2.992  23.422   8.024
  814POPC   C4A13494   2.985  23.701   7.668
  814POPC   C1B13495   2.883  23.883   8.761
  814POPC   C2B13496   2.722  23.987   8.416
  814POPC   C3B13497   2.641  23.812   8.056
  814POPC   C4B13498   2.567  24.076   7.745
  815POPC   NC313499  15.596  16.428   9.196
  815POPC   PO413500  15.957  15.930   9.570
  815POPC   GL113501  15.912  16.031   9.128
  815POPC   GL213502  15.643  15.822   9.107
  815POPC   C1A13503  15.748  16.008   8.653
  815POPC   D2A13504  15.632  16.072   8.213
  815POPC   C3A13505  15.885  15.988   7.873
  815POPC   C4A13506  15.827  15.998   7.436
  815POPC   C1B13507  16.009  15.615   8.873
  815POPC   C2B13508  15.980  15.476   8.490
  815POPC   C3B13509  16.030  15.509   8.070
  815POPC   C4B13510  15.983  15.561   7.636
  816POPC   NC313511  32.629  25.611   9.432
  816POPC   PO413512  32.647  24.941   9.386
  816POPC   GL113513  32.282  25.119   9.164
  816POPC   GL213514  32.272  25.473   9.075
  816POPC   C1A13515  32.228  25.064   8.735
  816POPC   D2A13516  32.563  25.091   8.378
  816POPC   C3A13517  32.449  25.274   7.996
  816POPC   C4A13518  32.266  25.055   7.682
  816POPC   C1B13519  32.473  25.502   8.683
  816POPC   C2B13520  32.137  25.409   8.363
  816POPC   C3B13521  31.931  25.574   8.033
  816POPC   C4B13522  32.211  25.644   7.729
  817POPC   NC313523  44.116  23.406   9.522
  817POPC   PO413524  44.687  23.738   9.345
  817POPC   GL113525  44.600  23.554   9.025
  817POPC   GL213526  44.418  23.267   9.150
  817POPC   C1A13527  44.736  23.659   8.622
  817POPC   D2A13528  44.861  23.962   8.332
  817POPC   C3A13529  44.735  23.805   7.959
  817POPC   C4A13530  44.960  23.580   7.731
  817POPC   C1B13531  44.420  23.200   8.722
  817POPC   C2B13532  44.420  23.336   8.302
  817POPC   C3B13533  44.557  23.272   7.867
  817POPC   C4B13534  44.665  23.331   7.426
  818POPC   NC313535  30.595  40.358   9.578
  818POPC   PO413536  30.468  39.717   9.816
  818POPC   GL113537  30.683  39.874   9.338
  818POPC   GL213538  30.577  40.212   9.113
  818POPC   C1A13539  30.880  39.906   8.870
  818POPC   D2A13540  30.706  39.889   8.426
  818POPC   C3A13541  30.868  40.058   8.030
  818POPC   C4A13542  30.920  40.012   7.566
  818POPC   C1B13543  30.354  39.987   8.794
  818POPC   C2B13544  30.199  40.019   8.363
  818POPC   C3B13545  30.325  40.007   7.914
  818POPC   C4B13546  30.361  40.091   7.442
  819POPC   NC313547  18.880  33.912   9.710
  819POPC   PO413548  19.310  33.894   9.210
  819POPC   GL113549  19.113  33.807   8.921
  819POPC   GL213550  19.210  33.476   8.940
  819POPC   C1A13551  19.150  33.771   8.542
  819POPC   D2A13552  19.061  33.510   8.274
  819POPC   C3A13553  19.122  33.739   7.942
  819POPC   C4A13554  19.351  33.787   7.610
  819POPC   C1B13555  18.854  33.324   8.704
  819POPC   C2B13556  18.576  33.392   8.318
  819POPC   C3B13557  18.772  33.378   7.885
  819POPC   C4B13558  18.891  33.605   7.480
  820POPC   NC313559  20.429  32.358   9.655
  820POPC   PO413560  21.045  32.256   9.517
  820POPC   GL113561  20.692  32.243   9.221
  820POPC   GL213562  20.499  32.578   9.181
  820POPC   C1A13563  20.646  32.107   8.792
  820POPC   D2A13564  20.753  32.225   8.363
  820POPC   C3A13565  20.482  32.020   8.090
  820POPC   C4A13566  20.569  32.032   7.674
  820POPC   C1B13567  20.223  32.520   8.811
  820POPC   C2B13568  20.285  32.452   8.363
  820POPC   C3B13569  20.427  32.499   7.911
  820POPC   C4B13570  20.196  32.327   7.538
  821POPC   NC313571  17.760  25.199   9.482
  821POPC   PO413572  18.447  25.144   9.520
  821POPC   GL113573  18.197  25.209   9.159
  821POPC   GL213574  18.492  25.092   9.008
  821POPC   C1A13575  18.233  25.432   8.742
  821POPC   D2A13576  18.575  25.304   8.478
  821POPC   C3A13577  18.479  25.401   8.061
  821POPC   C4A13578  18.322  25.339   7.654
  821POPC   C1B13579  18.167  24.939   8.715
  821POPC   C2B13580  18.124  25.119   8.309
  821POPC   C3B13581  18.169  24.932   7.892
  821POPC   C4B13582  18.408  24.874   7.446
  822POPC   NC313583  10.431  40.560   9.573
  822POPC   PO413584  10.463  41.275   9.721
  822POPC   GL113585  10.325  41.032   9.322
  822POPC   GL213586  10.551  40.787   9.136
  822POPC   C1A13587  10.193  41.010   8.876
  822POPC   D2A13588  10.300  40.693   8.532
  822POPC   C3A13589  10.536  40.774   8.148
  822POPC   C4A13590  10.496  40.912   7.720
  822POPC   C1B13591  10.737  40.982   8.743
  822POPC   C2B13592  10.954  41.119   8.344
  822POPC   C3B13593  10.958  40.990   7.899
  822POPC   C4B13594  10.844  40.536   7.733
  823POPC   NC313595  22.380  27.188   9.640
  823POPC   PO413596  22.073  26.581   9.434
  823POPC   GL113597  22.280  26.736   9.115
  823POPC   GL213598  22.290  27.068   9.160
  823POPC   C1A13599  22.323  26.616   8.727
  823POPC   D2A13600  21.948  26.654   8.513
  823POPC   C3A13601  22.011  26.729   8.094
  823POPC   C4A13602  22.359  26.815   7.852
  823POPC   C1B13603  22.192  27.105   8.747
  823POPC   C2B13604  22.371  27.037   8.362
  823POPC   C3B13605  22.147  27.240   8.028
  823POPC   C4B13606  21.854  27.104   7.714
  824POPC   NC313607   8.146  36.400   9.301
  824POPC   PO413608   7.988  37.090   9.428
  824POPC   GL113609   8.182  37.048   9.038
  824POPC   GL213610   8.382  36.744   8.991
  824POPC   C1A13611   8.210  37.048   8.602
  824POPC   D2A13612   8.415  36.768   8.350
  824POPC   C3A13613   8.361  36.917   7.932
  824POPC   C4A13614   7.945  36.947   7.772
  824POPC   C1B13615   8.015  36.588   8.692
  824POPC   C2B13616   7.954  36.403   8.269
  824POPC   C3B13617   7.893  36.395   7.804
  824POPC   C4B13618   7.709  36.537   7.393
  825POPC   NC313619  42.878  19.382   9.513
  825POPC   PO413620  43.272  18.884   9.634
  825POPC   GL113621  43.191  19.083   9.233
  825POPC   GL213622  42.826  18.946   9.202
  825POPC   C1A13623  43.346  19.188   8.810
  825POPC   D2A13624  43.150  19.218   8.401
  825POPC   C3A13625  43.274  19.018   7.978
  825POPC   C4A13626  43.299  18.940   7.504
  825POPC   C1B13627  42.980  18.836   8.788
  825POPC   C2B13628  42.860  18.820   8.346
  825POPC   C3B13629  42.783  19.154   8.041
  825POPC   C4B13630  42.772  18.960   7.680
  826POPC   NC313631  20.828  20.847   9.698
  826POPC   PO413632  20.630  20.296   9.395
  826POPC   GL113633  20.560  20.732   9.193
  826POPC   GL213634  20.808  21.001   9.179
  826POPC   C1A13635  20.622  20.731   8.724
  826POPC   D2A13636  20.694  20.378   8.410
  826POPC   C3A13637  20.567  20.446   7.998
  826POPC   C4A13638  20.533  20.859   7.827
  826POPC   C1B13639  20.968  21.108   8.731
  826POPC   C2B13640  20.874  20.960   8.277
  826POPC   C3B13641  21.017  20.709   7.911
  826POPC   C4B13642  21.194  20.700   7.490
  827POPC   NC313643  11.820   8.297   9.551
  827POPC   PO413644  12.379   7.882   9.485
  827POPC   GL113645  12.092   8.110   9.166
  827POPC   GL213646  12.079   8.491   9.123
  827POPC   C1A13647  11.754   8.233   8.856
  827POPC   D2A13648  11.905   8.372   8.466
  827POPC   C3A13649  11.799   8.173   8.094
  827POPC   C4A13650  11.941   8.275   7.670
  827POPC   C1B13651  12.340   8.573   8.770
  827POPC   C2B13652  12.406   8.503   8.326
  827POPC   C3B13653  12.198   8.603   7.937
  827POPC   C4B13654  12.353   8.550   7.507
  828POPC   NC313655  39.251  19.601   9.616
  828POPC   PO413656  38.912  20.079   9.530
  828POPC   GL113657  39.088  19.888   9.184
  828POPC   GL213658  39.441  19.813   9.179
  828POPC   C1A13659  38.990  19.668   8.823
  828POPC   D2A13660  39.008  19.528   8.397
  828POPC   C3A13661  39.190  19.839   8.116
  828POPC   C4A13662  39.091  19.771   7.697
  828POPC   C1B13663  39.509  19.567   8.805
  828POPC   C2B13664  39.541  19.576   8.366
  828POPC   C3B13665  39.636  19.658   7.920
  828POPC   C4B13666  39.555  19.868   7.516
  829POPC   NC313667  15.502  15.666   9.570
  829POPC   PO413668  15.219  16.272   9.436
  829POPC   GL113669  15.112  15.919   9.166
  829POPC   GL213670  15.185  15.563   9.145
  829POPC   C1A13671  15.248  15.898   8.763
  829POPC   D2A13672  15.209  16.175   8.471
  829POPC   C3A13673  15.121  15.978   8.107
  829POPC   C4A13674  15.360  16.162   7.766
  829POPC   C1B13675  15.472  15.441   8.800
  829POPC   C2B13676  15.495  15.610   8.365
  829POPC   C3B13677  15.465  15.665   7.903
  829POPC   C4B13678  15.064  15.664   7.671
  830POPC   NC313679  19.637  36.536   9.184
  830POPC   PO413680  19.738  36.076   9.659
  830POPC   GL113681  19.788  35.995   9.208
  830POPC   GL213682  20.126  35.819   9.168
  830POPC   C1A13683  19.570  36.045   8.775
  830POPC   D2A13684  19.634  36.252   8.369
  830POPC   C3A13685  19.503  35.984   7.996
  830POPC   C4A13686  19.459  35.945   7.519
  830POPC   C1B13687  20.080  36.128   8.807
  830POPC   C2B13688  20.176  36.497   8.530
  830POPC   C3B13689  20.025  36.451   8.088
  830POPC   C4B13690  19.952  36.118   7.795
  831POPC   NC313691  23.621  44.070   9.688
  831POPC   PO413692  23.808  43.446   9.782
  831POPC   GL113693  23.881  43.801   9.357
  831POPC   GL213694  24.012  44.063   9.129
  831POPC   C1A13695  23.622  43.855   8.904
  831POPC   D2A13696  23.749  43.885   8.451
  831POPC   C3A13697  23.454  43.935   8.111
  831POPC   C4A13698  23.440  43.796   7.690
  831POPC   C1B13699  23.829  44.293   8.734
  831POPC   C2B13700  23.775  44.348   8.251
  831POPC   C3B13701  23.814  44.169   7.795
  831POPC   C4B13702  23.811  43.952   7.356
  832POPC   NC313703  40.567  32.990   9.535
  832POPC   PO413704  41.177  32.751   9.737
  832POPC   GL113705  41.163  32.896   9.280
  832POPC   GL213706  40.829  32.827   9.131
  832POPC   C1A13707  41.093  33.174   8.892
  832POPC   D2A13708  40.869  33.083   8.506
  832POPC   C3A13709  41.018  33.170   8.101
  832POPC   C4A13710  40.921  33.086   7.693
  832POPC   C1B13711  40.585  32.749   8.798
  832POPC   C2B13712  40.660  32.605   8.403
  832POPC   C3B13713  40.682  32.796   8.048
  832POPC   C4B13714  40.409  33.045   7.820
  833POPC   NC313715  32.447  16.854   9.859
  833POPC   PO413716  31.981  16.390   9.569
  833POPC   GL113717  32.109  16.675   9.184
  833POPC   GL213718  32.449  16.841   9.197
  833POPC   C1A13719  32.257  16.629   8.752
  833POPC   D2A13720  32.315  16.383   8.379
  833POPC   C3A13721  32.232  16.609   7.984
  833POPC   C4A13722  32.273  16.967   7.720
  833POPC   C1B13723  32.682  16.862   8.770
  833POPC   C2B13724  32.543  16.946   8.329
  833POPC   C3B13725  32.752  17.072   7.895
  833POPC   C4B13726  32.690  17.072   7.410
  834POPC   NC313727   3.632  25.183   9.765
  834POPC   PO413728   4.329  25.202   9.820
  834POPC   GL113729   4.159  25.302   9.335
  834POPC   GL213730   4.204  25.034   9.091
  834POPC   C1A13731   4.279  25.541   8.950
  834POPC   D2A13732   4.314  25.697   8.521
  834POPC   C3A13733   4.361  25.579   8.095
  834POPC   C4A13734   4.023  25.509   7.787
  834POPC   C1B13735   4.445  25.095   8.729
  834POPC   C2B13736   4.468  25.132   8.304
  834POPC   C3B13737   4.241  25.077   7.951
  834POPC   C4B13738   4.522  25.147   7.637
  835POPC   NC313739  40.956   9.384   9.903
  835POPC   PO413740  40.836  10.037   9.659
  835POPC   GL113741  40.884   9.900   9.148
  835POPC   GL213742  41.014   9.583   9.161
  835POPC   C1A13743  40.730   9.977   8.697
  835POPC   D2A13744  40.555   9.884   8.263
  835POPC   C3A13745  40.744  10.046   7.888
  835POPC   C4A13746  40.712  10.075   7.412
  835POPC   C1B13747  40.851   9.463   8.817
  835POPC   C2B13748  40.960   9.364   8.436
  835POPC   C3B13749  40.835   9.459   8.024
  835POPC   C4B13750  40.836   9.630   7.624
  836POPC   NC313751   6.401  14.966   9.371
  836POPC   PO413752   6.222  15.501   9.817
  836POPC   GL113753   6.391  15.473   9.322
  836POPC   GL213754   6.736  15.344   9.194
  836POPC   C1A13755   6.350  15.326   8.831
  836POPC   D2A13756   6.444  14.990   8.474
  836POPC   C3A13757   6.363  15.010   8.047
  836POPC   C4A13758   6.274  15.219   7.682
  836POPC   C1B13759   6.819  15.168   8.753
  836POPC   C2B13760   6.910  15.076   8.285
  836POPC   C3B13761   6.787  15.210   7.854
  836POPC   C4B13762   6.739  15.107   7.420
  837POPC   NC313763   0.028  20.399   9.494
  837POPC   PO413764   0.622  20.685   9.406
  837POPC   GL113765   0.420  20.478   9.131
  837POPC   GL213766   0.171  20.737   9.093
  837POPC   C1A13767   0.543  20.520   8.723
  837POPC   D2A13768   0.404  20.693   8.361
  837POPC   C3A13769   0.565  20.450   8.037
  837POPC   C4A13770   0.527  20.740   7.742
  837POPC   C1B13771   0.035  20.446   8.785
  837POPC   C2B13772   0.187  20.224   8.423
  837POPC   C3B13773   0.076  20.344   8.016
  837POPC   C4B13774   0.279  20.319   7.600
  838POPC   NC313775  36.017  27.060   9.516
  838POPC   PO413776  35.345  26.813   9.652
  838POPC   GL113777  35.241  26.752   9.221
  838POPC   GL213778  35.018  26.985   9.049
  838POPC   C1A13779  35.464  26.792   8.824
  838POPC   D2A13780  35.562  26.604   8.419
  838POPC   C3A13781  35.445  26.693   8.027
  838POPC   C4A13782  35.597  27.084   7.931
  838POPC   C1B13783  35.006  26.585   8.792
  838POPC   C2B13784  35.060  26.403   8.380
  838POPC   C3B13785  34.954  26.665   8.037
  838POPC   C4B13786  35.146  26.830   7.629
  839POPC   NC313787  20.973  11.811   9.390
  839POPC   PO413788  20.621  12.261   9.746
  839POPC   GL113789  20.754  12.255   9.286
  839POPC   GL213790  20.571  12.005   9.107
  839POPC   C1A13791  20.846  12.341   8.814
  839POPC   D2A13792  20.751  12.085   8.442
  839POPC   C3A13793  20.831  12.226   8.034
  839POPC   C4A13794  20.582  12.401   7.718
  839POPC   C1B13795  20.289  11.850   8.765
  839POPC   C2B13796  20.380  11.707   8.327
  839POPC   C3B13797  20.536  11.841   7.898
  839POPC   C4B13798  20.972  11.876   7.680
  840POPC   NC313799   6.306  19.871   9.469
  840POPC   PO413800   6.918  20.161   9.430
  840POPC   GL113801   6.768  19.861   9.136
  840POPC   GL213802   6.480  19.700   9.036
  840POPC   C1A13803   6.963  19.824   8.759
  840POPC   D2A13804   7.002  20.031   8.363
  840POPC   C3A13805   6.644  19.867   8.186
  840POPC   C4A13806   6.468  19.767   7.806
  840POPC   C1B13807   6.537  19.506   8.658
  840POPC   C2B13808   6.311  19.498   8.275
  840POPC   C3B13809   6.377  19.287   7.909
  840POPC   C4B13810   6.461  19.352   7.463
  841POPC   NC313811  44.582  30.274   9.555
  841POPC   PO413812  44.860  30.831   9.722
  841POPC   GL113813  44.649  30.750   9.343
  841POPC   GL213814  44.837  30.984   9.163
  841POPC   C1A13815  44.525  30.580   8.952
  841POPC   D2A13816  44.610  30.648   8.519
  841POPC   C3A13817  44.497  30.451   8.124
  841POPC   C4A13818  44.536  30.609   7.708
  841POPC   C1B13819   0.006  31.085   8.718
  841POPC   C2B13820   0.055  31.057   8.254
  841POPC   C3B13821  44.795  31.086   7.867
  841POPC   C4B13822  44.873  30.905   7.464
  842POPC   NC313823  38.236  34.132   9.566
  842POPC   PO413824  38.816  33.744   9.574
  842POPC   GL113825  38.452  33.757   9.273
  842POPC   GL213826  38.571  34.039   9.195
  842POPC   C1A13827  38.348  33.704   8.847
  842POPC   D2A13828  38.536  33.857   8.464
  842POPC   C3A13829  38.346  33.771   8.062
  842POPC   C4A13830  38.502  33.531   7.708
  842POPC   C1B13831  38.477  34.237   8.844
  842POPC   C2B13832  38.440  34.416   8.475
  842POPC   C3B13833  38.611  34.260   8.146
  842POPC   C4B13834  38.705  34.029   7.817
  843POPC   NC313835  35.493  18.879   9.605
  843POPC   PO413836  35.074  19.361   9.544
  843POPC   GL113837  35.247  19.135   9.185
  843POPC   GL213838  35.630  19.104   9.156
  843POPC   C1A13839  35.311  18.999   8.761
  843POPC   D2A13840  35.456  19.200   8.407
  843POPC   C3A13841  35.303  19.070   8.027
  843POPC   C4A13842  35.296  19.017   7.595
  843POPC   C1B13843  35.646  18.671   8.936
  843POPC   C2B13844  35.608  18.703   8.461
  843POPC   C3B13845  35.816  18.942   8.144
  843POPC   C4B13846  35.793  19.041   7.714
  844POPC   NC313847   0.920  26.848   9.531
  844POPC   PO413848   1.519  27.190   9.618
  844POPC   GL113849   1.324  26.931   9.237
  844POPC   GL213850   1.249  26.567   9.207
  844POPC   C1A13851   1.310  26.837   8.794
  844POPC   D2A13852   1.089  26.921   8.423
  844POPC   C3A13853   1.275  26.809   8.052
  844POPC   C4A13854   1.280  27.031   7.692
  844POPC   C1B13855   0.948  26.454   8.829
  844POPC   C2B13856   0.697  26.593   8.471
  844POPC   C3B13857   0.821  26.615   8.057
  844POPC   C4B13858   0.778  26.886   7.703
  845POPC   NC313859  25.448  22.472   9.633
  845POPC   PO413860  24.825  22.346   9.408
  845POPC   GL113861  25.238  22.365   9.166
  845POPC   GL213862  25.405  22.065   9.288
  845POPC   C1A13863  25.494  22.444   8.759
  845POPC   D2A13864  25.402  22.502   8.297
  845POPC   C3A13865  25.393  22.223   7.940
  845POPC   C4A13866  25.351  22.282   7.515
  845POPC   C1B13867  25.321  21.963   8.832
  845POPC   C2B13868  25.534  21.981   8.396
  845POPC   C3B13869  25.596  21.739   8.007
  845POPC   C4B13870  25.279  21.773   7.665
  846POPC   NC313871  15.167  21.406   9.506
  846POPC   PO413872  15.659  21.907   9.303
  846POPC   GL113873  15.513  21.442   9.096
  846POPC   GL213874  15.160  21.373   9.008
  846POPC   C1A13875  15.484  21.078   8.745
  846POPC   D2A13876  15.465  21.075   8.241
  846POPC   C3A13877  15.458  21.513   8.019
  846POPC   C4A13878  15.183  21.744   7.703
  846POPC   C1B13879  14.874  21.242   8.708
  846POPC   C2B13880  14.870  21.133   8.287
  846POPC   C3B13881  15.017  21.284   7.911
  846POPC   C4B13882  15.069  21.303   7.470
  847POPC   NC313883  33.304  14.690   9.601
  847POPC   PO413884  32.900  14.195   9.546
  847POPC   GL113885  33.022  14.364   9.183
  847POPC   GL213886  32.887  14.689   9.264
  847POPC   C1A13887  33.002  14.332   8.738
  847POPC   D2A13888  32.939  14.475   8.307
  847POPC   C3A13889  32.983  14.253   7.927
  847POPC   C4A13890  33.264  14.391   7.591
  847POPC   C1B13891  32.745  14.878   8.872
  847POPC   C2B13892  32.581  14.835   8.445
  847POPC   C3B13893  32.626  14.767   7.990
  847POPC   C4B13894  32.781  14.580   7.600
  848POPC   NC313895  22.687  39.427   9.589
  848POPC   PO413896  23.193  38.883   9.496
  848POPC   GL113897  22.951  39.144   9.210
  848POPC   GL213898  22.632  39.289   9.113
  848POPC   C1A13899  22.931  39.048   8.781
  848POPC   D2A13900  23.062  38.909   8.409
  848POPC   C3A13901  23.114  39.214   8.097
  848POPC   C4A13902  23.107  39.174   7.658
  848POPC   C1B13903  22.436  39.118   8.748
  848POPC   C2B13904  22.613  39.186   8.331
  848POPC   C3B13905  22.658  39.305   7.909
  848POPC   C4B13906  22.535  39.552   7.590
  849POPC   NC313907   3.047  14.160   9.312
  849POPC   PO413908   3.440  14.560   9.750
  849POPC   GL113909   3.533  14.510   9.270
  849POPC   GL213910   3.709  14.232   9.123
  849POPC   C1A13911   3.537  14.668   8.840
  849POPC   D2A13912   3.717  14.552   8.441
  849POPC   C3A13913   3.526  14.629   8.035
  849POPC   C4A13914   3.561  14.466   7.591
  849POPC   C1B13915   3.407  14.188   8.761
  849POPC   C2B13916   3.299  14.237   8.327
  849POPC   C3B13917   3.226  14.186   7.888
  849POPC   C4B13918   3.186  13.822   7.650
  850POPC   NC313919  13.779  41.181   9.901
  850POPC   PO413920  13.632  40.633   9.536
  850POPC   GL113921  13.675  40.691   9.103
  850POPC   GL213922  13.693  41.061   9.117
  850POPC   C1A13923  13.567  40.817   8.692
  850POPC   D2A13924  13.364  40.991   8.348
  850POPC   C3A13925  13.514  40.882   7.979
  850POPC   C4A13926  13.444  40.617   7.661
  850POPC   C1B13927  13.927  41.163   8.758
  850POPC   C2B13928  13.873  41.062   8.330
  850POPC   C3B13929  13.934  41.170   7.901
  850POPC   C4B13930  13.881  40.866   7.575
  851POPC   NC313931   8.674  13.841   9.543
  851POPC   PO413932   9.274  13.500   9.766
  851POPC   GL113933   9.113  13.580   9.322
  851POPC   GL213934   8.794  13.438   9.219
  851POPC   C1A13935   9.051  13.645   8.846
  851POPC   D2A13936   8.915  13.684   8.437
  851POPC   C3A13937   9.163  13.972   8.177
  851POPC   C4A13938   9.392  14.106   7.775
  851POPC   C1B13939   8.675  13.314   8.802
  851POPC   C2B13940   8.782  13.188   8.385
  851POPC   C3B13941   8.988  13.370   8.038
  851POPC   C4B13942   8.850  13.528   7.675
  852POPC   NC313943  23.256  36.649   9.410
  852POPC   PO413944  23.802  36.450   9.725
  852POPC   GL113945  23.735  36.717   9.224
  852POPC   GL213946  23.481  36.865   9.008
  852POPC   C1A13947  23.874  36.743   8.743
  852POPC   D2A13948  23.710  37.007   8.379
  852POPC   C3A13949  24.000  37.116   8.031
  852POPC   C4A13950  24.256  37.131   7.634
  852POPC   C1B13951  23.356  36.656   8.626
  852POPC   C2B13952  23.294  36.567   8.192
  852POPC   C3B13953  23.536  36.805   7.913
  852POPC   C4B13954  23.527  37.223   7.895
  853POPC   NC313955  10.222  37.742   9.489
  853POPC   PO413956  10.817  37.372   9.604
  853POPC   GL113957  10.959  37.566   9.227
  853POPC   GL213958  10.592  37.538   9.162
  853POPC   C1A13959  10.909  37.760   8.833
  853POPC   D2A13960  10.637  37.622   8.515
  853POPC   C3A13961  10.709  37.725   8.103
  853POPC   C4A13962  10.505  37.714   7.696
  853POPC   C1B13963  10.318  37.398   8.844
  853POPC   C2B13964  10.241  37.284   8.429
  853POPC   C3B13965  10.434  37.306   8.044
  853POPC   C4B13966  10.287  37.139   7.699
  854POPC   NC313967  34.622   1.497   9.547
  854POPC   PO413968  34.313   0.911   9.352
  854POPC   GL113969  34.599   0.975   9.041
  854POPC   GL213970  34.608   1.330   9.074
  854POPC   C1A13971  34.562   1.120   8.601
  854POPC   D2A13972  34.290   1.321   8.304
  854POPC   C3A13973  34.310   1.237   7.874
  854POPC   C4A13974  34.566   1.162   7.543
  854POPC   C1B13975  34.761   1.598   8.727
  854POPC   C2B13976  34.587   1.743   8.357
  854POPC   C3B13977  34.701   1.615   7.983
  854POPC   C4B13978  34.945   1.450   7.721
  855POPC   NC313979  13.409  29.965   9.505
  855POPC   PO413980  14.081  29.640   9.455
  855POPC   GL113981  13.718  29.765   9.128
  855POPC   GL213982  13.604  30.096   9.067
  855POPC   C1A13983  13.534  29.757   8.677
  855POPC   D2A13984  13.730  29.921   8.272
  855POPC   C3A13985  13.518  29.951   7.895
  855POPC   C4A13986  13.297  29.738   7.585
  855POPC   C1B13987  13.740  30.198   8.703
  855POPC   C2B13988  13.402  30.287   8.378
  855POPC   C3B13989  13.494  30.451   7.965
  855POPC   C4B13990  13.875  30.322   7.785
  856POPC   NC313991  27.740  18.111   9.475
  856POPC   PO413992  27.576  18.712   9.624
  856POPC   GL113993  27.666  18.533   9.186
  856POPC   GL213994  27.955  18.377   8.983
  856POPC   C1A13995  27.457  18.318   8.841
  856POPC   D2A13996  27.407  18.454   8.422
  856POPC   C3A13997  27.743  18.433   8.136
  856POPC   C4A13998  27.625  18.333   7.745
  856POPC   C1B13999  27.998  18.002   8.722
  856POPC   C2B14000  27.858  17.929   8.300
  856POPC   C3B14001  28.009  18.009   7.884
  856POPC   C4B14002  27.933  18.048   7.435
  857POPC   NC314003   8.031  22.142   9.543
  857POPC   PO414004   8.707  22.109   9.388
  857POPC   GL114005   8.483  22.219   9.057
  857POPC   GL214006   8.200  21.993   9.078
  857POPC   C1A14007   8.458  22.139   8.609
  857POPC   D2A14008   8.168  21.919   8.381
  857POPC   C3A14009   8.063  22.098   8.013
  857POPC   C4A14010   8.310  22.214   7.668
  857POPC   C1B14011   8.446  21.711   8.859
  857POPC   C2B14012   8.599  21.657   8.432
  857POPC   C3B14013   8.544  21.852   8.014
  857POPC   C4B14014   8.211  21.718   7.709
  858POPC   NC314015   4.173  44.793   9.487
  858POPC   PO414016   4.805  44.900   9.795
  858POPC   GL114017   4.719  44.704   9.321
  858POPC   GL214018   4.757  44.955   9.011
  858POPC   C1A14019   4.468  44.533   8.920
  858POPC   D2A14020   4.241  44.628   8.511
  858POPC   C3A14021   4.461  44.527   8.139
  858POPC   C4A14022   4.265  44.306   7.801
  858POPC   C1B14023   4.380   0.054   8.749
  858POPC   C2B14024   4.323   0.119   8.299
  858POPC   C3B14025   4.172  44.906   7.949
  858POPC   C4B14026   4.473  44.733   7.668
  859POPC   NC314027   1.793  27.106   9.224
  859POPC   PO414028   2.263  27.587   9.524
  859POPC   GL114029   2.182  27.746   9.095
  859POPC   GL214030   2.123  27.445   9.045
  859POPC   C1A14031   1.878  27.711   8.683
  859POPC   D2A14032   1.567  27.536   8.467
  859POPC   C3A14033   1.712  27.672   8.105
  859POPC   C4A14034   1.885  27.699   7.728
  859POPC   C1B14035   2.218  27.301   8.680
  859POPC   C2B14036   2.106  27.140   8.305
  859POPC   C3B14037   2.143  27.303   7.883
  859POPC   C4B14038   2.182  27.376   7.428
  860POPC   NC314039  19.738   3.867   9.517
  860POPC   PO414040  20.101   3.312   9.567
  860POPC   GL114041  19.893   3.416   9.189
  860POPC   GL214042  19.775   3.732   9.031
  860POPC   C1A14043  19.734   3.287   8.790
  860POPC   D2A14044  19.793   3.583   8.453
  860POPC   C3A14045  19.965   3.330   8.119
  860POPC   C4A14046  19.980   3.564   7.765
  860POPC   C1B14047  19.589   4.003   8.724
  860POPC   C2B14048  19.439   3.971   8.311
  860POPC   C3B14049  19.666   3.912   7.944
  860POPC   C4B14050  19.724   3.896   7.457
  861POPC   NC314051  43.397  42.101   9.238
  861POPC   PO414052  43.815  41.627   9.443
  861POPC   GL114053  43.616  41.652   9.079
  861POPC   GL214054  43.853  41.939   9.032
  861POPC   C1A14055  43.805  41.544   8.690
  861POPC   D2A14056  44.177  41.374   8.517
  861POPC   C3A14057  44.221  41.376   8.071
  861POPC   C4A14058  43.870  41.493   7.813
  861POPC   C1B14059  44.197  41.858   8.729
  861POPC   C2B14060  44.102  41.839   8.264
  861POPC   C3B14061  44.226  41.857   7.814
  861POPC   C4B14062  44.347  41.919   7.394
  862POPC   NC314063   2.562  30.515   9.425
  862POPC   PO414064   3.005  30.935   9.428
  862POPC   GL114065   2.737  30.814   9.058
  862POPC   GL214066   2.711  30.439   8.954
  862POPC   C1A14067   2.661  31.024   8.648
  862POPC   D2A14068   2.715  31.053   8.191
  862POPC   C3A14069   2.798  30.715   7.951
  862POPC   C4A14070   2.700  30.334   7.790
  862POPC   C1B14071   2.346  30.611   8.750
  862POPC   C2B14072   2.450  30.621   8.326
  862POPC   C3B14073   2.292  30.647   7.919
  862POPC   C4B14074   2.322  30.500   7.503
  863POPC   NC314075  12.417  38.397   9.545
  863POPC   PO414076  11.820  38.715   9.486
  863POPC   GL114077  12.009  38.395   9.174
  863POPC   GL214078  12.218  38.115   9.153
  863POPC   C1A14079  12.189  38.337   8.716
  863POPC   D2A14080  12.321  38.405   8.300
  863POPC   C3A14081  12.025  38.612   8.071
  863POPC   C4A14082  11.893  38.443   7.702
  863POPC   C1B14083  12.588  38.071   8.892
  863POPC   C2B14084  12.700  38.083   8.485
  863POPC   C3B14085  12.505  37.934   8.123
  863POPC   C4B14086  12.278  38.067   7.764
  864POPC   NC314087  41.731  21.184   9.408
  864POPC   PO414088  41.408  21.778   9.505
  864POPC   GL114089  41.434  21.487   9.129
  864POPC   GL214090  41.819  21.510   9.036
  864POPC   C1A14091  41.505  21.264   8.715
  864POPC   D2A14092  41.797  21.353   8.353
  864POPC   C3A14093  41.516  21.330   7.974
  864POPC   C4A14094  41.558  21.260   7.533
  864POPC   C1B14095  41.979  21.823   8.759
  864POPC   C2B14096  41.849  21.875   8.349
  864POPC   C3B14097  41.918  21.658   7.943
  864POPC   C4B14098  41.979  21.529   7.476
  865POPC   NC314099   4.941  23.480   9.374
  865POPC   PO414100   5.082  24.146   9.511
  865POPC   GL114101   5.106  23.975   9.070
  865POPC   GL214102   5.296  23.665   9.078
  865POPC   C1A14103   4.919  23.752   8.687
  865POPC   D2A14104   4.829  23.703   8.237
  865POPC   C3A14105   5.134  23.897   7.972
  865POPC   C4A14106   5.082  24.076   7.551
  865POPC   C1B14107   5.198  23.328   8.775
  865POPC   C2B14108   5.226  23.410   8.340
  865POPC   C3B14109   5.152  23.381   7.920
  865POPC   C4B14110   5.175  23.582   7.521
  866POPC   NC314111   4.630  43.859   9.531
  866POPC   PO414112   4.094  44.318   9.545
  866POPC   GL114113   4.241  44.044   9.236
  866POPC   GL214114   4.170  43.685   9.307
  866POPC   C1A14115   4.416  43.970   8.830
  866POPC   D2A14116   4.351  44.129   8.432
  866POPC   C3A14117   4.579  44.008   8.078
  866POPC   C4A14118   4.529  43.916   7.631
  866POPC   C1B14119   3.950  43.753   8.904
  866POPC   C2B14120   3.924  43.853   8.475
  866POPC   C3B14121   4.056  43.914   8.049
  866POPC   C4B14122   4.013  43.803   7.620
  867POPC   NC314123  23.680   3.982   9.549
  867POPC   PO414124  23.791   4.606   9.561
  867POPC   GL114125  23.744   4.360   9.194
  867POPC   GL214126  23.421   4.185   9.142
  867POPC   C1A14127  23.826   4.148   8.826
  867POPC   D2A14128  23.611   4.150   8.445
  867POPC   C3A14129  23.844   4.239   8.119
  867POPC   C4A14130  23.993   4.261   7.745
  867POPC   C1B14131  23.212   4.090   8.763
  867POPC   C2B14132  23.088   4.201   8.366
  867POPC   C3B14133  23.323   4.340   8.065
  867POPC   C4B14134  23.501   4.142   7.752
  868POPC   NC314135  22.915  37.723   9.370
  868POPC   PO414136  23.487  37.965   9.403
  868POPC   GL114137  23.253  37.857   9.032
  868POPC   GL214138  22.859  37.908   8.918
  868POPC   C1A14139  23.268  37.690   8.662
  868POPC   D2A14140  23.280  37.960   8.340
  868POPC   C3A14141  23.022  37.798   8.039
  868POPC   C4A14142  23.122  37.476   7.755
  868POPC   C1B14143  22.762  37.557   8.711
  868POPC   C2B14144  22.518  37.654   8.360
  868POPC   C3B14145  22.498  37.874   8.013
  868POPC   C4B14146  22.670  37.639   7.696
  869POPC   NC314147   0.849  16.549   9.558
  869POPC   PO414148   1.495  16.611   9.390
  869POPC   GL114149   1.149  16.568   9.146
  869POPC   GL214150   0.896  16.860   9.148
  869POPC   C1A14151   1.262  16.674   8.751
  869POPC   D2A14152   1.241  16.935   8.461
  869POPC   C3A14153   1.320  16.724   8.120
  869POPC   C4A14154   1.189  16.894   7.773
  869POPC   C1B14155   0.748  16.592   8.805
  869POPC   C2B14156   0.880  16.547   8.369
  869POPC   C3B14157   0.795  16.571   7.910
  869POPC   C4B14158   0.948  16.562   7.461
  870POPC   NC314159  41.029  18.575   9.474
  870POPC   PO414160  40.729  17.980   9.482
  870POPC   GL114161  40.827  18.225   9.121
  870POPC   GL214162  40.661  18.532   9.088
  870POPC   C1A14163  40.921  18.123   8.692
  870POPC   D2A14164  40.827  18.244   8.292
  870POPC   C3A14165  40.634  17.955   8.031
  870POPC   C4A14166  40.402  18.001   7.667
  870POPC   C1B14167  40.783  18.635   8.676
  870POPC   C2B14168  40.599  18.718   8.243
  870POPC   C3B14169  40.586  18.439   7.865
  870POPC   C4B14170  40.976  18.213   7.775
  871POPC   NC314171  17.378  34.156   9.415
  871POPC   PO414172  17.525  33.486   9.475
  871POPC   GL114173  17.559  33.745   9.157
  871POPC   GL214174  17.186  33.766   9.120
  871POPC   C1A14175  17.545  33.750   8.738
  871POPC   D2A14176  17.741  33.854   8.342
  871POPC   C3A14177  17.656  33.698   7.940
  871POPC   C4A14178  17.684  33.997   7.590
  871POPC   C1B14179  17.007  33.926   8.736
  871POPC   C2B14180  17.208  33.821   8.373
  871POPC   C3B14181  17.158  33.672   8.021
  871POPC   C4B14182  17.233  33.807   7.647
  872POPC   NC314183  20.390   1.395   9.639
  872POPC   PO414184  20.702   0.685   9.725
  872POPC   GL114185  20.703   1.122   9.375
  872POPC   GL214186  20.990   1.257   9.224
  872POPC   C1A14187  20.630   1.120   8.896
  872POPC   D2A14188  20.540   1.182   8.424
  872POPC   C3A14189  20.647   1.463   8.067
  872POPC   C4A14190  20.632   1.356   7.628
  872POPC   C1B14191  21.014   1.437   8.789
  872POPC   C2B14192  21.068   1.266   8.367
  872POPC   C3B14193  21.040   1.103   7.956
  872POPC   C4B14194  20.871   0.837   7.677
  873POPC   NC314195  20.993  25.825   9.229
  873POPC   PO414196  20.732  26.251   9.743
  873POPC   GL114197  20.675  26.261   9.215
  873POPC   GL214198  20.350  26.082   9.072
  873POPC   C1A14199  20.703  26.125   8.722
  873POPC   D2A14200  20.505  25.934   8.333
  873POPC   C3A14201  20.672  26.101   7.974
  873POPC   C4A14202  20.944  25.895   7.722
  873POPC   C1B14203  20.226  25.802   8.733
  873POPC   C2B14204  20.014  25.677   8.336
  873POPC   C3B14205  20.088  25.723   7.873
  873POPC   C4B14206  20.362  25.942   7.600
  874POPC   NC314207   3.274  12.442   9.511
  874POPC   PO414208   3.930  12.508   9.665
  874POPC   GL114209   3.690  12.623   9.244
  874POPC   GL214210   3.697  12.983   9.136
  874POPC   C1A14211   3.363  12.623   8.890
  874POPC   D2A14212   3.300  12.965   8.587
  874POPC   C3A14213   3.343  12.898   8.135
  874POPC   C4A14214   3.513  13.118   7.805
  874POPC   C1B14215   3.805  12.823   8.733
  874POPC   C2B14216   3.808  12.972   8.334
  874POPC   C3B14217   3.846  12.734   7.984
  874POPC   C4B14218   3.934  12.931   7.627
  875POPC   NC314219  40.967  27.351   9.432
  875POPC   PO414220  40.591  27.810   9.545
  875POPC   GL114221  40.723  27.768   9.137
  875POPC   GL214222  40.959  28.009   9.075
  875POPC   C1A14223  40.752  27.465   8.779
  875POPC   D2A14224  40.502  27.212   8.511
  875POPC   C3A14225  40.454  27.309   8.072
  875POPC   C4A14226  40.713  27.511   7.776
  875POPC   C1B14227  40.760  27.967   8.667
  875POPC   C2B14228  40.803  27.723   8.269
  875POPC   C3B14229  41.034  27.880   7.909
  875POPC   C4B14230  40.976  27.976   7.453
  876POPC   NC314231  31.269   2.677   9.575
  876POPC   PO414232  31.867   2.687   9.560
  876POPC   GL114233  31.704   2.584   9.159
  876POPC   GL214234  31.438   2.807   9.124
  876POPC   C1A14235  31.732   2.727   8.740
  876POPC   D2A14236  31.485   2.723   8.389
  876POPC   C3A14237  31.690   2.784   7.995
  876POPC   C4A14238  31.706   2.591   7.593
  876POPC   C1B14239  31.140   2.668   8.801
  876POPC   C2B14240  30.960   2.645   8.375
  876POPC   C3B14241  31.192   2.662   7.984
  876POPC   C4B14242  31.221   2.650   7.541
  877POPC   NC314243  44.476  39.423   9.540
  877POPC   PO414244  44.504  38.881   9.257
  877POPC   GL114245  44.716  39.162   9.053
  877POPC   GL214246  44.880  39.452   9.218
  877POPC   C1A14247  44.463  39.192   8.686
  877POPC   D2A14248  44.503  39.053   8.267
  877POPC   C3A14249  44.414  39.292   7.945
  877POPC   C4A14250  44.763  39.147   7.733
  877POPC   C1B14251  44.757  39.593   8.797
  877POPC   C2B14252  44.625  39.567   8.393
  877POPC   C3B14253  44.861  39.522   8.059
  877POPC   C4B14254  44.764  39.633   7.635
  878POPC   NC314255   7.640  24.392   9.552
  878POPC   PO414256   7.083  24.022   9.695
  878POPC   GL114257   7.302  24.271   9.207
  878POPC   GL214258   7.399  24.664   9.162
  878POPC   C1A14259   7.173  24.405   8.746
  878POPC   D2A14260   7.486  24.554   8.488
  878POPC   C3A14261   7.525  24.415   8.091
  878POPC   C4A14262   7.474  24.218   7.707
  878POPC   C1B14263   7.250  24.915   8.777
  878POPC   C2B14264   7.053  24.769   8.370
  878POPC   C3B14265   7.108  24.701   7.930
  878POPC   C4B14266   7.475  24.740   7.700
  879POPC   NC314267  22.083  24.604   9.849
  879POPC   PO414268  22.142  23.999   9.481
  879POPC   GL114269  22.052  23.731   9.116
  879POPC   GL214270  21.931  23.396   9.120
  879POPC   C1A14271  22.044  23.751   8.683
  879POPC   D2A14272  22.156  24.079   8.412
  879POPC   C3A14273  22.020  23.976   8.038
  879POPC   C4A14274  22.216  23.866   7.706
  879POPC   C1B14275  21.691  23.342   8.736
  879POPC   C2B14276  21.790  23.475   8.306
  879POPC   C3B14277  22.115  23.464   7.990
  879POPC   C4B14278  22.471  23.340   7.746
  880POPC   NC314279  36.186  43.434   9.718
  880POPC   PO414280  36.439  42.989   9.356
  880POPC   GL114281  36.085  42.924   9.124
  880POPC   GL214282  36.266  43.115   8.890
  880POPC   C1A14283  35.933  42.758   8.737
  880POPC   D2A14284  36.099  42.914   8.360
  880POPC   C3A14285  35.886  42.854   7.952
  880POPC   C4A14286  35.939  43.020   7.529
  880POPC   C1B14287  36.551  43.178   8.556
  880POPC   C2B14288  36.538  43.190   8.111
  880POPC   C3B14289  36.398  43.268   7.675
  880POPC   C4B14290  36.608  43.094   7.305
  881POPC   NC314291  11.609  34.334   9.551
  881POPC   PO414292  10.964  34.206   9.505
  881POPC   GL114293  11.249  34.456   9.200
  881POPC   GL214294  11.591  34.538   9.095
  881POPC   C1A14295  11.173  34.726   8.865
  881POPC   D2A14296  11.075  34.599   8.444
  881POPC   C3A14297  10.944  34.869   8.117
  881POPC   C4A14298  11.048  34.988   7.676
  881POPC   C1B14299  11.414  34.303   8.748
  881POPC   C2B14300  11.490  34.320   8.328
  881POPC   C3B14301  11.418  34.319   7.888
  881POPC   C4B14302  11.394  34.647   7.572
  882POPC   NC314303   5.188  31.171   9.465
  882POPC   PO414304   4.975  31.825   9.551
  882POPC   GL114305   4.929  31.540   9.223
  882POPC   GL214306   5.319  31.599   9.203
  882POPC   C1A14307   4.789  31.246   8.870
  882POPC   D2A14308   4.622  31.146   8.435
  882POPC   C3A14309   4.722  30.975   8.018
  882POPC   C4A14310   4.861  31.259   7.689
  882POPC   C1B14311   5.173  31.572   8.786
  882POPC   C2B14312   5.056  31.410   8.423
  882POPC   C3B14313   5.184  31.456   8.029
  882POPC   C4B14314   5.359  31.623   7.677
  883POPC   NC314315  34.052   1.298   9.328
  883POPC   PO414316  33.664   0.881   9.545
  883POPC   GL114317  33.834   0.885   9.127
  883POPC   GL214318  33.599   1.122   9.041
  883POPC   C1A14319  33.987   1.043   8.706
  883POPC   D2A14320  33.797   1.389   8.447
  883POPC   C3A14321  33.815   1.288   8.025
  883POPC   C4A14322  33.831   0.945   7.720
  883POPC   C1B14323  33.442   1.482   8.826
  883POPC   C2B14324  33.234   1.548   8.430
  883POPC   C3B14325  33.361   1.514   8.016
  883POPC   C4B14326  33.450   1.516   7.573
  884POPC   NC314327   7.821  33.351   9.592
  884POPC   PO414328   8.010  32.667   9.428
  884POPC   GL114329   8.190  32.967   9.168
  884POPC   GL214330   7.877  33.190   9.100
  884POPC   C1A14331   8.487  32.944   8.805
  884POPC   D2A14332   8.596  32.651   8.463
  884POPC   C3A14333   8.536  32.841   8.027
  884POPC   C4A14334   8.289  32.869   7.602
  884POPC   C1B14335   7.891  32.865   8.780
  884POPC   C2B14336   8.140  32.837   8.423
  884POPC   C3B14337   8.019  32.944   8.024
  884POPC   C4B14338   7.785  33.107   7.680
  885POPC   NC314339  28.760  14.539   9.447
  885POPC   PO414340  29.361  14.645   9.284
  885POPC   GL114341  29.138  14.285   9.126
  885POPC   GL214342  28.872  14.483   8.961
  885POPC   C1A14343  29.080  14.110   8.696
  885POPC   D2A14344  29.081  14.447   8.384
  885POPC   C3A14345  29.226  14.303   7.999
  885POPC   C4A14346  29.305  14.463   7.626
  885POPC   C1B14347  28.650  14.670   8.626
  885POPC   C2B14348  28.734  14.881   8.236
  885POPC   C3B14349  28.894  14.670   7.873
  885POPC   C4B14350  28.804  14.694   7.407
  886POPC   NC314351   7.483   3.612   9.704
  886POPC   PO414352   7.631   3.034   9.445
  886POPC   GL114353   7.483   3.344   9.108
  886POPC   GL214354   7.495   3.701   9.190
  886POPC   C1A14355   7.278   3.531   8.726
  886POPC   D2A14356   7.164   3.785   8.356
  886POPC   C3A14357   7.131   3.498   7.988
  886POPC   C4A14358   7.031   3.469   7.553
  886POPC   C1B14359   7.750   3.704   8.820
  886POPC   C2B14360   7.816   3.590   8.376
  886POPC   C3B14361   7.937   3.610   7.922
  886POPC   C4B14362   7.532   3.605   7.679
  887POPC   NC314363  20.832  27.334   9.485
  887POPC   PO414364  20.435  27.851   9.498
  887POPC   GL114365  20.492  27.578   9.156
  887POPC   GL214366  20.859  27.658   9.096
  887POPC   C1A14367  20.486  27.544   8.704
  887POPC   D2A14368  20.683  27.583   8.287
  887POPC   C3A14369  20.397  27.560   7.943
  887POPC   C4A14370  20.211  27.161   7.754
  887POPC   C1B14371  20.896  27.865   8.717
  887POPC   C2B14372  20.814  28.078   8.322
  887POPC   C3B14373  20.866  27.920   7.912
  887POPC   C4B14374  20.798  27.619   7.601
  888POPC   NC314375  16.130  44.439   9.621
  888POPC   PO414376  15.615  44.817   9.519
  888POPC   GL114377  15.990  44.831   9.271
  888POPC   GL214378  15.891  44.519   9.137
  888POPC   C1A14379  16.223  44.824   8.885
  888POPC   D2A14380  16.196  44.925   8.444
  888POPC   C3A14381  16.128  44.577   8.140
  888POPC   C4A14382  16.075  44.522   7.679
  888POPC   C1B14383  15.759  44.669   8.730
  888POPC   C2B14384  15.674  44.807   8.334
  888POPC   C3B14385  15.687  44.735   7.931
  888POPC   C4B14386  15.652  44.300   7.794
  889POPC   NC314387  21.852   2.439   9.394
  889POPC   PO414388  22.002   1.775   9.543
  889POPC   GL114389  22.148   1.705   9.154
  889POPC   GL214390  22.217   2.095   9.188
  889POPC   C1A14391  21.912   1.516   8.805
  889POPC   D2A14392  21.825   1.706   8.411
  889POPC   C3A14393  22.119   1.756   8.052
  889POPC   C4A14394  22.393   1.729   7.640
  889POPC   C1B14395  21.962   2.038   8.837
  889POPC   C2B14396  22.089   2.120   8.435
  889POPC   C3B14397  21.810   2.169   8.101
  889POPC   C4B14398  22.059   2.143   7.725
  890POPC   NC314399  44.325  27.847   9.504
  890POPC   PO414400  44.799  27.253   9.522
  890POPC   GL114401  44.800  27.686   9.266
  890POPC   GL214402   0.104  27.948   9.240
  890POPC   C1A14403  44.626  27.777   8.835
  890POPC   D2A14404  44.726  27.566   8.432
  890POPC   C3A14405  44.536  27.615   8.037
  890POPC   C4A14406  44.585  27.346   7.693
  890POPC   C1B14407   0.151  27.783   8.833
  890POPC   C2B14408   0.100  27.939   8.418
  890POPC   C3B14409  44.960  27.887   8.013
  890POPC   C4B14410   0.023  27.643   7.638
  891POPC   NC314411  36.702  29.554   9.428
  891POPC   PO414412  37.056  29.018   9.485
  891POPC   GL114413  37.058  29.256   9.138
  891POPC   GL214414  36.706  29.156   9.113
  891POPC   C1A14415  37.058  29.123   8.708
  891POPC   D2A14416  36.896  29.376   8.348
  891POPC   C3A14417  37.024  29.126   8.030
  891POPC   C4A14418  37.128  29.161   7.634
  891POPC   C1B14419  36.582  29.312   8.738
  891POPC   C2B14420  36.639  28.955   8.444
  891POPC   C3B14421  36.603  28.871   8.046
  891POPC   C4B14422  36.582  29.174   7.706
  892POPC   NC314423  35.875  36.485   9.439
  892POPC   PO414424  36.309  35.901   9.411
  892POPC   GL114425  36.144  36.185   9.138
  892POPC   GL214426  36.181  35.977   8.911
  892POPC   C1A14427  36.140  36.426   8.746
  892POPC   D2A14428  36.158  36.136   8.375
  892POPC   C3A14429  36.123  36.373   8.004
  892POPC   C4A14430  35.925  36.355   7.625
  892POPC   C1B14431  36.342  35.721   8.656
  892POPC   C2B14432  36.554  35.787   8.290
  892POPC   C3B14433  36.332  35.900   7.921
  892POPC   C4B14434  35.944  35.859   7.777
  893POPC   NC314435   2.340  20.267   9.482
  893POPC   PO414436   1.654  20.081   9.651
  893POPC   GL114437   1.809  20.059   9.226
  893POPC   GL214438   1.944  19.729   9.177
  893POPC   C1A14439   1.819  20.030   8.760
  893POPC   D2A14440   1.706  20.169   8.327
  893POPC   C3A14441   2.065  20.290   8.086
  893POPC   C4A14442   2.298  20.040   7.791
  893POPC   C1B14443   1.653  19.554   8.872
  893POPC   C2B14444   1.691  19.524   8.460
  893POPC   C3B14445   1.927  19.649   8.126
  893POPC   C4B14446   1.716  19.673   7.772
  894POPC   NC314447   6.046  27.265  10.058
  894POPC   PO414448   6.036  27.622   9.497
  894POPC   GL114449   5.910  27.567   9.117
  894POPC   GL214450   5.998  27.868   9.029
  894POPC   C1A14451   5.644  27.647   8.743
  894POPC   D2A14452   5.936  27.602   8.438
  894POPC   C3A14453   5.839  27.333   8.129
  894POPC   C4A14454   5.901  27.356   7.707
  894POPC   C1B14455   5.969  28.096   8.674
  894POPC   C2B14456   5.861  28.088   8.255
  894POPC   C3B14457   6.079  27.786   7.974
  894POPC   C4B14458   6.384  27.981   7.712
  895POPC   NC314459   9.415  14.543   9.635
  895POPC   PO414460   9.870  14.121   9.470
  895POPC   GL114461   9.685  14.290   9.182
  895POPC   GL214462   9.655  14.626   9.204
  895POPC   C1A14463   9.545  14.297   8.784
  895POPC   D2A14464   9.739  14.540   8.473
  895POPC   C3A14465   9.734  14.290   8.130
  895POPC   C4A14466   9.836  14.376   7.726
  895POPC   C1B14467   9.361  14.754   8.891
  895POPC   C2B14468   9.245  14.647   8.456
  895POPC   C3B14469   9.462  14.722   8.068
  895POPC   C4B14470   9.352  14.607   7.677
  896POPC   NC314471  13.691  38.449   9.558
  896POPC   PO414472  14.028  37.974   9.260
  896POPC   GL114473  13.652  38.189   9.088
  896POPC   GL214474  13.408  38.483   9.136
  896POPC   C1A14475  13.580  38.219   8.661
  896POPC   D2A14476  13.558  38.379   8.241
  896POPC   C3A14477  13.898  38.449   7.989
  896POPC   C4A14478  13.922  38.211   7.596
  896POPC   C1B14479  13.450  38.708   8.747
  896POPC   C2B14480  13.607  38.885   8.356
  896POPC   C3B14481  13.511  38.815   7.919
  896POPC   C4B14482  13.443  38.431   7.712
  897POPC   NC314483  34.254  25.413   9.504
  897POPC   PO414484  34.881  25.412   9.582
  897POPC   GL114485  34.651  25.180   9.225
  897POPC   GL214486  34.432  24.896   9.144
  897POPC   C1A14487  34.535  25.355   8.812
  897POPC   D2A14488  34.784  25.436   8.402
  897POPC   C3A14489  34.590  25.347   7.983
  897POPC   C4A14490  34.500  25.448   7.529
  897POPC   C1B14491  34.275  24.899   8.765
  897POPC   C2B14492  34.418  25.058   8.413
  897POPC   C3B14493  34.322  24.910   8.046
  897POPC   C4B14494  34.476  24.953   7.657
  898POPC   NC314495  22.732  38.722   9.433
  898POPC   PO414496  22.615  38.076   9.400
  898POPC   GL114497  22.993  38.303   9.194
  898POPC   GL214498  23.075  38.642   9.071
  898POPC   C1A14499  23.148  38.273   8.744
  898POPC   D2A14500  22.813  38.165   8.450
  898POPC   C3A14501  22.944  38.307   8.071
  898POPC   C4A14502  22.779  38.183   7.701
  898POPC   C1B14503  22.727  38.566   8.797
  898POPC   C2B14504  22.587  38.687   8.417
  898POPC   C3B14505  22.762  38.797   8.019
  898POPC   C4B14506  23.209  38.716   7.878
  899POPC   NC314507  34.990  36.360   9.563
  899POPC   PO414508  35.563  35.957   9.491
  899POPC   GL114509  35.418  36.010   9.088
  899POPC   GL214510  35.302  36.334   9.151
  899POPC   C1A14511  35.235  36.066   8.694
  899POPC   D2A14512  35.243  36.373   8.377
  899POPC   C3A14513  35.004  36.266   8.054
  899POPC   C4A14514  35.199  35.946   7.835
  899POPC   C1B14515  35.636  36.390   8.839
  899POPC   C2B14516  35.744  36.412   8.414
  899POPC   C3B14517  35.639  36.186   8.055
  899POPC   C4B14518  35.422  36.411   7.770
  900POPC   NC314519   1.285  40.459   9.337
  900POPC   PO414520   0.866  40.886   9.411
  900POPC   GL114521   1.211  40.885   9.064
  900POPC   GL214522   1.326  40.538   8.852
  900POPC   C1A14523   1.432  40.989   8.669
  900POPC   D2A14524   1.357  40.645   8.334
  900POPC   C3A14525   1.346  40.739   7.902
  900POPC   C4A14526   1.027  41.015   7.780
  900POPC   C1B14527   0.950  40.695   8.668
  900POPC   C2B14528   0.687  40.484   8.368
  900POPC   C3B14529   0.835  40.184   8.121
  900POPC   C4B14530   0.940  40.426   7.809
  901POPC   NC314531  14.791   4.206   9.491
  901POPC   PO414532  15.418   4.497   9.575
  901POPC   GL114533  15.265   4.255   9.250
  901POPC   GL214534  15.092   4.554   9.115
  901POPC   C1A14535  15.164   4.166   8.811
  901POPC   D2A14536  15.043   4.034   8.403
  901POPC   C3A14537  15.349   3.971   8.066
  901POPC   C4A14538  15.207   4.106   7.653
  901POPC   C1B14539  15.516   4.550   8.877
  901POPC   C2B14540  15.491   4.352   8.461
  901POPC   C3B14541  15.229   4.455   8.121
  901POPC   C4B14542  15.380   4.609   7.781
  902POPC   NC314543  36.292   4.991   9.917
  902POPC   PO414544  36.916   5.150   9.817
  902POPC   GL114545  37.006   5.113   9.364
  902POPC   GL214546  36.734   5.189   9.173
  902POPC   C1A14547  37.151   4.966   8.942
  902POPC   D2A14548  37.346   4.945   8.511
  902POPC   C3A14549  37.167   5.020   8.089
  902POPC   C4A14550  37.191   5.185   7.648
  902POPC   C1B14551  36.659   4.907   8.832
  902POPC   C2B14552  36.826   5.137   8.482
  902POPC   C3B14553  36.705   5.294   8.102
  902POPC   C4B14554  36.690   5.165   7.705
  903POPC   NC314555  38.973  42.496   9.407
  903POPC   PO414556  38.281  42.532   9.573
  903POPC   GL114557  38.490  42.433   9.181
  903POPC   GL214558  38.759  42.653   8.985
  903POPC   C1A14559  38.327  42.500   8.778
  903POPC   D2A14560  38.585  42.641   8.462
  903POPC   C3A14561  38.368  42.479   8.125
  903POPC   C4A14562  38.438  42.035   7.892
  903POPC   C1B14563  38.817  42.266   8.694
  903POPC   C2B14564  38.806  42.202   8.232
  903POPC   C3B14565  38.752  42.438   7.813
  903POPC   C4B14566  38.785  42.140   7.507
  904POPC   NC314567  18.489  20.338   9.470
  904POPC   PO414568  17.954  20.718   9.557
  904POPC   GL114569  18.313  20.816   9.242
  904POPC   GL214570  18.696  20.757   9.177
  904POPC   C1A14571  18.317  20.827   8.792
  904POPC   D2A14572  18.102  20.596   8.462
  904POPC   C3A14573  18.272  20.546   8.050
  904POPC   C4A14574  18.303  20.772   7.654
  904POPC   C1B14575  18.731  20.498   8.764
  904POPC   C2B14576  18.582  20.232   8.401
  904POPC   C3B14577  18.697  20.141   7.953
  904POPC   C4B14578  18.387  20.273   7.634
  905POPC   NC314579   7.115  41.865   9.522
  905POPC   PO414580   7.648  41.383   9.466
  905POPC   GL114581   7.504  41.608   9.163
  905POPC   GL214582   7.175  41.495   9.184
  905POPC   C1A14583   7.463  41.435   8.756
  905POPC   D2A14584   7.718  41.381   8.423
  905POPC   C3A14585   7.582  41.652   8.105
  905POPC   C4A14586   7.551  41.385   7.782
  905POPC   C1B14587   7.145  41.822   8.859
  905POPC   C2B14588   7.126  41.679   8.424
  905POPC   C3B14589   7.111  41.892   8.045
  905POPC   C4B14590   7.210  41.743   7.724
  906POPC   NC314591  19.937  41.497   9.672
  906POPC   PO414592  20.324  42.055   9.536
  906POPC   GL114593  19.917  41.885   9.267
  906POPC   GL214594  19.871  41.503   9.180
  906POPC   C1A14595  19.794  41.820   8.811
  906POPC   D2A14596  19.975  41.614   8.455
  906POPC   C3A14597  20.085  41.797   8.077
  906POPC   C4A14598  19.794  41.669   7.750
  906POPC   C1B14599  20.114  41.302   8.833
  906POPC   C2B14600  20.185  41.143   8.375
  906POPC   C3B14601  20.143  41.295   7.918
  906POPC   C4B14602  20.111  41.246   7.434
  907POPC   NC314603  44.508  15.694   9.448
  907POPC   PO414604   0.093  16.068   9.635
  907POPC   GL114605  44.917  15.959   9.220
  907POPC   GL214606  44.588  16.118   9.164
  907POPC   C1A14607  44.713  15.777   8.823
  907POPC   D2A14608  44.754  15.899   8.400
  907POPC   C3A14609  44.531  15.678   8.084
  907POPC   C4A14610  44.729  15.816   7.748
  907POPC   C1B14611  44.350  16.164   8.805
  907POPC   C2B14612  44.246  15.997   8.401
  907POPC   C3B14613  44.300  16.129   7.995
  907POPC   C4B14614  44.315  16.097   7.555
  908POPC   NC314615  44.164  28.515   9.377
  908POPC   PO414616  44.753  28.147   9.539
  908POPC   GL114617  44.669  28.472   9.184
  908POPC   GL214618  44.895  28.811   9.177
  908POPC   C1A14619  44.603  28.295   8.760
  908POPC   D2A14620  44.607  28.056   8.372
  908POPC   C3A14621  44.529  28.198   7.956
  908POPC   C4A14622  44.319  28.319   7.572
  908POPC   C1B14623   0.070  28.536   8.842
  908POPC   C2B14624  44.990  28.440   8.390
  908POPC   C3B14625  44.932  28.549   7.942
  908POPC   C4B14626   0.221  28.576   7.595
  909POPC   NC314627  14.159   5.230   9.562
  909POPC   PO414628  14.653   4.687   9.411
  909POPC   GL114629  14.505   5.102   9.179
  909POPC   GL214630  14.165   5.056   9.095
  909POPC   C1A14631  14.419   5.307   8.740
  909POPC   D2A14632  14.676   5.192   8.416
  909POPC   C3A14633  14.563   5.056   8.024
  909POPC   C4A14634  14.550   4.772   7.686
  909POPC   C1B14635  14.096   4.884   8.716
  909POPC   C2B14636  14.155   5.000   8.328
  909POPC   C3B14637  14.083   4.898   7.920
  909POPC   C4B14638  14.234   5.146   7.593
  910POPC   NC314639  23.406  12.956   9.486
  910POPC   PO414640  24.071  12.908   9.397
  910POPC   GL114641  23.881  12.749   9.052
  910POPC   GL214642  23.517  12.826   9.008
  910POPC   C1A14643  23.890  12.993   8.716
  910POPC   D2A14644  23.598  13.009   8.456
  910POPC   C3A14645  23.767  12.994   8.101
  910POPC   C4A14646  23.704  12.787   7.766
  910POPC   C1B14647  23.454  12.537   8.678
  910POPC   C2B14648  23.555  12.540   8.230
  910POPC   C3B14649  23.333  12.436   7.851
  910POPC   C4B14650  23.352  12.568   7.410
  911POPC   NC314651  43.018  40.004   9.605
  911POPC   PO414652  42.621  40.507   9.523
  911POPC   GL114653  43.016  40.355   9.203
  911POPC   GL214654  43.146  39.975   9.128
  911POPC   C1A14655  43.123  40.256   8.725
  911POPC   D2A14656  43.159  39.893   8.437
  911POPC   C3A14657  43.084  39.988   8.018
  911POPC   C4A14658  43.012  40.183   7.650
  911POPC   C1B14659  43.460  39.809   8.856
  911POPC   C2B14660  43.683  39.682   8.475
  911POPC   C3B14661  43.474  39.659   8.087
  911POPC   C4B14662  43.505  39.490   7.664
  912POPC   NC314663  26.503  25.346   9.429
  912POPC   PO414664  26.924  24.899   9.488
  912POPC   GL114665  27.045  25.087   9.115
  912POPC   GL214666  26.753  25.272   9.013
  912POPC   C1A14667  27.001  25.003   8.690
  912POPC   D2A14668  26.785  25.258   8.431
  912POPC   C3A14669  27.008  25.304   8.061
  912POPC   C4A14670  26.811  25.405   7.721
  912POPC   C1B14671  26.620  25.650   8.815
  912POPC   C2B14672  26.500  25.701   8.405
  912POPC   C3B14673  26.405  25.805   8.004
  912POPC   C4B14674  26.438  25.721   7.545
  913POPC   NC314675  35.673  39.837   9.539
  913POPC   PO414676  35.437  40.504   9.727
  913POPC   GL114677  35.351  40.177   9.302
  913POPC   GL214678  35.329  39.800   9.171
  913POPC   C1A14679  35.216  40.198   8.866
  913POPC   D2A14680  35.328  39.939   8.490
  913POPC   C3A14681  35.302  40.127   8.087
  913POPC   C4A14682  35.089  39.818   7.835
  913POPC   C1B14683  35.639  39.711   8.848
  913POPC   C2B14684  35.751  39.634   8.382
  913POPC   C3B14685  35.601  39.749   7.945
  913POPC   C4B14686  35.779  39.852   7.521
  914POPC   NC314687  22.366   9.756   9.360
  914POPC   PO414688  22.981   9.555   9.580
  914POPC   GL114689  23.116   9.747   9.177
  914POPC   GL214690  22.814   9.873   9.146
  914POPC   C1A14691  23.035   9.706   8.711
  914POPC   D2A14692  22.863   9.611   8.285
  914POPC   C3A14693  23.235   9.681   8.001
  914POPC   C4A14694  23.342   9.459   7.616
  914POPC   C1B14695  22.807  10.198   8.801
  914POPC   C2B14696  22.800  10.110   8.404
  914POPC   C3B14697  22.811  10.228   8.017
  914POPC   C4B14698  22.880   9.933   7.749
  915POPC   NC314699   6.684   8.374   9.979
  915POPC   PO414700   6.532   7.848   9.515
  915POPC   GL114701   6.468   8.226   9.334
  915POPC   GL214702   6.812   8.251   9.236
  915POPC   C1A14703   6.428   8.315   8.892
  915POPC   D2A14704   6.293   8.327   8.455
  915POPC   C3A14705   6.460   8.267   8.024
  915POPC   C4A14706   6.269   7.942   7.783
  915POPC   C1B14707   6.928   8.389   8.810
  915POPC   C2B14708   6.821   8.467   8.355
  915POPC   C3B14709   6.992   8.302   7.932
  915POPC   C4B14710   7.031   8.347   7.477
  916POPC   NC314711  27.623  44.523   9.900
  916POPC   PO414712  27.439   0.054   9.564
  916POPC   GL114713  27.588  44.863   9.211
  916POPC   GL214714  27.248  44.793   9.095
  916POPC   C1A14715  27.707  44.714   8.795
  916POPC   D2A14716  27.457  44.672   8.427
  916POPC   C3A14717  27.645  44.745   8.009
  916POPC   C4A14718  27.552  44.590   7.600
  916POPC   C1B14719  27.277  44.395   8.856
  916POPC   C2B14720  27.283  44.162   8.463
  916POPC   C3B14721  27.315  44.355   8.064
  916POPC   C4B14722  27.260  44.190   7.702
  917POPC   NC314723  43.150  11.920  10.031
  917POPC   PO414724  43.063  12.356   9.537
  917POPC   GL114725  42.890  12.176   9.172
  917POPC   GL214726  42.802  11.823   9.157
  917POPC   C1A14727  42.954  12.286   8.764
  917POPC   D2A14728  42.844  12.122   8.403
  917POPC   C3A14729  43.058  12.225   8.058
  917POPC   C4A14730  42.819  12.177   7.731
  917POPC   C1B14731  42.664  11.727   8.727
  917POPC   C2B14732  42.890  11.626   8.337
  917POPC   C3B14733  43.026  11.729   7.917
  917POPC   C4B14734  43.129  11.827   7.466
  918POPC   NC314735  39.005   7.671   9.310
  918POPC   PO414736  39.083   8.312   9.555
  918POPC   GL114737  39.230   8.372   9.170
  918POPC   GL214738  39.281   8.051   9.105
  918POPC   C1A14739  39.248   8.522   8.778
  918POPC   D2A14740  39.177   8.301   8.420
  918POPC   C3A14741  39.370   8.185   8.090
  918POPC   C4A14742  39.276   8.220   7.692
  918POPC   C1B14743  39.066   7.955   8.746
  918POPC   C2B14744  39.097   7.804   8.329
  918POPC   C3B14745  39.063   7.805   7.892
  918POPC   C4B14746  39.049   7.845   7.426
  919POPC   NC314747   6.863   5.339   9.630
  919POPC   PO414748   6.456   4.803   9.530
  919POPC   GL114749   6.586   5.043   9.206
  919POPC   GL214750   6.940   5.006   9.231
  919POPC   C1A14751   6.643   5.004   8.766
  919POPC   D2A14752   6.477   5.156   8.393
  919POPC   C3A14753   6.578   4.941   8.044
  919POPC   C4A14754   6.857   5.007   7.732
  919POPC   C1B14755   6.892   5.399   8.958
  919POPC   C2B14756   6.859   5.484   8.507
  919POPC   C3B14757   7.025   5.326   8.097
  919POPC   C4B14758   6.975   5.536   7.675
  920POPC   NC314759  35.309  34.861   9.548
  920POPC   PO414760  34.945  34.347   9.504
  920POPC   GL114761  35.146  34.539   9.157
  920POPC   GL214762  35.379  34.834   9.058
  920POPC   C1A14763  35.320  34.398   8.783
  920POPC   D2A14764  35.184  34.464   8.407
  920POPC   C3A14765  35.356  34.435   8.048
  920POPC   C4A14766  35.204  34.622   7.687
  920POPC   C1B14767  35.721  34.723   8.814
  920POPC   C2B14768  35.698  34.536   8.445
  920POPC   C3B14769  35.744  34.763   8.098
  920POPC   C4B14770  35.662  34.808   7.679
  921POPC   NC314771  14.382  24.293   9.463
  921POPC   PO414772  14.336  24.909   9.569
  921POPC   GL114773  14.295  24.733   9.183
  921POPC   GL214774  14.639  24.696   9.195
  921POPC   C1A14775  14.183  24.535   8.817
  921POPC   D2A14776  14.132  24.402   8.406
  921POPC   C3A14777  14.297  24.663   8.053
  921POPC   C4A14778  14.140  24.575   7.627
  921POPC   C1B14779  14.721  24.413   8.876
  921POPC   C2B14780  14.834  24.219   8.518
  921POPC   C3B14781  14.554  24.186   8.197
  921POPC   C4B14782  14.562  24.319   7.790
  922POPC   NC314783   9.721  42.807   9.516
  922POPC   PO414784   9.437  42.234   9.791
  922POPC   GL114785   9.732  42.344   9.345
  922POPC   GL214786   9.479  42.519   9.156
  922POPC   C1A14787   9.860  42.316   8.869
  922POPC   D2A14788   9.808  42.089   8.443
  922POPC   C3A14789   9.962  42.258   8.018
  922POPC   C4A14790  10.091  42.636   7.742
  922POPC   C1B14791   9.420  42.695   8.772
  922POPC   C2B14792   9.735  42.673   8.497
  922POPC   C3B14793   9.659  42.674   8.070
  922POPC   C4B14794   9.608  42.685   7.641
  923POPC   NC314795  25.198  34.491   9.518
  923POPC   PO414796  25.634  35.090   9.361
  923POPC   GL114797  25.411  34.791   9.117
  923POPC   GL214798  25.025  34.770   9.109
  923POPC   C1A14799  25.340  34.543   8.759
  923POPC   D2A14800  25.113  34.504   8.387
  923POPC   C3A14801  25.289  34.673   8.019
  923POPC   C4A14802  25.310  34.628   7.581
  923POPC   C1B14803  24.821  34.438   8.824
  923POPC   C2B14804  24.618  34.263   8.437
  923POPC   C3B14805  24.823  34.267   8.043
  923POPC   C4B14806  24.791  34.477   7.653
  924POPC   NC314807  40.948  20.712   9.542
  924POPC   PO414808  41.001  20.082   9.665
  924POPC   GL114809  40.934  20.287   9.236
  924POPC   GL214810  40.610  20.469   9.201
  924POPC   C1A14811  40.957  20.634   8.885
  924POPC   D2A14812  40.765  20.700   8.482
  924POPC   C3A14813  41.049  20.668   8.163
  924POPC   C4A14814  41.118  21.001   7.874
  924POPC   C1B14815  40.438  20.410   8.743
  924POPC   C2B14816  40.414  20.410   8.245
  924POPC   C3B14817  40.534  20.691   7.878
  924POPC   C4B14818  40.403  20.664   7.406
  925POPC   NC314819  33.018  44.913   9.402
  925POPC   PO414820  32.992  44.324   9.788
  925POPC   GL114821  33.146  44.444   9.300
  925POPC   GL214822  32.901  44.569   9.002
  925POPC   C1A14823  33.363  44.696   8.898
  925POPC   D2A14824  33.162  44.636   8.509
  925POPC   C3A14825  33.099  44.732   8.101
  925POPC   C4A14826  33.032  44.539   7.719
  925POPC   C1B14827  32.759  44.905   8.723
  925POPC   C2B14828  32.622  44.939   8.261
  925POPC   C3B14829  32.693  44.951   7.789
  925POPC   C4B14830  32.806   0.018   7.328
  926POPC   NC314831  31.067  36.064   9.488
  926POPC   PO414832  30.458  36.321   9.707
  926POPC   GL114833  30.695  36.337   9.274
  926POPC   GL214834  30.724  36.028   9.119
  926POPC   C1A14835  30.588  36.436   8.796
  926POPC   D2A14836  30.340  36.531   8.395
  926POPC   C3A14837  30.402  36.207   8.088
  926POPC   C4A14838  30.598  36.090   7.707
  926POPC   C1B14839  30.900  36.007   8.712
  926POPC   C2B14840  30.702  35.877   8.318
  926POPC   C3B14841  30.620  35.645   7.944
  926POPC   C4B14842  30.703  35.620   7.476
  927POPC   NC314843  40.301  37.879   9.791
  927POPC   PO414844  39.877  37.344   9.730
  927POPC   GL114845  39.969  37.494   9.303
  927POPC   GL214846  40.141  37.804   9.305
  927POPC   C1A14847  39.776  37.743   8.933
  927POPC   D2A14848  39.920  37.657   8.491
  927POPC   C3A14849  39.801  37.823   8.077
  927POPC   C4A14850  40.004  37.679   7.715
  927POPC   C1B14851  40.279  37.685   8.909
  927POPC   C2B14852  40.424  37.815   8.525
  927POPC   C3B14853  40.347  37.711   8.117
  927POPC   C4B14854  40.480  37.823   7.714
  928POPC   NC314855  34.596  19.304   9.535
  928POPC   PO414856  34.427  18.722   9.133
  928POPC   GL114857  34.455  19.196   9.040
  928POPC   GL214858  34.788  19.450   9.096
  928POPC   C1A14859  34.366  19.198   8.583
  928POPC   D2A14860  34.336  18.774   8.384
  928POPC   C3A14861  34.532  18.784   7.980
  928POPC   C4A14862  34.435  19.056   7.646
  928POPC   C1B14863  34.859  19.205   8.751
  928POPC   C2B14864  34.833  19.010   8.387
  928POPC   C3B14865  34.662  19.264   8.101
  928POPC   C4B14866  34.883  19.238   7.744
  929POPC   NC314867  35.535  41.866   9.445
  929POPC   PO414868  35.007  41.376   9.495
  929POPC   GL114869  35.205  41.259   9.139
  929POPC   GL214870  35.398  41.532   9.091
  929POPC   C1A14871  35.093  41.399   8.716
  929POPC   D2A14872  35.244  41.326   8.288
  929POPC   C3A14873  35.136  41.527   7.890
  929POPC   C4A14874  35.401  41.480   7.532
  929POPC   C1B14875  35.627  41.381   8.740
  929POPC   C2B14876  35.685  41.602   8.351
  929POPC   C3B14877  35.595  41.762   7.948
  929POPC   C4B14878  35.688  42.083   7.671
  930POPC   NC314879   0.596  17.454   9.638
  930POPC   PO414880  44.917  17.563   9.678
  930POPC   GL114881   0.162  17.679   9.271
  930POPC   GL214882   0.404  17.463   9.187
  930POPC   C1A14883   0.338  17.782   8.830
  930POPC   D2A14884   0.659  17.744   8.514
  930POPC   C3A14885   0.471  17.608   8.159
  930POPC   C4A14886   0.304  17.692   7.773
  930POPC   C1B14887   0.772  17.459   8.930
  930POPC   C2B14888   0.852  17.247   8.537
  930POPC   C3B14889   0.848  17.060   8.124
  930POPC   C4B14890   0.627  17.284   7.808
  931POPC   NC314891  18.387  18.847   9.631
  931POPC   PO414892  18.327  19.504   9.600
  931POPC   GL114893  18.421  19.198   9.245
  931POPC   GL214894  18.233  18.858   9.163
  931POPC   C1A14895  18.385  19.195   8.791
  931POPC   D2A14896  18.113  19.220   8.448
  931POPC   C3A14897  18.259  19.398   8.097
  931POPC   C4A14898  18.470  19.303   7.740
  931POPC   C1B14899  18.493  18.693   8.848
  931POPC   C2B14900  18.587  18.846   8.455
  931POPC   C3B14901  18.381  18.908   8.104
  931POPC   C4B14902  18.438  18.809   7.710
  932POPC   NC314903  15.516  14.117   9.733
  932POPC   PO414904  16.138  14.249   9.430
  932POPC   GL114905  16.121  14.325   9.022
  932POPC   GL214906  15.811  14.172   9.028
  932POPC   C1A14907  16.148  14.649   8.727
  932POPC   D2A14908  16.365  14.592   8.348
  932POPC   C3A14909  16.133  14.374   8.015
  932POPC   C4A14910  15.972  14.282   7.583
  932POPC   C1B14911  15.775  13.969   8.668
  932POPC   C2B14912  15.982  13.966   8.302
  932POPC   C3B14913  15.977  13.886   7.901
  932POPC   C4B14914  15.659  13.883   7.651
  933POPC   NC314915  38.381  13.919   9.569
  933POPC   PO414916  38.619  14.571   9.641
  933POPC   GL114917  38.690  14.432   9.250
  933POPC   GL214918  38.381  14.390   9.143
  933POPC   C1A14919  38.748  14.508   8.824
  933POPC   D2A14920  38.524  14.483   8.436
  933POPC   C3A14921  38.693  14.638   8.069
  933POPC   C4A14922  38.557  14.317   7.763
  933POPC   C1B14923  38.232  14.644   8.817
  933POPC   C2B14924  38.043  14.643   8.428
  933POPC   C3B14925  38.182  14.595   8.002
  933POPC   C4B14926  37.873  14.520   7.707
  934POPC   NC314927   5.786  17.175   9.834
  934POPC   PO414928   5.859  17.782   9.513
  934POPC   GL114929   5.863  17.604   9.058
  934POPC   GL214930   5.704  17.265   8.958
  934POPC   C1A14931   6.060  17.478   8.677
  934POPC   D2A14932   5.960  17.309   8.304
  934POPC   C3A14933   5.807  17.667   8.166
  934POPC   C4A14934   5.953  17.687   7.787
  934POPC   C1B14935   5.526  17.495   8.607
  934POPC   C2B14936   5.443  17.251   8.229
  934POPC   C3B14937   5.570  17.348   7.838
  934POPC   C4B14938   5.525  17.705   7.555
  935POPC   NC314939  20.283  19.991   9.498
  935POPC   PO414940  19.600  19.694   9.415
  935POPC   GL114941  19.888  19.638   9.134
  935POPC   GL214942  19.937  19.972   9.115
  935POPC   C1A14943  19.745  19.686   8.718
  935POPC   D2A14944  19.911  19.519   8.341
  935POPC   C3A14945  19.679  19.688   8.014
  935POPC   C4A14946  19.393  19.634   7.668
  935POPC   C1B14947  19.867  20.255   8.780
  935POPC   C2B14948  19.654  20.414   8.383
  935POPC   C3B14949  19.651  20.238   7.968
  935POPC   C4B14950  19.854  20.000   7.640
  936POPC   NC314951   6.912   4.608   9.817
  936POPC   PO414952   6.363   4.101   9.759
  936POPC   GL114953   6.518   4.214   9.317
  936POPC   GL214954   6.749   4.511   9.250
  936POPC   C1A14955   6.554   4.279   8.840
  936POPC   D2A14956   6.835   4.289   8.456
  936POPC   C3A14957   6.569   4.246   8.105
  936POPC   C4A14958   6.340   4.134   7.778
  936POPC   C1B14959   6.962   4.617   8.837
  936POPC   C2B14960   6.937   4.807   8.390
  936POPC   C3B14961   6.930   4.564   7.977
  936POPC   C4B14962   6.915   4.347   7.561
  937POPC   NC314963  27.906  23.969   9.400
  937POPC   PO414964  27.348  24.342   9.507
  937POPC   GL114965  27.486  24.267   9.129
  937POPC   GL214966  27.135  24.143   9.092
  937POPC   C1A14967  27.765  24.331   8.759
  937POPC   D2A14968  27.825  24.713   8.500
  937POPC   C3A14969  27.784  24.707   8.049
  937POPC   C4A14970  27.705  24.880   7.628
  937POPC   C1B14971  27.233  24.441   8.734
  937POPC   C2B14972  27.447  24.369   8.319
  937POPC   C3B14973  27.413  24.424   7.842
  937POPC   C4B14974  27.287  24.651   7.416
  938POPC   NC314975  31.295  24.396   9.469
  938POPC   PO414976  31.830  24.819   9.411
  938POPC   GL114977  31.521  24.689   9.115
  938POPC   GL214978  31.699  24.373   9.130
  938POPC   C1A14979  31.390  24.470   8.728
  938POPC   D2A14980  31.573  24.392   8.320
  938POPC   C3A14981  31.349  24.394   7.926
  938POPC   C4A14982  31.051  24.659   7.781
  938POPC   C1B14983  31.934  24.419   8.720
  938POPC   C2B14984  32.058  24.225   8.292
  938POPC   C3B14985  31.819  24.174   7.923
  938POPC   C4B14986  31.645  24.343   7.490
  939POPC   NC314987  22.664   0.039   9.559
  939POPC   PO414988  23.125   0.586   9.456
  939POPC   GL114989  22.824   0.386   9.213
  939POPC   GL214990  23.003   0.098   9.169
  939POPC   C1A14991  22.759   0.430   8.786
  939POPC   D2A14992  22.850   0.661   8.432
  939POPC   C3A14993  22.767   0.398   8.114
  939POPC   C4A14994  22.891   0.326   7.727
  939POPC   C1B14995  22.943  44.955   8.788
  939POPC   C2B14996  23.040   0.080   8.408
  939POPC   C3B14997  23.251   0.079   8.030
  939POPC   C4B14998  23.080  44.853   7.701
  940POPC   NC314999  16.120  35.605   9.416
  940POPC   PO415000  15.904  34.984   9.716
  940POPC   GL115001  15.989  35.128   9.211
  940POPC   GL215002  15.873  35.397   8.995
  940POPC   C1A15003  15.882  34.944   8.790
  940POPC   D2A15004  15.935  35.250   8.471
  940POPC   C3A15005  15.888  35.119   8.060
  940POPC   C4A15006  15.554  35.165   7.778
  940POPC   C1B15007  16.241  35.558   8.789
  940POPC   C2B15008  16.322  35.712   8.413
  940POPC   C3B15009  16.207  35.567   8.036
  940POPC   C4B15010  16.195  35.746   7.652
  941POPC   NC315011  31.724  41.874   9.442
  941POPC   PO415012  31.382  41.300   9.562
  941POPC   GL115013  31.364  41.567   9.199
  941POPC   GL215014  31.064  41.381   9.136
  941POPC   C1A15015  31.491  41.812   8.809
  941POPC   D2A15016  31.615  41.567   8.419
  941POPC   C3A15017  31.502  41.719   8.021
  941POPC   C4A15018  31.625  41.838   7.626
  941POPC   C1B15019  31.237  41.383   8.732
  941POPC   C2B15020  31.108  41.256   8.346
  941POPC   C3B15021  31.359  41.172   8.023
  941POPC   C4B15022  31.256  41.403   7.690
  942POPC   NC315023  38.637  44.649   9.695
  942POPC   PO415024  38.206   0.032   9.362
  942POPC   GL115025  38.311  44.689   9.141
  942POPC   GL215026  38.661  44.572   9.120
  942POPC   C1A15027  38.368  44.695   8.712
  942POPC   D2A15028  38.444  44.445   8.392
  942POPC   C3A15029  38.192  44.531   8.053
  942POPC   C4A15030  38.230  44.793   7.741
  942POPC   C1B15031  38.843  44.844   8.723
  942POPC   C2B15032  38.900  44.715   8.279
  942POPC   C3B15033  38.681  44.570   7.896
  942POPC   C4B15034  38.665  44.657   7.443
  943POPC   NC315035  40.059   9.220   9.544
  943POPC   PO415036  39.822   8.541   9.534
  943POPC   GL115037  40.095   8.645   9.162
  943POPC   GL215038  40.107   8.980   9.091
  943POPC   C1A15039  40.247   8.651   8.721
  943POPC   D2A15040  40.128   8.953   8.387
  943POPC   C3A15041  39.922   8.768   8.056
  943POPC   C4A15042  39.942   8.822   7.617
  943POPC   C1B15043  39.990   9.274   8.787
  943POPC   C2B15044  39.898   9.474   8.398
  943POPC   C3B15045  39.938   9.284   7.981
  943POPC   C4B15046  39.987   9.320   7.500
  944POPC   NC315047   1.416   6.302   9.569
  944POPC   PO415048   0.862   6.693   9.480
  944POPC   GL115049   1.074   6.685   9.124
  944POPC   GL215050   1.381   6.766   9.221
  944POPC   C1A15051   0.959   6.700   8.710
  944POPC   D2A15052   1.229   6.759   8.356
  944POPC   C3A15053   1.242   6.417   8.046
  944POPC   C4A15054   0.994   6.428   7.669
  944POPC   C1B15055   1.471   6.585   8.806
  944POPC   C2B15056   1.668   6.478   8.426
  944POPC   C3B15057   1.742   6.348   8.024
  944POPC   C4B15058   1.540   6.375   7.598
  945POPC   NC315059  43.467  21.020   9.783
  945POPC   PO415060  42.939  21.419   9.614
  945POPC   GL115061  43.180  21.511   9.223
  945POPC   GL215062  43.245  21.178   9.101
  945POPC   C1A15063  43.229  21.565   8.761
  945POPC   D2A15064  43.153  21.263   8.429
  945POPC   C3A15065  43.156  21.466   8.061
  945POPC   C4A15066  43.356  21.431   7.703
  945POPC   C1B15067  42.835  21.230   8.844
  945POPC   C2B15068  42.642  21.208   8.413
  945POPC   C3B15069  42.760  21.148   7.961
  945POPC   C4B15070  42.867  21.404   7.581
  946POPC   NC315071  44.640   7.958   9.462
  946POPC   PO415072  44.263   8.453   9.688
  946POPC   GL115073  44.318   8.317   9.226
  946POPC   GL215074  44.433   8.049   9.011
  946POPC   C1A15075  44.282   8.425   8.742
  946POPC   D2A15076  44.508   8.289   8.350
  946POPC   C3A15077  44.377   8.370   7.919
  946POPC   C4A15078  44.516   8.080   7.578
  946POPC   C1B15079  44.767   7.997   8.706
  946POPC   C2B15080  44.905   7.832   8.304
  946POPC   C3B15081  44.978   7.978   7.886
  946POPC   C4B15082  44.966   7.837   7.470
  947POPC   NC315083  40.301   8.343   9.524
  947POPC   PO415084  40.976   8.192   9.488
  947POPC   GL115085  40.640   8.061   9.236
  947POPC   GL215086  40.443   8.288   9.042
  947POPC   C1A15087  40.731   7.910   8.841
  947POPC   D2A15088  40.981   7.770   8.500
  947POPC   C3A15089  40.840   7.984   8.145
  947POPC   C4A15090  40.654   8.173   7.772
  947POPC   C1B15091  40.761   8.460   8.772
  947POPC   C2B15092  40.909   8.503   8.339
  947POPC   C3B15093  41.103   8.361   7.933
  947POPC   C4B15094  41.010   8.524   7.568
  948POPC   NC315095  42.884  35.621   9.565
  948POPC   PO415096  43.381  35.112   9.690
  948POPC   GL115097  43.287  35.052   9.266
  948POPC   GL215098  43.078  35.307   9.233
  948POPC   C1A15099  43.310  35.122   8.814
  948POPC   D2A15100  43.194  35.329   8.449
  948POPC   C3A15101  43.186  35.088   8.094
  948POPC   C4A15102  42.958  35.074   7.730
  948POPC   C1B15103  42.934  35.483   8.872
  948POPC   C2B15104  42.754  35.603   8.479
  948POPC   C3B15105  42.895  35.554   8.024
  948POPC   C4B15106  42.919  35.590   7.551
  949POPC   NC315107  11.371  25.591   9.818
  949POPC   PO415108  11.526  25.135   9.300
  949POPC   GL115109  11.326  25.275   8.995
  949POPC   GL215110  11.577  25.382   8.854
  949POPC   C1A15111  11.125  25.409   8.609
  949POPC   D2A15112  10.953  25.082   8.340
  949POPC   C3A15113  11.080  25.030   7.895
  949POPC   C4A15114  11.071  25.402   7.680
  949POPC   C1B15115  11.455  25.015   8.603
  949POPC   C2B15116  11.436  25.162   8.240
  949POPC   C3B15117  11.515  25.353   7.913
  949POPC   C4B15118  11.556  25.361   7.482
  950POPC   NC315119  36.124  19.608   9.339
  950POPC   PO415120  36.245  20.219   9.573
  950POPC   GL115121  36.190  20.064   9.141
  950POPC   GL215122  35.891  20.122   8.933
  950POPC   C1A15123  36.303  19.867   8.751
  950POPC   D2A15124  36.048  19.900   8.390
  950POPC   C3A15125  36.230  19.868   8.006
  950POPC   C4A15126  35.958  19.797   7.660
  950POPC   C1B15127  35.828  19.649   8.777
  950POPC   C2B15128  35.924  19.394   8.420
  950POPC   C3B15129  35.719  19.445   8.035
  950POPC   C4B15130  35.581  19.467   7.650
  951POPC   NC315131  44.865  21.892   9.501
  951POPC   PO415132  44.424  22.306   9.615
  951POPC   GL115133  44.612  22.230   9.204
  951POPC   GL215134  44.844  22.434   9.084
  951POPC   C1A15135  44.730  21.951   8.851
  951POPC   D2A15136  44.571  21.766   8.466
  951POPC   C3A15137  44.778  21.969   8.104
  951POPC   C4A15138  44.719  22.327   7.816
  951POPC   C1B15139   0.021  22.628   8.755
  951POPC   C2B15140  44.981  22.451   8.361
  951POPC   C3B15141   0.092  22.631   8.024
  951POPC   C4B15142   0.156  22.596   7.618
  952POPC   NC315143   6.569  41.027   9.548
  952POPC   PO415144   6.598  41.699   9.526
  952POPC   GL115145   6.681  41.645   9.120
  952POPC   GL215146   6.687  41.312   9.140
  952POPC   C1A15147   6.657  41.821   8.725
  952POPC   D2A15148   6.717  41.990   8.334
  952POPC   C3A15149   6.648  41.659   7.998
  952POPC   C4A15150   6.489  41.618   7.575
  952POPC   C1B15151   6.914  41.342   8.757
  952POPC   C2B15152   6.766  41.303   8.344
  952POPC   C3B15153   7.019  41.317   7.942
  952POPC   C4B15154   6.897  41.333   7.506
  953POPC   NC315155  15.754  34.537   9.739
  953POPC   PO415156  16.225  34.734   9.364
  953POPC   GL115157  16.075  34.484   9.093
  953POPC   GL215158  15.725  34.602   9.188
  953POPC   C1A15159  16.209  34.519   8.679
  953POPC   D2A15160  16.168  34.790   8.345
  953POPC   C3A15161  16.177  34.674   7.901
  953POPC   C4A15162  16.024  34.352   7.625
  953POPC   C1B15163  15.686  34.467   8.735
  953POPC   C2B15164  15.653  34.696   8.339
  953POPC   C3B15165  15.678  34.672   7.879
  953POPC   C4B15166  15.705  34.817   7.429
  954POPC   NC315167  28.604  16.157   9.478
  954POPC   PO415168  28.101  15.650   9.441
  954POPC   GL115169  28.349  15.831   9.152
  954POPC   GL215170  28.239  16.172   9.116
  954POPC   C1A15171  28.433  15.913   8.728
  954POPC   D2A15172  28.455  16.162   8.372
  954POPC   C3A15173  28.535  15.914   7.968
  954POPC   C4A15174  28.504  15.547   7.648
  954POPC   C1B15175  28.084  16.367   8.747
  954POPC   C2B15176  27.910  16.249   8.356
  954POPC   C3B15177  28.137  16.237   7.984
  954POPC   C4B15178  28.195  16.261   7.538
  955POPC   NC315179  36.576  26.244   9.663
  955POPC   PO415180  35.926  25.955   9.690
  955POPC   GL115181  35.858  26.015   9.255
  955POPC   GL215182  36.187  26.176   9.250
  955POPC   C1A15183  35.925  26.104   8.833
  955POPC   D2A15184  36.162  25.966   8.489
  955POPC   C3A15185  36.032  26.058   8.055
  955POPC   C4A15186  35.897  25.723   7.795
  955POPC   C1B15187  36.370  26.354   8.806
  955POPC   C2B15188  36.565  26.343   8.406
  955POPC   C3B15189  36.453  26.581   8.069
  955POPC   C4B15190  36.238  26.446   7.731
  956POPC   NC315191  40.546  15.699   9.442
  956POPC   PO415192  41.013  16.287   9.529
  956POPC   GL115193  40.854  16.026   9.194
  956POPC   GL215194  40.504  16.121   9.129
  956POPC   C1A15195  40.974  15.817   8.783
  956POPC   D2A15196  41.091  16.019   8.399
  956POPC   C3A15197  41.074  15.798   8.012
  956POPC   C4A15198  40.969  15.906   7.619
  956POPC   C1B15199  40.490  15.936   8.728
  956POPC   C2B15200  40.654  15.789   8.317
  956POPC   C3B15201  40.535  15.773   7.879
  956POPC   C4B15202  40.528  15.768   7.404
  957POPC   NC315203  20.266   6.993   9.618
  957POPC   PO415204  20.973   7.033   9.574
  957POPC   GL115205  20.859   6.751   9.249
  957POPC   GL215206  20.511   6.740   9.172
  957POPC   C1A15207  20.857   6.779   8.800
  957POPC   D2A15208  20.795   6.514   8.447
  957POPC   C3A15209  20.708   6.742   8.098
  957POPC   C4A15210  20.657   6.700   7.704
  957POPC   C1B15211  20.382   6.582   8.766
  957POPC   C2B15212  20.266   6.796   8.363
  957POPC   C3B15213  20.197   6.801   7.902
  957POPC   C4B15214  20.179   6.515   7.560
  958POPC   NC315215  39.433  39.593   9.378
  958POPC   PO415216  39.309  39.053   9.739
  958POPC   GL115217  39.203  39.182   9.211
  958POPC   GL215218  38.850  39.139   9.128
  958POPC   C1A15219  39.348  39.289   8.779
  958POPC   D2A15220  39.329  39.116   8.362
  958POPC   C3A15221  39.413  39.358   8.042
  958POPC   C4A15222  39.388  39.587   7.631
  958POPC   C1B15223  38.959  38.951   8.739
  958POPC   C2B15224  39.081  38.677   8.426
  958POPC   C3B15225  38.998  38.794   8.048
  958POPC   C4B15226  39.162  39.047   7.746
  959POPC   NC315227  35.775  42.588   9.376
  959POPC   PO415228  35.205  42.283   9.510
  959POPC   GL115229  35.328  42.391   9.128
  959POPC   GL215230  35.274  42.045   9.046
  959POPC   C1A15231  35.532  42.360   8.731
  959POPC   D2A15232  35.369  42.555   8.381
  959POPC   C3A15233  35.481  42.455   7.988
  959POPC   C4A15234  35.418  42.527   7.555
  959POPC   C1B15235  35.381  41.859   8.676
  959POPC   C2B15236  35.315  42.041   8.285
  959POPC   C3B15237  35.167  42.065   7.867
  959POPC   C4B15238  35.240  41.952   7.439
  960POPC   NC315239  35.311  25.486   9.740
  960POPC   PO415240  35.798  25.019   9.646
  960POPC   GL115241  35.512  25.199   9.311
  960POPC   GL215242  35.541  25.515   9.096
  960POPC   C1A15243  35.280  25.130   8.910
  960POPC   D2A15244  35.301  25.315   8.506
  960POPC   C3A15245  35.404  25.068   8.144
  960POPC   C4A15246  35.044  25.154   7.859
  960POPC   C1B15247  35.586  25.724   8.708
  960POPC   C2B15248  35.604  25.643   8.238
  960POPC   C3B15249  35.459  25.484   7.841
  960POPC   C4B15250  35.574  25.626   7.366
  961POPC   NC315251  33.180   7.736   9.579
  961POPC   PO415252  32.862   7.155   9.541
  961POPC   GL115253  33.043   7.369   9.216
  961POPC   GL215254  32.843   7.667   9.204
  961POPC   C1A15255  33.155   7.210   8.810
  961POPC   D2A15256  33.041   7.397   8.429
  961POPC   C3A15257  33.320   7.686   8.243
  961POPC   C4A15258  33.240   7.473   7.883
  961POPC   C1B15259  33.031   7.735   8.822
  961POPC   C2B15260  32.865   7.868   8.416
  961POPC   C3B15261  32.772   7.657   8.038
  961POPC   C4B15262  32.872   7.735   7.616
  962POPC   NC315263  22.634  31.800   9.602
  962POPC   PO415264  23.298  31.741   9.395
  962POPC   GL115265  23.202  32.193   9.290
  962POPC   GL215266  22.865  32.305   9.223
  962POPC   C1A15267  23.236  32.357   8.868
  962POPC   D2A15268  23.170  32.550   8.474
  962POPC   C3A15269  23.199  32.359   8.087
  962POPC   C4A15270  23.065  32.100   7.775
  962POPC   C1B15271  22.717  32.427   8.808
  962POPC   C2B15272  22.726  32.300   8.370
  962POPC   C3B15273  22.588  32.449   7.988
  962POPC   C4B15274  22.581  32.231   7.598
  963POPC   NC315275  25.322  14.663   9.449
  963POPC   PO415276  24.981  14.102   9.376
  963POPC   GL115277  25.263  14.276   9.043
  963POPC   GL215278  25.134  14.592   8.981
  963POPC   C1A15279  25.268  14.357   8.558
  963POPC   D2A15280  25.512  14.438   8.201
  963POPC   C3A15281  25.320  14.159   7.915
  963POPC   C4A15282  24.874  14.076   7.875
  963POPC   C1B15283  24.821  14.267   8.773
  963POPC   C2B15284  24.691  14.381   8.367
  963POPC   C3B15285  24.878  14.560   8.039
  963POPC   C4B15286  25.203  14.652   7.786
  964POPC   NC315287  38.029   0.883   9.611
  964POPC   PO415288  37.389   1.013   9.448
  964POPC   GL115289  37.713   1.167   9.133
  964POPC   GL215290  37.801   0.856   9.127
  964POPC   C1A15291  37.900   1.048   8.673
  964POPC   D2A15292  37.746   0.943   8.241
  964POPC   C3A15293  37.914   1.211   7.886
  964POPC   C4A15294  38.034   1.410   7.499
  964POPC   C1B15295  37.432   0.879   8.823
  964POPC   C2B15296  37.317   0.702   8.434
  964POPC   C3B15297  37.231   0.831   8.038
  964POPC   C4B15298  37.523   0.944   7.746
  965POPC   NC315299  16.933  11.143   9.624
  965POPC   PO415300  16.351  11.444   9.673
  965POPC   GL115301  16.579  11.531   9.256
  965POPC   GL215302  16.715  11.235   9.159
  965POPC   C1A15303  16.683  11.619   8.801
  965POPC   D2A15304  16.860  11.401   8.443
  965POPC   C3A15305  16.815  11.358   7.995
  965POPC   C4A15306  16.949  11.578   7.598
  965POPC   C1B15307  16.692  11.023   8.751
  965POPC   C2B15308  16.725  10.905   8.292
  965POPC   C3B15309  16.461  10.961   7.912
  965POPC   C4B15310  16.412  11.061   7.472
  966POPC   NC315311  30.242   5.405   9.400
  966POPC   PO415312  29.897   4.783   9.525
  966POPC   GL115313  29.899   4.691   9.125
  966POPC   GL215314  30.083   4.991   8.998
  966POPC   C1A15315  29.690   4.762   8.771
  966POPC   D2A15316  29.952   4.973   8.496
  966POPC   C3A15317  29.947   4.931   8.083
  966POPC   C4A15318  30.156   4.876   7.708
  966POPC   C1B15319  30.332   5.244   8.700
  966POPC   C2B15320  30.203   5.412   8.300
  966POPC   C3B15321  30.063   5.391   7.892
  966POPC   C4B15322  30.286   5.424   7.501
  967POPC   NC315323  37.175  35.089   9.613
  967POPC   PO415324  37.348  34.388   9.544
  967POPC   GL115325  37.055  34.330   9.182
  967POPC   GL215326  36.705  34.458   9.211
  967POPC   C1A15327  37.064  34.581   8.802
  967POPC   D2A15328  37.106  34.673   8.374
  967POPC   C3A15329  37.096  34.450   7.995
  967POPC   C4A15330  36.943  34.424   7.550
  967POPC   C1B15331  36.687  34.253   8.801
  967POPC   C2B15332  36.657  34.404   8.388
  967POPC   C3B15333  36.599  34.502   7.937
  967POPC   C4B15334  36.339  34.142   7.829
  968POPC   NC315335  27.082  12.081   9.555
  968POPC   PO415336  27.691  11.865   9.404
  968POPC   GL115337  27.446  12.112   9.161
  968POPC   GL215338  27.149  11.960   9.090
  968POPC   C1A15339  27.553  12.172   8.744
  968POPC   D2A15340  27.642  12.043   8.323
  968POPC   C3A15341  27.731  12.375   8.011
  968POPC   C4A15342  27.913  12.285   7.589
  968POPC   C1B15343  27.185  11.810   8.733
  968POPC   C2B15344  27.096  11.991   8.386
  968POPC   C3B15345  27.262  11.914   8.003
  968POPC   C4B15346  27.445  12.122   7.683
  969POPC   NC315347  43.261  43.813   9.500
  969POPC   PO415348  42.796  44.285   9.438
  969POPC   GL115349  42.926  43.996   9.113
  969POPC   GL215350  43.263  43.941   8.988
  969POPC   C1A15351  42.784  44.100   8.713
  969POPC   D2A15352  42.764  43.956   8.312
  969POPC   C3A15353  43.171  43.886   8.132
  969POPC   C4A15354  43.230  43.872   7.704
  969POPC   C1B15355  43.043  43.665   8.670
  969POPC   C2B15356  42.942  43.464   8.282
  969POPC   C3B15357  42.885  43.525   7.847
  969POPC   C4B15358  43.072  43.348   7.520
  970POPC   NC315359  36.927   9.158   9.465
  970POPC   PO415360  36.557   8.545   9.445
  970POPC   GL115361  36.738   8.790   9.117
  970POPC   GL215362  36.613   9.129   9.074
  970POPC   C1A15363  37.059   9.016   8.829
  970POPC   D2A15364  37.126   9.125   8.384
  970POPC   C3A15365  36.999   8.996   7.943
  970POPC   C4A15366  37.084   9.075   7.486
  970POPC   C1B15367  36.579   8.967   8.663
  970POPC   C2B15368  36.598   9.118   8.256
  970POPC   C3B15369  36.462   8.905   7.897
  970POPC   C4B15370  36.585   8.831   7.478
  971POPC   NC315371  32.575  11.774   9.498
  971POPC   PO415372  32.068  12.253   9.692
  971POPC   GL115373  32.135  12.088   9.224
  971POPC   GL215374  32.309  11.824   9.081
  971POPC   C1A15375  32.285  12.242   8.783
  971POPC   D2A15376  32.099  12.051   8.412
  971POPC   C3A15377  32.212  11.812   8.075
  971POPC   C4A15378  32.114  12.023   7.707
  971POPC   C1B15379  32.655  11.898   8.810
  971POPC   C2B15380  32.655  12.101   8.413
  971POPC   C3B15381  32.536  12.231   8.023
  971POPC   C4B15382  32.607  11.945   7.734
  972POPC   NC315383  43.311  18.433   9.694
  972POPC   PO415384  42.846  18.105   9.437
  972POPC   GL115385  43.005  18.443   9.149
  972POPC   GL215386  43.338  18.596   9.215
  972POPC   C1A15387  43.005  18.340   8.698
  972POPC   D2A15388  43.052  17.938   8.466
  972POPC   C3A15389  42.948  18.017   8.059
  972POPC   C4A15390  43.257  18.047   7.741
  972POPC   C1B15391  43.508  18.695   8.836
  972POPC   C2B15392  43.376  18.745   8.431
  972POPC   C3B15393  43.185  18.470   8.151
  972POPC   C4B15394  43.068  18.546   7.757
  973POPC   NC315395  28.632  44.071   9.464
  973POPC   PO415396  29.350  43.926   9.542
  973POPC   GL115397  29.056  43.941   9.228
  973POPC   GL215398  28.861  43.659   9.069
  973POPC   C1A15399  29.039  44.102   8.853
  973POPC   D2A15400  28.927  43.892   8.478
  973POPC   C3A15401  29.211  44.016   8.154
  973POPC   C4A15402  29.009  43.983   7.770
  973POPC   C1B15403  29.263  43.629   8.859
  973POPC   C2B15404  29.318  43.544   8.429
  973POPC   C3B15405  29.122  43.515   8.030
  973POPC   C4B15406  29.273  43.543   7.624
  974POPC   NC315407  18.416   0.026   9.443
  974POPC   PO415408  18.030  44.453   9.578
  974POPC   GL115409  18.091  44.671   9.235
  974POPC   GL215410  18.415  44.571   9.207
  974POPC   C1A15411  18.045  44.626   8.804
  974POPC   D2A15412  18.286  44.580   8.427
  974POPC   C3A15413  18.063  44.650   8.056
  974POPC   C4A15414  18.147  44.870   7.724
  974POPC   C1B15415  18.575  44.750   8.833
  974POPC   C2B15416  18.569   0.026   8.471
  974POPC   C3B15417  18.552  44.964   8.036
  974POPC   C4B15418  18.625  44.583   7.815
  975POPC   NC315419  39.944  43.741   9.574
  975POPC   PO415420  39.906  44.413   9.497
  975POPC   GL115421  39.975  44.067   9.170
  975POPC   GL215422  40.150  43.715   9.123
  975POPC   C1A15423  39.967  44.045   8.734
  975POPC   D2A15424  40.223  44.225   8.411
  975POPC   C3A15425  39.999  44.148   8.041
  975POPC   C4A15426  40.040  44.058   7.611
  975POPC   C1B15427  40.052  43.532   8.760
  975POPC   C2B15428  40.121  43.703   8.370
  975POPC   C3B15429  39.991  43.630   7.957
  975POPC   C4B15430  40.069  43.333   7.633
  976POPC   NC315431   7.870  43.024   9.484
  976POPC   PO415432   8.514  42.776   9.453
  976POPC   GL115433   8.215  42.843   9.156
  976POPC   GL215434   8.201  43.209   9.101
  976POPC   C1A15435   8.270  42.836   8.749
  976POPC   D2A15436   8.487  43.044   8.470
  976POPC   C3A15437   8.423  42.938   8.042
  976POPC   C4A15438   8.193  43.042   7.682
  976POPC   C1B15439   7.980  43.296   8.712
  976POPC   C2B15440   7.807  43.570   8.414
  976POPC   C3B15441   7.907  43.390   8.031
  976POPC   C4B15442   7.803  43.352   7.612
  977POPC   NC315443  29.040  11.033  10.080
  977POPC   PO415444  29.189  11.445   9.533
  977POPC   GL115445  29.163  11.508   9.113
  977POPC   GL215446  29.448  11.735   9.148
  977POPC   C1A15447  29.045  11.279   8.709
  977POPC   D2A15448  29.152  11.195   8.267
  977POPC   C3A15449  28.863  11.128   7.920
  977POPC   C4A15450  29.025  11.032   7.497
  977POPC   C1B15451  29.511  11.548   8.732
  977POPC   C2B15452  29.288  11.682   8.375
  977POPC   C3B15453  28.986  11.662   8.039
  977POPC   C4B15454  29.105  11.540   7.675
  978POPC   NC315455  18.926  34.936   9.522
  978POPC   PO415456  19.141  34.295   9.633
  978POPC   GL115457  19.057  34.343   9.198
  978POPC   GL215458  18.768  34.112   9.194
  978POPC   C1A15459  19.178  34.618   8.804
  978POPC   D2A15460  19.081  34.913   8.426
  978POPC   C3A15461  19.128  34.785   7.979
  978POPC   C4A15462  18.830  34.783   7.615
  978POPC   C1B15463  18.876  34.212   8.738
  978POPC   C2B15464  19.145  34.263   8.380
  978POPC   C3B15465  19.133  34.266   7.931
  978POPC   C4B15466  18.934  34.102   7.573
  979POPC   NC315467  20.858  41.580   9.293
  979POPC   PO415468  20.387  41.471   9.744
  979POPC   GL115469  20.418  41.348   9.263
  979POPC   GL215470  20.369  41.671   9.143
  979POPC   C1A15471  20.616  41.327   8.780
  979POPC   D2A15472  20.560  41.479   8.363
  979POPC   C3A15473  20.729  41.319   8.019
  979POPC   C4A15474  20.569  41.321   7.635
  979POPC   C1B15475  20.386  41.809   8.716
  979POPC   C2B15476  20.695  41.960   8.365
  979POPC   C3B15477  20.611  41.819   7.926
  979POPC   C4B15478  20.262  41.725   7.596
  980POPC   NC315479  35.273   9.952   9.554
  980POPC   PO415480  34.973   9.347   9.324
  980POPC   GL115481  35.315   9.439   9.039
  980POPC   GL215482  35.413   9.776   9.112
  980POPC   C1A15483  35.248   9.582   8.610
  980POPC   D2A15484  35.125   9.684   8.162
  980POPC   C3A15485  35.134   9.469   7.786
  980POPC   C4A15486  35.414   9.452   7.467
  980POPC   C1B15487  35.355  10.066   8.790
  980POPC   C2B15488  35.146  10.108   8.440
  980POPC   C3B15489  35.062  10.217   8.036
  980POPC   C4B15490  35.234   9.990   7.711
  981POPC   NC315491  36.130   0.956   9.517
  981POPC   PO415492  35.786   1.490   9.636
  981POPC   GL115493  35.881   1.309   9.182
  981POPC   GL215494  36.152   1.071   9.046
  981POPC   C1A15495  35.965   1.387   8.716
  981POPC   D2A15496  35.709   1.319   8.347
  981POPC   C3A15497  35.813   1.346   7.903
  981POPC   C4A15498  35.894   1.257   7.451
  981POPC   C1B15499  36.415   0.878   8.784
  981POPC   C2B15500  36.414   1.082   8.407
  981POPC   C3B15501  36.287   1.267   8.055
  981POPC   C4B15502  36.194   0.971   7.742
  982POPC   NC315503  15.805  36.290   9.550
  982POPC   PO415504  15.649  35.602   9.389
  982POPC   GL115505  15.878  35.929   9.100
  982POPC   GL215506  15.992  36.287   9.099
  982POPC   C1A15507  15.996  36.049   8.664
  982POPC   D2A15508  16.252  36.221   8.350
  982POPC   C3A15509  16.072  36.148   7.970
  982POPC   C4A15510  16.216  36.311   7.564
  982POPC   C1B15511  15.761  36.535   8.776
  982POPC   C2B15512  15.896  36.598   8.329
  982POPC   C3B15513  15.818  36.574   7.838
  982POPC   C4B15514  15.869  36.638   7.359
  983POPC   NC315515  39.259  40.390   9.787
  983POPC   PO415516  39.091  41.007   9.600
  983POPC   GL115517  39.071  40.800   9.159
  983POPC   GL215518  39.402  40.699   9.095
  983POPC   C1A15519  39.069  40.733   8.684
  983POPC   D2A15520  38.972  40.981   8.303
  983POPC   C3A15521  39.023  40.846   7.849
  983POPC   C4A15522  39.329  40.787   7.505
  983POPC   C1B15523  39.531  40.897   8.684
  983POPC   C2B15524  39.459  40.828   8.259
  983POPC   C3B15525  39.669  40.844   7.892
  983POPC   C4B15526  39.650  41.160   7.569
  984POPC   NC315527   4.854  28.881   9.604
  984POPC   PO415528   5.195  29.396   9.488
  984POPC   GL115529   4.965  29.166   9.167
  984POPC   GL215530   5.059  28.803   9.147
  984POPC   C1A15531   5.159  29.124   8.740
  984POPC   D2A15532   5.211  29.404   8.395
  984POPC   C3A15533   4.966  29.273   8.056
  984POPC   C4A15534   5.200  28.923   7.873
  984POPC   C1B15535   4.781  28.780   8.803
  984POPC   C2B15536   4.898  28.816   8.363
  984POPC   C3B15537   4.726  28.788   7.952
  984POPC   C4B15538   4.886  28.727   7.511
  985POPC   NC315539  15.474   0.184   9.744
  985POPC   PO415540  15.963   0.669   9.540
  985POPC   GL115541  16.114   0.582   9.162
  985POPC   GL215542  16.379   0.832   9.163
  985POPC   C1A15543  16.041   0.320   8.813
  985POPC   D2A15544  15.724   0.270   8.524
  985POPC   C3A15545  15.846   0.257   8.081
  985POPC   C4A15546  15.593   0.260   7.703
  985POPC   C1B15547  16.247   0.810   8.717
  985POPC   C2B15548  16.140   0.615   8.345
  985POPC   C3B15549  16.260   0.696   7.912
  985POPC   C4B15550  15.990   0.543   7.570
  986POPC   NC315551  33.128  16.277   9.469
  986POPC   PO415552  32.871  16.885   9.538
  986POPC   GL115553  32.950  16.674   9.166
  986POPC   GL215554  32.709  16.400   9.222
  986POPC   C1A15555  33.188  16.494   8.827
  986POPC   D2A15556  33.417  16.601   8.462
  986POPC   C3A15557  33.225  16.574   8.087
  986POPC   C4A15558  33.138  16.772   7.721
  986POPC   C1B15559  32.683  16.338   8.793
  986POPC   C2B15560  32.866  16.434   8.424
  986POPC   C3B15561  32.729  16.583   8.052
  986POPC   C4B15562  32.667  16.624   7.631
  987POPC   NC315563   0.743  22.841   9.513
  987POPC   PO415564   0.092  23.048   9.566
  987POPC   GL115565   0.363  23.093   9.236
  987POPC   GL215566   0.292  22.747   9.178
  987POPC   C1A15567   0.432  23.085   8.809
  987POPC   D2A15568   0.240  22.944   8.415
  987POPC   C3A15569   0.525  22.986   8.085
  987POPC   C4A15570   0.538  22.941   7.647
  987POPC   C1B15571   0.539  22.588   8.828
  987POPC   C2B15572   0.543  22.527   8.388
  987POPC   C3B15573   0.588  22.485   7.950
  987POPC   C4B15574   0.684  22.478   7.519
  988POPC   NC315575  23.249  26.706   9.754
  988POPC   PO415576  22.817  27.158   9.494
  988POPC   GL115577  22.758  26.850   9.241
  988POPC   GL215578  22.963  26.590   9.330
  988POPC   C1A15579  22.691  26.964   8.826
  988POPC   D2A15580  22.909  26.990   8.466
  988POPC   C3A15581  22.742  26.709   8.172
  988POPC   C4A15582  22.848  26.677   7.752
  988POPC   C1B15583  23.127  26.682   8.912
  988POPC   C2B15584  23.093  26.508   8.493
  988POPC   C3B15585  23.254  26.664   8.078
  988POPC   C4B15586  23.311  26.472   7.659
  989POPC   NC315587  28.426   2.076   9.493
  989POPC   PO415588  28.410   1.448   9.622
  989POPC   GL115589  28.493   1.654   9.199
  989POPC   GL215590  28.211   1.855   9.057
  989POPC   C1A15591  28.649   1.910   8.841
  989POPC   D2A15592  28.415   1.966   8.472
  989POPC   C3A15593  28.622   1.958   8.080
  989POPC   C4A15594  28.452   2.065   7.688
  989POPC   C1B15595  28.260   2.270   8.891
  989POPC   C2B15596  28.223   2.438   8.508
  989POPC   C3B15597  28.188   2.275   8.093
  989POPC   C4B15598  28.008   2.423   7.709
  990POPC   NC315599  41.598  10.072   9.534
  990POPC   PO415600  41.258   9.415   9.560
  990POPC   GL115601  41.537   9.658   9.204
  990POPC   GL215602  41.380   9.976   9.097
  990POPC   C1A15603  41.723   9.745   8.759
  990POPC   D2A15604  41.581   9.857   8.312
  990POPC   C3A15605  41.701   9.604   7.922
  990POPC   C4A15606  41.611   9.706   7.500
  990POPC   C1B15607  41.222   9.804   8.718
  990POPC   C2B15608  41.069   9.861   8.315
  990POPC   C3B15609  41.218   9.806   7.933
  990POPC   C4B15610  41.191  10.009   7.575
  991POPC   NC315611  26.325  22.275   9.479
  991POPC   PO415612  25.747  22.083   9.693
  991POPC   GL115613  25.914  21.987   9.253
  991POPC   GL215614  26.205  22.070   9.057
  991POPC   C1A15615  25.832  21.917   8.796
  991POPC   D2A15616  26.062  22.037   8.419
  991POPC   C3A15617  25.885  22.184   8.067
  991POPC   C4A15618  26.099  22.365   7.751
  991POPC   C1B15619  26.450  22.176   8.717
  991POPC   C2B15620  26.632  22.087   8.391
  991POPC   C3B15621  26.452  22.116   8.056
  991POPC   C4B15622  26.464  22.053   7.674
  992POPC   NC315623   3.772  36.795   9.477
  992POPC   PO415624   4.406  37.141   9.433
  992POPC   GL115625   4.208  36.923   9.141
  992POPC   GL215626   4.113  36.584   9.163
  992POPC   C1A15627   4.125  37.071   8.753
  992POPC   D2A15628   4.179  37.249   8.378
  992POPC   C3A15629   4.084  37.086   7.968
  992POPC   C4A15630   4.291  37.096   7.597
  992POPC   C1B15631   4.381  36.593   8.809
  992POPC   C2B15632   4.358  36.712   8.416
  992POPC   C3B15633   4.460  36.747   8.009
  992POPC   C4B15634   4.204  36.617   7.674
  993POPC   NC315635  28.914  40.577   9.441
  993POPC   PO415636  29.417  40.975   9.478
  993POPC   GL115637  29.279  40.928   9.027
  993POPC   GL215638  29.084  40.641   8.958
  993POPC   C1A15639  29.239  40.857   8.542
  993POPC   D2A15640  29.377  40.609   8.182
  993POPC   C3A15641  29.284  40.918   7.875
  993POPC   C4A15642  28.913  41.154   7.832
  993POPC   C1B15643  29.307  40.376   8.660
  993POPC   C2B15644  29.034  40.183   8.412
  993POPC   C3B15645  28.913  40.252   8.012
  993POPC   C4B15646  29.101  40.461   7.711
  994POPC   NC315647  44.336  25.137   9.589
  994POPC   PO415648  43.622  25.230   9.523
  994POPC   GL115649  43.729  25.210   9.099
  994POPC   GL215650  44.089  25.240   9.148
  994POPC   C1A15651  43.877  25.241   8.662
  994POPC   D2A15652  44.038  24.901   8.375
  994POPC   C3A15653  44.042  25.057   7.969
  994POPC   C4A15654  43.802  25.366   7.769
  994POPC   C1B15655  44.056  25.659   8.962
  994POPC   C2B15656  44.127  25.702   8.527
  994POPC   C3B15657  44.178  25.525   8.124
  994POPC   C4B15658  44.210  25.681   7.708
  995POPC   NC315659  43.248  14.177   9.470
  995POPC   PO415660  42.927  14.625   9.757
  995POPC   GL115661  42.998  14.486   9.189
  995POPC   GL215662  43.288  14.637   9.066
  995POPC   C1A15663  43.144  14.342   8.704
  995POPC   D2A15664  43.357  14.385   8.284
  995POPC   C3A15665  43.074  14.337   7.903
  995POPC   C4A15666  42.870  14.541   7.552
  995POPC   C1B15667  43.423  14.885   8.719
  995POPC   C2B15668  43.305  14.937   8.289
  995POPC   C3B15669  43.430  14.746   7.893
  995POPC   C4B15670  43.523  14.329   7.696
  996POPC   NC315671  28.872  11.118   9.388
  996POPC   PO415672  28.250  11.323   9.505
  996POPC   GL115673  28.304  11.186   9.129
  996POPC   GL215674  28.390  10.846   9.187
  996POPC   C1A15675  28.529  11.356   8.767
  996POPC   D2A15676  28.663  11.397   8.345
  996POPC   C3A15677  28.395  11.350   7.970
  996POPC   C4A15678  28.592  11.534   7.639
  996POPC   C1B15679  28.317  10.890   8.727
  996POPC   C2B15680  28.214  11.013   8.312
  996POPC   C3B15681  28.398  10.856   7.918
  996POPC   C4B15682  28.523  11.041   7.519
  997POPC   NC315683  35.327  17.922   9.370
  997POPC   PO415684  35.161  18.564   9.566
  997POPC   GL115685  35.206  18.401   9.138
  997POPC   GL215686  35.440  18.147   8.945
  997POPC   C1A15687  35.172  18.507   8.725
  997POPC   D2A15688  35.368  18.260   8.421
  997POPC   C3A15689  35.297  18.513   8.067
  997POPC   C4A15690  35.581  18.612   7.812
  997POPC   C1B15691  35.640  17.849   8.659
  997POPC   C2B15692  35.774  17.981   8.235
  997POPC   C3B15693  35.567  18.108   7.835
  997POPC   C4B15694  35.654  18.198   7.363
  998POPC   NC315695   7.877  13.807   9.522
  998POPC   PO415696   8.442  13.429   9.575
  998POPC   GL115697   8.271  13.614   9.232
  998POPC   GL215698   7.975  13.400   9.203
  998POPC   C1A15699   8.187  13.718   8.817
  998POPC   D2A15700   8.407  13.601   8.448
  998POPC   C3A15701   8.196  13.698   8.081
  998POPC   C4A15702   8.386  13.695   7.696
  998POPC   C1B15703   7.740  13.441   8.839
  998POPC   C2B15704   7.895  13.464   8.439
  998POPC   C3B15705   7.891  13.285   8.025
  998POPC   C4B15706   7.924  13.522   7.634
  999POPC   NC315707  35.953   4.264   9.883
  999POPC   PO415708  36.504   4.308   9.468
  999POPC   GL115709  36.113   4.396   9.235
  999POPC   GL215710  35.958   4.049   9.278
  999POPC   C1A15711  36.146   4.697   8.852
  999POPC   D2A15712  36.247   4.449   8.540
  999POPC   C3A15713  36.210   4.542   8.108
  999POPC   C4A15714  35.947   4.343   7.854
  999POPC   C1B15715  36.163   4.028   8.861
  999POPC   C2B15716  36.337   3.889   8.465
  999POPC   C3B15717  36.259   3.979   8.020
  999POPC   C4B15718  35.890   3.852   7.750
 1000POPC   NC315719  17.294  34.915   9.531
 1000POPC   PO415720  17.759  34.457   9.424
 1000POPC   GL115721  17.626  34.762   9.123
 1000POPC   GL215722  17.339  34.576   9.114
 1000POPC   C1A15723  17.446  34.780   8.672
 1000POPC   D2A15724  17.172  34.680   8.317
 1000POPC   C3A15725  17.439  34.742   7.948
 1000POPC   C4A15726  17.790  34.474   7.843
 1000POPC   C1B15727  17.449  34.269   8.782
 1000POPC   C2B15728  17.567  34.333   8.371
 1000POPC   C3B15729  17.406  34.160   8.012
 1000POPC   C4B15730  17.318  34.334   7.618
 1001POPC   NC315731  20.294  30.330   9.666
 1001POPC   PO415732  20.611  29.638   9.599
 1001POPC   GL115733  20.623  29.995   9.330
 1001POPC   GL215734  20.324  30.064   9.240
 1001POPC   C1A15735  20.728  30.122   8.897
 1001POPC   D2A15736  20.710  29.913   8.479
 1001POPC   C3A15737  20.794  30.047   8.035
 1001POPC   C4A15738  20.780  29.655   7.782
 1001POPC   C1B15739  20.268  29.890   8.869
 1001POPC   C2B15740  20.195  29.986   8.470
 1001POPC   C3B15741  20.330  29.837   8.114
 1001POPC   C4B15742  20.261  29.963   7.769
 1002POPC   NC315743  42.695  13.340   9.675
 1002POPC   PO415744  42.845  13.940   9.367
 1002POPC   GL115745  43.227  13.696   9.261
 1002POPC   GL215746  43.189  13.942   9.007
 1002POPC   C1A15747  43.439  13.527   8.885
 1002POPC   D2A15748  43.174  13.557   8.520
 1002POPC   C3A15749  43.258  13.445   8.097
 1002POPC   C4A15750  43.128  13.377   7.691
 1002POPC   C1B15751  42.847  13.919   8.712
 1002POPC   C2B15752  42.972  13.976   8.305
 1002POPC   C3B15753  42.909  13.810   7.905
 1002POPC   C4B15754  42.845  14.042   7.534
 1003POPC   NC315755   0.331  42.524   9.475
 1003POPC   PO415756   0.638  41.858   9.455
 1003POPC   GL115757   0.384  42.117   9.151
 1003POPC   GL215758   0.667  42.320   9.146
 1003POPC   C1A15759   0.158  42.121   8.738
 1003POPC   D2A15760   0.120  41.913   8.297
 1003POPC   C3A15761   0.236  42.097   7.901
 1003POPC   C4A15762   0.571  42.173   7.593
 1003POPC   C1B15763   0.546  42.471   8.756
 1003POPC   C2B15764   0.378  42.385   8.347
 1003POPC   C3B15765   0.486  42.543   7.948
 1003POPC   C4B15766   0.383  42.807   7.606
 1004POPC   NC315767  40.049   3.335   9.442
 1004POPC   PO415768  39.549   3.728   9.555
 1004POPC   GL115769  39.829   3.615   9.090
 1004POPC   GL215770  40.235   3.538   9.036
 1004POPC   C1A15771  39.997   3.746   8.671
 1004POPC   D2A15772  40.253   3.514   8.421
 1004POPC   C3A15773  39.943   3.561   8.135
 1004POPC   C4A15774  40.142   3.749   7.834
 1004POPC   C1B15775  40.133   3.162   8.776
 1004POPC   C2B15776  40.002   3.069   8.326
 1004POPC   C3B15777  40.214   3.191   7.911
 1004POPC   C4B15778  40.497   3.079   7.580
 1005POPC   NC315779  15.912  37.339   9.462
 1005POPC   PO415780  16.014  36.687   9.653
 1005POPC   GL115781  15.973  36.788   9.235
 1005POPC   GL215782  16.311  36.707   9.166
 1005POPC   C1A15783  16.027  36.986   8.829
 1005POPC   D2A15784  15.699  37.093   8.567
 1005POPC   C3A15785  15.775  37.031   8.109
 1005POPC   C4A15786  15.829  37.178   7.719
 1005POPC   C1B15787  16.280  36.530   8.768
 1005POPC   C2B15788  16.408  36.715   8.403
 1005POPC   C3B15789  16.326  36.609   7.995
 1005POPC   C4B15790  16.221  36.848   7.672
 1006POPC   NC315791   2.822  13.354   9.454
 1006POPC   PO415792   2.684  14.022   9.606
 1006POPC   GL115793   2.589  13.734   9.208
 1006POPC   GL215794   2.551  13.372   9.039
 1006POPC   C1A15795   2.496  13.812   8.800
 1006POPC   D2A15796   2.663  13.829   8.399
 1006POPC   C3A15797   2.657  13.498   8.167
 1006POPC   C4A15798   2.725  13.721   7.812
 1006POPC   C1B15799   2.900  13.504   8.748
 1006POPC   C2B15800   3.249  13.731   8.569
 1006POPC   C3B15801   3.130  13.746   8.151
 1006POPC   C4B15802   3.072  13.354   7.877
 1007POPC   NC315803  37.820  16.575   9.513
 1007POPC   PO415804  37.305  16.873   9.369
 1007POPC   GL115805  37.509  16.664   9.054
 1007POPC   GL215806  37.536  16.328   9.175
 1007POPC   C1A15807  37.385  16.667   8.627
 1007POPC   D2A15808  37.457  16.725   8.225
 1007POPC   C3A15809  37.862  16.818   8.022
 1007POPC   C4A15810  37.576  16.718   7.691
 1007POPC   C1B15811  37.651  16.271   8.763
 1007POPC   C2B15812  37.836  16.428   8.399
 1007POPC   C3B15813  37.752  16.345   7.978
 1007POPC   C4B15814  38.008  16.474   7.592
 1008POPC   NC315815   7.269  34.516   9.431
 1008POPC   PO415816   6.932  35.103   9.483
 1008POPC   GL115817   7.157  34.919   9.099
 1008POPC   GL215818   7.512  34.704   9.036
 1008POPC   C1A15819   7.185  34.760   8.673
 1008POPC   D2A15820   7.288  34.473   8.327
 1008POPC   C3A15821   7.381  34.628   7.900
 1008POPC   C4A15822   7.253  34.847   7.519
 1008POPC   C1B15823   7.297  34.293   8.820
 1008POPC   C2B15824   7.444  34.028   8.523
 1008POPC   C3B15825   7.709  34.099   8.170
 1008POPC   C4B15826   7.771  34.123   7.729
 1009POPC   NC315827  13.827  12.181   9.497
 1009POPC   PO415828  13.245  12.476   9.356
 1009POPC   GL115829  13.516  12.173   9.081
 1009POPC   GL215830  13.759  11.859   9.122
 1009POPC   C1A15831  13.671  12.068   8.654
 1009POPC   D2A15832  13.520  11.775   8.326
 1009POPC   C3A15833  13.336  12.014   8.024
 1009POPC   C4A15834  13.582  12.183   7.705
 1009POPC   C1B15835  14.081  11.787   8.805
 1009POPC   C2B15836  14.017  11.758   8.362
 1009POPC   C3B15837  13.953  11.898   7.943
 1009POPC   C4B15838  14.109  12.209   7.667
 1010POPC   NC315839  32.481   7.655   9.568
 1010POPC   PO415840  32.069   7.123   9.560
 1010POPC   GL115841  32.144   7.369   9.207
 1010POPC   GL215842  32.486   7.308   9.206
 1010POPC   C1A15843  32.080   7.311   8.752
 1010POPC   D2A15844  32.171   7.027   8.421
 1010POPC   C3A15845  32.044   7.050   7.997
 1010POPC   C4A15846  31.853   7.394   7.759
 1010POPC   C1B15847  32.652   7.368   8.822
 1010POPC   C2B15848  32.481   7.521   8.456
 1010POPC   C3B15849  32.197   7.516   8.137
 1010POPC   C4B15850  32.365   7.510   7.708
 1011POPC   NC315851  24.262  31.472   9.702
 1011POPC   PO415852  23.718  31.056   9.535
 1011POPC   GL115853  23.800  31.213   9.143
 1011POPC   GL215854  23.793  31.567   9.169
 1011POPC   C1A15855  23.887  31.335   8.719
 1011POPC   D2A15856  23.718  31.609   8.388
 1011POPC   C3A15857  23.680  31.426   7.954
 1011POPC   C4A15858  23.903  31.099   7.696
 1011POPC   C1B15859  23.975  31.828   8.801
 1011POPC   C2B15860  24.147  31.893   8.384
 1011POPC   C3B15861  23.967  31.881   7.987
 1011POPC   C4B15862  24.033  31.759   7.551
 1012POPC   NC315863  38.584   8.421   9.571
 1012POPC   PO415864  38.139   7.985   9.517
 1012POPC   GL115865  38.388   7.930   9.146
 1012POPC   GL215866  38.743   8.089   9.181
 1012POPC   C1A15867  38.555   7.881   8.727
 1012POPC   D2A15868  38.695   8.139   8.380
 1012POPC   C3A15869  38.360   8.249   8.122
 1012POPC   C4A15870  38.328   7.921   7.839
 1012POPC   C1B15871  38.759   8.392   8.841
 1012POPC   C2B15872  38.848   8.667   8.458
 1012POPC   C3B15873  38.981   8.567   8.032
 1012POPC   C4B15874  38.780   8.217   7.833
 1013POPC   NC315875  11.350  12.407   9.249
 1013POPC   PO415876  11.119  11.800   9.418
 1013POPC   GL115877  11.115  12.009   9.051
 1013POPC   GL215878  10.890  12.291   9.081
 1013POPC   C1A15879  11.241  12.022   8.615
 1013POPC   D2A15880  11.361  11.688   8.322
 1013POPC   C3A15881  11.389  11.809   7.904
 1013POPC   C4A15882  10.971  11.873   7.796
 1013POPC   C1B15883  10.911  12.420   8.724
 1013POPC   C2B15884  11.016  12.533   8.326
 1013POPC   C3B15885  11.184  12.301   7.991
 1013POPC   C4B15886  10.996  12.354   7.573
 1014POPC   NC315887   7.550   6.061   9.546
 1014POPC   PO415888   6.976   5.778   9.568
 1014POPC   GL115889   7.230   5.768   9.193
 1014POPC   GL215890   7.165   6.126   9.194
 1014POPC   C1A15891   7.550   5.939   8.858
 1014POPC   D2A15892   7.633   6.231   8.485
 1014POPC   C3A15893   7.608   6.058   8.036
 1014POPC   C4A15894   7.456   5.743   7.781
 1014POPC   C1B15895   7.265   6.372   8.852
 1014POPC   C2B15896   7.222   6.523   8.447
 1014POPC   C3B15897   7.160   6.304   8.113
 1014POPC   C4B15898   7.193   6.177   7.732
 1015POPC   NC315899  43.462  24.684   9.413
 1015POPC   PO415900  42.827  24.617   9.417
 1015POPC   GL115901  43.000  24.356   9.077
 1015POPC   GL215902  43.383  24.388   8.988
 1015POPC   C1A15903  42.704  24.369   8.728
 1015POPC   D2A15904  42.568  24.388   8.303
 1015POPC   C3A15905  42.901  24.336   7.970
 1015POPC   C4A15906  43.337  24.319   7.798
 1015POPC   C1B15907  43.154  24.716   8.764
 1015POPC   C2B15908  43.008  24.643   8.368
 1015POPC   C3B15909  43.175  24.776   7.984
 1015POPC   C4B15910  43.621  24.793   7.848
 1016POPC   NC315911  34.813   0.653   9.403
 1016POPC   PO415912  34.298   0.191   9.597
 1016POPC   GL115913  34.530   0.253   9.247
 1016POPC   GL215914  34.337   0.478   9.095
 1016POPC   C1A15915  34.713   0.224   8.840
 1016POPC   D2A15916  34.558   0.147   8.443
 1016POPC   C3A15917  34.810   0.230   8.098
 1016POPC   C4A15918  34.716   0.335   7.690
 1016POPC   C1B15919  34.400   0.640   8.682
 1016POPC   C2B15920  34.520   0.668   8.226
 1016POPC   C3B15921  34.405   0.734   7.769
 1016POPC   C4B15922  34.181   0.840   7.351
 1017POPC   NC315923  40.610   9.671   9.482
 1017POPC   PO415924  39.907   9.687   9.536
 1017POPC   GL115925  40.135   9.594   9.170
 1017POPC   GL215926  40.372   9.854   9.062
 1017POPC   C1A15927  39.926   9.804   8.819
 1017POPC   D2A15928  40.121  10.043   8.494
 1017POPC   C3A15929  40.025   9.886   8.101
 1017POPC   C4A15930  39.775   9.710   7.768
 1017POPC   C1B15931  40.374   9.601   8.673
 1017POPC   C2B15932  40.383   9.400   8.268
 1017POPC   C3B15933  40.353   9.563   7.852
 1017POPC   C4B15934  40.277   9.974   7.668
 1018POPC   NC315935  26.439  20.717   9.554
 1018POPC   PO415936  25.803  20.380   9.572
 1018POPC   GL115937  26.004  20.636   9.246
 1018POPC   GL215938  26.306  20.564   9.075
 1018POPC   C1A15939  25.863  20.779   8.832
 1018POPC   D2A15940  25.988  20.842   8.382
 1018POPC   C3A15941  25.767  20.764   7.999
 1018POPC   C4A15942  26.032  20.972   7.716
 1018POPC   C1B15943  26.228  20.456   8.645
 1018POPC   C2B15944  26.451  20.369   8.276
 1018POPC   C3B15945  26.251  20.588   7.963
 1018POPC   C4B15946  25.965  20.458   7.625
 1019POPC   NC315947  28.346   9.301   9.616
 1019POPC   PO415948  28.380   8.710   9.900
 1019POPC   GL115949  28.373   8.787   9.412
 1019POPC   GL215950  28.665   8.633   9.199
 1019POPC   C1A15951  28.348   8.946   8.963
 1019POPC   D2A15952  28.251   9.055   8.525
 1019POPC   C3A15953  28.504   9.155   8.165
 1019POPC   C4A15954  28.336   9.136   7.776
 1019POPC   C1B15955  28.756   8.509   8.768
 1019POPC   C2B15956  28.719   8.703   8.328
 1019POPC   C3B15957  28.782   8.833   7.877
 1019POPC   C4B15958  28.525   8.777   7.479
 1020POPC   NC315959  27.312  41.633   9.505
 1020POPC   PO415960  27.787  41.262   9.743
 1020POPC   GL115961  27.694  41.323   9.223
 1020POPC   GL215962  27.435  41.538   9.025
 1020POPC   C1A15963  27.842  41.440   8.750
 1020POPC   D2A15964  27.877  41.662   8.309
 1020POPC   C3A15965  27.680  41.439   7.949
 1020POPC   C4A15966  27.623  41.449   7.498
 1020POPC   C1B15967  27.575  41.880   8.695
 1020POPC   C2B15968  27.524  42.057   8.274
 1020POPC   C3B15969  27.680  41.940   7.862
 1020POPC   C4B15970  27.398  41.887   7.490
 1021POPC   NC315971  37.163   7.456   9.537
 1021POPC   PO415972  36.837   6.919   9.355
 1021POPC   GL115973  36.949   7.115   9.041
 1021POPC   GL215974  37.295   7.183   9.126
 1021POPC   C1A15975  36.828   7.255   8.632
 1021POPC   D2A15976  36.635   7.321   8.226
 1021POPC   C3A15977  36.724   7.629   7.911
 1021POPC   C4A15978  36.749   7.531   7.465
 1021POPC   C1B15979  37.204   7.526   8.872
 1021POPC   C2B15980  37.254   7.475   8.459
 1021POPC   C3B15981  37.206   7.478   8.056
 1021POPC   C4B15982  36.990   7.181   7.846
 1022POPC   NC315983  30.888  25.569   9.303
 1022POPC   PO415984  31.096  24.883   9.417
 1022POPC   GL115985  30.848  25.090   9.084
 1022POPC   GL215986  30.491  25.023   9.054
 1022POPC   C1A15987  30.770  25.289   8.658
 1022POPC   D2A15988  30.997  25.257   8.242
 1022POPC   C3A15989  30.857  25.112   7.815
 1022POPC   C4A15990  30.699  25.326   7.449
 1022POPC   C1B15991  30.227  25.083   8.742
 1022POPC   C2B15992  30.430  25.035   8.379
 1022POPC   C3B15993  30.480  25.288   8.056
 1022POPC   C4B15994  30.266  25.238   7.675
 1023POPC   NC315995  38.767  44.071   9.508
 1023POPC   PO415996  38.616  43.477   9.644
 1023POPC   GL115997  38.651  43.666   9.252
 1023POPC   GL215998  38.338  43.893   9.222
 1023POPC   C1A15999  38.592  43.638   8.845
 1023POPC   D2A16000  38.482  43.538   8.471
 1023POPC   C3A16001  38.711  43.665   8.139
 1023POPC   C4A16002  38.523  43.716   7.733
 1023POPC   C1B16003  38.255  44.128   8.832
 1023POPC   C2B16004  38.204  43.962   8.423
 1023POPC   C3B16005  38.393  44.063   8.068
 1023POPC   C4B16006  38.146  44.078   7.741
 1024POPC   NC316007  34.042  44.281   9.487
 1024POPC   PO416008  33.735  43.699   9.627
 1024POPC   GL116009  33.698  43.953   9.274
 1024POPC   GL216010  33.387  44.024   9.141
 1024POPC   C1A16011  33.824  43.935   8.840
 1024POPC   D2A16012  33.731  43.759   8.444
 1024POPC   C3A16013  33.847  44.011   8.075
 1024POPC   C4A16014  33.998  44.236   7.712
 1024POPC   C1B16015  33.318  43.758   8.778
 1024POPC   C2B16016  33.206  43.734   8.335
 1024POPC   C3B16017  33.429  43.709   7.944
 1024POPC   C4B16018  33.320  43.720   7.472
 1025POPC   NC316019  14.568  15.374   9.577
 1025POPC   PO416020  14.450  14.770   9.395
 1025POPC   GL116021  14.450  15.202   9.107
 1025POPC   GL216022  14.627  15.555   9.120
 1025POPC   C1A16023  14.552  15.295   8.655
 1025POPC   D2A16024  14.691  14.963   8.337
 1025POPC   C3A16025  14.326  14.941   8.071
 1025POPC   C4A16026  14.291  15.272   7.760
 1025POPC   C1B16027  14.746  15.787   8.760
 1025POPC   C2B16028  14.718  15.671   8.319
 1025POPC   C3B16029  14.745  15.358   7.974
 1025POPC   C4B16030  14.723  15.317   7.485
 1026POPC   NC316031  42.562  23.436   9.837
 1026POPC   PO416032  42.208  23.003   9.333
 1026POPC   GL116033  42.402  22.738   9.072
 1026POPC   GL216034  42.681  22.830   9.136
 1026POPC   C1A16035  42.537  22.631   8.666
 1026POPC   D2A16036  42.299  22.814   8.388
 1026POPC   C3A16037  42.272  22.652   8.007
 1026POPC   C4A16038  42.118  22.982   7.781
 1026POPC   C1B16039  42.562  23.120   8.758
 1026POPC   C2B16040  42.724  23.090   8.403
 1026POPC   C3B16041  42.549  23.108   8.035
 1026POPC   C4B16042  42.622  22.882   7.699
 1027POPC   NC316043  27.795  16.331   9.405
 1027POPC   PO416044  27.477  16.935   9.499
 1027POPC   GL116045  27.685  16.808   9.165
 1027POPC   GL216046  27.445  16.523   9.100
 1027POPC   C1A16047  27.735  16.752   8.734
 1027POPC   D2A16048  27.487  16.562   8.400
 1027POPC   C3A16049  27.574  16.722   7.976
 1027POPC   C4A16050  27.713  16.695   7.532
 1027POPC   C1B16051  27.165  16.260   8.834
 1027POPC   C2B16052  26.969  16.323   8.433
 1027POPC   C3B16053  27.130  16.442   8.033
 1027POPC   C4B16054  27.239  16.512   7.625
 1028POPC   NC316055  35.062   2.395   9.564
 1028POPC   PO416056  35.706   2.118   9.491
 1028POPC   GL116057  35.517   1.863   9.187
 1028POPC   GL216058  35.232   2.043   9.231
 1028POPC   C1A16059  35.643   1.862   8.761
 1028POPC   D2A16060  35.583   2.087   8.404
 1028POPC   C3A16061  35.607   1.819   8.052
 1028POPC   C4A16062  35.402   1.733   7.668
 1028POPC   C1B16063  35.126   1.962   8.821
 1028POPC   C2B16064  35.004   2.028   8.411
 1028POPC   C3B16065  35.105   1.934   8.028
 1028POPC   C4B16066  34.948   1.980   7.624
 1029POPC   NC316067   1.970  26.212   9.447
 1029POPC   PO416068   1.452  25.764   9.518
 1029POPC   GL116069   1.641  25.902   9.131
 1029POPC   GL216070   1.977  25.852   9.084
 1029POPC   C1A16071   1.810  26.225   8.796
 1029POPC   D2A16072   2.001  26.236   8.414
 1029POPC   C3A16073   1.748  26.110   8.083
 1029POPC   C4A16074   1.862  25.960   7.696
 1029POPC   C1B16075   2.210  25.864   8.712
 1029POPC   C2B16076   2.288  25.812   8.281
 1029POPC   C3B16077   2.269  26.134   7.962
 1029POPC   C4B16078   2.310  26.127   7.509
 1030POPC   NC316079  43.185  29.731   9.584
 1030POPC   PO416080  42.557  29.551   9.583
 1030POPC   GL116081  42.839  29.632   9.194
 1030POPC   GL216082  43.002  29.983   9.184
 1030POPC   C1A16083  42.895  29.791   8.747
 1030POPC   D2A16084  42.734  30.029   8.436
 1030POPC   C3A16085  42.908  29.921   8.125
 1030POPC   C4A16086  42.875  30.012   7.721
 1030POPC   C1B16087  43.311  30.063   8.856
 1030POPC   C2B16088  43.336  29.849   8.458
 1030POPC   C3B16089  43.392  29.940   8.006
 1030POPC   C4B16090  43.315  29.780   7.602
 1031POPC   NC316091   8.953  15.430   9.607
 1031POPC   PO416092   8.444  14.950   9.509
 1031POPC   GL116093   8.746  15.084   9.223
 1031POPC   GL216094   8.640  15.416   9.177
 1031POPC   C1A16095   8.869  14.917   8.817
 1031POPC   D2A16096   9.005  15.108   8.426
 1031POPC   C3A16097   8.972  14.914   8.050
 1031POPC   C4A16098   9.029  15.032   7.646
 1031POPC   C1B16099   8.759  15.406   8.754
 1031POPC   C2B16100   8.590  15.398   8.332
 1031POPC   C3B16101   8.677  15.315   7.896
 1031POPC   C4B16102   8.752  15.437   7.458
 1032POPC   NC316103  30.627   6.967   9.453
 1032POPC   PO416104  31.046   6.423   9.468
 1032POPC   GL116105  30.743   6.565   9.173
 1032POPC   GL216106  30.812   6.263   9.063
 1032POPC   C1A16107  30.748   6.846   8.811
 1032POPC   D2A16108  30.604   6.695   8.394
 1032POPC   C3A16109  30.745   6.894   8.026
 1032POPC   C4A16110  30.420   6.920   7.766
 1032POPC   C1B16111  30.895   6.379   8.685
 1032POPC   C2B16112  30.869   6.217   8.313
 1032POPC   C3B16113  30.698   6.370   7.944
 1032POPC   C4B16114  30.980   6.315   7.610
 1033POPC   NC316115   0.651  38.023   9.528
 1033POPC   PO416116   0.167  37.595   9.495
 1033POPC   GL116117   0.227  37.881   9.166
 1033POPC   GL216118   0.571  37.803   9.093
 1033POPC   C1A16119   0.216  37.877   8.740
 1033POPC   D2A16120   0.349  37.553   8.452
 1033POPC   C3A16121   0.331  37.664   8.023
 1033POPC   C4A16122   0.475  37.403   7.668
 1033POPC   C1B16123   0.763  38.025   8.780
 1033POPC   C2B16124   0.606  37.984   8.367
 1033POPC   C3B16125   0.567  38.133   7.974
 1033POPC   C4B16126   0.840  37.843   7.797
 1034POPC   NC316127  13.889  19.234   9.455
 1034POPC   PO416128  14.547  19.110   9.568
 1034POPC   GL116129  14.312  19.164   9.170
 1034POPC   GL216130  14.214  18.868   9.137
 1034POPC   C1A16131  14.433  19.042   8.704
 1034POPC   D2A16132  14.379  19.333   8.359
 1034POPC   C3A16133  14.509  19.268   7.963
 1034POPC   C4A16134  14.466  18.829   7.793
 1034POPC   C1B16135  13.953  19.102   8.807
 1034POPC   C2B16136  13.921  19.090   8.382
 1034POPC   C3B16137  14.029  19.130   7.949
 1034POPC   C4B16138  13.891  19.437   7.632
 1035POPC   NC316139  43.685  15.690   9.491
 1035POPC   PO416140  44.230  16.088   9.510
 1035POPC   GL116141  44.077  15.859   9.181
 1035POPC   GL216142  43.737  15.971   9.075
 1035POPC   C1A16143  44.071  15.714   8.783
 1035POPC   D2A16144  43.806  15.678   8.420
 1035POPC   C3A16145  43.984  15.689   8.044
 1035POPC   C4A16146  43.846  15.981   7.757
 1035POPC   C1B16147  43.854  16.187   8.714
 1035POPC   C2B16148  43.880  16.345   8.282
 1035POPC   C3B16149  43.550  16.356   7.990
 1035POPC   C4B16150  43.535  16.349   7.544
 1036POPC   NC316151   0.246  27.529   9.509
 1036POPC   PO416152   0.763  27.992   9.500
 1036POPC   GL116153   0.575  27.734   9.162
 1036POPC   GL216154   0.702  27.379   9.150
 1036POPC   C1A16155   0.677  27.672   8.725
 1036POPC   D2A16156   0.588  27.839   8.331
 1036POPC   C3A16157   0.445  27.696   7.954
 1036POPC   C4A16158   0.516  27.681   7.469
 1036POPC   C1B16159   0.343  27.300   8.869
 1036POPC   C2B16160   0.218  27.434   8.448
 1036POPC   C3B16161   0.072  27.323   8.042
 1036POPC   C4B16162   0.404  27.250   7.752
 1037POPC   NC316163   6.096  19.295   9.566
 1037POPC   PO416164   5.822  18.770   9.356
 1037POPC   GL116165   5.894  19.106   9.122
 1037POPC   GL216166   5.598  19.264   8.998
 1037POPC   C1A16167   6.093  19.018   8.765
 1037POPC   D2A16168   6.180  19.011   8.345
 1037POPC   C3A16169   5.956  19.009   7.976
 1037POPC   C4A16170   6.017  19.164   7.575
 1037POPC   C1B16171   5.648  19.145   8.573
 1037POPC   C2B16172   5.489  19.152   8.170
 1037POPC   C3B16173   5.640  19.381   7.810
 1037POPC   C4B16174   5.603  19.256   7.338
 1038POPC   NC316175  33.298   6.966   9.421
 1038POPC   PO416176  33.789   6.475   9.294
 1038POPC   GL116177  33.625   6.774   9.092
 1038POPC   GL216178  33.757   7.101   9.214
 1038POPC   C1A16179  33.510   6.784   8.696
 1038POPC   D2A16180  33.842   6.781   8.379
 1038POPC   C3A16181  33.827   6.596   7.983
 1038POPC   C4A16182  33.717   6.701   7.520
 1038POPC   C1B16183  33.948   7.076   8.801
 1038POPC   C2B16184  34.282   7.032   8.491
 1038POPC   C3B16185  34.217   6.957   8.036
 1038POPC   C4B16186  34.044   7.088   7.623
 1039POPC   NC316187  38.616  12.025   9.432
 1039POPC   PO416188  37.968  11.835   9.428
 1039POPC   GL116189  38.199  12.164   9.160
 1039POPC   GL216190  38.455  11.936   8.968
 1039POPC   C1A16191  38.425  12.393   8.791
 1039POPC   D2A16192  38.614  12.189   8.455
 1039POPC   C3A16193  38.563  12.381   8.047
 1039POPC   C4A16194  38.586  12.023   7.771
 1039POPC   C1B16195  38.801  11.704   8.776
 1039POPC   C2B16196  39.100  11.735   8.428
 1039POPC   C3B16197  38.897  11.607   8.028
 1039POPC   C4B16198  38.790  11.600   7.588
 1040POPC   NC316199   8.891  41.581   9.544
 1040POPC   PO416200   9.389  41.999   9.310
 1040POPC   GL116201   9.061  41.771   9.039
 1040POPC   GL216202   8.830  41.470   9.066
 1040POPC   C1A16203   8.964  41.637   8.589
 1040POPC   D2A16204   9.138  41.466   8.204
 1040POPC   C3A16205   9.128  41.767   7.853
 1040POPC   C4A16206   9.210  41.720   7.383
 1040POPC   C1B16207   8.833  41.155   8.758
 1040POPC   C2B16208   8.678  41.229   8.333
 1040POPC   C3B16209   8.702  41.411   7.915
 1040POPC   C4B16210   8.511  41.305   7.487
 1041POPC   NC316211  39.865  19.910   9.462
 1041POPC   PO416212  40.430  19.456   9.613
 1041POPC   GL116213  40.284  19.634   9.187
 1041POPC   GL216214  39.945  19.682   9.036
 1041POPC   C1A16215  40.317  19.663   8.714
 1041POPC   D2A16216  40.052  19.519   8.385
 1041POPC   C3A16217  40.144  19.733   8.004
 1041POPC   C4A16218  40.053  19.545   7.638
 1041POPC   C1B16219  39.779  20.040   8.786
 1041POPC   C2B16220  39.613  20.118   8.341
 1041POPC   C3B16221  39.721  20.163   7.914
 1041POPC   C4B16222  40.021  20.060   7.572
 1042POPC   NC316223  23.573  43.032   9.857
 1042POPC   PO416224  23.764  43.338   9.272
 1042POPC   GL116225  23.804  42.951   9.117
 1042POPC   GL216226  24.132  42.780   9.222
 1042POPC   C1A16227  23.716  43.100   8.695
 1042POPC   D2A16228  23.681  43.384   8.379
 1042POPC   C3A16229  23.650  43.171   8.041
 1042POPC   C4A16230  23.459  43.281   7.696
 1042POPC   C1B16231  24.133  42.813   8.754
 1042POPC   C2B16232  24.129  43.097   8.390
 1042POPC   C3B16233  24.109  42.919   7.976
 1042POPC   C4B16234  23.848  42.963   7.621
 1043POPC   NC316235  21.657  12.650   9.479
 1043POPC   PO416236  21.434  13.338   9.556
 1043POPC   GL116237  21.498  13.052   9.197
 1043POPC   GL216238  21.272  12.744   9.130
 1043POPC   C1A16239  21.477  13.108   8.777
 1043POPC   D2A16240  21.263  13.229   8.402
 1043POPC   C3A16241  21.437  13.199   7.964
 1043POPC   C4A16242  21.454  13.224   7.482
 1043POPC   C1B16243  21.249  12.675   8.661
 1043POPC   C2B16244  21.494  12.776   8.275
 1043POPC   C3B16245  21.425  12.711   7.804
 1043POPC   C4B16246  21.104  12.420   7.646
 1044POPC   NC316247  43.628  13.257   9.544
 1044POPC   PO416248  43.904  13.773   9.622
 1044POPC   GL116249  43.780  13.687   9.227
 1044POPC   GL216250  43.679  14.010   9.158
 1044POPC   C1A16251  43.965  13.675   8.816
 1044POPC   D2A16252  44.263  13.629   8.460
 1044POPC   C3A16253  44.051  13.552   8.089
 1044POPC   C4A16254  43.700  13.577   7.830
 1044POPC   C1B16255  43.578  13.998   8.715
 1044POPC   C2B16256  43.615  13.730   8.354
 1044POPC   C3B16257  43.397  13.933   8.022
 1044POPC   C4B16258  43.321  13.863   7.607
 1045POPC   NC316259  25.625  23.279   9.404
 1045POPC   PO416260  25.187  22.879   9.782
 1045POPC   GL116261  25.209  22.868   9.305
 1045POPC   GL216262  25.190  23.177   9.147
 1045POPC   C1A16263  25.057  22.770   8.862
 1045POPC   D2A16264  24.925  23.008   8.474
 1045POPC   C3A16265  25.089  23.027   8.044
 1045POPC   C4A16266  25.251  22.756   7.716
 1045POPC   C1B16267  25.497  23.016   8.805
 1045POPC   C2B16268  25.508  22.992   8.375
 1045POPC   C3B16269  25.585  23.118   7.971
 1045POPC   C4B16270  25.376  23.342   7.714
 1046POPC   NC316271  44.065  21.778   9.521
 1046POPC   PO416272  43.576  22.156   9.390
 1046POPC   GL116273  43.804  22.314   9.093
 1046POPC   GL216274  44.101  22.241   9.228
 1046POPC   C1A16275  43.826  22.440   8.706
 1046POPC   D2A16276  43.553  22.300   8.422
 1046POPC   C3A16277  43.794  22.254   8.104
 1046POPC   C4A16278  43.717  22.263   7.715
 1046POPC   C1B16279  44.195  22.015   8.877
 1046POPC   C2B16280  44.103  22.040   8.469
 1046POPC   C3B16281  44.294  22.122   8.094
 1046POPC   C4B16282  44.105  21.939   7.780
 1047POPC   NC316283  16.480  17.131   9.522
 1047POPC   PO416284  16.669  17.833   9.496
 1047POPC   GL116285  16.611  17.687   9.102
 1047POPC   GL216286  16.523  17.321   9.046
 1047POPC   C1A16287  16.891  17.664   8.755
 1047POPC   D2A16288  17.114  17.294   8.566
 1047POPC   C3A16289  17.110  17.314   8.119
 1047POPC   C4A16290  16.935  17.656   7.863
 1047POPC   C1B16291  16.455  17.455   8.630
 1047POPC   C2B16292  16.611  17.484   8.220
 1047POPC   C3B16293  16.514  17.366   7.793
 1047POPC   C4B16294  16.407  17.264   7.322
 1048POPC   NC316295  35.353  38.215   9.408
 1048POPC   PO416296  35.036  38.846   9.586
 1048POPC   GL116297  35.190  38.637   9.190
 1048POPC   GL216298  34.964  38.383   9.085
 1048POPC   C1A16299  35.372  38.585   8.766
 1048POPC   D2A16300  35.121  38.742   8.411
 1048POPC   C3A16301  35.254  38.702   7.964
 1048POPC   C4A16302  35.486  38.718   7.541
 1048POPC   C1B16303  35.015  38.238   8.647
 1048POPC   C2B16304  35.343  38.287   8.341
 1048POPC   C3B16305  35.344  38.193   7.953
 1048POPC   C4B16306  35.532  38.214   7.575
 1049POPC   NC316307  34.566  38.808   9.577
 1049POPC   PO416308  34.280  38.169   9.497
 1049POPC   GL116309  34.456  38.469   9.198
 1049POPC   GL216310  34.255  38.782   9.150
 1049POPC   C1A16311  34.564  38.482   8.772
 1049POPC   D2A16312  34.640  38.611   8.363
 1049POPC   C3A16313  34.848  38.317   8.071
 1049POPC   C4A16314  34.651  38.155   7.676
 1049POPC   C1B16315  34.083  38.676   8.724
 1049POPC   C2B16316  34.156  38.728   8.271
 1049POPC   C3B16317  34.401  38.525   7.909
 1049POPC   C4B16318  34.227  38.404   7.477
 1050POPC   NC316319  26.473  41.090   9.459
 1050POPC   PO416320  26.520  40.382   9.588
 1050POPC   GL116321  26.745  40.552   9.220
 1050POPC   GL216322  26.804  40.915   9.141
 1050POPC   C1A16323  26.870  40.485   8.824
 1050POPC   D2A16324  26.955  40.574   8.406
 1050POPC   C3A16325  26.949  40.946   8.185
 1050POPC   C4A16326  26.867  41.040   7.757
 1050POPC   C1B16327  26.552  40.998   8.819
 1050POPC   C2B16328  26.464  40.902   8.432
 1050POPC   C3B16329  26.430  41.084   8.057
 1050POPC   C4B16330  26.389  40.980   7.642
 1051POPC   NC316331  18.231   4.657   9.668
 1051POPC   PO416332  17.890   4.108   9.808
 1051POPC   GL116333  18.003   4.307   9.294
 1051POPC   GL216334  18.265   4.563   9.185
 1051POPC   C1A16335  18.183   4.223   8.836
 1051POPC   D2A16336  18.254   3.976   8.449
 1051POPC   C3A16337  18.217   4.139   8.029
 1051POPC   C4A16338  17.858   4.144   7.802
 1051POPC   C1B16339  18.520   4.634   8.810
 1051POPC   C2B16340  18.506   4.425   8.369
 1051POPC   C3B16341  18.447   4.614   7.959
 1051POPC   C4B16342  18.456   4.698   7.522
 1052POPC   NC316343   7.061  36.219   9.690
 1052POPC   PO416344   6.392  35.941   9.563
 1052POPC   GL116345   6.574  36.183   9.247
 1052POPC   GL216346   6.643  35.896   9.059
 1052POPC   C1A16347   6.600  36.398   8.840
 1052POPC   D2A16348   6.734  36.245   8.424
 1052POPC   C3A16349   6.651  36.447   8.038
 1052POPC   C4A16350   6.393  36.398   7.663
 1052POPC   C1B16351   6.978  35.763   8.764
 1052POPC   C2B16352   7.139  35.921   8.388
 1052POPC   C3B16353   6.960  36.039   7.997
 1052POPC   C4B16354   6.877  36.227   7.591
 1053POPC   NC316355  30.031  39.623   9.687
 1053POPC   PO416356  29.528  40.056   9.761
 1053POPC   GL116357  29.740  39.984   9.311
 1053POPC   GL216358  29.766  40.306   9.100
 1053POPC   C1A16359  29.805  39.925   8.804
 1053POPC   D2A16360  29.681  40.116   8.416
 1053POPC   C3A16361  29.803  39.867   8.052
 1053POPC   C4A16362  29.877  39.968   7.631
 1053POPC   C1B16363  30.044  40.400   8.749
 1053POPC   C2B16364  30.048  40.546   8.365
 1053POPC   C3B16365  29.914  40.358   8.039
 1053POPC   C4B16366  30.093  40.420   7.721
 1054POPC   NC316367  22.504  12.762   9.384
 1054POPC   PO416368  21.946  13.015   9.452
 1054POPC   GL116369  21.999  12.706   9.114
 1054POPC   GL216370  22.303  12.621   8.931
 1054POPC   C1A16371  21.804  12.668   8.719
 1054POPC   D2A16372  22.072  12.830   8.393
 1054POPC   C3A16373  21.900  12.925   7.993
 1054POPC   C4A16374  21.910  12.588   7.715
 1054POPC   C1B16375  22.512  13.054   8.839
 1054POPC   C2B16376  22.611  13.311   8.505
 1054POPC   C3B16377  22.291  13.270   8.197
 1054POPC   C4B16378  22.325  13.136   7.784
 1055POPC   NC316379  29.982  29.512   9.392
 1055POPC   PO416380  29.848  30.169   9.476
 1055POPC   GL116381  29.797  29.950   9.115
 1055POPC   GL216382  29.552  29.738   9.208
 1055POPC   C1A16383  29.982  29.847   8.720
 1055POPC   D2A16384  30.068  29.603   8.371
 1055POPC   C3A16385  29.987  29.816   7.984
 1055POPC   C4A16386  29.974  29.676   7.566
 1055POPC   C1B16387  29.481  29.593   8.798
 1055POPC   C2B16388  29.570  29.755   8.403
 1055POPC   C3B16389  29.407  29.840   8.006
 1055POPC   C4B16390  29.606  30.042   7.660
 1056POPC   NC316391  28.639  16.920   9.402
 1056POPC   PO416392  28.216  16.452   9.530
 1056POPC   GL116393  28.224  16.695   9.141
 1056POPC   GL216394  28.211  17.078   9.142
 1056POPC   C1A16395  28.533  16.620   8.801
 1056POPC   D2A16396  28.617  16.802   8.410
 1056POPC   C3A16397  28.528  16.565   8.053
 1056POPC   C4A16398  28.559  16.840   7.755
 1056POPC   C1B16399  28.204  17.017   8.698
 1056POPC   C2B16400  28.111  16.719   8.356
 1056POPC   C3B16401  28.072  16.729   7.915
 1056POPC   C4B16402  28.024  17.092   7.736
 1057POPC   NC316403  42.190  40.031   9.513
 1057POPC   PO416404  42.766  39.654   9.749
 1057POPC   GL116405  42.737  39.694   9.277
 1057POPC   GL216406  42.616  40.031   9.226
 1057POPC   C1A16407  42.786  39.814   8.795
 1057POPC   D2A16408  42.635  40.018   8.394
 1057POPC   C3A16409  42.609  39.786   7.988
 1057POPC   C4A16410  42.410  39.897   7.609
 1057POPC   C1B16411  42.318  40.015   8.866
 1057POPC   C2B16412  42.107  40.085   8.471
 1057POPC   C3B16413  42.129  40.016   8.043
 1057POPC   C4B16414  41.882  39.973   7.667
 1058POPC   NC316415  15.817   4.751   9.602
 1058POPC   PO416416  16.201   5.286   9.447
 1058POPC   GL116417  16.192   5.050   9.077
 1058POPC   GL216418  15.844   4.953   9.140
 1058POPC   C1A16419  16.258   5.154   8.630
 1058POPC   D2A16420  16.013   5.337   8.275
 1058POPC   C3A16421  16.128   5.168   7.858
 1058POPC   C4A16422  16.181   4.744   7.821
 1058POPC   C1B16423  15.739   5.067   8.742
 1058POPC   C2B16424  15.574   4.848   8.404
 1058POPC   C3B16425  15.675   4.958   7.996
 1058POPC   C4B16426  15.395   5.262   7.880
 1059POPC   NC316427  31.677  27.652   9.638
 1059POPC   PO416428  31.090  27.820   9.474
 1059POPC   GL116429  31.448  27.716   9.171
 1059POPC   GL216430  31.599  27.367   9.234
 1059POPC   C1A16431  31.364  27.697   8.735
 1059POPC   D2A16432  31.156  27.620   8.319
 1059POPC   C3A16433  31.367  27.881   8.053
 1059POPC   C4A16434  31.552  27.915   7.680
 1059POPC   C1B16435  31.741  27.329   8.819
 1059POPC   C2B16436  31.516  27.280   8.432
 1059POPC   C3B16437  31.471  27.366   7.985
 1059POPC   C4B16438  31.148  27.126   7.748
 1060POPC   NC316439   7.686  39.452   9.318
 1060POPC   PO416440   7.301  39.049   9.554
 1060POPC   GL116441   7.275  39.229   9.147
 1060POPC   GL216442   7.220  39.566   9.068
 1060POPC   C1A16443   7.475  39.222   8.737
 1060POPC   D2A16444   7.303  39.162   8.348
 1060POPC   C3A16445   7.472  39.342   7.954
 1060POPC   C4A16446   7.398  39.208   7.541
 1060POPC   C1B16447   7.113  39.626   8.612
 1060POPC   C2B16448   7.055  39.573   8.153
 1060POPC   C3B16449   7.044  39.569   7.691
 1060POPC   C4B16450   7.144  39.515   7.217
 1061POPC   NC316451  41.857  19.351   9.394
 1061POPC   PO416452  42.279  18.830   9.532
 1061POPC   GL116453  42.271  18.760   9.106
 1061POPC   GL216454  42.253  19.099   9.090
 1061POPC   C1A16455  42.461  18.821   8.718
 1061POPC   D2A16456  42.407  19.049   8.371
 1061POPC   C3A16457  42.391  18.820   8.023
 1061POPC   C4A16458  42.241  18.877   7.630
 1061POPC   C1B16459  42.237  19.352   8.735
 1061POPC   C2B16460  42.222  19.547   8.345
 1061POPC   C3B16461  42.273  19.331   7.955
 1061POPC   C4B16462  42.414  19.337   7.529
 1062POPC   NC316463  23.406  25.927   9.408
 1062POPC   PO416464  23.935  26.323   9.520
 1062POPC   GL116465  23.760  26.223   9.172
 1062POPC   GL216466  23.449  26.419   9.240
 1062POPC   C1A16467  23.690  26.015   8.773
 1062POPC   D2A16468  23.704  25.675   8.481
 1062POPC   C3A16469  23.649  25.817   8.066
 1062POPC   C4A16470  23.752  25.709   7.653
 1062POPC   C1B16471  23.622  26.539   8.817
 1062POPC   C2B16472  23.585  26.433   8.395
 1062POPC   C3B16473  23.762  26.482   7.992
 1062POPC   C4B16474  23.755  26.213   7.654
 1063POPC   NC316475  15.133  20.423   9.460
 1063POPC   PO416476  15.529  21.081   9.556
 1063POPC   GL116477  15.344  20.847   9.223
 1063POPC   GL216478  15.023  20.891   9.118
 1063POPC   C1A16479  15.396  20.564   8.870
 1063POPC   D2A16480  15.524  20.607   8.479
 1063POPC   C3A16481  15.298  20.510   8.123
 1063POPC   C4A16482  15.296  20.331   7.734
 1063POPC   C1B16483  14.899  20.588   8.794
 1063POPC   C2B16484  14.846  20.632   8.359
 1063POPC   C3B16485  14.820  20.469   7.921
 1063POPC   C4B16486  14.826  20.859   7.685
 1064POPC   NC316487  32.000   9.095   9.420
 1064POPC   PO416488  32.692   8.790   9.569
 1064POPC   GL116489  32.415   8.829   9.230
 1064POPC   GL216490  32.485   9.164   9.215
 1064POPC   C1A16491  32.314   8.854   8.795
 1064POPC   D2A16492  32.492   8.941   8.371
 1064POPC   C3A16493  32.187   8.851   8.061
 1064POPC   C4A16494  31.838   9.155   7.987
 1064POPC   C1B16495  32.686   9.204   8.825
 1064POPC   C2B16496  32.867   9.428   8.495
 1064POPC   C3B16497  32.806   9.269   8.102
 1064POPC   C4B16498  32.669   8.934   7.830
 1065POPC   NC316499  24.509  44.804   9.485
 1065POPC   PO416500  24.009  44.330   9.594
 1065POPC   GL116501  24.219  44.512   9.206
 1065POPC   GL216502  24.159  44.876   9.127
 1065POPC   C1A16503  24.371  44.514   8.782
 1065POPC   D2A16504  24.637  44.433   8.397
 1065POPC   C3A16505  24.589  44.635   7.979
 1065POPC   C4A16506  24.653  44.522   7.535
 1065POPC   C1B16507  24.363   0.049   8.751
 1065POPC   C2B16508  24.494   0.037   8.297
 1065POPC   C3B16509  24.273   0.064   7.909
 1065POPC   C4B16510  24.218   0.169   7.424
 1066POPC   NC316511  37.716  34.721   9.515
 1066POPC   PO416512  37.907  34.173   9.248
 1066POPC   GL116513  37.548  34.435   9.070
 1066POPC   GL216514  37.326  34.773   9.200
 1066POPC   C1A16515  37.514  34.452   8.608
 1066POPC   D2A16516  37.546  34.260   8.205
 1066POPC   C3A16517  37.861  34.410   7.932
 1066POPC   C4A16518  38.004  34.846   7.812
 1066POPC   C1B16519  37.584  34.900   8.870
 1066POPC   C2B16520  37.636  35.000   8.452
 1066POPC   C3B16521  37.580  34.768   8.158
 1066POPC   C4B16522  37.437  34.764   7.805
 1067POPC   NC316523   1.674  43.213   9.509
 1067POPC   PO416524   2.228  42.966   9.775
 1067POPC   GL116525   2.098  42.979   9.289
 1067POPC   GL216526   1.894  43.242   9.081
 1067POPC   C1A16527   2.115  42.919   8.793
 1067POPC   D2A16528   1.969  42.959   8.347
 1067POPC   C3A16529   2.263  43.141   8.054
 1067POPC   C4A16530   2.338  42.996   7.646
 1067POPC   C1B16531   1.648  43.144   8.707
 1067POPC   C2B16532   1.470  43.201   8.342
 1067POPC   C3B16533   1.579  43.107   7.988
 1067POPC   C4B16534   1.871  43.259   7.736
 1068POPC   NC316535  18.407  27.500   9.562
 1068POPC   PO416536  18.093  28.059   9.518
 1068POPC   GL116537  18.136  27.687   9.175
 1068POPC   GL216538  18.032  27.753   8.829
 1068POPC   C1A16539  18.439  27.472   8.876
 1068POPC   D2A16540  18.543  27.592   8.440
 1068POPC   C3A16541  18.525  27.272   8.123
 1068POPC   C4A16542  18.551  27.407   7.698
 1068POPC   C1B16543  18.055  27.425   8.497
 1068POPC   C2B16544  18.021  27.287   8.101
 1068POPC   C3B16545  18.062  27.630   7.783
 1068POPC   C4B16546  17.865  27.727   7.379
 1069POPC   NC316547  11.581  24.845   9.660
 1069POPC   PO416548  12.083  24.420   9.536
 1069POPC   GL116549  12.266  24.244   9.198
 1069POPC   GL216550  12.338  24.559   9.060
 1069POPC   C1A16551  12.011  24.188   8.834
 1069POPC   D2A16552  11.835  24.236   8.399
 1069POPC   C3A16553  12.175  24.398   8.149
 1069POPC   C4A16554  12.100  24.629   7.778
 1069POPC   C1B16555  12.413  24.840   8.719
 1069POPC   C2B16556  12.578  24.770   8.297
 1069POPC   C3B16557  12.477  24.930   7.869
 1069POPC   C4B16558  12.470  24.861   7.421
 1070POPC   NC316559  40.823  40.597   9.981
 1070POPC   PO416560  40.353  40.706   9.526
 1070POPC   GL116561  40.749  40.733   9.307
 1070POPC   GL216562  40.604  41.010   9.129
 1070POPC   C1A16563  40.806  40.642   8.848
 1070POPC   D2A16564  40.565  40.735   8.462
 1070POPC   C3A16565  40.795  40.746   8.078
 1070POPC   C4A16566  41.119  40.753   7.753
 1070POPC   C1B16567  40.814  41.171   8.750
 1070POPC   C2B16568  40.921  41.169   8.315
 1070POPC   C3B16569  40.907  41.199   7.844
 1070POPC   C4B16570  40.564  40.986   7.655
 1071POPC   NC316571  44.424  41.063   9.563
 1071POPC   PO416572  44.893  40.535   9.503
 1071POPC   GL116573  44.650  40.768   9.179
 1071POPC   GL216574  44.315  40.666   9.103
 1071POPC   C1A16575  44.715  40.577   8.763
 1071POPC   D2A16576  44.746  40.716   8.356
 1071POPC   C3A16577  44.856  40.473   7.985
 1071POPC   C4A16578  44.764  40.609   7.564
 1071POPC   C1B16579  44.340  40.919   8.726
 1071POPC   C2B16580  44.257  40.916   8.293
 1071POPC   C3B16581  44.458  40.813   7.923
 1071POPC   C4B16582  44.258  40.586   7.572
 1072POPC   NC316583   0.778  25.321   9.527
 1072POPC   PO416584   1.402  25.127   9.594
 1072POPC   GL116585   1.231  25.166   9.207
 1072POPC   GL216586   1.453  25.406   9.127
 1072POPC   C1A16587   1.108  25.025   8.791
 1072POPC   D2A16588   1.233  25.199   8.421
 1072POPC   C3A16589   1.033  25.148   8.034
 1072POPC   C4A16590   1.384  25.176   7.753
 1072POPC   C1B16591   1.285  25.580   8.804
 1072POPC   C2B16592   1.229  25.763   8.442
 1072POPC   C3B16593   1.330  25.580   8.093
 1072POPC   C4B16594   1.391  25.780   7.777
 1073POPC   NC316595  34.023  23.813   9.403
 1073POPC   PO416596  33.366  23.481   9.329
 1073POPC   GL116597  33.741  23.604   9.033
 1073POPC   GL216598  33.788  23.972   8.975
 1073POPC   C1A16599  33.976  23.690   8.616
 1073POPC   D2A16600  33.812  23.645   8.205
 1073POPC   C3A16601  33.881  23.451   7.824
 1073POPC   C4A16602  33.589  23.386   7.494
 1073POPC   C1B16603  33.477  23.826   8.637
 1073POPC   C2B16604  33.336  23.835   8.210
 1073POPC   C3B16605  33.506  23.828   7.820
 1073POPC   C4B16606  33.811  23.831   7.482
 1074POPC   NC316607   0.780  21.124   9.501
 1074POPC   PO416608   0.185  21.543   9.414
 1074POPC   GL116609   0.420  21.275   9.149
 1074POPC   GL216610   0.687  21.496   9.107
 1074POPC   C1A16611   0.375  21.076   8.750
 1074POPC   D2A16612   0.170  21.163   8.366
 1074POPC   C3A16613   0.426  21.179   8.007
 1074POPC   C4A16614   0.252  21.267   7.600
 1074POPC   C1B16615   0.478  21.652   8.753
 1074POPC   C2B16616   0.576  21.607   8.324
 1074POPC   C3B16617   0.403  21.679   7.916
 1074POPC   C4B16618   0.568  21.641   7.497
 1075POPC   NC316619   5.874  30.405   9.565
 1075POPC   PO416620   5.629  31.070   9.604
 1075POPC   GL116621   5.804  30.763   9.222
 1075POPC   GL216622   6.050  30.451   9.096
 1075POPC   C1A16623   5.762  30.816   8.757
 1075POPC   D2A16624   5.900  30.864   8.302
 1075POPC   C3A16625   5.693  30.705   7.928
 1075POPC   C4A16626   5.465  30.693   7.513
 1075POPC   C1B16627   6.217  30.571   8.676
 1075POPC   C2B16628   6.157  30.423   8.259
 1075POPC   C3B16629   6.025  30.303   7.866
 1075POPC   C4B16630   6.245  30.380   7.493
 1076POPC   NC316631  32.149   6.060   9.507
 1076POPC   PO416632  32.742   6.469   9.541
 1076POPC   GL116633  32.400   6.311   9.143
 1076POPC   GL216634  32.410   5.904   9.106
 1076POPC   C1A16635  32.221   6.080   8.696
 1076POPC   D2A16636  32.017   5.971   8.278
 1076POPC   C3A16637  32.186   5.925   7.840
 1076POPC   C4A16638  32.327   6.095   7.427
 1076POPC   C1B16639  32.620   5.707   8.729
 1076POPC   C2B16640  32.523   5.699   8.282
 1076POPC   C3B16641  32.534   5.552   7.851
 1076POPC   C4B16642  32.312   5.570   7.420
 1077POPC   NC316643   0.675  24.506   9.572
 1077POPC   PO416644   0.228  24.025   9.425
 1077POPC   GL116645   0.298  24.422   9.224
 1077POPC   GL216646   0.049  24.689   9.284
 1077POPC   C1A16647   0.478  24.602   8.870
 1077POPC   D2A16648   0.536  24.457   8.438
 1077POPC   C3A16649   0.423  24.667   8.071
 1077POPC   C4A16650   0.246  24.476   7.711
 1077POPC   C1B16651  44.974  24.724   8.841
 1077POPC   C2B16652   0.073  24.874   8.406
 1077POPC   C3B16653   0.004  24.929   7.963
 1077POPC   C4B16654   0.054  24.896   7.521
 1078POPC   NC316655  20.352  42.681   9.349
 1078POPC   PO416656  20.778  43.381   9.355
 1078POPC   GL116657  20.672  43.311   9.001
 1078POPC   GL216658  20.442  43.103   9.096
 1078POPC   C1A16659  20.661  43.372   8.559
 1078POPC   D2A16660  20.686  43.517   8.174
 1078POPC   C3A16661  20.729  43.337   7.812
 1078POPC   C4A16662  21.146  43.322   7.747
 1078POPC   C1B16663  20.211  43.288   8.802
 1078POPC   C2B16664  20.155  43.176   8.402
 1078POPC   C3B16665  20.089  43.047   7.984
 1078POPC   C4B16666  20.383  42.975   7.656
 1079POPC   NC316667   8.586  12.331   9.385
 1079POPC   PO416668   8.043  11.868   9.471
 1079POPC   GL116669   8.220  12.071   9.159
 1079POPC   GL216670   8.523  11.920   9.064
 1079POPC   C1A16671   8.169  12.026   8.730
 1079POPC   D2A16672   8.064  12.277   8.454
 1079POPC   C3A16673   8.136  12.180   8.104
 1079POPC   C4A16674   8.034  12.385   7.793
 1079POPC   C1B16675   8.507  11.651   8.714
 1079POPC   C2B16676   8.277  11.738   8.322
 1079POPC   C3B16677   8.483  11.772   7.922
 1079POPC   C4B16678   8.477  11.692   7.493
 1080POPC   NC316679   9.859  30.037   9.633
 1080POPC   PO416680   9.484  29.543   9.706
 1080POPC   GL116681   9.650  29.718   9.278
 1080POPC   GL216682   9.567  30.068   9.172
 1080POPC   C1A16683   9.882  29.640   8.890
 1080POPC   D2A16684   9.803  29.833   8.480
 1080POPC   C3A16685  10.131  29.792   8.160
 1080POPC   C4A16686  10.057  29.798   7.702
 1080POPC   C1B16687   9.927  30.181   8.884
 1080POPC   C2B16688  10.106  30.243   8.452
 1080POPC   C3B16689   9.934  30.268   8.036
 1080POPC   C4B16690   9.708  30.162   7.675
 1081POPC   NC316691  11.421   2.844   9.595
 1081POPC   PO416692  10.846   2.971   9.232
 1081POPC   GL116693  11.272   3.047   9.113
 1081POPC   GL216694  11.390   2.708   9.099
 1081POPC   C1A16695  11.338   2.980   8.667
 1081POPC   D2A16696  11.109   2.688   8.402
 1081POPC   C3A16697  11.270   2.827   8.046
 1081POPC   C4A16698  11.186   2.989   7.667
 1081POPC   C1B16699  11.491   2.491   8.735
 1081POPC   C2B16700  11.376   2.182   8.450
 1081POPC   C3B16701  11.202   2.263   8.063
 1081POPC   C4B16702  11.286   2.463   7.719
 1082POPC   NC316703  15.558  42.970   9.473
 1082POPC   PO416704  14.892  43.075   9.505
 1082POPC   GL116705  15.082  43.173   9.124
 1082POPC   GL216706  14.890  42.903   8.982
 1082POPC   C1A16707  15.161  43.221   8.680
 1082POPC   D2A16708  15.124  42.977   8.277
 1082POPC   C3A16709  15.419  43.136   7.975
 1082POPC   C4A16710  15.339  43.485   7.743
 1082POPC   C1B16711  15.172  42.672   8.703
 1082POPC   C2B16712  15.452  42.564   8.362
 1082POPC   C3B16713  15.430  42.629   7.925
 1082POPC   C4B16714  15.052  42.840   7.753
 1083POPC   NC316715  11.250  28.002   9.616
 1083POPC   PO416716  11.679  28.522   9.449
 1083POPC   GL116717  11.273  28.543   9.196
 1083POPC   GL216718  11.110  28.206   9.174
 1083POPC   C1A16719  11.088  28.744   8.810
 1083POPC   D2A16720  11.295  28.629   8.418
 1083POPC   C3A16721  11.033  28.701   8.064
 1083POPC   C4A16722  11.195  28.633   7.667
 1083POPC   C1B16723  11.215  28.248   8.738
 1083POPC   C2B16724  11.036  28.219   8.311
 1083POPC   C3B16725  11.240  28.182   7.903
 1083POPC   C4B16726  11.488  28.040   7.529
 1084POPC   NC316727  30.872  14.528   9.420
 1084POPC   PO416728  30.214  14.760   9.487
 1084POPC   GL116729  30.431  14.575   9.136
 1084POPC   GL216730  30.528  14.231   8.984
 1084POPC   C1A16731  30.423  14.632   8.697
 1084POPC   D2A16732  30.523  14.228   8.473
 1084POPC   C3A16733  30.769  14.348   8.150
 1084POPC   C4A16734  30.664  14.461   7.727
 1084POPC   C1B16735  30.899  14.439   8.745
 1084POPC   C2B16736  31.094  14.679   8.375
 1084POPC   C3B16737  31.126  14.626   7.906
 1084POPC   C4B16738  31.076  14.542   7.421
 1085POPC   NC316739   3.697  24.053   9.870
 1085POPC   PO416740   3.702  24.704   9.564
 1085POPC   GL116741   3.523  24.648   9.153
 1085POPC   GL216742   3.198  24.549   9.132
 1085POPC   C1A16743   3.531  24.444   8.732
 1085POPC   D2A16744   3.687  24.122   8.437
 1085POPC   C3A16745   3.555  24.284   8.019
 1085POPC   C4A16746   3.766  24.361   7.593
 1085POPC   C1B16747   3.243  24.885   8.796
 1085POPC   C2B16748   3.438  24.883   8.415
 1085POPC   C3B16749   3.201  24.679   8.110
 1085POPC   C4B16750   3.358  24.652   7.720
 1086POPC   NC316751  35.680   0.064   9.478
 1086POPC   PO416752  35.019   0.209   9.446
 1086POPC   GL116753  35.156   0.390   9.054
 1086POPC   GL216754  35.191   0.759   9.078
 1086POPC   C1A16755  35.397   0.511   8.667
 1086POPC   D2A16756  35.741   0.353   8.405
 1086POPC   C3A16757  35.578   0.400   7.999
 1086POPC   C4A16758  35.197   0.436   7.827
 1086POPC   C1B16759  34.910   0.697   8.702
 1086POPC   C2B16760  35.052   0.661   8.272
 1086POPC   C3B16761  35.397   0.885   8.056
 1086POPC   C4B16762  35.695   0.853   7.715
 1087POPC   NC316763  37.498  40.004   9.417
 1087POPC   PO416764  38.005  40.286   9.653
 1087POPC   GL116765  37.855  40.247   9.135
 1087POPC   GL216766  37.495  40.270   8.996
 1087POPC   C1A16767  37.832  39.955   8.732
 1087POPC   D2A16768  37.884  40.115   8.301
 1087POPC   C3A16769  37.603  39.959   8.008
 1087POPC   C4A16770  37.612  39.648   7.720
 1087POPC   C1B16771  37.316  39.870   8.778
 1087POPC   C2B16772  37.289  39.698   8.350
 1087POPC   C3B16773  37.126  39.808   7.928
 1087POPC   C4B16774  37.219  39.889   7.477
 1088POPC   NC316775  11.115  21.031   9.469
 1088POPC   PO416776  11.237  20.352   9.570
 1088POPC   GL116777  11.378  20.612   9.212
 1088POPC   GL216778  11.603  20.888   9.281
 1088POPC   C1A16779  11.286  20.577   8.767
 1088POPC   D2A16780  11.414  20.341   8.381
 1088POPC   C3A16781  11.461  20.534   7.986
 1088POPC   C4A16782  11.188  20.843   7.815
 1088POPC   C1B16783  11.661  20.920   8.819
 1088POPC   C2B16784  11.443  20.880   8.393
 1088POPC   C3B16785  11.657  20.999   8.013
 1088POPC   C4B16786  11.695  20.858   7.635
 1089POPC   NC316787   2.724  15.748   9.380
 1089POPC   PO416788   3.174  16.308   9.321
 1089POPC   GL116789   2.996  16.026   9.000
 1089POPC   GL216790   3.058  15.673   8.975
 1089POPC   C1A16791   2.654  16.054   8.710
 1089POPC   D2A16792   2.351  16.252   8.418
 1089POPC   C3A16793   2.602  16.269   8.049
 1089POPC   C4A16794   3.006  16.118   7.930
 1089POPC   C1B16795   2.707  15.559   8.713
 1089POPC   C2B16796   2.788  15.731   8.301
 1089POPC   C3B16797   2.937  15.587   7.898
 1089POPC   C4B16798   2.694  15.585   7.515
 1090POPC   NC316799  36.634  35.563   9.453
 1090POPC   PO416800  37.256  35.339   9.249
 1090POPC   GL116801  36.933  35.382   9.090
 1090POPC   GL216802  36.899  35.035   9.038
 1090POPC   C1A16803  36.778  35.482   8.733
 1090POPC   D2A16804  36.776  35.351   8.357
 1090POPC   C3A16805  36.999  35.590   8.073
 1090POPC   C4A16806  36.935  35.537   7.647
 1090POPC   C1B16807  37.153  35.114   8.635
 1090POPC   C2B16808  37.166  35.108   8.157
 1090POPC   C3B16809  36.879  34.957   7.841
 1090POPC   C4B16810  36.869  34.898   7.378
 1091POPC   NC316811  38.785   0.938   9.470
 1091POPC   PO416812  38.153   1.325   9.510
 1091POPC   GL116813  38.217   1.242   9.111
 1091POPC   GL216814  38.527   1.155   9.097
 1091POPC   C1A16815  38.240   1.439   8.715
 1091POPC   D2A16816  38.100   1.436   8.300
 1091POPC   C3A16817  38.363   1.448   7.925
 1091POPC   C4A16818  38.407   1.075   7.649
 1091POPC   C1B16819  38.756   0.927   8.792
 1091POPC   C2B16820  38.833   0.770   8.379
 1091POPC   C3B16821  38.708   1.070   8.076
 1091POPC   C4B16822  38.862   1.350   7.792
 1092POPC   NC316823   6.901  25.020   9.380
 1092POPC   PO416824   6.272  25.152   9.663
 1092POPC   GL116825   6.363  25.158   9.229
 1092POPC   GL216826   6.502  24.842   9.096
 1092POPC   C1A16827   6.406  25.370   8.832
 1092POPC   D2A16828   6.573  25.510   8.429
 1092POPC   C3A16829   6.420  25.441   7.988
 1092POPC   C4A16830   6.707  25.499   7.624
 1092POPC   C1B16831   6.684  24.972   8.674
 1092POPC   C2B16832   6.669  25.031   8.196
 1092POPC   C3B16833   6.732  25.023   7.760
 1092POPC   C4B16834   7.040  24.902   7.428
 1093POPC   NC316835  18.655  17.374   9.471
 1093POPC   PO416836  19.337  17.162   9.646
 1093POPC   GL116837  19.281  17.318   9.198
 1093POPC   GL216838  18.954  17.271   9.072
 1093POPC   C1A16839  19.358  17.249   8.736
 1093POPC   D2A16840  19.169  17.393   8.329
 1093POPC   C3A16841  19.303  17.298   7.885
 1093POPC   C4A16842  19.019  17.354   7.521
 1093POPC   C1B16843  18.955  17.604   8.756
 1093POPC   C2B16844  18.720  17.658   8.384
 1093POPC   C3B16845  18.858  17.594   7.959
 1093POPC   C4B16846  18.923  17.898   7.662
 1094POPC   NC316847   6.831   9.364   9.583
 1094POPC   PO416848   6.564   8.759   9.730
 1094POPC   GL116849   6.626   8.744   9.227
 1094POPC   GL216850   6.703   9.097   9.138
 1094POPC   C1A16851   6.604   8.803   8.722
 1094POPC   D2A16852   6.472   9.131   8.371
 1094POPC   C3A16853   6.430   9.016   7.917
 1094POPC   C4A16854   6.681   8.668   7.736
 1094POPC   C1B16855   6.830   9.292   8.736
 1094POPC   C2B16856   7.053   9.140   8.399
 1094POPC   C3B16857   6.916   8.945   8.090
 1094POPC   C4B16858   6.865   9.155   7.698
 1095POPC   NC316859  25.958  41.866   9.614
 1095POPC   PO416860  25.314  41.426   9.567
 1095POPC   GL116861  25.423  41.660   9.226
 1095POPC   GL216862  25.764  41.670   9.207
 1095POPC   C1A16863  25.291  41.586   8.819
 1095POPC   D2A16864  25.043  41.453   8.469
 1095POPC   C3A16865  25.234  41.481   8.076
 1095POPC   C4A16866  25.041  41.701   7.756
 1095POPC   C1B16867  25.678  41.933   8.866
 1095POPC   C2B16868  25.671  41.982   8.436
 1095POPC   C3B16869  25.741  41.991   8.004
 1095POPC   C4B16870  25.556  41.695   7.677
 1096POPC   NC316871  25.324   2.992   9.501
 1096POPC   PO416872  25.886   2.742   9.545
 1096POPC   GL116873  25.620   2.616   9.185
 1096POPC   GL216874  25.283   2.704   9.053
 1096POPC   C1A16875  25.602   2.449   8.766
 1096POPC   D2A16876  25.332   2.380   8.414
 1096POPC   C3A16877  25.423   2.724   8.174
 1096POPC   C4A16878  25.323   3.011   7.891
 1096POPC   C1B16879  25.318   2.894   8.650
 1096POPC   C2B16880  24.992   3.032   8.393
 1096POPC   C3B16881  24.859   2.871   8.028
 1096POPC   C4B16882  24.845   3.024   7.647
 1097POPC   NC316883  15.550   0.733   9.331
 1097POPC   PO416884  15.019   0.360   9.574
 1097POPC   GL116885  15.248   0.334   9.188
 1097POPC   GL216886  15.631   0.236   9.190
 1097POPC   C1A16887  15.305   0.493   8.742
 1097POPC   D2A16888  15.046   0.497   8.373
 1097POPC   C3A16889  15.192   0.515   7.975
 1097POPC   C4A16890  14.890   0.780   7.748
 1097POPC   C1B16891  15.393  44.987   8.870
 1097POPC   C2B16892  15.218   0.018   8.482
 1097POPC   C3B16893  15.275   0.014   8.058
 1097POPC   C4B16894  15.119   0.067   7.655
 1098POPC   NC316895  13.091  42.774   9.303
 1098POPC   PO416896  12.473  42.868   9.232
 1098POPC   GL116897  12.713  43.193   9.053
 1098POPC   GL216898  13.038  43.340   9.124
 1098POPC   C1A16899  12.868  43.110   8.656
 1098POPC   D2A16900  12.596  43.008   8.309
 1098POPC   C3A16901  12.737  42.818   7.943
 1098POPC   C4A16902  12.763  42.938   7.512
 1098POPC   C1B16903  13.309  43.519   8.802
 1098POPC   C2B16904  13.272  43.333   8.392
 1098POPC   C3B16905  13.069  43.214   8.009
 1098POPC   C4B16906  12.950  43.384   7.615
 1099POPC   NC316907  24.225   9.979   9.621
 1099POPC   PO416908  24.688   9.525   9.582
 1099POPC   GL116909  24.562   9.487   9.194
 1099POPC   GL216910  24.255   9.661   9.106
 1099POPC   C1A16911  24.580   9.296   8.814
 1099POPC   D2A16912  24.410   9.407   8.452
 1099POPC   C3A16913  24.718   9.439   8.150
 1099POPC   C4A16914  24.523   9.385   7.779
 1099POPC   C1B16915  24.640   9.804   8.819
 1099POPC   C2B16916  24.532   9.916   8.432
 1099POPC   C3B16917  24.348   9.779   8.089
 1099POPC   C4B16918  24.597   9.887   7.771
 1100POPC   NC316919   1.878  40.266   9.581
 1100POPC   PO416920   1.990  39.645   9.521
 1100POPC   GL116921   1.799  39.905   9.152
 1100POPC   GL216922   1.719  40.290   9.102
 1100POPC   C1A16923   1.650  39.947   8.741
 1100POPC   D2A16924   2.000  39.849   8.475
 1100POPC   C3A16925   1.984  40.024   8.088
 1100POPC   C4A16926   2.192  39.898   7.743
 1100POPC   C1B16927   2.087  40.240   8.817
 1100POPC   C2B16928   2.201  40.483   8.413
 1100POPC   C3B16929   2.345  40.386   8.010
 1100POPC   C4B16930   2.213  40.383   7.585
 1101POPC   NC316931  30.694  43.710   9.866
 1101POPC   PO416932  30.344  43.997   9.312
 1101POPC   GL116933  30.585  43.937   8.986
 1101POPC   GL216934  30.815  43.708   9.161
 1101POPC   C1A16935  30.485  44.156   8.603
 1101POPC   D2A16936  30.485  44.135   8.173
 1101POPC   C3A16937  30.551  43.738   8.054
 1101POPC   C4A16938  30.883  43.439   8.045
 1101POPC   C1B16939  31.077  43.829   8.825
 1101POPC   C2B16940  30.979  43.822   8.390
 1101POPC   C3B16941  31.211  43.941   8.035
 1101POPC   C4B16942  31.141  44.352   7.864
 1102POPC   NC316943  42.026   1.757   9.403
 1102POPC   PO416944  41.361   1.698   9.484
 1102POPC   GL116945  41.585   1.868   9.141
 1102POPC   GL216946  41.829   1.630   8.948
 1102POPC   C1A16947  41.488   2.136   8.794
 1102POPC   D2A16948  41.585   1.912   8.423
 1102POPC   C3A16949  41.504   2.163   8.093
 1102POPC   C4A16950  41.433   2.126   7.670
 1102POPC   C1B16951  41.986   2.012   8.768
 1102POPC   C2B16952  42.138   2.024   8.367
 1102POPC   C3B16953  41.957   1.968   7.986
 1102POPC   C4B16954  41.871   1.609   7.767
 1103POPC   NC316955  30.779  27.226   9.749
 1103POPC   PO416956  30.524  27.734   9.303
 1103POPC   GL116957  30.874  27.625   9.067
 1103POPC   GL216958  31.086  27.364   9.208
 1103POPC   C1A16959  30.853  27.760   8.695
 1103POPC   D2A16960  30.621  27.752   8.368
 1103POPC   C3A16961  30.813  27.934   8.032
 1103POPC   C4A16962  30.595  27.818   7.681
 1103POPC   C1B16963  31.081  27.280   8.755
 1103POPC   C2B16964  30.788  27.243   8.405
 1103POPC   C3B16965  30.787  27.416   7.985
 1103POPC   C4B16966  31.080  27.647   7.687
 1104POPC   NC316967   1.777  30.435   9.589
 1104POPC   PO416968   2.268  30.881   9.445
 1104POPC   GL116969   1.897  30.740   9.163
 1104POPC   GL216970   1.656  30.424   9.115
 1104POPC   C1A16971   1.874  30.921   8.745
 1104POPC   D2A16972   2.091  30.975   8.359
 1104POPC   C3A16973   1.855  30.901   7.984
 1104POPC   C4A16974   1.974  30.892   7.551
 1104POPC   C1B16975   1.868  30.391   8.777
 1104POPC   C2B16976   1.833  30.522   8.392
 1104POPC   C3B16977   1.888  30.360   8.016
 1104POPC   C4B16978   1.800  30.431   7.602
 1105POPC   NC316979  39.564  15.859   9.536
 1105POPC   PO416980  40.182  16.219   9.501
 1105POPC   GL116981  39.916  16.055   9.180
 1105POPC   GL216982  39.624  16.279   9.222
 1105POPC   C1A16983  39.950  15.890   8.757
 1105POPC   D2A16984  40.153  15.958   8.358
 1105POPC   C3A16985  39.997  15.765   8.003
 1105POPC   C4A16986  40.095  16.029   7.671
 1105POPC   C1B16987  39.593  16.261   8.779
 1105POPC   C2B16988  39.656  16.104   8.325
 1105POPC   C3B16989  39.633  16.176   7.859
 1105POPC   C4B16990  39.588  15.942   7.445
 1106POPC   NC316991  43.194   8.738   9.472
 1106POPC   PO416992  42.847   9.240   9.290
 1106POPC   GL116993  42.965   8.837   9.023
 1106POPC   GL216994  43.329   8.859   8.987
 1106POPC   C1A16995  43.083   8.716   8.576
 1106POPC   D2A16996  42.833   8.978   8.293
 1106POPC   C3A16997  42.887   8.869   7.893
 1106POPC   C4A16998  43.335   8.812   7.826
 1106POPC   C1B16999  43.114   9.209   8.707
 1106POPC   C2B17000  43.122   9.409   8.308
 1106POPC   C3B17001  43.303   9.323   7.931
 1106POPC   C4B17002  43.123   9.178   7.552
 1107POPC   NC317003  41.295  13.764   9.528
 1107POPC   PO417004  41.883  13.982   9.637
 1107POPC   GL117005  41.779  13.660   9.272
 1107POPC   GL217006  41.439  13.529   9.113
 1107POPC   C1A17007  41.812  13.656   8.814
 1107POPC   D2A17008  41.504  13.574   8.497
 1107POPC   C3A17009  41.684  13.545   8.094
 1107POPC   C4A17010  41.836  13.234   7.804
 1107POPC   C1B17011  41.381  13.940   8.871
 1107POPC   C2B17012  41.171  13.970   8.459
 1107POPC   C3B17013  41.185  13.796   8.064
 1107POPC   C4B17014  41.436  13.837   7.749
 1108POPC   NC317015   6.153  33.486   9.593
 1108POPC   PO417016   5.665  33.829   9.502
 1108POPC   GL117017   5.958  33.900   9.170
 1108POPC   GL217018   6.128  33.590   9.090
 1108POPC   C1A17019   5.972  33.895   8.710
 1108POPC   D2A17020   6.239  33.832   8.352
 1108POPC   C3A17021   6.061  33.913   7.979
 1108POPC   C4A17022   5.632  34.058   8.041
 1108POPC   C1B17023   5.671  33.508   8.919
 1108POPC   C2B17024   5.434  33.489   8.525
 1108POPC   C3B17025   5.456  33.442   8.066
 1108POPC   C4B17026   5.665  33.661   7.710
 1109POPC   NC317027  21.204   6.650   9.667
 1109POPC   PO417028  21.688   6.988   9.461
 1109POPC   GL117029  21.371   6.716   9.187
 1109POPC   GL217030  21.610   6.752   8.977
 1109POPC   C1A17031  21.230   6.441   8.779
 1109POPC   D2A17032  21.271   6.371   8.281
 1109POPC   C3A17033  20.944   6.324   7.912
 1109POPC   C4A17034  21.011   6.450   7.426
 1109POPC   C1B17035  21.499   6.827   8.573
 1109POPC   C2B17036  21.765   6.736   8.260
 1109POPC   C3B17037  21.624   6.619   7.897
 1109POPC   C4B17038  21.207   6.739   7.800
 1110POPC   NC317039  16.951  19.609   9.402
 1110POPC   PO417040  16.542  20.152   9.477
 1110POPC   GL117041  16.601  19.995   9.124
 1110POPC   GL217042  16.440  19.702   9.172
 1110POPC   C1A17043  16.852  20.037   8.761
 1110POPC   D2A17044  17.038  20.096   8.349
 1110POPC   C3A17045  16.942  20.121   7.923
 1110POPC   C4A17046  16.859  19.839   7.553
 1110POPC   C1B17047  16.395  19.768   8.727
 1110POPC   C2B17048  16.705  19.686   8.421
 1110POPC   C3B17049  16.667  19.713   8.029
 1110POPC   C4B17050  16.372  19.748   7.716
 1111POPC   NC317051   4.399  13.675   9.539
 1111POPC   PO417052   3.901  13.381   9.670
 1111POPC   GL117053   4.118  13.413   9.209
 1111POPC   GL217054   4.520  13.405   9.128
 1111POPC   C1A17055   4.213  13.444   8.728
 1111POPC   D2A17056   4.360  13.787   8.411
 1111POPC   C3A17057   4.127  13.830   8.010
 1111POPC   C4A17058   4.019  13.421   7.801
 1111POPC   C1B17059   4.761  13.403   8.737
 1111POPC   C2B17060   4.807  13.538   8.298
 1111POPC   C3B17061   4.529  13.516   7.914
 1111POPC   C4B17062   4.546  13.551   7.429
 1112POPC   NC317063  39.346  36.293   9.514
 1112POPC   PO417064  39.332  36.981   9.565
 1112POPC   GL117065  39.314  36.858   9.164
 1112POPC   GL217066  39.083  37.113   8.999
 1112POPC   C1A17067  39.507  36.922   8.776
 1112POPC   D2A17068  39.264  37.031   8.416
 1112POPC   C3A17069  39.419  37.001   7.990
 1112POPC   C4A17070  39.100  37.239   7.784
 1112POPC   C1B17071  38.994  36.723   8.787
 1112POPC   C2B17072  39.122  36.545   8.419
 1112POPC   C3B17073  38.974  36.767   8.062
 1112POPC   C4B17074  38.940  36.749   7.626
 1113POPC   NC317075  22.887   6.811   9.460
 1113POPC   PO417076  23.240   6.368   9.136
 1113POPC   GL117077  22.841   6.583   9.021
 1113POPC   GL217078  22.583   6.396   9.181
 1113POPC   C1A17079  22.585   6.803   8.732
 1113POPC   D2A17080  22.824   7.044   8.432
 1113POPC   C3A17081  22.833   6.819   8.060
 1113POPC   C4A17082  23.136   6.486   7.894
 1113POPC   C1B17083  22.712   6.183   8.770
 1113POPC   C2B17084  22.846   6.396   8.380
 1113POPC   C3B17085  22.647   6.345   7.970
 1113POPC   C4B17086  22.574   6.364   7.490
 1114POPC   NC317087  36.480   6.497   9.481
 1114POPC   PO417088  37.085   6.704   9.761
 1114POPC   GL117089  37.123   6.545   9.215
 1114POPC   GL217090  36.803   6.475   9.074
 1114POPC   C1A17091  37.201   6.413   8.775
 1114POPC   D2A17092  36.960   6.372   8.361
 1114POPC   C3A17093  37.168   6.531   7.971
 1114POPC   C4A17094  37.272   6.809   7.621
 1114POPC   C1B17095  36.789   6.743   8.705
 1114POPC   C2B17096  36.905   6.881   8.281
 1114POPC   C3B17097  36.708   6.713   7.917
 1114POPC   C4B17098  36.497   6.318   7.835
 1115POPC   NC317099  13.119  34.702   9.533
 1115POPC   PO417100  13.230  34.257   9.132
 1115POPC   GL117101  12.854  34.487   9.091
 1115POPC   GL217102  12.829  34.861   9.153
 1115POPC   C1A17103  12.867  34.632   8.665
 1115POPC   D2A17104  12.864  34.563   8.238
 1115POPC   C3A17105  12.983  34.773   7.901
 1115POPC   C4A17106  12.807  34.450   7.642
 1115POPC   C1B17107  12.550  34.976   8.832
 1115POPC   C2B17108  12.443  34.822   8.416
 1115POPC   C3B17109  12.534  34.986   8.006
 1115POPC   C4B17110  12.629  34.915   7.575
 1116POPC   NC317111  31.709  44.044   9.674
 1116POPC   PO417112  31.066  43.778   9.592
 1116POPC   GL117113  31.388  43.845   9.273
 1116POPC   GL217114  31.738  43.674   9.294
 1116POPC   C1A17115  31.458  44.183   8.950
 1116POPC   D2A17116  31.371  44.145   8.515
 1116POPC   C3A17117  31.712  44.077   8.206
 1116POPC   C4A17118  31.727  43.978   7.754
 1116POPC   C1B17119  31.637  43.707   8.841
 1116POPC   C2B17120  31.494  43.658   8.419
 1116POPC   C3B17121  31.594  43.565   8.012
 1116POPC   C4B17122  31.255  43.496   7.711
 1117POPC   NC317123  22.448   7.250   9.637
 1117POPC   PO417124  22.056   7.750   9.571
 1117POPC   GL117125  22.211   7.525   9.196
 1117POPC   GL217126  21.914   7.619   9.051
 1117POPC   C1A17127  22.197   7.378   8.714
 1117POPC   D2A17128  22.167   7.527   8.271
 1117POPC   C3A17129  22.226   7.514   7.816
 1117POPC   C4A17130  22.296   7.204   7.501
 1117POPC   C1B17131  21.965   7.851   8.730
 1117POPC   C2B17132  21.778   7.832   8.383
 1117POPC   C3B17133  21.759   7.663   7.993
 1117POPC   C4B17134  21.637   7.820   7.592
 1118POPC   NC317135  19.268  19.307   9.521
 1118POPC   PO417136  18.799  18.765   9.433
 1118POPC   GL117137  18.925  19.075   9.193
 1118POPC   GL217138  19.239  18.935   9.149
 1118POPC   C1A17139  18.904  19.072   8.778
 1118POPC   D2A17140  19.116  19.019   8.401
 1118POPC   C3A17141  18.871  18.969   8.015
 1118POPC   C4A17142  18.927  18.739   7.619
 1118POPC   C1B17143  19.340  19.320   8.868
 1118POPC   C2B17144  19.340  19.496   8.448
 1118POPC   C3B17145  19.165  19.399   8.061
 1118POPC   C4B17146  19.127  19.210   7.657
 1119POPC   NC317147   0.177  26.131   9.494
 1119POPC   PO417148   0.576  25.665   9.763
 1119POPC   GL117149   0.513  25.733   9.287
 1119POPC   GL217150   0.583  26.073   9.186
 1119POPC   C1A17151   0.417  25.667   8.819
 1119POPC   D2A17152   0.374  25.881   8.375
 1119POPC   C3A17153   0.407  25.776   7.886
 1119POPC   C4A17154   0.537  25.917   7.444
 1119POPC   C1B17155   0.456  26.252   8.795
 1119POPC   C2B17156   0.228  26.380   8.444
 1119POPC   C3B17157   0.403  26.331   8.067
 1119POPC   C4B17158   0.230  26.222   7.687
 1120POPC   NC317159   8.227   2.170  10.014
 1120POPC   PO417160   8.012   1.831   9.483
 1120POPC   GL117161   8.322   2.027   9.192
 1120POPC   GL217162   8.056   1.994   8.994
 1120POPC   C1A17163   8.515   1.936   8.772
 1120POPC   D2A17164   8.465   1.686   8.399
 1120POPC   C3A17165   8.478   1.908   8.032
 1120POPC   C4A17166   8.236   1.807   7.665
 1120POPC   C1B17167   8.042   1.719   8.669
 1120POPC   C2B17168   8.025   1.919   8.315
 1120POPC   C3B17169   8.068   2.222   8.055
 1120POPC   C4B17170   7.916   2.223   7.688
 1121POPC   NC317171  43.464  23.686   9.484
 1121POPC   PO417172  44.117  23.857   9.625
 1121POPC   GL117173  43.885  23.860   9.219
 1121POPC   GL217174  44.074  23.631   9.077
 1121POPC   C1A17175  43.727  23.797   8.756
 1121POPC   D2A17176  43.890  23.640   8.302
 1121POPC   C3A17177  43.690  23.864   7.908
 1121POPC   C4A17178  43.513  23.974   7.456
 1121POPC   C1B17179  44.234  23.716   8.694
 1121POPC   C2B17180  44.357  23.831   8.287
 1121POPC   C3B17181  44.202  23.636   7.882
 1121POPC   C4B17182  44.197  23.469   7.464
 1122POPC   NC317183  33.421  19.949   9.609
 1122POPC   PO417184  34.013  19.733   9.467
 1122POPC   GL117185  33.756  19.909   9.192
 1122POPC   GL217186  33.639  19.566   9.132
 1122POPC   C1A17187  33.906  20.119   8.803
 1122POPC   D2A17188  33.991  19.940   8.394
 1122POPC   C3A17189  33.803  20.024   7.984
 1122POPC   C4A17190  34.024  19.938   7.564
 1122POPC   C1B17191  33.601  19.706   8.726
 1122POPC   C2B17192  33.450  19.931   8.391
 1122POPC   C3B17193  33.402  19.677   8.041
 1122POPC   C4B17194  33.729  19.565   7.760
 1123POPC   NC317195  12.386  11.154   9.467
 1123POPC   PO417196  13.027  11.197   9.528
 1123POPC   GL117197  12.829  11.294   9.136
 1123POPC   GL217198  12.653  10.997   9.042
 1123POPC   C1A17199  13.006  11.273   8.721
 1123POPC   D2A17200  12.838  11.172   8.331
 1123POPC   C3A17201  12.665  11.524   8.163
 1123POPC   C4A17202  12.713  11.659   7.738
 1123POPC   C1B17203  12.874  10.762   8.717
 1123POPC   C2B17204  13.072  10.714   8.331
 1123POPC   C3B17205  12.923  10.843   7.942
 1123POPC   C4B17206  12.598  11.144   7.836
 1124POPC   NC317207  23.270   1.756   9.608
 1124POPC   PO417208  23.749   2.172   9.527
 1124POPC   GL117209  23.814   2.127   9.139
 1124POPC   GL217210  23.839   1.767   9.190
 1124POPC   C1A17211  23.578   2.097   8.762
 1124POPC   D2A17212  23.535   2.346   8.390
 1124POPC   C3A17213  23.661   2.124   8.009
 1124POPC   C4A17214  23.889   2.175   7.627
 1124POPC   C1B17215  24.048   1.834   8.788
 1124POPC   C2B17216  23.880   1.747   8.401
 1124POPC   C3B17217  24.061   1.612   8.025
 1124POPC   C4B17218  23.759   1.683   7.728
 1125POPC   NC317219  19.857   6.064   9.499
 1125POPC   PO417220  19.415   5.462   9.647
 1125POPC   GL117221  19.558   5.739   9.242
 1125POPC   GL217222  19.883   5.736   9.121
 1125POPC   C1A17223  19.549   5.907   8.781
 1125POPC   D2A17224  19.663   6.040   8.336
 1125POPC   C3A17225  19.793   5.763   7.959
 1125POPC   C4A17226  19.752   5.728   7.468
 1125POPC   C1B17227  20.151   5.965   8.825
 1125POPC   C2B17228  20.412   6.140   8.468
 1125POPC   C3B17229  20.388   6.236   8.005
 1125POPC   C4B17230  20.167   5.975   7.677
 1126POPC   NC317231  44.118  14.181   9.621
 1126POPC   PO417232  43.588  14.601   9.471
 1126POPC   GL117233  43.772  14.504   9.102
 1126POPC   GL217234  44.088  14.427   9.166
 1126POPC   C1A17235  43.740  14.486   8.662
 1126POPC   D2A17236  44.103  14.533   8.403
 1126POPC   C3A17237  43.885  14.557   8.045
 1126POPC   C4A17238  43.996  14.457   7.634
 1126POPC   C1B17239  44.095  14.172   8.825
 1126POPC   C2B17240  43.986  14.053   8.427
 1126POPC   C3B17241  43.889  14.055   8.024
 1126POPC   C4B17242  44.079  13.909   7.715
 1127POPC   NC317243  16.556  32.800   9.869
 1127POPC   PO417244  15.967  33.054   9.582
 1127POPC   GL117245  15.879  33.124   9.164
 1127POPC   GL217246  15.523  33.175   9.058
 1127POPC   C1A17247  16.211  33.110   8.858
 1127POPC   D2A17248  16.261  33.336   8.485
 1127POPC   C3A17249  16.057  33.108   8.188
 1127POPC   C4A17250  16.076  33.070   7.755
 1127POPC   C1B17251  15.704  33.071   8.663
 1127POPC   C2B17252  15.657  32.801   8.308
 1127POPC   C3B17253  15.586  33.056   7.969
 1127POPC   C4B17254  15.452  33.415   7.802
 1128POPC   NC317255   2.313  24.497   9.342
 1128POPC   PO417256   1.723  24.226   9.549
 1128POPC   GL117257   1.806  24.452   9.181
 1128POPC   GL217258   1.983  24.227   9.078
 1128POPC   C1A17259   1.960  24.629   8.773
 1128POPC   D2A17260   2.113  24.684   8.342
 1128POPC   C3A17261   1.873  24.533   8.001
 1128POPC   C4A17262   1.995  24.503   7.583
 1128POPC   C1B17263   2.084  24.074   8.686
 1128POPC   C2B17264   2.223  24.117   8.253
 1128POPC   C3B17265   2.060  24.077   7.856
 1128POPC   C4B17266   2.148  24.025   7.412
 1129POPC   NC317267  36.219  30.985   9.615
 1129POPC   PO417268  36.414  30.439   9.281
 1129POPC   GL117269  36.120  30.739   9.152
 1129POPC   GL217270  36.355  30.966   8.962
 1129POPC   C1A17271  35.905  30.819   8.770
 1129POPC   D2A17272  36.159  31.003   8.436
 1129POPC   C3A17273  35.976  30.867   8.068
 1129POPC   C4A17274  36.179  30.657   7.762
 1129POPC   C1B17275  36.313  30.558   8.661
 1129POPC   C2B17276  36.185  30.293   8.297
 1129POPC   C3B17277  36.200  30.168   7.864
 1129POPC   C4B17278  36.366  30.304   7.453
 1130POPC   NC317279   3.994  29.383   9.509
 1130POPC   PO417280   4.432  29.034   9.636
 1130POPC   GL117281   4.468  28.930   9.208
 1130POPC   GL217282   4.114  28.908   9.161
 1130POPC   C1A17283   4.412  29.119   8.799
 1130POPC   D2A17284   4.551  29.199   8.417
 1130POPC   C3A17285   4.244  29.124   8.129
 1130POPC   C4A17286   4.459  29.175   7.778
 1130POPC   C1B17287   3.930  28.991   8.740
 1130POPC   C2B17288   3.677  29.022   8.367
 1130POPC   C3B17289   3.791  28.925   7.977
 1130POPC   C4B17290   4.021  28.994   7.625
 1131POPC   NC317291  29.765   6.943   9.401
 1131POPC   PO417292  30.275   6.588   9.602
 1131POPC   GL117293  30.171   6.439   9.165
 1131POPC   GL217294  29.981   6.730   9.015
 1131POPC   C1A17295  29.989   6.334   8.734
 1131POPC   D2A17296  29.990   6.628   8.375
 1131POPC   C3A17297  30.138   6.510   7.955
 1131POPC   C4A17298  29.798   6.528   7.609
 1131POPC   C1B17299  30.252   6.916   8.724
 1131POPC   C2B17300  30.246   7.077   8.294
 1131POPC   C3B17301  29.946   6.978   7.971
 1131POPC   C4B17302  29.975   6.974   7.510
 1132POPC   NC317303  42.888   5.837   9.726
 1132POPC   PO417304  42.470   6.360   9.502
 1132POPC   GL117305  42.261   6.032   9.199
 1132POPC   GL217306  42.516   5.801   9.098
 1132POPC   C1A17307  42.187   5.808   8.749
 1132POPC   D2A17308  42.342   5.956   8.360
 1132POPC   C3A17309  42.102   5.920   8.019
 1132POPC   C4A17310  41.952   5.745   7.654
 1132POPC   C1B17311  42.715   5.925   8.705
 1132POPC   C2B17312  42.834   5.724   8.348
 1132POPC   C3B17313  42.528   5.571   8.053
 1132POPC   C4B17314  42.379   5.463   7.637
 1133POPC   NC317315  21.211   3.077   9.350
 1133POPC   PO417316  20.670   2.609   9.530
 1133POPC   GL117317  20.498   2.827   9.147
 1133POPC   GL217318  20.426   3.203   9.201
 1133POPC   C1A17319  20.445   2.713   8.692
 1133POPC   D2A17320  20.619   2.743   8.287
 1133POPC   C3A17321  20.549   2.428   7.970
 1133POPC   C4A17322  20.961   2.419   7.818
 1133POPC   C1B17323  20.609   3.207   8.811
 1133POPC   C2B17324  20.395   3.173   8.426
 1133POPC   C3B17325  20.588   3.218   8.047
 1133POPC   C4B17326  20.683   2.889   7.783
 1134POPC   NC317327  12.672  28.366  10.066
 1134POPC   PO417328  13.065  28.504   9.539
 1134POPC   GL117329  12.822  28.598   9.153
 1134POPC   GL217330  12.844  28.264   9.092
 1134POPC   C1A17331  12.690  28.476   8.689
 1134POPC   D2A17332  12.553  28.179   8.347
 1134POPC   C3A17333  12.688  28.319   7.940
 1134POPC   C4A17334  12.959  28.677   7.840
 1134POPC   C1B17335  13.100  28.148   8.755
 1134POPC   C2B17336  13.044  28.323   8.338
 1134POPC   C3B17337  13.200  28.204   7.968
 1134POPC   C4B17338  13.278  27.938   7.665
 1135POPC   NC317339  42.704  25.085   9.455
 1135POPC   PO417340  43.131  25.558   9.546
 1135POPC   GL117341  43.170  25.280   9.212
 1135POPC   GL217342  42.873  25.368   9.068
 1135POPC   C1A17343  43.304  25.225   8.781
 1135POPC   D2A17344  43.461  24.989   8.440
 1135POPC   C3A17345  43.436  25.201   8.089
 1135POPC   C4A17346  43.320  25.184   7.679
 1135POPC   C1B17347  42.784  25.376   8.654
 1135POPC   C2B17348  42.946  25.137   8.348
 1135POPC   C3B17349  42.900  25.216   7.948
 1135POPC   C4B17350  42.580  25.231   7.677
 1136POPC   NC317351   2.056  36.872   9.706
 1136POPC   PO417352   2.332  37.422   9.382
 1136POPC   GL117353   2.172  37.112   9.092
 1136POPC   GL217354   2.228  36.748   9.140
 1136POPC   C1A17355   2.012  37.186   8.684
 1136POPC   D2A17356   1.878  37.131   8.265
 1136POPC   C3A17357   2.150  36.914   8.010
 1136POPC   C4A17358   2.150  36.602   7.683
 1136POPC   C1B17359   2.068  36.675   8.700
 1136POPC   C2B17360   2.016  36.518   8.274
 1136POPC   C3B17361   1.759  36.396   7.930
 1136POPC   C4B17362   1.734  36.329   7.450
 1137POPC   NC317363  18.651  22.080   9.623
 1137POPC   PO417364  18.143  21.684   9.382
 1137POPC   GL117365  18.346  22.091   9.177
 1137POPC   GL217366  18.726  22.168   9.120
 1137POPC   C1A17367  18.216  22.400   8.848
 1137POPC   D2A17368  18.249  22.527   8.401
 1137POPC   C3A17369  18.050  22.346   8.011
 1137POPC   C4A17370  17.962  21.969   7.769
 1137POPC   C1B17371  18.577  22.050   8.686
 1137POPC   C2B17372  18.475  22.095   8.235
 1137POPC   C3B17373  18.576  22.346   7.872
 1137POPC   C4B17374  18.578  22.491   7.409
 1138POPC   NC317375  42.793  17.622   9.421
 1138POPC   PO417376  43.373  17.405   9.329
 1138POPC   GL117377  43.127  17.415   9.011
 1138POPC   GL217378  43.309  17.724   8.898
 1138POPC   C1A17379  42.835  17.535   8.721
 1138POPC   D2A17380  42.633  17.588   8.349
 1138POPC   C3A17381  42.777  17.358   8.009
 1138POPC   C4A17382  42.835  17.684   7.680
 1138POPC   C1B17383  43.555  17.388   8.713
 1138POPC   C2B17384  43.251  17.395   8.396
 1138POPC   C3B17385  43.211  17.596   8.013
 1138POPC   C4B17386  43.303  17.534   7.565
 1139POPC   NC317387  30.791  28.105   9.272
 1139POPC   PO417388  30.324  28.460   9.536
 1139POPC   GL117389  30.387  28.431   9.097
 1139POPC   GL217390  30.721  28.585   9.101
 1139POPC   C1A17391  30.458  28.151   8.722
 1139POPC   D2A17392  30.377  28.196   8.314
 1139POPC   C3A17393  30.693  28.396   8.216
 1139POPC   C4A17394  30.710  28.401   7.820
 1139POPC   C1B17395  30.999  28.533   8.731
 1139POPC   C2B17396  31.027  28.751   8.344
 1139POPC   C3B17397  30.801  28.891   7.989
 1139POPC   C4B17398  30.929  28.756   7.545
 1140POPC   NC317399  17.688  15.950   9.524
 1140POPC   PO417400  17.027  15.881   9.735
 1140POPC   GL117401  17.246  15.815   9.264
 1140POPC   GL217402  17.203  16.101   8.986
 1140POPC   C1A17403  17.187  15.625   8.876
 1140POPC   D2A17404  17.270  15.833   8.486
 1140POPC   C3A17405  17.489  15.614   8.154
 1140POPC   C4A17406  17.520  15.813   7.745
 1140POPC   C1B17407  17.648  16.044   8.865
 1140POPC   C2B17408  17.793  15.925   8.470
 1140POPC   C3B17409  17.587  16.117   8.144
 1140POPC   C4B17410  17.759  16.280   7.789
 1141POPC   NC317411  37.915  39.142   9.517
 1141POPC   PO417412  37.949  39.794   9.358
 1141POPC   GL117413  37.728  39.525   9.072
 1141POPC   GL217414  37.640  39.157   9.092
 1141POPC   C1A17415  37.617  39.431   8.652
 1141POPC   D2A17416  37.756  39.490   8.228
 1141POPC   C3A17417  37.372  39.318   8.016
 1141POPC   C4A17418  37.165  39.405   7.618
 1141POPC   C1B17419  37.996  39.119   8.811
 1141POPC   C2B17420  38.231  39.199   8.419
 1141POPC   C3B17421  38.151  38.996   8.036
 1141POPC   C4B17422  37.820  39.186   7.805
 1142POPC   NC317423   5.106  44.555   9.692
 1142POPC   PO417424   5.331   0.006   9.293
 1142POPC   GL117425   5.165  44.666   9.074
 1142POPC   GL217426   5.226  44.366   9.205
 1142POPC   C1A17427   4.987  44.603   8.680
 1142POPC   D2A17428   4.745  44.856   8.417
 1142POPC   C3A17429   4.888  44.830   7.993
 1142POPC   C4A17430   5.269  44.570   7.831
 1142POPC   C1B17431   4.870  44.195   8.975
 1142POPC   C2B17432   4.863  44.090   8.539
 1142POPC   C3B17433   4.967  44.333   8.191
 1142POPC   C4B17434   4.804  44.363   7.784
 1143POPC   NC317435  35.648  17.068   9.387
 1143POPC   PO417436  35.016  17.281   9.473
 1143POPC   GL117437  35.134  17.516   9.131
 1143POPC   GL217438  35.486  17.511   9.078
 1143POPC   C1A17439  35.044  17.648   8.737
 1143POPC   D2A17440  35.219  17.766   8.365
 1143POPC   C3A17441  35.526  17.523   8.231
 1143POPC   C4A17442  35.535  17.589   7.814
 1143POPC   C1B17443  35.556  17.265   8.705
 1143POPC   C2B17444  35.788  17.094   8.341
 1143POPC   C3B17445  35.663  17.108   7.920
 1143POPC   C4B17446  35.485  17.192   7.478
 1144POPC   NC317447   4.231  28.592   9.558
 1144POPC   PO417448   4.643  28.069   9.781
 1144POPC   GL117449   4.365  28.115   9.332
 1144POPC   GL217450   4.324  28.426   9.080
 1144POPC   C1A17451   4.127  28.014   8.901
 1144POPC   D2A17452   4.292  28.063   8.495
 1144POPC   C3A17453   4.393  28.267   8.128
 1144POPC   C4A17454   4.255  28.110   7.682
 1144POPC   C1B17455   4.305  28.607   8.683
 1144POPC   C2B17456   4.022  28.636   8.354
 1144POPC   C3B17457   3.959  28.452   7.960
 1144POPC   C4B17458   4.317  28.601   7.720
 1145POPC   NC317459  18.185  34.314   9.535
 1145POPC   PO417460  18.453  34.932   9.456
 1145POPC   GL117461  18.167  34.670   9.150
 1145POPC   GL217462  18.303  34.332   9.044
 1145POPC   C1A17463  17.941  34.584   8.745
 1145POPC   D2A17464  18.043  34.534   8.299
 1145POPC   C3A17465  18.350  34.778   8.056
 1145POPC   C4A17466  18.308  34.763   7.613
 1145POPC   C1B17467  18.394  34.291   8.604
 1145POPC   C2B17468  18.644  34.398   8.238
 1145POPC   C3B17469  18.552  34.352   7.805
 1145POPC   C4B17470  18.548  34.396   7.360
 1146POPC   NC317471   9.650  31.643   9.570
 1146POPC   PO417472  10.078  31.228   9.215
 1146POPC   GL117473   9.817  31.632   9.098
 1146POPC   GL217474   9.485  31.862   9.135
 1146POPC   C1A17475   9.669  31.524   8.731
 1146POPC   D2A17476   9.736  31.189   8.435
 1146POPC   C3A17477   9.971  31.381   8.101
 1146POPC   C4A17478   9.935  31.313   7.690
 1146POPC   C1B17479   9.209  31.727   8.786
 1146POPC   C2B17480   9.320  31.481   8.368
 1146POPC   C3B17481   9.471  31.278   7.951
 1146POPC   C4B17482   9.479  31.397   7.495
 1147POPC   NC317483   1.512  17.838   9.515
 1147POPC   PO417484   0.858  17.844   9.488
 1147POPC   GL117485   1.182  17.703   9.140
 1147POPC   GL217486   1.458  17.418   9.129
 1147POPC   C1A17487   1.244  17.562   8.709
 1147POPC   D2A17488   1.321  17.430   8.338
 1147POPC   C3A17489   0.980  17.554   8.122
 1147POPC   C4A17490   1.109  17.397   7.764
 1147POPC   C1B17491   1.636  17.196   8.724
 1147POPC   C2B17492   1.700  17.064   8.278
 1147POPC   C3B17493   1.585  17.340   7.904
 1147POPC   C4B17494   1.465  17.220   7.451
 1148POPC   NC317495  30.240  10.320   9.372
 1148POPC   PO417496  30.002  10.989   9.504
 1148POPC   GL117497  29.977  10.713   9.141
 1148POPC   GL217498  29.663  10.559   9.114
 1148POPC   C1A17499  30.122  10.521   8.732
 1148POPC   D2A17500  30.263  10.530   8.280
 1148POPC   C3A17501  30.089  10.253   7.949
 1148POPC   C4A17502  29.662  10.025   7.919
 1148POPC   C1B17503  29.620  10.403   8.719
 1148POPC   C2B17504  29.681  10.552   8.310
 1148POPC   C3B17505  29.677  10.529   7.886
 1148POPC   C4B17506  30.028  10.632   7.615
 1149POPC   NC317507  11.438   4.052   9.467
 1149POPC   PO417508  11.094   4.668   9.503
 1149POPC   GL117509  11.148   4.763   9.073
 1149POPC   GL217510  11.338   4.433   9.030
 1149POPC   C1A17511  11.196   4.695   8.618
 1149POPC   D2A17512  11.326   4.317   8.429
 1149POPC   C3A17513  11.237   4.368   8.032
 1149POPC   C4A17514  11.221   4.062   7.732
 1149POPC   C1B17515  11.459   3.991   8.816
 1149POPC   C2B17516  11.548   3.748   8.422
 1149POPC   C3B17517  11.616   3.944   8.040
 1149POPC   C4B17518  11.706   4.343   7.812
 1150POPC   NC317519  16.452   4.879   9.487
 1150POPC   PO417520  16.980   5.351   9.524
 1150POPC   GL117521  16.739   5.182   9.191
 1150POPC   GL217522  16.928   4.912   9.091
 1150POPC   C1A17523  16.764   5.291   8.750
 1150POPC   D2A17524  16.898   5.313   8.308
 1150POPC   C3A17525  16.585   5.119   8.080
 1150POPC   C4A17526  16.601   4.992   7.655
 1150POPC   C1B17527  16.592   4.799   8.828
 1150POPC   C2B17528  16.573   4.696   8.395
 1150POPC   C3B17529  16.877   4.683   8.027
 1150POPC   C4B17530  17.018   4.689   7.561
 1151POPC   NC317531  41.211  32.360   9.974
 1151POPC   PO417532  40.959  32.382   9.323
 1151POPC   GL117533  40.754  32.291   8.944
 1151POPC   GL217534  40.489  31.994   8.909
 1151POPC   C1A17535  41.005  32.284   8.612
 1151POPC   D2A17536  41.009  32.273   8.183
 1151POPC   C3A17537  40.602  32.297   7.962
 1151POPC   C4A17538  40.552  32.080   7.572
 1151POPC   C1B17539  40.807  31.828   8.710
 1151POPC   C2B17540  40.917  31.743   8.297
 1151POPC   C3B17541  40.874  31.863   7.889
 1151POPC   C4B17542  41.035  32.246   7.678
 1152POPC   NC317543  26.770  15.268   9.713
 1152POPC   PO417544  26.818  14.664   9.625
 1152POPC   GL117545  26.982  15.001   9.317
 1152POPC   GL217546  26.670  15.140   9.221
 1152POPC   C1A17547  26.978  15.092   8.833
 1152POPC   D2A17548  26.708  14.953   8.480
 1152POPC   C3A17549  26.826  15.015   8.048
 1152POPC   C4A17550  27.103  15.221   7.770
 1152POPC   C1B17551  26.430  15.208   8.864
 1152POPC   C2B17552  26.492  15.439   8.506
 1152POPC   C3B17553  26.519  15.480   8.041
 1152POPC   C4B17554  26.682  15.426   7.583
 1153POPC   NC317555  12.591   6.505   9.548
 1153POPC   PO417556  13.149   6.350   9.264
 1153POPC   GL117557  12.899   6.659   9.137
 1153POPC   GL217558  13.164   6.892   9.024
 1153POPC   C1A17559  12.664   6.694   8.766
 1153POPC   D2A17560  12.840   6.804   8.321
 1153POPC   C3A17561  12.873   6.486   8.002
 1153POPC   C4A17562  12.552   6.458   7.693
 1153POPC   C1B17563  13.164   6.621   8.670
 1153POPC   C2B17564  13.314   6.532   8.286
 1153POPC   C3B17565  13.272   6.788   7.943
 1153POPC   C4B17566  13.176   6.846   7.545
 1154POPC   NC317567   7.022  21.966   9.260
 1154POPC   PO417568   7.568  22.121   9.616
 1154POPC   GL117569   7.455  22.208   9.208
 1154POPC   GL217570   7.726  22.169   9.100
 1154POPC   C1A17571   7.399  22.375   8.765
 1154POPC   D2A17572   7.035  22.383   8.499
 1154POPC   C3A17573   7.223  22.186   8.147
 1154POPC   C4A17574   7.258  22.398   7.754
 1154POPC   C1B17575   7.912  22.218   8.720
 1154POPC   C2B17576   7.704  22.291   8.369
 1154POPC   C3B17577   7.699  22.451   8.013
 1154POPC   C4B17578   7.815  22.356   7.622
 1155POPC   NC317579  16.962  32.014   9.523
 1155POPC   PO417580  16.894  32.714   9.540
 1155POPC   GL117581  16.950  32.427   9.202
 1155POPC   GL217582  16.636  32.255   9.129
 1155POPC   C1A17583  16.947  32.504   8.761
 1155POPC   D2A17584  16.700  32.349   8.434
 1155POPC   C3A17585  16.817  32.509   8.071
 1155POPC   C4A17586  16.713  32.374   7.679
 1155POPC   C1B17587  16.839  32.005   8.821
 1155POPC   C2B17588  16.740  31.836   8.415
 1155POPC   C3B17589  16.615  31.993   8.013
 1155POPC   C4B17590  16.876  31.866   7.677
 1156POPC   NC317591  32.931   6.796   9.814
 1156POPC   PO417592  33.425   6.353   9.741
 1156POPC   GL117593  33.232   6.472   9.323
 1156POPC   GL217594  33.365   6.243   9.112
 1156POPC   C1A17595  32.997   6.664   8.929
 1156POPC   D2A17596  32.891   6.592   8.461
 1156POPC   C3A17597  32.954   6.798   8.060
 1156POPC   C4A17598  32.841   6.512   7.757
 1156POPC   C1B17599  33.270   6.322   8.680
 1156POPC   C2B17600  33.384   6.496   8.278
 1156POPC   C3B17601  33.351   6.513   7.835
 1156POPC   C4B17602  33.248   6.502   7.401
 1157POPC   NC317603  41.456  23.073   9.512
 1157POPC   PO417604  41.874  22.563   9.668
 1157POPC   GL117605  41.757  22.764   9.217
 1157POPC   GL217606  41.764  23.159   9.107
 1157POPC   C1A17607  41.529  22.797   8.805
 1157POPC   D2A17608  41.500  23.161   8.499
 1157POPC   C3A17609  41.523  23.146   8.056
 1157POPC   C4A17610  41.363  22.908   7.729
 1157POPC   C1B17611  41.963  23.061   8.701
 1157POPC   C2B17612  41.795  22.781   8.352
 1157POPC   C3B17613  41.764  22.673   7.934
 1157POPC   C4B17614  41.980  22.548   7.569
 1158POPC   NC317615   6.221  37.896   9.542
 1158POPC   PO417616   5.531  37.815   9.594
 1158POPC   GL117617   5.849  37.718   9.243
 1158POPC   GL217618   5.952  38.084   9.153
 1158POPC   C1A17619   5.848  37.707   8.766
 1158POPC   D2A17620   6.021  37.549   8.356
 1158POPC   C3A17621   5.821  37.730   7.973
 1158POPC   C4A17622   5.919  37.612   7.563
 1158POPC   C1B17623   6.160  38.125   8.763
 1158POPC   C2B17624   6.002  38.066   8.379
 1158POPC   C3B17625   6.251  38.000   8.026
 1158POPC   C4B17626   6.389  37.691   7.717
 1159POPC   NC317627  36.600  37.772   9.254
 1159POPC   PO417628  35.981  37.628   9.467
 1159POPC   GL117629  36.102  37.666   9.073
 1159POPC   GL217630  36.141  38.024   9.090
 1159POPC   C1A17631  36.301  37.447   8.750
 1159POPC   D2A17632  36.169  37.310   8.362
 1159POPC   C3A17633  36.052  37.557   8.028
 1159POPC   C4A17634  36.045  37.250   7.710
 1159POPC   C1B17635  36.345  37.974   8.686
 1159POPC   C2B17636  36.207  38.016   8.270
 1159POPC   C3B17637  36.421  37.930   7.907
 1159POPC   C4B17638  36.556  37.903   7.513
 1160POPC   NC317639  30.174  30.472   9.593
 1160POPC   PO417640  29.621  30.914   9.500
 1160POPC   GL117641  29.942  30.777   9.214
 1160POPC   GL217642  30.021  30.448   9.098
 1160POPC   C1A17643  29.903  30.823   8.755
 1160POPC   D2A17644  29.623  30.704   8.394
 1160POPC   C3A17645  29.746  30.840   7.972
 1160POPC   C4A17646  29.827  30.719   7.546
 1160POPC   C1B17647  29.804  30.327   8.739
 1160POPC   C2B17648  29.889  30.206   8.317
 1160POPC   C3B17649  30.107  30.339   7.937
 1160POPC   C4B17650  30.027  30.250   7.499
 1161POPC   NC317651  33.512  30.323   9.594
 1161POPC   PO417652  33.575  30.883   9.489
 1161POPC   GL117653  33.853  30.692   9.136
 1161POPC   GL217654  34.203  30.518   9.058
 1161POPC   C1A17655  33.804  30.621   8.702
 1161POPC   D2A17656  33.679  30.849   8.369
 1161POPC   C3A17657  33.824  30.816   7.941
 1161POPC   C4A17658  33.839  30.843   7.502
 1161POPC   C1B17659  34.257  30.445   8.588
 1161POPC   C2B17660  34.196  30.388   8.129
 1161POPC   C3B17661  34.291  30.525   7.716
 1161POPC   C4B17662  34.157  30.413   7.310
 1162POPC   NC317663  33.373  23.064   9.519
 1162POPC   PO417664  33.939  22.716   9.623
 1162POPC   GL117665  33.965  23.028   9.250
 1162POPC   GL217666  33.619  23.093   9.073
 1162POPC   C1A17667  34.050  23.214   8.834
 1162POPC   D2A17668  33.713  23.247   8.549
 1162POPC   C3A17669  33.788  23.079   8.158
 1162POPC   C4A17670  33.697  22.952   7.740
 1162POPC   C1B17671  33.785  22.759   8.822
 1162POPC   C2B17672  33.730  22.431   8.497
 1162POPC   C3B17673  33.745  22.532   8.076
 1162POPC   C4B17674  33.669  22.426   7.658
 1163POPC   NC317675  36.511   5.653   9.266
 1163POPC   PO417676  36.279   6.117   9.690
 1163POPC   GL117677  36.221   6.111   9.201
 1163POPC   GL217678  36.070   5.800   9.041
 1163POPC   C1A17679  36.398   6.031   8.741
 1163POPC   D2A17680  36.263   5.726   8.400
 1163POPC   C3A17681  36.147   5.983   8.067
 1163POPC   C4A17682  36.103   6.041   7.645
 1163POPC   C1B17683  35.812   5.692   8.671
 1163POPC   C2B17684  35.672   5.849   8.258
 1163POPC   C3B17685  35.755   5.716   7.850
 1163POPC   C4B17686  35.926   5.595   7.455
 1164POPC   NC317687  28.554  42.035   9.609
 1164POPC   PO417688  28.029  41.686   9.355
 1164POPC   GL117689  28.424  41.635   9.201
 1164POPC   GL217690  28.584  41.307   9.226
 1164POPC   C1A17691  28.598  41.652   8.807
 1164POPC   D2A17692  28.478  41.899   8.431
 1164POPC   C3A17693  28.442  41.678   8.068
 1164POPC   C4A17694  28.120  41.671   7.772
 1164POPC   C1B17695  28.289  41.211   8.897
 1164POPC   C2B17696  28.291  41.383   8.483
 1164POPC   C3B17697  28.140  41.268   8.087
 1164POPC   C4B17698  28.409  41.165   7.812
 1165POPC   NC317699  31.827  31.176   9.543
 1165POPC   PO417700  31.353  31.597   9.697
 1165POPC   GL117701  31.572  31.589   9.254
 1165POPC   GL217702  31.665  31.294   9.074
 1165POPC   C1A17703  31.536  31.654   8.769
 1165POPC   D2A17704  31.409  31.471   8.359
 1165POPC   C3A17705  31.373  31.661   7.926
 1165POPC   C4A17706  31.641  31.732   7.544
 1165POPC   C1B17707  31.701  31.102   8.642
 1165POPC   C2B17708  31.531  30.859   8.301
 1165POPC   C3B17709  31.401  31.134   7.974
 1165POPC   C4B17710  31.728  31.277   7.777
 1166POPC   NC317711   3.189  24.972   9.423
 1166POPC   PO417712   3.697  25.514   9.461
 1166POPC   GL117713   3.648  25.147   9.216
 1166POPC   GL217714   3.348  25.317   9.092
 1166POPC   C1A17715   3.787  24.916   8.827
 1166POPC   D2A17716   3.987  25.107   8.472
 1166POPC   C3A17717   3.742  25.274   8.142
 1166POPC   C4A17718   3.558  25.170   7.736
 1166POPC   C1B17719   3.516  25.326   8.680
 1166POPC   C2B17720   3.314  25.471   8.325
 1166POPC   C3B17721   3.155  25.509   7.918
 1166POPC   C4B17722   3.232  25.451   7.464
 1167POPC   NC317723  30.544  34.114   9.586
 1167POPC   PO417724  30.760  33.432   9.650
 1167POPC   GL117725  30.759  33.685   9.316
 1167POPC   GL217726  30.414  33.705   9.281
 1167POPC   C1A17727  30.845  33.857   8.908
 1167POPC   D2A17728  30.794  33.639   8.517
 1167POPC   C3A17729  30.870  33.900   8.129
 1167POPC   C4A17730  30.890  33.871   7.682
 1167POPC   C1B17731  30.383  33.675   8.838
 1167POPC   C2B17732  30.388  33.937   8.500
 1167POPC   C3B17733  30.419  33.683   8.152
 1167POPC   C4B17734  30.316  33.833   7.783
 1168POPC   NC317735   8.107  25.856   9.396
 1168POPC   PO417736   8.196  26.461   9.449
 1168POPC   GL117737   8.416  26.196   9.091
 1168POPC   GL217738   8.146  25.959   8.917
 1168POPC   C1A17739   8.549  26.058   8.648
 1168POPC   D2A17740   8.236  25.866   8.351
 1168POPC   C3A17741   8.317  25.737   7.945
 1168POPC   C4A17742   8.338  26.022   7.615
 1168POPC   C1B17743   7.874  25.704   8.669
 1168POPC   C2B17744   7.681  25.858   8.318
 1168POPC   C3B17745   7.869  25.967   7.938
 1168POPC   C4B17746   7.932  25.688   7.589
 1169POPC   NC317747  28.851  38.867   9.503
 1169POPC   PO417748  29.201  38.262   9.451
 1169POPC   GL117749  29.148  38.361   9.053
 1169POPC   GL217750  28.829  38.555   9.095
 1169POPC   C1A17751  29.248  38.399   8.633
 1169POPC   D2A17752  29.059  38.658   8.313
 1169POPC   C3A17753  29.222  38.479   7.945
 1169POPC   C4A17754  29.167  38.621   7.534
 1169POPC   C1B17755  28.758  38.376   8.702
 1169POPC   C2B17756  28.873  38.190   8.318
 1169POPC   C3B17757  28.739  38.334   7.945
 1169POPC   C4B17758  28.918  38.179   7.633
 1170POPC   NC317759   0.104  23.543   9.442
 1170POPC   PO417760   0.804  23.306   9.435
 1170POPC   GL117761   0.580  23.652   9.189
 1170POPC   GL217762   0.692  24.042   9.212
 1170POPC   C1A17763   0.309  23.644   8.820
 1170POPC   D2A17764   0.384  23.437   8.453
 1170POPC   C3A17765   0.386  23.484   8.036
 1170POPC   C4A17766   0.754  23.377   7.788
 1170POPC   C1B17767   0.600  24.078   8.788
 1170POPC   C2B17768   0.745  23.856   8.415
 1170POPC   C3B17769   0.691  23.883   7.964
 1170POPC   C4B17770   0.235  24.001   7.917
 1171POPC   NC317771   4.212  10.650   9.808
 1171POPC   PO417772   4.606  10.239   9.861
 1171POPC   GL117773   4.465  10.466   9.390
 1171POPC   GL217774   4.151  10.659   9.303
 1171POPC   C1A17775   4.390  10.498   8.896
 1171POPC   D2A17776   4.537  10.576   8.493
 1171POPC   C3A17777   4.503  10.381   8.082
 1171POPC   C4A17778   4.567  10.391   7.623
 1171POPC   C1B17779   4.103  10.958   8.942
 1171POPC   C2B17780   4.327  11.056   8.561
 1171POPC   C3B17781   4.255  10.863   8.170
 1171POPC   C4B17782   4.196  10.684   7.782
 1172POPC   NC317783  13.641  26.600   9.660
 1172POPC   PO417784  13.848  27.202   9.469
 1172POPC   GL117785  13.667  26.878   9.156
 1172POPC   GL217786  13.542  26.503   9.172
 1172POPC   C1A17787  13.800  26.713   8.757
 1172POPC   D2A17788  13.898  26.655   8.338
 1172POPC   C3A17789  13.699  26.838   8.026
 1172POPC   C4A17790  13.641  26.575   7.716
 1172POPC   C1B17791  13.299  26.646   8.827
 1172POPC   C2B17792  13.365  26.812   8.429
 1172POPC   C3B17793  13.230  26.622   8.044
 1172POPC   C4B17794  13.117  26.779   7.649
 1173POPC   NC317795  31.762   0.743   9.859
 1173POPC   PO417796  31.324   0.385   9.522
 1173POPC   GL117797  31.237   0.445   9.111
 1173POPC   GL217798  31.572   0.358   9.050
 1173POPC   C1A17799  31.296   0.696   8.753
 1173POPC   D2A17800  31.646   0.621   8.495
 1173POPC   C3A17801  31.467   0.683   8.112
 1173POPC   C4A17802  31.665   0.785   7.750
 1173POPC   C1B17803  31.430   0.179   8.678
 1173POPC   C2B17804  31.693  44.989   8.366
 1173POPC   C3B17805  31.656   0.021   7.945
 1173POPC   C4B17806  31.374   0.336   7.749
 1174POPC   NC317807  28.885  24.174   9.432
 1174POPC   PO417808  29.437  24.643   9.600
 1174POPC   GL117809  29.272  24.668   9.180
 1174POPC   GL217810  29.575  24.565   9.124
 1174POPC   C1A17811  29.274  24.500   8.725
 1174POPC   D2A17812  29.121  24.521   8.319
 1174POPC   C3A17813  29.303  24.386   7.925
 1174POPC   C4A17814  29.338  24.336   7.434
 1174POPC   C1B17815  29.672  24.818   8.792
 1174POPC   C2B17816  29.464  24.895   8.425
 1174POPC   C3B17817  29.572  24.801   8.031
 1174POPC   C4B17818  29.418  24.787   7.643
 1175POPC   NC317819  15.365  41.284   9.553
 1175POPC   PO417820  15.013  41.777   9.496
 1175POPC   GL117821  15.076  41.464   9.197
 1175POPC   GL217822  14.746  41.374   9.135
 1175POPC   C1A17823  15.420  41.406   8.855
 1175POPC   D2A17824  15.377  41.228   8.413
 1175POPC   C3A17825  15.392  41.494   8.035
 1175POPC   C4A17826  15.122  41.674   7.733
 1175POPC   C1B17827  14.941  41.264   8.760
 1175POPC   C2B17828  14.870  41.078   8.386
 1175POPC   C3B17829  14.914  41.289   8.016
 1175POPC   C4B17830  14.861  41.241   7.564
 1176POPC   NC317831   2.976  19.613   9.609
 1176POPC   PO417832   3.122  18.982   9.618
 1176POPC   GL117833   2.809  19.064   9.245
 1176POPC   GL217834   2.729  18.746   9.061
 1176POPC   C1A17835   2.670  19.205   8.821
 1176POPC   D2A17836   2.729  19.467   8.451
 1176POPC   C3A17837   2.733  19.190   8.112
 1176POPC   C4A17838   2.686  19.242   7.704
 1176POPC   C1B17839   2.627  18.701   8.649
 1176POPC   C2B17840   2.752  18.669   8.208
 1176POPC   C3B17841   2.644  18.770   7.798
 1176POPC   C4B17842   2.831  18.755   7.386
 1177POPC   NC317843  38.367   5.099   9.608
 1177POPC   PO417844  38.820   5.406   9.296
 1177POPC   GL117845  38.476   5.145   9.113
 1177POPC   GL217846  38.103   5.258   9.205
 1177POPC   C1A17847  38.665   5.030   8.728
 1177POPC   D2A17848  38.633   4.891   8.326
 1177POPC   C3A17849  38.706   5.210   8.045
 1177POPC   C4A17850  38.666   4.970   7.692
 1177POPC   C1B17851  38.034   5.178   8.800
 1177POPC   C2B17852  38.242   5.192   8.411
 1177POPC   C3B17853  38.195   5.043   8.008
 1177POPC   C4B17854  37.943   5.148   7.642
 1178POPC   NC317855  28.133  34.969   9.667
 1178POPC   PO417856  28.430  34.326   9.668
 1178POPC   GL117857  28.457  34.593   9.245
 1178POPC   GL217858  28.203  34.872   9.181
 1178POPC   C1A17859  28.492  34.783   8.785
 1178POPC   D2A17860  28.272  34.643   8.393
 1178POPC   C3A17861  28.442  34.443   7.996
 1178POPC   C4A17862  28.280  34.282   7.568
 1178POPC   C1B17863  28.038  35.136   8.823
 1178POPC   C2B17864  28.064  35.118   8.358
 1178POPC   C3B17865  28.206  34.927   7.942
 1178POPC   C4B17866  28.145  34.796   7.500
 1179POPC   NC317867   8.339   4.051   9.527
 1179POPC   PO417868   7.898   4.543   9.308
 1179POPC   GL117869   8.117   4.316   9.092
 1179POPC   GL217870   8.026   4.011   9.113
 1179POPC   C1A17871   8.052   4.233   8.668
 1179POPC   D2A17872   8.202   4.382   8.326
 1179POPC   C3A17873   8.107   4.114   8.038
 1179POPC   C4A17874   8.284   4.281   7.714
 1179POPC   C1B17875   8.459   4.013   8.887
 1179POPC   C2B17876   8.630   4.131   8.503
 1179POPC   C3B17877   8.617   4.040   8.090
 1179POPC   C4B17878   8.571   3.865   7.692
 1180POPC   NC317879  42.018   6.455   9.436
 1180POPC   PO417880  42.230   7.029   9.440
 1180POPC   GL117881  42.244   6.776   9.073
 1180POPC   GL217882  42.548   6.601   9.080
 1180POPC   C1A17883  42.404   6.812   8.639
 1180POPC   D2A17884  42.575   6.896   8.241
 1180POPC   C3A17885  42.370   6.916   7.830
 1180POPC   C4A17886  42.506   6.987   7.398
 1180POPC   C1B17887  42.357   6.318   8.789
 1180POPC   C2B17888  42.141   6.437   8.425
 1180POPC   C3B17889  42.254   6.430   7.997
 1180POPC   C4B17890  42.224   6.210   7.614
 1181POPC   NC317891   1.674   5.489   9.610
 1181POPC   PO417892   2.223   5.965   9.604
 1181POPC   GL117893   1.917   6.018   9.251
 1181POPC   GL217894   1.616   5.798   9.202
 1181POPC   C1A17895   2.024   6.086   8.814
 1181POPC   D2A17896   2.268   6.223   8.454
 1181POPC   C3A17897   2.146   6.000   8.119
 1181POPC   C4A17898   1.995   6.057   7.702
 1181POPC   C1B17899   1.504   6.056   8.873
 1181POPC   C2B17900   1.643   5.971   8.471
 1181POPC   C3B17901   1.665   5.841   8.090
 1181POPC   C4B17902   1.514   5.871   7.705
 1182POPC   NC317903   9.157  20.784   9.530
 1182POPC   PO417904   8.565  20.484   9.587
 1182POPC   GL117905   8.722  20.692   9.227
 1182POPC   GL217906   9.048  20.602   9.068
 1182POPC   C1A17907   8.652  20.833   8.828
 1182POPC   D2A17908   8.797  20.647   8.465
 1182POPC   C3A17909   8.582  20.542   8.096
 1182POPC   C4A17910   8.776  20.389   7.735
 1182POPC   C1B17911   9.161  20.913   8.741
 1182POPC   C2B17912   9.090  21.067   8.322
 1182POPC   C3B17913   9.048  20.759   8.019
 1182POPC   C4B17914   9.294  20.455   7.794
 1183POPC   NC317915   4.622  20.387   9.568
 1183POPC   PO417916   4.228  20.950   9.453
 1183POPC   GL117917   4.228  20.603   9.137
 1183POPC   GL217918   4.083  20.249   9.199
 1183POPC   C1A17919   4.384  20.654   8.716
 1183POPC   D2A17920   4.718  20.550   8.450
 1183POPC   C3A17921   4.731  20.645   7.999
 1183POPC   C4A17922   4.282  20.616   7.830
 1183POPC   C1B17923   3.986  20.349   8.727
 1183POPC   C2B17924   4.010  20.465   8.264
 1183POPC   C3B17925   3.845  20.331   7.836
 1183POPC   C4B17926   3.966  20.237   7.408
 1184POPC   NC317927   9.610  28.016   9.563
 1184POPC   PO417928   9.458  28.650   9.541
 1184POPC   GL117929   9.692  28.395   9.224
 1184POPC   GL217930  10.035  28.396   9.175
 1184POPC   C1A17931   9.689  28.315   8.778
 1184POPC   D2A17932   9.628  28.520   8.384
 1184POPC   C3A17933   9.652  28.258   8.010
 1184POPC   C4A17934   9.662  28.481   7.644
 1184POPC   C1B17935  10.186  28.192   8.817
 1184POPC   C2B17936  10.068  28.238   8.364
 1184POPC   C3B17937  10.179  28.248   7.912
 1184POPC   C4B17938  10.006  28.134   7.496
 1185POPC   NC317939   5.684   6.047   9.518
 1185POPC   PO417940   6.039   5.595   9.278
 1185POPC   GL117941   5.844   5.898   9.031
 1185POPC   GL217942   5.477   6.018   9.062
 1185POPC   C1A17943   6.017   6.031   8.660
 1185POPC   D2A17944   5.872   6.082   8.256
 1185POPC   C3A17945   5.855   5.709   7.981
 1185POPC   C4A17946   6.098   5.512   7.596
 1185POPC   C1B17947   5.497   6.153   8.640
 1185POPC   C2B17948   5.346   6.063   8.206
 1185POPC   C3B17949   5.605   6.143   7.845
 1185POPC   C4B17950   5.577   6.260   7.434
 1186POPC   NC317951  21.693  23.610   9.510
 1186POPC   PO417952  20.982  23.805   9.479
 1186POPC   GL117953  21.296  23.743   9.190
 1186POPC   GL217954  21.375  23.387   9.142
 1186POPC   C1A17955  21.509  23.825   8.795
 1186POPC   D2A17956  21.629  23.970   8.391
 1186POPC   C3A17957  21.502  23.782   8.014
 1186POPC   C4A17958  21.692  23.487   7.719
 1186POPC   C1B17959  21.117  23.493   8.797
 1186POPC   C2B17960  21.268  23.515   8.421
 1186POPC   C3B17961  21.013  23.550   8.105
 1186POPC   C4B17962  21.089  23.716   7.723
 1187POPC   NC317963   1.714  17.018   9.379
 1187POPC   PO417964   2.120  16.604   9.720
 1187POPC   GL117965   2.032  16.616   9.249
 1187POPC   GL217966   2.161  16.916   9.142
 1187POPC   C1A17967   1.835  16.650   8.791
 1187POPC   D2A17968   1.756  16.464   8.357
 1187POPC   C3A17969   1.925  16.653   7.987
 1187POPC   C4A17970   1.695  16.887   7.760
 1187POPC   C1B17971   2.348  16.716   8.768
 1187POPC   C2B17972   2.255  16.760   8.354
 1187POPC   C3B17973   2.443  16.808   7.945
 1187POPC   C4B17974   2.274  16.856   7.512
 1188POPC   NC317975   6.419   0.632   9.493
 1188POPC   PO417976   6.200  44.995   9.327
 1188POPC   GL117977   6.377   0.328   9.092
 1188POPC   GL217978   6.710   0.421   9.108
 1188POPC   C1A17979   6.435   0.598   8.726
 1188POPC   D2A17980   6.580   0.485   8.311
 1188POPC   C3A17981   6.614   0.672   7.891
 1188POPC   C4A17982   6.575   0.331   7.528
 1188POPC   C1B17983   6.778   0.203   8.715
 1188POPC   C2B17984   6.960   0.106   8.313
 1188POPC   C3B17985   6.929   0.259   7.877
 1188POPC   C4B17986   7.047   0.228   7.398
 1189POPC   NC317987  38.956  14.874   9.495
 1189POPC   PO417988  39.430  15.398   9.459
 1189POPC   GL117989  39.153  15.197   9.152
 1189POPC   GL217990  39.096  14.821   9.024
 1189POPC   C1A17991  39.044  15.235   8.738
 1189POPC   D2A17992  39.082  14.909   8.438
 1189POPC   C3A17993  39.151  15.120   8.086
 1189POPC   C4A17994  39.469  15.121   7.842
 1189POPC   C1B17995  39.467  14.928   8.802
 1189POPC   C2B17996  39.594  14.854   8.366
 1189POPC   C3B17997  39.333  14.651   8.054
 1189POPC   C4B17998  39.027  14.581   7.678
 1190POPC   NC317999  20.805  28.110   9.431
 1190POPC   PO418000  20.440  28.654   9.540
 1190POPC   GL118001  20.603  28.533   9.168
 1190POPC   GL218002  20.945  28.560   9.156
 1190POPC   C1A18003  20.434  28.558   8.785
 1190POPC   D2A18004  20.369  28.305   8.464
 1190POPC   C3A18005  20.210  28.547   8.163
 1190POPC   C4A18006  20.354  28.558   7.783
 1190POPC   C1B18007  20.910  28.388   8.732
 1190POPC   C2B18008  20.919  28.575   8.304
 1190POPC   C3B18009  20.853  28.450   7.865
 1190POPC   C4B18010  20.876  28.193   7.472
 1191POPC   NC318011  16.545   5.587   9.555
 1191POPC   PO418012  16.945   6.119   9.613
 1191POPC   GL118013  16.710   6.012   9.236
 1191POPC   GL218014  16.852   5.678   9.162
 1191POPC   C1A18015  16.815   5.971   8.786
 1191POPC   D2A18016  17.091   5.763   8.494
 1191POPC   C3A18017  16.899   5.794   8.086
 1191POPC   C4A18018  16.632   6.006   7.809
 1191POPC   C1B18019  16.445   5.641   8.899
 1191POPC   C2B18020  16.469   5.612   8.445
 1191POPC   C3B18021  16.357   5.624   8.019
 1191POPC   C4B18022  16.645   5.494   7.733
 1192POPC   NC318023  31.040  32.562   9.501
 1192POPC   PO418024  31.454  33.009   9.783
 1192POPC   GL118025  31.297  32.977   9.323
 1192POPC   GL218026  31.426  33.275   9.172
 1192POPC   C1A18027  31.230  32.932   8.857
 1192POPC   D2A18028  31.319  33.149   8.469
 1192POPC   C3A18029  31.391  32.902   8.116
 1192POPC   C4A18030  31.227  32.943   7.704
 1192POPC   C1B18031  31.712  33.234   8.819
 1192POPC   C2B18032  31.942  33.156   8.448
 1192POPC   C3B18033  31.891  33.274   8.050
 1192POPC   C4B18034  31.719  33.071   7.728
 1193POPC   NC318035  30.599  27.253   9.290
 1193POPC   PO418036  31.226  27.110   9.645
 1193POPC   GL118037  31.024  26.854   9.210
 1193POPC   GL218038  30.753  26.577   9.146
 1193POPC   C1A18039  30.882  26.819   8.736
 1193POPC   D2A18040  31.061  26.803   8.315
 1193POPC   C3A18041  30.795  26.780   7.957
 1193POPC   C4A18042  30.402  27.011   7.937
 1193POPC   C1B18043  30.383  26.600   8.868
 1193POPC   C2B18044  30.448  26.734   8.426
 1193POPC   C3B18045  30.355  26.504   8.044
 1193POPC   C4B18046  30.490  26.497   7.621
 1194POPC   NC318047  17.424  11.782   9.387
 1194POPC   PO418048  17.791  12.208   9.486
 1194POPC   GL118049  17.557  12.277   9.125
 1194POPC   GL218050  17.817  12.469   8.980
 1194POPC   C1A18051  17.521  12.131   8.682
 1194POPC   D2A18052  17.271  12.115   8.279
 1194POPC   C3A18053  17.482  12.040   7.849
 1194POPC   C4A18054  17.390  11.814   7.439
 1194POPC   C1B18055  17.996  12.449   8.561
 1194POPC   C2B18056  17.840  12.226   8.193
 1194POPC   C3B18057  17.998  11.966   7.870
 1194POPC   C4B18058  17.977  11.652   7.512
 1195POPC   NC318059   2.699  27.388   9.536
 1195POPC   PO418060   3.027  28.047   9.557
 1195POPC   GL118061   2.708  27.801   9.221
 1195POPC   GL218062   2.634  27.467   9.061
 1195POPC   C1A18063   2.643  27.870   8.763
 1195POPC   D2A18064   2.932  27.935   8.390
 1195POPC   C3A18065   2.800  27.932   7.943
 1195POPC   C4A18066   2.855  27.886   7.502
 1195POPC   C1B18067   2.704  27.169   8.768
 1195POPC   C2B18068   2.603  27.184   8.349
 1195POPC   C3B18069   2.604  27.480   8.063
 1195POPC   C4B18070   2.651  27.456   7.630
 1196POPC   NC318071   3.049   0.854   9.347
 1196POPC   PO418072   2.879   0.264   9.533
 1196POPC   GL118073   2.828   0.216   9.119
 1196POPC   GL218074   3.149   0.342   9.095
 1196POPC   C1A18075   2.617   0.272   8.715
 1196POPC   D2A18076   2.483   0.256   8.270
 1196POPC   C3A18077   2.622   0.509   7.941
 1196POPC   C4A18078   2.807   0.347   7.562
 1196POPC   C1B18079   3.056   0.551   8.726
 1196POPC   C2B18080   2.993   0.437   8.300
 1196POPC   C3B18081   3.156   0.545   7.895
 1196POPC   C4B18082   3.174   0.728   7.477
 1197POPC   NC318083   9.397  21.572  10.097
 1197POPC   PO418084   9.834  21.289   9.568
 1197POPC   GL118085   9.817  21.459   9.148
 1197POPC   GL218086   9.620  21.770   9.117
 1197POPC   C1A18087   9.867  21.454   8.708
 1197POPC   D2A18088  10.049  21.282   8.386
 1197POPC   C3A18089   9.906  21.435   8.018
 1197POPC   C4A18090   9.831  21.287   7.635
 1197POPC   C1B18091   9.551  21.865   8.702
 1197POPC   C2B18092   9.593  21.798   8.244
 1197POPC   C3B18093   9.467  21.643   7.797
 1197POPC   C4B18094   9.438  21.757   7.316
 1198POPC   NC318095  33.556   5.162   9.340
 1198POPC   PO418096  32.996   4.994   9.757
 1198POPC   GL118097  33.030   5.201   9.291
 1198POPC   GL218098  33.185   4.950   9.071
 1198POPC   C1A18099  33.092   5.353   8.807
 1198POPC   D2A18100  33.276   5.160   8.403
 1198POPC   C3A18101  33.080   5.144   7.976
 1198POPC   C4A18102  33.205   5.048   7.536
 1198POPC   C1B18103  32.957   4.830   8.695
 1198POPC   C2B18104  32.916   4.756   8.265
 1198POPC   C3B18105  33.101   4.582   7.888
 1198POPC   C4B18106  33.088   4.548   7.420
 1199POPC   NC318107   6.723  35.569   9.501
 1199POPC   PO418108   6.235  35.224   9.579
 1199POPC   GL118109   6.528  35.159   9.171
 1199POPC   GL218110   6.839  35.365   9.051
 1199POPC   C1A18111   6.684  34.975   8.780
 1199POPC   D2A18112   6.788  35.264   8.462
 1199POPC   C3A18113   6.458  35.195   8.170
 1199POPC   C4A18114   6.645  35.147   7.788
 1199POPC   C1B18115   6.458  35.511   8.801
 1199POPC   C2B18116   6.538  35.761   8.444
 1199POPC   C3B18117   6.679  35.627   8.054
 1199POPC   C4B18118   6.700  35.752   7.640
 1200POPC   NC318119  42.179  29.849   9.616
 1200POPC   PO418120  42.355  30.466   9.721
 1200POPC   GL118121  42.509  30.022   9.308
 1200POPC   GL218122  42.321  29.649   9.169
 1200POPC   C1A18123  42.433  29.990   8.822
 1200POPC   D2A18124  42.218  30.118   8.412
 1200POPC   C3A18125  42.444  30.106   8.000
 1200POPC   C4A18126  42.357  30.166   7.504
 1200POPC   C1B18127  42.493  29.480   8.815
 1200POPC   C2B18128  42.342  29.619   8.448
 1200POPC   C3B18129  42.364  29.520   8.061
 1200POPC   C4B18130  42.461  29.704   7.688
 1201POPC   NC318131  22.922  15.921   9.884
 1201POPC   PO418132  23.089  16.278   9.329
 1201POPC   GL118133  22.822  16.142   9.045
 1201POPC   GL218134  22.842  15.812   9.164
 1201POPC   C1A18135  22.864  16.097   8.609
 1201POPC   D2A18136  23.071  15.952   8.258
 1201POPC   C3A18137  23.036  16.078   7.832
 1201POPC   C4A18138  23.306  15.930   7.450
 1201POPC   C1B18139  22.777  15.611   8.792
 1201POPC   C2B18140  22.647  15.686   8.366
 1201POPC   C3B18141  22.836  15.565   7.983
 1201POPC   C4B18142  22.870  15.680   7.560
 1202POPC   NC318143  12.210  43.241   9.299
 1202POPC   PO418144  11.757  42.771   9.483
 1202POPC   GL118145  12.001  42.820   9.036
 1202POPC   GL218146  12.333  42.904   8.766
 1202POPC   C1A18147  11.888  43.089   8.687
 1202POPC   D2A18148  12.096  43.098   8.296
 1202POPC   C3A18149  11.938  43.306   7.952
 1202POPC   C4A18150  11.786  43.055   7.635
 1202POPC   C1B18151  12.351  43.367   8.669
 1202POPC   C2B18152  12.249  43.606   8.306
 1202POPC   C3B18153  12.443  43.407   7.935
 1202POPC   C4B18154  12.303  42.999   7.788
 1203POPC   NC318155  17.145  33.191   9.534
 1203POPC   PO418156  17.737  32.928   9.735
 1203POPC   GL118157  17.592  33.001   9.275
 1203POPC   GL218158  17.260  32.859   9.171
 1203POPC   C1A18159  17.555  33.211   8.834
 1203POPC   D2A18160  17.541  33.385   8.387
 1203POPC   C3A18161  17.612  33.185   7.990
 1203POPC   C4A18162  17.317  33.296   7.677
 1203POPC   C1B18163  17.473  32.697   8.813
 1203POPC   C2B18164  17.502  32.864   8.399
 1203POPC   C3B18165  17.184  32.914   8.082
 1203POPC   C4B18166  17.094  32.720   7.695
 1204POPC   NC318167   7.831  12.977   9.495
 1204POPC   PO418168   7.272  12.505   9.455
 1204POPC   GL118169   7.452  12.708   9.131
 1204POPC   GL218170   7.440  13.095   9.151
 1204POPC   C1A18171   7.279  12.850   8.712
 1204POPC   D2A18172   7.208  12.737   8.279
 1204POPC   C3A18173   7.468  12.953   7.993
 1204POPC   C4A18174   7.536  13.204   7.616
 1204POPC   C1B18175   7.768  12.940   8.847
 1204POPC   C2B18176   7.785  12.966   8.446
 1204POPC   C3B18177   7.941  12.738   8.147
 1204POPC   C4B18178   7.899  12.870   7.738
 1205POPC   NC318179  24.228  33.508   9.533
 1205POPC   PO418180  24.740  33.838   9.475
 1205POPC   GL118181  24.385  33.860   9.172
 1205POPC   GL218182  24.285  33.512   9.026
 1205POPC   C1A18183  24.306  33.988   8.741
 1205POPC   D2A18184  24.091  33.954   8.330
 1205POPC   C3A18185  24.249  33.799   7.966
 1205POPC   C4A18186  24.483  34.068   7.742
 1205POPC   C1B18187  24.624  33.590   8.733
 1205POPC   C2B18188  24.646  33.760   8.310
 1205POPC   C3B18189  24.744  33.647   7.895
 1205POPC   C4B18190  24.906  33.365   7.589
 1206POPC   NC318191  10.907  12.204   9.577
 1206POPC   PO418192  10.393  11.702   9.515
 1206POPC   GL118193  10.650  11.873   9.222
 1206POPC   GL218194  10.424  12.028   9.085
 1206POPC   C1A18195  10.739  11.928   8.723
 1206POPC   D2A18196  10.567  12.250   8.405
 1206POPC   C3A18197  10.673  12.242   7.972
 1206POPC   C4A18198  10.567  12.078   7.537
 1206POPC   C1B18199  10.219  12.178   8.771
 1206POPC   C2B18200  10.112  11.995   8.376
 1206POPC   C3B18201  10.205  12.057   7.966
 1206POPC   C4B18202  10.094  11.869   7.607
 1207POPC   NC318203  36.436   8.049   9.498
 1207POPC   PO418204  35.789   8.240   9.356
 1207POPC   GL118205  36.053   8.078   9.117
 1207POPC   GL218206  36.316   8.293   9.068
 1207POPC   C1A18207  36.127   7.968   8.729
 1207POPC   D2A18208  36.332   8.083   8.369
 1207POPC   C3A18209  36.010   8.001   8.092
 1207POPC   C4A18210  35.854   7.806   7.764
 1207POPC   C1B18211  36.525   8.444   8.717
 1207POPC   C2B18212  36.376   8.615   8.339
 1207POPC   C3B18213  36.253   8.429   7.977
 1207POPC   C4B18214  36.423   8.349   7.613
 1208POPC   NC318215   1.202  13.405   9.470
 1208POPC   PO418216   0.847  13.954   9.700
 1208POPC   GL118217   0.957  14.038   9.183
 1208POPC   GL218218   1.284  13.846   9.169
 1208POPC   C1A18219   1.044  13.883   8.713
 1208POPC   D2A18220   1.163  13.560   8.400
 1208POPC   C3A18221   1.113  13.640   7.952
 1208POPC   C4A18222   1.334  13.415   7.615
 1208POPC   C1B18223   1.508  14.076   8.831
 1208POPC   C2B18224   1.413  14.179   8.381
 1208POPC   C3B18225   1.446  14.021   7.936
 1208POPC   C4B18226   1.398  13.896   7.488
 1209POPC   NC318227   0.220  16.528   9.635
 1209POPC   PO418228   0.699  16.979   9.675
 1209POPC   GL118229   0.404  16.986   9.326
 1209POPC   GL218230   0.392  16.722   9.165
 1209POPC   C1A18231   0.439  17.089   8.836
 1209POPC   D2A18232   0.491  16.869   8.445
 1209POPC   C3A18233   0.315  16.974   8.062
 1209POPC   C4A18234   0.452  16.848   7.627
 1209POPC   C1B18235   0.182  16.657   8.785
 1209POPC   C2B18236   0.088  16.554   8.339
 1209POPC   C3B18237   0.274  16.469   7.940
 1209POPC   C4B18238   0.121  16.446   7.522
 1210POPC   NC318239   0.869  30.931   9.299
 1210POPC   PO418240   1.384  30.688   9.621
 1210POPC   GL118241   1.346  30.796   9.205
 1210POPC   GL218242   1.129  30.504   9.105
 1210POPC   C1A18243   1.409  30.712   8.756
 1210POPC   D2A18244   1.139  30.749   8.426
 1210POPC   C3A18245   1.405  30.654   8.132
 1210POPC   C4A18246   1.424  30.763   7.743
 1210POPC   C1B18247   0.910  30.372   8.734
 1210POPC   C2B18248   0.980  30.230   8.294
 1210POPC   C3B18249   0.954  30.510   7.931
 1210POPC   C4B18250   0.965  30.953   7.955
 1211POPC   NC318251  19.374  36.382   9.732
 1211POPC   PO418252  18.697  36.190   9.719
 1211POPC   GL118253  18.902  36.252   9.318
 1211POPC   GL218254  18.953  35.900   9.280
 1211POPC   C1A18255  18.947  36.230   8.852
 1211POPC   D2A18256  19.150  36.074   8.473
 1211POPC   C3A18257  19.189  36.367   8.125
 1211POPC   C4A18258  19.120  36.256   7.720
 1211POPC   C1B18259  18.797  35.741   8.880
 1211POPC   C2B18260  18.656  35.911   8.487
 1211POPC   C3B18261  18.795  36.024   8.075
 1211POPC   C4B18262  18.648  36.034   7.676
 1212POPC   NC318263  32.026  44.890   9.525
 1212POPC   PO418264  32.655  44.617   9.423
 1212POPC   GL118265  32.380  44.813   9.123
 1212POPC   GL218266  32.110  44.553   9.124
 1212POPC   C1A18267  32.253  44.828   8.691
 1212POPC   D2A18268  32.196  44.525   8.381
 1212POPC   C3A18269  32.076  44.689   8.011
 1212POPC   C4A18270  32.193   0.057   7.850
 1212POPC   C1B18271  32.448  44.354   8.846
 1212POPC   C2B18272  32.686  44.471   8.485
 1212POPC   C3B18273  32.614  44.478   8.034
 1212POPC   C4B18274  32.628  44.244   7.662
 1213POPC   NC318275  42.271   2.602   9.743
 1213POPC   PO418276  42.774   2.914   9.490
 1213POPC   GL118277  42.363   2.925   9.209
 1213POPC   GL218278  42.198   3.234   9.163
 1213POPC   C1A18279  42.162   2.658   8.828
 1213POPC   D2A18280  41.858   2.452   8.513
 1213POPC   C3A18281  42.037   2.458   8.108
 1213POPC   C4A18282  42.361   2.675   7.920
 1213POPC   C1B18283  42.425   3.092   8.734
 1213POPC   C2B18284  42.506   2.964   8.340
 1213POPC   C3B18285  42.352   3.175   7.993
 1213POPC   C4B18286  42.267   3.066   7.592
 1214POPC   NC318287  37.144  37.790   9.783
 1214POPC   PO418288  36.754  37.379   9.443
 1214POPC   GL118289  37.054  37.544   9.132
 1214POPC   GL218290  37.349  37.342   9.202
 1214POPC   C1A18291  36.937  37.708   8.696
 1214POPC   D2A18292  36.621  37.612   8.355
 1214POPC   C3A18293  36.861  37.670   7.975
 1214POPC   C4A18294  37.069  37.976   7.801
 1214POPC   C1B18295  37.321  37.273   8.775
 1214POPC   C2B18296  37.315  37.477   8.390
 1214POPC   C3B18297  37.303  37.334   7.981
 1214POPC   C4B18298  37.066  37.291   7.633
 1215POPC   NC318299  19.948  37.250   9.363
 1215POPC   PO418300  20.081  36.605   9.277
 1215POPC   GL118301  19.922  36.870   8.942
 1215POPC   GL218302  19.550  36.996   8.982
 1215POPC   C1A18303  19.726  36.749   8.544
 1215POPC   D2A18304  19.567  36.730   8.125
 1215POPC   C3A18305  19.865  36.867   7.820
 1215POPC   C4A18306  20.280  36.871   7.921
 1215POPC   C1B18307  19.756  37.249   8.671
 1215POPC   C2B18308  19.949  37.131   8.276
 1215POPC   C3B18309  19.976  37.365   7.905
 1215POPC   C4B18310  19.839  37.344   7.469
 1216POPC   NC318311  18.443  36.355  10.095
 1216POPC   PO418312  18.127  36.614   9.516
 1216POPC   GL118313  18.263  36.329   9.172
 1216POPC   GL218314  18.431  36.004   9.291
 1216POPC   C1A18315  18.063  36.237   8.769
 1216POPC   D2A18316  18.232  36.326   8.358
 1216POPC   C3A18317  17.991  36.362   8.006
 1216POPC   C4A18318  18.265  36.359   7.711
 1216POPC   C1B18319  18.292  35.812   8.890
 1216POPC   C2B18320  18.156  35.825   8.436
 1216POPC   C3B18321  18.263  35.889   7.988
 1216POPC   C4B18322  18.030  35.928   7.567
 1217POPC   NC318323  16.820  26.256   9.452
 1217POPC   PO418324  16.264  25.935   9.320
 1217POPC   GL118325  16.598  25.974   9.090
 1217POPC   GL218326  16.499  26.279   8.971
 1217POPC   C1A18327  16.614  25.838   8.693
 1217POPC   D2A18328  16.392  25.743   8.335
 1217POPC   C3A18329  16.669  25.813   7.987
 1217POPC   C4A18330  16.776  25.896   7.552
 1217POPC   C1B18331  16.874  26.275   8.698
 1217POPC   C2B18332  17.134  26.316   8.302
 1217POPC   C3B18333  16.874  26.286   7.894
 1217POPC   C4B18334  16.747  26.403   7.459
 1218POPC   NC318335   9.873  40.218   9.564
 1218POPC   PO418336   9.902  39.553   9.449
 1218POPC   GL118337   9.946  39.905   9.130
 1218POPC   GL218338   9.677  40.159   9.095
 1218POPC   C1A18339   9.850  39.954   8.663
 1218POPC   D2A18340   9.945  39.775   8.295
 1218POPC   C3A18341   9.834  39.969   7.900
 1218POPC   C4A18342  10.035  39.856   7.519
 1218POPC   C1B18343   9.495  39.745   8.944
 1218POPC   C2B18344   9.432  39.662   8.522
 1218POPC   C3B18345   9.449  39.729   8.117
 1218POPC   C4B18346   9.189  39.988   7.850
 1219POPC   NC318347  21.618  28.621   9.581
 1219POPC   PO418348  21.240  28.055   9.575
 1219POPC   GL118349  21.233  28.133   9.149
 1219POPC   GL218350  21.468  28.399   9.145
 1219POPC   C1A18351  21.348  28.106   8.735
 1219POPC   D2A18352  21.380  28.348   8.407
 1219POPC   C3A18353  21.261  28.204   8.063
 1219POPC   C4A18354  21.351  28.153   7.677
 1219POPC   C1B18355  21.705  28.477   8.787
 1219POPC   C2B18356  21.811  28.612   8.390
 1219POPC   C3B18357  21.750  28.415   8.021
 1219POPC   C4B18358  21.857  28.105   7.755
 1220POPC   NC318359   6.574  30.335   9.451
 1220POPC   PO418360   6.925  29.760   9.345
 1220POPC   GL118361   6.561  29.958   9.115
 1220POPC   GL218362   6.807  30.175   8.992
 1220POPC   C1A18363   6.387  30.090   8.704
 1220POPC   D2A18364   6.547  29.950   8.293
 1220POPC   C3A18365   6.514  30.174   7.919
 1220POPC   C4A18366   6.545  29.990   7.530
 1220POPC   C1B18367   6.809  29.766   8.706
 1220POPC   C2B18368   6.967  29.663   8.273
 1220POPC   C3B18369   6.771  29.643   7.850
 1220POPC   C4B18370   6.866  29.630   7.366
 1221POPC   NC318371  16.473  35.004   9.638
 1221POPC   PO418372  16.585  35.616   9.364
 1221POPC   GL118373  16.678  35.377   9.055
 1221POPC   GL218374  16.818  35.119   9.278
 1221POPC   C1A18375  16.767  35.584   8.669
 1221POPC   D2A18376  16.753  35.503   8.234
 1221POPC   C3A18377  16.700  35.688   7.912
 1221POPC   C4A18378  16.581  35.416   7.663
 1221POPC   C1B18379  17.016  34.990   8.910
 1221POPC   C2B18380  16.948  35.123   8.514
 1221POPC   C3B18381  16.924  35.057   8.076
 1221POPC   C4B18382  17.057  35.105   7.673
 1222POPC   NC318383  27.012  38.527   9.458
 1222POPC   PO418384  26.910  37.860   9.464
 1222POPC   GL118385  26.744  37.984   9.081
 1222POPC   GL218386  27.015  38.219   9.055
 1222POPC   C1A18387  26.604  38.300   8.741
 1222POPC   D2A18388  26.728  38.654   8.426
 1222POPC   C3A18389  26.715  38.510   7.981
 1222POPC   C4A18390  26.743  38.711   7.597
 1222POPC   C1B18391  27.105  38.373   8.677
 1222POPC   C2B18392  26.969  38.203   8.297
 1222POPC   C3B18393  26.907  38.039   7.879
 1222POPC   C4B18394  26.866  38.226   7.438
 1223POPC   NC318395  34.916  31.494   9.546
 1223POPC   PO418396  35.448  31.738   9.485
 1223POPC   GL118397  35.356  31.424   9.143
 1223POPC   GL218398  35.092  31.127   9.215
 1223POPC   C1A18399  35.389  31.510   8.658
 1223POPC   D2A18400  35.517  31.848   8.347
 1223POPC   C3A18401  35.382  31.827   7.913
 1223POPC   C4A18402  35.567  31.524   7.666
 1223POPC   C1B18403  34.957  31.027   8.813
 1223POPC   C2B18404  34.983  31.216   8.456
 1223POPC   C3B18405  35.263  31.402   8.158
 1223POPC   C4B18406  35.120  31.295   7.723
 1224POPC   NC318407  24.100  42.237   9.558
 1224POPC   PO418408  24.754  42.176   9.419
 1224POPC   GL118409  24.564  42.459   9.115
 1224POPC   GL218410  24.243  42.276   9.070
 1224POPC   C1A18411  24.477  42.460   8.655
 1224POPC   D2A18412  24.213  42.477   8.277
 1224POPC   C3A18413  24.421  42.512   7.861
 1224POPC   C4A18414  24.231  42.694   7.473
 1224POPC   C1B18415  24.305  41.973   8.733
 1224POPC   C2B18416  24.066  41.917   8.380
 1224POPC   C3B18417  24.180  42.016   7.981
 1224POPC   C4B18418  24.012  41.923   7.589
 1225POPC   NC318419  44.369  13.297   9.531
 1225POPC   PO418420  44.896  13.707   9.515
 1225POPC   GL118421  44.639  13.697   9.138
 1225POPC   GL218422  44.384  13.970   9.193
 1225POPC   C1A18423  44.724  13.585   8.677
 1225POPC   D2A18424  44.906  13.809   8.311
 1225POPC   C3A18425  44.934  13.572   7.899
 1225POPC   C4A18426  44.896  13.174   7.682
 1225POPC   C1B18427  44.587  14.063   8.764
 1225POPC   C2B18428  44.479  14.129   8.332
 1225POPC   C3B18429  44.490  13.835   8.008
 1225POPC   C4B18430  44.441  13.491   7.746
 1226POPC   NC318431   4.254  44.993  10.072
 1226POPC   PO418432   4.471   0.138   9.388
 1226POPC   GL118433   4.601   0.459   9.046
 1226POPC   GL218434   4.402   0.792   9.055
 1226POPC   C1A18435   4.431   0.541   8.603
 1226POPC   D2A18436   4.016   0.522   8.339
 1226POPC   C3A18437   4.131   0.419   7.895
 1226POPC   C4A18438   4.575   0.233   7.821
 1226POPC   C1B18439   4.144   0.943   8.717
 1226POPC   C2B18440   4.302   0.953   8.312
 1226POPC   C3B18441   4.524   0.743   7.996
 1226POPC   C4B18442   4.338   0.856   7.622
 1227POPC   NC318443  25.461  17.996   9.570
 1227POPC   PO418444  25.016  17.464   9.503
 1227POPC   GL118445  25.295  17.554   9.157
 1227POPC   GL218446  25.554  17.801   9.103
 1227POPC   C1A18447  25.324  17.366   8.761
 1227POPC   D2A18448  25.472  17.326   8.354
 1227POPC   C3A18449  25.263  17.448   7.941
 1227POPC   C4A18450  25.279  17.513   7.447
 1227POPC   C1B18451  25.324  17.875   8.758
 1227POPC   C2B18452  25.455  17.827   8.380
 1227POPC   C3B18453  25.183  17.939   8.093
 1227POPC   C4B18454  25.220  17.930   7.702
 1228POPC   NC318455  23.732   2.604   9.397
 1228POPC   PO418456  23.199   3.000   9.419
 1228POPC   GL118457  23.391   2.809   9.055
 1228POPC   GL218458  23.347   2.417   9.100
 1228POPC   C1A18459  23.649   2.899   8.663
 1228POPC   D2A18460  23.923   2.812   8.286
 1228POPC   C3A18461  23.841   2.917   7.856
 1228POPC   C4A18462  23.757   2.646   7.506
 1228POPC   C1B18463  23.151   2.548   8.697
 1228POPC   C2B18464  23.247   2.780   8.330
 1228POPC   C3B18465  23.436   2.609   7.954
 1228POPC   C4B18466  23.271   2.518   7.561
 1229POPC   NC318467  21.727  41.601   9.373
 1229POPC   PO418468  21.154  41.833   9.538
 1229POPC   GL118469  21.299  41.655   9.078
 1229POPC   GL218470  21.306  41.284   9.088
 1229POPC   C1A18471  21.083  41.550   8.639
 1229POPC   D2A18472  21.083  41.651   8.169
 1229POPC   C3A18473  21.526  41.612   8.027
 1229POPC   C4A18474  21.933  41.530   7.856
 1229POPC   C1B18475  21.062  41.035   8.744
 1229POPC   C2B18476  21.147  41.147   8.294
 1229POPC   C3B18477  21.200  41.237   7.843
 1229POPC   C4B18478  21.031  41.363   7.434
 1230POPC   NC318479  18.690  42.810   9.436
 1230POPC   PO418480  19.156  43.319   9.509
 1230POPC   GL118481  19.101  43.024   9.189
 1230POPC   GL218482  19.418  43.023   9.096
 1230POPC   C1A18483  18.931  43.067   8.762
 1230POPC   D2A18484  18.889  43.255   8.341
 1230POPC   C3A18485  19.040  42.956   8.026
 1230POPC   C4A18486  19.265  42.901   7.626
 1230POPC   C1B18487  19.340  43.409   8.873
 1230POPC   C2B18488  19.310  43.547   8.452
 1230POPC   C3B18489  19.240  43.429   7.992
 1230POPC   C4B18490  19.220  43.396   7.511
 1231POPC   NC318491  27.651  14.913   9.625
 1231POPC   PO418492  27.190  15.479   9.659
 1231POPC   GL118493  27.414  15.362   9.251
 1231POPC   GL218494  27.784  15.282   9.273
 1231POPC   C1A18495  27.492  15.203   8.795
 1231POPC   D2A18496  27.426  15.238   8.324
 1231POPC   C3A18497  27.439  14.927   7.973
 1231POPC   C4A18498  27.331  14.871   7.480
 1231POPC   C1B18499  27.972  15.378   8.857
 1231POPC   C2B18500  27.945  15.228   8.418
 1231POPC   C3B18501  27.818  15.294   8.004
 1231POPC   C4B18502  27.513  15.505   7.849
 1232POPC   NC318503  43.833  22.548   9.544
 1232POPC   PO418504  43.627  23.240   9.544
 1232POPC   GL118505  43.797  23.192   9.141
 1232POPC   GL218506  43.902  22.838   9.051
 1232POPC   C1A18507  43.914  23.300   8.723
 1232POPC   D2A18508  44.054  22.988   8.430
 1232POPC   C3A18509  44.035  23.155   8.016
 1232POPC   C4A18510  44.167  22.968   7.650
 1232POPC   C1B18511  43.598  22.911   8.728
 1232POPC   C2B18512  43.599  22.782   8.305
 1232POPC   C3B18513  43.758  22.733   7.906
 1232POPC   C4B18514  43.630  23.050   7.681
 1233POPC   NC318515   6.651   6.104   9.534
 1233POPC   PO418516   6.427   5.524   9.751
 1233POPC   GL118517   6.570   5.656   9.269
 1233POPC   GL218518   6.370   5.956   9.124
 1233POPC   C1A18519   6.834   5.911   8.885
 1233POPC   D2A18520   7.145   5.959   8.529
 1233POPC   C3A18521   6.979   5.836   8.118
 1233POPC   C4A18522   6.720   6.071   7.831
 1233POPC   C1B18523   6.422   5.662   8.764
 1233POPC   C2B18524   6.502   5.861   8.388
 1233POPC   C3B18525   6.356   5.770   8.002
 1233POPC   C4B18526   6.536   5.405   7.874
 1234POPC   NC318527  32.103  15.123   9.578
 1234POPC   PO418528  32.761  15.185   9.577
 1234POPC   GL118529  32.515  15.355   9.239
 1234POPC   GL218530  32.205  15.521   9.195
 1234POPC   C1A18531  32.538  15.389   8.813
 1234POPC   D2A18532  32.316  15.366   8.456
 1234POPC   C3A18533  32.544  15.286   8.104
 1234POPC   C4A18534  32.384  15.137   7.711
 1234POPC   C1B18535  31.977  15.382   8.837
 1234POPC   C2B18536  31.795  15.345   8.424
 1234POPC   C3B18537  32.009  15.259   8.040
 1234POPC   C4B18538  32.015  15.492   7.646
 1235POPC   NC318539  37.498  27.006   9.523
 1235POPC   PO418540  36.976  26.575   9.607
 1235POPC   GL118541  36.911  26.795   9.189
 1235POPC   GL218542  36.807  27.166   9.073
 1235POPC   C1A18543  36.833  26.650   8.781
 1235POPC   D2A18544  36.758  26.843   8.406
 1235POPC   C3A18545  36.959  26.678   8.048
 1235POPC   C4A18546  36.829  27.027   7.810
 1235POPC   C1B18547  37.146  27.062   8.805
 1235POPC   C2B18548  37.271  26.902   8.394
 1235POPC   C3B18549  37.305  27.089   8.002
 1235POPC   C4B18550  37.289  26.978   7.569
 1236POPC   NC318551  39.097   3.602   9.491
 1236POPC   PO418552  39.609   3.153   9.272
 1236POPC   GL118553  39.355   3.443   9.085
 1236POPC   GL218554  39.349   3.801   9.078
 1236POPC   C1A18555  39.492   3.517   8.684
 1236POPC   D2A18556  39.240   3.523   8.346
 1236POPC   C3A18557  39.424   3.595   7.958
 1236POPC   C4A18558  39.299   3.355   7.591
 1236POPC   C1B18559  39.024   3.759   8.762
 1236POPC   C2B18560  38.778   3.741   8.393
 1236POPC   C3B18561  38.886   3.606   7.991
 1236POPC   C4B18562  39.071   3.806   7.647
 1237POPC   NC318563  25.581  37.806   9.371
 1237POPC   PO418564  26.045  37.470   9.781
 1237POPC   GL118565  26.014  37.578   9.293
 1237POPC   GL218566  26.179  37.880   9.105
 1237POPC   C1A18567  26.038  37.463   8.839
 1237POPC   D2A18568  26.153  37.623   8.445
 1237POPC   C3A18569  26.128  37.369   8.076
 1237POPC   C4A18570  26.251  37.592   7.724
 1237POPC   C1B18571  25.865  37.932   8.784
 1237POPC   C2B18572  25.761  37.974   8.371
 1237POPC   C3B18573  25.884  37.831   7.993
 1237POPC   C4B18574  25.683  37.980   7.648
 1238POPC   NC318575  35.311  43.449   9.585
 1238POPC   PO418576  35.891  43.011   9.590
 1238POPC   GL118577  35.567  43.028   9.219
 1238POPC   GL218578  35.239  43.139   9.180
 1238POPC   C1A18579  35.439  42.861   8.810
 1238POPC   D2A18580  35.589  43.017   8.415
 1238POPC   C3A18581  35.376  42.975   8.017
 1238POPC   C4A18582  35.592  43.276   7.775
 1238POPC   C1B18583  35.298  43.353   8.797
 1238POPC   C2B18584  35.133  43.302   8.393
 1238POPC   C3B18585  35.185  43.461   8.009
 1238POPC   C4B18586  35.127  43.305   7.583
 1239POPC   NC318587  15.149  37.426   9.414
 1239POPC   PO418588  14.931  38.053   9.537
 1239POPC   GL118589  14.982  37.830   9.134
 1239POPC   GL218590  14.913  37.443   8.968
 1239POPC   C1A18591  15.074  37.813   8.683
 1239POPC   D2A18592  15.136  37.622   8.287
 1239POPC   C3A18593  15.128  37.889   7.969
 1239POPC   C4A18594  14.854  37.956   7.678
 1239POPC   C1B18595  15.184  37.262   8.660
 1239POPC   C2B18596  15.306  37.146   8.257
 1239POPC   C3B18597  15.292  37.252   7.851
 1239POPC   C4B18598  14.927  37.439   7.755
 1240POPC   NC318599  13.276  40.894   9.408
 1240POPC   PO418600  12.806  40.420   9.487
 1240POPC   GL118601  12.878  40.682   9.127
 1240POPC   GL218602  12.567  40.776   9.003
 1240POPC   C1A18603  13.037  40.786   8.688
 1240POPC   D2A18604  12.873  40.939   8.269
 1240POPC   C3A18605  12.978  40.729   7.892
 1240POPC   C4A18606  13.014  40.837   7.458
 1240POPC   C1B18607  12.624  41.094   8.712
 1240POPC   C2B18608  12.418  41.199   8.332
 1240POPC   C3B18609  12.607  41.281   7.960
 1240POPC   C4B18610  12.562  41.027   7.615
 1241POPC   NC318611  20.951  44.928   9.317
 1241POPC   PO418612  21.252   0.433   9.690
 1241POPC   GL118613  21.322   0.348   9.271
 1241POPC   GL218614  21.633   0.485   9.241
 1241POPC   C1A18615  21.228   0.439   8.833
 1241POPC   D2A18616  21.047   0.317   8.421
 1241POPC   C3A18617  21.167   0.496   8.014
 1241POPC   C4A18618  21.355   0.287   7.624
 1241POPC   C1B18619  21.734   0.489   8.822
 1241POPC   C2B18620  21.579   0.290   8.450
 1241POPC   C3B18621  21.659   0.391   8.046
 1241POPC   C4B18622  21.872   0.596   7.731
 1242POPC   NC318623   5.240  15.751   9.476
 1242POPC   PO418624   4.622  15.649   9.372
 1242POPC   GL118625   4.927  15.833   9.085
 1242POPC   GL218626   5.079  16.151   9.170
 1242POPC   C1A18627   5.100  15.930   8.661
 1242POPC   D2A18628   5.297  15.713   8.285
 1242POPC   C3A18629   5.301  15.765   7.829
 1242POPC   C4A18630   5.105  15.511   7.503
 1242POPC   C1B18631   4.818  16.337   8.825
 1242POPC   C2B18632   4.692  16.201   8.406
 1242POPC   C3B18633   4.902  16.071   8.017
 1242POPC   C4B18634   4.880  15.950   7.578
 1243POPC   NC318635  18.831  32.917   9.626
 1243POPC   PO418636  19.147  33.511   9.591
 1243POPC   GL118637  19.098  33.121   9.263
 1243POPC   GL218638  19.419  33.013   9.238
 1243POPC   C1A18639  19.069  32.865   8.835
 1243POPC   D2A18640  18.812  32.935   8.409
 1243POPC   C3A18641  18.962  32.915   7.996
 1243POPC   C4A18642  18.714  32.980   7.595
 1243POPC   C1B18643  19.502  33.120   8.794
 1243POPC   C2B18644  19.299  33.080   8.402
 1243POPC   C3B18645  19.373  33.237   7.994
 1243POPC   C4B18646  19.180  33.209   7.630
 1244POPC   NC318647  36.048  27.859   9.307
 1244POPC   PO418648  36.387  27.383   9.611
 1244POPC   GL118649  36.343  27.422   9.122
 1244POPC   GL218650  36.547  27.683   9.010
 1244POPC   C1A18651  36.080  27.469   8.673
 1244POPC   D2A18652  35.936  27.322   8.235
 1244POPC   C3A18653  36.075  27.563   7.861
 1244POPC   C4A18654  35.897  27.517   7.392
 1244POPC   C1B18655  36.571  27.375   8.635
 1244POPC   C2B18656  36.517  27.464   8.171
 1244POPC   C3B18657  36.543  27.421   7.700
 1244POPC   C4B18658  36.343  27.288   7.320
 1245POPC   NC318659  32.926   1.605   9.525
 1245POPC   PO418660  33.255   2.090   9.496
 1245POPC   GL118661  33.071   2.024   9.083
 1245POPC   GL218662  33.019   1.688   9.036
 1245POPC   C1A18663  33.147   2.045   8.639
 1245POPC   D2A18664  32.931   2.275   8.322
 1245POPC   C3A18665  33.064   2.289   7.896
 1245POPC   C4A18666  33.252   1.942   7.720
 1245POPC   C1B18667  32.799   1.680   8.677
 1245POPC   C2B18668  32.738   1.711   8.260
 1245POPC   C3B18669  32.772   1.880   7.876
 1245POPC   C4B18670  32.876   1.835   7.412
 1246POPC   NC318671   8.056  18.431   9.565
 1246POPC   PO418672   8.467  18.030   9.608
 1246POPC   GL118673   8.389  18.301   9.187
 1246POPC   GL218674   8.051  18.468   9.066
 1246POPC   C1A18675   8.401  18.171   8.728
 1246POPC   D2A18676   8.177  18.028   8.326
 1246POPC   C3A18677   8.425  17.998   7.944
 1246POPC   C4A18678   8.663  18.317   7.728
 1246POPC   C1B18679   7.922  18.325   8.670
 1246POPC   C2B18680   7.675  18.205   8.334
 1246POPC   C3B18681   7.908  18.397   8.057
 1246POPC   C4B18682   8.152  18.389   7.719
 1247POPC   NC318683   8.173  23.966   9.386
 1247POPC   PO418684   8.439  23.275   9.473
 1247POPC   GL118685   8.200  23.500   9.160
 1247POPC   GL218686   7.826  23.485   9.127
 1247POPC   C1A18687   8.224  23.642   8.735
 1247POPC   D2A18688   8.007  23.623   8.321
 1247POPC   C3A18689   8.266  23.633   7.944
 1247POPC   C4A18690   8.159  23.554   7.494
 1247POPC   C1B18691   7.744  23.767   8.753
 1247POPC   C2B18692   7.717  24.077   8.434
 1247POPC   C3B18693   7.869  24.017   8.020
 1247POPC   C4B18694   7.768  23.637   7.822
 1248POPC   NC318695   6.184   5.220   9.507
 1248POPC   PO418696   5.624   4.746   9.605
 1248POPC   GL118697   5.693   4.740   9.175
 1248POPC   GL218698   6.036   4.870   9.185
 1248POPC   C1A18699   5.749   4.896   8.756
 1248POPC   D2A18700   5.981   4.863   8.383
 1248POPC   C3A18701   5.745   4.884   7.997
 1248POPC   C4A18702   5.696   5.259   7.756
 1248POPC   C1B18703   6.172   5.173   8.823
 1248POPC   C2B18704   6.061   5.447   8.464
 1248POPC   C3B18705   6.097   5.268   8.069
 1248POPC   C4B18706   6.178   5.020   7.715
 1249POPC   NC318707  44.411   1.284   9.481
 1249POPC   PO418708   0.146   1.128   9.584
 1249POPC   GL118709   0.118   1.200   9.145
 1249POPC   GL218710  44.798   1.345   9.135
 1249POPC   C1A18711   0.015   0.994   8.735
 1249POPC   D2A18712  44.990   1.163   8.315
 1249POPC   C3A18713  44.674   1.124   7.994
 1249POPC   C4A18714  44.844   1.423   7.718
 1249POPC   C1B18715  44.574   1.255   8.767
 1249POPC   C2B18716  44.494   1.391   8.389
 1249POPC   C3B18717  44.464   1.592   8.012
 1249POPC   C4B18718  44.368   1.474   7.573
 1250POPC   NC318719   7.776  31.427   9.550
 1250POPC   PO418720   8.307  31.727   9.593
 1250POPC   GL118721   8.237  31.458   9.229
 1250POPC   GL218722   7.983  31.558   9.071
 1250POPC   C1A18723   8.484  31.216   8.943
 1250POPC   D2A18724   8.490  31.097   8.527
 1250POPC   C3A18725   8.334  31.335   8.157
 1250POPC   C4A18726   8.221  31.198   7.726
 1250POPC   C1B18727   8.144  31.482   8.654
 1250POPC   C2B18728   8.078  31.755   8.302
 1250POPC   C3B18729   8.002  31.702   7.845
 1250POPC   C4B18730   7.878  31.723   7.395
 1251POPC   NC318731  22.263   5.584   9.547
 1251POPC   PO418732  21.768   6.063   9.480
 1251POPC   GL118733  21.898   6.037   9.079
 1251POPC   GL218734  21.965   5.691   9.158
 1251POPC   C1A18735  22.274   5.913   8.826
 1251POPC   D2A18736  22.304   5.701   8.445
 1251POPC   C3A18737  22.203   5.922   8.072
 1251POPC   C4A18738  22.424   5.958   7.729
 1251POPC   C1B18739  21.856   5.618   8.760
 1251POPC   C2B18740  21.803   5.745   8.371
 1251POPC   C3B18741  21.833   5.584   7.976
 1251POPC   C4B18742  21.960   5.795   7.610
 1252POPC   NC318743  20.141   2.861   9.525
 1252POPC   PO418744  19.693   2.400   9.533
 1252POPC   GL118745  19.657   2.586   9.142
 1252POPC   GL218746  19.715   2.941   9.220
 1252POPC   C1A18747  19.719   2.458   8.695
 1252POPC   D2A18748  19.854   2.212   8.312
 1252POPC   C3A18749  19.869   2.512   7.961
 1252POPC   C4A18750  19.728   2.940   7.815
 1252POPC   C1B18751  20.016   2.893   8.874
 1252POPC   C2B18752  20.001   2.826   8.406
 1252POPC   C3B18753  20.212   2.875   8.003
 1252POPC   C4B18754  20.248   3.154   7.662
 1253POPC   NC318755  21.704  31.437   9.539
 1253POPC   PO418756  21.001  31.289   9.439
 1253POPC   GL118757  21.307  31.505   9.178
 1253POPC   GL218758  21.544  31.260   9.102
 1253POPC   C1A18759  21.522  31.743   8.861
 1253POPC   D2A18760  21.611  31.711   8.425
 1253POPC   C3A18761  21.347  31.592   8.072
 1253POPC   C4A18762  21.392  31.723   7.649
 1253POPC   C1B18763  21.375  31.301   8.673
 1253POPC   C2B18764  21.144  31.162   8.330
 1253POPC   C3B18765  21.288  30.979   7.974
 1253POPC   C4B18766  21.412  31.203   7.648
 1254POPC   NC318767  27.362  24.807   9.417
 1254POPC   PO418768  27.907  25.217   9.437
 1254POPC   GL118769  27.615  25.164   9.163
 1254POPC   GL218770  27.419  25.433   9.210
 1254POPC   C1A18771  27.496  25.036   8.779
 1254POPC   D2A18772  27.360  25.259   8.431
 1254POPC   C3A18773  27.591  25.182   8.065
 1254POPC   C4A18774  27.735  25.402   7.724
 1254POPC   C1B18775  27.657  25.528   8.818
 1254POPC   C2B18776  27.802  25.536   8.427
 1254POPC   C3B18777  27.509  25.681   8.156
 1254POPC   C4B18778  27.464  25.868   7.814
 1255POPC   NC318779  30.241  23.284   9.551
 1255POPC   PO418780  30.044  22.616   9.606
 1255POPC   GL118781  30.066  22.876   9.252
 1255POPC   GL218782  29.841  23.180   9.227
 1255POPC   C1A18783  30.070  22.782   8.830
 1255POPC   D2A18784  30.149  22.937   8.443
 1255POPC   C3A18785  29.878  22.892   8.123
 1255POPC   C4A18786  30.000  23.011   7.761
 1255POPC   C1B18787  29.972  23.296   8.814
 1255POPC   C2B18788  29.890  23.365   8.380
 1255POPC   C3B18789  30.173  23.377   8.054
 1255POPC   C4B18790  30.182  23.443   7.593
 1256POPC   NC318791  11.274  43.430   9.358
 1256POPC   PO418792  11.174  44.053   9.624
 1256POPC   GL118793  11.296  44.010   9.213
 1256POPC   GL218794  11.136  44.280   9.047
 1256POPC   C1A18795  11.420  43.946   8.792
 1256POPC   D2A18796  11.260  43.785   8.424
 1256POPC   C3A18797  11.382  43.978   8.017
 1256POPC   C4A18798  11.422  43.973   7.567
 1256POPC   C1B18799  10.752  44.313   8.838
 1256POPC   C2B18800  10.642  44.270   8.427
 1256POPC   C3B18801  10.911  44.114   8.145
 1256POPC   C4B18802  11.051  44.256   7.751
 1257POPC   NC318803   7.075  22.965   9.243
 1257POPC   PO418804   6.730  22.547   9.685
 1257POPC   GL118805   6.485  22.708   9.261
 1257POPC   GL218806   6.393  23.081   9.187
 1257POPC   C1A18807   6.542  22.761   8.802
 1257POPC   D2A18808   6.687  22.925   8.376
 1257POPC   C3A18809   6.504  22.856   7.960
 1257POPC   C4A18810   6.767  22.761   7.575
 1257POPC   C1B18811   6.535  23.265   8.777
 1257POPC   C2B18812   6.503  23.560   8.442
 1257POPC   C3B18813   6.549  23.352   8.058
 1257POPC   C4B18814   6.553  23.245   7.601
 1258POPC   NC318815  38.844  32.509   9.601
 1258POPC   PO418816  39.384  32.205   9.665
 1258POPC   GL118817  39.204  32.138   9.255
 1258POPC   GL218818  39.557  32.009   9.152
 1258POPC   C1A18819  38.921  32.338   8.922
 1258POPC   D2A18820  39.074  32.630   8.568
 1258POPC   C3A18821  39.207  32.488   8.148
 1258POPC   C4A18822  39.108  32.146   7.864
 1258POPC   C1B18823  39.368  32.165   8.761
 1258POPC   C2B18824  39.284  32.006   8.365
 1258POPC   C3B18825  39.551  32.002   8.037
 1258POPC   C4B18826  39.629  32.325   7.763
 1259POPC   NC318827  27.650  35.848   9.505
 1259POPC   PO418828  27.697  36.517   9.593
 1259POPC   GL118829  27.648  36.328   9.165
 1259POPC   GL218830  27.504  36.009   9.031
 1259POPC   C1A18831  27.450  36.481   8.790
 1259POPC   D2A18832  27.204  36.417   8.408
 1259POPC   C3A18833  27.420  36.226   8.079
 1259POPC   C4A18834  27.629  36.338   7.674
 1259POPC   C1B18835  27.434  35.986   8.594
 1259POPC   C2B18836  27.719  35.844   8.271
 1259POPC   C3B18837  27.708  35.859   7.833
 1259POPC   C4B18838  27.260  35.775   7.756
 1260POPC   NC318839   5.288  32.166   9.486
 1260POPC   PO418840   4.683  32.468   9.618
 1260POPC   GL118841   4.832  32.308   9.233
 1260POPC   GL218842   5.032  32.028   9.072
 1260POPC   C1A18843   4.919  32.510   8.858
 1260POPC   D2A18844   5.248  32.581   8.585
 1260POPC   C3A18845   5.230  32.399   8.188
 1260POPC   C4A18846   5.027  32.358   7.808
 1260POPC   C1B18847   5.156  32.069   8.636
 1260POPC   C2B18848   5.017  31.904   8.234
 1260POPC   C3B18849   4.870  31.808   7.829
 1260POPC   C4B18850   5.067  31.972   7.491
 1261POPC   NC318851  23.093  12.257   9.433
 1261POPC   PO418852  22.937  12.899   9.515
 1261POPC   GL118853  22.979  12.888   9.105
 1261POPC   GL218854  23.083  12.569   9.039
 1261POPC   C1A18855  23.010  13.026   8.698
 1261POPC   D2A18856  23.128  12.791   8.390
 1261POPC   C3A18857  23.260  12.925   8.006
 1261POPC   C4A18858  23.293  13.026   7.594
 1261POPC   C1B18859  22.771  12.575   8.733
 1261POPC   C2B18860  22.588  12.796   8.407
 1261POPC   C3B18861  22.767  13.046   8.086
 1261POPC   C4B18862  22.821  13.176   7.668
 1262POPC   NC318863  31.263  44.937   9.616
 1262POPC   PO418864  31.754  44.503   9.568
 1262POPC   GL118865  31.617  44.847   9.244
 1262POPC   GL218866  31.274  44.911   9.115
 1262POPC   C1A18867  31.759  44.824   8.856
 1262POPC   D2A18868  31.731  44.498   8.569
 1262POPC   C3A18869  31.454  44.560   8.224
 1262POPC   C4A18870  31.640  44.473   7.852
 1262POPC   C1B18871  31.271  44.681   8.729
 1262POPC   C2B18872  31.054  44.872   8.403
 1262POPC   C3B18873  31.156  44.940   7.994
 1262POPC   C4B18874  31.311  44.776   7.621
 1263POPC   NC318875   7.743  11.492   9.474
 1263POPC   PO418876   7.108  11.219   9.379
 1263POPC   GL118877   7.290  11.540   9.151
 1263POPC   GL218878   7.573  11.367   8.994
 1263POPC   C1A18879   7.161  11.611   8.772
 1263POPC   D2A18880   7.330  11.287   8.531
 1263POPC   C3A18881   7.180  11.287   8.159
 1263POPC   C4A18882   7.260  11.573   7.852
 1263POPC   C1B18883   7.749  11.035   8.720
 1263POPC   C2B18884   7.924  11.030   8.302
 1263POPC   C3B18885   7.655  11.187   7.916
 1263POPC   C4B18886   7.709  11.117   7.437
 1264POPC   NC318887  28.243  21.427   9.598
 1264POPC   PO418888  28.347  20.827   9.744
 1264POPC   GL118889  28.495  21.107   9.299
 1264POPC   GL218890  28.512  21.499   9.190
 1264POPC   C1A18891  28.359  21.189   8.832
 1264POPC   D2A18892  28.346  21.434   8.450
 1264POPC   C3A18893  28.253  21.253   8.038
 1264POPC   C4A18894  28.233  21.071   7.612
 1264POPC   C1B18895  28.706  21.645   8.824
 1264POPC   C2B18896  28.856  21.443   8.458
 1264POPC   C3B18897  28.704  21.516   8.050
 1264POPC   C4B18898  28.641  21.369   7.653
 1265POPC   NC318899  28.836  17.733   9.403
 1265POPC   PO418900  29.382  17.386   9.571
 1265POPC   GL118901  29.249  17.451   9.170
 1265POPC   GL218902  28.954  17.261   9.184
 1265POPC   C1A18903  29.035  17.559   8.790
 1265POPC   D2A18904  28.816  17.686   8.443
 1265POPC   C3A18905  29.065  17.652   8.094
 1265POPC   C4A18906  28.936  17.842   7.714
 1265POPC   C1B18907  28.752  17.124   8.803
 1265POPC   C2B18908  28.931  17.197   8.432
 1265POPC   C3B18909  28.828  17.180   8.053
 1265POPC   C4B18910  29.018  17.247   7.703
 1266POPC   NC318911  44.900  14.122   9.334
 1266POPC   PO418912  44.425  14.589   9.532
 1266POPC   GL118913  44.595  14.466   9.156
 1266POPC   GL218914  44.944  14.585   9.099
 1266POPC   C1A18915  44.484  14.551   8.776
 1266POPC   D2A18916  44.724  14.565   8.431
 1266POPC   C3A18917  44.499  14.601   8.041
 1266POPC   C4A18918  44.444  14.265   7.736
 1266POPC   C1B18919   0.133  14.365   8.742
 1266POPC   C2B18920   0.183  14.258   8.304
 1266POPC   C3B18921  44.873  14.213   7.978
 1266POPC   C4B18922  44.902  13.956   7.565
 1267POPC   NC318923  25.233  13.699   9.420
 1267POPC   PO418924  24.916  13.122   9.218
 1267POPC   GL118925  25.151  13.460   8.975
 1267POPC   GL218926  25.528  13.533   9.033
 1267POPC   C1A18927  25.160  13.849   8.749
 1267POPC   D2A18928  24.977  13.966   8.379
 1267POPC   C3A18929  25.127  13.701   8.124
 1267POPC   C4A18930  25.161  13.553   7.756
 1267POPC   C1B18931  25.680  13.887   8.789
 1267POPC   C2B18932  25.533  13.922   8.367
 1267POPC   C3B18933  25.617  13.681   7.982
 1267POPC   C4B18934  25.596  13.910   7.569
 1268POPC   NC318935  12.140  29.417   9.845
 1268POPC   PO418936  12.077  30.018   9.569
 1268POPC   GL118937  12.096  30.008   9.151
 1268POPC   GL218938  11.925  29.677   9.170
 1268POPC   C1A18939  12.189  30.159   8.754
 1268POPC   D2A18940  11.948  29.988   8.421
 1268POPC   C3A18941  12.177  30.134   8.090
 1268POPC   C4A18942  12.056  30.123   7.692
 1268POPC   C1B18943  12.180  29.652   8.771
 1268POPC   C2B18944  12.278  29.575   8.333
 1268POPC   C3B18945  12.087  29.656   7.934
 1268POPC   C4B18946  12.245  29.636   7.536
 1269POPC   NC318947  33.335  41.702   9.638
 1269POPC   PO418948  33.001  41.225   9.411
 1269POPC   GL118949  33.196  41.505   9.142
 1269POPC   GL218950  33.174  41.856   9.077
 1269POPC   C1A18951  33.150  41.471   8.703
 1269POPC   D2A18952  33.024  41.617   8.313
 1269POPC   C3A18953  33.016  41.354   7.985
 1269POPC   C4A18954  32.713  41.363   7.668
 1269POPC   C1B18955  33.257  41.982   8.616
 1269POPC   C2B18956  33.368  41.973   8.146
 1269POPC   C3B18957  33.367  41.685   7.771
 1269POPC   C4B18958  33.412  41.852   7.314
 1270POPC   NC318959  24.217  34.297   9.501
 1270POPC   PO418960  24.758  34.672   9.603
 1270POPC   GL118961  24.541  34.562   9.222
 1270POPC   GL218962  24.425  34.837   9.164
 1270POPC   C1A18963  24.302  34.512   8.805
 1270POPC   D2A18964  24.140  34.520   8.399
 1270POPC   C3A18965  24.366  34.538   8.017
 1270POPC   C4A18966  24.274  34.514   7.578
 1270POPC   C1B18967  24.641  34.929   8.812
 1270POPC   C2B18968  24.677  34.760   8.425
 1270POPC   C3B18969  24.795  34.818   8.029
 1270POPC   C4B18970  24.577  34.932   7.661
 1271POPC   NC318971   1.678  22.087   9.473
 1271POPC   PO418972   2.139  22.558   9.561
 1271POPC   GL118973   2.055  22.292   9.183
 1271POPC   GL218974   1.761  22.308   9.032
 1271POPC   C1A18975   2.094  22.022   8.790
 1271POPC   D2A18976   2.207  21.905   8.371
 1271POPC   C3A18977   2.045  22.234   8.063
 1271POPC   C4A18978   1.989  22.631   7.800
 1271POPC   C1B18979   1.706  22.561   8.742
 1271POPC   C2B18980   1.675  22.291   8.426
 1271POPC   C3B18981   1.564  22.428   8.076
 1271POPC   C4B18982   1.568  22.387   7.675
 1272POPC   NC318983  41.261  12.133   9.657
 1272POPC   PO418984  40.549  11.947   9.656
 1272POPC   GL118985  40.706  12.000   9.220
 1272POPC   GL218986  41.048  12.151   9.198
 1272POPC   C1A18987  40.603  11.819   8.809
 1272POPC   D2A18988  40.474  11.970   8.405
 1272POPC   C3A18989  40.753  12.132   8.101
 1272POPC   C4A18990  40.842  11.822   7.803
 1272POPC   C1B18991  41.030  12.095   8.767
 1272POPC   C2B18992  41.022  11.806   8.424
 1272POPC   C3B18993  41.241  12.009   8.085
 1272POPC   C4B18994  41.165  12.213   7.679
 1273POPC   NC318995  12.544  35.164   9.466
 1273POPC   PO418996  13.154  35.166   9.540
 1273POPC   GL118997  12.901  35.385   9.177
 1273POPC   GL218998  12.561  35.591   9.225
 1273POPC   C1A18999  12.989  35.288   8.750
 1273POPC   D2A19000  12.791  35.188   8.409
 1273POPC   C3A19001  12.925  35.310   8.031
 1273POPC   C4A19002  13.038  35.211   7.636
 1273POPC   C1B19003  12.510  35.491   8.803
 1273POPC   C2B19004  12.593  35.699   8.429
 1273POPC   C3B19005  12.552  35.684   7.995
 1273POPC   C4B19006  12.461  35.394   7.645
 1274POPC   NC319007  10.318   8.205   9.838
 1274POPC   PO419008  10.014   8.556   9.356
 1274POPC   GL119009  10.382   8.370   9.189
 1274POPC   GL219010  10.215   8.097   9.144
 1274POPC   C1A19011  10.524   8.190   8.763
 1274POPC   D2A19012  10.245   8.252   8.424
 1274POPC   C3A19013  10.363   8.316   8.000
 1274POPC   C4A19014  10.743   8.219   7.776
 1274POPC   C1B19015  10.258   7.768   8.836
 1274POPC   C2B19016  10.367   7.762   8.420
 1274POPC   C3B19017  10.164   7.794   8.078
 1274POPC   C4B19018  10.377   7.871   7.718
 1275POPC   NC319019  13.648  35.040   9.505
 1275POPC   PO419020  13.957  35.666   9.466
 1275POPC   GL119021  13.549  35.683   9.215
 1275POPC   GL219022  13.405  35.321   9.121
 1275POPC   C1A19023  13.452  35.675   8.772
 1275POPC   D2A19024  13.496  35.347   8.477
 1275POPC   C3A19025  13.481  35.573   8.095
 1275POPC   C4A19026  13.425  35.549   7.678
 1275POPC   C1B19027  13.266  34.907   8.880
 1275POPC   C2B19028  13.247  34.887   8.422
 1275POPC   C3B19029  13.385  35.077   8.028
 1275POPC   C4B19030  13.497  34.991   7.599
 1276POPC   NC319031  37.105  19.514   9.509
 1276POPC   PO419032  36.982  18.996  10.024
 1276POPC   GL119033  37.165  18.982   9.533
 1276POPC   GL219034  36.848  19.044   9.354
 1276POPC   C1A19035  37.258  18.991   9.033
 1276POPC   D2A19036  37.087  18.791   8.657
 1276POPC   C3A19037  37.106  18.868   8.216
 1276POPC   C4A19038  37.200  19.148   7.890
 1276POPC   C1B19039  36.777  19.131   8.908
 1276POPC   C2B19040  36.797  19.204   8.466
 1276POPC   C3B19041  36.696  19.187   8.033
 1276POPC   C4B19042  36.709  18.933   7.672
 1277POPC   NC319043  40.972  41.238   9.471
 1277POPC   PO419044  40.683  41.867   9.556
 1277POPC   GL119045  40.786  41.833   9.122
 1277POPC   GL219046  40.697  41.518   9.134
 1277POPC   C1A19047  40.851  41.714   8.688
 1277POPC   D2A19048  41.200  41.548   8.512
 1277POPC   C3A19049  41.168  41.569   8.119
 1277POPC   C4A19050  40.861  41.701   7.842
 1277POPC   C1B19051  40.354  41.425   8.865
 1277POPC   C2B19052  40.343  41.213   8.461
 1277POPC   C3B19053  40.488  41.367   8.063
 1277POPC   C4B19054  40.447  41.487   7.632
 1278POPC   NC319055   8.829  35.710   9.421
 1278POPC   PO419056   8.947  35.117   9.648
 1278POPC   GL119057   9.005  35.137   9.178
 1278POPC   GL219058   8.747  34.922   9.062
 1278POPC   C1A19059   9.075  35.480   8.836
 1278POPC   D2A19060   8.977  35.453   8.378
 1278POPC   C3A19061   9.044  35.665   7.969
 1278POPC   C4A19062   9.252  35.511   7.602
 1278POPC   C1B19063   8.998  34.992   8.680
 1278POPC   C2B19064   8.893  34.895   8.266
 1278POPC   C3B19065   8.898  35.173   7.942
 1278POPC   C4B19066   9.024  35.055   7.558
 1279POPC   NC319067  24.754   5.348   9.879
 1279POPC   PO419068  24.306   4.851   9.683
 1279POPC   GL119069  24.458   5.036   9.306
 1279POPC   GL219070  24.672   4.798   9.140
 1279POPC   C1A19071  24.325   5.085   8.863
 1279POPC   D2A19072  24.316   5.003   8.426
 1279POPC   C3A19073  24.400   5.294   8.096
 1279POPC   C4A19074  24.099   5.258   7.801
 1279POPC   C1B19075  24.561   4.629   8.703
 1279POPC   C2B19076  24.606   4.638   8.214
 1279POPC   C3B19077  24.571   4.900   7.805
 1279POPC   C4B19078  24.654   4.696   7.382
 1280POPC   NC319079  23.138   4.430   9.509
 1280POPC   PO419080  22.723   4.009   9.390
 1280POPC   GL119081  22.883   4.232   9.103
 1280POPC   GL219082  22.776   4.532   9.115
 1280POPC   C1A19083  22.707   4.210   8.690
 1280POPC   D2A19084  22.650   4.568   8.419
 1280POPC   C3A19085  22.830   4.476   8.013
 1280POPC   C4A19086  22.979   4.064   7.798
 1280POPC   C1B19087  23.034   4.603   8.761
 1280POPC   C2B19088  23.132   4.727   8.342
 1280POPC   C3B19089  23.182   4.829   7.906
 1280POPC   C4B19090  23.179   4.525   7.605
 1281POPC   NC319091  41.406  15.407   9.477
 1281POPC   PO419092  41.844  15.941   9.458
 1281POPC   GL119093  41.666  15.701   9.107
 1281POPC   GL219094  41.327  15.830   9.138
 1281POPC   C1A19095  41.494  15.775   8.664
 1281POPC   D2A19096  41.524  15.729   8.249
 1281POPC   C3A19097  41.738  15.987   7.977
 1281POPC   C4A19098  41.471  15.835   7.680
 1281POPC   C1B19099  41.335  16.227   8.801
 1281POPC   C2B19100  41.514  16.278   8.346
 1281POPC   C3B19101  41.307  16.253   7.895
 1281POPC   C4B19102  41.308  16.204   7.367
 1282POPC   NC319103   2.848   7.152   9.514
 1282POPC   PO419104   2.295   6.904   9.269
 1282POPC   GL119105   2.603   7.203   9.045
 1282POPC   GL219106   2.872   7.471   9.081
 1282POPC   C1A19107   2.746   7.325   8.625
 1282POPC   D2A19108   2.792   7.512   8.224
 1282POPC   C3A19109   2.521   7.345   7.861
 1282POPC   C4A19110   2.439   7.345   7.429
 1282POPC   C1B19111   2.996   7.787   8.710
 1282POPC   C2B19112   3.220   7.801   8.289
 1282POPC   C3B19113   3.211   7.526   7.915
 1282POPC   C4B19114   2.850   7.692   7.748
 1283POPC   NC319115  10.294  39.510   9.198
 1283POPC   PO419116  10.388  40.080   9.592
 1283POPC   GL119117  10.451  40.082   9.166
 1283POPC   GL219118  10.197  40.368   9.158
 1283POPC   C1A19119  10.636  39.904   8.738
 1283POPC   D2A19120  10.468  39.683   8.341
 1283POPC   C3A19121  10.705  39.711   7.942
 1283POPC   C4A19122  10.568  39.812   7.508
 1283POPC   C1B19123  10.251  40.242   8.736
 1283POPC   C2B19124  10.484  40.215   8.338
 1283POPC   C3B19125  10.340  40.079   7.931
 1283POPC   C4B19126  10.345  40.280   7.532
 1284POPC   NC319127   7.988  16.925   9.460
 1284POPC   PO419128   8.306  16.401   9.494
 1284POPC   GL119129   8.009  16.506   9.159
 1284POPC   GL219130   8.106  16.812   8.980
 1284POPC   C1A19131   8.072  16.368   8.745
 1284POPC   D2A19132   8.033  16.666   8.405
 1284POPC   C3A19133   8.202  16.527   8.060
 1284POPC   C4A19134   8.456  16.595   7.721
 1284POPC   C1B19135   8.157  17.099   8.639
 1284POPC   C2B19136   7.923  17.209   8.326
 1284POPC   C3B19137   7.919  16.999   7.963
 1284POPC   C4B19138   8.219  17.052   7.653
 1285POPC   NC319139  44.176  40.240   9.466
 1285POPC   PO419140  43.496  40.023   9.505
 1285POPC   GL119141  43.839  39.919   9.209
 1285POPC   GL219142  44.070  39.635   9.272
 1285POPC   C1A19143  43.878  40.071   8.791
 1285POPC   D2A19144  43.600  40.194   8.471
 1285POPC   C3A19145  43.842  40.063   8.124
 1285POPC   C4A19146  43.782  39.905   7.738
 1285POPC   C1B19147  44.253  39.706   8.848
 1285POPC   C2B19148  44.235  39.912   8.436
 1285POPC   C3B19149  44.324  39.798   8.019
 1285POPC   C4B19150  44.226  39.654   7.633
 1286POPC   NC319151  23.319   9.891   9.630
 1286POPC   PO419152  23.945   9.536   9.528
 1286POPC   GL119153  23.650   9.623   9.206
 1286POPC   GL219154  23.607   9.944   9.219
 1286POPC   C1A19155  23.713   9.631   8.784
 1286POPC   D2A19156  24.036   9.768   8.509
 1286POPC   C3A19157  23.833   9.741   8.086
 1286POPC   C4A19158  24.051   9.714   7.692
 1286POPC   C1B19159  23.774  10.128   8.848
 1286POPC   C2B19160  23.657  10.089   8.443
 1286POPC   C3B19161  23.846  10.250   8.102
 1286POPC   C4B19162  23.723  10.383   7.718
 1287POPC   NC319163  41.445  24.927   9.512
 1287POPC   PO419164  41.822  24.436   9.608
 1287POPC   GL119165  41.818  24.667   9.216
 1287POPC   GL219166  41.729  24.339   9.028
 1287POPC   C1A19167  41.752  24.782   8.784
 1287POPC   D2A19168  41.550  24.504   8.482
 1287POPC   C3A19169  41.638  24.623   8.083
 1287POPC   C4A19170  41.768  24.457   7.721
 1287POPC   C1B19171  41.354  24.156   8.813
 1287POPC   C2B19172  41.303  24.041   8.356
 1287POPC   C3B19173  41.346  24.206   7.921
 1287POPC   C4B19174  41.488  24.016   7.542
 1288POPC   NC319175  44.230   8.915   9.694
 1288POPC   PO419176  43.650   8.687   9.515
 1288POPC   GL119177  43.825   8.871   9.145
 1288POPC   GL219178  44.166   8.798   9.149
 1288POPC   C1A19179  43.753   8.865   8.692
 1288POPC   D2A19180  43.463   9.017   8.385
 1288POPC   C3A19181  43.740   9.044   8.037
 1288POPC   C4A19182  43.696   9.166   7.615
 1288POPC   C1B19183  44.257   8.923   8.699
 1288POPC   C2B19184  44.168   8.757   8.259
 1288POPC   C3B19185  44.237   8.937   7.830
 1288POPC   C4B19186  44.252   9.140   7.375
 1289POPC   NC319187  11.237  39.410   9.437
 1289POPC   PO419188  10.689  39.105   9.683
 1289POPC   GL119189  10.991  39.041   9.231
 1289POPC   GL219190  11.408  39.008   9.180
 1289POPC   C1A19191  11.168  39.225   8.798
 1289POPC   D2A19192  11.187  39.064   8.389
 1289POPC   C3A19193  11.452  39.284   8.077
 1289POPC   C4A19194  11.351  39.374   7.661
 1289POPC   C1B19195  11.553  38.886   8.726
 1289POPC   C2B19196  11.617  38.836   8.263
 1289POPC   C3B19197  11.288  38.821   7.931
 1289POPC   C4B19198  11.199  38.923   7.479
 1290POPC   NC319199  38.468  33.404   9.614
 1290POPC   PO419200  37.983  33.058   9.311
 1290POPC   GL119201  38.207  32.955   9.010
 1290POPC   GL219202  38.486  33.163   9.145
 1290POPC   C1A19203  38.212  32.993   8.572
 1290POPC   D2A19204  38.338  33.303   8.284
 1290POPC   C3A19205  38.234  33.136   7.892
 1290POPC   C4A19206  38.193  33.205   7.444
 1290POPC   C1B19207  38.632  33.267   8.736
 1290POPC   C2B19208  38.766  33.017   8.373
 1290POPC   C3B19209  38.734  33.161   7.966
 1290POPC   C4B19210  38.628  32.995   7.570
 1291POPC   NC319211  25.216  39.439   9.464
 1291POPC   PO419212  25.605  38.930   9.582
 1291POPC   GL119213  25.289  38.960   9.215
 1291POPC   GL219214  25.222  39.279   9.007
 1291POPC   C1A19215  25.341  38.871   8.773
 1291POPC   D2A19216  25.207  39.189   8.477
 1291POPC   C3A19217  25.220  39.050   8.091
 1291POPC   C4A19218  25.165  39.147   7.648
 1291POPC   C1B19219  25.038  39.587   8.776
 1291POPC   C2B19220  24.871  39.605   8.373
 1291POPC   C3B19221  25.055  39.525   7.970
 1291POPC   C4B19222  25.276  39.647   7.572
 1292POPC   NC319223  14.562  41.667   9.511
 1292POPC   PO419224  13.929  41.346   9.497
 1292POPC   GL119225  14.165  41.672   9.212
 1292POPC   GL219226  14.081  42.049   9.156
 1292POPC   C1A19227  14.507  41.738   8.852
 1292POPC   D2A19228  14.671  41.568   8.449
 1292POPC   C3A19229  14.762  41.808   8.089
 1292POPC   C4A19230  14.583  41.607   7.740
 1292POPC   C1B19231  14.013  41.790   8.767
 1292POPC   C2B19232  14.044  41.544   8.441
 1292POPC   C3B19233  14.228  41.556   8.086
 1292POPC   C4B19234  14.089  41.685   7.702
 1293POPC   NC319235   4.851  22.849   9.577
 1293POPC   PO419236   5.405  23.246   9.458
 1293POPC   GL119237   5.259  22.918   9.259
 1293POPC   GL219238   5.003  23.034   9.132
 1293POPC   C1A19239   5.352  22.736   8.882
 1293POPC   D2A19240   5.335  22.927   8.494
 1293POPC   C3A19241   5.068  22.902   8.149
 1293POPC   C4A19242   5.335  22.931   7.791
 1293POPC   C1B19243   4.881  22.891   8.749
 1293POPC   C2B19244   4.768  23.209   8.470
 1293POPC   C3B19245   4.641  23.248   8.071
 1293POPC   C4B19246   4.700  23.451   7.711
 1294POPC   NC319247  19.274  16.005   9.862
 1294POPC   PO419248  19.700  15.749   9.438
 1294POPC   GL119249  19.700  15.771   9.078
 1294POPC   GL219250  19.390  15.598   9.053
 1294POPC   C1A19251  19.985  15.862   8.762
 1294POPC   D2A19252  19.970  15.742   8.345
 1294POPC   C3A19253  20.007  16.064   8.024
 1294POPC   C4A19254  20.021  15.960   7.579
 1294POPC   C1B19255  19.430  15.833   8.659
 1294POPC   C2B19256  19.470  15.593   8.292
 1294POPC   C3B19257  19.686  15.654   7.906
 1294POPC   C4B19258  19.578  15.688   7.490
 1295POPC   NC319259  20.522  35.544   9.418
 1295POPC   PO419260  20.819  35.016   9.516
 1295POPC   GL119261  20.593  35.109   9.145
 1295POPC   GL219262  20.311  35.307   9.021
 1295POPC   C1A19263  20.775  35.248   8.741
 1295POPC   D2A19264  21.014  35.109   8.362
 1295POPC   C3A19265  20.823  35.119   7.956
 1295POPC   C4A19266  20.846  35.348   7.546
 1295POPC   C1B19267  20.389  35.616   8.753
 1295POPC   C2B19268  20.345  35.532   8.350
 1295POPC   C3B19269  20.552  35.532   7.994
 1295POPC   C4B19270  20.381  35.558   7.590
 1296POPC   NC319271   8.095  28.479   9.453
 1296POPC   PO419272   8.170  27.892   9.425
 1296POPC   GL119273   8.320  28.043   9.026
 1296POPC   GL219274   8.292  28.418   8.978
 1296POPC   C1A19275   8.259  28.068   8.585
 1296POPC   D2A19276   7.955  28.076   8.259
 1296POPC   C3A19277   8.169  28.076   7.898
 1296POPC   C4A19278   8.624  28.169   7.827
 1296POPC   C1B19279   8.578  28.472   8.636
 1296POPC   C2B19280   8.400  28.465   8.216
 1296POPC   C3B19281   8.253  28.561   7.803
 1296POPC   C4B19282   8.358  28.699   7.403
 1297POPC   NC319283  29.236  39.708   9.816
 1297POPC   PO419284  28.859  39.293   9.347
 1297POPC   GL119285  29.100  39.144   9.067
 1297POPC   GL219286  29.271  38.851   9.167
 1297POPC   C1A19287  29.132  39.335   8.686
 1297POPC   D2A19288  28.946  39.473   8.314
 1297POPC   C3A19289  28.969  39.255   7.928
 1297POPC   C4A19290  28.825  38.834   7.840
 1297POPC   C1B19291  29.380  38.883   8.711
 1297POPC   C2B19292  29.337  39.090   8.287
 1297POPC   C3B19293  29.384  38.963   7.870
 1297POPC   C4B19294  29.584  38.900   7.471
 1298POPC   NC319295  27.283  37.568   9.546
 1298POPC   PO419296  27.908  37.897   9.505
 1298POPC   GL119297  27.660  37.680   9.191
 1298POPC   GL219298  27.377  37.893   9.181
 1298POPC   C1A19299  27.687  37.512   8.769
 1298POPC   D2A19300  27.639  37.710   8.368
 1298POPC   C3A19301  27.722  37.580   7.954
 1298POPC   C4A19302  27.986  37.835   7.686
 1298POPC   C1B19303  27.477  38.005   8.789
 1298POPC   C2B19304  27.475  38.185   8.401
 1298POPC   C3B19305  27.408  38.058   8.025
 1298POPC   C4B19306  27.489  37.914   7.668
 1299POPC   NC319307  33.009  24.733   9.572
 1299POPC   PO419308  33.129  25.459   9.541
 1299POPC   GL119309  33.043  25.231   9.188
 1299POPC   GL219310  33.263  24.957   9.183
 1299POPC   C1A19311  32.861  25.108   8.797
 1299POPC   D2A19312  33.077  25.137   8.415
 1299POPC   C3A19313  32.976  25.307   8.044
 1299POPC   C4A19314  33.135  25.211   7.633
 1299POPC   C1B19315  33.284  24.793   8.775
 1299POPC   C2B19316  33.469  24.825   8.350
 1299POPC   C3B19317  33.208  24.823   7.964
 1299POPC   C4B19318  32.758  24.909   7.832
 1300POPC   NC319319  16.220   3.275   9.878
 1300POPC   PO419320  16.848   3.707   9.836
 1300POPC   GL119321  16.792   3.714   9.345
 1300POPC   GL219322  16.544   3.941   9.184
 1300POPC   C1A19323  16.631   3.496   8.955
 1300POPC   D2A19324  16.645   3.533   8.489
 1300POPC   C3A19325  16.820   3.262   8.166
 1300POPC   C4A19326  16.728   3.386   7.735
 1300POPC   C1B19327  16.820   3.979   8.820
 1300POPC   C2B19328  16.650   4.048   8.414
 1300POPC   C3B19329  16.612   3.847   8.015
 1300POPC   C4B19330  16.588   3.879   7.558
 1301POPC   NC319331  38.285   3.941   9.454
 1301POPC   PO419332  38.393   4.639   9.567
 1301POPC   GL119333  38.382   4.539   9.152
 1301POPC   GL219334  38.095   4.752   9.125
 1301POPC   C1A19335  38.561   4.322   8.753
 1301POPC   D2A19336  38.413   4.101   8.345
 1301POPC   C3A19337  38.677   4.093   7.953
 1301POPC   C4A19338  38.825   4.269   7.578
 1301POPC   C1B19339  38.254   4.734   8.705
 1301POPC   C2B19340  38.234   4.577   8.309
 1301POPC   C3B19341  38.469   4.567   7.946
 1301POPC   C4B19342  38.238   4.711   7.620
 1302POPC   NC319343  10.188  12.965   9.321
 1302POPC   PO419344  10.543  12.430   9.421
 1302POPC   GL119345  10.557  12.703   9.057
 1302POPC   GL219346  10.636  13.083   9.058
 1302POPC   C1A19347  10.543  12.764   8.631
 1302POPC   D2A19348  10.320  12.672   8.260
 1302POPC   C3A19349  10.540  12.731   7.883
 1302POPC   C4A19350  10.459  12.998   7.562
 1302POPC   C1B19351  10.793  13.253   8.671
 1302POPC   C2B19352  10.822  13.017   8.282
 1302POPC   C3B19353  10.911  13.096   7.884
 1302POPC   C4B19354  10.964  12.892   7.518
 1303POPC   NC319355  29.608  40.508   9.525
 1303POPC   PO419356  30.229  40.562   9.336
 1303POPC   GL119357  29.886  40.796   9.178
 1303POPC   GL219358  30.118  40.966   9.002
 1303POPC   C1A19359  29.704  40.798   8.754
 1303POPC   D2A19360  29.832  41.051   8.387
 1303POPC   C3A19361  29.804  40.851   7.983
 1303POPC   C4A19362  29.598  40.568   7.683
 1303POPC   C1B19363  30.235  41.276   8.747
 1303POPC   C2B19364  30.183  41.421   8.382
 1303POPC   C3B19365  30.201  41.233   7.984
 1303POPC   C4B19366  30.323  40.846   7.866
 1304POPC   NC319367  31.216  33.375   9.632
 1304POPC   PO419368  31.099  34.036   9.494
 1304POPC   GL119369  31.289  33.765   9.196
 1304POPC   GL219370  31.647  33.744   9.297
 1304POPC   C1A19371  31.248  33.549   8.780
 1304POPC   D2A19372  31.265  33.662   8.348
 1304POPC   C3A19373  31.363  33.409   8.015
 1304POPC   C4A19374  31.115  33.425   7.630
 1304POPC   C1B19375  31.703  33.742   8.839
 1304POPC   C2B19376  31.754  33.622   8.408
 1304POPC   C3B19377  31.819  33.806   7.990
 1304POPC   C4B19378  31.673  33.575   7.672
 1305POPC   NC319379   6.443  17.087   9.426
 1305POPC   PO419380   6.847  17.636   9.565
 1305POPC   GL119381   6.725  17.494   9.172
 1305POPC   GL219382   6.351  17.498   9.157
 1305POPC   C1A19383   6.851  17.704   8.778
 1305POPC   D2A19384   6.819  18.011   8.428
 1305POPC   C3A19385   6.843  17.812   8.025
 1305POPC   C4A19386   6.825  17.453   7.754
 1305POPC   C1B19387   6.505  17.279   8.777
 1305POPC   C2B19388   6.551  17.534   8.404
 1305POPC   C3B19389   6.377  17.542   8.021
 1305POPC   C4B19390   6.194  17.176   7.811
 1306POPC   NC319391  26.021  13.260   9.451
 1306POPC   PO419392  26.458  12.893   9.762
 1306POPC   GL119393  26.445  12.765   9.258
 1306POPC   GL219394  26.116  12.819   9.198
 1306POPC   C1A19395  26.438  12.950   8.772
 1306POPC   D2A19396  26.291  12.753   8.405
 1306POPC   C3A19397  26.177  12.896   7.993
 1306POPC   C4A19398  26.232  12.889   7.518
 1306POPC   C1B19399  25.932  12.958   8.824
 1306POPC   C2B19400  25.879  13.098   8.419
 1306POPC   C3B19401  25.696  13.167   8.034
 1306POPC   C4B19402  25.741  12.912   7.674
 1307POPC   NC319403  24.277  39.145   9.371
 1307POPC   PO419404  24.782  38.785   9.529
 1307POPC   GL119405  24.775  39.049   9.151
 1307POPC   GL219406  24.636  39.391   9.107
 1307POPC   C1A19407  24.772  39.130   8.704
 1307POPC   D2A19408  24.538  39.090   8.317
 1307POPC   C3A19409  24.719  39.118   7.908
 1307POPC   C4A19410  24.725  38.890   7.506
 1307POPC   C1B19411  24.324  39.375   8.725
 1307POPC   C2B19412  24.360  39.582   8.311
 1307POPC   C3B19413  24.418  39.558   7.851
 1307POPC   C4B19414  24.363  39.231   7.526
 1308POPC   NC319415  31.661  16.017   9.643
 1308POPC   PO419416  31.161  15.629   9.475
 1308POPC   GL119417  31.406  15.908   9.185
 1308POPC   GL219418  31.790  15.920   9.165
 1308POPC   C1A19419  31.411  16.195   8.813
 1308POPC   D2A19420  31.259  16.218   8.388
 1308POPC   C3A19421  31.471  16.162   7.968
 1308POPC   C4A19422  31.480  16.175   7.488
 1308POPC   C1B19423  31.713  15.797   8.776
 1308POPC   C2B19424  31.550  15.799   8.398
 1308POPC   C3B19425  31.715  15.712   8.016
 1308POPC   C4B19426  31.527  15.711   7.617
 1309POPC   NC319427  29.594  31.968   9.678
 1309POPC   PO419428  29.902  32.475   9.774
 1309POPC   GL119429  29.886  32.296   9.290
 1309POPC   GL219430  30.197  32.120   9.133
 1309POPC   C1A19431  29.797  32.333   8.798
 1309POPC   D2A19432  29.823  32.120   8.335
 1309POPC   C3A19433  30.011  32.322   7.959
 1309POPC   C4A19434  30.346  32.632   7.969
 1309POPC   C1B19435  30.186  32.041   8.711
 1309POPC   C2B19436  30.354  32.137   8.337
 1309POPC   C3B19437  30.362  31.951   7.966
 1309POPC   C4B19438  30.114  31.644   7.814
 1310POPC   NC319439  32.845   2.306   9.446
 1310POPC   PO419440  33.495   2.737   9.489
 1310POPC   GL119441  33.105   2.735   9.241
 1310POPC   GL219442  32.982   3.031   9.037
 1310POPC   C1A19443  33.004   2.553   8.837
 1310POPC   D2A19444  32.742   2.728   8.508
 1310POPC   C3A19445  32.951   2.756   8.105
 1310POPC   C4A19446  32.869   2.729   7.660
 1310POPC   C1B19447  33.364   2.953   8.827
 1310POPC   C2B19448  33.370   2.999   8.395
 1310POPC   C3B19449  33.504   3.067   7.984
 1310POPC   C4B19450  33.375   2.788   7.674
 1311POPC   NC319451  40.928  17.558   9.528
 1311POPC   PO419452  40.904  16.908   9.568
 1311POPC   GL119453  41.000  17.193   9.170
 1311POPC   GL219454  40.682  17.447   9.118
 1311POPC   C1A19455  40.797  17.175   8.732
 1311POPC   D2A19456  40.559  17.321   8.424
 1311POPC   C3A19457  40.768  17.272   8.055
 1311POPC   C4A19458  40.550  17.514   7.790
 1311POPC   C1B19459  41.001  17.623   8.824
 1311POPC   C2B19460  40.989  17.651   8.358
 1311POPC   C3B19461  41.040  17.687   7.896
 1311POPC   C4B19462  40.848  17.807   7.496
 1312POPC   NC319463   1.238  31.151   9.713
 1312POPC   PO419464   0.738  31.410   9.337
 1312POPC   GL119465   1.079  31.535   9.113
 1312POPC   GL219466   1.340  31.317   9.196
 1312POPC   C1A19467   1.042  31.573   8.681
 1312POPC   D2A19468   1.023  31.325   8.322
 1312POPC   C3A19469   0.997  31.613   7.983
 1312POPC   C4A19470   1.170  31.579   7.563
 1312POPC   C1B19471   1.429  31.237   8.750
 1312POPC   C2B19472   1.525  31.136   8.318
 1312POPC   C3B19473   1.370  31.242   7.896
 1312POPC   C4B19474   1.593  31.216   7.476
 1313POPC   NC319475  44.280   6.677   9.478
 1313POPC   PO419476  44.919   6.418   9.542
 1313POPC   GL119477  44.759   6.407   9.146
 1313POPC   GL219478  44.407   6.311   9.132
 1313POPC   C1A19479  44.978   6.490   8.747
 1313POPC   D2A19480  44.866   6.834   8.449
 1313POPC   C3A19481  44.823   6.696   8.017
 1313POPC   C4A19482  44.675   6.691   7.551
 1313POPC   C1B19483  44.476   6.566   8.756
 1313POPC   C2B19484  44.581   6.399   8.347
 1313POPC   C3B19485  44.390   6.422   7.903
 1313POPC   C4B19486  44.285   6.366   7.433
 1314POPC   NC319487   0.583  29.977   9.385
 1314POPC   PO419488   0.019  29.716   9.456
 1314POPC   GL119489   0.171  29.806   9.090
 1314POPC   GL219490   0.152  30.148   9.162
 1314POPC   C1A19491   0.376  29.695   8.709
 1314POPC   D2A19492   0.110  29.714   8.352
 1314POPC   C3A19493   0.322  29.742   7.981
 1314POPC   C4A19494   0.665  29.696   7.725
 1314POPC   C1B19495   0.377  30.216   8.782
 1314POPC   C2B19496   0.461  30.119   8.375
 1314POPC   C3B19497   0.552  30.203   7.949
 1314POPC   C4B19498   0.665  30.217   7.503
 1315POPC   NC319499  41.260  42.870   9.611
 1315POPC   PO419500  41.145  43.514   9.416
 1315POPC   GL119501  41.375  43.171   9.155
 1315POPC   GL219502  41.500  42.823   9.168
 1315POPC   C1A19503  41.529  43.079   8.733
 1315POPC   D2A19504  41.718  42.852   8.389
 1315POPC   C3A19505  41.856  43.090   8.029
 1315POPC   C4A19506  41.681  43.344   7.755
 1315POPC   C1B19507  41.211  42.681   8.821
 1315POPC   C2B19508  41.190  42.732   8.402
 1315POPC   C3B19509  41.330  43.027   8.118
 1315POPC   C4B19510  41.382  42.907   7.754
 1316POPC   NC319511  20.821  29.211   9.710
 1316POPC   PO419512  21.518  29.071   9.621
 1316POPC   GL119513  21.497  29.193   9.169
 1316POPC   GL219514  21.318  28.910   9.144
 1316POPC   C1A19515  21.281  29.241   8.730
 1316POPC   D2A19516  21.186  29.381   8.295
 1316POPC   C3A19517  21.445  29.242   7.947
 1316POPC   C4A19518  21.488  29.026   7.545
 1316POPC   C1B19519  21.275  28.733   8.749
 1316POPC   C2B19520  21.345  28.864   8.330
 1316POPC   C3B19521  21.343  28.691   7.919
 1316POPC   C4B19522  21.187  28.594   7.498
 1317POPC   NC319523  31.468   6.149   9.480
 1317POPC   PO419524  31.377   5.509   9.613
 1317POPC   GL119525  31.558   5.705   9.211
 1317POPC   GL219526  31.210   5.814   9.170
 1317POPC   C1A19527  31.734   5.807   8.741
 1317POPC   D2A19528  31.633   5.619   8.347
 1317POPC   C3A19529  31.694   5.730   7.905
 1317POPC   C4A19530  31.597   5.488   7.518
 1317POPC   C1B19531  31.283   5.593   8.792
 1317POPC   C2B19532  31.123   5.723   8.363
 1317POPC   C3B19533  31.257   5.985   8.028
 1317POPC   C4B19534  31.273   5.879   7.601
 1318POPC   NC319535  17.640  13.329   9.658
 1318POPC   PO419536  17.619  13.992   9.667
 1318POPC   GL119537  17.492  13.722   9.341
 1318POPC   GL219538  17.788  13.564   9.213
 1318POPC   C1A19539  17.290  13.595   8.973
 1318POPC   D2A19540  17.311  13.712   8.541
 1318POPC   C3A19541  17.165  13.496   8.158
 1318POPC   C4A19542  17.335  13.459   7.757
 1318POPC   C1B19543  17.775  13.530   8.756
 1318POPC   C2B19544  17.652  13.427   8.307
 1318POPC   C3B19545  17.812  13.577   7.912
 1318POPC   C4B19546  17.995  13.315   7.609
 1319POPC   NC319547  15.560  35.151   9.458
 1319POPC   PO419548  14.889  35.305   9.497
 1319POPC   GL119549  15.170  35.415   9.183
 1319POPC   GL219550  14.873  35.570   9.041
 1319POPC   C1A19551  15.388  35.296   8.787
 1319POPC   D2A19552  15.432  35.167   8.348
 1319POPC   C3A19553  15.191  35.402   8.045
 1319POPC   C4A19554  15.482  35.695   7.795
 1319POPC   C1B19555  14.857  35.164   8.845
 1319POPC   C2B19556  14.735  35.206   8.422
 1319POPC   C3B19557  14.759  35.010   8.071
 1319POPC   C4B19558  14.930  35.096   7.718
 1320POPC   NC319559  13.138  39.272   9.424
 1320POPC   PO419560  12.599  38.830   9.506
 1320POPC   GL119561  12.755  39.051   9.150
 1320POPC   GL219562  13.069  38.880   9.083
 1320POPC   C1A19563  12.786  39.411   8.830
 1320POPC   D2A19564  12.862  39.367   8.367
 1320POPC   C3A19565  12.586  39.338   8.008
 1320POPC   C4A19566  12.760  39.346   7.558
 1320POPC   C1B19567  13.023  38.981   8.682
 1320POPC   C2B19568  13.115  38.924   8.253
 1320POPC   C3B19569  13.107  39.173   7.890
 1320POPC   C4B19570  13.150  39.049   7.453
 1321POPC   NC319571  39.632   1.040   9.720
 1321POPC   PO419572  40.013   1.505   9.733
 1321POPC   GL119573  39.742   1.428   9.332
 1321POPC   GL219574  39.617   1.087   9.208
 1321POPC   C1A19575  39.785   1.460   8.857
 1321POPC   D2A19576  40.029   1.256   8.502
 1321POPC   C3A19577  40.122   1.491   8.119
 1321POPC   C4A19578  40.350   1.407   7.724
 1321POPC   C1B19579  39.741   0.926   8.814
 1321POPC   C2B19580  39.559   1.082   8.446
 1321POPC   C3B19581  39.727   1.152   8.075
 1321POPC   C4B19582  39.807   0.974   7.698
 1322POPC   NC319583  27.460   9.455   9.525
 1322POPC   PO419584  27.864   9.943   9.731
 1322POPC   GL119585  27.682   9.892   9.315
 1322POPC   GL219586  27.828  10.151   9.115
 1322POPC   C1A19587  27.603   9.673   8.895
 1322POPC   D2A19588  27.370   9.434   8.547
 1322POPC   C3A19589  27.348   9.599   8.123
 1322POPC   C4A19590  27.566   9.530   7.751
 1322POPC   C1B19591  27.967  10.016   8.693
 1322POPC   C2B19592  27.952  10.075   8.232
 1322POPC   C3B19593  27.698  10.029   7.840
 1322POPC   C4B19594  27.349   9.994   7.558
 1323POPC   NC319595  19.134  21.064   9.509
 1323POPC   PO419596  19.060  21.757   9.425
 1323POPC   GL119597  19.117  21.470   9.101
 1323POPC   GL219598  19.353  21.236   9.096
 1323POPC   C1A19599  18.913  21.289   8.744
 1323POPC   D2A19600  18.789  21.107   8.347
 1323POPC   C3A19601  18.855  21.327   7.921
 1323POPC   C4A19602  19.170  21.574   7.632
 1323POPC   C1B19603  19.502  21.187   8.725
 1323POPC   C2B19604  19.300  21.372   8.420
 1323POPC   C3B19605  19.359  21.382   8.041
 1323POPC   C4B19606  19.557  21.207   7.668
 1324POPC   NC319607   5.916  35.581   9.577
 1324POPC   PO419608   5.365  35.198   9.532
 1324POPC   GL119609   5.747  35.237   9.185
 1324POPC   GL219610   6.074  35.396   9.140
 1324POPC   C1A19611   5.955  35.106   8.753
 1324POPC   D2A19612   5.733  35.034   8.332
 1324POPC   C3A19613   5.955  35.153   7.977
 1324POPC   C4A19614   5.716  35.434   7.697
 1324POPC   C1B19615   5.893  35.616   8.832
 1324POPC   C2B19616   6.029  35.729   8.459
 1324POPC   C3B19617   5.972  35.676   8.055
 1324POPC   C4B19618   6.257  35.515   7.770
 1325POPC   NC319619   2.817   8.745   9.549
 1325POPC   PO419620   3.034   9.439   9.504
 1325POPC   GL119621   2.794   9.165   9.168
 1325POPC   GL219622   2.682   8.784   9.052
 1325POPC   C1A19623   2.541   9.275   8.824
 1325POPC   D2A19624   2.763   9.383   8.468
 1325POPC   C3A19625   2.668   9.210   8.075
 1325POPC   C4A19626   2.918   9.183   7.717
 1325POPC   C1B19627   2.405   8.795   8.681
 1325POPC   C2B19628   2.443   8.779   8.238
 1325POPC   C3B19629   2.659   8.642   7.874
 1325POPC   C4B19630   2.568   8.621   7.424
 1326POPC   NC319631  30.016   0.291   9.460
 1326POPC   PO419632  29.506   0.657   9.318
 1326POPC   GL119633  29.718   0.397   9.056
 1326POPC   GL219634  30.014   0.595   9.049
 1326POPC   C1A19635  29.771   0.411   8.626
 1326POPC   D2A19636  29.577   0.161   8.346
 1326POPC   C3A19637  29.807   0.255   7.985
 1326POPC   C4A19638  29.869   0.697   7.876
 1326POPC   C1B19639  30.286   0.567   8.713
 1326POPC   C2B19640  30.184   0.459   8.303
 1326POPC   C3B19641  30.329   0.463   7.910
 1326POPC   C4B19642  30.243   0.526   7.477
 1327POPC   NC319643  29.381  41.479   9.522
 1327POPC   PO419644  28.650  41.592   9.653
 1327POPC   GL119645  28.939  41.718   9.274
 1327POPC   GL219646  29.073  41.413   9.109
 1327POPC   C1A19647  29.073  41.835   8.812
 1327POPC   D2A19648  28.939  41.641   8.405
 1327POPC   C3A19649  28.937  41.770   7.970
 1327POPC   C4A19650  28.692  41.557   7.638
 1327POPC   C1B19651  29.256  41.346   8.692
 1327POPC   C2B19652  29.353  41.266   8.246
 1327POPC   C3B19653  29.321  41.452   7.828
 1327POPC   C4B19654  29.566  41.790   7.702
 1328POPC   NC319655  41.678  37.014   9.601
 1328POPC   PO419656  41.110  36.734   9.574
 1328POPC   GL119657  41.348  36.914   9.179
 1328POPC   GL219658  41.639  37.165   9.127
 1328POPC   C1A19659  41.577  36.835   8.755
 1328POPC   D2A19660  41.673  36.989   8.331
 1328POPC   C3A19661  41.363  36.750   8.071
 1328POPC   C4A19662  41.482  36.570   7.679
 1328POPC   C1B19663  41.598  37.350   8.724
 1328POPC   C2B19664  41.530  37.574   8.334
 1328POPC   C3B19665  41.755  37.403   7.999
 1328POPC   C4B19666  41.688  37.015   7.803
 1329POPC   NC319667  25.194  24.885   9.470
 1329POPC   PO419668  25.374  25.505   9.451
 1329POPC   GL119669  25.148  25.279   9.106
 1329POPC   GL219670  24.851  25.035   9.105
 1329POPC   C1A19671  24.941  25.462   8.743
 1329POPC   D2A19672  24.970  25.727   8.380
 1329POPC   C3A19673  24.942  25.475   8.005
 1329POPC   C4A19674  25.121  25.410   7.596
 1329POPC   C1B19675  25.027  24.959   8.693
 1329POPC   C2B19676  25.201  25.180   8.347
 1329POPC   C3B19677  25.255  25.045   7.924
 1329POPC   C4B19678  25.224  24.945   7.474
 1330POPC   NC319679  22.524  15.552   9.463
 1330POPC   PO419680  22.141  15.097   9.714
 1330POPC   GL119681  22.104  15.224   9.280
 1330POPC   GL219682  22.358  15.054   9.159
 1330POPC   C1A19683  22.120  15.338   8.808
 1330POPC   D2A19684  22.154  15.625   8.444
 1330POPC   C3A19685  22.193  15.433   8.027
 1330POPC   C4A19686  22.388  15.348   7.626
 1330POPC   C1B19687  22.260  14.848   8.735
 1330POPC   C2B19688  22.432  14.682   8.359
 1330POPC   C3B19689  22.495  14.579   7.934
 1330POPC   C4B19690  22.287  14.845   7.654
 1331POPC   NC319691   7.953  16.100   9.447
 1331POPC   PO419692   8.510  15.679   9.597
 1331POPC   GL119693   8.250  15.760   9.209
 1331POPC   GL219694   8.345  16.082   9.105
 1331POPC   C1A19695   8.006  15.834   8.785
 1331POPC   D2A19696   7.848  15.801   8.321
 1331POPC   C3A19697   8.077  16.040   7.975
 1331POPC   C4A19698   8.230  15.829   7.576
 1331POPC   C1B19699   8.502  15.831   8.786
 1331POPC   C2B19700   8.351  15.857   8.375
 1331POPC   C3B19701   8.549  15.811   7.978
 1331POPC   C4B19702   8.738  15.931   7.596
 1332POPC   NC319703   8.021  43.984   9.513
 1332POPC   PO419704   7.782  43.439   9.294
 1332POPC   GL119705   7.952  43.779   9.054
 1332POPC   GL219706   7.865  44.164   9.074
 1332POPC   C1A19707   8.296  43.727   8.819
 1332POPC   D2A19708   8.356  43.521   8.448
 1332POPC   C3A19709   8.432  43.650   8.062
 1332POPC   C4A19710   8.187  43.680   7.719
 1332POPC   C1B19711   8.175  44.220   8.780
 1332POPC   C2B19712   8.375  44.048   8.409
 1332POPC   C3B19713   8.213  44.120   8.013
 1332POPC   C4B19714   7.822  44.045   7.777
 1333POPC   NC319715  26.267  16.586   9.489
 1333POPC   PO419716  25.636  16.778   9.560
 1333POPC   GL119717  25.881  16.724   9.177
 1333POPC   GL219718  26.174  16.984   9.167
 1333POPC   C1A19719  26.031  16.650   8.748
 1333POPC   D2A19720  26.044  16.891   8.340
 1333POPC   C3A19721  26.019  16.691   7.937
 1333POPC   C4A19722  26.234  16.320   7.809
 1333POPC   C1B19723  26.307  17.105   8.752
 1333POPC   C2B19724  26.561  17.001   8.389
 1333POPC   C3B19725  26.442  16.992   7.989
 1333POPC   C4B19726  26.127  17.242   7.874
 1334POPC   NC319727  39.840   4.816   9.614
 1334POPC   PO419728  40.068   5.449   9.516
 1334POPC   GL119729  39.927   5.182   9.199
 1334POPC   GL219730  40.055   4.836   9.149
 1334POPC   C1A19731  39.850   5.156   8.759
 1334POPC   D2A19732  40.198   5.186   8.464
 1334POPC   C3A19733  40.102   5.379   8.079
 1334POPC   C4A19734  39.737   5.400   7.795
 1334POPC   C1B19735  40.099   4.721   8.703
 1334POPC   C2B19736  39.843   4.827   8.320
 1334POPC   C3B19737  39.917   4.926   7.882
 1334POPC   C4B19738  40.047   4.705   7.538
 1335POPC   NC319739  21.096   0.811   9.926
 1335POPC   PO419740  21.390   1.275   9.528
 1335POPC   GL119741  21.482   1.268   9.104
 1335POPC   GL219742  21.406   0.927   9.107
 1335POPC   C1A19743  21.490   1.234   8.684
 1335POPC   D2A19744  21.713   1.206   8.394
 1335POPC   C3A19745  21.634   1.379   8.069
 1335POPC   C4A19746  21.476   1.301   7.700
 1335POPC   C1B19747  21.111   0.929   8.775
 1335POPC   C2B19748  21.347   0.782   8.426
 1335POPC   C3B19749  21.503   0.886   8.031
 1335POPC   C4B19750  21.369   0.807   7.628
 1336POPC   NC319751   3.699  25.998   9.467
 1336POPC   PO419752   3.040  26.248   9.629
 1336POPC   GL119753   3.298  26.229   9.279
 1336POPC   GL219754   3.258  25.831   9.239
 1336POPC   C1A19755   3.543  26.360   8.878
 1336POPC   D2A19756   3.548  26.219   8.450
 1336POPC   C3A19757   3.710  26.413   8.061
 1336POPC   C4A19758   3.594  26.271   7.644
 1336POPC   C1B19759   3.496  25.822   8.837
 1336POPC   C2B19760   3.776  25.751   8.470
 1336POPC   C3B19761   3.625  25.873   8.076
 1336POPC   C4B19762   3.566  25.746   7.702
 1337POPC   NC319763  19.447  44.048   9.495
 1337POPC   PO419764  20.006  43.844   9.462
 1337POPC   GL119765  19.824  44.017   9.118
 1337POPC   GL219766  19.927  44.349   9.089
 1337POPC   C1A19767  19.729  44.101   8.701
 1337POPC   D2A19768  19.771  43.962   8.294
 1337POPC   C3A19769  19.651  44.213   7.906
 1337POPC   C4A19770  19.525  44.115   7.475
 1337POPC   C1B19771  20.231  44.221   8.786
 1337POPC   C2B19772  20.269  44.208   8.356
 1337POPC   C3B19773  20.139  44.052   7.961
 1337POPC   C4B19774  20.024  44.015   7.542
 1338POPC   NC319775  26.090  44.584   9.554
 1338POPC   PO419776  25.705   0.069   9.407
 1338POPC   GL119777  26.052  44.809   9.093
 1338POPC   GL219778  26.263  44.471   9.103
 1338POPC   C1A19779  26.173  44.665   8.629
 1338POPC   D2A19780  25.974  44.967   8.324
 1338POPC   C3A19781  26.061  44.908   7.919
 1338POPC   C4A19782  26.359  44.674   7.751
 1338POPC   C1B19783  25.880  44.338   8.885
 1338POPC   C2B19784  25.753  44.408   8.446
 1338POPC   C3B19785  26.038  44.459   8.138
 1338POPC   C4B19786  25.971  44.349   7.717
 1339POPC   NC319787  39.351  38.615   9.570
 1339POPC   PO419788  39.292  37.979   9.516
 1339POPC   GL119789  39.133  38.305   9.196
 1339POPC   GL219790  39.181  38.682   9.109
 1339POPC   C1A19791  39.249  38.326   8.770
 1339POPC   D2A19792  39.082  38.161   8.402
 1339POPC   C3A19793  39.309  38.343   8.095
 1339POPC   C4A19794  39.473  38.306   7.713
 1339POPC   C1B19795  39.464  38.786   8.739
 1339POPC   C2B19796  39.634  38.675   8.352
 1339POPC   C3B19797  39.544  38.768   7.927
 1339POPC   C4B19798  39.471  38.764   7.447
 1340POPC   NC319799   6.946   7.703   9.374
 1340POPC   PO419800   6.400   7.245   9.448
 1340POPC   GL119801   6.585   7.417   9.089
 1340POPC   GL219802   6.924   7.282   9.060
 1340POPC   C1A19803   6.503   7.708   8.732
 1340POPC   D2A19804   6.408   7.813   8.275
 1340POPC   C3A19805   6.544   7.514   7.919
 1340POPC   C4A19806   6.676   7.404   7.482
 1340POPC   C1B19807   6.778   7.121   8.662
 1340POPC   C2B19808   6.719   7.097   8.209
 1340POPC   C3B19809   6.948   7.183   7.844
 1340POPC   C4B19810   7.008   7.031   7.426
 1341POPC   NC319811  37.331  32.439   9.457
 1341POPC   PO419812  38.036  32.152   9.524
 1341POPC   GL119813  37.907  32.182   9.163
 1341POPC   GL219814  38.032  31.811   9.141
 1341POPC   C1A19815  37.575  32.240   8.880
 1341POPC   D2A19816  37.599  32.186   8.451
 1341POPC   C3A19817  37.410  32.227   8.052
 1341POPC   C4A19818  37.754  32.368   7.819
 1341POPC   C1B19819  37.879  31.852   8.779
 1341POPC   C2B19820  37.800  31.701   8.417
 1341POPC   C3B19821  37.819  31.910   8.071
 1341POPC   C4B19822  38.037  31.900   7.723
 1342POPC   NC319823  43.221  14.897   9.497
 1342POPC   PO419824  42.732  15.469   9.493
 1342POPC   GL119825  42.967  15.297   9.150
 1342POPC   GL219826  42.915  14.987   9.107
 1342POPC   C1A19827  43.091  15.290   8.686
 1342POPC   D2A19828  43.165  15.465   8.243
 1342POPC   C3A19829  43.289  15.241   7.834
 1342POPC   C4A19830  43.390  15.207   7.359
 1342POPC   C1B19831  42.920  14.801   8.710
 1342POPC   C2B19832  42.773  14.988   8.329
 1342POPC   C3B19833  42.918  14.882   7.938
 1342POPC   C4B19834  42.927  15.061   7.522
 1343POPC   NC319835   0.899  20.274   9.350
 1343POPC   PO419836   1.177  20.892   9.650
 1343POPC   GL119837   1.129  20.734   9.247
 1343POPC   GL219838   1.457  20.857   9.161
 1343POPC   C1A19839   1.068  20.707   8.791
 1343POPC   D2A19840   0.909  20.678   8.352
 1343POPC   C3A19841   1.076  20.503   7.951
 1343POPC   C4A19842   1.017  20.717   7.536
 1343POPC   C1B19843   1.578  20.863   8.746
 1343POPC   C2B19844   1.336  20.941   8.404
 1343POPC   C3B19845   1.330  20.941   7.984
 1343POPC   C4B19846   1.706  21.038   7.788
 1344POPC   NC319847  27.125   1.166   9.757
 1344POPC   PO419848  26.662   1.315   9.420
 1344POPC   GL119849  26.813   1.255   9.000
 1344POPC   GL219850  27.122   1.259   9.097
 1344POPC   C1A19851  26.744   1.030   8.617
 1344POPC   D2A19852  26.434   0.936   8.281
 1344POPC   C3A19853  26.591   1.145   7.880
 1344POPC   C4A19854  27.033   1.030   7.750
 1344POPC   C1B19855  27.208   1.494   8.743
 1344POPC   C2B19856  27.097   1.356   8.341
 1344POPC   C3B19857  26.946   1.525   7.969
 1344POPC   C4B19858  27.002   1.487   7.540
 1345POPC   NC319859  25.092   9.382   9.367
 1345POPC   PO419860  25.503   9.802   9.746
 1345POPC   GL119861  25.376   9.801   9.266
 1345POPC   GL219862  24.994   9.861   9.240
 1345POPC   C1A19863  25.452   9.621   8.795
 1345POPC   D2A19864  25.316   9.476   8.337
 1345POPC   C3A19865  25.450   9.625   7.897
 1345POPC   C4A19866  25.334   9.637   7.374
 1345POPC   C1B19867  25.147  10.070   8.866
 1345POPC   C2B19868  24.977  10.153   8.450
 1345POPC   C3B19869  24.996   9.868   8.106
 1345POPC   C4B19870  25.125   9.961   7.696
 1346POPC   NC319871  32.194  18.347   9.896
 1346POPC   PO419872  32.333  18.035   9.354
 1346POPC   GL119873  32.033  18.030   9.049
 1346POPC   GL219874  32.116  18.360   8.966
 1346POPC   C1A19875  32.075  18.028   8.593
 1346POPC   D2A19876  32.200  18.389   8.374
 1346POPC   C3A19877  32.317  18.275   7.970
 1346POPC   C4A19878  32.170  18.157   7.581
 1346POPC   C1B19879  32.311  18.707   8.800
 1346POPC   C2B19880  32.452  18.826   8.454
 1346POPC   C3B19881  32.544  18.722   8.070
 1346POPC   C4B19882  32.609  18.577   7.665
 1347POPC   NC319883   7.052  38.671   9.469
 1347POPC   PO419884   6.559  38.217   9.524
 1347POPC   GL119885   6.811  38.300   9.188
 1347POPC   GL219886   6.641  38.637   9.156
 1347POPC   C1A19887   6.762  38.167   8.770
 1347POPC   D2A19888   6.549  38.267   8.405
 1347POPC   C3A19889   6.710  38.321   8.014
 1347POPC   C4A19890   6.474  38.328   7.713
 1347POPC   C1B19891   6.913  38.674   8.823
 1347POPC   C2B19892   6.876  38.686   8.403
 1347POPC   C3B19893   6.577  38.791   8.098
 1347POPC   C4B19894   6.554  38.825   7.693
 1348POPC   NC319895  16.120  26.910   9.736
 1348POPC   PO419896  15.658  26.531   9.560
 1348POPC   GL119897  16.005  26.632   9.231
 1348POPC   GL219898  16.042  26.974   9.187
 1348POPC   C1A19899  16.028  26.605   8.769
 1348POPC   D2A19900  15.706  26.708   8.422
 1348POPC   C3A19901  15.823  26.810   7.994
 1348POPC   C4A19902  16.097  26.814   7.636
 1348POPC   C1B19903  15.799  27.081   8.778
 1348POPC   C2B19904  15.898  27.218   8.344
 1348POPC   C3B19905  15.747  27.319   7.912
 1348POPC   C4B19906  15.690  27.131   7.498
 1349POPC   NC319907  31.950  10.673   9.553
 1349POPC   PO419908  32.479  10.304   9.620
 1349POPC   GL119909  32.420  10.568   9.249
 1349POPC   GL219910  32.628  10.863   9.241
 1349POPC   C1A19911  32.246  10.614   8.829
 1349POPC   D2A19912  32.020  10.776   8.470
 1349POPC   C3A19913  32.163  10.534   8.152
 1349POPC   C4A19914  32.181  10.376   7.769
 1349POPC   C1B19915  32.715  10.842   8.815
 1349POPC   C2B19916  32.549  10.812   8.378
 1349POPC   C3B19917  32.565  10.723   7.905
 1349POPC   C4B19918  32.488  10.679   7.451
 1350POPC   NC319919  28.861  11.882   9.552
 1350POPC   PO419920  29.228  12.447   9.537
 1350POPC   GL119921  29.209  12.222   9.166
 1350POPC   GL219922  28.894  12.080   9.087
 1350POPC   C1A19923  29.309  12.047   8.773
 1350POPC   D2A19924  29.507  12.155   8.435
 1350POPC   C3A19925  29.225  12.209   8.097
 1350POPC   C4A19926  29.261  12.218   7.683
 1350POPC   C1B19927  28.875  11.775   8.767
 1350POPC   C2B19928  28.883  11.985   8.408
 1350POPC   C3B19929  28.717  12.232   8.102
 1350POPC   C4B19930  28.761  12.031   7.717
 1351POPC   NC319931  14.723  25.145   9.598
 1351POPC   PO419932  14.294  25.612   9.646
 1351POPC   GL119933  14.605  25.542   9.284
 1351POPC   GL219934  14.516  25.204   9.151
 1351POPC   C1A19935  14.701  25.502   8.797
 1351POPC   D2A19936  14.826  25.297   8.403
 1351POPC   C3A19937  14.636  25.395   7.964
 1351POPC   C4A19938  14.671  25.473   7.476
 1351POPC   C1B19939  14.472  25.020   8.756
 1351POPC   C2B19940  14.315  25.273   8.424
 1351POPC   C3B19941  14.123  25.288   8.040
 1351POPC   C4B19942  14.201  25.508   7.707
 1352POPC   NC319943  20.294  42.420   9.820
 1352POPC   PO419944  19.722  42.606   9.515
 1352POPC   GL119945  19.939  42.415   9.198
 1352POPC   GL219946  19.772  42.653   8.992
 1352POPC   C1A19947  20.035  42.255   8.779
 1352POPC   D2A19948  19.706  42.246   8.460
 1352POPC   C3A19949  19.668  42.100   8.032
 1352POPC   C4A19950  19.962  42.161   7.680
 1352POPC   C1B19951  20.110  42.755   8.758
 1352POPC   C2B19952  20.140  42.666   8.346
 1352POPC   C3B19953  19.870  42.573   8.011
 1352POPC   C4B19954  19.562  42.503   7.710
 1353POPC   NC319955  20.207  23.060   9.740
 1353POPC   PO419956  20.763  22.830   9.498
 1353POPC   GL119957  20.450  22.879   9.188
 1353POPC   GL219958  20.371  23.195   9.255
 1353POPC   C1A19959  20.581  22.979   8.771
 1353POPC   D2A19960  20.686  23.272   8.442
 1353POPC   C3A19961  20.698  23.008   8.098
 1353POPC   C4A19962  20.907  22.908   7.742
 1353POPC   C1B19963  20.203  23.295   8.855
 1353POPC   C2B19964  20.186  23.127   8.439
 1353POPC   C3B19965  20.236  23.156   8.024
 1353POPC   C4B19966  20.374  22.938   7.673
 1354POPC   NC319967  15.406  14.954   9.837
 1354POPC   PO419968  15.037  15.542   9.638
 1354POPC   GL119969  15.004  15.149   9.384
 1354POPC   GL219970  15.360  15.094   9.313
 1354POPC   C1A19971  14.947  15.132   8.930
 1354POPC   D2A19972  15.059  15.333   8.512
 1354POPC   C3A19973  15.188  15.133   8.115
 1354POPC   C4A19974  15.141  15.134   7.683
 1354POPC   C1B19975  15.382  14.891   8.886
 1354POPC   C2B19976  15.330  14.762   8.437
 1354POPC   C3B19977  15.570  14.744   8.006
 1354POPC   C4B19978  15.522  14.862   7.530
 1355POPC   NC319979  17.856   3.118   9.307
 1355POPC   PO419980  17.255   2.920   9.634
 1355POPC   GL119981  17.365   2.943   9.198
 1355POPC   GL219982  17.260   2.659   8.997
 1355POPC   C1A19983  17.354   3.102   8.756
 1355POPC   D2A19984  17.164   2.911   8.395
 1355POPC   C3A19985  17.340   2.858   8.011
 1355POPC   C4A19986  17.284   2.473   7.830
 1355POPC   C1B19987  17.651   2.683   8.800
 1355POPC   C2B19988  17.680   2.845   8.394
 1355POPC   C3B19989  17.772   2.582   8.027
 1355POPC   C4B19990  17.899   2.639   7.602
 1356POPC   NC319991  20.250  13.348   9.493
 1356POPC   PO419992  20.718  13.855   9.709
 1356POPC   GL119993  20.593  13.905   9.272
 1356POPC   GL219994  20.477  13.589   9.109
 1356POPC   C1A19995  20.603  14.007   8.831
 1356POPC   D2A19996  20.462  13.811   8.464
 1356POPC   C3A19997  20.678  13.845   8.084
 1356POPC   C4A19998  20.659  13.836   7.648
 1356POPC   C1B19999  20.389  13.310   8.741
 1356POPC   C2B20000  20.365  13.175   8.297
 1356POPC   C3B20001  20.523  13.335   7.844
 1356POPC   C4B20002  20.440  13.429   7.376
 1357POPC   NC320003  23.092  41.027   9.454
 1357POPC   PO420004  22.538  40.595   9.503
 1357POPC   GL120005  22.684  40.860   9.196
 1357POPC   GL220006  22.967  40.586   9.203
 1357POPC   C1A20007  22.942  40.906   8.810
 1357POPC   D2A20008  23.244  40.994   8.474
 1357POPC   C3A20009  23.023  41.235   8.173
 1357POPC   C4A20010  22.749  41.077   7.863
 1357POPC   C1B20011  23.172  40.434   8.828
 1357POPC   C2B20012  23.018  40.513   8.425
 1357POPC   C3B20013  23.059  40.720   8.038
 1357POPC   C4B20014  23.295  41.004   7.791
 1358POPC   NC320015  42.313   1.672   9.844
 1358POPC   PO420016  42.210   2.226   9.464
 1358POPC   GL120017  42.353   2.083   9.107
 1358POPC   GL220018  42.394   1.775   9.054
 1358POPC   C1A20019  42.510   2.167   8.720
 1358POPC   D2A20020  42.419   2.438   8.419
 1358POPC   C3A20021  42.525   2.208   8.065
 1358POPC   C4A20022  42.309   2.203   7.695
 1358POPC   C1B20023  42.314   1.633   8.686
 1358POPC   C2B20024  42.116   1.517   8.302
 1358POPC   C3B20025  42.340   1.631   7.974
 1358POPC   C4B20026  42.613   1.814   7.742
 1359POPC   NC320027  27.234  26.539   9.458
 1359POPC   PO420028  27.638  26.992   9.667
 1359POPC   GL120029  27.669  26.812   9.210
 1359POPC   GL220030  27.454  26.523   9.005
 1359POPC   C1A20031  27.777  26.835   8.765
 1359POPC   D2A20032  27.556  26.599   8.437
 1359POPC   C3A20033  27.666  26.843   8.026
 1359POPC   C4A20034  27.552  27.246   7.932
 1359POPC   C1B20035  27.273  26.912   8.798
 1359POPC   C2B20036  27.290  27.017   8.342
 1359POPC   C3B20037  27.202  26.666   8.020
 1359POPC   C4B20038  27.146  26.306   7.741
 1360POPC   NC320039  28.255  35.466   9.791
 1360POPC   PO420040  28.658  34.974   9.503
 1360POPC   GL120041  28.575  35.225   9.110
 1360POPC   GL220042  28.286  35.390   9.262
 1360POPC   C1A20043  28.509  35.271   8.629
 1360POPC   D2A20044  28.469  35.347   8.177
 1360POPC   C3A20045  28.677  35.116   7.878
 1360POPC   C4A20046  28.566  35.122   7.452
 1360POPC   C1B20047  28.210  35.625   8.883
 1360POPC   C2B20048  28.135  35.632   8.459
 1360POPC   C3B20049  28.213  35.811   8.069
 1360POPC   C4B20050  28.417  35.602   7.739
 1361POPC   NC320051  43.536   7.259   9.577
 1361POPC   PO420052  42.884   7.270   9.539
 1361POPC   GL120053  43.068   7.399   9.161
 1361POPC   GL220054  43.266   7.166   9.165
 1361POPC   C1A20055  43.012   7.647   8.785
 1361POPC   D2A20056  43.236   7.641   8.370
 1361POPC   C3A20057  43.012   7.532   7.996
 1361POPC   C4A20058  42.856   7.338   7.607
 1361POPC   C1B20059  43.407   7.322   8.766
 1361POPC   C2B20060  43.469   7.149   8.393
 1361POPC   C3B20061  43.618   7.202   8.006
 1361POPC   C4B20062  43.351   7.279   7.702
 1362POPC   NC320063  18.946  23.586   9.556
 1362POPC   PO420064  18.747  24.202   9.541
 1362POPC   GL120065  19.001  23.958   9.166
 1362POPC   GL220066  19.196  23.605   9.128
 1362POPC   C1A20067  19.115  23.874   8.709
 1362POPC   D2A20068  19.103  23.984   8.266
 1362POPC   C3A20069  19.110  23.788   7.853
 1362POPC   C4A20070  19.093  23.424   7.575
 1362POPC   C1B20071  19.212  23.372   8.787
 1362POPC   C2B20072  19.239  23.502   8.387
 1362POPC   C3B20073  19.318  23.355   8.026
 1362POPC   C4B20074  19.584  23.489   7.688
 1363POPC   NC320075  22.056  43.046   9.669
 1363POPC   PO420076  22.646  43.193   9.404
 1363POPC   GL120077  22.264  43.131   9.201
 1363POPC   GL220078  21.915  43.291   9.238
 1363POPC   C1A20079  22.271  43.186   8.771
 1363POPC   D2A20080  22.358  43.265   8.345
 1363POPC   C3A20081  22.083  43.012   8.125
 1363POPC   C4A20082  22.194  42.782   7.760
 1363POPC   C1B20083  21.905  43.524   8.861
 1363POPC   C2B20084  22.052  43.652   8.455
 1363POPC   C3B20085  22.046  43.562   8.024
 1363POPC   C4B20086  22.185  43.287   7.717
 1364POPC   NC320087   9.815  24.902   9.988
 1364POPC   PO420088   9.572  24.462   9.574
 1364POPC   GL120089   9.641  24.429   9.184
 1364POPC   GL220090   9.414  24.139   9.103
 1364POPC   C1A20091   9.604  24.645   8.768
 1364POPC   D2A20092   9.469  24.785   8.343
 1364POPC   C3A20093   9.733  24.625   7.999
 1364POPC   C4A20094   9.579  24.683   7.592
 1364POPC   C1B20095   9.775  24.153   8.808
 1364POPC   C2B20096   9.848  24.303   8.420
 1364POPC   C3B20097   9.658  24.115   8.098
 1364POPC   C4B20098   9.475  24.183   7.715
 1365POPC   NC320099  29.069  35.082   9.332
 1365POPC   PO420100  29.411  35.627   9.423
 1365POPC   GL120101  29.427  35.430   9.038
 1365POPC   GL220102  29.052  35.486   9.049
 1365POPC   C1A20103  29.245  35.227   8.664
 1365POPC   D2A20104  28.952  35.303   8.347
 1365POPC   C3A20105  29.161  35.255   7.956
 1365POPC   C4A20106  29.400  35.355   7.536
 1365POPC   C1B20107  28.721  35.684   8.847
 1365POPC   C2B20108  28.631  35.764   8.418
 1365POPC   C3B20109  28.859  35.689   8.015
 1365POPC   C4B20110  28.912  35.484   7.578
 1366POPC   NC320111  32.644  44.153   9.540
 1366POPC   PO420112  32.109  43.827   9.705
 1366POPC   GL120113  32.111  44.043   9.296
 1366POPC   GL220114  32.398  43.890   9.144
 1366POPC   C1A20115  31.982  44.126   8.840
 1366POPC   D2A20116  32.224  44.011   8.448
 1366POPC   C3A20117  32.188  44.171   8.005
 1366POPC   C4A20118  32.257  43.938   7.644
 1366POPC   C1B20119  32.144  43.644   8.862
 1366POPC   C2B20120  31.999  43.539   8.440
 1366POPC   C3B20121  32.108  43.658   8.039
 1366POPC   C4B20122  31.975  43.542   7.623
 1367POPC   NC320123   3.279  15.866   9.405
 1367POPC   PO420124   3.887  16.059   9.593
 1367POPC   GL120125   3.739  15.890   9.184
 1367POPC   GL220126   3.630  15.519   9.222
 1367POPC   C1A20127   3.477  15.932   8.795
 1367POPC   D2A20128   3.163  16.069   8.504
 1367POPC   C3A20129   3.314  15.815   8.182
 1367POPC   C4A20130   3.504  15.959   7.821
 1367POPC   C1B20131   3.834  15.546   8.812
 1367POPC   C2B20132   3.705  15.552   8.389
 1367POPC   C3B20133   3.884  15.673   8.000
 1367POPC   C4B20134   3.995  16.102   7.858
 1368POPC   NC320135  38.635  18.006   9.491
 1368POPC   PO420136  38.211  18.565   9.551
 1368POPC   GL120137  38.442  18.406   9.231
 1368POPC   GL220138  38.292  18.116   9.089
 1368POPC   C1A20139  38.620  18.500   8.841
 1368POPC   D2A20140  38.435  18.696   8.487
 1368POPC   C3A20141  38.498  18.467   8.132
 1368POPC   C4A20142  38.412  18.675   7.770
 1368POPC   C1B20143  38.650  17.973   8.820
 1368POPC   C2B20144  38.787  18.084   8.403
 1368POPC   C3B20145  38.647  17.967   7.981
 1368POPC   C4B20146  38.838  18.103   7.600
 1369POPC   NC320147   5.821  26.521   9.429
 1369POPC   PO420148   6.258  26.989   9.738
 1369POPC   GL120149   5.997  27.065   9.268
 1369POPC   GL220150   5.681  26.857   9.082
 1369POPC   C1A20151   5.912  27.192   8.800
 1369POPC   D2A20152   5.738  26.963   8.482
 1369POPC   C3A20153   6.000  26.824   8.200
 1369POPC   C4A20154   5.964  26.837   7.795
 1369POPC   C1B20155   5.853  26.534   8.756
 1369POPC   C2B20156   5.865  26.346   8.315
 1369POPC   C3B20157   5.601  26.507   7.958
 1369POPC   C4B20158   5.577  26.621   7.520
 1370POPC   NC320159  41.090  21.414   9.512
 1370POPC   PO420160  40.597  20.996   9.610
 1370POPC   GL120161  40.774  21.120   9.219
 1370POPC   GL220162  40.722  21.504   9.153
 1370POPC   C1A20163  40.709  21.111   8.792
 1370POPC   D2A20164  40.462  21.333   8.498
 1370POPC   C3A20165  40.557  21.235   8.051
 1370POPC   C4A20166  40.587  21.536   7.715
 1370POPC   C1B20167  40.997  21.542   8.773
 1370POPC   C2B20168  40.977  21.348   8.372
 1370POPC   C3B20169  41.022  21.552   7.985
 1370POPC   C4B20170  41.090  21.439   7.592
 1371POPC   NC320171   7.040  10.385   9.774
 1371POPC   PO420172   6.465  10.464   9.322
 1371POPC   GL120173   6.605  10.594   8.992
 1371POPC   GL220174   6.317  10.791   8.955
 1371POPC   C1A20175   6.711  10.438   8.611
 1371POPC   D2A20176   6.821  10.094   8.372
 1371POPC   C3A20177   6.995  10.286   8.030
 1371POPC   C4A20178   6.855  10.607   7.723
 1371POPC   C1B20179   6.192  10.377   8.755
 1371POPC   C2B20180   6.304  10.173   8.412
 1371POPC   C3B20181   6.484  10.403   8.073
 1371POPC   C4B20182   6.339  10.511   7.678
 1372POPC   NC320183  36.637  36.263   9.364
 1372POPC   PO420184  37.039  35.760   9.627
 1372POPC   GL120185  37.025  35.908   9.188
 1372POPC   GL220186  36.683  35.883   9.024
 1372POPC   C1A20187  37.074  36.174   8.802
 1372POPC   D2A20188  37.016  36.035   8.371
 1372POPC   C3A20189  37.132  36.320   8.055
 1372POPC   C4A20190  37.446  36.257   7.802
 1372POPC   C1B20191  36.590  36.185   8.641
 1372POPC   C2B20192  36.606  36.249   8.152
 1372POPC   C3B20193  36.817  36.004   7.809
 1372POPC   C4B20194  36.692  35.867   7.360
 1373POPC   NC320195   8.543  38.348   9.407
 1373POPC   PO420196   8.279  38.996   9.590
 1373POPC   GL120197   8.140  38.630   9.252
 1373POPC   GL220198   7.853  38.414   9.199
 1373POPC   C1A20199   8.203  38.450   8.831
 1373POPC   D2A20200   8.018  38.493   8.431
 1373POPC   C3A20201   8.167  38.276   8.072
 1373POPC   C4A20202   8.191  38.538   7.721
 1373POPC   C1B20203   7.742  38.221   8.760
 1373POPC   C2B20204   7.602  38.216   8.293
 1373POPC   C3B20205   7.708  38.375   7.862
 1373POPC   C4B20206   7.967  38.112   7.571
 1374POPC   NC320207  27.696  15.640   9.665
 1374POPC   PO420208  27.340  16.202   9.503
 1374POPC   GL120209  27.352  15.882   9.200
 1374POPC   GL220210  27.688  15.829   9.197
 1374POPC   C1A20211  27.426  15.746   8.753
 1374POPC   D2A20212  27.220  15.881   8.357
 1374POPC   C3A20213  27.381  15.996   7.933
 1374POPC   C4A20214  27.690  16.229   7.748
 1374POPC   C1B20215  27.915  15.896   8.842
 1374POPC   C2B20216  28.009  15.747   8.467
 1374POPC   C3B20217  27.850  15.807   8.087
 1374POPC   C4B20218  28.073  15.799   7.746
 1375POPC   NC320219   2.465  25.093   9.458
 1375POPC   PO420220   3.070  25.383   9.601
 1375POPC   GL120221   2.837  25.484   9.215
 1375POPC   GL220222   2.845  25.156   9.094
 1375POPC   C1A20223   2.456  25.434   8.910
 1375POPC   D2A20224   2.394  25.331   8.473
 1375POPC   C3A20225   2.671  25.458   8.129
 1375POPC   C4A20226   2.633  25.336   7.688
 1375POPC   C1B20227   2.971  25.349   8.717
 1375POPC   C2B20228   2.946  25.077   8.377
 1375POPC   C3B20229   2.738  24.935   8.021
 1375POPC   C4B20230   3.031  25.039   7.734
 1376POPC   NC320231  24.304   9.210   9.534
 1376POPC   PO420232  24.987   8.959   9.592
 1376POPC   GL120233  24.721   8.982   9.219
 1376POPC   GL220234  24.360   8.947   9.102
 1376POPC   C1A20235  24.724   8.794   8.795
 1376POPC   D2A20236  24.365   8.892   8.509
 1376POPC   C3A20237  24.504   8.969   8.102
 1376POPC   C4A20238  24.583   8.757   7.727
 1376POPC   C1B20239  24.067   9.231   8.868
 1376POPC   C2B20240  23.904   9.275   8.455
 1376POPC   C3B20241  24.086   9.296   8.049
 1376POPC   C4B20242  24.125   8.991   7.748
 1377POPC   NC320243   9.146  30.352   9.493
 1377POPC   PO420244   8.677  30.798   9.607
 1377POPC   GL120245   8.801  30.620   9.201
 1377POPC   GL220246   8.903  30.914   9.030
 1377POPC   C1A20247   8.907  30.472   8.775
 1377POPC   D2A20248   8.840  30.721   8.436
 1377POPC   C3A20249   8.962  30.507   8.083
 1377POPC   C4A20250   8.912  30.503   7.674
 1377POPC   C1B20251   9.251  30.897   8.699
 1377POPC   C2B20252   9.298  30.904   8.253
 1377POPC   C3B20253   9.059  30.971   7.864
 1377POPC   C4B20254   9.141  30.933   7.427
 1378POPC   NC320255  17.974  14.049   9.353
 1378POPC   PO420256  18.389  13.689   9.615
 1378POPC   GL120257  18.300  13.535   9.172
 1378POPC   GL220258  18.214  13.800   8.969
 1378POPC   C1A20259  18.266  13.376   8.715
 1378POPC   D2A20260  18.111  13.622   8.344
 1378POPC   C3A20261  18.318  13.472   7.974
 1378POPC   C4A20262  18.520  13.394   7.578
 1378POPC   C1B20263  18.023  14.073   8.684
 1378POPC   C2B20264  17.889  14.146   8.280
 1378POPC   C3B20265  18.128  14.098   7.927
 1378POPC   C4B20266  18.199  13.799   7.568
 1379POPC   NC320267   1.415   8.010   9.516
 1379POPC   PO420268   0.801   8.211   9.801
 1379POPC   GL120269   1.082   8.349   9.337
 1379POPC   GL220270   1.475   8.332   9.145
 1379POPC   C1A20271   1.083   8.318   8.862
 1379POPC   D2A20272   1.224   8.280   8.451
 1379POPC   C3A20273   1.026   8.455   8.111
 1379POPC   C4A20274   1.271   8.614   7.795
 1379POPC   C1B20275   1.487   7.983   8.820
 1379POPC   C2B20276   1.409   7.815   8.390
 1379POPC   C3B20277   1.378   8.057   7.985
 1379POPC   C4B20278   1.322   8.154   7.531
 1380POPC   NC320279  44.825  29.458   9.781
 1380POPC   PO420280  44.347  28.977   9.506
 1380POPC   GL120281  44.409  28.978   9.101
 1380POPC   GL220282  44.328  29.308   9.077
 1380POPC   C1A20283  44.637  28.795   8.737
 1380POPC   D2A20284  44.946  28.957   8.431
 1380POPC   C3A20285  44.790  29.042   8.033
 1380POPC   C4A20286  44.418  28.843   7.841
 1380POPC   C1B20287  44.524  29.267   8.668
 1380POPC   C2B20288  44.334  29.200   8.269
 1380POPC   C3B20289  44.460  29.396   7.874
 1380POPC   C4B20290  44.918  29.489   7.762
 1381POPC   NC320291  13.498  21.907   9.675
 1381POPC   PO420292  13.913  21.326   9.535
 1381POPC   GL120293  13.740  21.426   9.129
 1381POPC   GL220294  13.464  21.265   9.053
 1381POPC   C1A20295  13.873  21.463   8.699
 1381POPC   D2A20296  13.628  21.272   8.373
 1381POPC   C3A20297  13.601  21.456   7.976
 1381POPC   C4A20298  13.779  21.781   7.722
 1381POPC   C1B20299  13.390  21.580   8.754
 1381POPC   C2B20300  13.317  21.723   8.358
 1381POPC   C3B20301  13.074  21.577   8.023
 1381POPC   C4B20302  13.199  21.580   7.617
 1382POPC   NC320303  33.244  24.052   9.607
 1382POPC   PO420304  33.484  24.711   9.601
 1382POPC   GL120305  33.241  24.449   9.229
 1382POPC   GL220306  33.329  24.158   9.107
 1382POPC   C1A20307  32.987  24.388   8.811
 1382POPC   D2A20308  32.872  24.674   8.490
 1382POPC   C3A20309  32.857  24.482   8.158
 1382POPC   C4A20310  32.819  24.420   7.787
 1382POPC   C1B20311  33.508  24.332   8.737
 1382POPC   C2B20312  33.297  24.333   8.376
 1382POPC   C3B20313  33.305  24.311   7.946
 1382POPC   C4B20314  33.222  24.261   7.522
 1383POPC   NC320315   9.137  27.181   9.461
 1383POPC   PO420316   8.881  26.551   9.603
 1383POPC   GL120317   9.071  26.716   9.234
 1383POPC   GL220318   8.764  26.655   9.105
 1383POPC   C1A20319   9.175  26.894   8.815
 1383POPC   D2A20320   9.141  26.737   8.389
 1383POPC   C3A20321   9.038  27.041   8.086
 1383POPC   C4A20322   9.097  27.170   7.685
 1383POPC   C1B20323   8.880  26.444   8.763
 1383POPC   C2B20324   8.630  26.516   8.422
 1383POPC   C3B20325   8.663  26.686   8.063
 1383POPC   C4B20326   8.999  26.456   7.951
 1384POPC   NC320327  29.009  27.161   9.495
 1384POPC   PO420328  29.644  27.084   9.480
 1384POPC   GL120329  29.367  26.849   9.183
 1384POPC   GL220330  29.055  26.663   9.247
 1384POPC   C1A20331  29.271  26.614   8.802
 1384POPC   D2A20332  29.195  26.825   8.452
 1384POPC   C3A20333  28.995  26.667   8.141
 1384POPC   C4A20334  29.123  26.626   7.745
 1384POPC   C1B20335  28.932  26.985   8.885
 1384POPC   C2B20336  28.728  27.030   8.482
 1384POPC   C3B20337  28.885  27.164   8.088
 1384POPC   C4B20338  29.033  27.122   7.677
 1385POPC   NC320339   3.834   7.728   9.374
 1385POPC   PO420340   3.276   7.316   9.437
 1385POPC   GL120341   3.355   7.269   9.053
 1385POPC   GL220342   3.383   7.614   8.991
 1385POPC   C1A20343   3.585   7.233   8.701
 1385POPC   D2A20344   3.540   7.392   8.300
 1385POPC   C3A20345   3.868   7.367   8.031
 1385POPC   C4A20346   3.916   7.215   7.634
 1385POPC   C1B20347   3.699   7.763   8.699
 1385POPC   C2B20348   3.717   7.884   8.287
 1385POPC   C3B20349   3.646   7.799   7.886
 1385POPC   C4B20350   3.722   7.706   7.492
 1386POPC   NC320351  22.573  41.882   9.461
 1386POPC   PO420352  22.720  41.253   9.566
 1386POPC   GL120353  22.882  41.421   9.143
 1386POPC   GL220354  22.675  41.717   8.988
 1386POPC   C1A20355  22.972  41.401   8.679
 1386POPC   D2A20356  22.655  41.557   8.391
 1386POPC   C3A20357  22.745  41.612   7.942
 1386POPC   C4A20358  23.039  41.444   7.667
 1386POPC   C1B20359  22.993  41.902   8.721
 1386POPC   C2B20360  23.153  41.743   8.301
 1386POPC   C3B20361  23.160  41.915   7.861
 1386POPC   C4B20362  23.099  41.871   7.375
 1387POPC   NC320363  25.068  43.979   9.403
 1387POPC   PO420364  25.622  44.445   9.561
 1387POPC   GL120365  25.527  44.117   9.179
 1387POPC   GL220366  25.307  43.794   9.005
 1387POPC   C1A20367  25.410  44.172   8.728
 1387POPC   D2A20368  25.231  43.863   8.417
 1387POPC   C3A20369  25.229  44.034   7.995
 1387POPC   C4A20370  25.467  44.019   7.615
 1387POPC   C1B20371  25.472  43.458   8.766
 1387POPC   C2B20372  25.386  43.356   8.353
 1387POPC   C3B20373  25.511  43.579   8.014
 1387POPC   C4B20374  25.629  43.370   7.692
 1388POPC   NC320375  29.777  27.530   9.535
 1388POPC   PO420376  29.003  27.739   9.535
 1388POPC   GL120377  29.312  27.571   9.304
 1388POPC   GL220378  29.440  27.859   9.179
 1388POPC   C1A20379  29.342  27.373   8.926
 1388POPC   D2A20380  29.127  27.335   8.543
 1388POPC   C3A20381  29.260  27.493   8.151
 1388POPC   C4A20382  29.063  27.614   7.771
 1388POPC   C1B20383  29.460  28.081   8.789
 1388POPC   C2B20384  29.566  28.012   8.336
 1388POPC   C3B20385  29.478  27.921   7.894
 1388POPC   C4B20386  29.455  27.771   7.442
 1389POPC   NC320387   6.376  43.485   9.496
 1389POPC   PO420388   6.503  44.168   9.478
 1389POPC   GL120389   6.581  43.854   9.165
 1389POPC   GL220390   6.247  43.716   9.034
 1389POPC   C1A20391   6.678  43.726   8.743
 1389POPC   D2A20392   6.553  43.604   8.336
 1389POPC   C3A20393   6.905  43.702   8.119
 1389POPC   C4A20394   6.962  43.934   7.798
 1389POPC   C1B20395   6.161  43.981   8.632
 1389POPC   C2B20396   6.131  44.056   8.175
 1389POPC   C3B20397   6.441  43.889   7.914
 1389POPC   C4B20398   6.566  43.525   7.765
 1390POPC   NC320399   3.973   5.888   9.514
 1390POPC   PO420400   4.592   6.084   9.659
 1390POPC   GL120401   4.530   5.890   9.225
 1390POPC   GL220402   4.177   5.779   9.080
 1390POPC   C1A20403   4.508   5.995   8.796
 1390POPC   D2A20404   4.259   6.027   8.456
 1390POPC   C3A20405   4.407   5.882   8.047
 1390POPC   C4A20406   4.235   6.004   7.651
 1390POPC   C1B20407   3.963   5.629   8.727
 1390POPC   C2B20408   4.104   5.523   8.308
 1390POPC   C3B20409   4.029   5.584   7.869
 1390POPC   C4B20410   3.962   5.301   7.584
 1391POPC   NC320411  22.359   4.762   9.544
 1391POPC   PO420412  21.844   5.137   9.580
 1391POPC   GL120413  22.131   5.189   9.236
 1391POPC   GL220414  22.124   4.899   9.081
 1391POPC   C1A20415  22.269   5.321   8.805
 1391POPC   D2A20416  22.034   5.278   8.373
 1391POPC   C3A20417  22.259   5.262   7.966
 1391POPC   C4A20418  22.374   5.480   7.577
 1391POPC   C1B20419  22.170   4.848   8.627
 1391POPC   C2B20420  22.136   4.777   8.223
 1391POPC   C3B20421  21.951   4.619   7.867
 1391POPC   C4B20422  22.334   4.772   7.732
 1392POPC   NC320423  37.684   7.953   9.559
 1392POPC   PO420424  37.452   8.620   9.468
 1392POPC   GL120425  37.593   8.308   9.193
 1392POPC   GL220426  37.968   8.328   9.153
 1392POPC   C1A20427  37.574   8.333   8.766
 1392POPC   D2A20428  37.320   8.402   8.426
 1392POPC   C3A20429  37.305   8.591   8.071
 1392POPC   C4A20430  37.439   8.334   7.743
 1392POPC   C1B20431  38.054   8.112   8.721
 1392POPC   C2B20432  37.881   8.083   8.280
 1392POPC   C3B20433  37.922   8.198   7.824
 1392POPC   C4B20434  38.099   8.076   7.387
 1393POPC   NC320435   0.024  25.205   9.391
 1393POPC   PO420436  44.589  25.507   9.740
 1393POPC   GL120437  44.583  25.423   9.239
 1393POPC   GL220438  44.615  25.039   9.113
 1393POPC   C1A20439  44.442  25.387   8.794
 1393POPC   D2A20440  44.610  25.526   8.424
 1393POPC   C3A20441  44.620  25.253   8.110
 1393POPC   C4A20442  44.454  25.229   7.734
 1393POPC   C1B20443  44.917  25.220   8.770
 1393POPC   C2B20444   0.156  25.402   8.448
 1393POPC   C3B20445   0.024  25.550   8.105
 1393POPC   C4B20446  44.950  25.358   7.706
 1394POPC   NC320447  43.804  35.259   9.715
 1394POPC   PO420448  44.156  35.669   9.474
 1394POPC   GL120449  43.906  35.375   9.188
 1394POPC   GL220450  43.569  35.479   9.227
 1394POPC   C1A20451  43.826  35.136   8.753
 1394POPC   D2A20452  43.560  34.800   8.461
 1394POPC   C3A20453  43.634  34.831   7.995
 1394POPC   C4A20454  43.799  35.193   7.765
 1394POPC   C1B20455  43.458  35.614   8.803
 1394POPC   C2B20456  43.701  35.736   8.423
 1394POPC   C3B20457  43.929  35.655   8.027
 1394POPC   C4B20458  43.818  35.697   7.581
 1395POPC   NC320459  42.054  25.673   9.242
 1395POPC   PO420460  41.532  25.393   9.594
 1395POPC   GL120461  41.587  25.450   9.167
 1395POPC   GL220462  41.848  25.222   9.069
 1395POPC   C1A20463  41.420  25.235   8.792
 1395POPC   D2A20464  41.598  25.093   8.396
 1395POPC   C3A20465  41.350  25.052   8.024
 1395POPC   C4A20466  41.598  24.942   7.654
 1395POPC   C1B20467  41.830  25.513   8.685
 1395POPC   C2B20468  41.902  25.494   8.277
 1395POPC   C3B20469  41.665  25.423   7.932
 1395POPC   C4B20470  41.778  25.799   7.816
 1396POPC   NC320471  14.148  17.848   9.339
 1396POPC   PO420472  14.718  18.196   9.424
 1396POPC   GL120473  14.538  18.453   9.116
 1396POPC   GL220474  14.188  18.349   9.162
 1396POPC   C1A20475  14.584  18.533   8.680
 1396POPC   D2A20476  14.572  18.215   8.337
 1396POPC   C3A20477  14.442  18.338   7.928
 1396POPC   C4A20478  14.600  18.322   7.528
 1396POPC   C1B20479  14.294  18.108   8.770
 1396POPC   C2B20480  14.253  17.766   8.457
 1396POPC   C3B20481  14.235  17.882   8.015
 1396POPC   C4B20482  13.981  18.096   7.668
 1397POPC   NC320483  39.997  28.912   9.902
 1397POPC   PO420484  40.184  28.377   9.578
 1397POPC   GL120485  40.067  28.482   9.179
 1397POPC   GL220486  40.204  28.780   9.190
 1397POPC   C1A20487  39.878  28.434   8.780
 1397POPC   D2A20488  39.868  28.207   8.385
 1397POPC   C3A20489  39.659  28.396   8.052
 1397POPC   C4A20490  39.654  28.416   7.621
 1397POPC   C1B20491  40.314  28.695   8.774
 1397POPC   C2B20492  40.087  28.685   8.369
 1397POPC   C3B20493  40.193  28.411   8.033
 1397POPC   C4B20494  40.260  28.397   7.610
 1398POPC   NC320495  27.472  27.386   9.919
 1398POPC   PO420496  27.353  27.922   9.436
 1398POPC   GL120497  27.656  27.749   9.116
 1398POPC   GL220498  27.743  27.393   9.126
 1398POPC   C1A20499  27.626  27.664   8.670
 1398POPC   D2A20500  27.688  27.666   8.216
 1398POPC   C3A20501  27.362  27.710   7.890
 1398POPC   C4A20502  27.565  27.804   7.524
 1398POPC   C1B20503  28.032  27.328   8.765
 1398POPC   C2B20504  27.950  27.196   8.327
 1398POPC   C3B20505  28.064  27.327   7.902
 1398POPC   C4B20506  27.822  27.387   7.527
 1399POPC   NC320507  41.509  37.975   9.547
 1399POPC   PO420508  41.361  37.334   9.528
 1399POPC   GL120509  41.275  37.554   9.182
 1399POPC   GL220510  41.609  37.673   9.146
 1399POPC   C1A20511  41.273  37.747   8.770
 1399POPC   D2A20512  41.433  38.061   8.535
 1399POPC   C3A20513  41.308  38.030   8.115
 1399POPC   C4A20514  41.390  37.713   7.823
 1399POPC   C1B20515  41.819  37.805   8.786
 1399POPC   C2B20516  41.956  37.867   8.393
 1399POPC   C3B20517  41.827  37.927   7.992
 1399POPC   C4B20518  41.860  37.725   7.606
 1400POPC   NC320519   4.933   0.203   9.445
 1400POPC   PO420520   4.766   0.827   9.425
 1400POPC   GL120521   5.034   0.770   9.045
 1400POPC   GL220522   5.164   0.427   9.042
 1400POPC   C1A20523   4.965   0.625   8.608
 1400POPC   D2A20524   4.795   0.362   8.279
 1400POPC   C3A20525   5.038   0.438   7.927
 1400POPC   C4A20526   5.484   0.472   7.970
 1400POPC   C1B20527   5.149   0.138   8.661
 1400POPC   C2B20528   5.294   0.042   8.222
 1400POPC   C3B20529   5.314   0.050   7.747
 1400POPC   C4B20530   5.356  44.903   7.301
 1401POPC   NC320531  41.870  11.793   9.428
 1401POPC   PO420532  41.665  12.339   9.800
 1401POPC   GL120533  41.578  12.181   9.246
 1401POPC   GL220534  41.844  12.038   8.998
 1401POPC   C1A20535  41.551  12.366   8.779
 1401POPC   D2A20536  41.673  12.151   8.378
 1401POPC   C3A20537  41.639  12.279   7.937
 1401POPC   C4A20538  41.771  12.299   7.525
 1401POPC   C1B20539  41.480  11.848   8.784
 1401POPC   C2B20540  41.514  11.650   8.388
 1401POPC   C3B20541  41.686  11.759   8.032
 1401POPC   C4B20542  41.503  11.842   7.647
 1402POPC   NC320543  14.241   6.785   9.472
 1402POPC   PO420544  14.522   6.238   9.301
 1402POPC   GL120545  14.412   6.572   9.030
 1402POPC   GL220546  14.073   6.703   8.999
 1402POPC   C1A20547  14.330   6.498   8.601
 1402POPC   D2A20548  14.540   6.387   8.233
 1402POPC   C3A20549  14.574   6.715   7.906
 1402POPC   C4A20550  14.592   6.693   7.465
 1402POPC   C1B20551  14.119   6.982   8.649
 1402POPC   C2B20552  14.223   6.863   8.246
 1402POPC   C3B20553  14.132   7.028   7.856
 1402POPC   C4B20554  14.318   7.180   7.505
 1403POPC   NC320555  38.268  43.177   9.603
 1403POPC   PO420556  38.865  42.931   9.468
 1403POPC   GL120557  38.601  43.158   9.183
 1403POPC   GL220558  38.256  43.362   9.148
 1403POPC   C1A20559  38.675  43.132   8.764
 1403POPC   D2A20560  38.880  43.213   8.384
 1403POPC   C3A20561  38.762  42.915   8.081
 1403POPC   C4A20562  38.603  42.914   7.692
 1403POPC   C1B20563  38.151  43.131   8.781
 1403POPC   C2B20564  38.338  43.062   8.384
 1403POPC   C3B20565  38.412  43.269   8.020
 1403POPC   C4B20566  38.140  43.147   7.740
 1404POPC   NC320567  10.040  30.882   9.513
 1404POPC   PO420568   9.605  30.424   9.577
 1404POPC   GL120569   9.661  30.582   9.185
 1404POPC   GL220570   9.325  30.554   9.067
 1404POPC   C1A20571   9.758  30.759   8.789
 1404POPC   D2A20572   9.729  30.633   8.374
 1404POPC   C3A20573   9.836  30.874   8.031
 1404POPC   C4A20574  10.086  30.687   7.732
 1404POPC   C1B20575   9.452  30.330   8.706
 1404POPC   C2B20576   9.403  30.267   8.243
 1404POPC   C3B20577   9.435  30.547   7.873
 1404POPC   C4B20578   9.354  30.485   7.423
 1405POPC   NC320579  30.821  29.710   9.587
 1405POPC   PO420580  30.563  30.306   9.395
 1405POPC   GL120581  30.719  29.955   9.114
 1405POPC   GL220582  31.065  29.801   9.155
 1405POPC   C1A20583  30.535  29.799   8.717
 1405POPC   D2A20584  30.376  30.003   8.344
 1405POPC   C3A20585  30.523  29.846   7.965
 1405POPC   C4A20586  30.418  29.904   7.546
 1405POPC   C1B20587  31.089  29.954   8.737
 1405POPC   C2B20588  30.905  29.943   8.348
 1405POPC   C3B20589  31.069  29.877   7.968
 1405POPC   C4B20590  30.891  30.045   7.658
 1406POPC   NC320591  14.993  42.219   9.386
 1406POPC   PO420592  15.635  42.408   9.447
 1406POPC   GL120593  15.541  42.204   9.089
 1406POPC   GL220594  15.364  41.898   9.146
 1406POPC   C1A20595  15.339  42.165   8.682
 1406POPC   D2A20596  14.922  42.201   8.490
 1406POPC   C3A20597  14.960  42.483   8.154
 1406POPC   C4A20598  15.071  42.318   7.770
 1406POPC   C1B20599  15.036  41.783   8.824
 1406POPC   C2B20600  15.165  41.716   8.430
 1406POPC   C3B20601  15.281  42.011   8.121
 1406POPC   C4B20602  15.521  42.098   7.745
 1407POPC   NC320603  37.832  11.405   9.464
 1407POPC   PO420604  37.245  11.172   9.623
 1407POPC   GL120605  37.596  11.104   9.159
 1407POPC   GL220606  37.985  11.155   9.048
 1407POPC   C1A20607  37.641  11.358   8.740
 1407POPC   D2A20608  37.558  11.560   8.357
 1407POPC   C3A20609  37.522  11.345   7.945
 1407POPC   C4A20610  37.650  11.524   7.550
 1407POPC   C1B20611  38.069  11.138   8.616
 1407POPC   C2B20612  37.850  11.111   8.271
 1407POPC   C3B20613  38.019  11.233   7.893
 1407POPC   C4B20614  37.950  11.127   7.497
 1408POPC   NC320615   5.918  16.485   9.439
 1408POPC   PO420616   5.981  17.157   9.423
 1408POPC   GL120617   6.098  16.896   9.096
 1408POPC   GL220618   5.761  16.753   9.020
 1408POPC   C1A20619   6.095  16.945   8.657
 1408POPC   D2A20620   5.762  16.819   8.378
 1408POPC   C3A20621   5.786  16.887   7.923
 1408POPC   C4A20622   5.655  16.884   7.487
 1408POPC   C1B20623   6.053  16.438   8.810
 1408POPC   C2B20624   6.086  16.242   8.412
 1408POPC   C3B20625   6.056  16.450   8.031
 1408POPC   C4B20626   5.941  16.488   7.601
 1409POPC   NC320627  44.348  20.215   9.492
 1409POPC   PO420628  44.722  20.768   9.554
 1409POPC   GL120629  44.667  20.645   9.167
 1409POPC   GL220630  44.566  20.992   9.069
 1409POPC   C1A20631  44.499  20.506   8.798
 1409POPC   D2A20632  44.389  20.696   8.400
 1409POPC   C3A20633  44.572  20.599   7.967
 1409POPC   C4A20634  44.767  20.366   7.618
 1409POPC   C1B20635  44.839  20.923   8.719
 1409POPC   C2B20636  44.907  20.730   8.331
 1409POPC   C3B20637   0.024  20.862   7.904
 1409POPC   C4B20638   0.082  20.775   7.456
 1410POPC   NC320639  39.456  44.393   9.349
 1410POPC   PO420640  39.412  43.722   9.559
 1410POPC   GL120641  39.174  43.764   9.222
 1410POPC   GL220642  39.461  43.947   9.085
 1410POPC   C1A20643  39.001  43.960   8.856
 1410POPC   D2A20644  38.708  44.031   8.529
 1410POPC   C3A20645  38.904  44.172   8.157
 1410POPC   C4A20646  39.007  43.921   7.808
 1410POPC   C1B20647  39.560  43.714   8.734
 1410POPC   C2B20648  39.633  43.868   8.300
 1410POPC   C3B20649  39.544  43.978   7.862
 1410POPC   C4B20650  39.689  43.699   7.540
 1411POPC   NC320651  42.323  20.086   9.886
 1411POPC   PO420652  41.942  19.764   9.549
 1411POPC   GL120653  42.291  19.580   9.225
 1411POPC   GL220654  42.055  19.691   9.039
 1411POPC   C1A20655  42.487  19.782   8.801
 1411POPC   D2A20656  42.666  19.982   8.441
 1411POPC   C3A20657  42.555  19.793   8.029
 1411POPC   C4A20658  42.827  19.587   7.743
 1411POPC   C1B20659  42.023  19.949   8.693
 1411POPC   C2B20660  42.187  20.047   8.326
 1411POPC   C3B20661  42.035  19.974   7.968
 1411POPC   C4B20662  42.111  19.726   7.682
 1412POPC   NC320663   4.607  21.218   9.550
 1412POPC   PO420664   4.213  21.713   9.498
 1412POPC   GL120665   4.306  21.420   9.172
 1412POPC   GL220666   4.155  21.115   8.995
 1412POPC   C1A20667   4.559  21.425   8.829
 1412POPC   D2A20668   4.530  21.597   8.412
 1412POPC   C3A20669   4.190  21.443   8.126
 1412POPC   C4A20670   4.537  21.461   7.832
 1412POPC   C1B20671   4.075  21.357   8.651
 1412POPC   C2B20672   4.384  21.110   8.469
 1412POPC   C3B20673   4.434  21.023   8.074
 1412POPC   C4B20674   4.181  21.122   7.708
 1413POPC   NC320675  14.055  42.549   9.444
 1413POPC   PO420676  14.545  42.134   9.423
 1413POPC   GL120677  14.458  42.458   9.124
 1413POPC   GL220678  14.470  42.828   9.285
 1413POPC   C1A20679  14.317  42.335   8.692
 1413POPC   D2A20680  14.350  41.977   8.385
 1413POPC   C3A20681  14.332  42.080   7.937
 1413POPC   C4A20682  14.091  42.402   7.730
 1413POPC   C1B20683  14.388  42.890   8.863
 1413POPC   C2B20684  14.601  42.795   8.478
 1413POPC   C3B20685  14.450  42.579   8.104
 1413POPC   C4B20686  14.612  42.505   7.716
 1414POPC   NC320687  17.580   3.962   9.508
 1414POPC   PO420688  17.605   4.575   9.431
 1414POPC   GL120689  17.494   4.292   9.113
 1414POPC   GL220690  17.308   3.951   9.058
 1414POPC   C1A20691  17.705   4.415   8.776
 1414POPC   D2A20692  17.705   4.713   8.488
 1414POPC   C3A20693  17.624   4.495   8.125
 1414POPC   C4A20694  17.434   4.442   7.757
 1414POPC   C1B20695  17.369   4.062   8.611
 1414POPC   C2B20696  17.535   3.924   8.165
 1414POPC   C3B20697  17.426   3.916   7.685
 1414POPC   C4B20698  17.061   3.776   7.397
 1415POPC   NC320699  19.528  13.544   9.484
 1415POPC   PO420700  20.121  13.794   9.492
 1415POPC   GL120701  19.950  13.595   9.149
 1415POPC   GL220702  19.623  13.637   9.001
 1415POPC   C1A20703  20.084  13.749   8.784
 1415POPC   D2A20704  19.907  13.787   8.380
 1415POPC   C3A20705  20.160  13.597   8.107
 1415POPC   C4A20706  20.187  13.716   7.716
 1415POPC   C1B20707  19.765  13.363   8.685
 1415POPC   C2B20708  19.703  13.306   8.243
 1415POPC   C3B20709  19.729  13.555   7.850
 1415POPC   C4B20710  19.966  13.299   7.524
 1416POPC   NC320711  30.219  16.526   9.405
 1416POPC   PO420712  29.800  16.985   9.533
 1416POPC   GL120713  29.810  16.743   9.157
 1416POPC   GL220714  30.090  16.852   8.973
 1416POPC   C1A20715  29.585  16.672   8.783
 1416POPC   D2A20716  29.737  16.594   8.372
 1416POPC   C3A20717  29.888  16.456   7.984
 1416POPC   C4A20718  29.963  16.846   7.738
 1416POPC   C1B20719  30.039  16.449   8.764
 1416POPC   C2B20720  30.240  16.317   8.393
 1416POPC   C3B20721  30.487  16.444   8.110
 1416POPC   C4B20722  30.341  16.502   7.728
 1417POPC   NC320723  24.840   8.508   9.556
 1417POPC   PO420724  24.280   8.119   9.487
 1417POPC   GL120725  24.423   8.444   9.222
 1417POPC   GL220726  24.755   8.342   9.077
 1417POPC   C1A20727  24.332   8.458   8.795
 1417POPC   D2A20728  24.323   8.201   8.437
 1417POPC   C3A20729  24.272   8.485   8.122
 1417POPC   C4A20730  24.269   8.345   7.729
 1417POPC   C1B20731  24.829   8.232   8.641
 1417POPC   C2B20732  24.759   8.271   8.202
 1417POPC   C3B20733  24.677   8.044   7.851
 1417POPC   C4B20734  24.907   8.364   7.689
 1418POPC   NC320735  42.212  24.372   9.835
 1418POPC   PO420736  42.305  25.012   9.683
 1418POPC   GL120737  42.309  24.620   9.370
 1418POPC   GL220738  42.178  24.297   9.257
 1418POPC   C1A20739  42.248  24.612   8.874
 1418POPC   D2A20740  42.058  24.441   8.483
 1418POPC   C3A20741  42.149  24.505   8.042
 1418POPC   C4A20742  42.272  24.479   7.585
 1418POPC   C1B20743  42.230  24.105   8.835
 1418POPC   C2B20744  42.280  23.964   8.371
 1418POPC   C3B20745  42.437  24.100   7.922
 1418POPC   C4B20746  42.700  24.214   7.528
 1419POPC   NC320747  43.554  44.652   9.606
 1419POPC   PO420748  44.219  44.900   9.659
 1419POPC   GL120749  43.953  44.813   9.311
 1419POPC   GL220750  44.221  44.720   9.123
 1419POPC   C1A20751  43.786  44.723   8.872
 1419POPC   D2A20752  43.902  44.881   8.448
 1419POPC   C3A20753  43.653  44.729   8.090
 1419POPC   C4A20754  43.557  44.848   7.658
 1419POPC   C1B20755  44.368  44.443   8.810
 1419POPC   C2B20756  44.467  44.546   8.417
 1419POPC   C3B20757  44.182  44.532   8.069
 1419POPC   C4B20758  44.120  44.145   7.857
 1420POPC   NC320759  21.408   5.692   9.466
 1420POPC   PO420760  21.077   6.286   9.428
 1420POPC   GL120761  21.332   6.060   9.120
 1420POPC   GL220762  21.147   5.727   9.022
 1420POPC   C1A20763  21.470   5.984   8.701
 1420POPC   D2A20764  21.314   5.834   8.296
 1420POPC   C3A20765  21.558   6.014   7.986
 1420POPC   C4A20766  21.389   6.221   7.687
 1420POPC   C1B20767  21.377   5.479   8.717
 1420POPC   C2B20768  21.471   5.348   8.316
 1420POPC   C3B20769  21.355   5.413   7.877
 1420POPC   C4B20770  21.468   5.711   7.566
 1421POPC   NC320771  19.510  39.268   9.734
 1421POPC   PO420772  19.918  39.702   9.740
 1421POPC   GL120773  20.005  39.486   9.328
 1421POPC   GL220774  19.665  39.423   9.225
 1421POPC   C1A20775  20.044  39.194   8.934
 1421POPC   D2A20776  20.005  39.274   8.463
 1421POPC   C3A20777  19.924  39.140   8.024
 1421POPC   C4A20778  19.760  39.284   7.620
 1421POPC   C1B20779  19.616  39.449   8.751
 1421POPC   C2B20780  19.505  39.309   8.304
 1421POPC   C3B20781  19.321  39.223   7.890
 1421POPC   C4B20782  19.321  39.009   7.505
 1422POPC   NC320783  22.411  36.879   9.552
 1422POPC   PO420784  21.806  37.090   9.463
 1422POPC   GL120785  22.014  36.845   9.126
 1422POPC   GL220786  22.332  36.642   9.109
 1422POPC   C1A20787  22.068  37.025   8.712
 1422POPC   D2A20788  22.207  37.235   8.334
 1422POPC   C3A20789  22.072  37.039   7.991
 1422POPC   C4A20790  22.231  37.030   7.567
 1422POPC   C1B20791  22.156  36.531   8.726
 1422POPC   C2B20792  22.343  36.717   8.345
 1422POPC   C3B20793  22.344  36.636   7.884
 1422POPC   C4B20794  21.991  36.587   7.678
 1423POPC   NC320795  16.317  18.116   9.592
 1423POPC   PO420796  16.997  18.410   9.479
 1423POPC   GL120797  16.844  18.283   9.111
 1423POPC   GL220798  16.516  18.221   9.150
 1423POPC   C1A20799  16.727  18.526   8.771
 1423POPC   D2A20800  16.791  18.711   8.357
 1423POPC   C3A20801  16.636  18.487   8.039
 1423POPC   C4A20802  16.711  18.511   7.650
 1423POPC   C1B20803  16.503  18.032   8.752
 1423POPC   C2B20804  16.642  17.989   8.332
 1423POPC   C3B20805  16.561  17.991   7.909
 1423POPC   C4B20806  16.179  17.811   7.799
 1424POPC   NC320807  37.240  42.194   9.413
 1424POPC   PO420808  36.580  42.329   9.537
 1424POPC   GL120809  36.822  42.270   9.161
 1424POPC   GL220810  36.859  41.937   9.088
 1424POPC   C1A20811  36.934  42.435   8.776
 1424POPC   D2A20812  36.803  42.468   8.353
 1424POPC   C3A20813  36.929  42.760   8.070
 1424POPC   C4A20814  37.193  42.482   7.860
 1424POPC   C1B20815  36.507  42.092   8.813
 1424POPC   C2B20816  36.367  41.950   8.419
 1424POPC   C3B20817  36.564  42.010   8.069
 1424POPC   C4B20818  36.701  42.338   7.853
 1425POPC   NC320819  17.989  35.061   9.441
 1425POPC   PO420820  18.136  35.733   9.788
 1425POPC   GL120821  18.275  35.505   9.388
 1425POPC   GL220822  17.980  35.505   9.201
 1425POPC   C1A20823  18.397  35.329   8.953
 1425POPC   D2A20824  18.467  35.428   8.527
 1425POPC   C3A20825  18.182  35.371   8.171
 1425POPC   C4A20826  18.042  35.462   7.760
 1425POPC   C1B20827  17.911  35.248   8.797
 1425POPC   C2B20828  17.873  35.011   8.395
 1425POPC   C3B20829  17.909  34.976   7.923
 1425POPC   C4B20830  17.834  34.869   7.475
 1426POPC   NC320831  37.756  12.534   9.462
 1426POPC   PO420832  37.793  13.265   9.514
 1426POPC   GL120833  37.628  13.021   9.201
 1426POPC   GL220834  37.969  12.864   9.154
 1426POPC   C1A20835  37.655  13.055   8.754
 1426POPC   D2A20836  37.642  12.671   8.471
 1426POPC   C3A20837  37.699  12.752   8.039
 1426POPC   C4A20838  37.619  12.404   7.819
 1426POPC   C1B20839  38.053  12.746   8.752
 1426POPC   C2B20840  38.014  13.010   8.382
 1426POPC   C3B20841  38.149  12.983   7.978
 1426POPC   C4B20842  38.137  13.106   7.560
 1427POPC   NC320843   1.772  22.819   9.687
 1427POPC   PO420844   2.083  23.371   9.644
 1427POPC   GL120845   1.882  23.124   9.225
 1427POPC   GL220846   1.912  22.795   9.174
 1427POPC   C1A20847   1.768  23.121   8.770
 1427POPC   D2A20848   2.046  23.163   8.432
 1427POPC   C3A20849   1.979  23.067   8.046
 1427POPC   C4A20850   2.081  23.193   7.662
 1427POPC   C1B20851   2.168  22.784   8.804
 1427POPC   C2B20852   2.077  22.656   8.374
 1427POPC   C3B20853   2.401  22.671   8.081
 1427POPC   C4B20854   2.495  22.817   7.688
 1428POPC   NC320855  41.184  40.369   9.474
 1428POPC   PO420856  41.747  40.046   9.370
 1428POPC   GL120857  41.352  40.042   9.112
 1428POPC   GL220858  41.227  40.359   8.961
 1428POPC   C1A20859  41.336  39.936   8.675
 1428POPC   D2A20860  41.626  39.907   8.358
 1428POPC   C3A20861  41.448  39.977   7.966
 1428POPC   C4A20862  41.580  39.602   7.826
 1428POPC   C1B20863  41.594  40.421   8.664
 1428POPC   C2B20864  41.731  40.383   8.210
 1428POPC   C3B20865  41.621  40.541   7.804
 1428POPC   C4B20866  41.766  40.443   7.384
 1429POPC   NC320867   8.983  34.689   9.471
 1429POPC   PO420868   9.513  35.042   9.225
 1429POPC   GL120869   9.228  34.679   9.029
 1429POPC   GL220870   9.128  34.305   9.143
 1429POPC   C1A20871   8.853  34.509   8.744
 1429POPC   D2A20872   8.684  34.390   8.289
 1429POPC   C3A20873   8.818  34.534   7.844
 1429POPC   C4A20874   8.577  34.502   7.405
 1429POPC   C1B20875   9.328  34.275   8.750
 1429POPC   C2B20876   9.198  34.452   8.364
 1429POPC   C3B20877   9.365  34.509   7.974
 1429POPC   C4B20878   9.314  34.650   7.564
 1430POPC   NC320879  30.942  16.055   9.503
 1430POPC   PO420880  30.379  15.683   9.588
 1430POPC   GL120881  30.527  15.966   9.216
 1430POPC   GL220882  30.893  16.078   9.015
 1430POPC   C1A20883  30.437  16.146   8.837
 1430POPC   D2A20884  30.737  16.156   8.494
 1430POPC   C3A20885  30.643  15.932   8.135
 1430POPC   C4A20886  30.635  16.066   7.733
 1430POPC   C1B20887  31.108  15.785   8.733
 1430POPC   C2B20888  31.063  15.726   8.299
 1430POPC   C3B20889  31.094  15.847   7.854
 1430POPC   C4B20890  31.014  15.873   7.399
 1431POPC   NC320891   6.443  44.634   9.552
 1431POPC   PO420892   6.497   0.237   9.706
 1431POPC   GL120893   6.688  44.926   9.221
 1431POPC   GL220894   6.719  44.524   9.146
 1431POPC   C1A20895   6.563  44.770   8.754
 1431POPC   D2A20896   6.800  44.621   8.363
 1431POPC   C3A20897   6.680  44.830   7.957
 1431POPC   C4A20898   6.302  44.882   7.700
 1431POPC   C1B20899   6.575  44.255   8.786
 1431POPC   C2B20900   6.639  44.123   8.341
 1431POPC   C3B20901   6.624  44.341   7.918
 1431POPC   C4B20902   6.887  44.368   7.537
 1432POPC   NC320903  35.716   3.101   9.314
 1432POPC   PO420904  35.183   2.832   9.688
 1432POPC   GL120905  35.234   2.761   9.246
 1432POPC   GL220906  35.477   2.515   9.255
 1432POPC   C1A20907  35.250   2.867   8.827
 1432POPC   D2A20908  35.330   2.954   8.426
 1432POPC   C3A20909  35.069   2.827   8.086
 1432POPC   C4A20910  35.243   2.726   7.692
 1432POPC   C1B20911  35.454   2.359   8.855
 1432POPC   C2B20912  35.230   2.465   8.499
 1432POPC   C3B20913  35.367   2.412   8.084
 1432POPC   C4B20914  35.427   2.236   7.703
 1433POPC   NC320915  26.525  21.337   9.447
 1433POPC   PO420916  27.066  21.776   9.423
 1433POPC   GL120917  26.918  21.373   9.107
 1433POPC   GL220918  26.597  21.333   8.942
 1433POPC   C1A20919  26.996  21.104   8.735
 1433POPC   D2A20920  27.064  21.318   8.331
 1433POPC   C3A20921  26.824  21.231   7.953
 1433POPC   C4A20922  26.404  21.381   7.793
 1433POPC   C1B20923  26.816  21.700   8.742
 1433POPC   C2B20924  27.062  21.831   8.429
 1433POPC   C3B20925  27.066  21.730   8.020
 1433POPC   C4B20926  26.804  21.695   7.723
 1434POPC   NC320927  19.836  16.977   9.658
 1434POPC   PO420928  19.439  16.439   9.731
 1434POPC   GL120929  19.638  16.607   9.328
 1434POPC   GL220930  19.651  16.961   9.192
 1434POPC   C1A20931  19.912  16.545   8.957
 1434POPC   D2A20932  20.079  16.584   8.518
 1434POPC   C3A20933  19.761  16.511   8.185
 1434POPC   C4A20934  19.812  16.472   7.721
 1434POPC   C1B20935  19.812  17.015   8.777
 1434POPC   C2B20936  19.866  17.024   8.352
 1434POPC   C3B20937  19.806  17.140   7.940
 1434POPC   C4B20938  19.723  17.007   7.557
 1435POPC   NC320939   2.972  42.636   9.479
 1435POPC   PO420940   2.404  42.195   9.431
 1435POPC   GL120941   2.807  42.119   9.119
 1435POPC   GL220942   3.029  42.412   9.041
 1435POPC   C1A20943   2.858  42.175   8.639
 1435POPC   D2A20944   2.635  42.514   8.426
 1435POPC   C3A20945   2.562  42.363   8.035
 1435POPC   C4A20946   2.673  42.408   7.614
 1435POPC   C1B20947   3.060  42.686   8.698
 1435POPC   C2B20948   3.143  42.553   8.270
 1435POPC   C3B20949   3.107  42.382   7.854
 1435POPC   C4B20950   3.145  42.510   7.402
 1436POPC   NC320951  40.245  41.883   9.708
 1436POPC   PO420952  39.784  41.427   9.563
 1436POPC   GL120953  39.933  41.688   9.207
 1436POPC   GL220954  40.268  41.833   9.201
 1436POPC   C1A20955  39.928  41.804   8.778
 1436POPC   D2A20956  39.730  41.710   8.397
 1436POPC   C3A20957  39.969  41.640   8.026
 1436POPC   C4A20958  39.922  41.566   7.587
 1436POPC   C1B20959  40.413  41.946   8.786
 1436POPC   C2B20960  40.354  41.724   8.403
 1436POPC   C3B20961  40.399  41.897   7.967
 1436POPC   C4B20962  40.215  41.958   7.567
 1437POPC   NC320963   4.887  10.773   9.508
 1437POPC   PO420964   5.132  11.455   9.494
 1437POPC   GL120965   5.153  11.351   9.079
 1437POPC   GL220966   5.095  11.006   9.086
 1437POPC   C1A20967   5.329  11.232   8.695
 1437POPC   D2A20968   5.080  11.343   8.348
 1437POPC   C3A20969   5.130  11.170   7.946
 1437POPC   C4A20970   4.967  11.434   7.682
 1437POPC   C1B20971   4.913  10.878   8.677
 1437POPC   C2B20972   4.778  10.931   8.243
 1437POPC   C3B20973   4.873  10.735   7.857
 1437POPC   C4B20974   4.935  10.965   7.486
 1438POPC   NC320975   3.997  11.226   9.563
 1438POPC   PO420976   3.401  11.383   9.774
 1438POPC   GL120977   3.413  11.449   9.315
 1438POPC   GL220978   3.710  11.312   9.122
 1438POPC   C1A20979   3.327  11.551   8.859
 1438POPC   D2A20980   3.404  11.334   8.455
 1438POPC   C3A20981   3.443  11.501   8.021
 1438POPC   C4A20982   3.715  11.439   7.639
 1438POPC   C1B20983   3.631  10.998   8.769
 1438POPC   C2B20984   3.726  10.886   8.323
 1438POPC   C3B20985   3.810  10.997   7.874
 1438POPC   C4B20986   4.068  11.111   7.457
 1439POPC   NC320987  41.028   7.713   9.449
 1439POPC   PO420988  40.567   7.269   9.672
 1439POPC   GL120989  40.627   7.252   9.244
 1439POPC   GL220990  40.497   7.572   9.241
 1439POPC   C1A20991  40.800   7.388   8.845
 1439POPC   D2A20992  40.801   7.259   8.410
 1439POPC   C3A20993  41.046   7.467   8.083
 1439POPC   C4A20994  40.867   7.217   7.755
 1439POPC   C1B20995  40.302   7.640   8.870
 1439POPC   C2B20996  40.470   7.661   8.472
 1439POPC   C3B20997  40.553   7.576   8.064
 1439POPC   C4B20998  40.436   7.683   7.682
 1440POPC   NC320999  11.651  26.446   9.382
 1440POPC   PO421000  11.131  26.907   9.561
 1440POPC   GL121001  11.087  26.906   9.161
 1440POPC   GL221002  11.165  26.546   9.183
 1440POPC   C1A21003  11.413  26.835   8.827
 1440POPC   D2A21004  11.376  26.628   8.429
 1440POPC   C3A21005  11.259  26.830   8.047
 1440POPC   C4A21006  11.486  26.722   7.663
 1440POPC   C1B21007  10.973  26.589   8.787
 1440POPC   C2B21008  10.918  26.417   8.362
 1440POPC   C3B21009  10.849  26.538   7.949
 1440POPC   C4B21010  10.987  26.788   7.574
 1441POPC   NC321011  42.961  34.954   9.679
 1441POPC   PO421012  42.746  34.386   9.426
 1441POPC   GL121013  42.941  34.686   9.204
 1441POPC   GL221014  42.709  34.962   9.237
 1441POPC   C1A21015  43.189  34.633   8.830
 1441POPC   D2A21016  42.971  34.643   8.456
 1441POPC   C3A21017  43.139  34.578   8.076
 1441POPC   C4A21018  42.917  34.500   7.702
 1441POPC   C1B21019  42.786  34.989   8.800
 1441POPC   C2B21020  42.735  35.104   8.370
 1441POPC   C3B21021  42.672  34.822   8.044
 1441POPC   C4B21022  42.509  34.813   7.632
 1442POPC   NC321023  19.526   1.992   9.669
 1442POPC   PO421024  20.055   1.697   9.494
 1442POPC   GL121025  19.728   1.813   9.192
 1442POPC   GL221026  19.482   2.078   9.171
 1442POPC   C1A21027  19.809   1.927   8.766
 1442POPC   D2A21028  20.011   1.660   8.471
 1442POPC   C3A21029  19.935   1.741   8.079
 1442POPC   C4A21030  19.894   1.611   7.665
 1442POPC   C1B21031  19.309   1.839   8.858
 1442POPC   C2B21032  19.405   1.935   8.430
 1442POPC   C3B21033  19.451   1.805   8.009
 1442POPC   C4B21034  19.675   2.085   7.756
 1443POPC   NC321035   1.902   2.981  10.009
 1443POPC   PO421036   2.156   2.405   9.871
 1443POPC   GL121037   2.069   2.714   9.424
 1443POPC   GL221038   2.132   3.065   9.327
 1443POPC   C1A21039   2.008   2.627   8.925
 1443POPC   D2A21040   1.986   2.388   8.522
 1443POPC   C3A21041   2.025   2.546   8.110
 1443POPC   C4A21042   1.979   2.722   7.741
 1443POPC   C1B21043   2.259   3.068   8.869
 1443POPC   C2B21044   2.287   2.829   8.463
 1443POPC   C3B21045   2.412   2.885   8.034
 1443POPC   C4B21046   2.190   3.178   7.800
 1444POPC   NC321047  23.983  13.607   9.497
 1444POPC   PO421048  23.344  13.428   9.619
 1444POPC   GL121049  23.560  13.572   9.229
 1444POPC   GL221050  23.733  13.258   9.182
 1444POPC   C1A21051  23.527  13.852   8.853
 1444POPC   D2A21052  23.482  13.859   8.392
 1444POPC   C3A21053  23.818  13.970   8.101
 1444POPC   C4A21054  23.713  13.812   7.672
 1444POPC   C1B21055  23.899  13.491   8.825
 1444POPC   C2B21056  23.957  13.424   8.397
 1444POPC   C3B21057  23.684  13.483   8.076
 1444POPC   C4B21058  23.720  13.301   7.700
 1445POPC   NC321059  12.187  35.857   9.581
 1445POPC   PO421060  12.073  36.493   9.400
 1445POPC   GL121061  11.837  36.309   9.092
 1445POPC   GL221062  11.848  35.985   9.210
 1445POPC   C1A21063  11.930  36.224   8.636
 1445POPC   D2A21064  12.336  36.139   8.391
 1445POPC   C3A21065  12.247  36.202   7.969
 1445POPC   C4A21066  11.861  36.457   7.861
 1445POPC   C1B21067  12.243  35.961   8.932
 1445POPC   C2B21068  12.107  35.724   8.582
 1445POPC   C3B21069  12.070  35.754   8.177
 1445POPC   C4B21070  12.097  35.737   7.762
 1446POPC   NC321071  34.041  22.253   9.597
 1446POPC   PO421072  33.370  21.961   9.662
 1446POPC   GL121073  33.713  22.010   9.283
 1446POPC   GL221074  33.850  22.377   9.141
 1446POPC   C1A21075  33.796  21.988   8.819
 1446POPC   D2A21076  34.039  21.923   8.427
 1446POPC   C3A21077  33.828  22.016   8.040
 1446POPC   C4A21078  33.749  21.933   7.598
 1446POPC   C1B21079  34.158  22.355   8.740
 1446POPC   C2B21080  34.275  22.334   8.268
 1446POPC   C3B21081  34.153  22.350   7.820
 1446POPC   C4B21082  34.091  22.689   7.578
 1447POPC   NC321083  40.523  34.676   9.298
 1447POPC   PO421084  40.134  34.461   9.854
 1447POPC   GL121085  40.002  34.599   9.389
 1447POPC   GL221086  39.964  34.290   9.233
 1447POPC   C1A21087  40.021  34.649   8.884
 1447POPC   D2A21088  40.160  34.628   8.439
 1447POPC   C3A21089  39.957  34.825   8.075
 1447POPC   C4A21090  40.292  34.929   7.772
 1447POPC   C1B21091  39.813  34.126   8.824
 1447POPC   C2B21092  39.610  34.112   8.401
 1447POPC   C3B21093  39.791  34.338   8.047
 1447POPC   C4B21094  40.052  34.496   7.682
 1448POPC   NC321095  11.465  27.285   9.595
 1448POPC   PO421096  10.950  27.622   9.651
 1448POPC   GL121097  11.106  27.435   9.277
 1448POPC   GL221098  11.317  27.706   9.203
 1448POPC   C1A21099  11.268  27.317   8.868
 1448POPC   D2A21100  11.254  27.164   8.455
 1448POPC   C3A21101  11.476  27.389   8.139
 1448POPC   C4A21102  11.430  27.223   7.749
 1448POPC   C1B21103  11.076  27.784   8.857
 1448POPC   C2B21104  11.212  27.696   8.494
 1448POPC   C3B21105  11.088  27.752   8.130
 1448POPC   C4B21106  11.241  27.681   7.762
 1449POPC   NC321107  23.871  32.819   9.425
 1449POPC   PO421108  23.276  33.175   9.394
 1449POPC   GL121109  23.574  33.096   9.126
 1449POPC   GL221110  23.457  32.761   9.088
 1449POPC   C1A21111  23.896  33.185   8.822
 1449POPC   D2A21112  23.746  33.288   8.401
 1449POPC   C3A21113  23.804  33.179   7.966
 1449POPC   C4A21114  23.538  33.206   7.592
 1449POPC   C1B21115  23.520  32.865   8.675
 1449POPC   C2B21116  23.607  32.764   8.277
 1449POPC   C3B21117  23.462  32.778   7.866
 1449POPC   C4B21118  23.747  32.761   7.488
 1450POPC   NC321119   6.452  34.807   9.520
 1450POPC   PO421120   6.893  34.228   9.401
 1450POPC   GL121121   6.881  34.473   9.069
 1450POPC   GL221122   6.572  34.591   9.082
 1450POPC   C1A21123   6.823  34.443   8.640
 1450POPC   D2A21124   6.799  34.744   8.326
 1450POPC   C3A21125   6.890  34.515   8.014
 1450POPC   C4A21126   6.826  34.616   7.656
 1450POPC   C1B21127   6.334  34.512   8.722
 1450POPC   C2B21128   6.270  34.741   8.335
 1450POPC   C3B21129   6.393  34.731   7.910
 1450POPC   C4B21130   6.349  34.531   7.473
 1451POPC   NC321131  40.636  22.619   9.388
 1451POPC   PO421132  41.023  23.087   9.690
 1451POPC   GL121133  41.012  23.043   9.246
 1451POPC   GL221134  40.874  22.791   8.987
 1451POPC   C1A21135  41.161  23.170   8.862
 1451POPC   D2A21136  40.898  22.962   8.513
 1451POPC   C3A21137  41.014  22.890   8.106
 1451POPC   C4A21138  40.844  22.934   7.694
 1451POPC   C1B21139  40.720  22.463   8.732
 1451POPC   C2B21140  40.893  22.428   8.338
 1451POPC   C3B21141  40.681  22.500   7.969
 1451POPC   C4B21142  40.375  22.705   7.717
 1452POPC   NC321143  33.660  27.191   9.645
 1452POPC   PO421144  33.559  27.899   9.539
 1452POPC   GL121145  33.790  27.686   9.273
 1452POPC   GL221146  34.039  27.944   9.244
 1452POPC   C1A21147  33.737  27.440   8.888
 1452POPC   D2A21148  33.620  27.430   8.441
 1452POPC   C3A21149  33.903  27.507   8.076
 1452POPC   C4A21150  33.925  27.142   7.789
 1452POPC   C1B21151  33.839  27.950   8.829
 1452POPC   C2B21152  33.812  27.912   8.420
 1452POPC   C3B21153  34.006  28.084   8.090
 1452POPC   C4B21154  33.973  27.861   7.687
 1453POPC   NC321155  16.518  41.280   9.493
 1453POPC   PO421156  15.809  41.422   9.599
 1453POPC   GL121157  15.822  41.644   9.211
 1453POPC   GL221158  16.154  41.536   9.178
 1453POPC   C1A21159  15.746  41.842   8.802
 1453POPC   D2A21160  15.721  41.624   8.424
 1453POPC   C3A21161  15.845  41.713   7.992
 1453POPC   C4A21162  15.807  41.298   7.773
 1453POPC   C1B21163  16.201  41.636   8.743
 1453POPC   C2B21164  16.234  41.570   8.313
 1453POPC   C3B21165  16.276  41.419   7.922
 1453POPC   C4B21166  16.238  41.631   7.575
 1454POPC   NC321167  32.112  38.281   9.623
 1454POPC   PO421168  31.894  38.916   9.615
 1454POPC   GL121169  32.170  38.709   9.276
 1454POPC   GL221170  32.297  38.355   9.182
 1454POPC   C1A21171  32.125  38.644   8.815
 1454POPC   D2A21172  32.014  38.435   8.434
 1454POPC   C3A21173  32.094  38.620   8.039
 1454POPC   C4A21174  32.201  38.449   7.649
 1454POPC   C1B21175  32.174  38.127   8.851
 1454POPC   C2B21176  32.361  38.014   8.501
 1454POPC   C3B21177  32.325  38.152   8.130
 1454POPC   C4B21178  32.437  38.009   7.765
 1455POPC   NC321179   0.776  14.806   9.499
 1455POPC   PO421180   0.283  14.345   9.449
 1455POPC   GL121181   0.523  14.312   9.110
 1455POPC   GL221182   0.508  14.643   9.098
 1455POPC   C1A21183   0.621  14.174   8.689
 1455POPC   D2A21184   0.762  14.001   8.287
 1455POPC   C3A21185   0.651  14.258   7.929
 1455POPC   C4A21186   0.251  14.446   7.725
 1455POPC   C1B21187   0.637  14.666   8.697
 1455POPC   C2B21188   0.467  14.687   8.328
 1455POPC   C3B21189   0.602  14.751   7.944
 1455POPC   C4B21190   0.690  14.615   7.515
 1456POPC   NC321191  43.630  20.036   9.849
 1456POPC   PO421192  43.259  19.652   9.442
 1456POPC   GL121193  43.603  19.909   9.231
 1456POPC   GL221194  43.873  19.854   9.025
 1456POPC   C1A21195  43.543  20.194   8.856
 1456POPC   D2A21196  43.772  20.017   8.513
 1456POPC   C3A21197  43.577  19.999   8.126
 1456POPC   C4A21198  43.780  19.935   7.745
 1456POPC   C1B21199  44.192  20.077   8.838
 1456POPC   C2B21200  44.327  19.923   8.465
 1456POPC   C3B21201  44.130  19.832   8.103
 1456POPC   C4B21202  44.099  19.513   7.801
 1457POPC   NC321203  39.719  14.993   9.440
 1457POPC   PO421204  40.339  15.253   9.481
 1457POPC   GL121205  40.099  15.125   9.139
 1457POPC   GL221206  39.909  15.459   9.173
 1457POPC   C1A21207  39.899  15.193   8.733
 1457POPC   D2A21208  40.072  15.026   8.388
 1457POPC   C3A21209  39.925  15.221   8.036
 1457POPC   C4A21210  39.933  14.995   7.647
 1457POPC   C1B21211  40.272  15.503   8.861
 1457POPC   C2B21212  40.287  15.469   8.425
 1457POPC   C3B21213  40.430  15.287   8.034
 1457POPC   C4B21214  40.230  15.421   7.648
 1458POPC   NC321215  33.618   9.452   9.466
 1458POPC   PO421216  33.362  10.033   9.393
 1458POPC   GL121217  33.758  10.037   9.137
 1458POPC   GL221218  33.944   9.709   9.107
 1458POPC   C1A21219  34.041  10.184   8.786
 1458POPC   D2A21220  34.100  10.141   8.342
 1458POPC   C3A21221  33.724   9.978   8.121
 1458POPC   C4A21222  33.730   9.888   7.686
 1458POPC   C1B21223  33.926   9.454   8.700
 1458POPC   C2B21224  33.796   9.476   8.238
 1458POPC   C3B21225  33.725   9.410   7.782
 1458POPC   C4B21226  33.779   9.456   7.325
 1459POPC   NC321227  20.997  22.453   9.653
 1459POPC   PO421228  21.624  22.351   9.667
 1459POPC   GL121229  21.570  22.422   9.216
 1459POPC   GL221230  21.206  22.396   9.188
 1459POPC   C1A21231  21.460  22.233   8.780
 1459POPC   D2A21232  21.101  22.139   8.462
 1459POPC   C3A21233  21.297  22.153   8.066
 1459POPC   C4A21234  21.209  21.921   7.683
 1459POPC   C1B21235  20.996  22.489   8.811
 1459POPC   C2B21236  20.825  22.615   8.466
 1459POPC   C3B21237  20.956  22.554   8.101
 1459POPC   C4B21238  21.042  22.414   7.722
 1460POPC   NC321239  33.103  38.415   9.608
 1460POPC   PO421240  32.571  38.883   9.708
 1460POPC   GL121241  32.765  38.741   9.247
 1460POPC   GL221242  32.798  38.402   9.196
 1460POPC   C1A21243  33.049  38.630   8.822
 1460POPC   D2A21244  32.971  38.428   8.377
 1460POPC   C3A21245  33.201  38.482   7.980
 1460POPC   C4A21246  33.449  38.151   7.772
 1460POPC   C1B21247  32.595  38.411   8.766
 1460POPC   C2B21248  32.503  38.601   8.349
 1460POPC   C3B21249  32.679  38.449   7.942
 1460POPC   C4B21250  32.932  38.061   7.830
 1461POPC   NC321251  36.765  40.994   9.423
 1461POPC   PO421252  37.198  40.414   9.410
 1461POPC   GL121253  37.106  40.691   9.111
 1461POPC   GL221254  36.744  40.612   9.076
 1461POPC   C1A21255  36.967  40.836   8.712
 1461POPC   D2A21256  36.831  40.673   8.340
 1461POPC   C3A21257  36.992  40.878   8.000
 1461POPC   C4A21258  36.838  41.192   7.700
 1461POPC   C1B21259  36.536  40.457   8.690
 1461POPC   C2B21260  36.334  40.634   8.265
 1461POPC   C3B21261  36.579  40.619   7.869
 1461POPC   C4B21262  36.890  40.633   7.533
 1462POPC   NC321263  15.540  10.342   9.635
 1462POPC   PO421264  15.864  10.839   9.388
 1462POPC   GL121265  15.697  10.630   9.024
 1462POPC   GL221266  15.603  10.270   9.141
 1462POPC   C1A21267  15.899  10.731   8.607
 1462POPC   D2A21268  16.264  10.668   8.333
 1462POPC   C3A21269  16.083  10.576   7.958
 1462POPC   C4A21270  15.682  10.407   7.884
 1462POPC   C1B21271  15.715  10.205   8.723
 1462POPC   C2B21272  15.919  10.248   8.333
 1462POPC   C3B21273  16.162  10.080   7.988
 1462POPC   C4B21274  16.031  10.141   7.582
 1463POPC   NC321275  37.463  35.701   9.407
 1463POPC   PO421276  37.626  35.119   9.703
 1463POPC   GL121277  37.758  35.246   9.243
 1463POPC   GL221278  37.953  35.570   9.249
 1463POPC   C1A21279  37.667  35.387   8.772
 1463POPC   D2A21280  37.484  35.497   8.337
 1463POPC   C3A21281  37.585  35.251   7.930
 1463POPC   C4A21282  37.275  35.184   7.580
 1463POPC   C1B21283  38.001  35.745   8.835
 1463POPC   C2B21284  38.011  35.508   8.402
 1463POPC   C3B21285  38.059  35.415   7.957
 1463POPC   C4B21286  38.121  35.797   7.738
 1464POPC   NC321287  37.237  15.057   9.638
 1464POPC   PO421288  36.834  15.559   9.357
 1464POPC   GL121289  36.845  15.177   9.151
 1464POPC   GL221290  37.147  14.982   9.116
 1464POPC   C1A21291  36.786  15.090   8.769
 1464POPC   D2A21292  36.877  15.291   8.413
 1464POPC   C3A21293  36.749  15.077   8.083
 1464POPC   C4A21294  36.708  15.219   7.683
 1464POPC   C1B21295  37.325  15.108   8.685
 1464POPC   C2B21296  37.320  15.075   8.240
 1464POPC   C3B21297  37.213  15.209   7.901
 1464POPC   C4B21298  37.180  15.080   7.510
 1465POPC   NC321299  39.924  39.434   9.572
 1465POPC   PO421300  39.607  38.915   9.326
 1465POPC   GL121301  39.759  39.216   9.078
 1465POPC   GL221302  40.112  39.264   9.079
 1465POPC   C1A21303  39.842  39.131   8.638
 1465POPC   D2A21304  39.845  39.126   8.209
 1465POPC   C3A21305  40.065  39.189   7.856
 1465POPC   C4A21306  39.675  39.174   7.667
 1465POPC   C1B21307  40.312  39.354   8.648
 1465POPC   C2B21308  40.237  39.589   8.237
 1465POPC   C3B21309  40.338  39.665   7.780
 1465POPC   C4B21310  40.306  39.362   7.433
 1466POPC   NC321311  11.349   7.629   9.633
 1466POPC   PO421312  10.922   7.229   9.507
 1466POPC   GL121313  11.200   7.388   9.204
 1466POPC   GL221314  11.295   7.055   9.121
 1466POPC   C1A21315  11.502   7.557   8.899
 1466POPC   D2A21316  11.648   7.551   8.469
 1466POPC   C3A21317  11.464   7.728   8.105
 1466POPC   C4A21318  11.456   7.548   7.699
 1466POPC   C1B21319  11.146   7.231   8.719
 1466POPC   C2B21320  11.283   7.207   8.310
 1466POPC   C3B21321  11.076   7.349   7.970
 1466POPC   C4B21322  11.073   7.183   7.560
 1467POPC   NC321323  35.229   4.897   9.609
 1467POPC   PO421324  35.779   5.272   9.502
 1467POPC   GL121325  35.526   5.008   9.218
 1467POPC   GL221326  35.159   5.062   9.136
 1467POPC   C1A21327  35.501   4.836   8.839
 1467POPC   D2A21328  35.236   5.026   8.540
 1467POPC   C3A21329  35.463   5.068   8.155
 1467POPC   C4A21330  35.631   4.727   7.884
 1467POPC   C1B21331  34.910   5.325   8.859
 1467POPC   C2B21332  34.813   5.374   8.434
 1467POPC   C3B21333  34.685   5.467   8.024
 1467POPC   C4B21334  34.865   5.291   7.653
 1468POPC   NC321335  42.391  36.662   9.838
 1468POPC   PO421336  42.236  36.123   9.420
 1468POPC   GL121337  42.287  35.825   9.104
 1468POPC   GL221338  42.647  35.847   9.102
 1468POPC   C1A21339  42.309  35.811   8.656
 1468POPC   D2A21340  42.225  36.141   8.359
 1468POPC   C3A21341  42.184  36.006   7.944
 1468POPC   C4A21342  42.502  35.826   7.696
 1468POPC   C1B21343  42.632  36.183   8.773
 1468POPC   C2B21344  42.747  36.108   8.367
 1468POPC   C3B21345  42.658  36.206   7.984
 1468POPC   C4B21346  42.854  36.546   7.810
 1469POPC   NC321347  37.221  21.789   9.440
 1469POPC   PO421348  37.898  21.792   9.603
 1469POPC   GL121349  37.670  21.989   9.245
 1469POPC   GL221350  37.903  21.882   9.043
 1469POPC   C1A21351  37.516  22.198   8.825
 1469POPC   D2A21352  37.380  22.049   8.392
 1469POPC   C3A21353  37.505  22.228   7.989
 1469POPC   C4A21354  37.311  22.517   7.732
 1469POPC   C1B21355  37.793  21.826   8.621
 1469POPC   C2B21356  37.853  21.884   8.189
 1469POPC   C3B21357  37.938  22.028   7.777
 1469POPC   C4B21358  38.043  22.034   7.298
 1470POPC   NC321359  15.057  31.964   9.588
 1470POPC   PO421360  15.405  32.551   9.581
 1470POPC   GL121361  15.291  32.272   9.260
 1470POPC   GL221362  15.560  32.372   9.090
 1470POPC   C1A21363  15.087  32.282   8.861
 1470POPC   D2A21364  15.286  32.326   8.450
 1470POPC   C3A21365  15.081  32.201   8.100
 1470POPC   C4A21366  15.299  32.060   7.765
 1470POPC   C1B21367  15.572  32.080   8.798
 1470POPC   C2B21368  15.753  32.090   8.397
 1470POPC   C3B21369  15.649  32.316   8.042
 1470POPC   C4B21370  15.758  32.206   7.616
 1471POPC   NC321371  33.184   3.247   9.454
 1471POPC   PO421372  32.877   3.924   9.294
 1471POPC   GL121373  32.974   3.551   9.112
 1471POPC   GL221374  33.328   3.582   9.092
 1471POPC   C1A21375  32.894   3.431   8.706
 1471POPC   D2A21376  32.750   3.750   8.417
 1471POPC   C3A21377  32.769   3.548   8.038
 1471POPC   C4A21378  33.024   3.204   7.859
 1471POPC   C1B21379  33.415   3.456   8.678
 1471POPC   C2B21380  33.265   3.495   8.248
 1471POPC   C3B21381  33.374   3.640   7.835
 1471POPC   C4B21382  33.420   3.734   7.379
 1472POPC   NC321383  40.357   1.354   9.475
 1472POPC   PO421384  40.883   0.956   9.516
 1472POPC   GL121385  40.961   1.114   9.133
 1472POPC   GL221386  41.238   0.889   9.099
 1472POPC   C1A21387  40.744   1.380   8.805
 1472POPC   D2A21388  40.536   1.303   8.414
 1472POPC   C3A21389  40.679   1.544   8.100
 1472POPC   C4A21390  40.880   1.413   7.752
 1472POPC   C1B21391  41.001   0.759   8.712
 1472POPC   C2B21392  40.872   0.722   8.260
 1472POPC   C3B21393  40.650   1.008   7.980
 1472POPC   C4B21394  40.223   1.008   8.028
 1473POPC   NC321395   1.377  38.048   9.665
 1473POPC   PO421396   1.345  37.415   9.542
 1473POPC   GL121397   1.405  37.711   9.234
 1473POPC   GL221398   1.088  37.904   9.230
 1473POPC   C1A21399   1.396  37.877   8.818
 1473POPC   D2A21400   1.146  37.985   8.432
 1473POPC   C3A21401   1.261  37.683   8.105
 1473POPC   C4A21402   1.463  37.297   8.008
 1473POPC   C1B21403   0.993  37.582   8.897
 1473POPC   C2B21404   0.888  37.515   8.455
 1473POPC   C3B21405   0.854  37.392   8.022
 1473POPC   C4B21406   1.124  37.414   7.655
 1474POPC   NC321407  39.263  31.153   9.452
 1474POPC   PO421408  38.899  30.479   9.500
 1474POPC   GL121409  39.078  30.713   9.145
 1474POPC   GL221410  39.439  30.814   9.130
 1474POPC   C1A21411  39.196  30.715   8.699
 1474POPC   D2A21412  39.325  30.831   8.290
 1474POPC   C3A21413  39.326  30.540   7.970
 1474POPC   C4A21414  39.214  30.844   7.697
 1474POPC   C1B21415  39.688  30.848   8.748
 1474POPC   C2B21416  39.843  30.834   8.326
 1474POPC   C3B21417  39.696  30.902   7.881
 1474POPC   C4B21418  39.577  30.992   7.389
 1475POPC   NC321419  14.843  26.732   9.741
 1475POPC   PO421420  15.111  26.160   9.466
 1475POPC   GL121421  15.309  26.138   9.091
 1475POPC   GL221422  15.235  25.810   9.057
 1475POPC   C1A21423  15.293  26.321   8.678
 1475POPC   D2A21424  15.145  26.158   8.281
 1475POPC   C3A21425  15.448  26.014   7.987
 1475POPC   C4A21426  15.507  26.133   7.512
 1475POPC   C1B21427  15.075  25.824   8.673
 1475POPC   C2B21428  15.231  25.623   8.325
 1475POPC   C3B21429  15.120  25.601   7.895
 1475POPC   C4B21430  15.456  25.663   7.632
 1476POPC   NC321431   3.183  28.397   9.823
 1476POPC   PO421432   3.737  28.620   9.543
 1476POPC   GL121433   3.724  28.362   9.195
 1476POPC   GL221434   3.386  28.439   9.144
 1476POPC   C1A21435   3.616  28.110   8.817
 1476POPC   D2A21436   3.803  28.189   8.446
 1476POPC   C3A21437   3.604  28.046   8.108
 1476POPC   C4A21438   3.742  28.050   7.734
 1476POPC   C1B21439   3.578  28.608   8.711
 1476POPC   C2B21440   3.516  28.554   8.239
 1476POPC   C3B21441   3.494  28.561   7.750
 1476POPC   C4B21442   3.218  28.669   7.367
 1477POPC   NC321443  40.445  35.546   9.710
 1477POPC   PO421444  40.027  35.032   9.668
 1477POPC   GL121445  39.928  35.267   9.293
 1477POPC   GL221446  40.204  35.455   9.195
 1477POPC   C1A21447  39.877  35.155   8.862
 1477POPC   D2A21448  39.702  35.125   8.450
 1477POPC   C3A21449  39.998  35.336   8.166
 1477POPC   C4A21450  40.007  35.345   7.719
 1477POPC   C1B21451  40.039  35.645   8.796
 1477POPC   C2B21452  40.159  35.801   8.380
 1477POPC   C3B21453  40.314  35.710   7.957
 1477POPC   C4B21454  40.100  35.861   7.593
 1478POPC   NC321455  22.503  30.136   9.478
 1478POPC   PO421456  21.800  29.951   9.509
 1478POPC   GL121457  22.021  30.063   9.161
 1478POPC   GL221458  22.349  29.900   9.055
 1478POPC   C1A21459  21.947  29.976   8.750
 1478POPC   D2A21460  22.092  29.990   8.361
 1478POPC   C3A21461  21.772  30.108   8.094
 1478POPC   C4A21462  21.932  30.156   7.720
 1478POPC   C1B21463  22.553  29.719   8.679
 1478POPC   C2B21464  22.540  29.785   8.238
 1478POPC   C3B21465  22.284  29.793   7.888
 1478POPC   C4B21466  22.546  29.790   7.534
 1479POPC   NC321467  39.014   7.104   9.652
 1479POPC   PO421468  38.752   7.351   9.104
 1479POPC   GL121469  39.057   7.451   8.847
 1479POPC   GL221470  39.362   7.566   8.977
 1479POPC   C1A21471  39.075   7.313   8.473
 1479POPC   D2A21472  39.125   7.335   8.086
 1479POPC   C3A21473  38.837   7.148   7.860
 1479POPC   C4A21474  39.059   7.337   7.536
 1479POPC   C1B21475  39.482   7.634   8.607
 1479POPC   C2B21476  39.594   7.362   8.301
 1479POPC   C3B21477  39.531   7.642   8.032
 1479POPC   C4B21478  39.496   7.784   7.653
 1480POPC   NC321479   6.807  21.275   9.529
 1480POPC   PO421480   6.607  21.861   9.467
 1480POPC   GL121481   6.577  21.479   9.129
 1480POPC   GL221482   6.657  21.111   9.073
 1480POPC   C1A21483   6.663  21.444   8.691
 1480POPC   D2A21484   6.400  21.298   8.377
 1480POPC   C3A21485   6.592  21.496   8.072
 1480POPC   C4A21486   6.648  21.532   7.659
 1480POPC   C1B21487   6.988  21.050   8.747
 1480POPC   C2B21488   7.125  21.101   8.295
 1480POPC   C3B21489   6.924  21.159   7.878
 1480POPC   C4B21490   6.994  21.251   7.406
 1481POPC   NC321491  41.127  10.366   9.827
 1481POPC   PO421492  41.745  10.425   9.813
 1481POPC   GL121493  41.776  10.639   9.299
 1481POPC   GL221494  41.763  10.348   9.133
 1481POPC   C1A21495  41.508  10.701   8.852
 1481POPC   D2A21496  41.246  10.817   8.507
 1481POPC   C3A21497  41.293  10.842   8.054
 1481POPC   C4A21498  41.467  10.661   7.684
 1481POPC   C1B21499  41.615  10.225   8.737
 1481POPC   C2B21500  41.460  10.362   8.414
 1481POPC   C3B21501  41.634  10.375   8.089
 1481POPC   C4B21502  41.626  10.098   7.827
 1482POPC   NC321503  19.623  37.955   9.496
 1482POPC   PO421504  19.507  37.361   9.324
 1482POPC   GL121505  19.700  37.611   9.047
 1482POPC   GL221506  19.991  37.781   9.146
 1482POPC   C1A21507  19.597  37.730   8.639
 1482POPC   D2A21508  19.571  37.486   8.267
 1482POPC   C3A21509  19.591  37.715   7.869
 1482POPC   C4A21510  19.762  37.868   7.487
 1482POPC   C1B21511  20.121  37.727   8.717
 1482POPC   C2B21512  19.988  37.747   8.277
 1482POPC   C3B21513  20.067  37.973   7.908
 1482POPC   C4B21514  19.961  38.357   7.704
 1483POPC   NC321515   7.373  27.085   9.552
 1483POPC   PO421516   7.552  27.662   9.489
 1483POPC   GL121517   7.466  27.568   9.075
 1483POPC   GL221518   7.101  27.481   9.148
 1483POPC   C1A21519   7.248  27.651   8.675
 1483POPC   D2A21520   7.071  27.686   8.262
 1483POPC   C3A21521   7.318  27.609   7.943
 1483POPC   C4A21522   7.538  27.984   7.896
 1483POPC   C1B21523   7.205  27.168   8.821
 1483POPC   C2B21524   7.248  27.224   8.371
 1483POPC   C3B21525   7.196  27.118   7.906
 1483POPC   C4B21526   7.394  27.108   7.478
 1484POPC   NC321527  32.177  15.968   9.482
 1484POPC   PO421528  32.832  15.897   9.390
 1484POPC   GL121529  32.528  15.918   9.069
 1484POPC   GL221530  32.267  16.204   9.057
 1484POPC   C1A21531  32.243  15.810   8.756
 1484POPC   D2A21532  32.053  15.883   8.403
 1484POPC   C3A21533  32.237  15.711   8.082
 1484POPC   C4A21534  32.418  15.801   7.733
 1484POPC   C1B21535  31.920  16.257   8.784
 1484POPC   C2B21536  31.789  16.331   8.355
 1484POPC   C3B21537  31.996  16.163   7.974
 1484POPC   C4B21538  31.938  15.988   7.588
 1485POPC   NC321539  42.996  32.416   9.538
 1485POPC   PO421540  43.601  32.317   9.718
 1485POPC   GL121541  43.360  32.226   9.225
 1485POPC   GL221542  43.018  32.051   9.198
 1485POPC   C1A21543  43.281  31.974   8.765
 1485POPC   D2A21544  43.371  31.885   8.336
 1485POPC   C3A21545  43.306  32.136   7.965
 1485POPC   C4A21546  43.210  32.165   7.528
 1485POPC   C1B21547  42.939  32.331   8.843
 1485POPC   C2B21548  42.920  32.148   8.409
 1485POPC   C3B21549  42.808  32.159   7.963
 1485POPC   C4B21550  42.610  32.490   7.750
 1486POPC   NC321551  41.121  26.790   9.331
 1486POPC   PO421552  41.703  27.038   9.547
 1486POPC   GL121553  41.629  26.764   9.157
 1486POPC   GL221554  41.906  26.463   9.139
 1486POPC   C1A21555  41.400  26.763   8.699
 1486POPC   D2A21556  41.282  26.944   8.264
 1486POPC   C3A21557  41.317  26.644   7.931
 1486POPC   C4A21558  41.310  26.584   7.468
 1486POPC   C1B21559  41.885  26.656   8.737
 1486POPC   C2B21560  41.719  26.711   8.307
 1486POPC   C3B21561  41.697  26.970   7.936
 1486POPC   C4B21562  41.797  26.722   7.611
 1487POPC   NC321563  29.264  28.124   9.586
 1487POPC   PO421564  28.905  28.639   9.604
 1487POPC   GL121565  29.063  28.453   9.234
 1487POPC   GL221566  28.971  28.106   9.164
 1487POPC   C1A21567  29.142  28.515   8.821
 1487POPC   D2A21568  29.181  28.317   8.430
 1487POPC   C3A21569  29.446  28.447   8.111
 1487POPC   C4A21570  29.384  28.533   7.701
 1487POPC   C1B21571  29.024  27.792   8.847
 1487POPC   C2B21572  28.992  27.830   8.412
 1487POPC   C3B21573  28.971  28.043   8.021
 1487POPC   C4B21574  29.122  28.109   7.574
 1488POPC   NC321575  26.363  26.265   9.484
 1488POPC   PO421576  25.633  26.132   9.559
 1488POPC   GL121577  25.896  26.258   9.203
 1488POPC   GL221578  26.142  25.990   9.100
 1488POPC   C1A21579  25.799  26.109   8.766
 1488POPC   D2A21580  26.093  26.065   8.452
 1488POPC   C3A21581  25.841  25.972   8.080
 1488POPC   C4A21582  25.927  25.643   7.799
 1488POPC   C1B21583  26.464  26.172   8.832
 1488POPC   C2B21584  26.440  26.480   8.485
 1488POPC   C3B21585  26.272  26.359   8.076
 1488POPC   C4B21586  26.153  26.132   7.721
 1489POPC   NC321587  24.742  31.587   9.350
 1489POPC   PO421588  24.405  31.029   9.668
 1489POPC   GL121589  24.283  31.290   9.228
 1489POPC   GL221590  24.300  31.648   9.132
 1489POPC   C1A21591  24.407  31.312   8.760
 1489POPC   D2A21592  24.323  31.412   8.328
 1489POPC   C3A21593  24.630  31.360   7.984
 1489POPC   C4A21594  24.372  31.364   7.582
 1489POPC   C1B21595  24.529  31.812   8.733
 1489POPC   C2B21596  24.656  31.827   8.274
 1489POPC   C3B21597  24.459  31.817   7.853
 1489POPC   C4B21598  24.588  31.777   7.398
 1490POPC   NC321599  36.665   2.972   9.543
 1490POPC   PO421600  37.273   2.765   9.531
 1490POPC   GL121601  37.060   2.908   9.145
 1490POPC   GL221602  36.735   2.880   9.060
 1490POPC   C1A21603  37.143   3.037   8.718
 1490POPC   D2A21604  36.804   3.050   8.405
 1490POPC   C3A21605  36.803   2.883   7.982
 1490POPC   C4A21606  36.495   2.646   7.728
 1490POPC   C1B21607  36.843   2.622   8.729
 1490POPC   C2B21608  36.736   2.523   8.327
 1490POPC   C3B21609  37.020   2.406   7.998
 1490POPC   C4B21610  36.927   2.424   7.580
 1491POPC   NC321611  40.567   6.829   9.547
 1491POPC   PO421612  41.176   6.555   9.421
 1491POPC   GL121613  40.929   6.804   9.164
 1491POPC   GL221614  40.658   6.543   9.117
 1491POPC   C1A21615  40.814   6.854   8.741
 1491POPC   D2A21616  40.795   6.555   8.428
 1491POPC   C3A21617  40.909   6.704   8.033
 1491POPC   C4A21618  40.577   6.688   7.781
 1491POPC   C1B21619  40.920   6.255   8.829
 1491POPC   C2B21620  40.838   6.018   8.422
 1491POPC   C3B21621  40.785   6.197   8.044
 1491POPC   C4B21622  40.916   6.326   7.655
 1492POPC   NC321623  39.171  33.454   9.585
 1492POPC   PO421624  38.742  32.968   9.594
 1492POPC   GL121625  39.008  33.128   9.204
 1492POPC   GL221626  39.400  33.244   9.173
 1492POPC   C1A21627  39.114  33.113   8.754
 1492POPC   D2A21628  39.334  33.068   8.378
 1492POPC   C3A21629  39.216  33.082   7.953
 1492POPC   C4A21630  39.062  33.259   7.540
 1492POPC   C1B21631  39.576  32.910   8.888
 1492POPC   C2B21632  39.606  32.661   8.499
 1492POPC   C3B21633  39.624  32.761   8.046
 1492POPC   C4B21634  39.369  32.750   7.617
 1493POPC   NC321635  40.156  27.052   9.511
 1493POPC   PO421636  40.092  26.409   9.438
 1493POPC   GL121637  40.005  26.733   9.115
 1493POPC   GL221638  40.334  26.749   9.132
 1493POPC   C1A21639  40.062  27.085   8.780
 1493POPC   D2A21640  40.023  27.323   8.363
 1493POPC   C3A21641  39.988  27.092   7.962
 1493POPC   C4A21642  40.226  27.106   7.579
 1493POPC   C1B21643  40.415  26.723   8.704
 1493POPC   C2B21644  40.272  26.817   8.299
 1493POPC   C3B21645  40.420  26.757   7.883
 1493POPC   C4B21646  40.438  26.575   7.449
 1494POPC   NC321647  42.292  14.163   9.762
 1494POPC   PO421648  42.598  14.696   9.370
 1494POPC   GL121649  42.505  14.660   9.000
 1494POPC   GL221650  42.205  14.790   9.017
 1494POPC   C1A21651  42.604  14.405   8.666
 1494POPC   D2A21652  42.811  14.471   8.313
 1494POPC   C3A21653  42.598  14.207   8.043
 1494POPC   C4A21654  42.443  14.311   7.692
 1494POPC   C1B21655  42.088  14.431   8.770
 1494POPC   C2B21656  42.176  14.264   8.365
 1494POPC   C3B21657  42.009  14.328   7.950
 1494POPC   C4B21658  42.047  14.624   7.580
 1495POPC   NC321659   4.276   2.291   9.551
 1495POPC   PO421660   4.313   2.988   9.496
 1495POPC   GL121661   4.261   2.897   9.098
 1495POPC   GL221662   4.213   2.559   9.123
 1495POPC   C1A21663   4.223   2.925   8.687
 1495POPC   D2A21664   4.463   2.906   8.355
 1495POPC   C3A21665   4.304   2.924   7.941
 1495POPC   C4A21666   4.444   3.036   7.543
 1495POPC   C1B21667   4.254   2.367   8.746
 1495POPC   C2B21668   4.209   2.471   8.348
 1495POPC   C3B21669   4.184   2.445   7.943
 1495POPC   C4B21670   4.257   2.559   7.521
 1496POPC   NC321671  44.765  22.639   9.564
 1496POPC   PO421672  44.109  22.937   9.497
 1496POPC   GL121673  44.424  22.747   9.193
 1496POPC   GL221674  44.795  22.937   9.121
 1496POPC   C1A21675  44.501  22.682   8.759
 1496POPC   D2A21676  44.702  22.890   8.406
 1496POPC   C3A21677  44.522  22.779   8.022
 1496POPC   C4A21678  44.676  22.814   7.616
 1496POPC   C1B21679  44.938  23.208   8.748
 1496POPC   C2B21680  44.927  23.333   8.261
 1496POPC   C3B21681   0.054  23.106   7.875
 1496POPC   C4B21682   0.106  23.090   7.425
 1497POPC   NC321683  43.216  36.426   9.722
 1497POPC   PO421684  43.304  35.815   9.523
 1497POPC   GL121685  43.151  35.975   9.169
 1497POPC   GL221686  42.971  36.283   9.259
 1497POPC   C1A21687  43.069  35.949   8.744
 1497POPC   D2A21688  43.206  35.827   8.361
 1497POPC   C3A21689  43.127  36.029   7.988
 1497POPC   C4A21690  43.348  35.926   7.644
 1497POPC   C1B21691  43.130  36.448   8.865
 1497POPC   C2B21692  43.235  36.330   8.425
 1497POPC   C3B21693  43.305  36.520   8.022
 1497POPC   C4B21694  43.294  36.433   7.555
 1498POPC   NC321695  43.669  26.551   9.630
 1498POPC   PO421696  44.019  27.107   9.442
 1498POPC   GL121697  44.014  26.827   9.133
 1498POPC   GL221698  43.700  26.817   9.160
 1498POPC   C1A21699  44.120  26.794   8.700
 1498POPC   D2A21700  43.840  26.761   8.344
 1498POPC   C3A21701  44.081  26.798   8.004
 1498POPC   C4A21702  44.154  27.066   7.686
 1498POPC   C1B21703  43.661  26.598   8.808
 1498POPC   C2B21704  43.500  26.342   8.500
 1498POPC   C3B21705  43.467  26.468   8.109
 1498POPC   C4B21706  43.759  26.483   7.765
 1499POPC   NC321707  10.091  22.162   9.670
 1499POPC   PO421708   9.466  21.937   9.604
 1499POPC   GL121709   9.661  22.259   9.312
 1499POPC   GL221710   9.960  22.159   9.187
 1499POPC   C1A21711   9.688  22.363   8.829
 1499POPC   D2A21712   9.414  22.277   8.469
 1499POPC   C3A21713   9.611  22.314   8.060
 1499POPC   C4A21714   9.489  22.146   7.665
 1499POPC   C1B21715  10.055  21.879   8.864
 1499POPC   C2B21716  10.104  21.817   8.386
 1499POPC   C3B21717   9.961  21.934   7.935
 1499POPC   C4B21718   9.899  21.795   7.501
 1500POPC   NC321719  36.328  41.806   9.409
 1500POPC   PO421720  35.710  41.434   9.485
 1500POPC   GL121721  35.923  41.622   9.141
 1500POPC   GL221722  36.237  41.400   9.073
 1500POPC   C1A21723  36.030  41.721   8.721
 1500POPC   D2A21724  36.205  41.441   8.383
 1500POPC   C3A21725  35.997  41.419   7.992
 1500POPC   C4A21726  36.042  41.707   7.663
 1500POPC   C1B21727  36.541  41.577   8.753
 1500POPC   C2B21728  36.709  41.566   8.302
 1500POPC   C3B21729  36.477  41.535   7.888
 1500POPC   C4B21730  36.408  41.422   7.416
 1501POPC   NC321731   7.518  40.949   9.513
 1501POPC   PO421732   6.901  40.681   9.491
 1501POPC   GL121733   7.282  40.686   9.132
 1501POPC   GL221734   7.683  40.753   9.090
 1501POPC   C1A21735   7.366  40.923   8.737
 1501POPC   D2A21736   7.255  41.134   8.365
 1501POPC   C3A21737   7.329  40.908   7.982
 1501POPC   C4A21738   7.266  40.983   7.575
 1501POPC   C1B21739   7.878  40.798   8.716
 1501POPC   C2B21740   7.709  40.856   8.323
 1501POPC   C3B21741   7.824  40.978   7.913
 1501POPC   C4B21742   7.685  40.666   7.617
 1502POPC   NC321743   7.475  16.152   9.695
 1502POPC   PO421744   7.763  15.629   9.410
 1502POPC   GL121745   7.481  15.809   9.110
 1502POPC   GL221746   7.396  16.158   9.145
 1502POPC   C1A21747   7.533  16.002   8.690
 1502POPC   D2A21748   7.697  16.274   8.427
 1502POPC   C3A21749   7.548  16.106   8.065
 1502POPC   C4A21750   7.484  16.194   7.649
 1502POPC   C1B21751   7.052  16.071   8.799
 1502POPC   C2B21752   7.089  15.932   8.362
 1502POPC   C3B21753   7.054  16.178   7.977
 1502POPC   C4B21754   7.063  16.488   7.632
 1503POPC   NC321755  33.866  15.087   9.534
 1503POPC   PO421756  33.420  15.594   9.477
 1503POPC   GL121757  33.706  15.371   9.142
 1503POPC   GL221758  34.062  15.423   9.186
 1503POPC   C1A21759  33.554  15.223   8.723
 1503POPC   D2A21760  33.523  15.045   8.298
 1503POPC   C3A21761  33.834  15.187   7.995
 1503POPC   C4A21762  34.067  14.897   7.697
 1503POPC   C1B21763  34.265  15.339   8.764
 1503POPC   C2B21764  34.244  15.152   8.336
 1503POPC   C3B21765  34.342  15.283   7.901
 1503POPC   C4B21766  34.054  15.388   7.548
 1504POPC   NC321767  28.088  37.475   9.402
 1504POPC   PO421768  28.552  37.873   9.567
 1504POPC   GL121769  28.673  37.709   9.180
 1504POPC   GL221770  28.790  38.025   9.119
 1504POPC   C1A21771  28.483  37.525   8.807
 1504POPC   D2A21772  28.146  37.672   8.518
 1504POPC   C3A21773  28.204  37.549   8.108
 1504POPC   C4A21774  28.374  37.492   7.694
 1504POPC   C1B21775  28.892  37.860   8.720
 1504POPC   C2B21776  28.677  37.693   8.343
 1504POPC   C3B21777  28.789  37.726   7.898
 1504POPC   C4B21778  28.736  37.764   7.429
 1505POPC   NC321779  14.797  14.501   9.523
 1505POPC   PO421780  14.298  14.042   9.549
 1505POPC   GL121781  14.516  14.199   9.179
 1505POPC   GL221782  14.857  14.080   9.164
 1505POPC   C1A21783  14.465  14.435   8.782
 1505POPC   D2A21784  14.319  14.434   8.341
 1505POPC   C3A21785  14.591  14.482   7.984
 1505POPC   C4A21786  14.710  14.870   7.762
 1505POPC   C1B21787  14.778  14.021   8.709
 1505POPC   C2B21788  14.622  14.017   8.251
 1505POPC   C3B21789  14.271  14.048   7.969
 1505POPC   C4B21790  14.068  14.442   7.863
 1506POPC   NC321791  41.962  13.529   9.736
 1506POPC   PO421792  42.373  12.926   9.730
 1506POPC   GL121793  42.213  13.097   9.331
 1506POPC   GL221794  42.066  12.800   9.138
 1506POPC   C1A21795  42.301  13.188   8.896
 1506POPC   D2A21796  42.481  13.070   8.500
 1506POPC   C3A21797  42.292  12.865   8.160
 1506POPC   C4A21798  42.333  13.058   7.788
 1506POPC   C1B21799  42.429  12.687   8.867
 1506POPC   C2B21800  42.620  12.574   8.479
 1506POPC   C3B21801  42.742  12.618   8.083
 1506POPC   C4B21802  42.481  12.563   7.750
 1507POPC   NC321803   5.175  35.635   9.511
 1507POPC   PO421804   4.816  35.237   9.123
 1507POPC   GL121805   5.249  35.320   9.055
 1507POPC   GL221806   5.433  35.669   9.084
 1507POPC   C1A21807   5.508  35.324   8.707
 1507POPC   D2A21808   5.544  35.595   8.355
 1507POPC   C3A21809   5.337  35.385   8.035
 1507POPC   C4A21810   5.176  35.327   7.604
 1507POPC   C1B21811   5.194  35.705   8.722
 1507POPC   C2B21812   5.046  35.384   8.465
 1507POPC   C3B21813   4.804  35.259   8.133
 1507POPC   C4B21814   4.686  35.392   7.766
 1508POPC   NC321815  38.047  23.150   9.885
 1508POPC   PO421816  37.692  22.771   9.609
 1508POPC   GL121817  37.699  22.779   9.162
 1508POPC   GL221818  37.398  22.894   8.985
 1508POPC   C1A21819  37.802  22.636   8.739
 1508POPC   D2A21820  37.560  22.563   8.375
 1508POPC   C3A21821  37.716  22.741   7.984
 1508POPC   C4A21822  38.097  22.813   7.708
 1508POPC   C1B21823  37.468  23.044   8.541
 1508POPC   C2B21824  37.601  23.283   8.136
 1508POPC   C3B21825  37.584  23.458   7.684
 1508POPC   C4B21826  37.333  23.348   7.290
 1509POPC   NC321827  37.488  27.841   9.638
 1509POPC   PO421828  38.024  27.377   9.605
 1509POPC   GL121829  37.772  27.602   9.301
 1509POPC   GL221830  37.943  27.900   9.335
 1509POPC   C1A21831  37.522  27.458   8.951
 1509POPC   D2A21832  37.460  27.367   8.535
 1509POPC   C3A21833  37.510  27.540   8.142
 1509POPC   C4A21834  37.600  27.422   7.735
 1509POPC   C1B21835  37.909  27.845   8.852
 1509POPC   C2B21836  37.743  27.913   8.395
 1509POPC   C3B21837  37.900  27.849   7.937
 1509POPC   C4B21838  37.975  27.654   7.485
 1510POPC   NC321839  26.096   0.334   9.305
 1510POPC   PO421840  25.731   0.720   9.719
 1510POPC   GL121841  25.627   0.546   9.208
 1510POPC   GL221842  25.799   0.247   8.930
 1510POPC   C1A21843  25.684   0.689   8.774
 1510POPC   D2A21844  26.061   0.595   8.598
 1510POPC   C3A21845  26.085   0.503   8.189
 1510POPC   C4A21846  26.203   0.772   7.858
 1510POPC   C1B21847  26.251   0.143   8.725
 1510POPC   C2B21848  26.484   0.093   8.315
 1510POPC   C3B21849  26.399   0.262   7.886
 1510POPC   C4B21850  25.991   0.365   7.665
 1511POPC   NC321851  36.822  15.966   9.598
 1511POPC   PO421852  37.344  15.713   9.559
 1511POPC   GL121853  37.108  15.933   9.147
 1511POPC   GL221854  36.736  15.995   9.095
 1511POPC   C1A21855  36.921  15.733   8.728
 1511POPC   D2A21856  37.062  15.767   8.351
 1511POPC   C3A21857  36.885  15.633   8.001
 1511POPC   C4A21858  36.960  16.008   7.785
 1511POPC   C1B21859  36.604  16.171   8.699
 1511POPC   C2B21860  36.728  16.136   8.259
 1511POPC   C3B21861  36.470  15.953   7.927
 1511POPC   C4B21862  36.234  15.977   7.525
 1512POPC   NC321863  13.001  24.001   9.280
 1512POPC   PO421864  12.389  23.809   9.502
 1512POPC   GL121865  12.630  23.676   9.118
 1512POPC   GL221866  12.961  23.508   9.202
 1512POPC   C1A21867  12.677  23.716   8.654
 1512POPC   D2A21868  13.035  23.727   8.379
 1512POPC   C3A21869  13.077  23.918   8.007
 1512POPC   C4A21870  12.845  23.964   7.648
 1512POPC   C1B21871  13.124  23.437   8.795
 1512POPC   C2B21872  13.219  23.254   8.373
 1512POPC   C3B21873  13.022  23.404   7.951
 1512POPC   C4B21874  13.191  23.446   7.534
 1513POPC   NC321875  32.544   0.740   9.615
 1513POPC   PO421876  31.934   0.369   9.603
 1513POPC   GL121877  32.057   0.258   9.180
 1513POPC   GL221878  32.205   0.559   9.123
 1513POPC   C1A21879  31.966   0.275   8.735
 1513POPC   D2A21880  32.162   0.214   8.344
 1513POPC   C3A21881  31.930   0.450   8.039
 1513POPC   C4A21882  31.854   0.339   7.581
 1513POPC   C1B21883  32.465   0.322   8.826
 1513POPC   C2B21884  32.637   0.413   8.421
 1513POPC   C3B21885  32.541   0.407   8.004
 1513POPC   C4B21886  32.292   0.555   7.694
 1514POPC   NC321887  21.082  39.996   9.546
 1514POPC   PO421888  21.704  40.083   9.332
 1514POPC   GL121889  21.399  39.921   9.090
 1514POPC   GL221890  21.107  40.162   9.081
 1514POPC   C1A21891  21.565  39.943   8.683
 1514POPC   D2A21892  21.727  40.247   8.441
 1514POPC   C3A21893  21.659  40.055   8.076
 1514POPC   C4A21894  21.549  40.182   7.685
 1514POPC   C1B21895  21.083  40.032   8.678
 1514POPC   C2B21896  21.217  40.163   8.295
 1514POPC   C3B21897  21.165  39.954   7.918
 1514POPC   C4B21898  20.844  40.027   7.680
 1515POPC   NC321899   6.091   7.734   9.512
 1515POPC   PO421900   5.692   7.208   9.553
 1515POPC   GL121901   5.916   7.351   9.203
 1515POPC   GL221902   5.708   7.637   9.174
 1515POPC   C1A21903   6.047   7.458   8.779
 1515POPC   D2A21904   6.301   7.326   8.414
 1515POPC   C3A21905   6.066   7.341   8.029
 1515POPC   C4A21906   5.957   7.067   7.677
 1515POPC   C1B21907   5.574   7.718   8.741
 1515POPC   C2B21908   5.726   7.702   8.296
 1515POPC   C3B21909   5.646   7.647   7.840
 1515POPC   C4B21910   5.649   7.776   7.347
 1516POPC   NC321911  34.564  37.860   9.278
 1516POPC   PO421912  35.091  37.504   9.622
 1516POPC   GL121913  34.883  37.431   9.159
 1516POPC   GL221914  34.548  37.349   9.110
 1516POPC   C1A21915  34.862  37.673   8.703
 1516POPC   D2A21916  34.636  37.969   8.415
 1516POPC   C3A21917  34.468  37.827   7.993
 1516POPC   C4A21918  34.670  37.627   7.605
 1516POPC   C1B21919  34.371  37.502   8.734
 1516POPC   C2B21920  34.523  37.471   8.339
 1516POPC   C3B21921  34.453  37.304   7.933
 1516POPC   C4B21922  34.223  37.368   7.558
 1517POPC   NC321923   8.477  11.678   9.512
 1517POPC   PO421924   8.095  11.103   9.560
 1517POPC   GL121925   8.053  11.201   9.135
 1517POPC   GL221926   8.206  11.506   9.110
 1517POPC   C1A21927   8.252  11.050   8.752
 1517POPC   D2A21928   8.397  11.258   8.404
 1517POPC   C3A21929   8.170  11.360   8.009
 1517POPC   C4A21930   8.103  11.041   7.756
 1517POPC   C1B21931   8.010  11.493   8.697
 1517POPC   C2B21932   7.764  11.510   8.344
 1517POPC   C3B21933   7.745  11.705   7.960
 1517POPC   C4B21934   8.021  11.894   7.708
 1518POPC   NC321935  16.831  23.432   9.598
 1518POPC   PO421936  16.775  22.715   9.625
 1518POPC   GL121937  16.930  22.913   9.233
 1518POPC   GL221938  16.651  23.104   9.134
 1518POPC   C1A21939  16.934  22.880   8.751
 1518POPC   D2A21940  17.141  22.676   8.430
 1518POPC   C3A21941  16.913  22.675   8.066
 1518POPC   C4A21942  16.827  22.975   7.768
 1518POPC   C1B21943  16.663  23.302   8.725
 1518POPC   C2B21944  16.756  23.170   8.294
 1518POPC   C3B21945  16.608  23.405   7.920
 1518POPC   C4B21946  16.679  23.383   7.433
 1519POPC   NC321947  28.035   1.352   9.388
 1519POPC   PO421948  28.741   1.047   9.448
 1519POPC   GL121949  28.583   1.169   9.063
 1519POPC   GL221950  28.245   1.091   9.026
 1519POPC   C1A21951  28.544   1.054   8.617
 1519POPC   D2A21952  28.679   0.846   8.259
 1519POPC   C3A21953  28.629   1.038   7.894
 1519POPC   C4A21954  28.240   0.936   7.754
 1519POPC   C1B21955  28.316   1.482   8.728
 1519POPC   C2B21956  28.495   1.481   8.280
 1519POPC   C3B21957  28.438   1.548   7.802
 1519POPC   C4B21958  28.670   1.516   7.388
 1520POPC   NC321959  29.387  30.184   9.508
 1520POPC   PO421960  29.214  29.562   9.546
 1520POPC   GL121961  29.053  29.665   9.108
 1520POPC   GL221962  29.043  29.999   9.128
 1520POPC   C1A21963  29.034  29.778   8.660
 1520POPC   D2A21964  29.053  29.594   8.291
 1520POPC   C3A21965  28.815  29.794   7.971
 1520POPC   C4A21966  28.990  29.684   7.586
 1520POPC   C1B21967  29.374  30.090   8.861
 1520POPC   C2B21968  29.385  30.226   8.453
 1520POPC   C3B21969  29.454  30.349   8.044
 1520POPC   C4B21970  29.122  30.169   7.746
 1521POPC   NC321971  11.923  13.619   9.565
 1521POPC   PO421972  12.501  13.529   9.297
 1521POPC   GL121973  12.102  13.681   9.087
 1521POPC   GL221974  11.809  13.936   9.161
 1521POPC   C1A21975  12.051  13.655   8.657
 1521POPC   D2A21976  12.116  13.481   8.259
 1521POPC   C3A21977  12.267  13.676   7.903
 1521POPC   C4A21978  12.280  13.403   7.546
 1521POPC   C1B21979  11.573  13.811   8.820
 1521POPC   C2B21980  11.596  13.674   8.403
 1521POPC   C3B21981  11.805  13.868   8.067
 1521POPC   C4B21982  11.787  13.847   7.629
 1522POPC   NC321983   9.267   4.345   9.566
 1522POPC   PO421984   8.673   4.394   9.584
 1522POPC   GL121985   8.871   4.181   9.245
 1522POPC   GL221986   9.123   4.432   9.095
 1522POPC   C1A21987   9.005   4.012   8.845
 1522POPC   D2A21988   9.092   4.326   8.545
 1522POPC   C3A21989   9.057   4.318   8.149
 1522POPC   C4A21990   9.001   4.151   7.769
 1522POPC   C1B21991   8.733   4.505   8.862
 1522POPC   C2B21992   8.648   4.620   8.434
 1522POPC   C3B21993   8.641   4.550   7.995
 1522POPC   C4B21994   8.852   4.600   7.610
 1523POPC   NC321995  12.370  36.832   9.456
 1523POPC   PO421996  11.774  37.148   9.548
 1523POPC   GL121997  11.866  36.959   9.172
 1523POPC   GL221998  12.190  37.087   9.032
 1523POPC   C1A21999  11.723  37.020   8.780
 1523POPC   D2A22000  12.003  37.125   8.468
 1523POPC   C3A22001  11.879  36.961   8.085
 1523POPC   C4A22002  11.768  36.905   7.639
 1523POPC   C1B22003  12.115  36.693   8.775
 1523POPC   C2B22004  12.128  36.596   8.325
 1523POPC   C3B22005  12.314  36.711   7.906
 1523POPC   C4B22006  12.240  36.749   7.448
 1524POPC   NC322007  10.277  23.543   9.700
 1524POPC   PO422008  10.572  23.950   9.305
 1524POPC   GL122009  10.420  23.530   9.182
 1524POPC   GL222010  10.047  23.395   9.254
 1524POPC   C1A22011  10.548  23.536   8.753
 1524POPC   D2A22012  10.679  23.909   8.496
 1524POPC   C3A22013  10.539  23.966   8.084
 1524POPC   C4A22014  10.626  23.885   7.670
 1524POPC   C1B22015  10.113  23.257   8.818
 1524POPC   C2B22016   9.929  23.228   8.407
 1524POPC   C3B22017  10.070  23.278   7.992
 1524POPC   C4B22018  10.466  23.474   7.960
 1525POPC   NC322019  30.942  17.423   9.380
 1525POPC   PO422020  30.946  18.081   9.404
 1525POPC   GL122021  30.759  17.926   9.010
 1525POPC   GL222022  30.962  17.666   8.945
 1525POPC   C1A22023  30.483  17.629   8.728
 1525POPC   D2A22024  30.451  17.318   8.386
 1525POPC   C3A22025  30.608  17.451   8.013
 1525POPC   C4A22026  30.362  17.550   7.700
 1525POPC   C1B22027  30.866  17.305   8.696
 1525POPC   C2B22028  30.881  17.672   8.396
 1525POPC   C3B22029  30.983  17.807   7.993
 1525POPC   C4B22030  31.064  17.505   7.731
 1526POPC   NC322031  14.458  39.912   9.971
 1526POPC   PO422032  14.348  40.433   9.454
 1526POPC   GL122033  14.379  40.254   9.032
 1526POPC   GL222034  14.587  39.921   8.989
 1526POPC   C1A22035  14.257  40.091   8.644
 1526POPC   D2A22036  14.321  39.915   8.272
 1526POPC   C3A22037  14.325  40.221   7.969
 1526POPC   C4A22038  14.200  39.921   7.696
 1526POPC   C1B22039  14.692  39.802   8.624
 1526POPC   C2B22040  14.803  39.731   8.268
 1526POPC   C3B22041  14.714  39.891   7.894
 1526POPC   C4B22042  14.638  39.859   7.431
 1527POPC   NC322043  39.204  13.485   9.569
 1527POPC   PO422044  38.593  13.409   9.360
 1527POPC   GL122045  38.950  13.484   9.118
 1527POPC   GL222046  39.150  13.801   9.181
 1527POPC   C1A22047  39.058  13.555   8.703
 1527POPC   D2A22048  39.163  13.546   8.289
 1527POPC   C3A22049  39.058  13.541   7.877
 1527POPC   C4A22050  39.394  13.350   7.677
 1527POPC   C1B22051  39.407  13.937   8.833
 1527POPC   C2B22052  39.400  13.986   8.376
 1527POPC   C3B22053  39.502  13.786   7.960
 1527POPC   C4B22054  39.374  13.811   7.495
 1528POPC   NC322055  21.217  11.840   9.914
 1528POPC   PO422056  21.275  12.351   9.517
 1528POPC   GL122057  21.247  12.202   9.112
 1528POPC   GL222058  21.397  11.887   9.112
 1528POPC   C1A22059  21.433  12.203   8.699
 1528POPC   D2A22060  21.257  12.299   8.296
 1528POPC   C3A22061  21.507  12.212   7.933
 1528POPC   C4A22062  21.547  12.179   7.476
 1528POPC   C1B22063  21.275  11.715   8.694
 1528POPC   C2B22064  21.395  11.752   8.242
 1528POPC   C3B22065  21.470  11.712   7.775
 1528POPC   C4B22066  21.339  11.708   7.309
 1529POPC   NC322067  42.519  21.591   9.675
 1529POPC   PO422068  42.182  21.116   9.401
 1529POPC   GL122069  42.404  21.315   9.113
 1529POPC   GL222070  42.659  21.581   9.197
 1529POPC   C1A22071  42.236  21.363   8.718
 1529POPC   D2A22072  42.292  21.597   8.361
 1529POPC   C3A22073  42.283  21.316   8.037
 1529POPC   C4A22074  41.967  21.128   7.823
 1529POPC   C1B22075  42.620  21.722   8.791
 1529POPC   C2B22076  42.822  21.681   8.409
 1529POPC   C3B22077  42.690  21.653   8.004
 1529POPC   C4B22078  42.362  21.714   7.735
 1530POPC   NC322079   8.942  29.562   9.556
 1530POPC   PO422080   8.762  30.136   9.349
 1530POPC   GL122081   9.057  30.060   9.040
 1530POPC   GL222082   9.162  29.741   9.139
 1530POPC   C1A22083   9.080  30.007   8.583
 1530POPC   D2A22084   8.871  29.782   8.256
 1530POPC   C3A22085   8.820  30.004   7.874
 1530POPC   C4A22086   9.205  30.074   7.692
 1530POPC   C1B22087   9.384  29.630   8.793
 1530POPC   C2B22088   9.356  29.595   8.359
 1530POPC   C3B22089   9.507  29.814   8.015
 1530POPC   C4B22090   9.534  29.664   7.606
 1531POPC   NC322091   7.393  29.819   9.344
 1531POPC   PO422092   7.825  30.277   9.655
 1531POPC   GL122093   7.802  30.140   9.238
 1531POPC   GL222094   7.526  30.369   9.198
 1531POPC   C1A22095   7.651  30.054   8.807
 1531POPC   D2A22096   7.561  30.222   8.424
 1531POPC   C3A22097   7.452  29.895   8.129
 1531POPC   C4A22098   7.751  29.716   7.825
 1531POPC   C1B22099   7.252  30.400   8.829
 1531POPC   C2B22100   7.055  30.159   8.511
 1531POPC   C3B22101   7.003  30.156   8.083
 1531POPC   C4B22102   7.030  30.045   7.667
 1532POPC   NC322103  22.000  44.095   9.601
 1532POPC   PO422104  22.183  43.485   9.677
 1532POPC   GL122105  22.154  43.748   9.261
 1532POPC   GL222106  22.393  43.610   9.065
 1532POPC   C1A22107  22.099  43.991   8.834
 1532POPC   D2A22108  21.871  44.121   8.406
 1532POPC   C3A22109  22.113  44.081   8.006
 1532POPC   C4A22110  22.296  43.834   7.656
 1532POPC   C1B22111  22.556  43.617   8.675
 1532POPC   C2B22112  22.532  43.759   8.250
 1532POPC   C3B22113  22.593  43.510   7.908
 1532POPC   C4B22114  22.558  43.470   7.425
 1533POPC   NC322115  27.563  13.864   9.669
 1533POPC   PO422116  27.288  13.242   9.513
 1533POPC   GL122117  27.312  13.499   9.150
 1533POPC   GL222118  27.629  13.636   9.193
 1533POPC   C1A22119  27.404  13.584   8.699
 1533POPC   D2A22120  27.728  13.666   8.378
 1533POPC   C3A22121  27.673  13.567   7.933
 1533POPC   C4A22122  27.837  13.544   7.483
 1533POPC   C1B22123  27.750  13.930   8.855
 1533POPC   C2B22124  27.903  14.186   8.504
 1533POPC   C3B22125  27.876  14.061   8.077
 1533POPC   C4B22126  27.686  14.000   7.679
 1534POPC   NC322127  24.841   2.796   9.465
 1534POPC   PO422128  24.182   2.632   9.472
 1534POPC   GL122129  24.205   2.562   9.049
 1534POPC   GL222130  24.525   2.754   9.055
 1534POPC   C1A22131  24.293   2.659   8.608
 1534POPC   D2A22132  24.460   2.938   8.329
 1534POPC   C3A22133  24.369   2.887   7.857
 1534POPC   C4A22134  24.255   2.651   7.475
 1534POPC   C1B22135  24.829   2.661   8.747
 1534POPC   C2B22136  24.816   2.498   8.377
 1534POPC   C3B22137  24.523   2.438   8.063
 1534POPC   C4B22138  24.701   2.529   7.667
 1535POPC   NC322139   3.285  33.784   9.553
 1535POPC   PO422140   3.877  34.048   9.519
 1535POPC   GL122141   3.673  33.797   9.192
 1535POPC   GL222142   3.483  33.469   9.180
 1535POPC   C1A22143   3.471  33.867   8.815
 1535POPC   D2A22144   3.341  34.104   8.454
 1535POPC   C3A22145   3.489  33.935   8.055
 1535POPC   C4A22146   3.589  34.139   7.649
 1535POPC   C1B22147   3.234  33.399   8.782
 1535POPC   C2B22148   3.303  33.592   8.402
 1535POPC   C3B22149   3.239  33.456   7.974
 1535POPC   C4B22150   3.416  33.667   7.629
 1536POPC   NC322151   9.818   4.786   9.448
 1536POPC   PO422152   9.619   4.090   9.446
 1536POPC   GL122153   9.640   4.404   9.164
 1536POPC   GL222154   9.977   4.481   9.074
 1536POPC   C1A22155   9.529   4.400   8.764
 1536POPC   D2A22156   9.497   3.990   8.547
 1536POPC   C3A22157   9.486   4.025   8.095
 1536POPC   C4A22158   9.456   4.381   7.825
 1536POPC   C1B22159   9.977   4.184   8.760
 1536POPC   C2B22160   9.873   4.283   8.355
 1536POPC   C3B22161   9.884   4.570   8.047
 1536POPC   C4B22162   9.966   4.436   7.642
 1537POPC   NC322163   7.145   3.090   9.390
 1537POPC   PO422164   7.223   2.435   9.366
 1537POPC   GL122165   7.369   2.748   9.105
 1537POPC   GL222166   7.696   2.773   8.990
 1537POPC   C1A22167   7.299   2.997   8.744
 1537POPC   D2A22168   7.515   2.890   8.366
 1537POPC   C3A22169   7.269   2.881   7.995
 1537POPC   C4A22170   7.364   3.108   7.650
 1537POPC   C1B22171   7.427   2.488   8.683
 1537POPC   C2B22172   7.501   2.312   8.287
 1537POPC   C3B22173   7.681   2.553   8.013
 1537POPC   C4B22174   7.579   2.630   7.628
 1538POPC   NC322175  20.414  40.738   9.598
 1538POPC   PO422176  20.946  41.136   9.406
 1538POPC   GL122177  20.683  40.893   9.146
 1538POPC   GL222178  20.698  40.529   9.196
 1538POPC   C1A22179  20.465  40.850   8.758
 1538POPC   D2A22180  20.671  40.936   8.373
 1538POPC   C3A22181  20.488  40.884   7.950
 1538POPC   C4A22182  20.848  40.908   7.669
 1538POPC   C1B22183  20.816  40.476   8.773
 1538POPC   C2B22184  20.696  40.370   8.340
 1538POPC   C3B22185  20.769  40.458   7.910
 1538POPC   C4B22186  20.755  40.466   7.424
 1539POPC   NC322187   8.936  23.357   9.549
 1539POPC   PO422188   9.013  24.087   9.577
 1539POPC   GL122189   9.057  23.794   9.268
 1539POPC   GL222190   8.699  23.708   9.222
 1539POPC   C1A22191   9.187  23.707   8.841
 1539POPC   D2A22192   9.117  23.568   8.405
 1539POPC   C3A22193   9.189  23.865   8.064
 1539POPC   C4A22194   9.064  23.861   7.644
 1539POPC   C1B22195   8.704  23.480   8.829
 1539POPC   C2B22196   8.583  23.569   8.385
 1539POPC   C3B22197   8.767  23.502   7.988
 1539POPC   C4B22198   8.676  23.512   7.540
 1540POPC   NC322199  12.201  42.648   9.519
 1540POPC   PO422200  12.020  41.946   9.541
 1540POPC   GL122201  12.185  42.223   9.240
 1540POPC   GL222202  11.870  42.351   9.217
 1540POPC   C1A22203  12.329  42.395   8.847
 1540POPC   D2A22204  12.445  42.519   8.422
 1540POPC   C3A22205  12.145  42.420   8.114
 1540POPC   C4A22206  11.984  42.592   7.729
 1540POPC   C1B22207  11.861  42.128   8.832
 1540POPC   C2B22208  11.731  42.070   8.425
 1540POPC   C3B22209  11.835  41.971   8.027
 1540POPC   C4B22210  11.753  42.150   7.639
 1541POPC   NC322211  40.043  36.928   9.617
 1541POPC   PO422212  40.036  36.313   9.453
 1541POPC   GL122213  40.127  36.619   9.095
 1541POPC   GL222214  40.162  36.986   9.133
 1541POPC   C1A22215  40.087  36.789   8.647
 1541POPC   D2A22216  40.364  36.667   8.292
 1541POPC   C3A22217  40.249  36.769   7.887
 1541POPC   C4A22218  39.819  36.729   7.760
 1541POPC   C1B22219  39.944  37.248   8.831
 1541POPC   C2B22220  39.810  37.140   8.394
 1541POPC   C3B22221  39.951  37.212   7.975
 1541POPC   C4B22222  40.202  37.198   7.575
 1542POPC   NC322223  13.118  29.010   9.445
 1542POPC   PO422224  12.454  29.284   9.522
 1542POPC   GL122225  12.692  29.104   9.178
 1542POPC   GL222226  12.933  29.335   9.058
 1542POPC   C1A22227  12.622  28.977   8.751
 1542POPC   D2A22228  12.825  28.823   8.352
 1542POPC   C3A22229  12.827  29.152   8.048
 1542POPC   C4A22230  12.799  29.127   7.626
 1542POPC   C1B22231  13.084  29.170   8.631
 1542POPC   C2B22232  13.291  29.011   8.217
 1542POPC   C3B22233  13.283  29.164   7.767
 1542POPC   C4B22234  13.157  29.328   7.340
 1543POPC   NC322235  27.111  20.339   9.487
 1543POPC   PO422236  26.859  20.997   9.487
 1543POPC   GL122237  26.756  20.825   9.120
 1543POPC   GL222238  27.087  20.657   9.074
 1543POPC   C1A22239  26.726  20.625   8.713
 1543POPC   D2A22240  26.980  20.731   8.362
 1543POPC   C3A22241  26.771  20.677   7.973
 1543POPC   C4A22242  26.524  20.911   7.668
 1543POPC   C1B22243  27.124  20.273   8.813
 1543POPC   C2B22244  26.983  20.227   8.440
 1543POPC   C3B22245  27.144  20.299   8.080
 1543POPC   C4B22246  26.966  20.288   7.703
 1544POPC   NC322247  27.464  41.003   9.562
 1544POPC   PO422248  27.486  40.332   9.536
 1544POPC   GL122249  27.562  40.606   9.188
 1544POPC   GL222250  27.254  40.718   9.190
 1544POPC   C1A22251  27.729  40.918   8.880
 1544POPC   D2A22252  27.923  41.017   8.472
 1544POPC   C3A22253  27.743  40.933   8.053
 1544POPC   C4A22254  27.359  41.044   7.854
 1544POPC   C1B22255  27.195  40.906   8.792
 1544POPC   C2B22256  27.441  40.807   8.448
 1544POPC   C3B22257  27.418  40.541   8.124
 1544POPC   C4B22258  27.096  40.592   7.838
 1545POPC   NC322259   9.059  36.325   9.479
 1545POPC   PO422260   8.407  36.048   9.525
 1545POPC   GL122261   8.710  36.131   9.139
 1545POPC   GL222262   9.040  35.973   9.046
 1545POPC   C1A22263   8.708  35.875   8.699
 1545POPC   D2A22264   8.998  36.003   8.367
 1545POPC   C3A22265   8.886  36.153   7.924
 1545POPC   C4A22266   8.988  35.944   7.523
 1545POPC   C1B22267   9.097  36.313   8.801
 1545POPC   C2B22268   9.332  36.430   8.459
 1545POPC   C3B22269   9.378  36.228   8.089
 1545POPC   C4B22270   9.578  36.441   7.798
 1546POPC   NC322271  14.982  16.657   9.585
 1546POPC   PO422272  15.636  16.747   9.526
 1546POPC   GL122273  15.280  16.821   9.165
 1546POPC   GL222274  15.012  16.596   9.100
 1546POPC   C1A22275  15.247  16.697   8.677
 1546POPC   D2A22276  15.234  16.887   8.271
 1546POPC   C3A22277  15.383  16.739   7.842
 1546POPC   C4A22278  15.306  16.848   7.401
 1546POPC   C1B22279  14.873  16.295   8.847
 1546POPC   C2B22280  14.796  16.462   8.457
 1546POPC   C3B22281  14.988  16.478   8.086
 1546POPC   C4B22282  14.889  16.651   7.724
 1547POPC   NC322283  15.681   2.471   9.626
 1547POPC   PO422284  16.237   2.945   9.555
 1547POPC   GL122285  16.002   2.662   9.185
 1547POPC   GL222286  16.011   2.893   8.884
 1547POPC   C1A22287  15.601   2.663   8.852
 1547POPC   D2A22288  15.809   2.661   8.431
 1547POPC   C3A22289  15.723   2.880   8.053
 1547POPC   C4A22290  15.970   3.126   7.775
 1547POPC   C1B22291  16.249   2.638   8.677
 1547POPC   C2B22292  16.255   2.427   8.309
 1547POPC   C3B22293  16.090   2.520   7.922
 1547POPC   C4B22294  16.323   2.516   7.527
 1548POPC   NC322295   1.779  23.750   9.585
 1548POPC   PO422296   2.458  23.759   9.400
 1548POPC   GL122297   2.093  23.751   9.122
 1548POPC   GL222298   1.764  23.632   9.103
 1548POPC   C1A22299   2.052  23.574   8.715
 1548POPC   D2A22300   2.317  23.610   8.411
 1548POPC   C3A22301   2.072  23.596   8.075
 1548POPC   C4A22302   2.294  23.647   7.727
 1548POPC   C1B22303   1.520  23.587   8.706
 1548POPC   C2B22304   1.608  23.402   8.300
 1548POPC   C3B22305   1.627  23.403   7.858
 1548POPC   C4B22306   1.817  23.677   7.612
 1549POPC   NC322307  16.620  18.675   9.531
 1549POPC   PO422308  17.073  19.145   9.464
 1549POPC   GL122309  16.974  18.835   9.157
 1549POPC   GL222310  16.634  18.920   9.093
 1549POPC   C1A22311  16.995  18.974   8.739
 1549POPC   D2A22312  17.053  19.319   8.496
 1549POPC   C3A22313  16.818  19.214   8.158
 1549POPC   C4A22314  16.950  18.928   7.836
 1549POPC   C1B22315  16.597  19.309   8.834
 1549POPC   C2B22316  16.329  19.354   8.448
 1549POPC   C3B22317  16.330  19.337   8.013
 1549POPC   C4B22318  16.669  19.329   7.684
 1550POPC   NC322319  41.091  29.968   9.620
 1550POPC   PO422320  40.497  30.146   9.545
 1550POPC   GL122321  40.732  30.013   9.162
 1550POPC   GL222322  41.100  29.986   9.115
 1550POPC   C1A22323  40.548  29.956   8.742
 1550POPC   D2A22324  40.558  29.738   8.349
 1550POPC   C3A22325  40.661  29.991   8.002
 1550POPC   C4A22326  40.542  30.027   7.591
 1550POPC   C1B22327  41.006  29.772   8.755
 1550POPC   C2B22328  41.071  29.633   8.370
 1550POPC   C3B22329  41.099  29.763   7.954
 1550POPC   C4B22330  40.860  29.658   7.635
 1551POPC   NC322331   9.061  32.105   9.594
 1551POPC   PO422332   9.122  32.795   9.449
 1551POPC   GL122333   9.002  32.476   9.125
 1551POPC   GL222334   8.875  32.118   9.137
 1551POPC   C1A22335   9.229  32.245   8.774
 1551POPC   D2A22336   9.295  32.014   8.376
 1551POPC   C3A22337   9.204  32.198   7.982
 1551POPC   C4A22338   9.122  32.365   7.586
 1551POPC   C1B22339   8.676  32.214   8.772
 1551POPC   C2B22340   8.822  32.207   8.377
 1551POPC   C3B22341   8.723  32.349   7.998
 1551POPC   C4B22342   8.782  32.027   7.693
 1552POPC   NC322343  14.478  31.203   9.553
 1552POPC   PO422344  13.818  31.400   9.645
 1552POPC   GL122345  14.153  31.426   9.268
 1552POPC   GL222346  14.457  31.640   9.221
 1552POPC   C1A22347  14.250  31.405   8.819
 1552POPC   D2A22348  14.414  31.669   8.493
 1552POPC   C3A22349  14.235  31.584   8.072
 1552POPC   C4A22350  14.278  31.159   7.859
 1552POPC   C1B22351  14.755  31.435   8.916
 1552POPC   C2B22352  14.911  31.463   8.500
 1552POPC   C3B22353  14.690  31.394   8.125
 1552POPC   C4B22354  14.614  31.617   7.712
 1553POPC   NC322355   5.188   9.231   9.539
 1553POPC   PO422356   4.979   8.530   9.623
 1553POPC   GL122357   5.201   8.774   9.338
 1553POPC   GL222358   4.873   8.932   9.259
 1553POPC   C1A22359   5.211   8.890   8.907
 1553POPC   D2A22360   4.990   8.929   8.528
 1553POPC   C3A22361   5.279   9.020   8.217
 1553POPC   C4A22362   5.150   8.936   7.835
 1553POPC   C1B22363   4.844   9.287   8.933
 1553POPC   C2B22364   4.769   9.395   8.480
 1553POPC   C3B22365   4.879   9.315   8.057
 1553POPC   C4B22366   4.765   9.160   7.620
 1554POPC   NC322367  12.398   2.695   9.443
 1554POPC   PO422368  11.796   2.700   9.388
 1554POPC   GL122369  12.036   2.677   9.067
 1554POPC   GL222370  12.195   2.344   9.171
 1554POPC   C1A22371  11.982   2.784   8.632
 1554POPC   D2A22372  11.678   2.756   8.315
 1554POPC   C3A22373  11.852   2.820   7.898
 1554POPC   C4A22374  12.318   2.858   7.760
 1554POPC   C1B22375  12.328   2.420   8.742
 1554POPC   C2B22376  12.424   2.266   8.337
 1554POPC   C3B22377  12.223   2.382   7.927
 1554POPC   C4B22378  12.209   2.478   7.454
 1555POPC   NC322379  39.065  43.330   9.581
 1555POPC   PO422380  39.438  42.725   9.635
 1555POPC   GL122381  39.329  42.870   9.223
 1555POPC   GL222382  39.357  43.246   9.177
 1555POPC   C1A22383  39.169  42.919   8.812
 1555POPC   D2A22384  39.406  42.965   8.445
 1555POPC   C3A22385  39.260  43.059   8.077
 1555POPC   C4A22386  39.132  42.844   7.737
 1555POPC   C1B22387  39.107  43.440   8.824
 1555POPC   C2B22388  39.155  43.671   8.416
 1555POPC   C3B22389  39.282  43.546   7.989
 1555POPC   C4B22390  38.912  43.339   7.777
 1556POPC   NC322391  11.989  33.559   9.776
 1556POPC   PO422392  12.499  33.603   9.326
 1556POPC   GL122393  12.190  33.834   9.139
 1556POPC   GL222394  11.895  33.631   9.149
 1556POPC   C1A22395  12.364  33.985   8.737
 1556POPC   D2A22396  12.558  34.152   8.366
 1556POPC   C3A22397  12.380  34.019   7.982
 1556POPC   C4A22398  12.116  34.095   7.616
 1556POPC   C1B22399  12.113  33.532   8.729
 1556POPC   C2B22400  12.126  33.706   8.320
 1556POPC   C3B22401  11.992  33.693   7.910
 1556POPC   C4B22402  11.670  33.839   7.749
 1557POPC   NC322403  20.900  20.002   9.178
 1557POPC   PO422404  20.556  19.499   9.441
 1557POPC   GL122405  20.427  19.671   9.074
 1557POPC   GL222406  20.426  20.032   8.995
 1557POPC   C1A22407  20.711  19.615   8.698
 1557POPC   D2A22408  20.914  19.616   8.294
 1557POPC   C3A22409  20.653  19.910   8.085
 1557POPC   C4A22410  20.568  20.041   7.665
 1557POPC   C1B22411  20.220  19.841   8.651
 1557POPC   C2B22412  19.983  20.028   8.344
 1557POPC   C3B22413  20.173  20.073   8.019
 1557POPC   C4B22414  20.225  19.686   7.863
 1558POPC   NC322415  28.025   7.183   9.638
 1558POPC   PO422416  28.680   7.155   9.599
 1558POPC   GL122417  28.498   7.355   9.269
 1558POPC   GL222418  28.235   7.134   9.172
 1558POPC   C1A22419  28.345   7.586   8.899
 1558POPC   D2A22420  28.264   7.838   8.496
 1558POPC   C3A22421  28.280   7.589   8.104
 1558POPC   C4A22422  28.266   7.422   7.688
 1558POPC   C1B22423  28.559   7.094   8.842
 1558POPC   C2B22424  28.437   6.939   8.430
 1558POPC   C3B22425  28.242   7.000   8.002
 1558POPC   C4B22426  28.514   6.958   7.622
 1559POPC   NC322427  19.277  32.043   9.436
 1559POPC   PO422428  19.899  32.196   9.579
 1559POPC   GL122429  19.875  32.281   9.147
 1559POPC   GL222430  19.628  32.098   9.097
 1559POPC   C1A22431  19.837  32.207   8.670
 1559POPC   D2A22432  19.655  32.189   8.291
 1559POPC   C3A22433  19.920  32.358   8.004
 1559POPC   C4A22434  19.736  32.478   7.667
 1559POPC   C1B22435  19.421  31.872   8.794
 1559POPC   C2B22436  19.542  31.704   8.400
 1559POPC   C3B22437  19.358  31.850   8.033
 1559POPC   C4B22438  19.394  32.107   7.674
 1560POPC   NC322439  21.608   4.815   9.330
 1560POPC   PO422440  21.133   5.290   9.467
 1560POPC   GL122441  21.325   5.185   9.118
 1560POPC   GL222442  21.623   5.323   9.149
 1560POPC   C1A22443  21.259   4.950   8.739
 1560POPC   D2A22444  21.025   5.004   8.374
 1560POPC   C3A22445  21.301   4.945   8.062
 1560POPC   C4A22446  21.411   4.832   7.670
 1560POPC   C1B22447  21.753   5.112   8.776
 1560POPC   C2B22448  21.679   4.895   8.397
 1560POPC   C3B22449  21.774   5.078   7.956
 1560POPC   C4B22450  21.914   5.295   7.562
 1561POPC   NC322451  12.750   0.011   9.567
 1561POPC   PO422452  13.217   0.435   9.571
 1561POPC   GL122453  12.927   0.323   9.210
 1561POPC   GL222454  12.943   0.640   9.060
 1561POPC   C1A22455  12.949   0.126   8.775
 1561POPC   D2A22456  12.928   0.391   8.372
 1561POPC   C3A22457  12.688   0.280   7.991
 1561POPC   C4A22458  12.810   0.228   7.547
 1561POPC   C1B22459  12.584   0.499   8.809
 1561POPC   C2B22460  12.441   0.643   8.400
 1561POPC   C3B22461  12.583   0.811   8.018
 1561POPC   C4B22462  12.430   0.590   7.645
 1562POPC   NC322463  44.798  29.348   9.277
 1562POPC   PO422464  44.401  29.848   9.579
 1562POPC   GL122465  44.646  29.940   9.194
 1562POPC   GL222466  44.590  29.722   8.987
 1562POPC   C1A22467  44.796  30.148   8.813
 1562POPC   D2A22468  44.736  30.115   8.408
 1562POPC   C3A22469   0.038  30.157   8.080
 1562POPC   C4A22470  44.883  30.194   7.650
 1562POPC   C1B22471  44.310  29.713   8.643
 1562POPC   C2B22472  44.599  29.634   8.308
 1562POPC   C3B22473  44.660  29.863   7.952
 1562POPC   C4B22474  44.574  29.799   7.517
 1563POPC   NC322475   0.077  19.623   9.509
 1563POPC   PO422476   0.732  19.753   9.443
 1563POPC   GL122477   0.477  19.954   9.149
 1563POPC   GL222478   0.136  20.031   9.132
 1563POPC   C1A22479   0.525  19.981   8.722
 1563POPC   D2A22480   0.787  19.784   8.411
 1563POPC   C3A22481   0.760  19.940   7.991
 1563POPC   C4A22482   0.517  19.879   7.658
 1563POPC   C1B22483   0.114  19.690   8.837
 1563POPC   C2B22484   0.276  19.571   8.443
 1563POPC   C3B22485   0.242  19.809   8.083
 1563POPC   C4B22486  44.985  19.920   7.755
 1564POPC   NC322487  30.294  32.272   9.600
 1564POPC   PO422488  30.955  32.124   9.670
 1564POPC   GL122489  30.724  32.180   9.282
 1564POPC   GL222490  30.669  31.839   9.151
 1564POPC   C1A22491  30.802  32.345   8.869
 1564POPC   D2A22492  30.985  32.341   8.459
 1564POPC   C3A22493  30.758  32.297   8.068
 1564POPC   C4A22494  30.955  32.484   7.730
 1564POPC   C1B22495  30.665  31.885   8.689
 1564POPC   C2B22496  30.898  31.850   8.304
 1564POPC   C3B22497  30.859  31.826   7.848
 1564POPC   C4B22498  30.544  31.781   7.509
 1565POPC   NC322499   8.904   0.682   9.606
 1565POPC   PO422500   9.536   0.358   9.554
 1565POPC   GL122501   9.237   0.536   9.231
 1565POPC   GL222502   8.893   0.354   9.177
 1565POPC   C1A22503   9.141   0.581   8.779
 1565POPC   D2A22504   8.945   0.333   8.459
 1565POPC   C3A22505   8.976   0.498   8.082
 1565POPC   C4A22506   9.159   0.566   7.714
 1565POPC   C1B22507   8.625   0.183   8.816
 1565POPC   C2B22508   8.629  44.942   8.394
 1565POPC   C3B22509   8.730   0.039   7.960
 1565POPC   C4B22510   8.934   0.132   7.566
 1566POPC   NC322511  16.859  16.123   9.364
 1566POPC   PO422512  16.619  16.669   9.692
 1566POPC   GL122513  16.786  16.650   9.276
 1566POPC   GL222514  16.500  16.786   9.102
 1566POPC   C1A22515  16.937  16.906   8.907
 1566POPC   D2A22516  16.989  16.805   8.464
 1566POPC   C3A22517  16.717  16.958   8.119
 1566POPC   C4A22518  16.871  16.821   7.724
 1566POPC   C1B22519  16.686  16.454   8.791
 1566POPC   C2B22520  16.522  16.314   8.369
 1566POPC   C3B22521  16.336  16.554   8.014
 1566POPC   C4B22522  16.330  16.887   7.691
 1567POPC   NC322523  35.457  21.394   9.625
 1567POPC   PO422524  34.851  21.253   9.552
 1567POPC   GL122525  35.202  21.251   9.197
 1567POPC   GL222526  35.599  21.295   9.144
 1567POPC   C1A22527  35.284  21.369   8.752
 1567POPC   D2A22528  35.352  21.122   8.413
 1567POPC   C3A22529  35.360  21.317   8.097
 1567POPC   C4A22530  35.448  21.470   7.777
 1567POPC   C1B22531  35.735  21.146   8.724
 1567POPC   C2B22532  35.853  21.170   8.247
 1567POPC   C3B22533  35.844  21.182   7.783
 1567POPC   C4B22534  35.936  21.069   7.347
 1568POPC   NC322535   7.311  13.855  10.004
 1568POPC   PO422536   7.601  13.407   9.550
 1568POPC   GL122537   7.509  13.709   9.211
 1568POPC   GL222538   7.216  13.596   9.102
 1568POPC   C1A22539   7.713  13.947   8.865
 1568POPC   D2A22540   7.499  13.805   8.501
 1568POPC   C3A22541   7.626  13.722   8.087
 1568POPC   C4A22542   7.470  13.734   7.689
 1568POPC   C1B22543   7.254  13.367   8.734
 1568POPC   C2B22544   7.404  13.307   8.348
 1568POPC   C3B22545   7.212  13.389   7.963
 1568POPC   C4B22546   7.086  13.439   7.521
 1569POPC   NC322547  18.837   5.198   9.563
 1569POPC   PO422548  19.330   4.824   9.672
 1569POPC   GL122549  19.345   4.743   9.208
 1569POPC   GL222550  19.184   5.050   9.199
 1569POPC   C1A22551  19.218   4.872   8.736
 1569POPC   D2A22552  18.874   4.766   8.446
 1569POPC   C3A22553  18.855   4.928   8.025
 1569POPC   C4A22554  19.196   5.067   7.749
 1569POPC   C1B22555  18.865   5.236   8.898
 1569POPC   C2B22556  18.780   5.266   8.465
 1569POPC   C3B22557  18.887   5.431   8.064
 1569POPC   C4B22558  18.707   5.314   7.683
 1570POPC   NC322559  27.574  39.870   9.473
 1570POPC   PO422560  28.127  39.780   9.824
 1570POPC   GL122561  28.089  39.952   9.305
 1570POPC   GL222562  27.971  40.276   9.241
 1570POPC   C1A22563  27.819  39.927   8.861
 1570POPC   D2A22564  27.679  40.081   8.432
 1570POPC   C3A22565  27.687  39.829   8.070
 1570POPC   C4A22566  27.461  39.622   7.770
 1570POPC   C1B22567  27.869  40.426   8.796
 1570POPC   C2B22568  27.942  40.519   8.343
 1570POPC   C3B22569  27.862  40.310   7.938
 1570POPC   C4B22570  27.448  40.168   7.767
 1571POPC   NC322571  22.153  35.106   9.500
 1571POPC   PO422572  22.442  35.739   9.534
 1571POPC   GL122573  22.403  35.497   9.157
 1571POPC   GL222574  22.389  35.125   9.065
 1571POPC   C1A22575  22.124  35.513   8.809
 1571POPC   D2A22576  21.941  35.311   8.438
 1571POPC   C3A22577  22.271  35.267   8.152
 1571POPC   C4A22578  22.116  35.399   7.741
 1571POPC   C1B22579  22.019  34.977   8.814
 1571POPC   C2B22580  21.993  34.786   8.389
 1571POPC   C3B22581  21.910  34.952   7.976
 1571POPC   C4B22582  21.728  34.973   7.566
 1572POPC   NC322583   6.465  40.171  10.054
 1572POPC   PO422584   6.908  39.968   9.560
 1572POPC   GL122585   6.899  39.986   9.136
 1572POPC   GL222586   6.896  40.335   9.094
 1572POPC   C1A22587   6.731  39.980   8.726
 1572POPC   D2A22588   6.286  40.022   8.523
 1572POPC   C3A22589   6.395  39.955   8.101
 1572POPC   C4A22590   6.727  39.972   7.769
 1572POPC   C1B22591   6.950  40.619   8.735
 1572POPC   C2B22592   7.206  40.568   8.363
 1572POPC   C3B22593   7.120  40.436   7.931
 1572POPC   C4B22594   6.820  40.463   7.610
 1573POPC   NC322595   5.531   2.937   9.584
 1573POPC   PO422596   6.255   3.027   9.345
 1573POPC   GL122597   5.938   2.785   9.148
 1573POPC   GL222598   5.547   2.838   9.082
 1573POPC   C1A22599   5.880   2.793   8.704
 1573POPC   D2A22600   5.571   2.736   8.389
 1573POPC   C3A22601   5.797   2.524   8.061
 1573POPC   C4A22602   5.990   2.676   7.677
 1573POPC   C1B22603   5.471   3.150   8.722
 1573POPC   C2B22604   5.534   3.270   8.274
 1573POPC   C3B22605   5.682   3.029   7.905
 1573POPC   C4B22606   5.702   3.062   7.433
 1574POPC   NC322607  41.515  33.191   9.579
 1574POPC   PO422608  41.865  32.623   9.569
 1574POPC   GL122609  41.683  32.852   9.235
 1574POPC   GL222610  41.651  32.600   9.034
 1574POPC   C1A22611  41.612  33.087   8.847
 1574POPC   D2A22612  41.390  33.173   8.460
 1574POPC   C3A22613  41.543  33.119   8.046
 1574POPC   C4A22614  41.867  32.980   7.753
 1574POPC   C1B22615  41.282  32.690   8.788
 1574POPC   C2B22616  41.197  32.715   8.351
 1574POPC   C3B22617  41.202  32.715   7.916
 1574POPC   C4B22618  41.169  32.689   7.478
 1575POPC   NC322619   6.187  11.838   9.447
 1575POPC   PO422620   5.690  12.281   9.422
 1575POPC   GL122621   5.885  12.304   9.034
 1575POPC   GL222622   5.941  11.975   9.033
 1575POPC   C1A22623   5.921  12.169   8.577
 1575POPC   D2A22624   5.801  11.885   8.268
 1575POPC   C3A22625   5.577  12.063   7.922
 1575POPC   C4A22626   5.724  12.247   7.576
 1575POPC   C1B22627   6.167  11.714   8.766
 1575POPC   C2B22628   6.334  11.825   8.389
 1575POPC   C3B22629   6.271  11.710   8.003
 1575POPC   C4B22630   5.883  11.657   7.795
 1576POPC   NC322631  32.619  23.879   9.917
 1576POPC   PO422632  32.305  23.469   9.418
 1576POPC   GL122633  32.074  23.699   9.128
 1576POPC   GL222634  32.211  23.503   8.898
 1576POPC   C1A22635  32.092  23.938   8.730
 1576POPC   D2A22636  32.354  23.753   8.422
 1576POPC   C3A22637  32.110  23.759   8.049
 1576POPC   C4A22638  32.023  23.497   7.717
 1576POPC   C1B22639  32.493  23.207   8.819
 1576POPC   C2B22640  32.675  23.282   8.433
 1576POPC   C3B22641  32.429  23.340   8.079
 1576POPC   C4B22642  32.515  23.602   7.751
 1577POPC   NC322643  43.838   3.765   9.563
 1577POPC   PO422644  43.728   3.129   9.611
 1577POPC   GL122645  43.927   3.371   9.252
 1577POPC   GL222646  44.179   3.701   9.200
 1577POPC   C1A22647  43.588   3.494   8.937
 1577POPC   D2A22648  43.566   3.325   8.522
 1577POPC   C3A22649  43.670   3.528   8.133
 1577POPC   C4A22650  43.714   3.499   7.663
 1577POPC   C1B22651  44.052   3.614   8.811
 1577POPC   C2B22652  43.989   3.780   8.467
 1577POPC   C3B22653  44.109   3.808   8.091
 1577POPC   C4B22654  44.191   3.708   7.730
 1578POPC   NC322655   8.498  39.476   9.238
 1578POPC   PO422656   9.012  39.296   9.700
 1578POPC   GL122657   9.047  39.351   9.239
 1578POPC   GL222658   8.960  39.015   9.163
 1578POPC   C1A22659   9.205  39.295   8.792
 1578POPC   D2A22660   8.949  39.413   8.423
 1578POPC   C3A22661   9.111  39.385   8.029
 1578POPC   C4A22662   9.313  39.098   7.810
 1578POPC   C1B22663   8.741  39.077   8.750
 1578POPC   C2B22664   8.644  38.924   8.348
 1578POPC   C3B22665   8.801  38.996   7.934
 1578POPC   C4B22666   8.708  39.364   7.685
 1579POPC   NC322667  11.456  29.588   9.502
 1579POPC   PO422668  11.083  30.115   9.521
 1579POPC   GL122669  11.309  29.959   9.174
 1579POPC   GL222670  11.612  30.082   9.312
 1579POPC   C1A22671  11.532  29.782   8.820
 1579POPC   D2A22672  11.381  29.813   8.401
 1579POPC   C3A22673  11.579  29.743   8.020
 1579POPC   C4A22674  11.298  29.641   7.678
 1579POPC   C1B22675  11.712  30.255   8.907
 1579POPC   C2B22676  11.534  30.298   8.494
 1579POPC   C3B22677  11.654  30.255   8.049
 1579POPC   C4B22678  11.466  30.122   7.671
 1580POPC   NC322679  26.369  23.070   9.571
 1580POPC   PO422680  25.700  22.828   9.446
 1580POPC   GL122681  26.025  22.962   9.150
 1580POPC   GL222682  26.226  22.656   9.132
 1580POPC   C1A22683  26.092  22.945   8.686
 1580POPC   D2A22684  25.996  23.107   8.262
 1580POPC   C3A22685  26.187  22.855   7.940
 1580POPC   C4A22686  26.202  22.782   7.489
 1580POPC   C1B22687  26.021  22.451   8.758
 1580POPC   C2B22688  25.902  22.608   8.329
 1580POPC   C3B22689  25.714  22.639   7.876
 1580POPC   C4B22690  25.776  22.512   7.383
 1581POPC   NC322691  22.963   8.496   9.450
 1581POPC   PO422692  23.400   8.069   9.496
 1581POPC   GL122693  23.137   8.111   9.123
 1581POPC   GL222694  22.763   8.154   9.123
 1581POPC   C1A22695  23.078   8.210   8.697
 1581POPC   D2A22696  22.884   8.014   8.372
 1581POPC   C3A22697  22.922   8.213   7.983
 1581POPC   C4A22698  22.789   8.003   7.630
 1581POPC   C1B22699  22.743   8.548   8.860
 1581POPC   C2B22700  22.717   8.530   8.410
 1581POPC   C3B22701  22.459   8.407   8.057
 1581POPC   C4B22702  22.545   8.424   7.615
 1582POPC   NC322703   6.408  27.330   9.454
 1582POPC   PO422704   6.738  27.921   9.385
 1582POPC   GL122705   6.469  27.690   9.095
 1582POPC   GL222706   6.378  27.351   8.961
 1582POPC   C1A22707   6.355  27.761   8.684
 1582POPC   D2A22708   6.625  27.831   8.427
 1582POPC   C3A22709   6.597  27.703   8.054
 1582POPC   C4A22710   6.894  27.812   7.725
 1582POPC   C1B22711   6.739  27.372   8.655
 1582POPC   C2B22712   6.776  27.252   8.199
 1582POPC   C3B22713   6.734  27.323   7.754
 1582POPC   C4B22714   6.371  27.505   7.592
 1583POPC   NC322715   8.543  10.903   9.593
 1583POPC   PO422716   8.905  11.550   9.684
 1583POPC   GL122717   8.862  11.232   9.335
 1583POPC   GL222718   9.204  11.068   9.245
 1583POPC   C1A22719   8.732  11.166   8.903
 1583POPC   D2A22720   8.884  11.076   8.472
 1583POPC   C3A22721   8.811  11.434   8.178
 1583POPC   C4A22722   8.637  11.279   7.798
 1583POPC   C1B22723   9.252  11.232   8.818
 1583POPC   C2B22724   9.272  11.434   8.424
 1583POPC   C3B22725   9.265  11.275   7.990
 1583POPC   C4B22726   9.372  11.369   7.569
 1584POPC   NC322727  25.679  20.828   9.607
 1584POPC   PO422728  25.154  21.109   9.791
 1584POPC   GL122729  25.189  20.902   9.337
 1584POPC   GL222730  24.865  20.955   9.143
 1584POPC   C1A22731  25.290  20.743   8.867
 1584POPC   D2A22732  25.523  20.597   8.454
 1584POPC   C3A22733  25.356  20.445   8.033
 1584POPC   C4A22734  25.444  20.563   7.592
 1584POPC   C1B22735  24.764  20.714   8.754
 1584POPC   C2B22736  24.943  20.649   8.328
 1584POPC   C3B22737  24.841  20.456   7.923
 1584POPC   C4B22738  24.933  20.526   7.506
 1585POPC   NC322739   6.462  10.006   9.420
 1585POPC   PO422740   6.970   9.750   9.788
 1585POPC   GL122741   6.875   9.774   9.272
 1585POPC   GL222742   7.015   9.523   9.142
 1585POPC   C1A22743   6.593   9.903   8.821
 1585POPC   D2A22744   6.455   9.678   8.434
 1585POPC   C3A22745   6.495   9.888   8.010
 1585POPC   C4A22746   6.699  10.136   7.649
 1585POPC   C1B22747   7.069   9.772   8.781
 1585POPC   C2B22748   7.064   9.654   8.392
 1585POPC   C3B22749   6.792   9.469   8.108
 1585POPC   C4B22750   6.894   9.672   7.760
 1586POPC   NC322751  13.196  24.972   9.421
 1586POPC   PO422752  12.470  24.973   9.455
 1586POPC   GL122753  12.700  25.290   9.181
 1586POPC   GL222754  13.005  25.362   9.147
 1586POPC   C1A22755  12.823  25.147   8.752
 1586POPC   D2A22756  13.025  25.050   8.421
 1586POPC   C3A22757  12.848  25.167   8.080
 1586POPC   C4A22758  12.826  25.305   7.659
 1586POPC   C1B22759  13.229  25.507   8.747
 1586POPC   C2B22760  13.298  25.470   8.299
 1586POPC   C3B22761  13.276  25.324   7.879
 1586POPC   C4B22762  13.251  25.458   7.420
 1587POPC   NC322763  39.131  22.030   9.616
 1587POPC   PO422764  39.440  22.583   9.852
 1587POPC   GL122765  39.509  22.287   9.354
 1587POPC   GL222766  39.168  22.155   9.138
 1587POPC   C1A22767  39.565  22.132   8.845
 1587POPC   D2A22768  39.311  22.265   8.497
 1587POPC   C3A22769  39.370  22.186   8.065
 1587POPC   C4A22770  39.293  22.466   7.737
 1587POPC   C1B22771  38.969  21.874   8.814
 1587POPC   C2B22772  39.024  21.866   8.374
 1587POPC   C3B22773  38.848  22.062   8.039
 1587POPC   C4B22774  38.939  21.944   7.660
 1588POPC   NC322775  18.477  29.257   9.824
 1588POPC   PO422776  19.088  28.972   9.703
 1588POPC   GL122777  19.049  28.883   9.235
 1588POPC   GL222778  19.007  29.238   9.066
 1588POPC   C1A22779  19.246  28.889   8.800
 1588POPC   D2A22780  19.076  29.165   8.454
 1588POPC   C3A22781  19.137  29.040   7.996
 1588POPC   C4A22782  18.840  29.192   7.690
 1588POPC   C1B22783  19.115  29.612   8.786
 1588POPC   C2B22784  19.284  29.714   8.354
 1588POPC   C3B22785  19.198  29.543   7.930
 1588POPC   C4B22786  19.073  29.686   7.529
 1589POPC   NC322787  35.268  12.193   9.723
 1589POPC   PO422788  35.276  12.847   9.447
 1589POPC   GL122789  35.491  12.910   9.087
 1589POPC   GL222790  35.608  12.585   9.172
 1589POPC   C1A22791  35.369  12.912   8.635
 1589POPC   D2A22792  35.093  12.631   8.392
 1589POPC   C3A22793  35.090  12.853   8.010
 1589POPC   C4A22794  35.406  13.132   7.897
 1589POPC   C1B22795  35.591  12.482   8.800
 1589POPC   C2B22796  35.763  12.532   8.429
 1589POPC   C3B22797  35.516  12.605   8.110
 1589POPC   C4B22798  35.528  12.681   7.709
 1590POPC   NC322799  16.601   4.131   9.644
 1590POPC   PO422800  16.872   4.705   9.549
 1590POPC   GL122801  16.653   4.459   9.236
 1590POPC   GL222802  16.948   4.239   9.278
 1590POPC   C1A22803  16.440   4.313   8.836
 1590POPC   D2A22804  16.174   4.252   8.458
 1590POPC   C3A22805  16.398   4.344   8.066
 1590POPC   C4A22806  16.583   4.456   7.688
 1590POPC   C1B22807  17.056   4.454   8.909
 1590POPC   C2B22808  17.003   4.425   8.491
 1590POPC   C3B22809  17.124   4.224   8.132
 1590POPC   C4B22810  16.986   4.159   7.743
 1591POPC   NC322811   7.206  22.431   9.634
 1591POPC   PO422812   7.454  23.110   9.521
 1591POPC   GL122813   7.579  23.015   9.104
 1591POPC   GL222814   7.572  22.691   9.134
 1591POPC   C1A22815   7.355  22.892   8.661
 1591POPC   D2A22816   7.341  22.712   8.239
 1591POPC   C3A22817   7.111  22.918   7.924
 1591POPC   C4A22818   6.989  23.322   7.838
 1591POPC   C1B22819   7.826  22.751   8.749
 1591POPC   C2B22820   7.845  22.850   8.339
 1591POPC   C3B22821   7.799  23.035   7.966
 1591POPC   C4B22822   7.562  22.803   7.679
 1592POPC   NC322823   4.716   8.191   9.457
 1592POPC   PO422824   5.256   7.799   9.512
 1592POPC   GL122825   5.095   7.999   9.139
 1592POPC   GL222826   5.090   8.328   9.148
 1592POPC   C1A22827   5.230   8.109   8.722
 1592POPC   D2A22828   5.256   7.941   8.373
 1592POPC   C3A22829   5.389   8.104   8.055
 1592POPC   C4A22830   5.304   7.999   7.641
 1592POPC   C1B22831   4.883   8.500   8.844
 1592POPC   C2B22832   4.930   8.409   8.439
 1592POPC   C3B22833   5.056   8.528   8.093
 1592POPC   C4B22834   4.837   8.553   7.703
 1593POPC   NC322835   8.569  14.519   9.399
 1593POPC   PO422836   9.116  14.167   9.600
 1593POPC   GL122837   9.171  14.290   9.185
 1593POPC   GL222838   8.942  14.032   9.138
 1593POPC   C1A22839   8.929  14.404   8.791
 1593POPC   D2A22840   8.737  14.605   8.415
 1593POPC   C3A22841   8.949  14.416   8.058
 1593POPC   C4A22842   8.845  14.554   7.653
 1593POPC   C1B22843   8.634  13.962   8.839
 1593POPC   C2B22844   8.611  14.097   8.418
 1593POPC   C3B22845   8.660  13.934   8.044
 1593POPC   C4B22846   8.892  14.035   7.711
 1594POPC   NC322847   1.102  44.861   9.474
 1594POPC   PO422848   1.512  44.437   9.785
 1594POPC   GL122849   1.466  44.487   9.258
 1594POPC   GL222850   1.294  44.765   9.026
 1594POPC   C1A22851   1.388  44.315   8.819
 1594POPC   D2A22852   1.251  44.583   8.498
 1594POPC   C3A22853   1.218  44.406   8.094
 1594POPC   C4A22854   1.135  44.561   7.671
 1594POPC   C1B22855   1.139   0.064   8.690
 1594POPC   C2B22856   1.192   0.096   8.225
 1594POPC   C3B22857   1.167   0.070   7.758
 1594POPC   C4B22858   0.968  44.959   7.337
 1595POPC   NC322859  38.447  38.792   9.954
 1595POPC   PO422860  38.776  38.421   9.582
 1595POPC   GL122861  38.587  38.300   9.183
 1595POPC   GL222862  38.671  38.637   9.083
 1595POPC   C1A22863  38.322  38.125   8.831
 1595POPC   D2A22864  38.121  38.219   8.423
 1595POPC   C3A22865  38.281  38.318   7.973
 1595POPC   C4A22866  38.549  38.650   7.795
 1595POPC   C1B22867  38.746  38.402   8.715
 1595POPC   C2B22868  38.652  38.432   8.293
 1595POPC   C3B22869  38.838  38.260   7.943
 1595POPC   C4B22870  39.031  38.517   7.632
 1596POPC   NC322871  30.464   3.730   9.431
 1596POPC   PO422872  31.102   3.331   9.525
 1596POPC   GL122873  30.852   3.509   9.170
 1596POPC   GL222874  30.541   3.324   9.089
 1596POPC   C1A22875  30.707   3.685   8.757
 1596POPC   D2A22876  30.782   3.493   8.347
 1596POPC   C3A22877  30.623   3.662   7.975
 1596POPC   C4A22878  30.713   3.740   7.534
 1596POPC   C1B22879  30.331   3.334   8.689
 1596POPC   C2B22880  30.258   3.505   8.276
 1596POPC   C3B22881  30.307   3.232   7.905
 1596POPC   C4B22882  30.382   3.184   7.458
 1597POPC   NC322883  10.844  39.990   9.499
 1597POPC   PO422884  11.466  39.724   9.686
 1597POPC   GL122885  11.275  39.879   9.244
 1597POPC   GL222886  11.300  40.230   9.282
 1597POPC   C1A22887  11.165  39.742   8.777
 1597POPC   D2A22888  11.472  39.686   8.411
 1597POPC   C3A22889  11.529  39.785   7.951
 1597POPC   C4A22890  11.567  39.802   7.480
 1597POPC   C1B22891  11.204  40.234   8.832
 1597POPC   C2B22892  11.016  40.109   8.401
 1597POPC   C3B22893  11.144  40.117   7.941
 1597POPC   C4B22894  11.600  40.277   7.819
 1598POPC   NC322895  10.225   3.273   9.635
 1598POPC   PO422896  10.537   3.884   9.497
 1598POPC   GL122897  10.455   3.681   9.128
 1598POPC   GL222898  10.145   3.530   9.113
 1598POPC   C1A22899  10.454   3.904   8.741
 1598POPC   D2A22900  10.338   4.051   8.351
 1598POPC   C3A22901  10.432   3.745   8.035
 1598POPC   C4A22902  10.608   3.595   7.642
 1598POPC   C1B22903   9.906   3.217   8.767
 1598POPC   C2B22904  10.032   3.067   8.331
 1598POPC   C3B22905  10.218   3.134   7.885
 1598POPC   C4B22906  10.341   3.205   7.401
 1599POPC   NC322907  40.050  38.806   9.361
 1599POPC   PO422908  40.256  38.250   9.541
 1599POPC   GL122909  39.989  38.289   9.161
 1599POPC   GL222910  39.671  38.464   9.101
 1599POPC   C1A22911  40.067  38.136   8.739
 1599POPC   D2A22912  40.276  38.289   8.371
 1599POPC   C3A22913  40.168  38.176   7.967
 1599POPC   C4A22914  40.429  38.326   7.680
 1599POPC   C1B22915  39.969  38.638   8.762
 1599POPC   C2B22916  40.185  38.798   8.421
 1599POPC   C3B22917  40.059  38.691   8.021
 1599POPC   C4B22918  39.930  38.521   7.644
 1600POPC   NC322919  23.491   7.606   9.527
 1600POPC   PO422920  22.899   7.220   9.661
 1600POPC   GL122921  22.814   7.315   9.260
 1600POPC   GL222922  23.149   7.429   9.168
 1600POPC   C1A22923  22.686   7.317   8.849
 1600POPC   D2A22924  22.639   7.538   8.458
 1600POPC   C3A22925  22.599   7.306   8.069
 1600POPC   C4A22926  22.810   7.260   7.695
 1600POPC   C1B22927  23.061   7.680   8.785
 1600POPC   C2B22928  23.133   7.546   8.357
 1600POPC   C3B22929  23.074   7.693   7.927
 1600POPC   C4B22930  23.087   7.626   7.442
 1601POPC   NC322931  34.545   9.246   9.460
 1601POPC   PO422932  34.363   8.572   9.588
 1601POPC   GL122933  34.257   8.850   9.247
 1601POPC   GL222934  34.596   8.917   9.077
 1601POPC   C1A22935  34.167   8.977   8.812
 1601POPC   D2A22936  34.382   9.115   8.392
 1601POPC   C3A22937  34.190   9.232   8.002
 1601POPC   C4A22938  34.242   9.048   7.594
 1601POPC   C1B22939  34.568   9.308   8.818
 1601POPC   C2B22940  34.750   9.511   8.483
 1601POPC   C3B22941  34.685   9.391   8.046
 1601POPC   C4B22942  34.735   9.031   7.772
 1602POPC   NC322943   0.508   0.133   9.595
 1602POPC   PO422944   0.226  44.629   9.430
 1602POPC   GL122945   0.606  44.761   9.191
 1602POPC   GL222946   0.615   0.067   9.069
 1602POPC   C1A22947   0.812  44.657   8.766
 1602POPC   D2A22948   0.814  44.755   8.304
 1602POPC   C3A22949   0.713  44.471   7.973
 1602POPC   C4A22950   0.307  44.442   7.806
 1602POPC   C1B22951   0.330  44.818   8.733
 1602POPC   C2B22952   0.294  44.827   8.243
 1602POPC   C3B22953   0.497  44.914   7.816
 1602POPC   C4B22954   0.475   0.134   7.425
 1603POPC   NC322955  18.643  32.139   9.528
 1603POPC   PO422956  18.018  32.119   9.677
 1603POPC   GL122957  18.187  32.331   9.296
 1603POPC   GL222958  18.478  32.594   9.333
 1603POPC   C1A22959  18.364  32.212   8.885
 1603POPC   D2A22960  18.477  32.161   8.448
 1603POPC   C3A22961  18.222  32.334   8.101
 1603POPC   C4A22962  18.227  32.118   7.689
 1603POPC   C1B22963  18.618  32.650   8.901
 1603POPC   C2B22964  18.844  32.471   8.558
 1603POPC   C3B22965  18.724  32.494   8.135
 1603POPC   C4B22966  18.507  32.550   7.752
 1604POPC   NC322967  34.882   3.093   9.435
 1604POPC   PO422968  34.777   2.468   9.215
 1604POPC   GL122969  34.794   2.652   8.868
 1604POPC   GL222970  34.614   2.945   8.993
 1604POPC   C1A22971  34.692   2.774   8.462
 1604POPC   D2A22972  34.320   2.803   8.218
 1604POPC   C3A22973  34.339   2.633   7.799
 1604POPC   C4A22974  34.391   2.669   7.343
 1604POPC   C1B22975  34.834   3.224   8.730
 1604POPC   C2B22976  34.846   3.246   8.295
 1604POPC   C3B22977  34.645   3.120   7.942
 1604POPC   C4B22978  34.756   2.844   7.637
 1605POPC   NC322979   5.291  10.100   9.413
 1605POPC   PO422980   5.367  10.744   9.453
 1605POPC   GL122981   5.227  10.506   9.099
 1605POPC   GL222982   4.876  10.522   9.067
 1605POPC   C1A22983   5.331  10.580   8.679
 1605POPC   D2A22984   5.300  10.860   8.327
 1605POPC   C3A22985   5.414  10.689   7.937
 1605POPC   C4A22986   5.264  10.491   7.575
 1605POPC   C1B22987   4.900  10.303   8.708
 1605POPC   C2B22988   4.997  10.427   8.275
 1605POPC   C3B22989   4.964  10.236   7.869
 1605POPC   C4B22990   4.934  10.053   7.426
 1606POPC   NC322991  21.012  13.546   9.514
 1606POPC   PO422992  21.636  13.905   9.438
 1606POPC   GL122993  21.638  13.594   9.081
 1606POPC   GL222994  21.282  13.502   9.072
 1606POPC   C1A22995  21.518  13.621   8.632
 1606POPC   D2A22996  21.139  13.785   8.426
 1606POPC   C3A22997  21.211  13.919   8.023
 1606POPC   C4A22998  21.461  13.706   7.736
 1606POPC   C1B22999  20.898  13.539   8.820
 1606POPC   C2B23000  20.784  13.428   8.407
 1606POPC   C3B23001  20.991  13.437   8.024
 1606POPC   C4B23002  21.016  13.491   7.606
 1607POPC   NC323003  22.471   1.669   9.545
 1607POPC   PO423004  22.945   2.140   9.629
 1607POPC   GL123005  23.017   1.998   9.216
 1607POPC   GL223006  22.690   1.906   9.141
 1607POPC   C1A23007  23.020   2.048   8.766
 1607POPC   D2A23008  22.823   2.157   8.377
 1607POPC   C3A23009  23.123   2.181   8.020
 1607POPC   C4A23010  23.285   1.771   7.906
 1607POPC   C1B23011  22.469   1.912   8.757
 1607POPC   C2B23012  22.523   1.720   8.364
 1607POPC   C3B23013  22.751   1.804   7.989
 1607POPC   C4B23014  22.696   2.177   7.695
 1608POPC   NC323015  15.932  33.506   9.534
 1608POPC   PO423016  16.235  34.027   9.658
 1608POPC   GL123017  16.157  33.889   9.226
 1608POPC   GL223018  16.288  33.531   9.176
 1608POPC   C1A23019  16.071  34.030   8.789
 1608POPC   D2A23020  16.163  33.847   8.375
 1608POPC   C3A23021  16.387  34.040   8.022
 1608POPC   C4A23022  16.285  33.906   7.591
 1608POPC   C1B23023  15.929  33.540   8.866
 1608POPC   C2B23024  15.738  33.532   8.469
 1608POPC   C3B23025  15.852  33.559   8.082
 1608POPC   C4B23026  15.844  33.944   7.877
 1609POPC   NC323027  43.707  36.958   9.583
 1609POPC   PO423028  44.208  37.329   9.492
 1609POPC   GL123029  43.957  37.156   9.180
 1609POPC   GL223030  44.050  37.496   9.046
 1609POPC   C1A23031  43.755  36.752   8.955
 1609POPC   D2A23032  43.540  36.729   8.541
 1609POPC   C3A23033  43.785  36.631   8.136
 1609POPC   C4A23034  43.654  36.747   7.705
 1609POPC   C1B23035  44.062  37.238   8.689
 1609POPC   C2B23036  43.885  37.093   8.335
 1609POPC   C3B23037  43.971  37.076   7.925
 1609POPC   C4B23038  44.170  36.713   7.789
 1610POPC   NC323039  13.618  24.252   9.498
 1610POPC   PO423040  13.658  24.881   9.399
 1610POPC   GL123041  13.653  24.562   9.088
 1610POPC   GL223042  13.453  24.223   9.026
 1610POPC   C1A23043  13.665  24.609   8.685
 1610POPC   D2A23044  13.546  24.600   8.313
 1610POPC   C3A23045  13.812  24.533   8.022
 1610POPC   C4A23046  13.575  24.598   7.735
 1610POPC   C1B23047  13.828  24.145   8.759
 1610POPC   C2B23048  13.708  24.108   8.324
 1610POPC   C3B23049  13.582  24.101   7.901
 1610POPC   C4B23050  13.772  24.205   7.497
 1611POPC   NC323051  33.119   6.028   9.583
 1611POPC   PO423052  32.442   5.679   9.572
 1611POPC   GL123053  32.868   5.737   9.246
 1611POPC   GL223054  32.871   6.115   9.163
 1611POPC   C1A23055  33.114   5.856   8.819
 1611POPC   D2A23056  33.024   5.984   8.378
 1611POPC   C3A23057  33.012   5.642   8.092
 1611POPC   C4A23058  33.166   5.552   7.679
 1611POPC   C1B23059  32.724   6.219   8.756
 1611POPC   C2B23060  32.555   6.202   8.326
 1611POPC   C3B23061  32.701   6.053   7.942
 1611POPC   C4B23062  33.133   6.058   7.781
 1612POPC   NC323063   7.056  39.500   9.568
 1612POPC   PO423064   6.465  39.068   9.565
 1612POPC   GL123065   6.783  39.140   9.247
 1612POPC   GL223066   6.717  39.488   9.169
 1612POPC   C1A23067   6.929  39.183   8.792
 1612POPC   D2A23068   6.773  39.200   8.372
 1612POPC   C3A23069   6.979  39.087   7.953
 1612POPC   C4A23070   6.896  39.142   7.507
 1612POPC   C1B23071   6.426  39.602   8.834
 1612POPC   C2B23072   6.346  39.523   8.393
 1612POPC   C3B23073   6.574  39.482   7.989
 1612POPC   C4B23074   6.433  39.416   7.594
 1613POPC   NC323075  15.690   6.421   9.487
 1613POPC   PO423076  15.159   6.833   9.787
 1613POPC   GL123077  14.931   6.606   9.355
 1613POPC   GL223078  14.981   6.839   9.124
 1613POPC   C1A23079  14.894   6.442   8.825
 1613POPC   D2A23080  15.069   6.448   8.357
 1613POPC   C3A23081  14.950   6.360   7.910
 1613POPC   C4A23082  14.920   6.276   7.463
 1613POPC   C1B23083  15.215   6.828   8.732
 1613POPC   C2B23084  15.326   6.889   8.294
 1613POPC   C3B23085  15.306   6.759   7.865
 1613POPC   C4B23086  15.523   6.901   7.476
 1614POPC   NC323087  41.900  35.782   9.488
 1614POPC   PO423088  41.235  35.910   9.590
 1614POPC   GL123089  41.454  36.103   9.240
 1614POPC   GL223090  41.767  35.977   9.038
 1614POPC   C1A23091  41.337  36.199   8.825
 1614POPC   D2A23092  41.421  36.428   8.465
 1614POPC   C3A23093  41.236  36.241   8.093
 1614POPC   C4A23094  41.199  35.992   7.734
 1614POPC   C1B23095  41.886  36.383   8.822
 1614POPC   C2B23096  41.928  36.557   8.403
 1614POPC   C3B23097  41.756  36.265   8.116
 1614POPC   C4B23098  41.747  36.155   7.719
 1615POPC   NC323099   9.603   8.707   9.510
 1615POPC   PO423100   9.421   9.303   9.465
 1615POPC   GL123101   9.777   9.283   9.197
 1615POPC   GL223102   9.799   8.943   9.078
 1615POPC   C1A23103   9.959   9.365   8.794
 1615POPC   D2A23104   9.875   9.103   8.441
 1615POPC   C3A23105   9.980   9.235   8.029
 1615POPC   C4A23106   9.850   9.033   7.663
 1615POPC   C1B23107   9.651   8.653   8.796
 1615POPC   C2B23108   9.869   8.580   8.454
 1615POPC   C3B23109   9.897   8.706   8.052
 1615POPC   C4B23110   9.552   8.645   7.781
 1616POPC   NC323111   6.111  10.661   9.527
 1616POPC   PO423112   6.023  10.001   9.584
 1616POPC   GL123113   5.998  10.247   9.207
 1616POPC   GL223114   5.714  10.416   9.280
 1616POPC   C1A23115   5.709  10.234   8.820
 1616POPC   D2A23116   5.740  10.417   8.425
 1616POPC   C3A23117   5.951  10.296   8.066
 1616POPC   C4A23118   5.745  10.325   7.688
 1616POPC   C1B23119   5.806  10.723   8.929
 1616POPC   C2B23120   6.034  10.820   8.550
 1616POPC   C3B23121   5.801  10.897   8.236
 1616POPC   C4B23122   5.947  10.763   7.866
 1617POPC   NC323123  17.863  31.680   9.656
 1617POPC   PO423124  18.498  31.317   9.726
 1617POPC   GL123125  18.424  31.533   9.303
 1617POPC   GL223126  18.291  31.828   9.354
 1617POPC   C1A23127  18.485  31.707   8.848
 1617POPC   D2A23128  18.639  31.673   8.386
 1617POPC   C3A23129  18.486  31.451   7.987
 1617POPC   C4A23130  18.500  31.440   7.524
 1617POPC   C1B23131  18.012  31.852   9.009
 1617POPC   C2B23132  18.026  31.955   8.558
 1617POPC   C3B23133  18.199  31.835   8.153
 1617POPC   C4B23134  18.013  31.638   7.802
 1618POPC   NC323135  43.615   6.276   9.508
 1618POPC   PO423136  43.873   6.940   9.515
 1618POPC   GL123137  43.845   6.634   9.194
 1618POPC   GL223138  43.506   6.692   9.192
 1618POPC   C1A23139  43.991   6.418   8.819
 1618POPC   D2A23140  44.103   6.597   8.414
 1618POPC   C3A23141  43.908   6.446   8.063
 1618POPC   C4A23142  43.957   6.645   7.705
 1618POPC   C1B23143  43.497   6.516   8.787
 1618POPC   C2B23144  43.592   6.656   8.413
 1618POPC   C3B23145  43.474   6.714   8.030
 1618POPC   C4B23146  43.263   6.470   7.773
 1619POPC   NC323147   8.721  20.003   9.497
 1619POPC   PO423148   9.355  20.354   9.479
 1619POPC   GL123149   9.126  20.092   9.194
 1619POPC   GL223150   9.244  19.724   9.255
 1619POPC   C1A23151   8.794  20.158   8.849
 1619POPC   D2A23152   8.623  20.150   8.416
 1619POPC   C3A23153   8.948  20.099   8.105
 1619POPC   C4A23154   9.266  19.949   7.820
 1619POPC   C1B23155   9.248  19.813   8.793
 1619POPC   C2B23156   8.946  19.717   8.473
 1619POPC   C3B23157   8.940  19.578   8.057
 1619POPC   C4B23158   9.148  19.460   7.713
 1620POPC   NC323159  12.309   4.499   9.410
 1620POPC   PO423160  11.877   3.975   9.375
 1620POPC   GL123161  11.821   4.315   9.122
 1620POPC   GL223162  11.929   4.645   9.108
 1620POPC   C1A23163  11.741   4.401   8.707
 1620POPC   D2A23164  11.912   4.096   8.465
 1620POPC   C3A23165  12.102   4.151   8.083
 1620POPC   C4A23166  12.369   4.077   7.707
 1620POPC   C1B23167  12.238   4.513   8.755
 1620POPC   C2B23168  12.318   4.568   8.318
 1620POPC   C3B23169  12.292   4.546   7.855
 1620POPC   C4B23170  12.065   4.401   7.437
 1621POPC   NC323171  18.570  15.893   9.583
 1621POPC   PO423172  17.998  16.301   9.434
 1621POPC   GL123173  18.260  16.045   9.180
 1621POPC   GL223174  18.601  16.214   9.198
 1621POPC   C1A23175  18.154  15.802   8.812
 1621POPC   D2A23176  18.320  15.844   8.392
 1621POPC   C3A23177  18.060  15.889   8.025
 1621POPC   C4A23178  17.914  15.546   7.822
 1621POPC   C1B23179  18.617  16.037   8.792
 1621POPC   C2B23180  18.660  16.255   8.395
 1621POPC   C3B23181  18.572  16.033   7.994
 1621POPC   C4B23182  18.303  16.206   7.658
 1622POPC   NC323183  37.359   3.897   9.450
 1622POPC   PO423184  36.875   3.344   9.371
 1622POPC   GL123185  36.828   3.382   8.973
 1622POPC   GL223186  36.794   3.720   9.020
 1622POPC   C1A23187  36.887   3.534   8.559
 1622POPC   D2A23188  37.129   3.471   8.202
 1622POPC   C3A23189  36.852   3.381   7.825
 1622POPC   C4A23190  36.568   3.134   7.574
 1622POPC   C1B23191  37.130   3.935   8.813
 1622POPC   C2B23192  37.041   4.019   8.440
 1622POPC   C3B23193  36.775   3.819   8.118
 1622POPC   C4B23194  36.698   3.943   7.713
 1623POPC   NC323195  33.204  26.510   9.479
 1623POPC   PO423196  33.194  27.155   9.563
 1623POPC   GL123197  32.880  27.035   9.229
 1623POPC   GL223198  32.814  26.657   9.195
 1623POPC   C1A23199  32.848  27.139   8.786
 1623POPC   D2A23200  33.139  27.237   8.451
 1623POPC   C3A23201  33.063  27.070   8.027
 1623POPC   C4A23202  33.052  27.253   7.601
 1623POPC   C1B23203  32.997  26.639   8.805
 1623POPC   C2B23204  32.830  26.787   8.401
 1623POPC   C3B23205  32.844  26.617   7.967
 1623POPC   C4B23206  33.115  26.514   7.605
 1624POPC   NC323207   5.830   9.554   9.582
 1624POPC   PO423208   6.436   9.490   9.358
 1624POPC   GL123209   6.093   9.738   9.137
 1624POPC   GL223210   5.706   9.828   9.178
 1624POPC   C1A23211   6.013   9.844   8.707
 1624POPC   D2A23212   5.727   9.811   8.347
 1624POPC   C3A23213   5.911   9.808   7.949
 1624POPC   C4A23214   6.179  10.027   7.638
 1624POPC   C1B23215   5.468   9.797   8.806
 1624POPC   C2B23216   5.296  10.056   8.490
 1624POPC   C3B23217   5.429  10.175   8.086
 1624POPC   C4B23218   5.396   9.970   7.706
 1625POPC   NC323219  15.111  34.007   9.522
 1625POPC   PO423220  15.483  33.491   9.478
 1625POPC   GL123221  15.160  33.552   9.192
 1625POPC   GL223222  14.810  33.662   9.302
 1625POPC   C1A23223  15.323  33.586   8.790
 1625POPC   D2A23224  15.271  33.866   8.492
 1625POPC   C3A23225  15.372  33.818   8.094
 1625POPC   C4A23226  15.129  33.828   7.722
 1625POPC   C1B23227  14.881  33.885   8.903
 1625POPC   C2B23228  14.808  34.077   8.511
 1625POPC   C3B23229  14.810  34.064   8.074
 1625POPC   C4B23230  14.532  34.079   7.737
 1626POPC   NC323231   3.190  29.737   9.422
 1626POPC   PO423232   2.528  30.057   9.454
 1626POPC   GL123233   2.755  29.897   9.133
 1626POPC   GL223234   3.050  30.083   9.091
 1626POPC   C1A23235   2.785  29.856   8.702
 1626POPC   D2A23236   2.600  29.731   8.352
 1626POPC   C3A23237   2.770  29.875   7.991
 1626POPC   C4A23238   3.052  29.978   7.659
 1626POPC   C1B23239   3.146  30.228   8.701
 1626POPC   C2B23240   2.902  30.250   8.337
 1626POPC   C3B23241   3.152  30.338   8.003
 1626POPC   C4B23242   3.251  30.466   7.631
 1627POPC   NC323243  43.410  37.871   9.599
 1627POPC   PO423244  42.774  37.693   9.569
 1627POPC   GL123245  43.078  37.800   9.213
 1627POPC   GL223246  43.282  38.145   9.188
 1627POPC   C1A23247  43.165  37.539   8.842
 1627POPC   D2A23248  42.890  37.378   8.507
 1627POPC   C3A23249  43.088  37.436   8.102
 1627POPC   C4A23250  43.074  37.547   7.687
 1627POPC   C1B23251  43.365  38.011   8.798
 1627POPC   C2B23252  43.297  37.792   8.411
 1627POPC   C3B23253  43.230  37.945   7.989
 1627POPC   C4B23254  43.480  37.837   7.622
 1628POPC   NC323255  25.017  42.566   9.437
 1628POPC   PO423256  25.616  42.202   9.538
 1628POPC   GL123257  25.315  42.210   9.165
 1628POPC   GL223258  25.328  42.566   9.026
 1628POPC   C1A23259  25.264  42.191   8.687
 1628POPC   D2A23260  25.350  42.391   8.254
 1628POPC   C3A23261  25.298  42.147   7.844
 1628POPC   C4A23262  25.523  42.127   7.410
 1628POPC   C1B23263  24.961  42.604   8.728
 1628POPC   C2B23264  24.846  42.456   8.304
 1628POPC   C3B23265  24.942  42.512   7.868
 1628POPC   C4B23266  24.888  42.159   7.554
 1629POPC   NC323267  11.202   8.828   9.506
 1629POPC   PO423268  11.393   9.408   9.672
 1629POPC   GL123269  11.441   9.130   9.203
 1629POPC   GL223270  11.578   8.799   9.153
 1629POPC   C1A23271  11.238   8.982   8.787
 1629POPC   D2A23272  10.967   9.094   8.410
 1629POPC   C3A23273  11.109   8.963   8.006
 1629POPC   C4A23274  11.428   9.035   7.723
 1629POPC   C1B23275  11.697   8.756   8.741
 1629POPC   C2B23276  11.484   8.659   8.327
 1629POPC   C3B23277  11.573   8.578   7.879
 1629POPC   C4B23278  11.515   8.501   7.403
 1630POPC   NC323279   4.517  31.910   9.528
 1630POPC   PO423280   4.109  31.330   9.624
 1630POPC   GL123281   4.386  31.437   9.238
 1630POPC   GL223282   4.172  31.717   9.161
 1630POPC   C1A23283   4.356  31.501   8.738
 1630POPC   D2A23284   4.160  31.340   8.326
 1630POPC   C3A23285   4.367  31.340   7.900
 1630POPC   C4A23286   4.092  31.268   7.529
 1630POPC   C1B23287   4.082  31.963   8.797
 1630POPC   C2B23288   4.281  32.090   8.425
 1630POPC   C3B23289   4.395  31.779   8.143
 1630POPC   C4B23290   4.381  31.806   7.687
 1631POPC   NC323291  16.537  33.677   9.666
 1631POPC   PO423292  16.921  34.128   9.375
 1631POPC   GL123293  16.655  33.916   9.137
 1631POPC   GL223294  16.524  34.192   8.955
 1631POPC   C1A23295  16.491  33.726   8.758
 1631POPC   D2A23296  16.659  33.672   8.342
 1631POPC   C3A23297  16.397  33.521   7.987
 1631POPC   C4A23298  16.725  33.671   7.692
 1631POPC   C1B23299  16.579  34.181   8.528
 1631POPC   C2B23300  16.925  34.227   8.283
 1631POPC   C3B23301  16.904  34.114   7.878
 1631POPC   C4B23302  16.896  34.117   7.416
 1632POPC   NC323303  44.185  38.690   9.528
 1632POPC   PO423304  43.596  38.294   9.560
 1632POPC   GL123305  43.735  38.475   9.191
 1632POPC   GL223306  44.081  38.395   9.132
 1632POPC   C1A23307  43.667  38.428   8.758
 1632POPC   D2A23308  43.676  38.625   8.346
 1632POPC   C3A23309  43.897  38.428   8.010
 1632POPC   C4A23310  43.692  38.295   7.586
 1632POPC   C1B23311  44.020  38.762   8.853
 1632POPC   C2B23312  44.069  38.912   8.471
 1632POPC   C3B23313  43.988  38.954   8.050
 1632POPC   C4B23314  43.837  38.769   7.658
 1633POPC   NC323315  41.737  27.609   9.417
 1633POPC   PO423316  41.270  27.187   9.142
 1633POPC   GL123317  41.575  27.485   8.969
 1633POPC   GL223318  41.453  27.849   9.064
 1633POPC   C1A23319  41.943  27.372   8.724
 1633POPC   D2A23320  41.744  27.225   8.366
 1633POPC   C3A23321  41.749  27.515   8.048
 1633POPC   C4A23322  42.027  27.684   7.756
 1633POPC   C1B23323  41.203  27.728   8.715
 1633POPC   C2B23324  41.200  27.424   8.391
 1633POPC   C3B23325  41.259  27.420   7.942
 1633POPC   C4B23326  41.469  27.766   7.682
 1634POPC   NC323327   5.975   0.057   9.730
 1634POPC   PO423328   5.729   0.559   9.425
 1634POPC   GL123329   5.684   0.714   9.053
 1634POPC   GL223330   5.932   0.480   8.876
 1634POPC   C1A23331   5.477   0.625   8.698
 1634POPC   D2A23332   5.646   0.359   8.442
 1634POPC   C3A23333   5.937   0.589   8.212
 1634POPC   C4A23334   5.899   0.703   7.778
 1634POPC   C1B23335   6.186   0.138   8.655
 1634POPC   C2B23336   6.308   0.035   8.246
 1634POPC   C3B23337   6.246   0.329   7.908
 1634POPC   C4B23338   6.074   0.325   7.480
 1635POPC   NC323339  10.102   6.371   9.828
 1635POPC   PO423340  10.492   6.712   9.391
 1635POPC   GL123341  10.676   6.611   9.046
 1635POPC   GL223342  10.506   6.319   9.039
 1635POPC   C1A23343  10.782   6.425   8.647
 1635POPC   D2A23344  10.562   6.260   8.350
 1635POPC   C3A23345  10.740   6.403   8.006
 1635POPC   C4A23346  10.763   6.533   7.615
 1635POPC   C1B23347  10.280   6.525   8.695
 1635POPC   C2B23348  10.391   6.729   8.304
 1635POPC   C3B23349  10.332   6.669   7.885
 1635POPC   C4B23350  10.243   6.561   7.449
 1636POPC   NC323351  21.262   1.712   9.612
 1636POPC   PO423352  21.418   2.377   9.580
 1636POPC   GL123353  21.499   2.122   9.164
 1636POPC   GL223354  21.613   1.775   9.206
 1636POPC   C1A23355  21.509   2.202   8.683
 1636POPC   D2A23356  21.227   2.207   8.323
 1636POPC   C3A23357  21.341   2.063   7.897
 1636POPC   C4A23358  21.671   1.782   7.784
 1636POPC   C1B23359  21.448   1.719   8.803
 1636POPC   C2B23360  21.336   1.698   8.359
 1636POPC   C3B23361  21.158   1.599   7.945
 1636POPC   C4B23362  21.264   1.723   7.479
 1637POPC   NC323363  32.665  13.368   9.424
 1637POPC   PO423364  32.316  13.939   9.615
 1637POPC   GL123365  32.333  13.833   9.208
 1637POPC   GL223366  32.240  13.513   9.142
 1637POPC   C1A23367  32.202  13.892   8.769
 1637POPC   D2A23368  32.336  13.670   8.385
 1637POPC   C3A23369  32.336  13.756   7.938
 1637POPC   C4A23370  32.036  13.481   7.766
 1637POPC   C1B23371  32.515  13.426   8.803
 1637POPC   C2B23372  32.484  13.148   8.474
 1637POPC   C3B23373  32.346  13.214   8.076
 1637POPC   C4B23374  32.476  13.212   7.682
 1638POPC   NC323375  24.448  36.092   9.371
 1638POPC   PO423376  25.042  36.156   9.643
 1638POPC   GL123377  24.888  36.047   9.128
 1638POPC   GL223378  24.722  35.768   8.995
 1638POPC   C1A23379  24.804  36.174   8.683
 1638POPC   D2A23380  24.475  36.196   8.351
 1638POPC   C3A23381  24.606  35.937   7.994
 1638POPC   C4A23382  24.809  36.225   7.705
 1638POPC   C1B23383  24.347  35.923   8.769
 1638POPC   C2B23384  24.031  35.927   8.460
 1638POPC   C3B23385  24.057  36.095   8.069
 1638POPC   C4B23386  24.306  36.244   7.725
 1639POPC   NC323387   9.738  23.058   9.641
 1639POPC   PO423388  10.176  22.550   9.456
 1639POPC   GL123389   9.762  22.760   9.221
 1639POPC   GL223390   9.513  23.079   9.197
 1639POPC   C1A23391   9.726  22.909   8.786
 1639POPC   D2A23392   9.678  22.710   8.412
 1639POPC   C3A23393   9.935  22.794   8.098
 1639POPC   C4A23394   9.796  22.714   7.698
 1639POPC   C1B23395   9.248  23.173   8.826
 1639POPC   C2B23396   9.424  23.158   8.429
 1639POPC   C3B23397   9.522  23.090   8.004
 1639POPC   C4B23398   9.245  23.396   7.834
 1640POPC   NC323399  15.105  23.111   9.474
 1640POPC   PO423400  15.031  22.460   9.419
 1640POPC   GL123401  15.196  22.727   9.108
 1640POPC   GL223402  15.014  23.008   8.983
 1640POPC   C1A23403  15.512  22.923   8.854
 1640POPC   D2A23404  15.626  23.086   8.454
 1640POPC   C3A23405  15.330  23.003   8.121
 1640POPC   C4A23406  15.361  23.173   7.724
 1640POPC   C1B23407  14.950  22.648   8.669
 1640POPC   C2B23408  14.979  22.587   8.223
 1640POPC   C3B23409  14.774  22.680   7.838
 1640POPC   C4B23410  14.942  22.620   7.418
 1641POPC   NC323411   8.344  29.428   9.447
 1641POPC   PO423412   7.896  28.900   9.567
 1641POPC   GL123413   8.048  29.082   9.194
 1641POPC   GL223414   8.368  28.894   9.252
 1641POPC   C1A23415   8.034  29.332   8.790
 1641POPC   D2A23416   8.115  29.603   8.409
 1641POPC   C3A23417   8.093  29.401   7.999
 1641POPC   C4A23418   8.061  29.500   7.502
 1641POPC   C1B23419   8.409  28.965   8.828
 1641POPC   C2B23420   8.239  28.955   8.430
 1641POPC   C3B23421   8.400  28.980   8.040
 1641POPC   C4B23422   8.353  29.132   7.664
 1642POPC   NC323423  10.502  34.094   9.480
 1642POPC   PO423424  10.808  33.391   9.470
 1642POPC   GL123425  10.655  33.738   9.158
 1642POPC   GL223426  10.397  33.572   9.016
 1642POPC   C1A23427  10.368  34.070   8.859
 1642POPC   D2A23428  10.210  34.110   8.421
 1642POPC   C3A23429  10.504  33.966   8.111
 1642POPC   C4A23430  10.712  34.005   7.747
 1642POPC   C1B23431  10.635  33.706   8.646
 1642POPC   C2B23432  10.522  33.517   8.321
 1642POPC   C3B23433  10.440  33.476   7.920
 1642POPC   C4B23434  10.671  33.511   7.586
 1643POPC   NC323435   6.937  13.216   9.375
 1643POPC   PO423436   6.721  13.877   9.614
 1643POPC   GL123437   6.721  13.654   9.205
 1643POPC   GL223438   6.490  13.398   9.141
 1643POPC   C1A23439   6.809  13.627   8.759
 1643POPC   D2A23440   7.022  13.693   8.360
 1643POPC   C3A23441   6.790  13.658   7.979
 1643POPC   C4A23442   6.391  13.794   7.885
 1643POPC   C1B23443   6.366  13.340   8.743
 1643POPC   C2B23444   6.449  13.563   8.383
 1643POPC   C3B23445   6.447  13.293   8.076
 1643POPC   C4B23446   6.213  12.976   7.904
 1644POPC   NC323447  37.021   8.468   9.459
 1644POPC   PO423448  36.865   7.812   9.518
 1644POPC   GL123449  37.115   8.003   9.192
 1644POPC   GL223450  36.815   8.199   9.088
 1644POPC   C1A23451  37.126   8.015   8.731
 1644POPC   D2A23452  36.872   8.148   8.378
 1644POPC   C3A23453  37.040   8.074   7.951
 1644POPC   C4A23454  36.783   8.019   7.581
 1644POPC   C1B23455  37.021   8.508   8.807
 1644POPC   C2B23456  36.890   8.672   8.399
 1644POPC   C3B23457  36.770   8.514   8.010
 1644POPC   C4B23458  36.987   8.553   7.656
 1645POPC   NC323459  10.377  43.020   9.522
 1645POPC   PO423460  10.955  43.287   9.677
 1645POPC   GL123461  10.544  43.449   9.325
 1645POPC   GL223462  10.423  43.110   9.046
 1645POPC   C1A23463  10.425  43.552   8.847
 1645POPC   D2A23464  10.456  43.280   8.459
 1645POPC   C3A23465  10.479  43.457   8.059
 1645POPC   C4A23466  10.772  43.264   7.716
 1645POPC   C1B23467  10.278  42.786   8.722
 1645POPC   C2B23468  10.156  42.867   8.284
 1645POPC   C3B23469  10.424  42.959   7.945
 1645POPC   C4B23470  10.846  42.770   7.891
 1646POPC   NC323471  29.760  20.886   9.468
 1646POPC   PO423472  29.849  20.217   9.520
 1646POPC   GL123473  29.914  20.503   9.153
 1646POPC   GL223474  29.757  20.251   9.012
 1646POPC   C1A23475  29.737  20.776   8.777
 1646POPC   D2A23476  29.549  20.741   8.346
 1646POPC   C3A23477  29.682  21.036   8.028
 1646POPC   C4A23478  29.965  20.951   7.715
 1646POPC   C1B23479  29.895  20.297   8.647
 1646POPC   C2B23480  29.761  20.125   8.309
 1646POPC   C3B23481  29.903  20.125   7.920
 1646POPC   C4B23482  29.764  20.488   7.747
 1647POPC   NC323483  12.915  28.034   9.518
 1647POPC   PO423484  12.653  27.333   9.398
 1647POPC   GL123485  12.988  27.420   9.120
 1647POPC   GL223486  12.909  27.756   9.112
 1647POPC   C1A23487  13.119  27.606   8.707
 1647POPC   D2A23488  12.924  27.812   8.365
 1647POPC   C3A23489  13.118  27.637   8.051
 1647POPC   C4A23490  13.094  27.429   7.671
 1647POPC   C1B23491  12.616  27.870   8.778
 1647POPC   C2B23492  12.429  27.652   8.397
 1647POPC   C3B23493  12.615  27.520   8.017
 1647POPC   C4B23494  12.770  27.815   7.727
 1648POPC   NC323495  15.903   3.130   9.297
 1648POPC   PO423496  15.859   3.619   9.716
 1648POPC   GL123497  15.819   3.665   9.254
 1648POPC   GL223498  16.164   3.592   9.176
 1648POPC   C1A23499  15.806   3.570   8.800
 1648POPC   D2A23500  15.828   3.242   8.531
 1648POPC   C3A23501  15.762   3.395   8.153
 1648POPC   C4A23502  15.779   3.624   7.809
 1648POPC   C1B23503  16.259   3.817   8.776
 1648POPC   C2B23504  16.165   3.626   8.403
 1648POPC   C3B23505  16.303   3.430   8.044
 1648POPC   C4B23506  16.249   3.505   7.613
 1649POPC   NC323507  33.751  10.997   9.698
 1649POPC   PO423508  34.017  11.628   9.456
 1649POPC   GL123509  33.914  11.328   9.132
 1649POPC   GL223510  33.616  11.104   9.181
 1649POPC   C1A23511  33.938  11.358   8.698
 1649POPC   D2A23512  34.049  11.167   8.325
 1649POPC   C3A23513  33.852  11.433   8.039
 1649POPC   C4A23514  33.834  11.596   7.659
 1649POPC   C1B23515  33.634  10.972   8.730
 1649POPC   C2B23516  33.496  11.277   8.382
 1649POPC   C3B23517  33.374  11.225   7.950
 1649POPC   C4B23518  33.700  11.045   7.746
 1650POPC   NC323519  21.111  39.015   9.566
 1650POPC   PO423520  21.439  39.667   9.613
 1650POPC   GL123521  21.427  39.387   9.201
 1650POPC   GL223522  21.196  39.112   9.091
 1650POPC   C1A23523  21.369  39.418   8.729
 1650POPC   D2A23524  21.292  39.651   8.335
 1650POPC   C3A23525  21.314  39.446   7.909
 1650POPC   C4A23526  21.495  39.675   7.515
 1650POPC   C1B23527  21.386  38.858   8.776
 1650POPC   C2B23528  21.294  38.989   8.364
 1650POPC   C3B23529  21.458  38.905   7.988
 1650POPC   C4B23530  21.702  39.134   7.758
 1651POPC   NC323531   8.830   7.408   9.687
 1651POPC   PO423532   9.501   7.575   9.534
 1651POPC   GL123533   9.162   7.595   9.251
 1651POPC   GL223534   8.870   7.349   9.173
 1651POPC   C1A23535   9.175   7.539   8.812
 1651POPC   D2A23536   8.869   7.430   8.563
 1651POPC   C3A23537   8.910   7.428   8.134
 1651POPC   C4A23538   8.993   7.656   7.765
 1651POPC   C1B23539   8.622   7.086   8.845
 1651POPC   C2B23540   8.516   7.118   8.401
 1651POPC   C3B23541   8.612   7.008   8.022
 1651POPC   C4B23542   8.838   7.127   7.672
 1652POPC   NC323543  29.776   3.737   9.366
 1652POPC   PO423544  30.220   3.241   9.479
 1652POPC   GL123545  30.000   3.318   9.103
 1652POPC   GL223546  30.143   3.647   9.046
 1652POPC   C1A23547  29.821   3.428   8.695
 1652POPC   D2A23548  29.766   3.625   8.308
 1652POPC   C3A23549  29.829   3.409   7.922
 1652POPC   C4A23550  29.910   3.368   7.464
 1652POPC   C1B23551  30.160   3.821   8.683
 1652POPC   C2B23552  30.090   4.048   8.352
 1652POPC   C3B23553  30.055   3.943   7.973
 1652POPC   C4B23554  30.219   3.699   7.676
 1653POPC   NC323555  15.374  24.178   9.460
 1653POPC   PO423556  15.384  23.499   9.459
 1653POPC   GL123557  15.144  23.617   9.120
 1653POPC   GL223558  15.056  23.972   9.108
 1653POPC   C1A23559  14.930  23.460   8.769
 1653POPC   D2A23560  14.861  23.294   8.341
 1653POPC   C3A23561  15.156  23.481   8.050
 1653POPC   C4A23562  15.117  23.638   7.620
 1653POPC   C1B23563  15.308  23.988   8.769
 1653POPC   C2B23564  15.150  23.804   8.429
 1653POPC   C3B23565  14.966  23.943   8.042
 1653POPC   C4B23566  15.177  24.137   7.701
 1654POPC   NC323567   2.424  28.912   9.481
 1654POPC   PO423568   3.027  29.288   9.462
 1654POPC   GL123569   2.830  29.141   9.170
 1654POPC   GL223570   2.476  29.258   9.109
 1654POPC   C1A23571   2.848  29.328   8.773
 1654POPC   D2A23572   2.588  29.232   8.427
 1654POPC   C3A23573   2.738  29.350   8.033
 1654POPC   C4A23574   2.941  29.162   7.703
 1654POPC   C1B23575   2.592  28.880   8.818
 1654POPC   C2B23576   2.512  28.730   8.396
 1654POPC   C3B23577   2.629  28.863   7.973
 1654POPC   C4B23578   2.433  29.172   7.633
 1655POPC   NC323579  25.002  35.734   9.488
 1655POPC   PO423580  25.561  35.784   9.542
 1655POPC   GL123581  25.402  35.526   9.207
 1655POPC   GL223582  25.654  35.576   8.977
 1655POPC   C1A23583  25.118  35.279   8.920
 1655POPC   D2A23584  25.126  35.010   8.534
 1655POPC   C3A23585  25.091  35.220   8.111
 1655POPC   C4A23586  25.067  35.097   7.667
 1655POPC   C1B23587  25.603  35.186   8.724
 1655POPC   C2B23588  25.621  34.994   8.311
 1655POPC   C3B23589  25.543  35.108   7.891
 1655POPC   C4B23590  25.432  35.447   7.633
 1656POPC   NC323591   3.788  24.275   9.375
 1656POPC   PO423592   3.788  23.657   9.663
 1656POPC   GL123593   3.584  23.812   9.281
 1656POPC   GL223594   3.879  23.856   9.093
 1656POPC   C1A23595   3.377  23.950   8.870
 1656POPC   D2A23596   3.281  23.704   8.459
 1656POPC   C3A23597   3.363  23.811   8.022
 1656POPC   C4A23598   3.355  24.049   7.626
 1656POPC   C1B23599   3.751  23.660   8.703
 1656POPC   C2B23600   3.792  23.618   8.273
 1656POPC   C3B23601   3.734  23.484   7.857
 1656POPC   C4B23602   3.834  23.857   7.636
 1657POPC   NC323603  25.488   8.685   9.522
 1657POPC   PO423604  25.125   8.109   9.496
 1657POPC   GL123605  25.355   8.218   9.122
 1657POPC   GL223606  25.592   8.492   9.046
 1657POPC   C1A23607  25.366   8.062   8.711
 1657POPC   D2A23608  25.162   7.911   8.356
 1657POPC   C3A23609  25.200   8.044   7.934
 1657POPC   C4A23610  25.359   8.031   7.495
 1657POPC   C1B23611  25.680   8.454   8.591
 1657POPC   C2B23612  25.665   8.107   8.293
 1657POPC   C3B23613  25.692   8.164   7.874
 1657POPC   C4B23614  25.423   8.500   7.704
 1658POPC   NC323615  10.734  20.390   9.558
 1658POPC   PO423616  10.666  21.027   9.307
 1658POPC   GL123617  10.504  20.669   9.150
 1658POPC   GL223618  10.855  20.575   9.089
 1658POPC   C1A23619  10.347  20.549   8.759
 1658POPC   D2A23620  10.486  20.468   8.329
 1658POPC   C3A23621  10.228  20.450   7.954
 1658POPC   C4A23622  10.252  20.627   7.519
 1658POPC   C1B23623  10.821  20.807   8.691
 1658POPC   C2B23624  10.943  20.737   8.258
 1658POPC   C3B23625  10.679  20.711   7.881
 1658POPC   C4B23626  10.753  20.735   7.446
 1659POPC   NC323627   5.323   4.672   9.957
 1659POPC   PO423628   4.902   5.134   9.678
 1659POPC   GL123629   4.847   5.131   9.247
 1659POPC   GL223630   5.180   5.158   9.120
 1659POPC   C1A23631   4.781   5.046   8.817
 1659POPC   D2A23632   4.998   5.214   8.453
 1659POPC   C3A23633   4.888   5.136   8.021
 1659POPC   C4A23634   4.851   4.908   7.638
 1659POPC   C1B23635   5.243   4.822   8.798
 1659POPC   C2B23636   5.371   4.839   8.381
 1659POPC   C3B23637   5.175   4.681   8.039
 1659POPC   C4B23638   5.312   4.624   7.661
 1660POPC   NC323639  36.142  18.453   9.416
 1660POPC   PO423640  35.795  17.874   9.326
 1660POPC   GL123641  35.950  18.155   9.035
 1660POPC   GL223642  36.309  18.154   9.047
 1660POPC   C1A23643  35.884  18.315   8.640
 1660POPC   D2A23644  36.091  18.532   8.313
 1660POPC   C3A23645  36.086  18.301   7.936
 1660POPC   C4A23646  36.363  17.984   7.835
 1660POPC   C1B23647  36.345  18.522   8.778
 1660POPC   C2B23648  36.631  18.658   8.462
 1660POPC   C3B23649  36.721  18.573   8.044
 1660POPC   C4B23650  36.548  18.441   7.667
 1661POPC   NC323651  34.443   4.714   9.453
 1661POPC   PO423652  34.921   4.194   9.559
 1661POPC   GL123653  34.749   4.374   9.164
 1661POPC   GL223654  34.372   4.388   9.065
 1661POPC   C1A23655  34.729   4.299   8.715
 1661POPC   D2A23656  34.927   4.177   8.353
 1661POPC   C3A23657  34.651   4.386   8.070
 1661POPC   C4A23658  34.755   4.632   7.782
 1661POPC   C1B23659  34.267   4.046   8.779
 1661POPC   C2B23660  34.406   4.066   8.366
 1661POPC   C3B23661  34.256   4.042   7.954
 1661POPC   C4B23662  34.573   4.097   7.643
 1662POPC   NC323663   5.148   4.741   9.441
 1662POPC   PO423664   5.374   4.237   9.809
 1662POPC   GL123665   5.229   4.224   9.335
 1662POPC   GL223666   4.846   4.182   9.205
 1662POPC   C1A23667   5.284   4.113   8.881
 1662POPC   D2A23668   5.239   4.359   8.500
 1662POPC   C3A23669   5.043   4.183   8.152
 1662POPC   C4A23670   5.268   4.112   7.802
 1662POPC   C1B23671   4.859   4.462   8.827
 1662POPC   C2B23672   4.831   4.691   8.447
 1662POPC   C3B23673   4.654   4.674   8.050
 1662POPC   C4B23674   4.811   4.398   7.737
 1663POPC   NC323675  29.735  32.879   9.880
 1663POPC   PO423676  29.893  33.401   9.546
 1663POPC   GL123677  30.024  33.126   9.203
 1663POPC   GL223678  30.108  32.774   9.260
 1663POPC   C1A23679  30.353  33.152   8.905
 1663POPC   D2A23680  30.288  33.039   8.497
 1663POPC   C3A23681  30.400  33.128   8.103
 1663POPC   C4A23682  30.236  33.037   7.683
 1663POPC   C1B23683  29.932  32.824   8.802
 1663POPC   C2B23684  29.961  32.681   8.338
 1663POPC   C3B23685  29.814  32.815   7.888
 1663POPC   C4B23686  29.444  32.837   7.578
 1664POPC   NC323687   9.993  13.710   9.612
 1664POPC   PO423688  10.561  13.398   9.450
 1664POPC   GL123689  10.277  13.560   9.145
 1664POPC   GL223690  10.219  13.940   9.100
 1664POPC   C1A23691  10.335  13.497   8.720
 1664POPC   D2A23692  10.350  13.182   8.385
 1664POPC   C3A23693  10.450  13.305   7.988
 1664POPC   C4A23694  10.284  13.558   7.684
 1664POPC   C1B23695  10.483  13.997   8.716
 1664POPC   C2B23696  10.561  13.847   8.267
 1664POPC   C3B23697  10.550  13.975   7.813
 1664POPC   C4B23698  10.208  14.062   7.553
 1665POPC   NC323699  15.475  31.274   9.573
 1665POPC   PO423700  14.804  31.553   9.585
 1665POPC   GL123701  15.118  31.593   9.251
 1665POPC   GL223702  15.280  31.328   9.106
 1665POPC   C1A23703  15.151  31.777   8.842
 1665POPC   D2A23704  15.314  31.813   8.392
 1665POPC   C3A23705  15.083  31.680   8.009
 1665POPC   C4A23706  15.120  31.644   7.544
 1665POPC   C1B23707  15.440  31.395   8.676
 1665POPC   C2B23708  15.325  31.296   8.243
 1665POPC   C3B23709  15.440  31.316   7.787
 1665POPC   C4B23710  15.425  31.296   7.313
 1666POPC   NC323711   0.733  31.868   9.352
 1666POPC   PO423712   1.232  32.297   9.526
 1666POPC   GL123713   1.290  31.994   9.206
 1666POPC   GL223714   1.288  32.271   9.014
 1666POPC   C1A23715   1.481  31.853   8.783
 1666POPC   D2A23716   1.482  32.084   8.357
 1666POPC   C3A23717   1.428  31.903   7.922
 1666POPC   C4A23718   1.332  32.072   7.493
 1666POPC   C1B23719   1.005  32.075   8.772
 1666POPC   C2B23720   0.972  32.011   8.357
 1666POPC   C3B23721   1.015  32.214   7.978
 1666POPC   C4B23722   0.873  31.999   7.664
 1667POPC   NC323723   2.212  17.044   9.686
 1667POPC   PO423724   1.787  17.477   9.514
 1667POPC   GL123725   1.895  17.693   9.182
 1667POPC   GL223726   1.992  17.384   9.047
 1667POPC   C1A23727   1.743  17.744   8.759
 1667POPC   D2A23728   1.868  17.547   8.346
 1667POPC   C3A23729   1.810  17.788   7.948
 1667POPC   C4A23730   2.007  17.755   7.526
 1667POPC   C1B23731   2.245  17.225   8.707
 1667POPC   C2B23732   2.400  17.248   8.279
 1667POPC   C3B23733   2.081  17.183   7.962
 1667POPC   C4B23734   1.968  17.258   7.535
 1668POPC   NC323735  15.952  16.429   9.666
 1668POPC   PO423736  16.013  17.105   9.447
 1668POPC   GL123737  15.940  16.824   9.110
 1668POPC   GL223738  16.089  16.522   9.194
 1668POPC   C1A23739  15.784  16.818   8.675
 1668POPC   D2A23740  16.057  16.918   8.326
 1668POPC   C3A23741  15.840  16.972   7.927
 1668POPC   C4A23742  15.846  16.882   7.477
 1668POPC   C1B23743  16.187  16.531   8.756
 1668POPC   C2B23744  15.975  16.412   8.380
 1668POPC   C3B23745  15.821  16.475   7.947
 1668POPC   C4B23746  16.076  16.418   7.580
 1669POPC   NC323747  31.213  43.346   9.437
 1669POPC   PO423748  31.837  43.166   9.418
 1669POPC   GL123749  31.569  43.209   9.105
 1669POPC   GL223750  31.394  42.926   9.187
 1669POPC   C1A23751  31.415  43.257   8.720
 1669POPC   D2A23752  31.634  43.127   8.373
 1669POPC   C3A23753  31.384  43.106   8.027
 1669POPC   C4A23754  31.649  43.179   7.671
 1669POPC   C1B23755  31.517  42.772   8.780
 1669POPC   C2B23756  31.348  42.633   8.375
 1669POPC   C3B23757  31.244  42.623   7.956
 1669POPC   C4B23758  31.370  42.797   7.600
 1670POPC   NC323759   2.199  21.230   9.511
 1670POPC   PO423760   1.689  21.657   9.639
 1670POPC   GL123761   1.868  21.533   9.242
 1670POPC   GL223762   1.731  21.775   9.099
 1670POPC   C1A23763   1.982  21.492   8.767
 1670POPC   D2A23764   1.787  21.243   8.436
 1670POPC   C3A23765   2.036  21.276   8.082
 1670POPC   C4A23766   2.045  21.471   7.641
 1670POPC   C1B23767   1.572  21.879   8.762
 1670POPC   C2B23768   1.705  21.758   8.398
 1670POPC   C3B23769   1.858  21.752   8.018
 1670POPC   C4B23770   1.831  21.963   7.655
 1671POPC   NC323771  12.324  25.501   9.529
 1671POPC   PO423772  11.825  25.993   9.402
 1671POPC   GL123773  12.211  25.977   9.187
 1671POPC   GL223774  12.394  26.343   9.229
 1671POPC   C1A23775  12.145  25.820   8.779
 1671POPC   D2A23776  12.399  25.805   8.415
 1671POPC   C3A23777  12.220  25.891   8.036
 1671POPC   C4A23778  11.947  26.087   7.782
 1671POPC   C1B23779  12.512  26.183   8.828
 1671POPC   C2B23780  12.554  26.314   8.421
 1671POPC   C3B23781  12.286  26.416   8.090
 1671POPC   C4B23782  12.437  26.246   7.727
 1672POPC   NC323783   6.058   6.906   9.468
 1672POPC   PO423784   5.552   6.463   9.370
 1672POPC   GL123785   5.832   6.406   9.026
 1672POPC   GL223786   6.149   6.563   9.094
 1672POPC   C1A23787   5.934   6.575   8.625
 1672POPC   D2A23788   5.891   7.007   8.482
 1672POPC   C3A23789   5.696   6.978   8.101
 1672POPC   C4A23790   5.799   6.607   7.831
 1672POPC   C1B23791   6.376   6.368   8.785
 1672POPC   C2B23792   6.300   6.329   8.320
 1672POPC   C3B23793   6.302   6.366   7.877
 1672POPC   C4B23794   6.200   6.631   7.535
 1673POPC   NC323795  14.720  44.308   9.806
 1673POPC   PO423796  14.394  43.781   9.565
 1673POPC   GL123797  14.324  43.838   9.146
 1673POPC   GL223798  14.594  44.066   9.113
 1673POPC   C1A23799  14.428  43.768   8.732
 1673POPC   D2A23800  14.269  43.571   8.386
 1673POPC   C3A23801  14.428  43.581   8.000
 1673POPC   C4A23802  14.241  43.676   7.619
 1673POPC   C1B23803  14.703  44.209   8.703
 1673POPC   C2B23804  14.354  44.206   8.376
 1673POPC   C3B23805  14.275  44.057   7.957
 1673POPC   C4B23806  14.433  44.225   7.530
 1674POPC   NC323807  12.483  19.781   9.603
 1674POPC   PO423808  12.979  20.183   9.512
 1674POPC   GL123809  13.061  19.905   9.177
 1674POPC   GL223810  12.719  19.849   9.163
 1674POPC   C1A23811  12.982  19.983   8.740
 1674POPC   D2A23812  12.741  20.236   8.480
 1674POPC   C3A23813  12.873  20.076   8.107
 1674POPC   C4A23814  13.018  19.865   7.726
 1674POPC   C1B23815  12.495  19.913   8.790
 1674POPC   C2B23816  12.621  19.736   8.419
 1674POPC   C3B23817  12.678  19.616   8.027
 1674POPC   C4B23818  12.511  19.890   7.750
 1675POPC   NC323819   4.296  41.334   9.504
 1675POPC   PO423820   4.174  42.089   9.334
 1675POPC   GL123821   4.175  41.705   9.095
 1675POPC   GL223822   4.400  41.400   9.015
 1675POPC   C1A23823   4.135  41.648   8.649
 1675POPC   D2A23824   3.992  41.436   8.322
 1675POPC   C3A23825   4.220  41.562   7.966
 1675POPC   C4A23826   4.291  41.790   7.583
 1675POPC   C1B23827   4.633  41.661   8.720
 1675POPC   C2B23828   4.734  41.656   8.280
 1675POPC   C3B23829   4.700  41.793   7.880
 1675POPC   C4B23830   4.671  41.447   7.610
 1676POPC   NC323831  31.929   2.234   9.463
 1676POPC   PO423832  32.547   1.842   9.473
 1676POPC   GL123833  32.523   1.897   9.066
 1676POPC   GL223834  32.190   2.014   9.084
 1676POPC   C1A23835  32.339   1.880   8.637
 1676POPC   D2A23836  32.077   1.961   8.320
 1676POPC   C3A23837  32.275   1.877   7.977
 1676POPC   C4A23838  32.034   1.818   7.635
 1676POPC   C1B23839  31.999   2.273   8.759
 1676POPC   C2B23840  31.921   2.447   8.333
 1676POPC   C3B23841  32.035   2.326   7.890
 1676POPC   C4B23842  32.037   2.259   7.416
 1677POPC   NC323843  30.914   9.154   9.525
 1677POPC   PO423844  30.495   8.585   9.523
 1677POPC   GL123845  30.639   8.867   9.195
 1677POPC   GL223846  31.022   8.865   9.115
 1677POPC   C1A23847  30.560   9.057   8.797
 1677POPC   D2A23848  30.677   9.216   8.403
 1677POPC   C3A23849  30.604   9.031   8.021
 1677POPC   C4A23850  30.910   8.911   7.752
 1677POPC   C1B23851  30.836   8.562   8.836
 1677POPC   C2B23852  30.654   8.686   8.450
 1677POPC   C3B23853  30.475   8.533   8.109
 1677POPC   C4B23854  30.522   8.587   7.714
 1678POPC   NC323855   7.633   1.562   9.493
 1678POPC   PO423856   7.547   2.145   9.787
 1678POPC   GL123857   7.567   2.025   9.285
 1678POPC   GL223858   7.631   2.268   9.076
 1678POPC   C1A23859   7.245   1.959   8.917
 1678POPC   D2A23860   7.063   2.044   8.498
 1678POPC   C3A23861   7.103   2.014   8.054
 1678POPC   C4A23862   7.434   2.129   7.782
 1678POPC   C1B23863   7.660   2.032   8.671
 1678POPC   C2B23864   7.531   1.789   8.278
 1678POPC   C3B23865   7.782   1.737   7.904
 1678POPC   C4B23866   7.735   1.792   7.466
 1679POPC   NC323867  13.697   3.310   9.550
 1679POPC   PO423868  13.366   3.903   9.508
 1679POPC   GL123869  13.541   3.662   9.165
 1679POPC   GL223870  13.477   3.279   9.108
 1679POPC   C1A23871  13.682   3.836   8.773
 1679POPC   D2A23872  13.860   3.841   8.366
 1679POPC   C3A23873  13.578   3.969   8.067
 1679POPC   C4A23874  13.380   3.752   7.749
 1679POPC   C1B23875  13.783   3.343   8.813
 1679POPC   C2B23876  13.918   3.312   8.417
 1679POPC   C3B23877  13.710   3.400   8.040
 1679POPC   C4B23878  13.907   3.662   7.796
 1680POPC   NC323879   6.543  15.827   9.858
 1680POPC   PO423880   7.096  15.896   9.533
 1680POPC   GL123881   6.746  15.877   9.225
 1680POPC   GL223882   6.463  16.106   9.320
 1680POPC   C1A23883   6.700  15.702   8.802
 1680POPC   D2A23884   6.636  15.507   8.384
 1680POPC   C3A23885   6.777  15.727   8.007
 1680POPC   C4A23886   6.610  15.656   7.614
 1680POPC   C1B23887   6.515  16.192   8.864
 1680POPC   C2B23888   6.620  16.122   8.430
 1680POPC   C3B23889   6.559  16.279   8.020
 1680POPC   C4B23890   6.644  16.224   7.569
 1681POPC   NC323891  14.847   0.921   9.675
 1681POPC   PO423892  15.486   1.241   9.492
 1681POPC   GL123893  15.266   1.439   9.149
 1681POPC   GL223894  14.913   1.417   9.214
 1681POPC   C1A23895  15.154   1.380   8.709
 1681POPC   D2A23896  15.205   0.981   8.459
 1681POPC   C3A23897  15.300   1.006   8.001
 1681POPC   C4A23898  15.512   1.320   7.786
 1681POPC   C1B23899  14.754   1.129   8.929
 1681POPC   C2B23900  14.721   1.213   8.496
 1681POPC   C3B23901  15.007   1.377   8.177
 1681POPC   C4B23902  14.917   1.292   7.765
 1682POPC   NC323903  40.192  30.488   9.499
 1682POPC   PO423904  39.755  30.995   9.522
 1682POPC   GL123905  39.969  30.854   9.177
 1682POPC   GL223906  39.863  30.521   9.120
 1682POPC   C1A23907  40.204  30.850   8.798
 1682POPC   D2A23908  40.348  30.685   8.414
 1682POPC   C3A23909  40.305  30.867   8.014
 1682POPC   C4A23910  40.123  30.771   7.628
 1682POPC   C1B23911  39.565  30.352   8.849
 1682POPC   C2B23912  39.501  30.369   8.435
 1682POPC   C3B23913  39.783  30.369   8.110
 1682POPC   C4B23914  39.743  30.444   7.685
 1683POPC   NC323915  40.483  12.534   9.368
 1683POPC   PO423916  41.127  12.666   9.419
 1683POPC   GL123917  40.851  12.812   9.106
 1683POPC   GL223918  40.750  12.510   8.935
 1683POPC   C1A23919  40.785  13.022   8.693
 1683POPC   D2A23920  40.968  12.961   8.265
 1683POPC   C3A23921  40.693  12.943   7.855
 1683POPC   C4A23922  40.664  13.130   7.440
 1683POPC   C1B23923  41.122  12.623   8.692
 1683POPC   C2B23924  41.303  12.542   8.271
 1683POPC   C3B23925  41.129  12.675   7.868
 1683POPC   C4B23926  40.890  12.659   7.458
 1684POPC   NC323927  39.991  41.009   9.502
 1684POPC   PO423928  39.718  40.375   9.621
 1684POPC   GL123929  39.966  40.514   9.231
 1684POPC   GL223930  39.884  40.871   9.039
 1684POPC   C1A23931  40.275  40.609   8.884
 1684POPC   D2A23932  40.041  40.790   8.541
 1684POPC   C3A23933  40.015  40.545   8.182
 1684POPC   C4A23934  40.206  40.648   7.805
 1684POPC   C1B23935  39.873  41.261   8.732
 1684POPC   C2B23936  39.840  41.200   8.263
 1684POPC   C3B23937  40.083  41.146   7.852
 1684POPC   C4B23938  40.134  41.122   7.379
 1685POPC   NC323939  35.798  20.360   9.398
 1685POPC   PO423940  35.783  21.057   9.578
 1685POPC   GL123941  35.977  20.861   9.197
 1685POPC   GL223942  36.231  20.569   9.180
 1685POPC   C1A23943  36.036  20.760   8.758
 1685POPC   D2A23944  36.243  20.890   8.380
 1685POPC   C3A23945  36.096  20.784   7.983
 1685POPC   C4A23946  36.118  20.639   7.537
 1685POPC   C1B23947  36.327  20.369   8.753
 1685POPC   C2B23948  36.123  20.399   8.342
 1685POPC   C3B23949  36.005  20.299   7.909
 1685POPC   C4B23950  36.310  20.168   7.591
 1686POPC   NC323951  21.889  32.138   9.480
 1686POPC   PO423952  22.563  32.289   9.630
 1686POPC   GL123953  22.338  32.369   9.231
 1686POPC   GL223954  22.311  32.025   9.175
 1686POPC   C1A23955  22.201  32.440   8.770
 1686POPC   D2A23956  22.042  32.209   8.408
 1686POPC   C3A23957  22.276  32.072   8.060
 1686POPC   C4A23958  22.096  32.225   7.698
 1686POPC   C1B23959  22.045  31.889   8.823
 1686POPC   C2B23960  22.110  31.708   8.384
 1686POPC   C3B23961  21.862  31.792   7.956
 1686POPC   C4B23962  21.835  31.880   7.454
 1687POPC   NC323963   6.090  36.321   9.472
 1687POPC   PO423964   5.549  35.948   9.514
 1687POPC   GL123965   5.770  36.052   9.135
 1687POPC   GL223966   6.093  35.910   9.170
 1687POPC   C1A23967   5.687  36.048   8.682
 1687POPC   D2A23968   5.714  36.093   8.255
 1687POPC   C3A23969   5.510  35.917   7.888
 1687POPC   C4A23970   5.491  36.262   7.516
 1687POPC   C1B23971   6.207  36.078   8.796
 1687POPC   C2B23972   6.239  36.204   8.370
 1687POPC   C3B23973   6.344  36.018   7.997
 1687POPC   C4B23974   5.960  36.138   7.803
 1688POPC   NC323975   1.095  42.072   9.499
 1688POPC   PO423976   1.530  42.559   9.752
 1688POPC   GL123977   1.482  42.351   9.316
 1688POPC   GL223978   1.166  42.466   9.155
 1688POPC   C1A23979   1.535  42.339   8.835
 1688POPC   D2A23980   1.390  42.209   8.427
 1688POPC   C3A23981   1.533  42.462   8.084
 1688POPC   C4A23982   1.384  42.417   7.679
 1688POPC   C1B23983   1.024  42.271   8.787
 1688POPC   C2B23984   0.900  42.376   8.368
 1688POPC   C3B23985   0.951  42.311   7.925
 1688POPC   C4B23986   0.871  42.589   7.555
 1689POPC   NC323987  27.225  18.995   9.551
 1689POPC   PO423988  27.852  19.322   9.464
 1689POPC   GL123989  27.571  19.047   9.162
 1689POPC   GL223990  27.190  19.063   9.041
 1689POPC   C1A23991  27.557  18.840   8.764
 1689POPC   D2A23992  27.645  18.910   8.342
 1689POPC   C3A23993  27.374  18.816   8.010
 1689POPC   C4A23994  27.598  18.869   7.670
 1689POPC   C1B23995  27.323  19.334   8.675
 1689POPC   C2B23996  27.315  19.301   8.198
 1689POPC   C3B23997  27.392  19.373   7.800
 1689POPC   C4B23998  27.256  19.503   7.416
 1690POPC   NC323999  22.317  11.123  10.016
 1690POPC   PO424000  22.061  11.501   9.542
 1690POPC   GL124001  22.190  11.314   9.138
 1690POPC   GL224002  21.895  11.154   9.058
 1690POPC   C1A24003  22.227  11.259   8.667
 1690POPC   D2A24004  22.160  11.336   8.225
 1690POPC   C3A24005  22.434  11.405   7.896
 1690POPC   C4A24006  22.672  11.728   7.705
 1690POPC   C1B24007  21.948  10.841   8.767
 1690POPC   C2B24008  22.130  10.819   8.371
 1690POPC   C3B24009  22.122  10.937   7.932
 1690POPC   C4B24010  22.439  10.917   7.644
 1691POPC   NC324011  32.220   1.526   9.438
 1691POPC   PO424012  32.141   0.932   9.706
 1691POPC   GL124013  32.163   1.053   9.226
 1691POPC   GL224014  32.516   1.074   9.132
 1691POPC   C1A24015  32.218   0.914   8.751
 1691POPC   D2A24016  31.999   1.010   8.361
 1691POPC   C3A24017  32.173   0.952   7.971
 1691POPC   C4A24018  32.317   1.087   7.545
 1691POPC   C1B24019  32.415   1.386   8.821
 1691POPC   C2B24020  32.299   1.442   8.378
 1691POPC   C3B24021  32.459   1.381   7.970
 1691POPC   C4B24022  32.473   1.572   7.583
 1692POPC   NC324023  24.830  11.853   9.494
 1692POPC   PO424024  24.056  11.907   9.424
 1692POPC   GL124025  24.262  12.123   9.069
 1692POPC   GL224026  24.589  12.034   9.082
 1692POPC   C1A24027  24.379  12.153   8.634
 1692POPC   D2A24028  24.464  12.383   8.286
 1692POPC   C3A24029  24.315  12.125   7.966
 1692POPC   C4A24030  24.287  12.210   7.567
 1692POPC   C1B24031  24.776  11.814   8.743
 1692POPC   C2B24032  24.824  12.003   8.342
 1692POPC   C3B24033  24.817  12.178   7.968
 1692POPC   C4B24034  24.716  11.944   7.650
 1693POPC   NC324035  10.592   2.517   9.427
 1693POPC   PO424036  10.635   3.119   9.755
 1693POPC   GL124037  10.359   2.931   9.304
 1693POPC   GL224038  10.099   3.050   9.196
 1693POPC   C1A24039  10.315   2.681   8.865
 1693POPC   D2A24040  10.569   2.478   8.532
 1693POPC   C3A24041  10.490   2.652   8.128
 1693POPC   C4A24042  10.831   2.649   7.858
 1693POPC   C1B24043  10.397   3.189   8.837
 1693POPC   C2B24044  10.662   3.007   8.503
 1693POPC   C3B24045  10.886   3.147   8.133
 1693POPC   C4B24046  10.714   3.124   7.737
 1694POPC   NC324047   1.448  21.261   9.749
 1694POPC   PO424048   0.939  21.644   9.535
 1694POPC   GL124049   1.297  21.428   9.298
 1694POPC   GL224050   1.101  21.218   9.113
 1694POPC   C1A24051   1.511  21.359   8.888
 1694POPC   D2A24052   1.309  21.427   8.505
 1694POPC   C3A24053   1.447  21.429   8.078
 1694POPC   C4A24054   1.545  21.531   7.651
 1694POPC   C1B24055   0.891  21.190   8.710
 1694POPC   C2B24056   0.907  21.211   8.249
 1694POPC   C3B24057   0.933  21.544   7.931
 1694POPC   C4B24058   1.048  21.529   7.504
 1695POPC   NC324059  36.411  23.890   9.533
 1695POPC   PO424060  36.012  23.455   9.404
 1695POPC   GL124061  36.207  23.644   9.093
 1695POPC   GL224062  35.909  23.692   8.921
 1695POPC   C1A24063  36.331  23.643   8.654
 1695POPC   D2A24064  36.121  23.523   8.277
 1695POPC   C3A24065  36.360  23.628   7.923
 1695POPC   C4A24066  36.231  23.817   7.567
 1695POPC   C1B24067  35.727  23.760   8.508
 1695POPC   C2B24068  35.697  24.082   8.169
 1695POPC   C3B24069  35.718  24.148   7.693
 1695POPC   C4B24070  35.851  23.988   7.284
 1696POPC   NC324071  27.953   8.701   9.721
 1696POPC   PO424072  27.491   8.222   9.467
 1696POPC   GL124073  27.444   8.284   9.030
 1696POPC   GL224074  27.753   8.334   8.917
 1696POPC   C1A24075  27.404   8.486   8.619
 1696POPC   D2A24076  27.127   8.465   8.306
 1696POPC   C3A24077  27.368   8.558   7.977
 1696POPC   C4A24078  27.639   8.238   7.832
 1696POPC   C1B24079  27.853   8.208   8.520
 1696POPC   C2B24080  28.058   8.349   8.159
 1696POPC   C3B24081  28.136   8.088   7.834
 1696POPC   C4B24082  27.888   7.745   7.830
 1697POPC   NC324083  14.673  13.640   9.485
 1697POPC   PO424084  14.131  13.603   9.226
 1697POPC   GL124085  14.494  13.653   9.000
 1697POPC   GL224086  14.624  13.317   9.096
 1697POPC   C1A24087  14.490  13.623   8.555
 1697POPC   D2A24088  14.405  13.519   8.117
 1697POPC   C3A24089  14.697  13.644   7.810
 1697POPC   C4A24090  14.684  14.023   7.561
 1697POPC   C1B24091  14.362  13.174   8.758
 1697POPC   C2B24092  14.170  13.163   8.394
 1697POPC   C3B24093  14.041  13.121   7.982
 1697POPC   C4B24094  14.245  13.312   7.664
 1698POPC   NC324095  19.051  37.276   9.421
 1698POPC   PO424096  19.182  37.914   9.574
 1698POPC   GL124097  19.182  37.714   9.112
 1698POPC   GL224098  18.905  37.478   8.995
 1698POPC   C1A24099  19.087  37.770   8.634
 1698POPC   D2A24100  19.185  37.803   8.209
 1698POPC   C3A24101  19.086  37.585   7.814
 1698POPC   C4A24102  19.234  37.882   7.475
 1698POPC   C1B24103  19.217  37.286   8.689
 1698POPC   C2B24104  19.117  37.291   8.245
 1698POPC   C3B24105  18.739  37.218   8.007
 1698POPC   C4B24106  18.498  37.533   7.774
 1699POPC   NC324107  21.109   2.693   9.708
 1699POPC   PO424108  21.605   2.827   9.250
 1699POPC   GL124109  21.387   2.603   9.018
 1699POPC   GL224110  21.085   2.496   9.192
 1699POPC   C1A24111  21.371   2.687   8.590
 1699POPC   D2A24112  21.131   2.696   8.237
 1699POPC   C3A24113  21.443   2.554   7.975
 1699POPC   C4A24114  21.818   2.598   7.804
 1699POPC   C1B24115  20.929   2.769   8.842
 1699POPC   C2B24116  21.058   3.106   8.565
 1699POPC   C3B24117  21.104   3.188   8.123
 1699POPC   C4B24118  21.174   2.933   7.776
 1700POPC   NC324119  32.068  12.569   9.351
 1700POPC   PO424120  31.408  12.730   9.534
 1700POPC   GL124121  31.527  12.764   9.175
 1700POPC   GL224122  31.460  13.096   9.178
 1700POPC   C1A24123  31.392  12.535   8.818
 1700POPC   D2A24124  31.239  12.742   8.462
 1700POPC   C3A24125  31.539  12.739   8.154
 1700POPC   C4A24126  31.440  12.804   7.723
 1700POPC   C1B24127  31.583  13.012   8.748
 1700POPC   C2B24128  31.518  13.205   8.398
 1700POPC   C3B24129  31.282  13.173   8.043
 1700POPC   C4B24130  31.562  13.306   7.718
 1701POPC   NC324131  40.242  40.049   9.380
 1701POPC   PO424132  40.797  40.239   9.687
 1701POPC   GL124133  40.841  39.964   9.331
 1701POPC   GL224134  40.748  40.240   9.169
 1701POPC   C1A24135  40.895  39.824   8.894
 1701POPC   D2A24136  40.655  39.733   8.502
 1701POPC   C3A24137  40.797  39.817   8.062
 1701POPC   C4A24138  40.766  39.991   7.637
 1701POPC   C1B24139  40.560  40.191   8.798
 1701POPC   C2B24140  40.745  40.243   8.416
 1701POPC   C3B24141  40.556  40.298   8.035
 1701POPC   C4B24142  40.690  40.484   7.659
 1702POPC   NC324143  31.663  20.955   9.600
 1702POPC   PO424144  31.106  20.609   9.426
 1702POPC   GL124145  31.286  20.644   9.062
 1702POPC   GL224146  31.574  20.832   9.109
 1702POPC   C1A24147  31.248  20.631   8.629
 1702POPC   D2A24148  31.463  20.308   8.421
 1702POPC   C3A24149  31.471  20.474   8.053
 1702POPC   C4A24150  31.536  20.444   7.667
 1702POPC   C1B24151  31.742  20.621   8.748
 1702POPC   C2B24152  31.872  20.647   8.331
 1702POPC   C3B24153  31.870  20.837   7.920
 1702POPC   C4B24154  31.866  20.763   7.469
 1703POPC   NC324155  10.770  43.776   9.735
 1703POPC   PO424156  10.042  43.656   9.501
 1703POPC   GL124157  10.363  43.912   9.208
 1703POPC   GL224158  10.732  44.009   9.276
 1703POPC   C1A24159  10.326  44.037   8.781
 1703POPC   D2A24160  10.236  43.802   8.395
 1703POPC   C3A24161  10.407  43.982   8.031
 1703POPC   C4A24162  10.559  44.369   7.864
 1703POPC   C1B24163  10.886  43.830   8.886
 1703POPC   C2B24164  10.749  43.724   8.466
 1703POPC   C3B24165  10.961  43.575   8.093
 1703POPC   C4B24166  10.863  43.778   7.754
 1704POPC   NC324167  14.360  34.401   9.793
 1704POPC   PO424168  14.033  34.805   9.365
 1704POPC   GL124169  14.204  34.680   8.996
 1704POPC   GL224170  14.489  34.560   9.175
 1704POPC   C1A24171  14.154  34.610   8.577
 1704POPC   D2A24172  14.315  34.786   8.211
 1704POPC   C3A24173  14.221  34.532   7.882
 1704POPC   C4A24174  13.823  34.538   7.713
 1704POPC   C1B24175  14.678  34.602   8.742
 1704POPC   C2B24176  14.753  34.537   8.280
 1704POPC   C3B24177  14.770  34.544   7.827
 1704POPC   C4B24178  14.925  34.283   7.486
 1705POPC   NC324179   9.984  37.986  10.003
 1705POPC   PO424180   9.532  37.556   9.782
 1705POPC   GL124181   9.612  37.684   9.332
 1705POPC   GL224182   9.876  37.537   9.151
 1705POPC   C1A24183   9.510  37.774   8.878
 1705POPC   D2A24184   9.678  37.609   8.469
 1705POPC   C3A24185   9.494  37.751   8.076
 1705POPC   C4A24186   9.636  37.820   7.654
 1705POPC   C1B24187  10.045  37.818   8.822
 1705POPC   C2B24188  10.179  37.834   8.389
 1705POPC   C3B24189  10.063  37.770   7.959
 1705POPC   C4B24190  10.126  38.043   7.592
 1706POPC   NC324191  36.044  33.681   9.618
 1706POPC   PO424192  36.469  34.203   9.592
 1706POPC   GL124193  36.196  34.052   9.244
 1706POPC   GL224194  35.835  34.054   9.333
 1706POPC   C1A24195  36.005  33.752   8.952
 1706POPC   D2A24196  36.051  33.560   8.544
 1706POPC   C3A24197  35.847  33.695   8.201
 1706POPC   C4A24198  35.951  33.802   7.785
 1706POPC   C1B24199  35.756  34.180   8.889
 1706POPC   C2B24200  35.963  34.101   8.500
 1706POPC   C3B24201  35.842  34.205   8.068
 1706POPC   C4B24202  35.655  34.273   7.681
 1707POPC   NC324203  34.874  26.812   9.655
 1707POPC   PO424204  34.184  27.089   9.521
 1707POPC   GL124205  34.541  26.995   9.252
 1707POPC   GL224206  34.668  26.644   9.212
 1707POPC   C1A24207  34.564  26.915   8.801
 1707POPC   D2A24208  34.838  26.935   8.471
 1707POPC   C3A24209  34.601  27.020   8.103
 1707POPC   C4A24210  34.736  27.125   7.707
 1707POPC   C1B24211  34.541  26.394   8.849
 1707POPC   C2B24212  34.544  26.510   8.432
 1707POPC   C3B24213  34.553  26.360   8.036
 1707POPC   C4B24214  34.592  26.619   7.690
 1708POPC   NC324215   0.519  44.284   9.370
 1708POPC   PO424216   0.338  43.639   9.516
 1708POPC   GL124217   0.557  43.766   9.130
 1708POPC   GL224218   0.885  43.602   9.072
 1708POPC   C1A24219   0.677  44.068   8.802
 1708POPC   D2A24220   0.849  44.228   8.437
 1708POPC   C3A24221   0.559  44.034   8.172
 1708POPC   C4A24222   0.553  43.992   7.752
 1708POPC   C1B24223   0.664  43.407   8.752
 1708POPC   C2B24224   0.464  43.395   8.353
 1708POPC   C3B24225   0.643  43.541   7.946
 1708POPC   C4B24226   0.942  43.649   7.598
 1709POPC   NC324227  35.628   7.702   9.373
 1709POPC   PO424228  35.217   7.218   9.542
 1709POPC   GL124229  35.149   7.243   9.154
 1709POPC   GL224230  35.155   7.573   9.144
 1709POPC   C1A24231  35.203   7.094   8.773
 1709POPC   D2A24232  35.435   7.183   8.405
 1709POPC   C3A24233  35.182   7.259   8.053
 1709POPC   C4A24234  35.333   7.271   7.635
 1709POPC   C1B24235  35.321   7.583   8.730
 1709POPC   C2B24236  35.199   7.713   8.322
 1709POPC   C3B24237  35.380   7.723   7.917
 1709POPC   C4B24238  35.454   7.728   7.465
 1710POPC   NC324239  16.043  26.257   9.552
 1710POPC   PO424240  15.818  25.551   9.512
 1710POPC   GL124241  15.768  25.755   9.113
 1710POPC   GL224242  15.829  26.124   9.100
 1710POPC   C1A24243  15.596  25.876   8.702
 1710POPC   D2A24244  15.712  26.187   8.404
 1710POPC   C3A24245  15.994  26.002   8.137
 1710POPC   C4A24246  15.899  25.919   7.743
 1710POPC   C1B24247  16.101  26.050   8.713
 1710POPC   C2B24248  16.294  26.330   8.420
 1710POPC   C3B24249  16.201  26.433   7.988
 1710POPC   C4B24250  16.363  26.139   7.712
 1711POPC   NC324251  12.710  39.951   9.472
 1711POPC   PO424252  13.380  39.666   9.513
 1711POPC   GL124253  13.096  39.763   9.159
 1711POPC   GL224254  12.987  40.128   9.085
 1711POPC   C1A24255  13.151  39.784   8.711
 1711POPC   D2A24256  12.927  39.884   8.338
 1711POPC   C3A24257  12.907  39.710   7.902
 1711POPC   C4A24258  12.845  39.837   7.443
 1711POPC   C1B24259  12.801  40.355   8.739
 1711POPC   C2B24260  12.925  40.419   8.334
 1711POPC   C3B24261  12.811  40.224   7.976
 1711POPC   C4B24262  12.531  40.146   7.697
 1712POPC   NC324263  39.382  40.237   9.322
 1712POPC   PO424264  39.000  39.698   9.463
 1712POPC   GL124265  39.087  39.902   9.068
 1712POPC   GL224266  39.069  40.289   8.956
 1712POPC   C1A24267  39.399  39.800   8.772
 1712POPC   D2A24268  39.232  39.649   8.414
 1712POPC   C3A24269  39.369  39.865   8.069
 1712POPC   C4A24270  39.067  40.023   7.854
 1712POPC   C1B24271  39.110  40.154   8.589
 1712POPC   C2B24272  39.385  40.318   8.298
 1712POPC   C3B24273  39.330  40.444   7.883
 1712POPC   C4B24274  39.037  40.391   7.512
 1713POPC   NC324275  29.937   7.600   9.374
 1713POPC   PO424276  29.872   8.298   9.474
 1713POPC   GL124277  29.964   8.059   9.142
 1713POPC   GL224278  30.287   7.973   9.178
 1713POPC   C1A24279  29.829   8.056   8.742
 1713POPC   D2A24280  29.586   8.176   8.442
 1713POPC   C3A24281  29.732   7.933   8.105
 1713POPC   C4A24282  29.571   8.081   7.747
 1713POPC   C1B24283  30.340   8.320   8.899
 1713POPC   C2B24284  30.184   8.448   8.528
 1713POPC   C3B24285  30.026   8.327   8.142
 1713POPC   C4B24286  30.149   8.246   7.734
 1714POPC   NC324287  13.786  15.373   9.520
 1714POPC   PO424288  13.494  14.892   9.204
 1714POPC   GL124289  13.589  15.338   9.034
 1714POPC   GL224290  13.959  15.450   9.065
 1714POPC   C1A24291  13.584  15.380   8.577
 1714POPC   D2A24292  13.635  15.009   8.320
 1714POPC   C3A24293  13.440  15.057   7.906
 1714POPC   C4A24294  13.176  15.400   7.900
 1714POPC   C1B24295  14.048  15.201   8.753
 1714POPC   C2B24296  14.114  15.325   8.357
 1714POPC   C3B24297  13.868  15.329   8.008
 1714POPC   C4B24298  13.903  14.922   7.776
 1715POPC   NC324299  27.070  16.601   9.472
 1715POPC   PO424300  26.583  17.149   9.512
 1715POPC   GL124301  26.740  16.903   9.187
 1715POPC   GL224302  27.097  17.000   9.162
 1715POPC   C1A24303  26.673  16.662   8.801
 1715POPC   D2A24304  26.448  16.482   8.458
 1715POPC   C3A24305  26.649  16.563   8.101
 1715POPC   C4A24306  26.691  16.514   7.682
 1715POPC   C1B24307  27.177  16.794   8.784
 1715POPC   C2B24308  27.039  16.825   8.405
 1715POPC   C3B24309  27.159  16.993   8.054
 1715POPC   C4B24310  26.938  16.929   7.760
 1716POPC   NC324311  21.991  42.136   9.682
 1716POPC   PO424312  22.281  42.672   9.878
 1716POPC   GL124313  22.393  42.517   9.419
 1716POPC   GL224314  22.241  42.205   9.256
 1716POPC   C1A24315  22.373  42.668   8.974
 1716POPC   D2A24316  22.335  42.746   8.513
 1716POPC   C3A24317  22.392  42.439   8.183
 1716POPC   C4A24318  22.196  42.265   7.788
 1716POPC   C1B24319  22.175  42.217   8.834
 1716POPC   C2B24320  21.969  42.322   8.450
 1716POPC   C3B24321  21.840  42.052   8.121
 1716POPC   C4B24322  21.738  41.997   7.706
 1717POPC   NC324323   6.177   8.624   9.524
 1717POPC   PO424324   5.629   9.083   9.546
 1717POPC   GL124325   5.673   8.884   9.167
 1717POPC   GL224326   5.718   8.570   9.311
 1717POPC   C1A24327   5.687   9.006   8.731
 1717POPC   D2A24328   5.939   9.317   8.469
 1717POPC   C3A24329   5.947   9.202   8.039
 1717POPC   C4A24330   5.646   8.995   7.819
 1717POPC   C1B24331   5.980   8.563   8.878
 1717POPC   C2B24332   5.956   8.701   8.423
 1717POPC   C3B24333   6.093   8.643   7.996
 1717POPC   C4B24334   5.922   8.574   7.600
 1718POPC   NC324335  18.111   1.137   9.376
 1718POPC   PO424336  18.351   1.773   9.654
 1718POPC   GL124337  18.446   1.491   9.177
 1718POPC   GL224338  18.095   1.335   8.914
 1718POPC   C1A24339  18.541   1.278   8.745
 1718POPC   D2A24340  18.218   1.115   8.434
 1718POPC   C3A24341  18.243   1.418   8.116
 1718POPC   C4A24342  18.634   1.519   7.950
 1718POPC   C1B24343  17.837   0.966   8.806
 1718POPC   C2B24344  17.675   0.851   8.432
 1718POPC   C3B24345  17.901   0.837   8.065
 1718POPC   C4B24346  17.888   1.204   7.845
 1719POPC   NC324347  12.478   8.346   9.411
 1719POPC   PO424348  13.082   8.327   9.705
 1719POPC   GL124349  12.891   8.222   9.153
 1719POPC   GL224350  12.640   8.015   9.082
 1719POPC   C1A24351  12.864   8.300   8.697
 1719POPC   D2A24352  13.037   8.206   8.280
 1719POPC   C3A24353  12.768   8.306   7.923
 1719POPC   C4A24354  12.874   8.368   7.466
 1719POPC   C1B24355  12.410   8.053   8.751
 1719POPC   C2B24356  12.552   7.990   8.354
 1719POPC   C3B24357  12.311   8.070   8.004
 1719POPC   C4B24358  12.440   8.058   7.612
 1720POPC   NC324359  38.765  16.404   9.791
 1720POPC   PO424360  38.210  16.823   9.571
 1720POPC   GL124361  38.188  16.835   9.142
 1720POPC   GL224362  38.016  16.524   9.030
 1720POPC   C1A24363  38.493  16.874   8.813
 1720POPC   D2A24364  38.709  17.075   8.459
 1720POPC   C3A24365  38.702  16.868   8.052
 1720POPC   C4A24366  38.792  17.029   7.649
 1720POPC   C1B24367  37.918  16.823   8.710
 1720POPC   C2B24368  38.226  16.794   8.369
 1720POPC   C3B24369  38.277  16.473   8.045
 1720POPC   C4B24370  38.514  16.550   7.669
 1721POPC   NC324371   4.281   6.431   9.661
 1721POPC   PO424372   4.634   6.858   9.344
 1721POPC   GL124373   4.201   6.674   9.213
 1721POPC   GL224374   4.182   6.289   9.175
 1721POPC   C1A24375   3.968   6.822   8.826
 1721POPC   D2A24376   4.020   7.098   8.448
 1721POPC   C3A24377   4.012   6.877   8.044
 1721POPC   C4A24378   4.239   6.754   7.680
 1721POPC   C1B24379   4.357   6.478   8.785
 1721POPC   C2B24380   4.507   6.515   8.392
 1721POPC   C3B24381   4.370   6.383   8.002
 1721POPC   C4B24382   4.578   6.382   7.587
 1722POPC   NC324383   5.921  24.871   9.510
 1722POPC   PO424384   5.589  25.369   9.771
 1722POPC   GL124385   5.593  25.397   9.290
 1722POPC   GL224386   5.824  25.176   9.122
 1722POPC   C1A24387   5.545  25.497   8.846
 1722POPC   D2A24388   5.439  25.388   8.419
 1722POPC   C3A24389   5.795  25.264   8.181
 1722POPC   C4A24390   5.843  25.482   7.841
 1722POPC   C1B24391   6.083  24.965   8.826
 1722POPC   C2B24392   6.220  25.059   8.421
 1722POPC   C3B24393   6.206  24.981   7.978
 1722POPC   C4B24394   5.879  24.976   7.721
 1723POPC   NC324395  30.948   2.231   9.268
 1723POPC   PO424396  30.728   1.589   9.437
 1723POPC   GL124397  30.703   1.806   9.109
 1723POPC   GL224398  31.058   1.775   9.046
 1723POPC   C1A24399  30.592   2.016   8.746
 1723POPC   D2A24400  30.611   1.876   8.364
 1723POPC   C3A24401  30.514   2.183   8.109
 1723POPC   C4A24402  30.560   2.088   7.691
 1723POPC   C1B24403  31.084   1.967   8.639
 1723POPC   C2B24404  31.059   2.155   8.232
 1723POPC   C3B24405  31.083   2.149   7.796
 1723POPC   C4B24406  31.121   1.866   7.466
 1724POPC   NC324407   1.408  29.555   9.477
 1724POPC   PO424408   1.216  28.883   9.510
 1724POPC   GL124409   1.049  28.915   9.144
 1724POPC   GL224410   1.128  29.283   9.138
 1724POPC   C1A24411   1.212  28.937   8.769
 1724POPC   D2A24412   1.187  29.235   8.446
 1724POPC   C3A24413   1.241  29.060   8.073
 1724POPC   C4A24414   1.180  28.813   7.748
 1724POPC   C1B24415   1.308  29.576   8.819
 1724POPC   C2B24416   1.496  29.649   8.404
 1724POPC   C3B24417   1.498  29.501   7.957
 1724POPC   C4B24418   1.167  29.431   7.643
 1725POPC   NC324419   5.402  14.943   9.356
 1725POPC   PO424420   5.038  15.400   9.709
 1725POPC   GL124421   5.085  15.335   9.224
 1725POPC   GL224422   5.367  15.336   8.985
 1725POPC   C1A24423   4.862  15.272   8.842
 1725POPC   D2A24424   5.061  15.276   8.454
 1725POPC   C3A24425   4.888  15.083   8.091
 1725POPC   C4A24426   4.886  15.039   7.642
 1725POPC   C1B24427   5.511  15.070   8.626
 1725POPC   C2B24428   5.419  15.000   8.214
 1725POPC   C3B24429   5.295  14.783   7.880
 1725POPC   C4B24430   5.568  14.767   7.559
 1726POPC   NC324431  20.410  21.752   9.620
 1726POPC   PO424432  20.458  21.096   9.628
 1726POPC   GL124433  20.351  21.253   9.168
 1726POPC   GL224434  20.296  21.634   9.132
 1726POPC   C1A24435  20.543  21.419   8.739
 1726POPC   D2A24436  20.786  21.699   8.426
 1726POPC   C3A24437  20.728  21.562   7.978
 1726POPC   C4A24438  20.894  21.207   7.758
 1726POPC   C1B24439  20.180  21.808   8.716
 1726POPC   C2B24440  20.300  21.682   8.289
 1726POPC   C3B24441  20.223  21.592   7.843
 1726POPC   C4B24442  20.435  21.337   7.516
 1727POPC   NC324443  25.011  28.124   9.560
 1727POPC   PO424444  25.227  28.797   9.481
 1727POPC   GL124445  25.267  28.422   9.198
 1727POPC   GL224446  24.955  28.372   9.126
 1727POPC   C1A24447  25.289  28.168   8.818
 1727POPC   D2A24448  25.423  28.306   8.466
 1727POPC   C3A24449  25.233  28.300   8.105
 1727POPC   C4A24450  25.440  28.501   7.777
 1727POPC   C1B24451  25.085  28.626   8.737
 1727POPC   C2B24452  25.054  28.775   8.310
 1727POPC   C3B24453  24.954  28.732   7.879
 1727POPC   C4B24454  24.949  28.336   7.689
 1728POPC   NC324455  33.428   5.112   9.837
 1728POPC   PO424456  34.017   5.026   9.405
 1728POPC   GL124457  33.985   4.752   9.129
 1728POPC   GL224458  33.666   4.710   9.096
 1728POPC   C1A24459  33.968   4.899   8.696
 1728POPC   D2A24460  33.794   5.240   8.429
 1728POPC   C3A24461  33.989   5.218   8.031
 1728POPC   C4A24462  34.006   4.890   7.695
 1728POPC   C1B24463  33.472   4.713   8.706
 1728POPC   C2B24464  33.633   4.750   8.302
 1728POPC   C3B24465  33.547   4.936   7.923
 1728POPC   C4B24466  33.538   4.640   7.594
 1729POPC   NC324467  19.888  40.170   9.762
 1729POPC   PO424468  20.597  40.206   9.579
 1729POPC   GL124469  20.613  40.001   9.167
 1729POPC   GL224470  20.270  39.899   9.097
 1729POPC   C1A24471  20.594  40.000   8.698
 1729POPC   D2A24472  20.792  39.866   8.288
 1729POPC   C3A24473  20.482  39.969   8.006
 1729POPC   C4A24474  20.360  40.204   7.623
 1729POPC   C1B24475  20.335  39.577   8.775
 1729POPC   C2B24476  20.406  39.535   8.318
 1729POPC   C3B24477  20.198  39.554   7.893
 1729POPC   C4B24478  20.430  39.687   7.550
 1730POPC   NC324479  35.765  40.973   9.441
 1730POPC   PO424480  36.389  40.679   9.477
 1730POPC   GL124481  36.198  40.515   9.094
 1730POPC   GL224482  36.041  40.860   9.045
 1730POPC   C1A24483  36.040  40.556   8.665
 1730POPC   D2A24484  35.991  40.975   8.481
 1730POPC   C3A24485  35.905  40.923   8.053
 1730POPC   C4A24486  36.077  40.628   7.800
 1730POPC   C1B24487  36.416  40.940   8.843
 1730POPC   C2B24488  36.599  41.116   8.521
 1730POPC   C3B24489  36.544  41.089   8.125
 1730POPC   C4B24490  36.325  41.066   7.769
 1731POPC   NC324491  25.237  40.118   9.541
 1731POPC   PO424492  25.582  39.661   9.316
 1731POPC   GL124493  25.316  39.927   9.070
 1731POPC   GL224494  25.277  40.322   9.062
 1731POPC   C1A24495  25.457  39.903   8.672
 1731POPC   D2A24496  25.394  39.653   8.359
 1731POPC   C3A24497  25.415  39.887   8.004
 1731POPC   C4A24498  25.185  40.129   7.741
 1731POPC   C1B24499  25.381  40.413   8.622
 1731POPC   C2B24500  25.681  40.219   8.309
 1731POPC   C3B24501  25.641  40.357   7.884
 1731POPC   C4B24502  25.271  40.650   7.780
 1732POPC   NC324503   9.813  38.631   9.284
 1732POPC   PO424504   9.907  38.058   9.550
 1732POPC   GL124505   9.798  38.137   9.122
 1732POPC   GL224506   9.450  38.183   9.234
 1732POPC   C1A24507   9.875  38.265   8.641
 1732POPC   D2A24508  10.158  38.359   8.255
 1732POPC   C3A24509   9.988  38.466   7.820
 1732POPC   C4A24510   9.809  38.412   7.379
 1732POPC   C1B24511   9.399  38.330   8.837
 1732POPC   C2B24512   9.431  38.466   8.446
 1732POPC   C3B24513   9.643  38.247   8.155
 1732POPC   C4B24514   9.506  38.303   7.768
 1733POPC   NC324515  38.312  31.743   9.557
 1733POPC   PO424516  38.880  31.342   9.696
 1733POPC   GL124517  38.709  31.643   9.283
 1733POPC   GL224518  38.388  31.402   9.187
 1733POPC   C1A24519  38.475  31.784   8.861
 1733POPC   D2A24520  38.379  31.550   8.442
 1733POPC   C3A24521  38.614  31.590   8.012
 1733POPC   C4A24522  38.477  31.699   7.573
 1733POPC   C1B24523  38.282  31.013   8.952
 1733POPC   C2B24524  38.330  30.928   8.527
 1733POPC   C3B24525  38.438  31.087   8.131
 1733POPC   C4B24526  38.412  31.212   7.719
 1734POPC   NC324527  23.299  16.748   9.479
 1734POPC   PO424528  22.681  16.987   9.498
 1734POPC   GL124529  22.973  17.050   9.189
 1734POPC   GL224530  22.987  16.722   9.072
 1734POPC   C1A24531  22.902  17.170   8.761
 1734POPC   D2A24532  23.015  17.004   8.357
 1734POPC   C3A24533  22.715  16.941   8.051
 1734POPC   C4A24534  22.690  17.124   7.672
 1734POPC   C1B24535  23.004  16.601   8.671
 1734POPC   C2B24536  22.875  16.487   8.266
 1734POPC   C3B24537  23.058  16.596   7.868
 1734POPC   C4B24538  23.200  16.429   7.469
 1735POPC   NC324539  27.766  28.128   9.444
 1735POPC   PO424540  27.176  28.594   9.565
 1735POPC   GL124541  27.449  28.479   9.177
 1735POPC   GL224542  27.816  28.494   9.108
 1735POPC   C1A24543  27.508  28.175   8.820
 1735POPC   D2A24544  27.709  28.144   8.422
 1735POPC   C3A24545  27.496  28.157   8.054
 1735POPC   C4A24546  27.386  28.434   7.754
 1735POPC   C1B24547  28.047  28.277   8.788
 1735POPC   C2B24548  28.171  28.371   8.372
 1735POPC   C3B24549  27.899  28.462   8.018
 1735POPC   C4B24550  27.859  28.195   7.653
 1736POPC   NC324551   3.932  39.178   9.708
 1736POPC   PO424552   3.386  38.776   9.592
 1736POPC   GL124553   3.548  39.000   9.220
 1736POPC   GL224554   3.637  39.343   9.139
 1736POPC   C1A24555   3.671  38.921   8.798
 1736POPC   D2A24556   3.481  39.075   8.427
 1736POPC   C3A24557   3.691  39.036   8.047
 1736POPC   C4A24558   3.406  39.084   7.721
 1736POPC   C1B24559   3.818  39.507   8.772
 1736POPC   C2B24560   3.613  39.564   8.378
 1736POPC   C3B24561   3.516  39.553   7.964
 1736POPC   C4B24562   3.885  39.586   7.747
 1737POPC   NC324563  25.869  44.045   9.588
 1737POPC   PO424564  25.421  43.612   9.451
 1737POPC   GL124565  25.793  43.683   9.146
 1737POPC   GL224566  26.096  43.915   9.140
 1737POPC   C1A24567  25.812  43.842   8.732
 1737POPC   D2A24568  26.016  43.978   8.378
 1737POPC   C3A24569  25.745  44.037   8.067
 1737POPC   C4A24570  25.918  43.836   7.731
 1737POPC   C1B24571  26.324  44.092   8.769
 1737POPC   C2B24572  26.460  44.256   8.381
 1737POPC   C3B24573  26.410  44.167   7.923
 1737POPC   C4B24574  26.447  44.267   7.471
 1738POPC   NC324575  30.572  24.784   9.495
 1738POPC   PO424576  30.848  24.188   9.544
 1738POPC   GL124577  30.857  24.449   9.190
 1738POPC   GL224578  30.528  24.486   9.077
 1738POPC   C1A24579  30.914  24.252   8.800
 1738POPC   D2A24580  30.751  24.011   8.461
 1738POPC   C3A24581  30.861  24.191   8.040
 1738POPC   C4A24582  30.681  24.338   7.643
 1738POPC   C1B24583  30.726  24.732   8.717
 1738POPC   C2B24584  30.835  24.742   8.265
 1738POPC   C3B24585  30.520  24.750   7.935
 1738POPC   C4B24586  30.558  24.822   7.495
 1739POPC   NC324587  32.206  43.434   9.503
 1739POPC   PO424588  32.442  42.812   9.464
 1739POPC   GL124589  32.272  43.076   9.133
 1739POPC   GL224590  32.505  43.375   9.094
 1739POPC   C1A24591  31.982  43.160   8.775
 1739POPC   D2A24592  32.184  43.042   8.371
 1739POPC   C3A24593  32.024  43.161   7.998
 1739POPC   C4A24594  32.140  43.066   7.562
 1739POPC   C1B24595  32.493  43.289   8.703
 1739POPC   C2B24596  32.694  43.366   8.356
 1739POPC   C3B24597  32.528  43.238   8.002
 1739POPC   C4B24598  32.482  43.445   7.652
 1740POPC   NC324599   2.825  18.635   9.542
 1740POPC   PO424600   2.635  17.979   9.684
 1740POPC   GL124601   2.681  18.147   9.265
 1740POPC   GL224602   3.003  18.318   9.208
 1740POPC   C1A24603   2.725  17.996   8.832
 1740POPC   D2A24604   2.688  18.209   8.442
 1740POPC   C3A24605   2.699  18.033   8.068
 1740POPC   C4A24606   2.532  18.289   7.783
 1740POPC   C1B24607   3.029  18.407   8.788
 1740POPC   C2B24608   3.191  18.140   8.496
 1740POPC   C3B24609   3.145  18.285   8.112
 1740POPC   C4B24610   3.018  18.442   7.745
 1741POPC   NC324611  28.083  20.786   9.347
 1741POPC   PO424612  27.610  20.339   9.549
 1741POPC   GL124613  27.562  20.342   9.107
 1741POPC   GL224614  27.930  20.284   9.162
 1741POPC   C1A24615  27.474  20.632   8.722
 1741POPC   D2A24616  27.429  21.000   8.445
 1741POPC   C3A24617  27.283  20.951   8.013
 1741POPC   C4A24618  27.383  20.617   7.751
 1741POPC   C1B24619  27.962  20.460   8.777
 1741POPC   C2B24620  28.089  20.310   8.401
 1741POPC   C3B24621  27.895  20.237   8.000
 1741POPC   C4B24622  27.844  20.465   7.624
 1742POPC   NC324623  20.477   5.348   9.356
 1742POPC   PO424624  20.301   4.798   9.724
 1742POPC   GL124625  20.584   4.706   9.240
 1742POPC   GL224626  20.861   4.943   9.185
 1742POPC   C1A24627  20.594   4.834   8.772
 1742POPC   D2A24628  20.548   5.158   8.479
 1742POPC   C3A24629  20.514   4.955   8.101
 1742POPC   C4A24630  20.378   5.209   7.785
 1742POPC   C1B24631  20.893   5.288   8.846
 1742POPC   C2B24632  20.953   5.504   8.458
 1742POPC   C3B24633  20.829   5.404   8.074
 1742POPC   C4B24634  20.912   5.121   7.786
 1743POPC   NC324635  17.606   7.351   9.809
 1743POPC   PO424636  17.163   7.670   9.540
 1743POPC   GL124637  17.336   7.503   9.154
 1743POPC   GL224638  17.673   7.447   9.275
 1743POPC   C1A24639  17.247   7.599   8.683
 1743POPC   D2A24640  17.174   7.608   8.238
 1743POPC   C3A24641  17.516   7.492   7.957
 1743POPC   C4A24642  17.585   7.663   7.575
 1743POPC   C1B24643  17.722   7.660   8.853
 1743POPC   C2B24644  17.704   7.673   8.389
 1743POPC   C3B24645  17.914   7.831   7.960
 1743POPC   C4B24646  18.057   7.879   7.510
 1744POPC   NC324647  21.252  42.467   9.535
 1744POPC   PO424648  21.726  42.060   9.314
 1744POPC   GL124649  21.275  42.166   9.136
 1744POPC   GL224650  21.214  42.529   9.032
 1744POPC   C1A24651  21.083  42.053   8.753
 1744POPC   D2A24652  21.399  41.951   8.427
 1744POPC   C3A24653  21.328  42.106   8.010
 1744POPC   C4A24654  21.337  42.493   7.774
 1744POPC   C1B24655  21.019  42.550   8.635
 1744POPC   C2B24656  21.088  42.541   8.224
 1744POPC   C3B24657  20.863  42.293   7.937
 1744POPC   C4B24658  20.995  42.182   7.557
 1745POPC   NC324659  26.332  28.710   9.361
 1745POPC   PO424660  26.622  28.312   9.833
 1745POPC   GL124661  26.728  28.407   9.293
 1745POPC   GL224662  27.005  28.248   9.111
 1745POPC   C1A24663  26.583  28.282   8.833
 1745POPC   D2A24664  26.523  28.466   8.415
 1745POPC   C3A24665  26.582  28.194   8.087
 1745POPC   C4A24666  26.564  28.359   7.695
 1745POPC   C1B24667  27.064  28.351   8.649
 1745POPC   C2B24668  27.044  28.336   8.195
 1745POPC   C3B24669  27.004  28.112   7.804
 1745POPC   C4B24670  27.085  27.930   7.436
 1746POPC   NC324671  20.888  11.057   9.556
 1746POPC   PO424672  20.560  11.652   9.501
 1746POPC   GL124673  20.649  11.486   9.109
 1746POPC   GL224674  20.668  11.133   9.099
 1746POPC   C1A24675  20.754  11.670   8.735
 1746POPC   D2A24676  20.893  11.607   8.324
 1746POPC   C3A24677  20.832  11.421   7.936
 1746POPC   C4A24678  20.757  11.083   7.663
 1746POPC   C1B24679  20.554  11.205   8.648
 1746POPC   C2B24680  20.448  11.207   8.199
 1746POPC   C3B24681  20.289  11.274   7.758
 1746POPC   C4B24682  20.079  11.048   7.395
 1747POPC   NC324683  38.936  29.200   9.477
 1747POPC   PO424684  39.575  28.852   9.753
 1747POPC   GL124685  39.693  28.835   9.181
 1747POPC   GL224686  39.422  29.086   8.992
 1747POPC   C1A24687  39.761  28.926   8.690
 1747POPC   D2A24688  39.429  29.226   8.473
 1747POPC   C3A24689  39.294  29.127   8.051
 1747POPC   C4A24690  39.471  28.930   7.714
 1747POPC   C1B24691  39.017  29.022   8.796
 1747POPC   C2B24692  38.887  29.197   8.439
 1747POPC   C3B24693  39.024  29.526   8.192
 1747POPC   C4B24694  39.164  29.613   7.785
 1748POPC   NC324695   5.308  36.376   9.565
 1748POPC   PO424696   4.795  36.011   9.644
 1748POPC   GL124697   5.045  36.056   9.272
 1748POPC   GL224698   4.878  35.875   9.068
 1748POPC   C1A24699   5.270  36.180   8.915
 1748POPC   D2A24700   5.366  36.487   8.590
 1748POPC   C3A24701   5.269  36.449   8.136
 1748POPC   C4A24702   5.092  36.196   7.817
 1748POPC   C1B24703   4.877  36.075   8.619
 1748POPC   C2B24704   5.144  35.964   8.285
 1748POPC   C3B24705   4.990  35.735   7.948
 1748POPC   C4B24706   4.733  35.860   7.571
 1749POPC   NC324707  37.416   6.849   9.484
 1749POPC   PO424708  37.645   7.490   9.501
 1749POPC   GL124709  37.645   7.564   9.122
 1749POPC   GL224710  37.839   7.837   9.098
 1749POPC   C1A24711  37.655   7.316   8.720
 1749POPC   D2A24712  37.765   7.531   8.336
 1749POPC   C3A24713  37.714   7.318   8.013
 1749POPC   C4A24714  37.515   7.305   7.672
 1749POPC   C1B24715  37.604   7.836   8.704
 1749POPC   C2B24716  37.397   7.923   8.307
 1749POPC   C3B24717  37.548   7.851   7.930
 1749POPC   C4B24718  37.884   7.702   7.720
 1750POPC   NC324719  18.133  23.007   9.609
 1750POPC   PO424720  18.480  22.498   9.494
 1750POPC   GL124721  18.426  22.827   9.160
 1750POPC   GL224722  18.247  23.162   9.145
 1750POPC   C1A24723  18.557  22.782   8.737
 1750POPC   D2A24724  18.780  22.632   8.371
 1750POPC   C3A24725  18.528  22.823   8.086
 1750POPC   C4A24726  18.284  22.751   7.760
 1750POPC   C1B24727  18.206  23.407   8.784
 1750POPC   C2B24728  18.344  23.328   8.354
 1750POPC   C3B24729  18.263  23.241   7.907
 1750POPC   C4B24730  17.963  23.169   7.580
 1751POPC   NC324731  17.052  26.843   9.526
 1751POPC   PO424732  16.439  26.588   9.621
 1751POPC   GL124733  16.577  26.726   9.202
 1751POPC   GL224734  16.914  26.610   9.082
 1751POPC   C1A24735  16.557  26.716   8.716
 1751POPC   D2A24736  16.732  26.612   8.295
 1751POPC   C3A24737  16.584  26.739   7.868
 1751POPC   C4A24738  16.464  27.165   7.757
 1751POPC   C1B24739  17.190  26.668   8.722
 1751POPC   C2B24740  17.235  26.826   8.321
 1751POPC   C3B24741  17.118  26.732   7.927
 1751POPC   C4B24742  16.985  26.866   7.538
 1752POPC   NC324743   9.721  37.202   9.555
 1752POPC   PO424744   9.417  36.618   9.565
 1752POPC   GL124745   9.427  36.920   9.225
 1752POPC   GL224746   9.306  37.271   9.204
 1752POPC   C1A24747   9.736  36.955   8.886
 1752POPC   D2A24748   9.816  36.698   8.514
 1752POPC   C3A24749   9.962  36.933   8.150
 1752POPC   C4A24750   9.904  36.821   7.735
 1752POPC   C1B24751   9.208  37.039   8.793
 1752POPC   C2B24752   9.244  36.944   8.357
 1752POPC   C3B24753   9.513  37.212   8.109
 1752POPC   C4B24754   9.788  37.330   7.794
 1753POPC   NC324755  18.763  14.660   9.425
 1753POPC   PO424756  19.057  14.158   9.785
 1753POPC   GL124757  18.978  14.259   9.224
 1753POPC   GL224758  19.315  14.323   9.012
 1753POPC   C1A24759  18.916  14.539   8.815
 1753POPC   D2A24760  18.956  14.428   8.392
 1753POPC   C3A24761  19.014  14.713   8.049
 1753POPC   C4A24762  18.864  14.592   7.635
 1753POPC   C1B24763  19.075  14.013   8.734
 1753POPC   C2B24764  19.016  13.939   8.297
 1753POPC   C3B24765  19.016  14.186   7.935
 1753POPC   C4B24766  19.332  14.404   7.753
 1754POPC   NC324767  28.948   7.548   9.514
 1754POPC   PO424768  29.587   7.342   9.539
 1754POPC   GL124769  29.389   7.265   9.172
 1754POPC   GL224770  29.012   7.191   9.159
 1754POPC   C1A24771  29.322   7.327   8.761
 1754POPC   D2A24772  29.039   7.177   8.472
 1754POPC   C3A24773  29.123   7.434   8.111
 1754POPC   C4A24774  29.265   7.448   7.706
 1754POPC   C1B24775  28.856   7.508   8.858
 1754POPC   C2B24776  28.612   7.448   8.470
 1754POPC   C3B24777  28.670   7.242   8.077
 1754POPC   C4B24778  28.771   7.396   7.694
 1755POPC   NC324779  15.032  12.878   9.645
 1755POPC   PO424780  15.602  12.572   9.524
 1755POPC   GL124781  15.398  12.914   9.259
 1755POPC   GL224782  15.063  13.046   9.175
 1755POPC   C1A24783  15.392  13.047   8.825
 1755POPC   D2A24784  15.208  12.999   8.442
 1755POPC   C3A24785  15.502  13.066   8.192
 1755POPC   C4A24786  15.498  12.975   7.806
 1755POPC   C1B24787  14.841  12.982   8.780
 1755POPC   C2B24788  14.726  13.193   8.390
 1755POPC   C3B24789  14.979  13.179   7.998
 1755POPC   C4B24790  15.033  12.757   7.819
 1756POPC   NC324791   4.414  12.329   9.440
 1756POPC   PO424792   4.163  11.680   9.592
 1756POPC   GL124793   4.182  11.908   9.187
 1756POPC   GL224794   4.002  12.228   9.172
 1756POPC   C1A24795   4.215  12.006   8.743
 1756POPC   D2A24796   4.152  11.807   8.386
 1756POPC   C3A24797   4.415  11.885   8.024
 1756POPC   C4A24798   4.667  12.221   7.836
 1756POPC   C1B24799   3.793  12.313   8.789
 1756POPC   C2B24800   3.826  12.298   8.328
 1756POPC   C3B24801   4.077  12.276   7.940
 1756POPC   C4B24802   3.923  12.435   7.526
 1757POPC   NC324803  25.584   6.565   9.561
 1757POPC   PO424804  25.025   6.410   9.548
 1757POPC   GL124805  25.155   6.461   9.126
 1757POPC   GL224806  25.333   6.767   9.145
 1757POPC   C1A24807  25.170   6.575   8.676
 1757POPC   D2A24808  25.045   6.887   8.352
 1757POPC   C3A24809  24.998   6.732   7.920
 1757POPC   C4A24810  24.656   6.759   7.641
 1757POPC   C1B24811  25.333   7.060   8.780
 1757POPC   C2B24812  25.509   7.087   8.377
 1757POPC   C3B24813  25.350   7.130   7.968
 1757POPC   C4B24814  25.440   7.063   7.518
 1758POPC   NC324815  29.671  38.225   9.405
 1758POPC   PO424816  30.108  38.645   9.274
 1758POPC   GL124817  29.949  38.324   8.976
 1758POPC   GL224818  29.630  38.516   8.981
 1758POPC   C1A24819  29.747  38.290   8.549
 1758POPC   D2A24820  29.570  38.621   8.297
 1758POPC   C3A24821  29.752  38.618   7.936
 1758POPC   C4A24822  30.004  38.271   7.943
 1758POPC   C1B24823  29.898  38.750   8.684
 1758POPC   C2B24824  30.156  38.631   8.297
 1758POPC   C3B24825  30.261  38.736   7.845
 1758POPC   C4B24826  30.421  38.728   7.349
 1759POPC   NC324827  27.935  36.886   9.686
 1759POPC   PO424828  28.535  36.849   9.476
 1759POPC   GL124829  28.228  36.943   9.219
 1759POPC   GL224830  28.036  36.666   9.231
 1759POPC   C1A24831  28.264  37.057   8.799
 1759POPC   D2A24832  28.618  37.076   8.490
 1759POPC   C3A24833  28.475  37.112   8.065
 1759POPC   C4A24834  28.639  37.044   7.655
 1759POPC   C1B24835  28.108  36.545   8.822
 1759POPC   C2B24836  28.176  36.703   8.429
 1759POPC   C3B24837  28.326  36.611   8.068
 1759POPC   C4B24838  28.250  36.722   7.695
 1760POPC   NC324839   4.370  41.983   9.727
 1760POPC   PO424840   4.308  42.647   9.544
 1760POPC   GL124841   4.368  42.538   9.122
 1760POPC   GL224842   4.727  42.622   9.085
 1760POPC   C1A24843   4.194  42.359   8.731
 1760POPC   D2A24844   4.403  42.048   8.447
 1760POPC   C3A24845   4.280  42.084   8.031
 1760POPC   C4A24846   4.023  42.375   7.800
 1760POPC   C1B24847   4.693  42.493   8.654
 1760POPC   C2B24848   4.402  42.560   8.304
 1760POPC   C3B24849   4.482  42.553   7.888
 1760POPC   C4B24850   4.541  42.226   7.606
 1761POPC   NC324851  13.457   5.287   9.547
 1761POPC   PO424852  13.891   4.850   9.614
 1761POPC   GL124853  13.671   5.046   9.165
 1761POPC   GL224854  13.510   5.375   9.044
 1761POPC   C1A24855  13.587   4.947   8.707
 1761POPC   D2A24856  13.657   5.147   8.312
 1761POPC   C3A24857  13.573   4.983   7.878
 1761POPC   C4A24858  13.522   5.258   7.562
 1761POPC   C1B24859  13.885   5.374   8.765
 1761POPC   C2B24860  14.036   5.503   8.342
 1761POPC   C3B24861  13.891   5.391   7.911
 1761POPC   C4B24862  13.941   5.535   7.458
 1762POPC   NC324863  31.520  12.304   9.675
 1762POPC   PO424864  31.711  11.787   9.383
 1762POPC   GL124865  31.461  12.028   9.147
 1762POPC   GL224866  31.658  12.286   9.194
 1762POPC   C1A24867  31.281  12.024   8.742
 1762POPC   D2A24868  31.275  11.769   8.361
 1762POPC   C3A24869  31.227  12.000   7.990
 1762POPC   C4A24870  31.084  12.065   7.587
 1762POPC   C1B24871  31.777  12.193   8.789
 1762POPC   C2B24872  31.606  12.242   8.387
 1762POPC   C3B24873  31.846  12.350   8.033
 1762POPC   C4B24874  31.598  12.277   7.686
 1763POPC   NC324875   5.482  21.768   9.491
 1763POPC   PO424876   5.197  22.461   9.533
 1763POPC   GL124877   5.311  22.251   9.172
 1763POPC   GL224878   5.063  21.994   9.191
 1763POPC   C1A24879   5.190  22.237   8.732
 1763POPC   D2A24880   5.438  22.208   8.363
 1763POPC   C3A24881   5.341  22.410   7.965
 1763POPC   C4A24882   5.483  22.215   7.596
 1763POPC   C1B24883   4.814  21.886   8.828
 1763POPC   C2B24884   4.779  22.047   8.410
 1763POPC   C3B24885   4.827  21.863   8.007
 1763POPC   C4B24886   5.025  22.014   7.652
 1764POPC   NC324887   6.118  39.338   9.708
 1764POPC   PO424888   5.462  39.400   9.618
 1764POPC   GL124889   5.766  39.404   9.266
 1764POPC   GL224890   6.159  39.326   9.192
 1764POPC   C1A24891   5.713  39.258   8.856
 1764POPC   D2A24892   5.858  39.247   8.443
 1764POPC   C3A24893   5.733  38.936   8.135
 1764POPC   C4A24894   5.607  39.024   7.721
 1764POPC   C1B24895   6.424  39.103   8.862
 1764POPC   C2B24896   6.300  39.017   8.442
 1764POPC   C3B24897   6.187  39.146   8.009
 1764POPC   C4B24898   6.099  39.042   7.573
 1765POPC   NC324899  37.546  13.981   9.777
 1765POPC   PO424900  38.063  14.247   9.490
 1765POPC   GL124901  37.838  14.532   9.198
 1765POPC   GL224902  37.486  14.626   9.326
 1765POPC   C1A24903  37.808  14.379   8.804
 1765POPC   D2A24904  37.623  14.169   8.494
 1765POPC   C3A24905  37.879  14.204   8.157
 1765POPC   C4A24906  37.738  14.022   7.797
 1765POPC   C1B24907  37.371  14.612   8.878
 1765POPC   C2B24908  37.526  14.661   8.452
 1765POPC   C3B24909  37.476  14.485   8.031
 1765POPC   C4B24910  37.363  14.600   7.614
 1766POPC   NC324911  10.670   4.993   9.397
 1766POPC   PO424912   9.988   5.184   9.600
 1766POPC   GL124913  10.257   5.179   9.150
 1766POPC   GL224914  10.261   4.907   8.913
 1766POPC   C1A24915  10.562   5.363   8.815
 1766POPC   D2A24916  10.727   5.357   8.373
 1766POPC   C3A24917  10.400   5.200   8.105
 1766POPC   C4A24918  10.347   4.850   7.830
 1766POPC   C1B24919  10.691   4.860   8.712
 1766POPC   C2B24920  10.771   4.839   8.265
 1766POPC   C3B24921  10.809   4.610   7.852
 1766POPC   C4B24922  10.803   4.822   7.414
 1767POPC   NC324923  37.963  43.918   9.586
 1767POPC   PO424924  37.436  44.395   9.577
 1767POPC   GL124925  37.509  44.021   9.257
 1767POPC   GL224926  37.762  43.737   9.161
 1767POPC   C1A24927  37.695  44.073   8.816
 1767POPC   D2A24928  37.689  43.846   8.460
 1767POPC   C3A24929  37.754  44.027   8.093
 1767POPC   C4A24930  37.619  43.920   7.729
 1767POPC   C1B24931  38.041  43.652   8.802
 1767POPC   C2B24932  37.992  43.447   8.387
 1767POPC   C3B24933  38.077  43.641   8.002
 1767POPC   C4B24934  38.035  43.605   7.557
 1768POPC   NC324935   2.632   1.423   9.569
 1768POPC   PO424936   3.220   1.203   9.580
 1768POPC   GL124937   2.936   1.363   9.169
 1768POPC   GL224938   2.788   1.069   8.993
 1768POPC   C1A24939   2.766   1.432   8.681
 1768POPC   D2A24940   2.911   1.007   8.502
 1768POPC   C3A24941   2.939   0.969   8.064
 1768POPC   C4A24942   3.120   1.169   7.724
 1768POPC   C1B24943   2.437   1.010   8.714
 1768POPC   C2B24944   2.475   0.891   8.269
 1768POPC   C3B24945   2.319   1.009   7.877
 1768POPC   C4B24946   2.468   1.329   7.569
 1769POPC   NC324947  15.078   4.860   9.518
 1769POPC   PO424948  15.602   5.164   9.563
 1769POPC   GL124949  15.317   5.231   9.223
 1769POPC   GL224950  14.960   5.348   9.331
 1769POPC   C1A24951  15.233   4.982   8.857
 1769POPC   D2A24952  15.084   4.681   8.572
 1769POPC   C3A24953  15.088   4.945   8.212
 1769POPC   C4A24954  15.001   4.942   7.807
 1769POPC   C1B24955  14.917   5.387   8.885
 1769POPC   C2B24956  15.128   5.414   8.474
 1769POPC   C3B24957  14.930   5.458   8.056
 1769POPC   C4B24958  14.792   5.389   7.649
 1770POPC   NC324959  30.735  35.093   9.524
 1770POPC   PO424960  30.388  34.515   9.778
 1770POPC   GL124961  30.418  34.562   9.293
 1770POPC   GL224962  30.710  34.736   9.122
 1770POPC   C1A24963  30.454  34.326   8.876
 1770POPC   D2A24964  30.403  34.449   8.438
 1770POPC   C3A24965  30.497  34.275   8.038
 1770POPC   C4A24966  30.524  34.634   7.747
 1770POPC   C1B24967  30.640  34.837   8.657
 1770POPC   C2B24968  30.800  34.683   8.209
 1770POPC   C3B24969  30.992  34.817   7.807
 1770POPC   C4B24970  31.172  34.829   7.361
 1771POPC   NC324971  10.613  38.655   9.606
 1771POPC   PO424972  10.394  38.062   9.800
 1771POPC   GL124973  10.363  38.230   9.345
 1771POPC   GL224974  10.599  38.042   9.141
 1771POPC   C1A24975  10.323  38.373   8.879
 1771POPC   D2A24976  10.591  38.629   8.598
 1771POPC   C3A24977  10.429  38.800   8.283
 1771POPC   C4A24978  10.450  38.696   7.870
 1771POPC   C1B24979  10.840  38.246   8.791
 1771POPC   C2B24980  10.627  38.158   8.389
 1771POPC   C3B24981  10.541  38.187   7.931
 1771POPC   C4B24982  10.671  38.172   7.484
 1772POPC   NC324983   6.841  33.227   9.748
 1772POPC   PO424984   7.050  32.629   9.452
 1772POPC   GL124985   6.883  33.143   9.254
 1772POPC   GL224986   6.487  33.197   9.147
 1772POPC   C1A24987   6.926  33.276   8.865
 1772POPC   D2A24988   7.007  33.031   8.512
 1772POPC   C3A24989   7.030  33.245   8.145
 1772POPC   C4A24990   6.718  33.266   7.820
 1772POPC   C1B24991   6.512  32.982   8.720
 1772POPC   C2B24992   6.477  32.991   8.241
 1772POPC   C3B24993   6.299  32.984   7.802
 1772POPC   C4B24994   6.157  32.796   7.407
 1773POPC   NC324995   9.356   5.663   9.257
 1773POPC   PO424996   8.791   6.150   9.505
 1773POPC   GL124997   9.010   6.167   9.141
 1773POPC   GL224998   8.878   5.810   9.123
 1773POPC   C1A24999   9.035   6.393   8.733
 1773POPC   D2A25000   9.056   6.034   8.446
 1773POPC   C3A25001   9.039   6.004   8.027
 1773POPC   C4A25002   9.274   5.727   7.738
 1773POPC   C1B25003   8.614   5.561   8.871
 1773POPC   C2B25004   8.722   5.465   8.473
 1773POPC   C3B25005   8.941   5.501   8.098
 1773POPC   C4B25006   8.786   5.573   7.702
 1774POPC   NC325007  30.761  44.149   9.445
 1774POPC   PO425008  30.804  44.860   9.518
 1774POPC   GL125009  30.736  44.596   9.164
 1774POPC   GL225010  30.447  44.429   9.077
 1774POPC   C1A25011  30.911  44.335   8.828
 1774POPC   D2A25012  30.930  44.353   8.386
 1774POPC   C3A25013  30.635  44.626   8.221
 1774POPC   C4A25014  30.750  44.699   7.818
 1774POPC   C1B25015  30.328  44.640   8.690
 1774POPC   C2B25016  30.128  44.491   8.305
 1774POPC   C3B25017  30.286  44.485   7.854
 1774POPC   C4B25018  30.414  44.653   7.450
 1775POPC   NC325019  44.825  14.882   9.525
 1775POPC   PO425020  44.935  15.494   9.456
 1775POPC   GL125021  44.559  15.252   9.240
 1775POPC   GL225022  44.430  14.941   9.162
 1775POPC   C1A25023  44.392  15.332   8.839
 1775POPC   D2A25024  44.665  15.384   8.487
 1775POPC   C3A25025  44.782  15.220   8.070
 1775POPC   C4A25026  44.562  15.269   7.708
 1775POPC   C1B25027  44.776  14.992   8.834
 1775POPC   C2B25028   0.017  14.980   8.449
 1775POPC   C3B25029   0.024  14.744   8.065
 1775POPC   C4B25030  44.934  14.872   7.662
 1776POPC   NC325031  41.853  38.585   9.432
 1776POPC   PO425032  41.241  38.321   9.426
 1776POPC   GL125033  41.490  38.376   9.096
 1776POPC   GL225034  41.743  38.168   9.119
 1776POPC   C1A25035  41.393  38.537   8.710
 1776POPC   D2A25036  41.233  38.509   8.303
 1776POPC   C3A25037  41.412  38.627   7.943
 1776POPC   C4A25038  41.420  38.260   7.674
 1776POPC   C1B25039  41.864  38.340   8.730
 1776POPC   C2B25040  41.783  38.346   8.312
 1776POPC   C3B25041  41.932  38.424   7.947
 1776POPC   C4B25042  41.902  38.206   7.539
 1777POPC   NC325043  15.630  17.629   9.351
 1777POPC   PO425044  15.119  17.256   9.581
 1777POPC   GL125045  15.255  17.367   9.166
 1777POPC   GL225046  15.599  17.200   9.121
 1777POPC   C1A25047  15.138  17.585   8.777
 1777POPC   D2A25048  15.098  17.372   8.377
 1777POPC   C3A25049  15.085  17.653   8.057
 1777POPC   C4A25050  15.264  17.698   7.689
 1777POPC   C1B25051  15.447  17.183   8.724
 1777POPC   C2B25052  15.624  17.222   8.337
 1777POPC   C3B25053  15.403  17.254   7.957
 1777POPC   C4B25054  15.541  17.282   7.561
 1778POPC   NC325055  42.906  26.562   9.574
 1778POPC   PO425056  43.368  26.949   9.775
 1778POPC   GL125057  43.240  26.877   9.352
 1778POPC   GL225058  43.298  26.523   9.245
 1778POPC   C1A25059  43.293  26.978   8.898
 1778POPC   D2A25060  43.344  26.847   8.482
 1778POPC   C3A25061  43.185  26.927   8.072
 1778POPC   C4A25062  43.373  26.810   7.721
 1778POPC   C1B25063  43.168  26.498   8.820
 1778POPC   C2B25064  42.979  26.520   8.372
 1778POPC   C3B25065  42.955  26.486   7.911
 1778POPC   C4B25066  43.291  26.324   7.658
 1779POPC   NC325067  31.755  14.250   9.612
 1779POPC   PO425068  31.266  14.707   9.630
 1779POPC   GL125069  31.482  14.607   9.236
 1779POPC   GL225070  31.467  14.226   9.195
 1779POPC   C1A25071  31.396  14.540   8.782
 1779POPC   D2A25072  31.320  14.206   8.465
 1779POPC   C3A25073  31.281  14.144   8.029
 1779POPC   C4A25074  31.454  14.305   7.700
 1779POPC   C1B25075  31.832  14.277   8.926
 1779POPC   C2B25076  31.838  14.470   8.545
 1779POPC   C3B25077  31.737  14.378   8.150
 1779POPC   C4B25078  31.949  14.324   7.769
 1780POPC   NC325079  13.862  29.291   9.218
 1780POPC   PO425080  14.453  29.090   9.581
 1780POPC   GL125081  14.343  28.983   9.164
 1780POPC   GL225082  14.323  29.319   9.013
 1780POPC   C1A25083  14.297  28.771   8.760
 1780POPC   D2A25084  14.403  28.945   8.326
 1780POPC   C3A25085  14.475  28.816   7.889
 1780POPC   C4A25086  14.572  29.086   7.526
 1780POPC   C1B25087  14.080  29.227   8.620
 1780POPC   C2B25088  13.931  29.123   8.203
 1780POPC   C3B25089  14.156  29.266   7.816
 1780POPC   C4B25090  14.100  29.116   7.370
 1781POPC   NC325091  32.679  41.584   9.390
 1781POPC   PO425092  32.044  41.498   9.502
 1781POPC   GL125093  32.240  41.815   9.188
 1781POPC   GL225094  32.590  41.985   9.102
 1781POPC   C1A25095  32.244  41.716   8.756
 1781POPC   D2A25096  32.370  41.338   8.483
 1781POPC   C3A25097  32.101  41.291   8.104
 1781POPC   C4A25098  32.092  41.497   7.691
 1781POPC   C1B25099  32.757  41.790   8.753
 1781POPC   C2B25100  32.566  41.822   8.378
 1781POPC   C3B25101  32.503  41.617   8.039
 1781POPC   C4B25102  32.478  41.817   7.654
 1782POPC   NC325103   2.954  31.381   9.505
 1782POPC   PO425104   2.442  31.732   9.647
 1782POPC   GL125105   2.592  31.644   9.229
 1782POPC   GL225106   2.559  31.286   9.159
 1782POPC   C1A25107   2.867  31.579   8.843
 1782POPC   D2A25108   2.803  31.788   8.452
 1782POPC   C3A25109   2.770  31.639   8.039
 1782POPC   C4A25110   3.011  31.815   7.696
 1782POPC   C1B25111   2.366  31.492   8.790
 1782POPC   C2B25112   2.403  31.424   8.347
 1782POPC   C3B25113   2.295  31.221   7.955
 1782POPC   C4B25114   2.455  31.032   7.623
 1783POPC   NC325115  39.354  21.146   9.433
 1783POPC   PO425116  39.065  21.615   9.787
 1783POPC   GL125117  39.193  21.641   9.281
 1783POPC   GL225118  39.051  21.380   9.094
 1783POPC   C1A25119  39.412  21.633   8.806
 1783POPC   D2A25120  39.548  21.769   8.361
 1783POPC   C3A25121  39.296  21.698   7.957
 1783POPC   C4A25122  39.435  21.559   7.538
 1783POPC   C1B25123  39.267  21.148   8.748
 1783POPC   C2B25124  39.219  21.342   8.349
 1783POPC   C3B25125  39.191  21.197   7.922
 1783POPC   C4B25126  38.972  21.427   7.611
 1784POPC   NC325127  36.083   8.591   9.409
 1784POPC   PO425128  35.825   9.231   9.486
 1784POPC   GL125129  36.123   9.107   9.181
 1784POPC   GL225130  36.204   8.809   8.974
 1784POPC   C1A25131  36.216   9.298   8.777
 1784POPC   D2A25132  36.109   9.049   8.413
 1784POPC   C3A25133  36.118   9.276   8.021
 1784POPC   C4A25134  36.210   9.198   7.561
 1784POPC   C1B25135  36.017   8.496   8.706
 1784POPC   C2B25136  35.850   8.541   8.304
 1784POPC   C3B25137  35.925   8.812   7.967
 1784POPC   C4B25138  36.077   8.713   7.573
 1785POPC   NC325139   1.916  15.514   9.401
 1785POPC   PO425140   2.217  14.978   9.463
 1785POPC   GL125141   1.986  15.113   9.079
 1785POPC   GL225142   2.076  15.440   8.945
 1785POPC   C1A25143   1.874  15.088   8.635
 1785POPC   D2A25144   2.175  15.022   8.312
 1785POPC   C3A25145   2.036  15.110   7.913
 1785POPC   C4A25146   2.284  15.302   7.611
 1785POPC   C1B25147   1.737  15.586   8.706
 1785POPC   C2B25148   1.739  15.454   8.279
 1785POPC   C3B25149   1.907  15.610   7.879
 1785POPC   C4B25150   1.882  15.588   7.427
 1786POPC   NC325151  29.253  15.407   9.507
 1786POPC   PO425152  28.773  14.990   9.558
 1786POPC   GL125153  29.043  15.003   9.159
 1786POPC   GL225154  29.220  15.316   9.011
 1786POPC   C1A25155  29.145  14.882   8.714
 1786POPC   D2A25156  29.375  15.080   8.381
 1786POPC   C3A25157  29.180  15.075   7.983
 1786POPC   C4A25158  29.196  14.994   7.531
 1786POPC   C1B25159  29.283  15.663   8.733
 1786POPC   C2B25160  29.319  15.596   8.306
 1786POPC   C3B25161  29.343  15.541   7.887
 1786POPC   C4B25162  29.020  15.486   7.574
 1787POPC   NC325163  27.128  11.004   9.710
 1787POPC   PO425164  26.919  11.628   9.561
 1787POPC   GL125165  26.827  11.552   9.150
 1787POPC   GL225166  26.877  11.195   9.188
 1787POPC   C1A25167  26.741  11.505   8.727
 1787POPC   D2A25168  26.561  11.304   8.394
 1787POPC   C3A25169  26.695  11.411   7.959
 1787POPC   C4A25170  26.482  11.284   7.567
 1787POPC   C1B25171  26.831  11.009   8.770
 1787POPC   C2B25172  26.936  10.968   8.319
 1787POPC   C3B25173  27.023  10.794   7.916
 1787POPC   C4B25174  26.866  10.707   7.501
 1788POPC   NC325175  43.772  17.194   9.399
 1788POPC   PO425176  44.301  17.696   9.563
 1788POPC   GL125177  44.101  17.536   9.188
 1788POPC   GL225178  43.778  17.653   9.134
 1788POPC   C1A25179  44.074  17.273   8.808
 1788POPC   D2A25180  43.991  17.423   8.417
 1788POPC   C3A25181  44.097  17.225   8.064
 1788POPC   C4A25182  44.124  17.500   7.692
 1788POPC   C1B25183  43.822  17.839   8.733
 1788POPC   C2B25184  43.593  17.749   8.370
 1788POPC   C3B25185  43.687  17.505   7.997
 1788POPC   C4B25186  43.705  17.819   7.708
 1789POPC   NC325187  39.928  10.169   9.593
 1789POPC   PO425188  40.201  10.735   9.411
 1789POPC   GL125189  39.884  10.576   9.130
 1789POPC   GL225190  39.756  10.212   9.121
 1789POPC   C1A25191  40.031  10.505   8.710
 1789POPC   D2A25192  40.448  10.463   8.476
 1789POPC   C3A25193  40.353  10.335   8.058
 1789POPC   C4A25194  40.120  10.514   7.724
 1789POPC   C1B25195  39.517  10.411   8.821
 1789POPC   C2B25196  39.591  10.502   8.438
 1789POPC   C3B25197  39.799  10.627   8.110
 1789POPC   C4B25198  39.584  10.553   7.741
 1790POPC   NC325199  15.680  25.101   9.574
 1790POPC   PO425200  16.351  24.992   9.428
 1790POPC   GL125201  16.220  25.076   9.044
 1790POPC   GL225202  15.879  25.220   9.099
 1790POPC   C1A25203  16.021  24.947   8.676
 1790POPC   D2A25204  15.758  25.073   8.310
 1790POPC   C3A25205  15.931  24.942   7.905
 1790POPC   C4A25206  16.253  25.117   7.588
 1790POPC   C1B25207  15.934  25.471   8.710
 1790POPC   C2B25208  15.770  25.577   8.292
 1790POPC   C3B25209  15.971  25.454   7.897
 1790POPC   C4B25210  15.884  25.465   7.427
 1791POPC   NC325211  35.345  23.086   9.583
 1791POPC   PO425212  35.273  22.508   9.167
 1791POPC   GL125213  35.377  22.949   9.048
 1791POPC   GL225214  35.599  23.231   9.167
 1791POPC   C1A25215  35.329  22.956   8.606
 1791POPC   D2A25216  35.219  22.597   8.388
 1791POPC   C3A25217  35.073  22.713   8.011
 1791POPC   C4A25218  35.073  23.044   7.774
 1791POPC   C1B25219  35.696  23.286   8.722
 1791POPC   C2B25220  35.781  23.042   8.366
 1791POPC   C3B25221  35.513  22.949   8.070
 1791POPC   C4B25222  35.618  23.082   7.687
 1792POPC   NC325223  31.262   1.491   9.422
 1792POPC   PO425224  31.382   2.240   9.422
 1792POPC   GL125225  31.448   2.135   9.061
 1792POPC   GL225226  31.693   1.891   9.121
 1792POPC   C1A25227  31.487   2.282   8.685
 1792POPC   D2A25228  31.571   2.048   8.364
 1792POPC   C3A25229  31.536   2.277   8.015
 1792POPC   C4A25230  31.591   2.102   7.631
 1792POPC   C1B25231  31.491   1.684   8.785
 1792POPC   C2B25232  31.320   1.604   8.368
 1792POPC   C3B25233  31.404   1.743   7.951
 1792POPC   C4B25234  31.573   1.607   7.532
 1793POPC   NC325235   5.558  17.417   9.403
 1793POPC   PO425236   4.894  17.609   9.323
 1793POPC   GL125237   5.183  17.430   9.055
 1793POPC   GL225238   5.354  17.738   9.043
 1793POPC   C1A25239   5.100  17.204   8.688
 1793POPC   D2A25240   5.018  16.957   8.332
 1793POPC   C3A25241   4.830  17.153   7.971
 1793POPC   C4A25242   5.065  17.446   7.757
 1793POPC   C1B25243   4.990  17.725   8.697
 1793POPC   C2B25244   5.034  17.554   8.299
 1793POPC   C3B25245   5.309  17.775   8.029
 1793POPC   C4B25246   4.906  17.922   7.849
 1794POPC   NC325247   5.190  25.213   9.548
 1794POPC   PO425248   4.613  24.958   9.403
 1794POPC   GL125249   4.740  25.286   9.127
 1794POPC   GL225250   5.104  25.298   9.047
 1794POPC   C1A25251   4.753  25.482   8.726
 1794POPC   D2A25252   4.941  25.271   8.406
 1794POPC   C3A25253   4.891  25.383   7.972
 1794POPC   C4A25254   5.340  25.370   7.783
 1794POPC   C1B25255   5.413  24.997   8.850
 1794POPC   C2B25256   5.580  24.884   8.450
 1794POPC   C3B25257   5.440  24.930   7.998
 1794POPC   C4B25258   5.445  24.865   7.501
 1795POPC   NC325259  40.197  19.027   9.667
 1795POPC   PO425260  39.624  19.373   9.497
 1795POPC   GL125261  39.999  19.219   9.249
 1795POPC   GL225262  40.118  18.871   9.203
 1795POPC   C1A25263  40.015  19.221   8.808
 1795POPC   D2A25264  39.675  19.119   8.544
 1795POPC   C3A25265  39.723  18.986   8.143
 1795POPC   C4A25266  39.743  19.162   7.779
 1795POPC   C1B25267  40.314  18.801   8.810
 1795POPC   C2B25268  40.136  18.861   8.423
 1795POPC   C3B25269  40.211  19.123   8.067
 1795POPC   C4B25270  40.214  18.964   7.663
 1796POPC   NC325271  28.073  20.444   9.742
 1796POPC   PO425272  28.699  20.658   9.377
 1796POPC   GL125273  28.445  20.526   9.093
 1796POPC   GL225274  28.423  20.171   9.096
 1796POPC   C1A25275  28.400  20.705   8.713
 1796POPC   D2A25276  28.146  20.853   8.405
 1796POPC   C3A25277  28.187  20.664   8.019
 1796POPC   C4A25278  28.328  20.589   7.639
 1796POPC   C1B25279  28.666  20.273   8.714
 1796POPC   C2B25280  28.571  20.454   8.309
 1796POPC   C3B25281  28.678  20.361   7.933
 1796POPC   C4B25282  28.686  20.316   7.470
 1797POPC   NC325283   8.374  35.031   9.475
 1797POPC   PO425284   8.541  34.382   9.423
 1797POPC   GL125285   8.355  34.588   9.076
 1797POPC   GL225286   8.047  34.817   9.125
 1797POPC   C1A25287   8.072  34.469   8.737
 1797POPC   D2A25288   7.750  34.662   8.491
 1797POPC   C3A25289   7.866  34.610   8.050
 1797POPC   C4A25290   8.228  34.450   7.801
 1797POPC   C1B25291   8.265  34.964   8.748
 1797POPC   C2B25292   8.301  34.768   8.365
 1797POPC   C3B25293   8.269  34.930   7.983
 1797POPC   C4B25294   8.536  34.921   7.704
 1798POPC   NC325295  28.571  19.607   9.519
 1798POPC   PO425296  28.038  19.967   9.671
 1798POPC   GL125297  28.107  19.805   9.262
 1798POPC   GL225298  28.252  19.523   9.120
 1798POPC   C1A25299  28.031  19.880   8.821
 1798POPC   D2A25300  28.184  19.640   8.456
 1798POPC   C3A25301  28.267  19.904   8.138
 1798POPC   C4A25302  28.312  20.082   7.734
 1798POPC   C1B25303  28.532  19.769   8.794
 1798POPC   C2B25304  28.740  19.904   8.375
 1798POPC   C3B25305  28.724  19.845   7.929
 1798POPC   C4B25306  28.519  19.607   7.602
 1799POPC   NC325307  15.682  13.309   9.436
 1799POPC   PO425308  15.036  13.378   9.588
 1799POPC   GL125309  15.090  13.562   9.180
 1799POPC   GL225310  15.284  13.822   9.313
 1799POPC   C1A25311  15.023  13.474   8.731
 1799POPC   D2A25312  14.953  13.639   8.300
 1799POPC   C3A25313  15.274  13.615   7.996
 1799POPC   C4A25314  15.416  13.438   7.622
 1799POPC   C1B25315  15.282  13.918   8.859
 1799POPC   C2B25316  15.305  14.021   8.408
 1799POPC   C3B25317  15.086  14.093   8.003
 1799POPC   C4B25318  15.174  13.946   7.595
 1800POPC   NC325319  19.569  33.545   9.381
 1800POPC   PO425320  20.027  34.041   9.389
 1800POPC   GL125321  19.880  33.806   9.074
 1800POPC   GL225322  20.108  33.547   9.112
 1800POPC   C1A25323  19.784  33.573   8.695
 1800POPC   D2A25324  19.566  33.614   8.283
 1800POPC   C3A25325  19.576  34.004   8.046
 1800POPC   C4A25326  19.802  34.001   7.663
 1800POPC   C1B25327  20.353  33.442   8.756
 1800POPC   C2B25328  20.192  33.484   8.369
 1800POPC   C3B25329  20.019  33.731   8.060
 1800POPC   C4B25330  20.222  33.651   7.710
 1801POPC   NC325331   2.960   3.121   9.546
 1801POPC   PO425332   2.985   3.795   9.637
 1801POPC   GL125333   2.883   3.528   9.250
 1801POPC   GL225334   3.141   3.302   9.107
 1801POPC   C1A25335   2.623   3.455   8.885
 1801POPC   D2A25336   2.470   3.612   8.487
 1801POPC   C3A25337   2.663   3.701   8.084
 1801POPC   C4A25338   2.568   3.498   7.708
 1801POPC   C1B25339   3.007   3.156   8.741
 1801POPC   C2B25340   2.924   3.345   8.399
 1801POPC   C3B25341   2.834   3.209   8.017
 1801POPC   C4B25342   3.095   3.267   7.668
 1802POPC   NC325343  34.423   2.208   9.363
 1802POPC   PO425344  34.929   1.867   9.614
 1802POPC   GL125345  34.740   1.894   9.148
 1802POPC   GL225346  34.411   1.802   9.029
 1802POPC   C1A25347  34.602   2.119   8.713
 1802POPC   D2A25348  34.399   2.285   8.346
 1802POPC   C3A25349  34.588   2.136   7.974
 1802POPC   C4A25350  34.493   2.189   7.538
 1802POPC   C1B25351  34.168   1.680   8.681
 1802POPC   C2B25352  34.089   1.801   8.244
 1802POPC   C3B25353  34.261   1.754   7.815
 1802POPC   C4B25354  34.577   1.668   7.439
 1803POPC   NC325355  32.939  40.731   9.521
 1803POPC   PO425356  32.265  40.548   9.449
 1803POPC   GL125357  32.547  40.620   9.120
 1803POPC   GL225358  32.629  40.962   9.176
 1803POPC   C1A25359  32.400  40.836   8.731
 1803POPC   D2A25360  32.053  40.877   8.468
 1803POPC   C3A25361  32.073  40.768   8.056
 1803POPC   C4A25362  31.820  41.013   7.750
 1803POPC   C1B25363  32.754  41.185   8.810
 1803POPC   C2B25364  32.865  41.071   8.408
 1803POPC   C3B25365  32.579  41.076   8.080
 1803POPC   C4B25366  32.350  41.017   7.725
 1804POPC   NC325367   4.213   1.688   9.531
 1804POPC   PO425368   4.665   2.113   9.741
 1804POPC   GL125369   4.631   2.213   9.203
 1804POPC   GL225370   4.253   2.034   9.123
 1804POPC   C1A25371   4.607   2.003   8.768
 1804POPC   D2A25372   4.388   1.988   8.407
 1804POPC   C3A25373   4.589   2.090   8.096
 1804POPC   C4A25374   4.579   2.217   7.723
 1804POPC   C1B25375   4.066   1.831   8.754
 1804POPC   C2B25376   3.896   1.869   8.335
 1804POPC   C3B25377   4.180   1.691   8.015
 1804POPC   C4B25378   4.275   1.817   7.593
 1805POPC   NC325379  31.128  10.722   9.302
 1805POPC   PO425380  31.578  10.406   9.671
 1805POPC   GL125381  31.538  10.434   9.192
 1805POPC   GL225382  31.656  10.753   9.049
 1805POPC   C1A25383  31.459  10.339   8.708
 1805POPC   D2A25384  31.721  10.316   8.303
 1805POPC   C3A25385  31.707  10.518   7.878
 1805POPC   C4A25386  31.720  10.632   7.418
 1805POPC   C1B25387  31.392  10.852   8.682
 1805POPC   C2B25388  31.412  10.726   8.250
 1805POPC   C3B25389  31.321  10.864   7.841
 1805POPC   C4B25390  31.048  11.163   7.706
 1806POPC   NC325391  19.966  27.004   9.370
 1806POPC   PO425392  19.765  26.354   9.509
 1806POPC   GL125393  19.739  26.592   9.129
 1806POPC   GL225394  19.492  26.848   9.208
 1806POPC   C1A25395  19.994  26.621   8.744
 1806POPC   D2A25396  20.279  26.560   8.388
 1806POPC   C3A25397  20.101  26.700   7.974
 1806POPC   C4A25398  19.730  26.634   7.714
 1806POPC   C1B25399  19.616  26.971   8.776
 1806POPC   C2B25400  19.734  26.856   8.329
 1806POPC   C3B25401  19.495  27.001   7.969
 1806POPC   C4B25402  19.714  27.249   7.698
 1807POPC   NC325403  23.393   0.214   9.511
 1807POPC   PO425404  24.099   0.089   9.578
 1807POPC   GL125405  23.992   0.372   9.225
 1807POPC   GL225406  23.628   0.502   9.187
 1807POPC   C1A25407  23.860   0.283   8.796
 1807POPC   D2A25408  24.028   0.214   8.401
 1807POPC   C3A25409  23.783   0.353   8.088
 1807POPC   C4A25410  23.816   0.178   7.736
 1807POPC   C1B25411  23.339   0.348   8.823
 1807POPC   C2B25412  23.356   0.495   8.374
 1807POPC   C3B25413  23.254   0.609   7.949
 1807POPC   C4B25414  23.459   0.731   7.569
 1808POPC   NC325415  31.420   6.706   9.498
 1808POPC   PO425416  31.834   6.217   9.206
 1808POPC   GL125417  31.368   6.283   9.024
 1808POPC   GL225418  31.225   6.628   9.021
 1808POPC   C1A25419  31.321   6.112   8.642
 1808POPC   D2A25420  31.580   6.268   8.329
 1808POPC   C3A25421  31.343   6.492   8.011
 1808POPC   C4A25422  31.489   6.324   7.625
 1808POPC   C1B25423  31.545   6.634   8.718
 1808POPC   C2B25424  31.724   6.775   8.342
 1808POPC   C3B25425  31.863   6.566   7.983
 1808POPC   C4B25426  31.646   6.798   7.720
 1809POPC   NC325427   9.991  44.126   9.464
 1809POPC   PO425428   9.890  44.866   9.674
 1809POPC   GL125429   9.803  44.619   9.266
 1809POPC   GL225430   9.435  44.439   9.253
 1809POPC   C1A25431   9.885  44.856   8.857
 1809POPC   D2A25432   9.749  44.711   8.439
 1809POPC   C3A25433   9.788  44.852   8.037
 1809POPC   C4A25434   9.990  44.731   7.665
 1809POPC   C1B25435   9.451  44.601   8.846
 1809POPC   C2B25436   9.357  44.378   8.444
 1809POPC   C3B25437   9.458  44.359   7.986
 1809POPC   C4B25438   9.569  44.482   7.545
 1810POPC   NC325439  32.795  39.209   9.474
 1810POPC   PO425440  33.375  39.512   9.529
 1810POPC   GL125441  33.177  39.636   9.096
 1810POPC   GL225442  32.811  39.525   9.067
 1810POPC   C1A25443  33.033  39.596   8.639
 1810POPC   D2A25444  32.670  39.390   8.451
 1810POPC   C3A25445  32.783  39.440   8.021
 1810POPC   C4A25446  33.166  39.361   7.798
 1810POPC   C1B25447  33.001  39.144   8.841
 1810POPC   C2B25448  32.945  38.942   8.416
 1810POPC   C3B25449  32.901  38.925   7.969
 1810POPC   C4B25450  33.150  38.832   7.604
 1811POPC   NC325451  42.984  27.167   9.938
 1811POPC   PO425452  43.177  27.644   9.493
 1811POPC   GL125453  43.196  27.375   9.167
 1811POPC   GL225454  42.881  27.152   9.129
 1811POPC   C1A25455  43.338  27.482   8.717
 1811POPC   D2A25456  43.037  27.758   8.426
 1811POPC   C3A25457  43.165  27.939   8.013
 1811POPC   C4A25458  43.035  27.886   7.605
 1811POPC   C1B25459  42.859  27.382   8.776
 1811POPC   C2B25460  42.988  27.264   8.374
 1811POPC   C3B25461  42.995  27.450   7.957
 1811POPC   C4B25462  42.963  27.397   7.496
 1812POPC   NC325463   3.759  21.747   9.570
 1812POPC   PO425464   3.303  21.321   9.366
 1812POPC   GL125465   3.512  21.594   9.142
 1812POPC   GL225466   3.785  21.423   9.125
 1812POPC   C1A25467   3.439  21.825   8.784
 1812POPC   D2A25468   3.538  21.807   8.381
 1812POPC   C3A25469   3.679  21.441   8.223
 1812POPC   C4A25470   3.755  21.370   7.808
 1812POPC   C1B25471   3.554  21.306   8.715
 1812POPC   C2B25472   3.439  20.986   8.394
 1812POPC   C3B25473   3.336  21.105   7.965
 1812POPC   C4B25474   3.368  21.220   7.514
 1813POPC   NC325475  38.650  40.886   9.458
 1813POPC   PO425476  38.034  40.790   9.325
 1813POPC   GL125477  38.322  40.973   9.079
 1813POPC   GL225478  38.458  40.627   9.051
 1813POPC   C1A25479  38.608  40.995   8.733
 1813POPC   D2A25480  38.491  40.797   8.362
 1813POPC   C3A25481  38.566  41.023   7.985
 1813POPC   C4A25482  38.539  41.164   7.565
 1813POPC   C1B25483  38.668  40.455   8.705
 1813POPC   C2B25484  38.877  40.467   8.289
 1813POPC   C3B25485  38.739  40.406   7.927
 1813POPC   C4B25486  38.553  40.635   7.629
 1814POPC   NC325487  25.821  24.106   9.495
 1814POPC   PO425488  26.020  23.413   9.637
 1814POPC   GL125489  26.033  23.493   9.183
 1814POPC   GL225490  25.909  23.824   9.075
 1814POPC   C1A25491  26.045  23.442   8.725
 1814POPC   D2A25492  26.125  23.723   8.375
 1814POPC   C3A25493  26.268  23.517   7.999
 1814POPC   C4A25494  26.015  23.269   7.724
 1814POPC   C1B25495  25.862  24.126   8.711
 1814POPC   C2B25496  25.805  24.099   8.263
 1814POPC   C3B25497  26.085  24.013   7.930
 1814POPC   C4B25498  25.946  23.951   7.496
 1815POPC   NC325499   8.597  16.134   9.704
 1815POPC   PO425500   9.195  15.850   9.698
 1815POPC   GL125501   8.942  15.838   9.288
 1815POPC   GL225502   8.845  16.167   9.164
 1815POPC   C1A25503   9.021  15.839   8.822
 1815POPC   D2A25504   8.852  15.845   8.406
 1815POPC   C3A25505   9.057  15.891   8.005
 1815POPC   C4A25506   9.133  15.554   7.746
 1815POPC   C1B25507   8.735  16.269   8.691
 1815POPC   C2B25508   8.666  16.279   8.200
 1815POPC   C3B25509   8.922  16.368   7.807
 1815POPC   C4B25510   8.967  16.328   7.331
 1816POPC   NC325511  35.950  39.103   9.428
 1816POPC   PO425512  36.099  39.757   9.680
 1816POPC   GL125513  35.986  39.568   9.223
 1816POPC   GL225514  36.319  39.377   9.169
 1816POPC   C1A25515  36.016  39.389   8.767
 1816POPC   D2A25516  36.271  39.063   8.553
 1816POPC   C3A25517  36.077  38.942   8.185
 1816POPC   C4A25518  36.091  38.876   7.757
 1816POPC   C1B25519  36.492  39.507   8.750
 1816POPC   C2B25520  36.307  39.537   8.324
 1816POPC   C3B25521  36.330  39.309   7.911
 1816POPC   C4B25522  36.242  39.386   7.459
 1817POPC   NC325523  24.422  34.997   9.632
 1817POPC   PO425524  24.556  35.639   9.448
 1817POPC   GL125525  24.403  35.358   9.139
 1817POPC   GL225526  24.075  35.199   9.242
 1817POPC   C1A25527  24.504  35.406   8.703
 1817POPC   D2A25528  24.374  35.572   8.319
 1817POPC   C3A25529  24.565  35.321   8.031
 1817POPC   C4A25530  24.727  35.478   7.708
 1817POPC   C1B25531  24.125  35.040   8.810
 1817POPC   C2B25532  24.271  35.046   8.394
 1817POPC   C3B25533  24.101  35.136   8.003
 1817POPC   C4B25534  24.200  35.249   7.603
 1818POPC   NC325535  21.842  22.749   9.613
 1818POPC   PO425536  22.455  22.772   9.620
 1818POPC   GL125537  22.186  22.922   9.212
 1818POPC   GL225538  21.830  22.902   9.133
 1818POPC   C1A25539  22.148  23.060   8.735
 1818POPC   D2A25540  22.382  23.171   8.304
 1818POPC   C3A25541  22.508  22.869   7.938
 1818POPC   C4A25542  22.421  22.548   7.623
 1818POPC   C1B25543  21.927  22.576   8.841
 1818POPC   C2B25544  21.857  22.538   8.384
 1818POPC   C3B25545  21.994  22.712   7.967
 1818POPC   C4B25546  21.972  23.059   7.677
 1819POPC   NC325547  34.159  16.457   9.353
 1819POPC   PO425548  34.460  17.041   9.546
 1819POPC   GL125549  34.421  16.858   9.131
 1819POPC   GL225550  34.744  16.785   8.977
 1819POPC   C1A25551  34.331  16.652   8.714
 1819POPC   D2A25552  34.264  16.861   8.319
 1819POPC   C3A25553  34.225  16.670   7.923
 1819POPC   C4A25554  34.313  16.727   7.492
 1819POPC   C1B25555  34.922  16.573   8.664
 1819POPC   C2B25556  34.792  16.820   8.366
 1819POPC   C3B25557  34.701  16.967   8.003
 1819POPC   C4B25558  34.762  16.693   7.703
 1820POPC   NC325559  40.696  16.548   9.741
 1820POPC   PO425560  40.428  17.097   9.497
 1820POPC   GL125561  40.592  16.920   9.113
 1820POPC   GL225562  40.756  16.583   9.183
 1820POPC   C1A25563  40.519  16.735   8.734
 1820POPC   D2A25564  40.684  16.834   8.356
 1820POPC   C3A25565  40.560  16.680   8.000
 1820POPC   C4A25566  40.698  16.910   7.707
 1820POPC   C1B25567  40.823  16.326   8.794
 1820POPC   C2B25568  40.633  16.313   8.400
 1820POPC   C3B25569  40.799  16.233   8.017
 1820POPC   C4B25570  40.562  16.242   7.667
 1821POPC   NC325571  42.258  34.303   9.391
 1821POPC   PO425572  41.878  34.881   9.483
 1821POPC   GL125573  42.202  34.823   9.183
 1821POPC   GL225574  42.464  34.576   9.010
 1821POPC   C1A25575  42.182  34.923   8.775
 1821POPC   D2A25576  42.422  34.705   8.479
 1821POPC   C3A25577  42.246  34.548   8.092
 1821POPC   C4A25578  42.451  34.310   7.790
 1821POPC   C1B25579  42.109  34.406   8.779
 1821POPC   C2B25580  42.032  34.045   8.573
 1821POPC   C3B25581  42.140  34.037   8.160
 1821POPC   C4B25582  41.950  34.185   7.796
 1822POPC   NC325583  30.481  38.359   9.389
 1822POPC   PO425584  30.898  38.916   9.519
 1822POPC   GL125585  30.873  38.627   9.160
 1822POPC   GL225586  31.021  38.293   9.093
 1822POPC   C1A25587  30.826  38.537   8.709
 1822POPC   D2A25588  30.946  38.280   8.382
 1822POPC   C3A25589  30.891  38.562   8.080
 1822POPC   C4A25590  30.769  38.673   7.701
 1822POPC   C1B25591  30.743  38.066   8.817
 1822POPC   C2B25592  30.412  38.219   8.554
 1822POPC   C3B25593  30.489  38.235   8.117
 1822POPC   C4B25594  30.858  38.120   7.846
 1823POPC   NC325595   0.785  38.715   9.626
 1823POPC   PO425596   0.277  38.290   9.484
 1823POPC   GL125597   0.458  38.332   9.089
 1823POPC   GL225598   0.527  38.660   9.162
 1823POPC   C1A25599   0.407  38.355   8.644
 1823POPC   D2A25600   0.244  38.614   8.304
 1823POPC   C3A25601   0.381  38.604   7.868
 1823POPC   C4A25602   0.239  38.378   7.496
 1823POPC   C1B25603   0.756  38.673   8.768
 1823POPC   C2B25604   0.789  38.462   8.323
 1823POPC   C3B25605   0.891  38.544   7.862
 1823POPC   C4B25606   0.701  38.620   7.430
 1824POPC   NC325607  30.904   9.911   9.532
 1824POPC   PO425608  30.442   9.452   9.474
 1824POPC   GL125609  30.428   9.838   9.202
 1824POPC   GL225610  30.762   9.839   9.051
 1824POPC   C1A25611  30.358   9.912   8.740
 1824POPC   D2A25612  30.665   9.721   8.440
 1824POPC   C3A25613  30.537   9.568   8.047
 1824POPC   C4A25614  30.546   9.927   7.789
 1824POPC   C1B25615  30.886   9.465   8.838
 1824POPC   C2B25616  31.145   9.436   8.460
 1824POPC   C3B25617  31.051   9.339   8.041
 1824POPC   C4B25618  30.991   9.708   7.846
 1825POPC   NC325619  25.843  39.414   9.604
 1825POPC   PO425620  26.402  39.012   9.573
 1825POPC   GL125621  26.134  39.208   9.221
 1825POPC   GL225622  25.755  39.191   9.152
 1825POPC   C1A25623  26.140  39.355   8.788
 1825POPC   D2A25624  26.206  39.174   8.373
 1825POPC   C3A25625  26.051  39.166   7.943
 1825POPC   C4A25626  26.334  39.122   7.585
 1825POPC   C1B25627  25.637  39.346   8.732
 1825POPC   C2B25628  25.685  39.180   8.331
 1825POPC   C3B25629  25.589  39.395   7.967
 1825POPC   C4B25630  25.653  39.318   7.577
 1826POPC   NC325631  22.886  25.856   9.819
 1826POPC   PO425632  22.939  25.233   9.681
 1826POPC   GL125633  22.883  25.187   9.254
 1826POPC   GL225634  22.568  24.983   9.326
 1826POPC   C1A25635  23.005  25.343   8.835
 1826POPC   D2A25636  23.033  25.536   8.438
 1826POPC   C3A25637  22.916  25.316   8.073
 1826POPC   C4A25638  23.091  25.395   7.643
 1826POPC   C1B25639  22.644  24.972   8.870
 1826POPC   C2B25640  22.623  25.057   8.450
 1826POPC   C3B25641  22.666  24.826   8.076
 1826POPC   C4B25642  22.714  25.055   7.679
 1827POPC   NC325643  35.236  33.313   9.786
 1827POPC   PO425644  35.188  32.703   9.530
 1827POPC   GL125645  35.384  32.922   9.179
 1827POPC   GL225646  35.248  33.244   9.161
 1827POPC   C1A25647  35.377  32.945   8.718
 1827POPC   D2A25648  35.122  32.710   8.430
 1827POPC   C3A25649  35.228  32.728   8.010
 1827POPC   C4A25650  35.626  32.828   7.771
 1827POPC   C1B25651  35.170  33.405   8.742
 1827POPC   C2B25652  35.473  33.376   8.412
 1827POPC   C3B25653  35.611  33.269   8.040
 1827POPC   C4B25654  35.243  33.214   7.857
 1828POPC   NC325655  38.883  36.972   9.452
 1828POPC   PO425656  38.224  36.941   9.500
 1828POPC   GL125657  38.245  36.871   9.100
 1828POPC   GL225658  38.598  36.957   9.032
 1828POPC   C1A25659  38.217  37.085   8.729
 1828POPC   D2A25660  38.408  36.987   8.357
 1828POPC   C3A25661  38.148  37.042   8.030
 1828POPC   C4A25662  38.138  36.905   7.626
 1828POPC   C1B25663  38.709  37.276   8.688
 1828POPC   C2B25664  38.818  37.254   8.233
 1828POPC   C3B25665  38.621  37.109   7.858
 1828POPC   C4B25666  38.612  37.074   7.413
 1829POPC   NC325667  25.076  36.827   9.529
 1829POPC   PO425668  25.751  36.765   9.551
 1829POPC   GL125669  25.430  36.853   9.161
 1829POPC   GL225670  25.120  37.078   9.103
 1829POPC   C1A25671  25.259  36.809   8.714
 1829POPC   D2A25672  25.377  36.969   8.344
 1829POPC   C3A25673  25.336  36.729   8.047
 1829POPC   C4A25674  24.997  36.661   7.826
 1829POPC   C1B25675  25.105  37.303   8.692
 1829POPC   C2B25676  25.192  37.421   8.267
 1829POPC   C3B25677  25.115  37.163   7.888
 1829POPC   C4B25678  24.956  37.017   7.468
 1830POPC   NC325679  30.531   6.217   9.484
 1830POPC   PO425680  30.559   5.580   9.695
 1830POPC   GL125681  30.698   5.784   9.253
 1830POPC   GL225682  30.482   5.656   8.987
 1830POPC   C1A25683  30.870   5.873   8.782
 1830POPC   D2A25684  30.602   5.773   8.405
 1830POPC   C3A25685  30.772   5.847   7.965
 1830POPC   C4A25686  30.753   5.832   7.507
 1830POPC   C1B25687  30.436   6.108   8.786
 1830POPC   C2B25688  30.355   6.245   8.377
 1830POPC   C3B25689  30.283   5.976   8.048
 1830POPC   C4B25690  30.350   6.135   7.658
 1831POPC   NC325691  21.051  31.778   9.523
 1831POPC   PO425692  20.437  31.716   9.709
 1831POPC   GL125693  20.392  31.643   9.261
 1831POPC   GL225694  20.723  31.714   9.156
 1831POPC   C1A25695  20.467  31.385   8.888
 1831POPC   D2A25696  20.668  31.319   8.493
 1831POPC   C3A25697  20.453  31.508   8.176
 1831POPC   C4A25698  20.393  31.402   7.765
 1831POPC   C1B25699  20.969  31.623   8.789
 1831POPC   C2B25700  20.923  31.742   8.353
 1831POPC   C3B25701  20.863  31.695   7.922
 1831POPC   C4B25702  20.901  31.317   7.785
 1832POPC   NC325703  15.578   7.051   9.750
 1832POPC   PO425704  16.109   6.666   9.572
 1832POPC   GL125705  16.101   6.557   9.186
 1832POPC   GL225706  16.435   6.488   9.119
 1832POPC   C1A25707  15.901   6.408   8.834
 1832POPC   D2A25708  15.978   6.345   8.410
 1832POPC   C3A25709  15.747   6.585   8.161
 1832POPC   C4A25710  15.818   6.563   7.728
 1832POPC   C1B25711  16.306   6.695   8.734
 1832POPC   C2B25712  16.435   6.597   8.334
 1832POPC   C3B25713  16.210   6.740   8.006
 1832POPC   C4B25714  16.250   6.823   7.611
 1833POPC   NC325715  21.660  11.094   9.515
 1833POPC   PO425716  21.137  11.438   9.684
 1833POPC   GL125717  21.139  11.356   9.235
 1833POPC   GL225718  21.443  11.381   9.152
 1833POPC   C1A25719  21.046  11.270   8.796
 1833POPC   D2A25720  21.255  11.271   8.399
 1833POPC   C3A25721  21.210  11.010   8.057
 1833POPC   C4A25722  21.257  11.245   7.706
 1833POPC   C1B25723  21.743  11.585   8.871
 1833POPC   C2B25724  21.738  11.394   8.489
 1833POPC   C3B25725  21.661  11.286   8.060
 1833POPC   C4B25726  21.931  11.365   7.738
 1834POPC   NC325727  35.833  29.453   9.493
 1834POPC   PO425728  35.738  28.795   9.365
 1834POPC   GL125729  36.104  28.893   9.124
 1834POPC   GL225730  36.198  29.264   9.146
 1834POPC   C1A25731  36.205  28.987   8.704
 1834POPC   D2A25732  36.206  29.202   8.283
 1834POPC   C3A25733  36.137  28.943   7.878
 1834POPC   C4A25734  36.158  28.963   7.396
 1834POPC   C1B25735  36.093  29.481   8.745
 1834POPC   C2B25736  35.730  29.464   8.439
 1834POPC   C3B25737  35.772  29.294   8.009
 1834POPC   C4B25738  36.113  29.387   7.680
 1835POPC   NC325739   2.512   9.410   9.493
 1835POPC   PO425740   2.547  10.083   9.692
 1835POPC   GL125741   2.735   9.816   9.288
 1835POPC   GL225742   2.796  10.054   9.063
 1835POPC   C1A25743   2.964   9.628   8.878
 1835POPC   D2A25744   2.944   9.890   8.474
 1835POPC   C3A25745   2.956   9.660   8.084
 1835POPC   C4A25746   3.145   9.669   7.698
 1835POPC   C1B25747   2.514   9.834   8.776
 1835POPC   C2B25748   2.402   9.708   8.344
 1835POPC   C3B25749   2.508   9.868   7.946
 1835POPC   C4B25750   2.653   9.607   7.609
 1836POPC   NC325751  14.373  27.134   9.470
 1836POPC   PO425752  14.492  26.487   9.589
 1836POPC   GL125753  14.533  26.727   9.225
 1836POPC   GL225754  14.187  26.783   9.117
 1836POPC   C1A25755  14.566  26.996   8.843
 1836POPC   D2A25756  14.337  26.854   8.541
 1836POPC   C3A25757  14.534  26.784   8.163
 1836POPC   C4A25758  14.285  26.784   7.800
 1836POPC   C1B25759  14.059  27.160   8.863
 1836POPC   C2B25760  13.882  27.152   8.476
 1836POPC   C3B25761  14.104  27.106   8.161
 1836POPC   C4B25762  14.000  27.211   7.782
 1837POPC   NC325763  43.484  39.518   9.463
 1837POPC   PO425764  44.089  39.161   9.621
 1837POPC   GL125765  44.005  39.119   9.202
 1837POPC   GL225766  43.654  39.022   9.176
 1837POPC   C1A25767  43.916  39.304   8.783
 1837POPC   D2A25768  44.123  39.418   8.383
 1837POPC   C3A25769  43.922  39.463   8.012
 1837POPC   C4A25770  43.954  39.245   7.638
 1837POPC   C1B25771  43.528  38.953   8.739
 1837POPC   C2B25772  43.617  39.156   8.337
 1837POPC   C3B25773  43.483  39.046   7.909
 1837POPC   C4B25774  43.487  39.031   7.427
 1838POPC   NC325775  13.377  27.206   9.418
 1838POPC   PO425776  13.417  27.872   9.526
 1838POPC   GL125777  13.438  27.683   9.143
 1838POPC   GL225778  13.700  27.467   9.085
 1838POPC   C1A25779  13.567  27.824   8.751
 1838POPC   D2A25780  13.411  27.957   8.376
 1838POPC   C3A25781  13.605  27.785   8.034
 1838POPC   C4A25782  13.863  27.722   7.688
 1838POPC   C1B25783  13.497  27.229   8.784
 1838POPC   C2B25784  13.387  27.329   8.368
 1838POPC   C3B25785  13.511  27.304   7.957
 1838POPC   C4B25786  13.536  27.100   7.595
 1839POPC   NC325787  43.279  43.022   9.324
 1839POPC   PO425788  42.680  43.089   9.488
 1839POPC   GL125789  42.817  43.317   9.123
 1839POPC   GL225790  43.154  43.466   9.126
 1839POPC   C1A25791  42.887  43.160   8.706
 1839POPC   D2A25792  43.161  43.017   8.364
 1839POPC   C3A25793  42.942  43.044   7.978
 1839POPC   C4A25794  43.010  42.843   7.564
 1839POPC   C1B25795  43.397  43.296   8.764
 1839POPC   C2B25796  43.523  43.446   8.381
 1839POPC   C3B25797  43.363  43.412   7.984
 1839POPC   C4B25798  43.411  43.033   7.796
 1840POPC   NC325799  34.691  34.727   9.388
 1840POPC   PO425800  34.139  34.254   9.516
 1840POPC   GL125801  34.250  34.427   9.130
 1840POPC   GL225802  34.579  34.305   9.141
 1840POPC   C1A25803  34.418  34.629   8.752
 1840POPC   D2A25804  34.738  34.692   8.466
 1840POPC   C3A25805  34.553  34.833   8.109
 1840POPC   C4A25806  34.699  34.792   7.683
 1840POPC   C1B25807  34.822  34.315   8.800
 1840POPC   C2B25808  34.809  34.154   8.377
 1840POPC   C3B25809  34.838  34.422   8.008
 1840POPC   C4B25810  34.823  34.331   7.513
 1841POPC   NC325811   9.509   7.175   9.285
 1841POPC   PO425812   9.692   6.567   9.626
 1841POPC   GL125813   9.789   6.751   9.192
 1841POPC   GL225814  10.129   6.879   9.060
 1841POPC   C1A25815   9.700   6.568   8.792
 1841POPC   D2A25816   9.428   6.700   8.473
 1841POPC   C3A25817   9.606   6.890   8.110
 1841POPC   C4A25818   9.465   6.829   7.709
 1841POPC   C1B25819   9.992   6.930   8.595
 1841POPC   C2B25820   9.920   6.545   8.290
 1841POPC   C3B25821   9.856   6.528   7.834
 1841POPC   C4B25822   9.982   6.962   7.665
 1842POPC   NC325823  28.651   8.399   9.651
 1842POPC   PO425824  27.989   8.398   9.376
 1842POPC   GL125825  28.230   8.436   9.036
 1842POPC   GL225826  28.224   8.098   8.937
 1842POPC   C1A25827  28.288   8.479   8.599
 1842POPC   D2A25828  28.562   8.218   8.315
 1842POPC   C3A25829  28.523   8.405   7.912
 1842POPC   C4A25830  28.122   8.630   7.738
 1842POPC   C1B25831  28.662   8.006   8.825
 1842POPC   C2B25832  28.911   7.857   8.483
 1842POPC   C3B25833  28.748   7.781   8.068
 1842POPC   C4B25834  28.568   7.867   7.671
 1843POPC   NC325835  36.364  19.310   9.841
 1843POPC   PO425836  35.952  18.882   9.531
 1843POPC   GL125837  36.108  18.883   9.116
 1843POPC   GL225838  36.342  19.152   9.179
 1843POPC   C1A25839  36.023  18.930   8.673
 1843POPC   D2A25840  36.301  19.024   8.342
 1843POPC   C3A25841  36.276  18.834   7.937
 1843POPC   C4A25842  36.248  19.053   7.560
 1843POPC   C1B25843  36.328  19.349   8.759
 1843POPC   C2B25844  36.417  19.531   8.354
 1843POPC   C3B25845  36.220  19.370   7.968
 1843POPC   C4B25846  36.392  19.544   7.612
 1844POPC   NC325847   1.540  19.666   9.492
 1844POPC   PO425848   1.332  20.245   9.186
 1844POPC   GL125849   1.311  19.871   9.044
 1844POPC   GL225850   0.959  19.827   8.990
 1844POPC   C1A25851   1.356  19.893   8.589
 1844POPC   D2A25852   1.182  20.078   8.243
 1844POPC   C3A25853   1.334  20.043   7.837
 1844POPC   C4A25854   1.293  20.290   7.485
 1844POPC   C1B25855   1.104  19.503   8.734
 1844POPC   C2B25856   1.206  19.456   8.329
 1844POPC   C3B25857   1.151  19.585   7.943
 1844POPC   C4B25858   1.328  19.415   7.582
 1845POPC   NC325859  42.285  30.921   9.693
 1845POPC   PO425860  42.282  30.438   9.211
 1845POPC   GL125861  42.389  30.872   9.162
 1845POPC   GL225862  42.716  31.008   9.191
 1845POPC   C1A25863  42.491  30.877   8.718
 1845POPC   D2A25864  42.551  30.526   8.453
 1845POPC   C3A25865  42.262  30.570   8.140
 1845POPC   C4A25866  42.482  30.554   7.782
 1845POPC   C1B25867  42.699  31.313   8.824
 1845POPC   C2B25868  42.722  31.234   8.391
 1845POPC   C3B25869  42.633  30.926   8.096
 1845POPC   C4B25870  42.504  31.032   7.680
 1846POPC   NC325871  11.295  42.844   9.530
 1846POPC   PO425872  10.930  43.214   9.138
 1846POPC   GL125873  11.246  42.928   9.027
 1846POPC   GL225874  11.553  43.071   9.095
 1846POPC   C1A25875  11.395  42.936   8.619
 1846POPC   D2A25876  11.227  43.164   8.316
 1846POPC   C3A25877  11.423  42.963   8.003
 1846POPC   C4A25878  11.237  42.995   7.620
 1846POPC   C1B25879  11.515  43.424   8.763
 1846POPC   C2B25880  11.657  43.431   8.354
 1846POPC   C3B25881  11.453  43.477   7.952
 1846POPC   C4B25882  11.660  43.542   7.588
 1847POPC   NC325883  42.348   8.204   9.484
 1847POPC   PO425884  42.101   8.825   9.327
 1847POPC   GL125885  42.338   8.488   9.070
 1847POPC   GL225886  42.642   8.182   9.069
 1847POPC   C1A25887  42.236   8.171   8.784
 1847POPC   D2A25888  42.320   8.160   8.374
 1847POPC   C3A25889  41.984   8.065   8.134
 1847POPC   C4A25890  42.165   7.853   7.801
 1847POPC   C1B25891  42.697   8.446   8.726
 1847POPC   C2B25892  42.706   8.480   8.257
 1847POPC   C3B25893  42.527   8.275   7.882
 1847POPC   C4B25894  42.670   8.263   7.438
 1848POPC   NC325895  17.012  37.314   9.531
 1848POPC   PO425896  16.385  37.607   9.529
 1848POPC   GL125897  16.550  37.359   9.155
 1848POPC   GL225898  16.839  37.568   9.029
 1848POPC   C1A25899  16.568  37.327   8.677
 1848POPC   D2A25900  16.809  37.569   8.340
 1848POPC   C3A25901  16.725  37.746   7.884
 1848POPC   C4A25902  17.009  37.736   7.505
 1848POPC   C1B25903  16.972  37.897   8.683
 1848POPC   C2B25904  17.008  38.049   8.205
 1848POPC   C3B25905  17.009  38.221   7.760
 1848POPC   C4B25906  17.065  38.212   7.305
 1849POPC   NC325907  23.931  26.708   9.746
 1849POPC   PO425908  23.451  27.138   9.837
 1849POPC   GL125909  23.542  26.942   9.392
 1849POPC   GL225910  23.845  26.757   9.246
 1849POPC   C1A25911  23.539  27.053   8.935
 1849POPC   D2A25912  23.422  26.911   8.522
 1849POPC   C3A25913  23.661  26.970   8.153
 1849POPC   C4A25914  23.548  26.934   7.723
 1849POPC   C1B25915  24.057  26.831   8.857
 1849POPC   C2B25916  24.023  26.702   8.452
 1849POPC   C3B25917  24.167  26.816   8.086
 1849POPC   C4B25918  24.038  26.833   7.697
 1850POPC   NC325919   9.825  27.452   9.370
 1850POPC   PO425920  10.077  28.069   9.589
 1850POPC   GL125921   9.901  27.911   9.156
 1850POPC   GL225922   9.541  27.905   9.053
 1850POPC   C1A25923   9.931  27.686   8.765
 1850POPC   D2A25924   9.837  27.462   8.374
 1850POPC   C3A25925   9.898  27.738   8.016
 1850POPC   C4A25926   9.802  27.662   7.604
 1850POPC   C1B25927   9.429  27.494   8.819
 1850POPC   C2B25928   9.340  27.260   8.442
 1850POPC   C3B25929   9.423  27.445   8.020
 1850POPC   C4B25930   9.300  27.624   7.635
 1851POPC   NC325931  21.936   3.140   9.372
 1851POPC   PO425932  22.303   2.561   9.482
 1851POPC   GL125933  22.271   2.747   9.096
 1851POPC   GL225934  21.992   2.942   8.919
 1851POPC   C1A25935  22.156   2.519   8.736
 1851POPC   D2A25936  21.913   2.614   8.371
 1851POPC   C3A25937  22.227   2.481   8.093
 1851POPC   C4A25938  22.349   2.564   7.704
 1851POPC   C1B25939  22.380   2.987   8.652
 1851POPC   C2B25940  22.410   2.946   8.201
 1851POPC   C3B25941  22.113   2.990   7.895
 1851POPC   C4B25942  21.934   2.965   7.428
 1852POPC   NC325943  33.012  32.596   9.553
 1852POPC   PO425944  32.966  31.931   9.528
 1852POPC   GL125945  32.821  32.074   9.130
 1852POPC   GL225946  32.737  32.420   9.155
 1852POPC   C1A25947  32.872  32.008   8.691
 1852POPC   D2A25948  33.261  32.125   8.483
 1852POPC   C3A25949  33.181  32.096   8.047
 1852POPC   C4A25950  32.875  32.261   7.731
 1852POPC   C1B25951  33.051  32.455   8.837
 1852POPC   C2B25952  33.091  32.686   8.451
 1852POPC   C3B25953  33.035  32.653   8.006
 1852POPC   C4B25954  33.108  32.682   7.557
 1853POPC   NC325955  33.521  25.189   9.589
 1853POPC   PO425956  34.216  24.958   9.583
 1853POPC   GL125957  33.895  25.095   9.243
 1853POPC   GL225958  33.571  25.357   9.140
 1853POPC   C1A25959  33.980  25.309   8.858
 1853POPC   D2A25960  33.893  25.170   8.461
 1853POPC   C3A25961  34.105  25.379   8.177
 1853POPC   C4A25962  34.084  25.290   7.778
 1853POPC   C1B25963  33.464  25.264   8.746
 1853POPC   C2B25964  33.477  25.442   8.344
 1853POPC   C3B25965  33.552  25.242   7.978
 1853POPC   C4B25966  33.625  25.415   7.590
 1854POPC   NC325967  42.051   7.553   9.470
 1854POPC   PO425968  41.357   7.385   9.420
 1854POPC   GL125969  41.671   7.548   9.137
 1854POPC   GL225970  41.681   7.198   9.027
 1854POPC   C1A25971  41.799   7.595   8.708
 1854POPC   D2A25972  41.629   7.315   8.372
 1854POPC   C3A25973  41.562   7.528   7.966
 1854POPC   C4A25974  41.417   7.632   7.547
 1854POPC   C1B25975  41.352   6.958   8.798
 1854POPC   C2B25976  41.236   6.863   8.395
 1854POPC   C3B25977  41.323   7.049   8.015
 1854POPC   C4B25978  41.526   7.120   7.652
 1855POPC   NC325979  33.097  18.249   9.468
 1855POPC   PO425980  32.543  18.610   9.693
 1855POPC   GL125981  32.643  18.409   9.223
 1855POPC   GL225982  32.802  18.050   9.118
 1855POPC   C1A25983  32.622  18.329   8.746
 1855POPC   D2A25984  32.881  18.511   8.410
 1855POPC   C3A25985  32.847  18.302   8.031
 1855POPC   C4A25986  32.987  18.228   7.638
 1855POPC   C1B25987  33.091  18.109   8.736
 1855POPC   C2B25988  33.069  17.944   8.302
 1855POPC   C3B25989  33.345  18.012   7.920
 1855POPC   C4B25990  33.399  17.909   7.431
 1856POPC   NC325991   7.978  27.485   9.513
 1856POPC   PO425992   8.652  27.348   9.517
 1856POPC   GL125993   8.393  27.492   9.143
 1856POPC   GL225994   8.027  27.596   9.026
 1856POPC   C1A25995   8.432  27.604   8.719
 1856POPC   D2A25996   8.174  27.598   8.357
 1856POPC   C3A25997   8.391  27.615   7.937
 1856POPC   C4A25998   8.302  27.434   7.519
 1856POPC   C1B25999   7.786  27.808   8.713
 1856POPC   C2B26000   7.635  27.690   8.324
 1856POPC   C3B26001   7.872  27.619   7.940
 1856POPC   C4B26002   7.963  27.792   7.531
 1857POPC   NC326003  32.872  28.788   9.557
 1857POPC   PO426004  32.896  29.440   9.570
 1857POPC   GL126005  32.957  29.209   9.179
 1857POPC   GL226006  32.745  28.917   9.079
 1857POPC   C1A26007  32.895  29.386   8.749
 1857POPC   D2A26008  32.703  29.349   8.296
 1857POPC   C3A26009  32.952  29.118   7.989
 1857POPC   C4A26010  33.207  29.501   7.993
 1857POPC   C1B26011  32.651  28.961   8.632
 1857POPC   C2B26012  32.766  28.716   8.287
 1857POPC   C3B26013  32.699  28.651   7.867
 1857POPC   C4B26014  32.654  28.971   7.523
 1858POPC   NC326015  14.967   2.565   9.532
 1858POPC   PO426016  15.588   2.931   9.569
 1858POPC   GL126017  15.268   2.811   9.205
 1858POPC   GL226018  15.209   2.447   9.112
 1858POPC   C1A26019  15.062   2.789   8.764
 1858POPC   D2A26020  14.881   2.818   8.311
 1858POPC   C3A26021  15.136   2.705   7.952
 1858POPC   C4A26022  15.394   2.921   7.651
 1858POPC   C1B26023  15.250   2.320   8.727
 1858POPC   C2B26024  15.356   2.493   8.357
 1858POPC   C3B26025  15.548   2.398   7.959
 1858POPC   C4B26026  15.175   2.200   7.841
 1859POPC   NC326027  18.782  31.175   9.395
 1859POPC   PO426028  19.206  30.653   9.490
 1859POPC   GL126029  19.478  30.579   9.124
 1859POPC   GL226030  19.483  30.932   9.116
 1859POPC   C1A26031  19.357  30.367   8.722
 1859POPC   D2A26032  19.240  30.318   8.252
 1859POPC   C3A26033  18.979  30.463   7.876
 1859POPC   C4A26034  18.663  30.559   7.543
 1859POPC   C1B26035  19.296  30.877   8.725
 1859POPC   C2B26036  19.168  30.920   8.302
 1859POPC   C3B26037  19.295  30.864   7.920
 1859POPC   C4B26038  19.491  30.510   7.816
 1860POPC   NC326039   7.319  35.353   9.535
 1860POPC   PO426040   7.929  35.170   9.481
 1860POPC   GL126041   7.579  35.226   9.124
 1860POPC   GL226042   7.369  35.548   9.078
 1860POPC   C1A26043   7.310  35.231   8.701
 1860POPC   D2A26044   7.408  34.995   8.297
 1860POPC   C3A26045   7.134  35.074   7.972
 1860POPC   C4A26046   7.437  35.284   7.700
 1860POPC   C1B26047   7.530  35.677   8.636
 1860POPC   C2B26048   7.495  35.495   8.248
 1860POPC   C3B26049   7.180  35.586   7.993
 1860POPC   C4B26050   7.189  35.769   7.607
 1861POPC   NC326051  18.985   0.768   9.463
 1861POPC   PO426052  18.852   0.115   9.341
 1861POPC   GL126053  19.235   0.237   9.167
 1861POPC   GL226054  19.052   0.505   9.032
 1861POPC   C1A26055  19.504   0.136   8.832
 1861POPC   D2A26056  19.440   0.368   8.478
 1861POPC   C3A26057  19.446   0.208   8.090
 1861POPC   C4A26058  19.335   0.431   7.744
 1861POPC   C1B26059  18.982   0.245   8.684
 1861POPC   C2B26060  18.950   0.297   8.244
 1861POPC   C3B26061  18.920   0.640   7.966
 1861POPC   C4B26062  18.697   0.677   7.606
 1862POPC   NC326063  25.057  12.716   9.379
 1862POPC   PO426064  25.727  12.631   9.536
 1862POPC   GL126065  25.583  12.720   9.135
 1862POPC   GL226066  25.417  12.417   9.105
 1862POPC   C1A26067  25.448  13.066   8.838
 1862POPC   D2A26068  25.426  13.386   8.479
 1862POPC   C3A26069  25.180  13.190   8.123
 1862POPC   C4A26070  25.199  13.049   7.681
 1862POPC   C1B26071  25.323  12.551   8.712
 1862POPC   C2B26072  25.423  12.830   8.393
 1862POPC   C3B26073  25.421  12.727   8.016
 1862POPC   C4B26074  25.144  12.527   7.817
 1863POPC   NC326075  27.014  14.313   9.879
 1863POPC   PO426076  26.479  14.287   9.435
 1863POPC   GL126077  26.534  14.362   9.059
 1863POPC   GL226078  26.738  14.653   9.030
 1863POPC   C1A26079  26.724  14.165   8.746
 1863POPC   D2A26080  26.919  14.188   8.357
 1863POPC   C3A26081  26.787  13.992   7.977
 1863POPC   C4A26082  26.650  14.160   7.572
 1863POPC   C1B26083  27.056  14.575   8.714
 1863POPC   C2B26084  27.149  14.638   8.277
 1863POPC   C3B26085  26.959  14.499   7.876
 1863POPC   C4B26086  27.043  14.466   7.420
 1864POPC   NC326087  25.809  25.673   9.471
 1864POPC   PO426088  26.113  25.115   9.406
 1864POPC   GL126089  25.822  25.273   9.142
 1864POPC   GL226090  25.614  24.993   9.205
 1864POPC   C1A26091  25.869  25.559   8.784
 1864POPC   D2A26092  26.007  25.572   8.347
 1864POPC   C3A26093  26.286  25.271   8.227
 1864POPC   C4A26094  26.314  25.323   7.824
 1864POPC   C1B26095  25.505  25.102   8.787
 1864POPC   C2B26096  25.706  25.180   8.427
 1864POPC   C3B26097  25.831  25.152   8.010
 1864POPC   C4B26098  25.649  25.211   7.626
 1865POPC   NC326099  33.601  15.995   9.595
 1865POPC   PO426100  34.239  16.132   9.676
 1865POPC   GL126101  34.093  15.955   9.268
 1865POPC   GL226102  33.781  15.878   9.149
 1865POPC   C1A26103  34.087  16.099   8.812
 1865POPC   D2A26104  34.203  15.959   8.403
 1865POPC   C3A26105  34.100  15.673   8.091
 1865POPC   C4A26106  34.079  15.864   7.684
 1865POPC   C1B26107  33.847  15.661   8.758
 1865POPC   C2B26108  33.688  15.764   8.381
 1865POPC   C3B26109  33.717  15.989   8.017
 1865POPC   C4B26110  33.616  15.627   7.746
 1866POPC   NC326111  17.239  22.651   9.695
 1866POPC   PO426112  17.689  23.092   9.643
 1866POPC   GL126113  17.480  22.983   9.257
 1866POPC   GL226114  17.813  22.868   9.126
 1866POPC   C1A26115  17.425  22.901   8.806
 1866POPC   D2A26116  17.549  23.011   8.406
 1866POPC   C3A26117  17.260  23.057   8.101
 1866POPC   C4A26118  17.391  23.034   7.724
 1866POPC   C1B26119  18.004  22.915   8.699
 1866POPC   C2B26120  18.022  22.946   8.240
 1866POPC   C3B26121  17.805  22.797   7.881
 1866POPC   C4B26122  17.765  22.738   7.410
 1867POPC   NC326123  22.609  24.000   9.612
 1867POPC   PO426124  23.187  23.751   9.494
 1867POPC   GL126125  22.923  23.937   9.154
 1867POPC   GL226126  22.543  23.948   9.107
 1867POPC   C1A26127  23.071  24.049   8.727
 1867POPC   D2A26128  23.003  23.979   8.287
 1867POPC   C3A26129  23.203  23.713   8.006
 1867POPC   C4A26130  23.125  23.631   7.543
 1867POPC   C1B26131  22.578  23.888   8.649
 1867POPC   C2B26132  22.498  23.765   8.218
 1867POPC   C3B26133  22.716  23.771   7.856
 1867POPC   C4B26134  22.606  23.737   7.436
 1868POPC   NC326135  36.745  20.202   9.595
 1868POPC   PO426136  36.568  19.541   9.502
 1868POPC   GL126137  36.659  19.831   9.161
 1868POPC   GL226138  36.672  20.224   9.111
 1868POPC   C1A26139  36.760  19.640   8.765
 1868POPC   D2A26140  36.928  19.727   8.372
 1868POPC   C3A26141  36.743  19.745   7.965
 1868POPC   C4A26142  37.098  19.842   7.683
 1868POPC   C1B26143  36.784  20.149   8.711
 1868POPC   C2B26144  36.553  20.094   8.352
 1868POPC   C3B26145  36.565  20.325   7.994
 1868POPC   C4B26146  36.815  20.248   7.611
 1869POPC   NC326147  36.468   7.168   9.465
 1869POPC   PO426148  36.055   7.767   9.529
 1869POPC   GL126149  36.350   7.658   9.171
 1869POPC   GL226150  36.069   7.490   9.079
 1869POPC   C1A26151  36.398   7.548   8.690
 1869POPC   D2A26152  36.136   7.330   8.353
 1869POPC   C3A26153  36.215   7.467   7.936
 1869POPC   C4A26154  36.324   7.258   7.540
 1869POPC   C1B26155  35.827   7.514   8.721
 1869POPC   C2B26156  35.711   7.626   8.311
 1869POPC   C3B26157  35.719   7.349   7.974
 1869POPC   C4B26158  35.820   7.360   7.513
 1870POPC   NC326159   5.413  38.194   9.827
 1870POPC   PO426160   4.989  38.532   9.465
 1870POPC   GL126161   5.289  38.453   9.151
 1870POPC   GL226162   5.056  38.252   8.950
 1870POPC   C1A26163   5.313  38.629   8.734
 1870POPC   D2A26164   5.095  38.426   8.391
 1870POPC   C3A26165   5.295  38.434   7.987
 1870POPC   C4A26166   5.173  38.442   7.578
 1870POPC   C1B26167   4.875  37.990   8.640
 1870POPC   C2B26168   4.921  37.961   8.207
 1870POPC   C3B26169   4.815  38.301   7.924
 1870POPC   C4B26170   4.699  38.277   7.485
 1871POPC   NC326171   9.222   8.103   9.522
 1871POPC   PO426172   8.595   7.751   9.467
 1871POPC   GL126173   8.760   7.884   9.072
 1871POPC   GL226174   8.917   8.197   9.079
 1871POPC   C1A26175   8.922   7.942   8.640
 1871POPC   D2A26176   9.210   7.823   8.334
 1871POPC   C3A26177   8.933   8.034   8.069
 1871POPC   C4A26178   8.952   8.290   7.710
 1871POPC   C1B26179   8.953   8.469   8.704
 1871POPC   C2B26180   8.946   8.500   8.262
 1871POPC   C3B26181   9.080   8.736   7.918
 1871POPC   C4B26182   9.044   8.721   7.442
 1872POPC   NC326183  12.522  32.022   9.469
 1872POPC   PO426184  13.109  32.349   9.440
 1872POPC   GL126185  12.801  32.345   9.177
 1872POPC   GL226186  12.845  32.061   9.089
 1872POPC   C1A26187  12.708  32.402   8.765
 1872POPC   D2A26188  12.849  32.446   8.387
 1872POPC   C3A26189  12.699  32.173   8.093
 1872POPC   C4A26190  12.666  32.428   7.732
 1872POPC   C1B26191  12.978  31.951   8.711
 1872POPC   C2B26192  12.892  31.706   8.367
 1872POPC   C3B26193  13.007  31.786   7.937
 1872POPC   C4B26194  12.881  31.988   7.587
 1873POPC   NC326195  21.705  15.235   9.619
 1873POPC   PO426196  21.034  15.388   9.412
 1873POPC   GL126197  21.255  15.195   9.094
 1873POPC   GL226198  21.586  15.126   9.153
 1873POPC   C1A26199  21.232  15.351   8.694
 1873POPC   D2A26200  21.340  15.114   8.370
 1873POPC   C3A26201  21.218  15.215   7.970
 1873POPC   C4A26202  21.342  15.226   7.576
 1873POPC   C1B26203  21.676  15.027   8.760
 1873POPC   C2B26204  21.912  15.035   8.392
 1873POPC   C3B26205  21.729  15.206   8.035
 1873POPC   C4B26206  21.846  15.130   7.654
 1874POPC   NC326207  27.991  38.362   9.575
 1874POPC   PO426208  27.370  38.724   9.668
 1874POPC   GL126209  27.488  38.410   9.242
 1874POPC   GL226210  27.795  38.225   9.117
 1874POPC   C1A26211  27.609  38.519   8.765
 1874POPC   D2A26212  27.830  38.572   8.352
 1874POPC   C3A26213  27.485  38.581   8.062
 1874POPC   C4A26214  27.215  38.443   7.738
 1874POPC   C1B26215  27.941  38.142   8.648
 1874POPC   C2B26216  27.913  38.095   8.159
 1874POPC   C3B26217  27.804  38.311   7.759
 1874POPC   C4B26218  27.907  38.286   7.301
 1875POPC   NC326219  22.541  25.432   9.526
 1875POPC   PO426220  22.056  24.938   9.521
 1875POPC   GL126221  22.035  25.182   9.138
 1875POPC   GL226222  22.315  25.408   9.087
 1875POPC   C1A26223  22.169  25.121   8.713
 1875POPC   D2A26224  22.205  25.350   8.371
 1875POPC   C3A26225  22.296  25.166   8.010
 1875POPC   C4A26226  22.012  25.250   7.710
 1875POPC   C1B26227  22.052  25.632   8.783
 1875POPC   C2B26228  22.123  25.848   8.382
 1875POPC   C3B26229  22.271  25.693   7.984
 1875POPC   C4B26230  22.461  25.482   7.615
 1876POPC   NC326231  39.906  42.789   9.617
 1876POPC   PO426232  40.172  43.327   9.485
 1876POPC   GL126233  39.908  43.085   9.193
 1876POPC   GL226234  40.099  42.758   9.148
 1876POPC   C1A26235  39.684  43.176   8.806
 1876POPC   D2A26236  39.728  43.366   8.392
 1876POPC   C3A26237  39.827  43.134   8.056
 1876POPC   C4A26238  39.594  43.137   7.706
 1876POPC   C1B26239  40.161  42.992   8.761
 1876POPC   C2B26240  40.229  43.125   8.368
 1876POPC   C3B26241  40.336  42.920   7.985
 1876POPC   C4B26242  40.402  42.955   7.550
 1877POPC   NC326243  34.391  33.875   9.629
 1877POPC   PO426244  34.862  33.458   9.559
 1877POPC   GL126245  34.684  33.783   9.225
 1877POPC   GL226246  34.306  33.878   9.129
 1877POPC   C1A26247  34.649  33.675   8.805
 1877POPC   D2A26248  34.642  33.566   8.406
 1877POPC   C3A26249  34.490  33.871   8.117
 1877POPC   C4A26250  34.471  33.812   7.699
 1877POPC   C1B26251  34.377  34.093   8.685
 1877POPC   C2B26252  34.355  34.362   8.277
 1877POPC   C3B26253  34.386  34.381   7.793
 1877POPC   C4B26254  34.288  34.141   7.384
 1878POPC   NC326255   2.581  33.430   9.519
 1878POPC   PO426256   2.897  33.993   9.709
 1878POPC   GL126257   2.917  34.009   9.258
 1878POPC   GL226258   2.626  33.809   9.178
 1878POPC   C1A26259   2.962  33.830   8.811
 1878POPC   D2A26260   2.786  33.701   8.447
 1878POPC   C3A26261   2.985  33.866   8.115
 1878POPC   C4A26262   2.940  33.838   7.683
 1878POPC   C1B26263   2.557  33.461   8.855
 1878POPC   C2B26264   2.395  33.355   8.455
 1878POPC   C3B26265   2.342  33.683   8.151
 1878POPC   C4B26266   2.438  33.734   7.722
 1879POPC   NC326267  31.693   5.193   9.666
 1879POPC   PO426268  31.134   4.861   9.658
 1879POPC   GL126269  31.291   5.117   9.289
 1879POPC   GL226270  31.628   5.175   9.176
 1879POPC   C1A26271  31.237   5.069   8.834
 1879POPC   D2A26272  31.286   5.244   8.427
 1879POPC   C3A26273  31.107   5.059   8.095
 1879POPC   C4A26274  31.063   4.851   7.741
 1879POPC   C1B26275  31.707   5.284   8.771
 1879POPC   C2B26276  31.788   5.121   8.391
 1879POPC   C3B26277  31.630   5.196   7.996
 1879POPC   C4B26278  31.685   4.898   7.699
 1880POPC   NC326279  34.539  13.889   9.273
 1880POPC   PO426280  34.953  13.390   9.329
 1880POPC   GL126281  34.623  13.366   9.029
 1880POPC   GL226282  34.684  13.674   8.848
 1880POPC   C1A26283  34.648  13.243   8.599
 1880POPC   D2A26284  34.717  13.605   8.343
 1880POPC   C3A26285  34.556  13.534   7.973
 1880POPC   C4A26286  34.426  13.601   7.619
 1880POPC   C1B26287  34.331  13.862   8.639
 1880POPC   C2B26288  34.272  13.888   8.224
 1880POPC   C3B26289  34.158  13.976   7.834
 1880POPC   C4B26290  34.095  13.952   7.418
 1881POPC   NC326291   2.952  38.622   9.670
 1881POPC   PO426292   2.407  38.341   9.438
 1881POPC   GL126293   2.641  38.551   9.187
 1881POPC   GL226294   2.926  38.356   9.226
 1881POPC   C1A26295   2.805  38.630   8.798
 1881POPC   D2A26296   2.673  38.428   8.419
 1881POPC   C3A26297   2.774  38.616   8.038
 1881POPC   C4A26298   2.695  38.474   7.619
 1881POPC   C1B26299   2.986  38.157   8.775
 1881POPC   C2B26300   3.125  38.211   8.323
 1881POPC   C3B26301   3.234  38.034   7.925
 1881POPC   C4B26302   2.963  37.990   7.554
 1882POPC   NC326303  41.342  16.951   9.497
 1882POPC   PO426304  41.435  17.581   9.462
 1882POPC   GL126305  41.495  17.513   9.061
 1882POPC   GL226306  41.827  17.681   8.988
 1882POPC   C1A26307  41.329  17.205   8.765
 1882POPC   D2A26308  41.143  17.095   8.367
 1882POPC   C3A26309  41.344  17.286   8.000
 1882POPC   C4A26310  41.701  17.480   7.769
 1882POPC   C1B26311  41.833  17.272   8.782
 1882POPC   C2B26312  41.671  17.341   8.376
 1882POPC   C3B26313  41.752  17.767   8.184
 1882POPC   C4B26314  41.975  17.908   7.796
 1883POPC   NC326315  35.989  40.380   9.539
 1883POPC   PO426316  36.359  39.902   9.229
 1883POPC   GL126317  36.123  39.995   8.921
 1883POPC   GL226318  35.845  40.094   9.127
 1883POPC   C1A26319  36.262  40.055   8.501
 1883POPC   D2A26320  36.586  40.207   8.208
 1883POPC   C3A26321  36.322  40.162   7.860
 1883POPC   C4A26322  36.102  39.763   7.888
 1883POPC   C1B26323  35.700  40.199   8.716
 1883POPC   C2B26324  35.796  40.134   8.290
 1883POPC   C3B26325  35.811  40.214   7.877
 1883POPC   C4B26326  35.960  40.304   7.442
 1884POPC   NC326327   1.730  44.067  10.026
 1884POPC   PO426328   2.154  43.721   9.561
 1884POPC   GL126329   2.005  43.974   9.213
 1884POPC   GL226330   2.009  43.725   9.014
 1884POPC   C1A26331   1.885  44.186   8.823
 1884POPC   D2A26332   1.820  43.985   8.424
 1884POPC   C3A26333   1.734  44.150   8.023
 1884POPC   C4A26334   2.041  44.185   7.696
 1884POPC   C1B26335   2.080  43.449   8.669
 1884POPC   C2B26336   1.910  43.477   8.288
 1884POPC   C3B26337   2.076  43.694   7.956
 1884POPC   C4B26338   2.303  43.501   7.627
 1885POPC   NC326339  20.442  29.030   9.279
 1885POPC   PO426340  21.026  29.344   9.328
 1885POPC   GL126341  20.790  29.286   8.999
 1885POPC   GL226342  20.505  29.512   9.118
 1885POPC   C1A26343  20.787  28.932   8.704
 1885POPC   D2A26344  20.524  28.917   8.338
 1885POPC   C3A26345  20.767  29.152   8.046
 1885POPC   C4A26346  21.025  29.036   7.735
 1885POPC   C1B26347  20.221  29.374   8.792
 1885POPC   C2B26348  20.386  29.425   8.417
 1885POPC   C3B26349  20.293  29.325   8.023
 1885POPC   C4B26350  20.389  29.086   7.692
 1886POPC   NC326351  39.440  37.452   9.604
 1886POPC   PO426352  38.843  37.438   9.409
 1886POPC   GL126353  39.208  37.591   9.169
 1886POPC   GL226354  39.510  37.348   9.116
 1886POPC   C1A26355  39.240  37.827   8.806
 1886POPC   D2A26356  39.052  37.661   8.416
 1886POPC   C3A26357  39.195  37.833   7.986
 1886POPC   C4A26358  39.072  37.965   7.571
 1886POPC   C1B26359  39.474  37.418   8.663
 1886POPC   C2B26360  39.469  37.459   8.201
 1886POPC   C3B26361  39.562  37.442   7.750
 1886POPC   C4B26362  39.770  37.459   7.311
 1887POPC   NC326363  28.562  38.326   9.494
 1887POPC   PO426364  28.065  38.691   9.262
 1887POPC   GL126365  28.301  38.420   9.064
 1887POPC   GL226366  28.268  38.060   9.178
 1887POPC   C1A26367  28.289  38.549   8.648
 1887POPC   D2A26368  28.522  38.650   8.290
 1887POPC   C3A26369  28.249  38.504   7.974
 1887POPC   C4A26370  28.177  38.608   7.559
 1887POPC   C1B26371  28.414  38.022   8.777
 1887POPC   C2B26372  28.380  38.135   8.362
 1887POPC   C3B26373  28.374  37.997   7.964
 1887POPC   C4B26374  28.387  38.146   7.564
 1888POPC   NC326375  18.285  25.617   9.489
 1888POPC   PO426376  18.153  26.342   9.369
 1888POPC   GL126377  18.486  26.144   9.129
 1888POPC   GL226378  18.295  25.862   9.046
 1888POPC   C1A26379  18.571  26.118   8.680
 1888POPC   D2A26380  18.328  26.403   8.404
 1888POPC   C3A26381  18.255  26.218   8.003
 1888POPC   C4A26382  18.456  25.854   7.819
 1888POPC   C1B26383  18.069  25.924   8.659
 1888POPC   C2B26384  17.946  25.622   8.345
 1888POPC   C3B26385  18.012  25.632   7.926
 1888POPC   C4B26386  17.847  25.540   7.513
 1889POPC   NC326387  14.895  30.463   9.489
 1889POPC   PO426388  15.470  30.809   9.535
 1889POPC   GL126389  15.164  30.747   9.154
 1889POPC   GL226390  14.880  30.993   9.181
 1889POPC   C1A26391  14.869  30.584   8.777
 1889POPC   D2A26392  14.777  30.413   8.314
 1889POPC   C3A26393  15.082  30.413   7.939
 1889POPC   C4A26394  15.094  30.445   7.451
 1889POPC   C1B26395  15.079  31.040   8.753
 1889POPC   C2B26396  15.141  30.796   8.371
 1889POPC   C3B26397  15.153  30.913   7.952
 1889POPC   C4B26398  14.944  31.221   7.736
 1890POPC   NC326399  42.559   8.876   9.338
 1890POPC   PO426400  42.243   9.338   9.719
 1890POPC   GL126401  42.134   9.333   9.246
 1890POPC   GL226402  42.416   9.307   8.997
 1890POPC   C1A26403  41.906   9.307   8.893
 1890POPC   D2A26404  42.028   9.077   8.591
 1890POPC   C3A26405  42.308   9.111   8.246
 1890POPC   C4A26406  42.187   9.015   7.838
 1890POPC   C1B26407  42.538   8.959   8.711
 1890POPC   C2B26408  42.286   8.646   8.539
 1890POPC   C3B26409  42.164   8.596   8.141
 1890POPC   C4B26410  42.035   8.446   7.783
 1891POPC   NC326411  41.284   5.129   9.475
 1891POPC   PO426412  41.896   4.844   9.486
 1891POPC   GL126413  41.659   4.997   9.147
 1891POPC   GL226414  41.631   5.367   9.181
 1891POPC   C1A26415  41.584   5.011   8.726
 1891POPC   D2A26416  41.896   4.990   8.441
 1891POPC   C3A26417  41.750   4.838   8.092
 1891POPC   C4A26418  41.491   4.907   7.767
 1891POPC   C1B26419  41.529   5.520   8.766
 1891POPC   C2B26420  41.684   5.465   8.405
 1891POPC   C3B26421  41.461   5.322   8.073
 1891POPC   C4B26422  41.591   5.385   7.671
 1892POPC   NC326423   4.750  14.188   9.426
 1892POPC   PO426424   4.918  14.786   9.337
 1892POPC   GL126425   5.113  14.501   9.098
 1892POPC   GL226426   5.203  14.788   8.896
 1892POPC   C1A26427   5.237  14.276   8.728
 1892POPC   D2A26428   5.339  14.509   8.364
 1892POPC   C3A26429   5.248  14.287   8.014
 1892POPC   C4A26430   5.307  14.310   7.612
 1892POPC   C1B26431   4.880  14.627   8.617
 1892POPC   C2B26432   4.874  14.579   8.179
 1892POPC   C3B26433   4.867  14.527   7.715
 1892POPC   C4B26434   4.925  14.685   7.246
 1893POPC   NC326435  32.557  35.189   9.898
 1893POPC   PO426436  32.006  35.297   9.520
 1893POPC   GL126437  32.013  35.270   9.091
 1893POPC   GL226438  31.832  34.959   9.118
 1893POPC   C1A26439  32.375  35.265   8.800
 1893POPC   D2A26440  32.455  35.553   8.471
 1893POPC   C3A26441  32.325  35.495   8.091
 1893POPC   C4A26442  32.402  35.668   7.769
 1893POPC   C1B26443  31.970  34.952   8.702
 1893POPC   C2B26444  32.011  35.274   8.427
 1893POPC   C3B26445  31.959  35.153   8.000
 1893POPC   C4B26446  31.932  34.816   7.698
 1894POPC   NC326447  24.335  26.485   9.362
 1894POPC   PO426448  24.662  25.925   9.436
 1894POPC   GL126449  24.612  26.127   9.075
 1894POPC   GL226450  24.258  26.062   9.095
 1894POPC   C1A26451  24.569  25.970   8.659
 1894POPC   D2A26452  24.492  26.146   8.269
 1894POPC   C3A26453  24.785  26.007   7.977
 1894POPC   C4A26454  24.736  25.778   7.640
 1894POPC   C1B26455  24.135  26.272   8.728
 1894POPC   C2B26456  23.974  26.127   8.336
 1894POPC   C3B26457  24.124  26.006   7.933
 1894POPC   C4B26458  24.291  26.390   7.805
 1895POPC   NC326459   3.068  26.714   9.558
 1895POPC   PO426460   2.431  27.012   9.576
 1895POPC   GL126461   2.756  26.944   9.227
 1895POPC   GL226462   2.651  26.591   9.177
 1895POPC   C1A26463   2.978  26.745   8.821
 1895POPC   D2A26464   2.803  26.730   8.392
 1895POPC   C3A26465   2.994  26.852   8.012
 1895POPC   C4A26466   2.988  27.061   7.593
 1895POPC   C1B26467   2.570  26.322   8.808
 1895POPC   C2B26468   2.580  26.223   8.380
 1895POPC   C3B26469   2.666  26.451   7.988
 1895POPC   C4B26470   2.551  26.568   7.585
 1896POPC   NC326471  29.101  42.514   9.558
 1896POPC   PO426472  29.436  41.938   9.386
 1896POPC   GL126473  29.155  42.249   9.121
 1896POPC   GL226474  29.195  42.652   9.095
 1896POPC   C1A26475  29.243  42.370   8.697
 1896POPC   D2A26476  29.560  42.367   8.447
 1896POPC   C3A26477  29.537  42.164   8.090
 1896POPC   C4A26478  29.249  42.177   7.792
 1896POPC   C1B26479  28.865  42.722   8.829
 1896POPC   C2B26480  28.892  42.649   8.396
 1896POPC   C3B26481  29.229  42.607   8.108
 1896POPC   C4B26482  29.130  42.669   7.702
 1897POPC   NC326483  14.611   9.038   9.584
 1897POPC   PO426484  14.331   8.447   9.613
 1897POPC   GL126485  14.248   8.779   9.326
 1897POPC   GL226486  14.546   8.672   9.206
 1897POPC   C1A26487  14.376   9.094   8.960
 1897POPC   D2A26488  14.553   9.227   8.547
 1897POPC   C3A26489  14.328   9.047   8.208
 1897POPC   C4A26490  14.381   9.113   7.777
 1897POPC   C1B26491  14.620   8.427   8.854
 1897POPC   C2B26492  14.493   8.529   8.436
 1897POPC   C3B26493  14.716   8.709   8.115
 1897POPC   C4B26494  14.750   8.767   7.708
 1898POPC   NC326495  14.055  16.870   9.523
 1898POPC   PO426496  14.575  16.427   9.587
 1898POPC   GL126497  14.548  16.763   9.258
 1898POPC   GL226498  14.304  17.032   9.132
 1898POPC   C1A26499  14.570  16.743   8.816
 1898POPC   D2A26500  14.279  16.688   8.490
 1898POPC   C3A26501  14.457  16.588   8.098
 1898POPC   C4A26502  14.373  16.392   7.727
 1898POPC   C1B26503  14.425  17.239   8.772
 1898POPC   C2B26504  14.222  17.234   8.432
 1898POPC   C3B26505  14.236  17.042   8.091
 1898POPC   C4B26506  14.469  16.946   7.723
 1899POPC   NC326507  26.661  19.780   9.819
 1899POPC   PO426508  27.136  19.881   9.377
 1899POPC   GL126509  26.870  19.936   9.100
 1899POPC   GL226510  26.741  20.283   9.129
 1899POPC   C1A26511  26.958  19.746   8.697
 1899POPC   D2A26512  27.217  19.788   8.322
 1899POPC   C3A26513  27.072  19.806   7.885
 1899POPC   C4A26514  26.743  19.795   7.551
 1899POPC   C1B26515  26.586  20.118   8.735
 1899POPC   C2B26516  26.631  19.882   8.339
 1899POPC   C3B26517  26.423  19.907   7.972
 1899POPC   C4B26518  26.468  20.239   7.690
 1900POPC   NC326519  25.173  19.453  10.007
 1900POPC   PO426520  25.550  19.158   9.600
 1900POPC   GL126521  25.552  19.157   9.106
 1900POPC   GL226522  25.811  19.403   9.021
 1900POPC   C1A26523  25.325  18.879   8.753
 1900POPC   D2A26524  25.061  18.731   8.378
 1900POPC   C3A26525  25.252  18.794   7.961
 1900POPC   C4A26526  25.147  19.016   7.573
 1900POPC   C1B26527  25.735  19.187   8.625
 1900POPC   C2B26528  25.497  19.141   8.250
 1900POPC   C3B26529  25.530  19.278   7.831
 1900POPC   C4B26530  25.470  19.649   7.557
 1901POPC   NC326531   6.061   1.869   9.568
 1901POPC   PO426532   5.634   2.362   9.729
 1901POPC   GL126533   5.700   2.357   9.266
 1901POPC   GL226534   6.071   2.285   9.147
 1901POPC   C1A26535   5.570   2.383   8.805
 1901POPC   D2A26536   5.576   2.042   8.482
 1901POPC   C3A26537   5.635   2.018   8.033
 1901POPC   C4A26538   5.789   1.700   7.726
 1901POPC   C1B26539   6.119   2.289   8.653
 1901POPC   C2B26540   6.115   2.058   8.223
 1901POPC   C3B26541   6.074   2.149   7.743
 1901POPC   C4B26542   6.142   2.367   7.320
 1902POPC   NC326543  12.026  24.837   9.338
 1902POPC   PO426544  11.764  25.353   9.700
 1902POPC   GL126545  11.952  25.350   9.203
 1902POPC   GL226546  12.222  25.236   9.103
 1902POPC   C1A26547  11.947  25.087   8.737
 1902POPC   D2A26548  11.889  25.331   8.388
 1902POPC   C3A26549  12.001  25.186   7.983
 1902POPC   C4A26550  11.945  25.549   7.738
 1902POPC   C1B26551  12.374  25.373   8.732
 1902POPC   C2B26552  12.401  25.255   8.325
 1902POPC   C3B26553  12.435  25.453   7.935
 1902POPC   C4B26554  12.345  25.322   7.519
 1903POPC   NC326555  30.153  25.673   9.473
 1903POPC   PO426556  29.807  26.264   9.618
 1903POPC   GL126557  29.881  26.039   9.232
 1903POPC   GL226558  29.713  25.741   9.168
 1903POPC   C1A26559  30.114  26.060   8.849
 1903POPC   D2A26560  30.251  26.251   8.492
 1903POPC   C3A26561  30.300  25.989   8.144
 1903POPC   C4A26562  30.146  26.123   7.751
 1903POPC   C1B26563  29.626  25.845   8.780
 1903POPC   C2B26564  29.867  25.871   8.435
 1903POPC   C3B26565  29.750  25.992   8.054
 1903POPC   C4B26566  29.439  25.768   7.836
 1904POPC   NC326567  20.682  16.438   9.587
 1904POPC   PO426568  20.309  16.931   9.695
 1904POPC   GL126569  20.468  16.893   9.274
 1904POPC   GL226570  20.166  16.966   9.147
 1904POPC   C1A26571  20.798  16.893   8.962
 1904POPC   D2A26572  21.010  16.761   8.549
 1904POPC   C3A26573  20.715  16.593   8.210
 1904POPC   C4A26574  20.613  16.800   7.821
 1904POPC   C1B26575  20.328  17.035   8.738
 1904POPC   C2B26576  20.375  16.978   8.300
 1904POPC   C3B26577  20.148  16.768   7.978
 1904POPC   C4B26578  20.189  16.817   7.522
 1905POPC   NC326579  13.418  12.891   9.542
 1905POPC   PO426580  14.059  12.629   9.461
 1905POPC   GL126581  13.762  12.829   9.134
 1905POPC   GL226582  13.430  12.886   9.045
 1905POPC   C1A26583  13.783  13.025   8.704
 1905POPC   D2A26584  13.643  13.207   8.320
 1905POPC   C3A26585  13.523  12.936   8.055
 1905POPC   C4A26586  13.411  12.906   7.643
 1905POPC   C1B26587  13.469  12.564   8.717
 1905POPC   C2B26588  13.552  12.430   8.271
 1905POPC   C3B26589  13.283  12.511   7.912
 1905POPC   C4B26590  13.216  12.484   7.444
 1906POPC   NC326591  17.042  15.455   9.536
 1906POPC   PO426592  16.468  15.071   9.560
 1906POPC   GL126593  16.685  15.230   9.233
 1906POPC   GL226594  16.959  15.031   9.205
 1906POPC   C1A26595  16.734  15.392   8.833
 1906POPC   D2A26596  16.463  15.569   8.557
 1906POPC   C3A26597  16.551  15.398   8.146
 1906POPC   C4A26598  16.686  15.538   7.735
 1906POPC   C1B26599  16.723  14.876   8.849
 1906POPC   C2B26600  16.808  14.914   8.427
 1906POPC   C3B26601  16.655  14.872   8.018
 1906POPC   C4B26602  16.781  15.030   7.628
 1907POPC   NC326603   0.599  39.476   9.436
 1907POPC   PO426604   0.107  39.131   9.589
 1907POPC   GL126605   0.224  39.060   9.180
 1907POPC   GL226606   0.543  39.168   9.034
 1907POPC   C1A26607   0.229  38.824   8.784
 1907POPC   D2A26608   0.510  39.046   8.500
 1907POPC   C3A26609   0.665  38.935   8.125
 1907POPC   C4A26610   0.685  39.047   7.697
 1907POPC   C1B26611   0.185  39.334   8.777
 1907POPC   C2B26612  44.973  39.160   8.451
 1907POPC   C3B26613   0.148  39.053   8.058
 1907POPC   C4B26614   0.227  39.324   7.732
 1908POPC   NC326615   0.363   4.680   9.835
 1908POPC   PO426616   0.549   5.276   9.468
 1908POPC   GL126617   0.327   5.122   9.144
 1908POPC   GL226618   0.300   4.768   9.192
 1908POPC   C1A26619   0.376   5.345   8.782
 1908POPC   D2A26620   0.654   5.263   8.497
 1908POPC   C3A26621   0.505   5.132   8.142
 1908POPC   C4A26622   0.679   4.871   7.836
 1908POPC   C1B26623   0.418   4.815   8.710
 1908POPC   C2B26624   0.374   4.650   8.258
 1908POPC   C3B26625   0.169   4.871   7.877
 1908POPC   C4B26626   0.126   5.264   7.723
 1909POPC   NC326627  30.380  11.248   9.577
 1909POPC   PO426628  31.023  11.127   9.544
 1909POPC   GL126629  30.744  11.037   9.210
 1909POPC   GL226630  30.473  10.805   9.277
 1909POPC   C1A26631  30.867  11.065   8.789
 1909POPC   D2A26632  30.755  11.405   8.537
 1909POPC   C3A26633  30.708  11.350   8.081
 1909POPC   C4A26634  30.891  11.650   7.818
 1909POPC   C1B26635  30.347  10.996   8.874
 1909POPC   C2B26636  30.497  10.975   8.436
 1909POPC   C3B26637  30.339  10.993   8.031
 1909POPC   C4B26638  30.543  11.051   7.640
 1910POPC   NC326639  25.798  26.899   9.296
 1910POPC   PO426640  25.319  27.189   9.249
 1910POPC   GL126641  25.271  26.810   9.066
 1910POPC   GL226642  25.550  26.581   8.964
 1910POPC   C1A26643  25.110  26.680   8.706
 1910POPC   D2A26644  25.343  26.700   8.350
 1910POPC   C3A26645  25.075  26.824   8.085
 1910POPC   C4A26646  25.068  27.006   7.718
 1910POPC   C1B26647  25.600  26.976   8.699
 1910POPC   C2B26648  25.551  27.285   8.400
 1910POPC   C3B26649  25.536  27.078   8.002
 1910POPC   C4B26650  25.596  27.085   7.582
 1911POPC   NC326651  11.887  32.224   9.458
 1911POPC   PO426652  12.291  31.613   9.408
 1911POPC   GL126653  12.150  31.955   9.110
 1911POPC   GL226654  12.301  32.242   9.058
 1911POPC   C1A26655  11.895  32.124   8.739
 1911POPC   D2A26656  11.659  32.115   8.332
 1911POPC   C3A26657  11.895  32.064   7.912
 1911POPC   C4A26658  12.349  32.020   7.725
 1911POPC   C1B26659  12.214  32.522   8.767
 1911POPC   C2B26660  12.335  32.570   8.398
 1911POPC   C3B26661  12.232  32.409   8.054
 1911POPC   C4B26662  12.141  32.491   7.660
 1912POPC   NC326663   3.266  39.384   9.482
 1912POPC   PO426664   2.705  39.020   9.685
 1912POPC   GL126665   2.752  39.061   9.251
 1912POPC   GL226666   3.040  38.883   9.233
 1912POPC   C1A26667   2.679  39.246   8.830
 1912POPC   D2A26668   2.507  39.501   8.473
 1912POPC   C3A26669   2.541  39.306   8.070
 1912POPC   C4A26670   2.815  39.424   7.694
 1912POPC   C1B26671   3.151  39.017   8.845
 1912POPC   C2B26672   2.938  38.970   8.441
 1912POPC   C3B26673   3.003  39.100   8.037
 1912POPC   C4B26674   2.902  38.929   7.635
 1913POPC   NC326675  42.014   4.142   9.550
 1913POPC   PO426676  42.582   4.501   9.584
 1913POPC   GL126677  42.302   4.472   9.238
 1913POPC   GL226678  42.191   4.794   9.075
 1913POPC   C1A26679  42.253   4.125   8.930
 1913POPC   D2A26680  42.240   3.980   8.500
 1913POPC   C3A26681  42.341   4.209   8.149
 1913POPC   C4A26682  42.212   4.119   7.742
 1913POPC   C1B26683  42.418   4.558   8.745
 1913POPC   C2B26684  42.708   4.455   8.427
 1913POPC   C3B26685  42.691   4.578   8.024
 1913POPC   C4B26686  42.253   4.626   7.843
 1914POPC   NC326687  22.856  44.371   9.540
 1914POPC   PO426688  22.282  44.762   9.547
 1914POPC   GL126689  22.665  44.692   9.203
 1914POPC   GL226690  22.997  44.563   9.107
 1914POPC   C1A26691  22.613  44.565   8.776
 1914POPC   D2A26692  22.927  44.508   8.498
 1914POPC   C3A26693  22.831  44.660   8.103
 1914POPC   C4A26694  22.794  44.446   7.703
 1914POPC   C1B26695  23.239  44.251   8.910
 1914POPC   C2B26696  23.360  44.246   8.509
 1914POPC   C3B26697  23.306  44.482   8.121
 1914POPC   C4B26698  23.295  44.289   7.721
 1915POPC   NC326699  33.816  38.160   9.515
 1915POPC   PO426700  33.448  38.724   9.489
 1915POPC   GL126701  33.760  38.570   9.175
 1915POPC   GL226702  33.995  38.283   9.068
 1915POPC   C1A26703  33.596  38.439   8.777
 1915POPC   D2A26704  33.436  38.648   8.417
 1915POPC   C3A26705  33.708  38.563   8.046
 1915POPC   C4A26706  33.984  38.742   7.769
 1915POPC   C1B26707  34.216  38.104   8.729
 1915POPC   C2B26708  34.223  38.234   8.293
 1915POPC   C3B26709  34.060  38.132   7.876
 1915POPC   C4B26710  34.224  37.879   7.510
 1916POPC   NC326711  39.440  18.931   9.492
 1916POPC   PO426712  38.892  19.309   9.518
 1916POPC   GL126713  39.221  19.312   9.161
 1916POPC   GL226714  39.551  19.102   9.040
 1916POPC   C1A26715  39.166  19.171   8.728
 1916POPC   D2A26716  39.230  19.023   8.315
 1916POPC   C3A26717  39.274  19.316   8.007
 1916POPC   C4A26718  38.982  19.273   7.721
 1916POPC   C1B26719  39.793  18.730   8.851
 1916POPC   C2B26720  39.766  18.518   8.446
 1916POPC   C3B26721  39.446  18.571   8.140
 1916POPC   C4B26722  39.308  18.854   7.811
 1917POPC   NC326723   0.923  18.292   9.360
 1917POPC   PO426724   1.677  18.342   9.522
 1917POPC   GL126725   1.444  18.516   9.208
 1917POPC   GL226726   1.378  18.186   9.131
 1917POPC   C1A26727   1.369  18.607   8.769
 1917POPC   D2A26728   1.251  18.417   8.377
 1917POPC   C3A26729   1.195  18.549   7.964
 1917POPC   C4A26730   0.959  18.245   7.720
 1917POPC   C1B26731   1.290  18.067   8.740
 1917POPC   C2B26732   1.459  17.925   8.349
 1917POPC   C3B26733   1.309  17.869   7.918
 1917POPC   C4B26734   1.494  17.723   7.528
 1918POPC   NC326735  42.370  37.471   9.609
 1918POPC   PO426736  41.990  38.101   9.554
 1918POPC   GL126737  42.122  37.782   9.226
 1918POPC   GL226738  42.466  37.818   9.201
 1918POPC   C1A26739  42.265  37.544   8.828
 1918POPC   D2A26740  42.434  37.686   8.428
 1918POPC   C3A26741  42.263  37.555   8.030
 1918POPC   C4A26742  42.555  37.424   7.696
 1918POPC   C1B26743  42.742  37.830   8.825
 1918POPC   C2B26744  42.829  38.005   8.398
 1918POPC   C3B26745  42.732  37.838   7.974
 1918POPC   C4B26746  42.719  37.867   7.496
 1919POPC   NC326747  25.988   7.183   9.805
 1919POPC   PO426748  25.983   7.741   9.554
 1919POPC   GL126749  25.840   7.509   9.206
 1919POPC   GL226750  26.025   7.209   9.257
 1919POPC   C1A26751  25.804   7.253   8.802
 1919POPC   D2A26752  26.017   7.163   8.417
 1919POPC   C3A26753  25.846   7.283   8.017
 1919POPC   C4A26754  25.988   7.334   7.597
 1919POPC   C1B26755  26.277   7.408   8.857
 1919POPC   C2B26756  26.500   7.324   8.428
 1919POPC   C3B26757  26.357   7.338   7.990
 1919POPC   C4B26758  26.412   7.036   7.618
 1920POPC   NC326759   8.335  40.917   9.624
 1920POPC   PO426760   7.737  40.527   9.549
 1920POPC   GL126761   8.106  40.491   9.242
 1920POPC   GL226762   8.262  40.807   9.138
 1920POPC   C1A26763   8.250  40.431   8.784
 1920POPC   D2A26764   8.025  40.398   8.371
 1920POPC   C3A26765   8.117  40.580   7.987
 1920POPC   C4A26766   8.435  40.515   7.704
 1920POPC   C1B26767   8.326  41.054   8.770
 1920POPC   C2B26768   8.182  41.032   8.339
 1920POPC   C3B26769   8.354  41.040   7.936
 1920POPC   C4B26770   8.736  40.923   7.725
 1921POPC   NC326771  30.663  36.733   9.619
 1921POPC   PO426772  30.971  37.362   9.627
 1921POPC   GL126773  30.806  37.081   9.281
 1921POPC   GL226774  30.889  36.772   9.112
 1921POPC   C1A26775  30.574  37.143   8.905
 1921POPC   D2A26776  30.331  37.054   8.542
 1921POPC   C3A26777  30.545  37.194   8.166
 1921POPC   C4A26778  30.841  37.082   7.850
 1921POPC   C1B26779  31.073  36.534   8.757
 1921POPC   C2B26780  30.857  36.388   8.354
 1921POPC   C3B26781  30.665  36.620   7.999
 1921POPC   C4B26782  30.906  36.512   7.636
 1922POPC   NC326783  19.427  17.700   9.510
 1922POPC   PO426784  19.926  17.342   9.390
 1922POPC   GL126785  19.753  17.469   9.052
 1922POPC   GL226786  19.703  17.818   9.109
 1922POPC   C1A26787  19.863  17.506   8.635
 1922POPC   D2A26788  19.656  17.483   8.276
 1922POPC   C3A26789  19.797  17.695   7.927
 1922POPC   C4A26790  19.834  17.493   7.555
 1922POPC   C1B26791  19.444  17.762   8.766
 1922POPC   C2B26792  19.428  17.909   8.366
 1922POPC   C3B26793  19.321  17.814   7.962
 1922POPC   C4B26794  19.374  17.716   7.534
 1923POPC   NC326795  13.136   2.503   9.365
 1923POPC   PO426796  13.712   2.872   9.421
 1923POPC   GL126797  13.869   2.642   9.077
 1923POPC   GL226798  13.525   2.517   9.004
 1923POPC   C1A26799  14.045   2.813   8.669
 1923POPC   D2A26800  13.976   2.851   8.216
 1923POPC   C3A26801  13.690   2.694   7.908
 1923POPC   C4A26802  13.441   2.955   7.648
 1923POPC   C1B26803  13.555   2.900   8.756
 1923POPC   C2B26804  13.451   3.079   8.360
 1923POPC   C3B26805  13.182   2.854   8.080
 1923POPC   C4B26806  13.195   2.488   7.822
 1924POPC   NC326807  41.938  20.678   9.407
 1924POPC   PO426808  41.311  21.010   9.456
 1924POPC   GL126809  41.517  20.778   9.125
 1924POPC   GL226810  41.839  20.955   8.969
 1924POPC   C1A26811  41.473  20.634   8.707
 1924POPC   D2A26812  41.693  20.857   8.384
 1924POPC   C3A26813  41.596  20.807   7.962
 1924POPC   C4A26814  41.613  20.767   7.514
 1924POPC   C1B26815  42.013  20.616   8.739
 1924POPC   C2B26816  41.846  20.375   8.454
 1924POPC   C3B26817  41.969  20.465   8.067
 1924POPC   C4B26818  41.774  20.329   7.691
 1925POPC   NC326819  39.329  42.371   9.889
 1925POPC   PO426820  39.107  42.084   9.231
 1925POPC   GL126821  39.262  42.374   8.985
 1925POPC   GL226822  39.527  42.140   8.920
 1925POPC   C1A26823  39.269  42.482   8.563
 1925POPC   D2A26824  39.127  42.580   8.192
 1925POPC   C3A26825  39.218  42.298   7.858
 1925POPC   C4A26826  39.127  42.477   7.398
 1925POPC   C1B26827  39.679  42.212   8.580
 1925POPC   C2B26828  39.622  42.190   8.184
 1925POPC   C3B26829  39.705  42.029   7.791
 1925POPC   C4B26830  39.444  42.086   7.455
 1926POPC   NC326831  39.749  10.904   9.507
 1926POPC   PO426832  40.033  11.548   9.537
 1926POPC   GL126833  39.857  11.505   9.124
 1926POPC   GL226834  39.964  11.138   9.104
 1926POPC   C1A26835  39.925  11.408   8.673
 1926POPC   D2A26836  39.954  11.128   8.318
 1926POPC   C3A26837  39.944  11.364   7.952
 1926POPC   C4A26838  40.134  11.379   7.564
 1926POPC   C1B26839  39.720  10.928   8.773
 1926POPC   C2B26840  39.470  10.992   8.401
 1926POPC   C3B26841  39.555  11.044   7.935
 1926POPC   C4B26842  39.873  10.957   7.651
 1927POPC   NC326843  20.129  26.031   9.530
 1927POPC   PO426844  19.521  25.698   9.589
 1927POPC   GL126845  19.699  25.913   9.245
 1927POPC   GL226846  19.936  25.648   9.125
 1927POPC   C1A26847  19.862  26.126   8.875
 1927POPC   D2A26848  19.947  26.168   8.440
 1927POPC   C3A26849  20.116  26.194   8.029
 1927POPC   C4A26850  19.881  26.140   7.627
 1927POPC   C1B26851  19.549  25.678   8.830
 1927POPC   C2B26852  19.476  25.927   8.454
 1927POPC   C3B26853  19.611  25.842   8.047
 1927POPC   C4B26854  19.538  25.759   7.642
 1928POPC   NC326855  25.994  21.703   9.685
 1928POPC   PO426856  26.126  21.080   9.559
 1928POPC   GL126857  26.168  21.129   9.137
 1928POPC   GL226858  26.142  21.522   9.135
 1928POPC   C1A26859  26.076  21.240   8.713
 1928POPC   D2A26860  25.890  21.538   8.431
 1928POPC   C3A26861  25.967  21.329   8.068
 1928POPC   C4A26862  25.805  21.412   7.644
 1928POPC   C1B26863  26.305  21.692   8.727
 1928POPC   C2B26864  26.371  21.647   8.268
 1928POPC   C3B26865  26.110  21.773   7.903
 1928POPC   C4B26866  26.163  21.705   7.461
 1929POPC   NC326867  17.318   1.558   9.568
 1929POPC   PO426868  17.704   0.989   9.577
 1929POPC   GL126869  17.546   1.215   9.229
 1929POPC   GL226870  17.393   0.936   9.113
 1929POPC   C1A26871  17.520   1.357   8.788
 1929POPC   D2A26872  17.755   1.364   8.389
 1929POPC   C3A26873  17.515   1.494   8.037
 1929POPC   C4A26874  17.463   1.316   7.603
 1929POPC   C1B26875  17.246   0.952   8.720
 1929POPC   C2B26876  17.249   1.140   8.318
 1929POPC   C3B26877  17.370   0.951   7.946
 1929POPC   C4B26878  17.189   0.909   7.521
 1930POPC   NC326879   1.551  39.540   9.431
 1930POPC   PO426880   0.960  39.154   9.546
 1930POPC   GL126881   1.048  39.306   9.149
 1930POPC   GL226882   1.399  39.233   9.067
 1930POPC   C1A26883   0.929  39.275   8.720
 1930POPC   D2A26884   1.207  39.315   8.398
 1930POPC   C3A26885   0.990  39.314   8.019
 1930POPC   C4A26886   1.079  39.367   7.568
 1930POPC   C1B26887   1.600  39.447   8.718
 1930POPC   C2B26888   1.561  39.657   8.300
 1930POPC   C3B26889   1.494  39.360   7.974
 1930POPC   C4B26890   1.742  39.040   7.796
 1931POPC   NC326891  16.723  20.565   9.587
 1931POPC   PO426892  16.123  20.395   9.804
 1931POPC   GL126893  16.292  20.596   9.335
 1931POPC   GL226894  16.257  20.389   9.140
 1931POPC   C1A26895  16.588  20.698   8.940
 1931POPC   D2A26896  16.820  20.521   8.564
 1931POPC   C3A26897  16.723  20.567   8.136
 1931POPC   C4A26898  16.762  20.793   7.744
 1931POPC   C1B26899  16.380  20.277   8.750
 1931POPC   C2B26900  16.502  20.150   8.381
 1931POPC   C3B26901  16.424  20.165   8.003
 1931POPC   C4B26902  16.401  20.425   7.717
 1932POPC   NC326903  37.874  19.713   9.437
 1932POPC   PO426904  37.217  20.028   9.534
 1932POPC   GL126905  37.574  20.053   9.213
 1932POPC   GL226906  37.589  19.702   9.021
 1932POPC   C1A26907  37.864  20.084   8.840
 1932POPC   D2A26908  37.691  19.848   8.502
 1932POPC   C3A26909  37.848  19.921   8.127
 1932POPC   C4A26910  37.606  19.959   7.780
 1932POPC   C1B26911  37.990  19.569   8.799
 1932POPC   C2B26912  37.951  19.426   8.379
 1932POPC   C3B26913  38.091  19.485   7.988
 1932POPC   C4B26914  37.945  19.621   7.594
 1933POPC   NC326915   6.912  31.024   9.454
 1933POPC   PO426916   6.258  30.689   9.510
 1933POPC   GL126917   6.489  30.750   9.154
 1933POPC   GL226918   6.223  30.939   9.022
 1933POPC   C1A26919   6.734  30.632   8.777
 1933POPC   D2A26920   6.648  30.440   8.377
 1933POPC   C3A26921   6.781  30.604   7.971
 1933POPC   C4A26922   6.734  30.493   7.536
 1933POPC   C1B26923   6.211  31.096   8.633
 1933POPC   C2B26924   6.406  30.882   8.265
 1933POPC   C3B26925   6.302  30.749   7.844
 1933POPC   C4B26926   6.438  30.910   7.427
 1934POPC   NC326927  35.869   6.323   9.639
 1934POPC   PO426928  36.128   6.869   9.523
 1934POPC   GL126929  36.097   6.627   9.160
 1934POPC   GL226930  36.407   6.799   9.079
 1934POPC   C1A26931  36.043   6.640   8.698
 1934POPC   D2A26932  35.890   6.806   8.273
 1934POPC   C3A26933  36.018   6.494   7.941
 1934POPC   C4A26934  35.864   6.476   7.492
 1934POPC   C1B26935  36.359   7.048   8.754
 1934POPC   C2B26936  36.398   6.881   8.357
 1934POPC   C3B26937  36.272   6.961   7.953
 1934POPC   C4B26938  36.306   6.726   7.563
 1935POPC   NC326939  30.322  43.546   9.251
 1935POPC   PO426940  30.834  43.079   9.459
 1935POPC   GL126941  30.893  42.925   9.074
 1935POPC   GL226942  30.978  43.254   8.976
 1935POPC   C1A26943  30.999  42.904   8.619
 1935POPC   D2A26944  30.728  42.972   8.251
 1935POPC   C3A26945  30.892  42.978   7.815
 1935POPC   C4A26946  30.916  42.902   7.372
 1935POPC   C1B26947  30.550  43.148   8.762
 1935POPC   C2B26948  30.353  43.374   8.409
 1935POPC   C3B26949  30.398  43.265   7.975
 1935POPC   C4B26950  30.300  43.482   7.634
 1936POPC   NC326951  34.863  15.016   9.509
 1936POPC   PO426952  34.635  14.331   9.438
 1936POPC   GL126953  34.614  14.461   9.077
 1936POPC   GL226954  34.809  14.738   9.090
 1936POPC   C1A26955  34.677  14.294   8.691
 1936POPC   D2A26956  34.461  14.337   8.340
 1936POPC   C3A26957  34.573  14.261   7.934
 1936POPC   C4A26958  34.294  14.445   7.622
 1936POPC   C1B26959  35.049  14.650   8.731
 1936POPC   C2B26960  35.050  14.444   8.336
 1936POPC   C3B26961  34.937  14.622   7.935
 1936POPC   C4B26962  34.800  14.517   7.508
 1937POPC   NC326963  36.609  32.271   9.518
 1937POPC   PO426964  37.192  31.957   9.500
 1937POPC   GL126965  36.879  31.978   9.184
 1937POPC   GL226966  37.071  32.242   9.019
 1937POPC   C1A26967  36.854  31.860   8.743
 1937POPC   D2A26968  37.074  32.143   8.461
 1937POPC   C3A26969  36.875  32.169   8.063
 1937POPC   C4A26970  36.724  32.017   7.665
 1937POPC   C1B26971  37.232  32.588   8.745
 1937POPC   C2B26972  37.437  32.732   8.350
 1937POPC   C3B26973  37.357  32.692   7.884
 1937POPC   C4B26974  36.931  32.559   7.739
 1938POPC   NC326975  30.938   5.315   9.631
 1938POPC   PO426976  30.476   4.987   9.310
 1938POPC   GL126977  30.807   4.983   9.089
 1938POPC   GL226978  30.881   5.338   9.107
 1938POPC   C1A26979  30.748   4.903   8.657
 1938POPC   D2A26980  30.420   4.790   8.361
 1938POPC   C3A26981  30.598   4.849   7.939
 1938POPC   C4A26982  30.668   5.065   7.491
 1938POPC   C1B26983  30.834   5.389   8.678
 1938POPC   C2B26984  30.678   5.257   8.298
 1938POPC   C3B26985  30.616   5.369   7.901
 1938POPC   C4B26986  31.019   5.404   7.690
 1939POPC   NC326987  42.204  29.276   9.511
 1939POPC   PO426988  42.043  28.655   9.526
 1939POPC   GL126989  42.256  28.909   9.192
 1939POPC   GL226990  42.586  29.131   9.195
 1939POPC   C1A26991  42.194  29.077   8.815
 1939POPC   D2A26992  42.428  29.099   8.418
 1939POPC   C3A26993  42.185  29.052   7.998
 1939POPC   C4A26994  42.078  29.376   7.650
 1939POPC   C1B26995  42.702  28.872   8.821
 1939POPC   C2B26996  42.930  28.933   8.413
 1939POPC   C3B26997  42.701  28.963   8.019
 1939POPC   C4B26998  42.538  29.162   7.648
 1940POPC   NC326999  32.528  33.222   9.300
 1940POPC   PO427000  33.118  33.052   9.574
 1940POPC   GL127001  33.000  32.898   9.151
 1940POPC   GL227002  33.298  32.858   8.939
 1940POPC   C1A27003  32.848  33.020   8.756
 1940POPC   D2A27004  33.009  33.349   8.505
 1940POPC   C3A27005  33.006  33.158   8.110
 1940POPC   C4A27006  32.786  33.038   7.738
 1940POPC   C1B27007  33.414  33.080   8.622
 1940POPC   C2B27008  33.478  32.988   8.235
 1940POPC   C3B27009  33.426  32.965   7.845
 1940POPC   C4B27010  33.205  33.302   7.648
 1941POPC   NC327011  13.334   4.345   9.350
 1941POPC   PO427012  12.733   4.430   9.620
 1941POPC   GL127013  12.845   4.363   9.220
 1941POPC   GL227014  12.990   4.714   9.236
 1941POPC   C1A27015  12.652   4.160   8.863
 1941POPC   D2A27016  12.436   4.083   8.478
 1941POPC   C3A27017  12.682   4.105   8.112
 1941POPC   C4A27018  12.869   4.178   7.716
 1941POPC   C1B27019  12.744   4.689   8.856
 1941POPC   C2B27020  12.814   4.470   8.475
 1941POPC   C3B27021  12.769   4.618   8.068
 1941POPC   C4B27022  12.996   4.657   7.719
 1942POPC   NC327023  26.777   9.348   9.398
 1942POPC   PO427024  27.154   9.826   9.538
 1942POPC   GL127025  27.043   9.699   9.123
 1942POPC   GL227026  27.170   9.399   9.030
 1942POPC   C1A27027  26.758   9.698   8.752
 1942POPC   D2A27028  26.882   9.779   8.313
 1942POPC   C3A27029  26.663   9.920   7.945
 1942POPC   C4A27030  26.818   9.889   7.491
 1942POPC   C1B27031  26.914   9.218   8.672
 1942POPC   C2B27032  26.933   9.277   8.225
 1942POPC   C3B27033  26.897   9.483   7.840
 1942POPC   C4B27034  26.466   9.501   7.693
 1943POPC   NC327035  28.493  36.386   9.482
 1943POPC   PO427036  28.124  35.819   9.529
 1943POPC   GL127037  28.424  35.942   9.216
 1943POPC   GL227038  28.147  36.159   9.148
 1943POPC   C1A27039  28.514  36.150   8.800
 1943POPC   D2A27040  28.308  36.183   8.414
 1943POPC   C3A27041  28.581  36.166   8.050
 1943POPC   C4A27042  28.650  36.434   7.699
 1943POPC   C1B27043  27.939  36.057   8.773
 1943POPC   C2B27044  27.805  36.321   8.454
 1943POPC   C3B27045  27.937  36.274   8.071
 1943POPC   C4B27046  28.173  36.212   7.740
 1944POPC   NC327047  33.909  34.731   9.442
 1944POPC   PO427048  33.605  35.380   9.422
 1944POPC   GL127049  33.555  35.368   9.008
 1944POPC   GL227050  33.306  35.644   9.002
 1944POPC   C1A27051  33.886  35.272   8.671
 1944POPC   D2A27052  34.114  35.114   8.272
 1944POPC   C3A27053  34.023  35.385   7.917
 1944POPC   C4A27054  33.753  35.244   7.570
 1944POPC   C1B27055  33.416  35.591   8.576
 1944POPC   C2B27056  33.694  35.775   8.293
 1944POPC   C3B27057  33.638  35.744   7.858
 1944POPC   C4B27058  33.433  35.661   7.490
 1945POPC   NC327059  43.106  28.924   9.475
 1945POPC   PO427060  43.511  29.393   9.586
 1945POPC   GL127061  43.350  29.233   9.178
 1945POPC   GL227062  43.314  29.531   9.017
 1945POPC   C1A27063  43.471  29.091   8.750
 1945POPC   D2A27064  43.324  29.313   8.361
 1945POPC   C3A27065  43.183  29.100   7.959
 1945POPC   C4A27066  43.309  29.143   7.515
 1945POPC   C1B27067  42.993  29.300   8.785
 1945POPC   C2B27068  42.817  29.439   8.369
 1945POPC   C3B27069  42.858  29.472   7.916
 1945POPC   C4B27070  42.914  29.466   7.476
 1946POPC   NC327071  26.490  37.182   9.751
 1946POPC   PO427072  26.697  36.523   9.614
 1946POPC   GL127073  26.716  36.786   9.246
 1946POPC   GL227074  27.030  36.933   9.198
 1946POPC   C1A27075  26.593  36.665   8.827
 1946POPC   D2A27076  26.555  36.883   8.429
 1946POPC   C3A27077  26.817  36.670   8.172
 1946POPC   C4A27078  26.838  36.713   7.773
 1946POPC   C1B27079  26.812  37.113   8.834
 1946POPC   C2B27080  26.847  37.320   8.450
 1946POPC   C3B27081  26.955  37.150   8.039
 1946POPC   C4B27082  27.120  37.096   7.592
 1947POPC   NC327083  16.847  43.657   9.696
 1947POPC   PO427084  16.822  42.945   9.678
 1947POPC   GL127085  16.798  43.073   9.229
 1947POPC   GL227086  17.057  43.221   9.062
 1947POPC   C1A27087  16.781  42.874   8.830
 1947POPC   D2A27088  16.623  42.965   8.443
 1947POPC   C3A27089  16.802  42.766   8.091
 1947POPC   C4A27090  16.581  42.838   7.733
 1947POPC   C1B27091  16.936  43.315   8.659
 1947POPC   C2B27092  17.022  43.196   8.240
 1947POPC   C3B27093  16.892  43.235   7.826
 1947POPC   C4B27094  17.085  43.348   7.453
 1948POPC   NC327095  24.469  32.538   9.501
 1948POPC   PO427096  24.212  31.925   9.564
 1948POPC   GL127097  24.213  32.162   9.189
 1948POPC   GL227098  24.563  32.153   9.144
 1948POPC   C1A27099  24.245  32.248   8.746
 1948POPC   D2A27100  24.461  32.320   8.357
 1948POPC   C3A27101  24.270  32.298   7.961
 1948POPC   C4A27102  24.365  32.193   7.518
 1948POPC   C1B27103  24.779  32.292   8.763
 1948POPC   C2B27104  24.979  32.271   8.324
 1948POPC   C3B27105  24.776  32.218   7.913
 1948POPC   C4B27106  24.813  32.421   7.513
 1949POPC   NC327107   6.459  34.108   9.261
 1949POPC   PO427108   6.625  33.550   9.504
 1949POPC   GL127109   6.674  33.670   9.082
 1949POPC   GL227110   6.887  33.951   8.984
 1949POPC   C1A27111   6.460  33.512   8.718
 1949POPC   D2A27112   6.624  33.477   8.337
 1949POPC   C3A27113   6.595  33.747   7.988
 1949POPC   C4A27114   6.997  33.687   7.852
 1949POPC   C1B27115   6.608  33.995   8.642
 1949POPC   C2B27116   6.488  34.271   8.291
 1949POPC   C3B27117   6.489  34.236   7.886
 1949POPC   C4B27118   6.812  34.097   7.618
 1950POPC   NC327119  13.855  13.847   9.491
 1950POPC   PO427120  13.692  13.249   9.483
 1950POPC   GL127121  13.732  13.373   9.053
 1950POPC   GL227122  13.651  13.737   9.039
 1950POPC   C1A27123  13.858  13.544   8.632
 1950POPC   D2A27124  13.655  13.727   8.274
 1950POPC   C3A27125  13.893  13.633   7.910
 1950POPC   C4A27126  13.634  13.331   7.757
 1950POPC   C1B27127  13.355  13.815   8.690
 1950POPC   C2B27128  13.167  13.968   8.308
 1950POPC   C3B27129  13.246  13.817   7.887
 1950POPC   C4B27130  13.524  13.758   7.529
 1951POPC   NC327131  16.994   7.235   9.472
 1951POPC   PO427132  16.320   7.420   9.430
 1951POPC   GL127133  16.536   7.505   9.114
 1951POPC   GL227134  16.846   7.459   9.053
 1951POPC   C1A27135  16.491   7.657   8.737
 1951POPC   D2A27136  16.362   7.592   8.346
 1951POPC   C3A27137  16.695   7.431   8.125
 1951POPC   C4A27138  16.574   7.729   7.858
 1951POPC   C1B27139  17.088   7.151   8.816
 1951POPC   C2B27140  17.264   7.126   8.376
 1951POPC   C3B27141  17.146   7.160   7.924
 1951POPC   C4B27142  17.046   7.581   7.736
 1952POPC   NC327143  36.739  27.827   9.618
 1952POPC   PO427144  37.121  27.302   9.507
 1952POPC   GL127145  37.014  27.615   9.222
 1952POPC   GL227146  37.272  27.815   9.180
 1952POPC   C1A27147  37.025  27.567   8.771
 1952POPC   D2A27148  36.992  27.326   8.351
 1952POPC   C3A27149  36.999  27.561   7.966
 1952POPC   C4A27150  36.724  27.898   7.771
 1952POPC   C1B27151  37.399  27.939   8.777
 1952POPC   C2B27152  37.196  27.869   8.398
 1952POPC   C3B27153  37.146  28.062   8.033
 1952POPC   C4B27154  37.406  27.883   7.761
 1953POPC   NC327155  25.307  23.323   9.845
 1953POPC   PO427156  25.554  23.747   9.447
 1953POPC   GL127157  25.333  23.670   9.136
 1953POPC   GL227158  25.556  23.484   8.960
 1953POPC   C1A27159  25.143  23.690   8.770
 1953POPC   D2A27160  25.188  23.428   8.447
 1953POPC   C3A27161  25.237  23.650   8.106
 1953POPC   C4A27162  24.982  23.817   7.827
 1953POPC   C1B27163  25.624  23.690   8.628
 1953POPC   C2B27164  25.684  23.496   8.300
 1953POPC   C3B27165  25.746  23.637   7.931
 1953POPC   C4B27166  25.482  23.849   7.688
 1954POPC   NC327167  22.704  42.842   9.705
 1954POPC   PO427168  22.907  42.204   9.447
 1954POPC   GL127169  22.714  42.253   9.078
 1954POPC   GL227170  22.857  42.570   9.089
 1954POPC   C1A27171  22.646  42.338   8.653
 1954POPC   D2A27172  22.861  42.161   8.302
 1954POPC   C3A27173  22.701  42.141   7.908
 1954POPC   C4A27174  22.633  42.537   7.739
 1954POPC   C1B27175  23.143  42.400   8.777
 1954POPC   C2B27176  23.285  42.500   8.375
 1954POPC   C3B27177  23.086  42.514   7.983
 1954POPC   C4B27178  23.072  42.357   7.552
 1955POPC   NC327179   4.082  37.478   9.504
 1955POPC   PO427180   4.717  37.837   9.510
 1955POPC   GL127181   4.352  37.814   9.196
 1955POPC   GL227182   4.166  38.126   9.134
 1955POPC   C1A27183   4.344  37.574   8.793
 1955POPC   D2A27184   4.543  37.613   8.362
 1955POPC   C3A27185   4.233  37.581   7.998
 1955POPC   C4A27186   4.340  37.579   7.599
 1955POPC   C1B27187   4.384  38.130   8.736
 1955POPC   C2B27188   4.423  38.121   8.274
 1955POPC   C3B27189   4.421  38.018   7.844
 1955POPC   C4B27190   4.221  38.045   7.455
 1956POPC   NC327191   5.524  24.271   9.560
 1956POPC   PO427192   6.051  24.564   9.838
 1956POPC   GL127193   5.950  24.425   9.329
 1956POPC   GL227194   5.819  24.151   9.171
 1956POPC   C1A27195   5.755  24.573   8.901
 1956POPC   D2A27196   5.970  24.574   8.519
 1956POPC   C3A27197   5.848  24.607   8.096
 1956POPC   C4A27198   6.102  24.483   7.772
 1956POPC   C1B27199   5.719  24.067   8.763
 1956POPC   C2B27200   5.702  24.174   8.345
 1956POPC   C3B27201   5.840  24.068   7.941
 1956POPC   C4B27202   5.556  23.863   7.675
 1957POPC   NC327203  11.790  39.899   9.396
 1957POPC   PO427204  12.421  39.577   9.427
 1957POPC   GL127205  12.263  39.979   9.218
 1957POPC   GL227206  12.480  40.252   9.130
 1957POPC   C1A27207  12.073  40.025   8.819
 1957POPC   D2A27208  11.966  39.924   8.415
 1957POPC   C3A27209  12.057  40.206   8.099
 1957POPC   C4A27210  12.002  39.956   7.752
 1957POPC   C1B27211  12.575  39.921   8.806
 1957POPC   C2B27212  12.472  40.091   8.405
 1957POPC   C3B27213  12.435  39.844   8.069
 1957POPC   C4B27214  12.389  39.659   7.663
 1958POPC   NC327215  11.642   6.797   9.430
 1958POPC   PO427216  12.327   6.884   9.466
 1958POPC   GL127217  12.160   6.597   9.165
 1958POPC   GL227218  11.844   6.391   9.162
 1958POPC   C1A27219  12.108   6.770   8.754
 1958POPC   D2A27220  12.367   6.938   8.441
 1958POPC   C3A27221  12.362   6.650   8.121
 1958POPC   C4A27222  12.102   6.702   7.752
 1958POPC   C1B27223  11.688   6.463   8.724
 1958POPC   C2B27224  11.860   6.566   8.286
 1958POPC   C3B27225  11.645   6.523   7.847
 1958POPC   C4B27226  11.762   6.497   7.385
 1959POPC   NC327227  38.935  35.698   9.472
 1959POPC   PO427228  39.512  35.866   9.466
 1959POPC   GL127229  39.234  35.955   9.136
 1959POPC   GL227230  39.137  36.316   9.053
 1959POPC   C1A27231  39.397  36.005   8.746
 1959POPC   D2A27232  39.482  36.155   8.367
 1959POPC   C3A27233  39.337  35.957   8.015
 1959POPC   C4A27234  39.226  35.946   7.592
 1959POPC   C1B27235  38.896  36.165   8.689
 1959POPC   C2B27236  38.920  36.119   8.235
 1959POPC   C3B27237  38.952  36.300   7.856
 1959POPC   C4B27238  38.901  36.276   7.403
 1960POPC   NC327239  38.609  19.692   9.449
 1960POPC   PO427240  38.141  20.177   9.457
 1960POPC   GL127241  38.272  19.944   9.150
 1960POPC   GL227242  38.581  20.126   9.164
 1960POPC   C1A27243  38.455  19.785   8.795
 1960POPC   D2A27244  38.281  19.862   8.404
 1960POPC   C3A27245  38.542  19.623   8.167
 1960POPC   C4A27246  38.565  19.556   7.743
 1960POPC   C1B27247  38.821  20.192   8.837
 1960POPC   C2B27248  38.790  19.990   8.451
 1960POPC   C3B27249  38.749  20.042   8.015
 1960POPC   C4B27250  38.979  20.294   7.769
 1961POPC   NC327251  35.648  15.326   9.305
 1961POPC   PO427252  35.274  14.903   9.729
 1961POPC   GL127253  35.269  14.957   9.235
 1961POPC   GL227254  35.113  15.277   9.147
 1961POPC   C1A27255  35.402  15.005   8.786
 1961POPC   D2A27256  35.600  14.774   8.466
 1961POPC   C3A27257  35.295  14.904   8.198
 1961POPC   C4A27258  35.274  15.043   7.793
 1961POPC   C1B27259  35.181  15.477   8.751
 1961POPC   C2B27260  35.381  15.403   8.345
 1961POPC   C3B27261  35.458  15.549   7.911
 1961POPC   C4B27262  35.347  15.427   7.482
 1962POPC   NC327263   9.411  10.593   9.378
 1962POPC   PO427264   8.890  10.613   9.795
 1962POPC   GL127265   8.896  10.657   9.312
 1962POPC   GL227266   8.975  10.335   9.158
 1962POPC   C1A27267   9.045  10.745   8.856
 1962POPC   D2A27268   8.915  10.434   8.551
 1962POPC   C3A27269   8.813  10.475   8.118
 1962POPC   C4A27270   8.876  10.799   7.834
 1962POPC   C1B27271   9.323  10.287   8.811
 1962POPC   C2B27272   9.397  10.468   8.366
 1962POPC   C3B27273   9.303  10.411   7.917
 1962POPC   C4B27274   9.419  10.162   7.522
 1963POPC   NC327275  42.038   0.938   9.560
 1963POPC   PO427276  42.403   1.471   9.437
 1963POPC   GL127277  42.204   1.267   9.131
 1963POPC   GL227278  42.290   0.901   9.099
 1963POPC   C1A27279  42.120   1.184   8.716
 1963POPC   D2A27280  42.355   1.071   8.421
 1963POPC   C3A27281  42.204   1.056   8.010
 1963POPC   C4A27282  42.271   1.279   7.626
 1963POPC   C1B27283  42.584   0.730   8.767
 1963POPC   C2B27284  42.746   0.785   8.328
 1963POPC   C3B27285  42.575   0.709   7.944
 1963POPC   C4B27286  42.568   0.881   7.535
 1964POPC   NC327287  35.882  25.549   9.472
 1964POPC   PO427288  36.343  25.132   9.303
 1964POPC   GL127289  35.974  25.247   9.056
 1964POPC   GL227290  36.043  25.605   8.955
 1964POPC   C1A27291  35.813  25.275   8.620
 1964POPC   D2A27292  36.064  25.417   8.241
 1964POPC   C3A27293  35.887  25.220   7.895
 1964POPC   C4A27294  36.031  25.118   7.532
 1964POPC   C1B27295  36.319  25.319   8.681
 1964POPC   C2B27296  36.410  25.014   8.355
 1964POPC   C3B27297  36.400  25.072   7.930
 1964POPC   C4B27298  36.364  25.467   7.752
 1965POPC   NC327299  14.677  18.632   9.592
 1965POPC   PO427300  15.223  18.912   9.448
 1965POPC   GL127301  15.054  18.947   9.067
 1965POPC   GL227302  14.748  18.936   9.108
 1965POPC   C1A27303  14.994  18.865   8.642
 1965POPC   D2A27304  15.383  19.019   8.510
 1965POPC   C3A27305  15.440  19.057   8.104
 1965POPC   C4A27306  15.379  19.053   7.674
 1965POPC   C1B27307  14.841  19.320   8.794
 1965POPC   C2B27308  14.985  19.318   8.372
 1965POPC   C3B27309  14.940  19.019   8.039
 1965POPC   C4B27310  14.851  19.143   7.606
 1966POPC   NC327311  44.701   2.234   9.593
 1966POPC   PO427312  44.338   1.705   9.701
 1966POPC   GL127313  44.661   1.831   9.283
 1966POPC   GL227314  44.790   2.171   9.097
 1966POPC   C1A27315  44.700   1.775   8.796
 1966POPC   D2A27316  44.912   1.735   8.397
 1966POPC   C3A27317  44.734   2.007   8.083
 1966POPC   C4A27318  44.778   1.931   7.659
 1966POPC   C1B27319  44.734   2.419   8.671
 1966POPC   C2B27320  44.787   2.494   8.192
 1966POPC   C3B27321   0.071   2.335   7.806
 1966POPC   C4B27322   0.104   2.186   7.346
 1967POPC   NC327323  35.622  22.350   9.408
 1967POPC   PO427324  36.116  21.887   9.390
 1967POPC   GL127325  36.061  22.247   9.135
 1967POPC   GL227326  36.372  22.386   9.065
 1967POPC   C1A27327  35.861  22.219   8.747
 1967POPC   D2A27328  36.008  21.954   8.441
 1967POPC   C3A27329  36.300  22.018   8.141
 1967POPC   C4A27330  36.039  22.142   7.846
 1967POPC   C1B27331  36.385  22.274   8.626
 1967POPC   C2B27332  36.543  22.469   8.267
 1967POPC   C3B27333  36.374  22.549   7.867
 1967POPC   C4B27334  36.271  22.420   7.469
 1968POPC   NC327335  32.495  40.162   9.517
 1968POPC   PO427336  31.923  39.816   9.605
 1968POPC   GL127337  32.127  39.835   9.170
 1968POPC   GL227338  32.256  40.167   9.050
 1968POPC   C1A27339  32.319  39.742   8.742
 1968POPC   D2A27340  32.199  39.911   8.325
 1968POPC   C3A27341  32.432  39.984   7.941
 1968POPC   C4A27342  32.571  40.132   7.540
 1968POPC   C1B27343  32.413  40.328   8.636
 1968POPC   C2B27344  32.557  40.614   8.294
 1968POPC   C3B27345  32.558  40.556   7.866
 1968POPC   C4B27346  32.182  40.384   7.737
 1969POPC   NC327347  15.420  11.998   9.371
 1969POPC   PO427348  14.991  12.389   9.734
 1969POPC   GL127349  14.991  12.314   9.233
 1969POPC   GL227350  15.309  12.422   9.132
 1969POPC   C1A27351  15.109  12.088   8.767
 1969POPC   D2A27352  15.205  12.176   8.301
 1969POPC   C3A27353  14.947  11.912   7.987
 1969POPC   C4A27354  14.947  11.684   7.579
 1969POPC   C1B27355  15.281  12.566   8.741
 1969POPC   C2B27356  15.561  12.600   8.420
 1969POPC   C3B27357  15.514  12.504   7.999
 1969POPC   C4B27358  15.202  12.270   7.769
 1970POPC   NC327359  20.078  23.940   9.473
 1970POPC   PO427360  19.351  23.851   9.541
 1970POPC   GL127361  19.645  23.856   9.177
 1970POPC   GL227362  19.909  23.584   9.143
 1970POPC   C1A27363  19.615  23.752   8.746
 1970POPC   D2A27364  19.762  23.908   8.374
 1970POPC   C3A27365  19.549  23.825   8.084
 1970POPC   C4A27366  19.582  23.996   7.711
 1970POPC   C1B27367  20.130  23.815   8.825
 1970POPC   C2B27368  20.172  23.626   8.430
 1970POPC   C3B27369  19.994  23.601   8.013
 1970POPC   C4B27370  20.190  23.553   7.660
 1971POPC   NC327371  30.987  41.778   9.471
 1971POPC   PO427372  30.706  41.194   9.483
 1971POPC   GL127373  30.580  41.231   9.106
 1971POPC   GL227374  30.597  41.610   9.045
 1971POPC   C1A27375  30.737  41.256   8.710
 1971POPC   D2A27376  30.657  41.572   8.505
 1971POPC   C3A27377  30.635  41.436   8.139
 1971POPC   C4A27378  30.579  41.526   7.734
 1971POPC   C1B27379  30.964  41.801   8.837
 1971POPC   C2B27380  31.132  41.771   8.419
 1971POPC   C3B27381  30.999  41.735   7.995
 1971POPC   C4B27382  30.971  41.784   7.545
 1972POPC   NC327383  13.713  32.808   9.550
 1972POPC   PO427384  13.104  33.027   9.646
 1972POPC   GL127385  13.394  33.095   9.259
 1972POPC   GL227386  13.497  32.745   9.081
 1972POPC   C1A27387  13.586  33.172   8.837
 1972POPC   D2A27388  13.608  32.855   8.505
 1972POPC   C3A27389  13.456  33.001   8.108
 1972POPC   C4A27390  13.644  33.203   7.741
 1972POPC   C1B27391  13.948  32.783   8.869
 1972POPC   C2B27392  14.125  32.745   8.376
 1972POPC   C3B27393  13.950  32.754   7.924
 1972POPC   C4B27394  13.543  32.696   7.705
 1973POPC   NC327395  22.234  37.863   9.561
 1973POPC   PO427396  22.695  37.350   9.541
 1973POPC   GL127397  22.448  37.600   9.163
 1973POPC   GL227398  22.056  37.759   9.120
 1973POPC   C1A27399  22.249  37.502   8.759
 1973POPC   D2A27400  21.967  37.699   8.447
 1973POPC   C3A27401  21.841  37.532   8.053
 1973POPC   C4A27402  22.189  37.493   7.771
 1973POPC   C1B27403  21.886  38.046   8.814
 1973POPC   C2B27404  21.703  38.141   8.405
 1973POPC   C3B27405  21.923  38.241   8.040
 1973POPC   C4B27406  22.105  38.022   7.715
 1974POPC   NC327407   6.222  21.588   9.472
 1974POPC   PO427408   5.661  21.287   9.532
 1974POPC   GL127409   5.826  21.469   9.176
 1974POPC   GL227410   6.100  21.229   9.089
 1974POPC   C1A27411   5.677  21.350   8.777
 1974POPC   D2A27412   5.452  21.077   8.484
 1974POPC   C3A27413   5.755  21.043   8.165
 1974POPC   C4A27414   5.718  21.012   7.742
 1974POPC   C1B27415   6.182  21.562   8.787
 1974POPC   C2B27416   6.306  21.828   8.433
 1974POPC   C3B27417   6.262  21.858   7.969
 1974POPC   C4B27418   6.163  21.422   7.746
 1975POPC   NC327419  24.750  16.663   9.488
 1975POPC   PO427420  24.112  16.491   9.368
 1975POPC   GL127421  24.279  16.760   9.073
 1975POPC   GL227422  24.597  16.928   9.088
 1975POPC   C1A27423  24.587  16.651   8.679
 1975POPC   D2A27424  24.611  16.508   8.248
 1975POPC   C3A27425  24.387  16.687   7.909
 1975POPC   C4A27426  24.760  16.684   7.677
 1975POPC   C1B27427  24.341  17.089   8.719
 1975POPC   C2B27428  24.491  17.020   8.314
 1975POPC   C3B27429  24.618  17.153   7.935
 1975POPC   C4B27430  24.204  17.166   7.773
 1976POPC   NC327431  12.040   5.531   9.535
 1976POPC   PO427432  12.180   4.904   9.587
 1976POPC   GL127433  12.017   5.126   9.217
 1976POPC   GL227434  12.231   5.389   9.107
 1976POPC   C1A27435  12.144   5.026   8.782
 1976POPC   D2A27436  12.219   5.281   8.416
 1976POPC   C3A27437  12.181   5.001   8.079
 1976POPC   C4A27438  12.046   4.928   7.667
 1976POPC   C1B27439  11.858   5.459   8.808
 1976POPC   C2B27440  11.817   5.598   8.367
 1976POPC   C3B27441  11.878   5.390   7.972
 1976POPC   C4B27442  12.291   5.361   7.710
 1977POPC   NC327443  28.278  24.898   9.396
 1977POPC   PO427444  28.320  24.176   9.500
 1977POPC   GL127445  28.419  24.442   9.147
 1977POPC   GL227446  28.747  24.596   9.159
 1977POPC   C1A27447  28.295  24.576   8.718
 1977POPC   D2A27448  28.304  24.783   8.295
 1977POPC   C3A27449  28.237  24.499   7.980
 1977POPC   C4A27450  27.932  24.374   7.652
 1977POPC   C1B27451  28.770  24.346   8.766
 1977POPC   C2B27452  28.629  24.387   8.347
 1977POPC   C3B27453  28.768  24.520   7.945
 1977POPC   C4B27454  28.572  24.641   7.583
 1978POPC   NC327455  40.752  38.256   9.498
 1978POPC   PO427456  40.477  38.929   9.476
 1978POPC   GL127457  40.456  38.558   9.169
 1978POPC   GL227458  40.477  38.161   9.081
 1978POPC   C1A27459  40.500  38.558   8.757
 1978POPC   D2A27460  40.752  38.499   8.424
 1978POPC   C3A27461  40.570  38.655   8.055
 1978POPC   C4A27462  40.393  38.836   7.663
 1978POPC   C1B27463  40.869  38.167   8.841
 1978POPC   C2B27464  40.910  37.989   8.453
 1978POPC   C3B27465  40.701  38.120   8.084
 1978POPC   C4B27466  40.948  38.393   7.833
 1979POPC   NC327467  15.796  22.166   9.667
 1979POPC   PO427468  16.352  21.822   9.676
 1979POPC   GL127469  16.302  22.146   9.286
 1979POPC   GL227470  15.968  22.272   9.149
 1979POPC   C1A27471  16.311  22.221   8.789
 1979POPC   D2A27472  16.342  22.091   8.351
 1979POPC   C3A27473  16.057  22.142   7.971
 1979POPC   C4A27474  15.834  22.441   7.690
 1979POPC   C1B27475  15.829  22.086   8.707
 1979POPC   C2B27476  15.593  22.070   8.317
 1979POPC   C3B27477  15.567  22.039   7.872
 1979POPC   C4B27478  15.391  22.198   7.470
 1980POPC   NC327479  23.142  11.102   9.451
 1980POPC   PO427480  23.806  11.149   9.394
 1980POPC   GL127481  23.695  11.501   9.115
 1980POPC   GL227482  23.342  11.539   9.160
 1980POPC   C1A27483  23.836  11.558   8.702
 1980POPC   D2A27484  23.941  11.262   8.361
 1980POPC   C3A27485  23.878  11.401   7.947
 1980POPC   C4A27486  23.796  11.047   7.739
 1980POPC   C1B27487  23.351  11.224   8.840
 1980POPC   C2B27488  23.437  11.348   8.451
 1980POPC   C3B27489  23.412  11.178   8.061
 1980POPC   C4B27490  23.284  11.221   7.653
 1981POPC   NC327491  19.183  24.317   9.727
 1981POPC   PO427492  19.795  24.285   9.425
 1981POPC   GL127493  19.968  24.329   9.091
 1981POPC   GL227494  19.757  24.626   9.025
 1981POPC   C1A27495  19.859  24.255   8.707
 1981POPC   D2A27496  19.874  24.458   8.316
 1981POPC   C3A27497  19.852  24.385   7.882
 1981POPC   C4A27498  19.543  24.564   7.607
 1981POPC   C1B27499  20.018  24.782   8.748
 1981POPC   C2B27500  19.876  24.958   8.378
 1981POPC   C3B27501  19.631  24.862   8.017
 1981POPC   C4B27502  19.973  24.866   7.704
 1982POPC   NC327503   4.249  15.730   9.608
 1982POPC   PO427504   4.695  16.313   9.485
 1982POPC   GL127505   4.463  16.072   9.067
 1982POPC   GL227506   4.234  15.771   9.099
 1982POPC   C1A27507   4.135  15.988   8.688
 1982POPC   D2A27508   4.195  15.659   8.415
 1982POPC   C3A27509   4.385  15.843   8.090
 1982POPC   C4A27510   4.411  15.875   7.685
 1982POPC   C1B27511   4.590  15.740   8.725
 1982POPC   C2B27512   4.783  15.687   8.344
 1982POPC   C3B27513   4.811  15.563   7.923
 1982POPC   C4B27514   4.609  15.456   7.529
 1983POPC   NC327515   9.035  44.119   9.584
 1983POPC   PO427516   8.545  43.653   9.498
 1983POPC   GL127517   8.702  43.976   9.213
 1983POPC   GL227518   9.087  44.034   9.087
 1983POPC   C1A27519   8.673  44.092   8.815
 1983POPC   D2A27520   8.991  44.010   8.510
 1983POPC   C3A27521   8.791  44.091   8.103
 1983POPC   C4A27522   8.703  43.921   7.734
 1983POPC   C1B27523   9.288  43.683   8.819
 1983POPC   C2B27524   9.401  43.627   8.409
 1983POPC   C3B27525   9.230  43.836   8.051
 1983POPC   C4B27526   9.239  43.696   7.646
 1984POPC   NC327527   6.607  32.778   9.405
 1984POPC   PO427528   6.585  32.116   9.646
 1984POPC   GL127529   6.842  32.141   9.240
 1984POPC   GL227530   6.850  32.443   9.021
 1984POPC   C1A27531   6.931  31.968   8.814
 1984POPC   D2A27532   6.728  31.982   8.403
 1984POPC   C3A27533   6.930  32.014   8.026
 1984POPC   C4A27534   6.680  32.170   7.756
 1984POPC   C1B27535   6.444  32.440   8.791
 1984POPC   C2B27536   6.180  32.552   8.414
 1984POPC   C3B27537   6.324  32.505   7.963
 1984POPC   C4B27538   6.694  32.672   7.697
 1985POPC   NC327539  14.153   2.781   9.501
 1985POPC   PO427540  14.779   3.077   9.495
 1985POPC   GL127541  14.673   2.783   9.149
 1985POPC   GL227542  14.662   2.403   9.161
 1985POPC   C1A27543  14.559   2.870   8.717
 1985POPC   D2A27544  14.425   3.096   8.344
 1985POPC   C3A27545  14.404   2.931   7.946
 1985POPC   C4A27546  14.005   3.099   7.746
 1985POPC   C1B27547  14.365   2.415   8.811
 1985POPC   C2B27548  14.368   2.545   8.347
 1985POPC   C3B27549  14.207   2.472   7.911
 1985POPC   C4B27550  14.413   2.621   7.531
 1986POPC   NC327551  43.019  37.332   9.442
 1986POPC   PO427552  42.804  36.681   9.599
 1986POPC   GL127553  42.999  36.842   9.218
 1986POPC   GL227554  43.346  36.964   9.235
 1986POPC   C1A27555  43.098  36.955   8.788
 1986POPC   D2A27556  42.940  36.742   8.434
 1986POPC   C3A27557  42.814  36.996   8.119
 1986POPC   C4A27558  43.042  37.026   7.752
 1986POPC   C1B27559  43.541  37.198   8.891
 1986POPC   C2B27560  43.398  37.235   8.485
 1986POPC   C3B27561  43.422  37.027   8.110
 1986POPC   C4B27562  43.510  37.264   7.763
 1987POPC   NC327563   0.322  30.868   9.757
 1987POPC   PO427564   0.721  30.427   9.411
 1987POPC   GL127565   0.471  30.588   9.141
 1987POPC   GL227566   0.161  30.623   9.327
 1987POPC   C1A27567   0.502  30.713   8.723
 1987POPC   D2A27568   0.644  30.601   8.339
 1987POPC   C3A27569   0.483  30.786   8.017
 1987POPC   C4A27570   0.300  31.032   7.723
 1987POPC   C1B27571   0.030  30.596   8.879
 1987POPC   C2B27572   0.106  30.549   8.418
 1987POPC   C3B27573  44.993  30.635   7.968
 1987POPC   C4B27574   0.271  30.513   7.643
 1988POPC   NC327575   8.704  13.039   9.579
 1988POPC   PO427576   8.162  12.581   9.495
 1988POPC   GL127577   8.192  12.801   9.117
 1988POPC   GL227578   8.391  13.092   9.170
 1988POPC   C1A27579   8.211  12.706   8.669
 1988POPC   D2A27580   8.430  12.603   8.274
 1988POPC   C3A27581   8.386  12.739   7.834
 1988POPC   C4A27582   8.143  12.642   7.377
 1988POPC   C1B27583   8.193  13.203   8.774
 1988POPC   C2B27584   8.275  13.109   8.348
 1988POPC   C3B27585   8.469  13.258   7.993
 1988POPC   C4B27586   8.290  13.187   7.644
 1989POPC   NC327587  20.744  43.071   9.687
 1989POPC   PO427588  21.393  42.959   9.568
 1989POPC   GL127589  21.334  43.056   9.166
 1989POPC   GL227590  21.012  42.965   9.231
 1989POPC   C1A27591  21.427  43.338   8.817
 1989POPC   D2A27592  21.661  43.324   8.427
 1989POPC   C3A27593  21.534  43.499   8.045
 1989POPC   C4A27594  21.661  43.383   7.639
 1989POPC   C1B27595  21.020  43.042   8.769
 1989POPC   C2B27596  21.079  43.080   8.319
 1989POPC   C3B27597  21.399  42.970   8.009
 1989POPC   C4B27598  21.424  42.932   7.551
 1990POPC   NC327599  17.717  32.460   9.727
 1990POPC   PO427600  17.402  31.856   9.609
 1990POPC   GL127601  17.665  32.110   9.302
 1990POPC   GL227602  17.477  32.406   9.263
 1990POPC   C1A27603  17.842  32.323   8.896
 1990POPC   D2A27604  17.826  32.427   8.430
 1990POPC   C3A27605  17.762  32.095   8.079
 1990POPC   C4A27606  17.716  32.052   7.613
 1990POPC   C1B27607  17.341  32.203   8.862
 1990POPC   C2B27608  17.307  32.384   8.414
 1990POPC   C3B27609  17.474  32.504   7.999
 1990POPC   C4B27610  17.207  32.232   7.808
 1991POPC   NC327611  37.060   6.260   9.608
 1991POPC   PO427612  37.742   6.494   9.518
 1991POPC   GL127613  37.608   6.401   9.128
 1991POPC   GL227614  37.554   6.749   8.995
 1991POPC   C1A27615  37.712   6.345   8.699
 1991POPC   D2A27616  37.487   6.450   8.348
 1991POPC   C3A27617  37.669   6.367   7.938
 1991POPC   C4A27618  38.074   6.396   7.754
 1991POPC   C1B27619  37.271   6.937   8.680
 1991POPC   C2B27620  37.396   7.003   8.282
 1991POPC   C3B27621  37.765   6.837   8.157
 1991POPC   C4B27622  37.784   6.839   7.753
 1992POPC   NC327623   3.604  35.866   9.505
 1992POPC   PO427624   3.206  36.403   9.440
 1992POPC   GL127625   3.458  36.167   9.138
 1992POPC   GL227626   3.641  36.394   9.032
 1992POPC   C1A27627   3.605  35.901   8.797
 1992POPC   D2A27628   3.352  35.819   8.421
 1992POPC   C3A27629   3.549  35.727   7.985
 1992POPC   C4A27630   3.405  35.790   7.565
 1992POPC   C1B27631   3.514  36.343   8.563
 1992POPC   C2B27632   3.643  36.211   8.145
 1992POPC   C3B27633   3.659  36.224   7.677
 1992POPC   C4B27634   3.915  36.402   7.315
 1993POPC   NC327635  23.020  10.460   9.760
 1993POPC   PO427636  22.576  10.048   9.650
 1993POPC   GL127637  22.830  10.346   9.300
 1993POPC   GL227638  23.158  10.253   9.280
 1993POPC   C1A27639  22.987  10.643   8.940
 1993POPC   D2A27640  22.816  10.674   8.513
 1993POPC   C3A27641  23.037  10.677   8.118
 1993POPC   C4A27642  22.856  10.626   7.699
 1993POPC   C1B27643  23.284  10.146   8.871
 1993POPC   C2B27644  23.235  10.352   8.466
 1993POPC   C3B27645  23.323  10.220   8.026
 1993POPC   C4B27646  23.241  10.268   7.584
 1994POPC   NC327647  22.370   9.712   9.891
 1994POPC   PO427648  22.050  10.104   9.403
 1994POPC   GL127649  22.104   9.928   8.985
 1994POPC   GL227650  22.384  10.151   9.022
 1994POPC   C1A27651  22.165   9.449   8.837
 1994POPC   D2A27652  22.361   9.347   8.472
 1994POPC   C3A27653  22.110   9.495   8.149
 1994POPC   C4A27654  21.980   9.476   7.749
 1994POPC   C1B27655  22.524   9.794   8.739
 1994POPC   C2B27656  22.263   9.859   8.474
 1994POPC   C3B27657  22.398   9.944   8.111
 1994POPC   C4B27658  22.441   9.664   7.788
 1995POPC   NC327659   6.077  14.244   9.592
 1995POPC   PO427660   5.873  14.842   9.486
 1995POPC   GL127661   5.764  14.524   9.182
 1995POPC   GL227662   5.859  14.139   9.132
 1995POPC   C1A27663   5.666  14.569   8.756
 1995POPC   D2A27664   5.825  14.373   8.389
 1995POPC   C3A27665   5.730  14.444   7.931
 1995POPC   C4A27666   5.804  14.314   7.479
 1995POPC   C1B27667   6.171  14.351   8.874
 1995POPC   C2B27668   6.308  14.489   8.483
 1995POPC   C3B27669   6.233  14.522   8.080
 1995POPC   C4B27670   6.273  14.282   7.748
 1996POPC   NC327671  42.837  33.969   9.563
 1996POPC   PO427672  43.297  33.509   9.649
 1996POPC   GL127673  42.991  33.548   9.234
 1996POPC   GL227674  43.064  33.891   9.120
 1996POPC   C1A27675  42.817  33.652   8.762
 1996POPC   D2A27676  43.049  33.773   8.384
 1996POPC   C3A27677  43.080  33.535   7.986
 1996POPC   C4A27678  42.768  33.603   7.633
 1996POPC   C1B27679  43.032  34.149   8.751
 1996POPC   C2B27680  43.323  34.221   8.425
 1996POPC   C3B27681  43.416  33.951   8.078
 1996POPC   C4B27682  43.093  34.013   7.797
 1997POPC   NC327683  32.455   3.744   9.436
 1997POPC   PO427684  32.719   3.118   9.468
 1997POPC   GL127685  32.515   3.278   9.098
 1997POPC   GL227686  32.491   3.640   8.949
 1997POPC   C1A27687  32.233   3.252   8.755
 1997POPC   D2A27688  32.293   3.484   8.398
 1997POPC   C3A27689  32.193   3.323   8.006
 1997POPC   C4A27690  32.516   3.168   7.737
 1997POPC   C1B27691  32.070   3.776   8.800
 1997POPC   C2B27692  31.979   3.891   8.392
 1997POPC   C3B27693  32.344   3.913   8.128
 1997POPC   C4B27694  32.395   3.715   7.738
 1998POPC   NC327695  21.613  25.069   9.439
 1998POPC   PO427696  21.042  25.438   9.499
 1998POPC   GL127697  21.242  25.258   9.136
 1998POPC   GL227698  21.203  24.879   9.107
 1998POPC   C1A27699  21.534  25.145   8.784
 1998POPC   D2A27700  21.398  25.213   8.380
 1998POPC   C3A27701  21.626  25.289   8.028
 1998POPC   C4A27702  21.500  25.152   7.609
 1998POPC   C1B27703  21.023  25.081   8.718
 1998POPC   C2B27704  20.923  24.944   8.322
 1998POPC   C3B27705  21.117  25.144   7.970
 1998POPC   C4B27706  21.013  25.407   7.647
 1999POPC   NC327707  33.245  28.253   9.512
 1999POPC   PO427708  32.654  28.383   9.650
 1999POPC   GL127709  32.811  28.363   9.236
 1999POPC   GL227710  33.095  28.542   9.125
 1999POPC   C1A27711  32.888  28.128   8.876
 1999POPC   D2A27712  32.694  28.208   8.488
 1999POPC   C3A27713  32.903  28.129   8.124
 1999POPC   C4A27714  32.713  28.107   7.734
 1999POPC   C1B27715  33.022  28.619   8.732
 1999POPC   C2B27716  33.320  28.688   8.430
 1999POPC   C3B27717  33.200  28.609   8.026
 1999POPC   C4B27718  33.224  28.287   7.751
 2000POPC   NC327719   6.331  25.762   9.480
 2000POPC   PO427720   6.986  25.504   9.441
 2000POPC   GL127721   6.723  25.680   9.129
 2000POPC   GL227722   6.944  25.912   8.947
 2000POPC   C1A27723   6.475  25.880   8.795
 2000POPC   D2A27724   6.509  26.074   8.403
 2000POPC   C3A27725   6.679  25.862   8.058
 2000POPC   C4A27726   6.513  25.952   7.667
 2000POPC   C1B27727   6.861  26.298   8.742
 2000POPC   C2B27728   6.897  26.403   8.319
 2000POPC   C3B27729   6.681  26.351   7.957
 2000POPC   C4B27730   6.921  26.236   7.616
 2001POPC   NC327731  35.023  29.391   9.448
 2001POPC   PO427732  34.893  28.713   9.362
 2001POPC   GL127733  35.091  29.049   9.081
 2001POPC   GL227734  35.430  29.188   9.194
 2001POPC   C1A27735  35.232  29.277   8.703
 2001POPC   D2A27736  35.193  29.535   8.327
 2001POPC   C3A27737  35.031  29.346   7.988
 2001POPC   C4A27738  35.315  29.085   7.834
 2001POPC   C1B27739  35.719  29.154   8.842
 2001POPC   C2B27740  35.771  28.937   8.439
 2001POPC   C3B27741  35.638  28.747   8.052
 2001POPC   C4B27742  35.712  28.835   7.619
 2002POPC   NC327743  41.894  28.220   9.444
 2002POPC   PO427744  41.323  27.962   9.563
 2002POPC   GL127745  41.339  28.327   9.251
 2002POPC   GL227746  41.610  28.562   9.112
 2002POPC   C1A27747  41.262  28.307   8.789
 2002POPC   D2A27748  41.147  28.130   8.366
 2002POPC   C3A27749  41.444  28.172   8.002
 2002POPC   C4A27750  41.403  28.246   7.535
 2002POPC   C1B27751  41.648  28.837   8.719
 2002POPC   C2B27752  41.618  28.833   8.242
 2002POPC   C3B27753  41.487  28.652   7.860
 2002POPC   C4B27754  41.843  28.450   7.698
 2003POPC   NC327755  14.841  17.646   9.544
 2003POPC   PO427756  14.136  17.393   9.499
 2003POPC   GL127757  14.487  17.491   9.216
 2003POPC   GL227758  14.764  17.250   9.189
 2003POPC   C1A27759  14.635  17.705   8.866
 2003POPC   D2A27760  14.755  17.735   8.443
 2003POPC   C3A27761  14.574  17.469   8.155
 2003POPC   C4A27762  14.297  17.433   7.794
 2003POPC   C1B27763  14.927  17.100   8.786
 2003POPC   C2B27764  14.732  16.990   8.355
 2003POPC   C3B27765  14.896  17.140   7.930
 2003POPC   C4B27766  14.775  17.527   7.690
 2004POPC   NC327767  14.953  19.308   9.443
 2004POPC   PO427768  14.645  19.915   9.523
 2004POPC   GL127769  14.988  19.961   9.211
 2004POPC   GL227770  15.127  19.650   9.071
 2004POPC   C1A27771  15.125  20.104   8.790
 2004POPC   D2A27772  14.964  20.156   8.370
 2004POPC   C3A27773  15.130  19.954   8.018
 2004POPC   C4A27774  15.456  19.820   7.705
 2004POPC   C1B27775  15.353  19.620   8.659
 2004POPC   C2B27776  15.467  19.589   8.216
 2004POPC   C3B27777  15.177  19.455   7.911
 2004POPC   C4B27778  14.811  19.633   7.760
 2005POPC   NC327779  12.608  20.474   9.535
 2005POPC   PO427780  12.956  21.040   9.488
 2005POPC   GL127781  12.824  20.712   9.144
 2005POPC   GL227782  12.707  20.345   9.056
 2005POPC   C1A27783  12.717  20.747   8.730
 2005POPC   D2A27784  12.929  20.693   8.366
 2005POPC   C3A27785  12.780  20.775   7.981
 2005POPC   C4A27786  12.974  20.756   7.572
 2005POPC   C1B27787  12.349  20.408   8.776
 2005POPC   C2B27788  12.376  20.580   8.358
 2005POPC   C3B27789  12.432  20.352   7.995
 2005POPC   C4B27790  12.752  20.325   7.705
 2006POPC   NC327791  29.353  16.384   9.351
 2006POPC   PO427792  28.963  15.792   9.447
 2006POPC   GL127793  29.121  15.986   9.127
 2006POPC   GL227794  29.492  15.909   9.161
 2006POPC   C1A27795  28.914  16.092   8.756
 2006POPC   D2A27796  28.849  15.817   8.407
 2006POPC   C3A27797  29.035  15.939   8.030
 2006POPC   C4A27798  28.908  16.293   7.792
 2006POPC   C1B27799  29.436  16.169   8.775
 2006POPC   C2B27800  29.304  16.109   8.421
 2006POPC   C3B27801  29.372  16.363   8.087
 2006POPC   C4B27802  29.404  16.425   7.674
 2007POPC   NC327803  32.255  34.930   9.391
 2007POPC   PO427804  31.925  34.304   9.437
 2007POPC   GL127805  32.017  34.460   9.045
 2007POPC   GL227806  32.284  34.635   8.992
 2007POPC   C1A27807  31.960  34.451   8.606
 2007POPC   D2A27808  32.038  34.682   8.234
 2007POPC   C3A27809  31.953  34.353   7.934
 2007POPC   C4A27810  32.033  34.348   7.489
 2007POPC   C1B27811  32.460  34.768   8.639
 2007POPC   C2B27812  32.445  35.043   8.292
 2007POPC   C3B27813  32.413  34.924   7.877
 2007POPC   C4B27814  32.439  34.500   7.790
 2008POPC   NC327815  30.969  12.595   9.406
 2008POPC   PO427816  30.642  13.276   9.403
 2008POPC   GL127817  30.677  12.949   9.061
 2008POPC   GL227818  31.029  12.879   8.963
 2008POPC   C1A27819  30.478  12.808   8.672
 2008POPC   D2A27820  30.740  12.744   8.300
 2008POPC   C3A27821  30.520  12.801   7.928
 2008POPC   C4A27822  30.625  13.174   7.664
 2008POPC   C1B27823  30.880  12.478   8.753
 2008POPC   C2B27824  31.010  12.287   8.367
 2008POPC   C3B27825  31.121  12.499   7.987
 2008POPC   C4B27826  30.936  12.721   7.639
 2009POPC   NC327827   0.492   7.864   9.864
 2009POPC   PO427828   0.080   8.010   9.319
 2009POPC   GL127829   0.302   8.112   8.955
 2009POPC   GL227830   0.630   8.256   9.066
 2009POPC   C1A27831   0.278   8.103   8.525
 2009POPC   D2A27832   0.147   8.364   8.199
 2009POPC   C3A27833   0.438   8.346   7.874
 2009POPC   C4A27834   0.409   8.216   7.446
 2009POPC   C1B27835   0.748   7.971   8.707
 2009POPC   C2B27836   0.738   8.046   8.264
 2009POPC   C3B27837   0.856   8.055   7.843
 2009POPC   C4B27838   0.868   8.398   7.569
 2010POPC   NC327839  26.775  28.741   9.869
 2010POPC   PO427840  26.692  29.282   9.469
 2010POPC   GL127841  26.910  29.154   9.111
 2010POPC   GL227842  26.726  28.893   9.123
 2010POPC   C1A27843  26.986  29.203   8.695
 2010POPC   D2A27844  26.594  29.166   8.432
 2010POPC   C3A27845  26.715  29.246   8.011
 2010POPC   C4A27846  27.074  29.465   7.834
 2010POPC   C1B27847  26.775  28.754   8.748
 2010POPC   C2B27848  26.957  28.818   8.337
 2010POPC   C3B27849  26.833  28.732   7.904
 2010POPC   C4B27850  26.655  28.834   7.474
 2011POPC   NC327851   6.852  14.340  10.007
 2011POPC   PO427852   6.370  14.620   9.692
 2011POPC   GL127853   6.487  14.482   9.251
 2011POPC   GL227854   6.628  14.169   9.145
 2011POPC   C1A27855   6.634  14.656   8.824
 2011POPC   D2A27856   6.809  14.579   8.408
 2011POPC   C3A27857   6.741  14.668   7.985
 2011POPC   C4A27858   6.556  14.667   7.590
 2011POPC   C1B27859   6.698  14.151   8.685
 2011POPC   C2B27860   6.610  14.117   8.234
 2011POPC   C3B27861   6.798  14.148   7.815
 2011POPC   C4B27862   7.115  14.010   7.457
 2012POPC   NC327863  24.740  37.566   9.584
 2012POPC   PO427864  24.161  37.272   9.461
 2012POPC   GL127865  24.385  37.456   9.120
 2012POPC   GL227866  24.791  37.501   9.088
 2012POPC   C1A27867  24.461  37.656   8.742
 2012POPC   D2A27868  24.805  37.674   8.479
 2012POPC   C3A27869  24.748  37.515   8.071
 2012POPC   C4A27870  24.687  37.379   7.694
 2012POPC   C1B27871  24.929  37.935   8.917
 2012POPC   C2B27872  24.845  38.199   8.524
 2012POPC   C3B27873  24.879  38.014   8.084
 2012POPC   C4B27874  24.692  37.898   7.683
 2013POPC   NC327875  15.383  12.134   9.855
 2013POPC   PO427876  15.948  12.063   9.503
 2013POPC   GL127877  15.829  12.139   9.121
 2013POPC   GL227878  16.125  12.211   9.043
 2013POPC   C1A27879  15.650  12.163   8.719
 2013POPC   D2A27880  15.873  12.080   8.338
 2013POPC   C3A27881  15.619  12.002   7.956
 2013POPC   C4A27882  15.678  12.192   7.537
 2013POPC   C1B27883  16.221  11.873   8.806
 2013POPC   C2B27884  16.322  11.699   8.431
 2013POPC   C3B27885  16.302  11.923   8.062
 2013POPC   C4B27886  16.044  11.861   7.714
 2014POPC   NC327887  14.548  29.524   9.470
 2014POPC   PO427888  14.680  30.076   9.576
 2014POPC   GL127889  14.512  30.175   9.152
 2014POPC   GL227890  14.132  30.085   9.046
 2014POPC   C1A27891  14.486  30.242   8.721
 2014POPC   D2A27892  14.192  30.139   8.411
 2014POPC   C3A27893  14.452  30.020   8.067
 2014POPC   C4A27894  14.622  30.279   7.749
 2014POPC   C1B27895  14.053  29.748   8.722
 2014POPC   C2B27896  14.119  29.614   8.265
 2014POPC   C3B27897  14.044  29.801   7.841
 2014POPC   C4B27898  14.209  29.648   7.446
 2015POPC   NC327899  14.180  30.184   9.535
 2015POPC   PO427900  14.522  30.746   9.478
 2015POPC   GL127901  14.193  30.603   9.221
 2015POPC   GL227902  14.079  30.933   9.154
 2015POPC   C1A27903  14.094  30.560   8.796
 2015POPC   D2A27904  14.330  30.653   8.443
 2015POPC   C3A27905  14.287  30.503   8.052
 2015POPC   C4A27906  14.247  30.671   7.658
 2015POPC   C1B27907  14.463  30.939   8.861
 2015POPC   C2B27908  14.667  31.015   8.471
 2015POPC   C3B27909  14.651  30.865   8.065
 2015POPC   C4B27910  14.756  30.751   7.675
 2016POPC   NC327911  41.071  35.571   9.905
 2016POPC   PO427912  41.650  35.434   9.676
 2016POPC   GL127913  41.599  35.292   9.280
 2016POPC   GL227914  41.441  35.590   9.205
 2016POPC   C1A27915  41.534  35.135   8.866
 2016POPC   D2A27916  41.511  35.277   8.441
 2016POPC   C3A27917  41.503  35.103   8.043
 2016POPC   C4A27918  41.554  35.309   7.671
 2016POPC   C1B27919  41.426  35.668   8.772
 2016POPC   C2B27920  41.380  35.794   8.326
 2016POPC   C3B27921  41.592  35.741   7.934
 2016POPC   C4B27922  41.656  35.752   7.446
 2017POPC   NC327923  41.779  39.577   9.333
 2017POPC   PO427924  41.287  39.307   9.530
 2017POPC   GL127925  41.394  39.205   9.112
 2017POPC   GL227926  41.300  39.528   9.031
 2017POPC   C1A27927  41.674  38.967   8.816
 2017POPC   D2A27928  41.663  38.826   8.384
 2017POPC   C3A27929  41.533  39.141   8.123
 2017POPC   C4A27930  41.628  39.123   7.714
 2017POPC   C1B27931  41.446  39.420   8.618
 2017POPC   C2B27932  41.223  39.545   8.254
 2017POPC   C3B27933  41.102  39.430   7.844
 2017POPC   C4B27934  41.188  39.221   7.461
 2018POPC   NC327935   8.304  42.371   9.393
 2018POPC   PO427936   7.729  42.590   9.358
 2018POPC   GL127937   7.953  42.432   8.986
 2018POPC   GL227938   8.340  42.345   8.903
 2018POPC   C1A27939   8.030  42.421   8.528
 2018POPC   D2A27940   8.469  42.525   8.393
 2018POPC   C3A27941   8.438  42.412   8.006
 2018POPC   C4A27942   8.052  42.544   7.800
 2018POPC   C1B27943   8.061  41.961   8.854
 2018POPC   C2B27944   7.897  41.886   8.454
 2018POPC   C3B27945   8.002  42.049   8.049
 2018POPC   C4B27946   7.865  41.846   7.692
 2019POPC   NC327947  27.898  22.971   9.460
 2019POPC   PO427948  27.399  23.296   9.225
 2019POPC   GL127949  27.582  22.930   9.069
 2019POPC   GL227950  27.821  22.609   9.114
 2019POPC   C1A27951  27.765  22.924   8.698
 2019POPC   D2A27952  27.610  23.241   8.384
 2019POPC   C3A27953  27.549  23.056   7.964
 2019POPC   C4A27954  27.813  23.121   7.630
 2019POPC   C1B27955  27.433  22.530   8.825
 2019POPC   C2B27956  27.437  22.694   8.397
 2019POPC   C3B27957  27.483  22.524   8.008
 2019POPC   C4B27958  27.663  22.631   7.628
 2020POPC   NC327959  35.362   9.269   9.552
 2020POPC   PO427960  35.295   8.634   9.946
 2020POPC   GL127961  35.398   8.776   9.465
 2020POPC   GL227962  35.681   8.809   9.197
 2020POPC   C1A27963  35.221   8.870   8.999
 2020POPC   D2A27964  35.274   9.071   8.569
 2020POPC   C3A27965  35.129   9.047   8.111
 2020POPC   C4A27966  35.223   9.000   7.629
 2020POPC   C1B27967  35.733   9.092   8.813
 2020POPC   C2B27968  35.679   9.324   8.389
 2020POPC   C3B27969  35.589   9.210   7.952
 2020POPC   C4B27970  35.725   9.075   7.552
 2021POPC   NC327971   8.743  24.395   9.812
 2021POPC   PO427972   8.105  24.378   9.598
 2021POPC   GL127973   7.987  24.585   9.216
 2021POPC   GL227974   8.241  24.402   9.087
 2021POPC   C1A27975   7.853  24.715   8.815
 2021POPC   D2A27976   7.976  24.538   8.402
 2021POPC   C3A27977   7.938  24.752   8.016
 2021POPC   C4A27978   7.942  24.423   7.738
 2021POPC   C1B27979   8.087  24.172   8.773
 2021POPC   C2B27980   8.241  24.069   8.400
 2021POPC   C3B27981   8.321  24.285   8.051
 2021POPC   C4B27982   8.333  24.071   7.666
 2022POPC   NC327983  19.992  27.862   9.607
 2022POPC   PO427984  19.583  27.334   9.424
 2022POPC   GL127985  19.933  27.505   9.217
 2022POPC   GL227986  19.829  27.825   9.141
 2022POPC   C1A27987  19.980  27.482   8.779
 2022POPC   D2A27988  20.077  27.304   8.378
 2022POPC   C3A27989  19.903  27.544   8.064
 2022POPC   C4A27990  19.976  27.690   7.667
 2022POPC   C1B27991  19.717  27.934   8.751
 2022POPC   C2B27992  19.595  27.842   8.336
 2022POPC   C3B27993  19.608  27.962   7.895
 2022POPC   C4B27994  19.600  27.931   7.434
 2023POPC   NC327995  31.576   0.765   9.364
 2023POPC   PO427996  31.741   1.444   9.408
 2023POPC   GL127997  31.520   1.202   9.090
 2023POPC   GL227998  31.729   0.934   8.914
 2023POPC   C1A27999  31.278   1.221   8.737
 2023POPC   D2A28000  31.517   1.118   8.408
 2023POPC   C3A28001  31.409   1.197   7.990
 2023POPC   C4A28002  31.158   1.379   7.683
 2023POPC   C1B28003  31.894   1.330   8.766
 2023POPC   C2B28004  31.811   1.550   8.413
 2023POPC   C3B28005  31.898   1.498   8.011
 2023POPC   C4B28006  31.857   1.232   7.682
 2024POPC   NC328007   7.450  36.382   9.358
 2024POPC   PO428008   7.138  35.776   9.561
 2024POPC   GL128009   7.126  36.030   9.177
 2024POPC   GL228010   7.437  36.032   8.977
 2024POPC   C1A28011   7.087  36.297   8.780
 2024POPC   D2A28012   7.181  36.482   8.366
 2024POPC   C3A28013   7.180  36.472   7.934
 2024POPC   C4A28014   7.411  36.226   7.669
 2024POPC   C1B28015   7.571  36.184   8.573
 2024POPC   C2B28016   7.575  36.053   8.144
 2024POPC   C3B28017   7.654  35.774   7.804
 2024POPC   C4B28018   7.646  35.898   7.351
 2025POPC   NC328019  16.485  21.510   9.361
 2025POPC   PO428020  16.854  20.984   9.460
 2025POPC   GL128021  16.814  21.229   9.073
 2025POPC   GL228022  16.477  21.207   8.963
 2025POPC   C1A28023  16.748  21.542   8.700
 2025POPC   D2A28024  16.569  21.629   8.304
 2025POPC   C3A28025  16.903  21.679   8.019
 2025POPC   C4A28026  16.982  21.421   7.679
 2025POPC   C1B28027  16.697  21.049   8.586
 2025POPC   C2B28028  16.642  21.129   8.144
 2025POPC   C3B28029  16.465  21.290   7.761
 2025POPC   C4B28030  16.633  21.107   7.373
 2026POPC   NC328031  12.569   3.010   9.809
 2026POPC   PO428032  12.764   2.694   9.162
 2026POPC   GL128033  13.105   2.897   9.020
 2026POPC   GL228034  12.992   3.179   9.226
 2026POPC   C1A28035  13.095   2.778   8.585
 2026POPC   D2A28036  12.946   2.424   8.333
 2026POPC   C3A28037  12.709   2.553   7.977
 2026POPC   C4A28038  12.711   2.442   7.550
 2026POPC   C1B28039  12.812   3.258   8.806
 2026POPC   C2B28040  12.923   3.222   8.375
 2026POPC   C3B28041  12.718   3.082   7.999
 2026POPC   C4B28042  12.923   2.912   7.632
 2027POPC   NC328043  41.971  41.799   9.712
 2027POPC   PO428044  41.371  41.489   9.439
 2027POPC   GL128045  41.410  41.704   9.095
 2027POPC   GL228046  41.669  41.876   9.266
 2027POPC   C1A28047  41.603  41.472   8.783
 2027POPC   D2A28048  41.707  41.327   8.373
 2027POPC   C3A28049  41.638  41.503   7.932
 2027POPC   C4A28050  41.301  41.541   7.630
 2027POPC   C1B28051  41.761  41.955   8.809
 2027POPC   C2B28052  41.621  41.841   8.380
 2027POPC   C3B28053  41.862  41.957   8.031
 2027POPC   C4B28054  42.107  41.822   7.695
 2028POPC   NC328055  31.759  30.030   9.778
 2028POPC   PO428056  31.381  30.221   9.271
 2028POPC   GL128057  31.571  29.912   9.021
 2028POPC   GL228058  31.546  29.625   9.202
 2028POPC   C1A28059  31.758  29.875   8.621
 2028POPC   D2A28060  31.488  29.843   8.279
 2028POPC   C3A28061  31.572  30.030   7.889
 2028POPC   C4A28062  31.316  30.355   7.729
 2028POPC   C1B28063  31.393  29.528   8.746
 2028POPC   C2B28064  31.152  29.478   8.354
 2028POPC   C3B28065  31.374  29.449   7.948
 2028POPC   C4B28066  31.363  29.641   7.558
 2029POPC   NC328067  30.338  33.270   9.560
 2029POPC   PO428068  30.566  32.663   9.494
 2029POPC   GL128069  30.766  33.034   9.324
 2029POPC   GL228070  30.757  32.834   9.044
 2029POPC   C1A28071  30.835  33.319   8.957
 2029POPC   D2A28072  30.795  33.120   8.539
 2029POPC   C3A28073  30.871  33.330   8.116
 2029POPC   C4A28074  30.612  33.428   7.747
 2029POPC   C1B28075  30.398  32.637   8.838
 2029POPC   C2B28076  30.541  32.605   8.436
 2029POPC   C3B28077  30.829  32.803   8.129
 2029POPC   C4B28078  30.727  32.939   7.712
 2030POPC   NC328079  31.053  40.936   9.634
 2030POPC   PO428080  30.424  40.722   9.809
 2030POPC   GL128081  30.669  40.753   9.291
 2030POPC   GL228082  30.936  40.649   9.209
 2030POPC   C1A28083  30.569  40.791   8.836
 2030POPC   D2A28084  30.395  40.915   8.431
 2030POPC   C3A28085  30.725  40.937   8.182
 2030POPC   C4A28086  30.840  41.084   7.794
 2030POPC   C1B28087  30.927  40.425   8.809
 2030POPC   C2B28088  30.575  40.386   8.512
 2030POPC   C3B28089  30.517  40.444   8.088
 2030POPC   C4B28090  30.780  40.482   7.714
 2031POPC   NC328091  18.835  33.602   9.270
 2031POPC   PO428092  18.407  33.929   9.637
 2031POPC   GL128093  18.118  33.880   9.256
 2031POPC   GL228094  18.384  33.796   9.046
 2031POPC   C1A28095  17.993  33.996   8.799
 2031POPC   D2A28096  18.233  33.853   8.415
 2031POPC   C3A28097  18.184  34.097   8.083
 2031POPC   C4A28098  18.110  33.841   7.785
 2031POPC   C1B28099  18.639  33.775   8.687
 2031POPC   C2B28100  18.737  33.909   8.282
 2031POPC   C3B28101  18.607  33.848   7.882
 2031POPC   C4B28102  18.482  33.911   7.451
 2032POPC   NC328103  42.910  44.738   9.412
 2032POPC   PO428104  43.520   0.081   9.398
 2032POPC   GL128105  43.347  44.788   9.133
 2032POPC   GL228106  43.273  44.422   9.215
 2032POPC   C1A28107  43.144  44.873   8.764
 2032POPC   D2A28108  42.900  44.826   8.430
 2032POPC   C3A28109  43.106  44.843   8.044
 2032POPC   C4A28110  42.924  44.923   7.677
 2032POPC   C1B28111  43.284  44.388   8.760
 2032POPC   C2B28112  43.061  44.363   8.350
 2032POPC   C3B28113  43.136  44.347   7.906
 2032POPC   C4B28114  43.566  44.315   7.814
 2033POPC   NC328115  36.032  21.438   9.444
 2033POPC   PO428116  36.408  20.936   9.493
 2033POPC   GL128117  36.409  21.200   9.135
 2033POPC   GL228118  36.332  21.588   9.065
 2033POPC   C1A28119  36.225  21.233   8.742
 2033POPC   D2A28120  36.243  21.504   8.398
 2033POPC   C3A28121  36.362  21.271   8.066
 2033POPC   C4A28122  36.327  21.111   7.678
 2033POPC   C1B28123  35.904  21.628   8.824
 2033POPC   C2B28124  35.665  21.585   8.434
 2033POPC   C3B28125  35.845  21.661   8.035
 2033POPC   C4B28126  36.192  21.628   7.764
 2034POPC   NC328127   8.538  31.252   9.580
 2034POPC   PO428128   9.190  31.654   9.536
 2034POPC   GL128129   8.968  31.460   9.173
 2034POPC   GL228130   8.710  31.653   9.287
 2034POPC   C1A28131   8.927  31.313   8.709
 2034POPC   D2A28132   8.868  31.282   8.258
 2034POPC   C3A28133   8.966  31.675   8.057
 2034POPC   C4A28134   9.024  31.488   7.693
 2034POPC   C1B28135   8.605  31.706   8.874
 2034POPC   C2B28136   8.600  31.715   8.457
 2034POPC   C3B28137   8.494  31.886   8.074
 2034POPC   C4B28138   8.500  31.611   7.733
 2035POPC   NC328139  32.599  22.341   9.324
 2035POPC   PO428140  32.948  22.842   9.563
 2035POPC   GL128141  33.025  22.908   9.140
 2035POPC   GL228142  33.034  22.542   9.107
 2035POPC   C1A28143  32.853  22.867   8.714
 2035POPC   D2A28144  32.924  22.840   8.292
 2035POPC   C3A28145  32.871  23.101   7.961
 2035POPC   C4A28146  32.824  22.777   7.670
 2035POPC   C1B28147  33.300  22.624   8.758
 2035POPC   C2B28148  33.416  22.818   8.366
 2035POPC   C3B28149  33.276  22.703   7.920
 2035POPC   C4B28150  33.236  22.551   7.455
 2036POPC   NC328151  38.478  30.229   9.542
 2036POPC   PO428152  38.554  29.574   9.515
 2036POPC   GL128153  38.430  29.832   9.196
 2036POPC   GL228154  38.229  29.626   9.061
 2036POPC   C1A28155  38.644  29.947   8.815
 2036POPC   D2A28156  38.741  29.879   8.399
 2036POPC   C3A28157  38.573  30.095   8.055
 2036POPC   C4A28158  38.139  30.195   7.910
 2036POPC   C1B28159  38.153  29.975   8.774
 2036POPC   C2B28160  38.195  29.882   8.344
 2036POPC   C3B28161  38.176  29.677   7.947
 2036POPC   C4B28162  38.256  29.749   7.507
 2037POPC   NC328163   3.883  42.483   9.368
 2037POPC   PO428164   3.211  42.192   9.488
 2037POPC   GL128165   3.477  42.211   9.165
 2037POPC   GL228166   3.704  41.984   9.238
 2037POPC   C1A28167   3.474  42.369   8.751
 2037POPC   D2A28168   3.674  42.542   8.393
 2037POPC   C3A28169   3.578  42.363   8.015
 2037POPC   C4A28170   3.575  42.648   7.660
 2037POPC   C1B28171   3.757  41.931   8.828
 2037POPC   C2B28172   3.865  42.067   8.456
 2037POPC   C3B28173   3.810  41.886   8.126
 2037POPC   C4B28174   3.844  41.892   7.746
 2038POPC   NC328175   0.101  40.169   9.310
 2038POPC   PO428176   0.759  39.894   9.339
 2038POPC   GL128177   0.507  39.984   9.062
 2038POPC   GL228178   0.279  39.742   9.054
 2038POPC   C1A28179   0.407  40.219   8.726
 2038POPC   D2A28180   0.308  40.085   8.333
 2038POPC   C3A28181   0.374  40.350   7.976
 2038POPC   C4A28182   0.563  40.058   7.689
 2038POPC   C1B28183   0.535  39.675   8.648
 2038POPC   C2B28184   0.486  39.480   8.194
 2038POPC   C3B28185   0.655  39.577   7.754
 2038POPC   C4B28186   0.754  39.715   7.312
 2039POPC   NC328187  13.983  21.778   9.409
 2039POPC   PO428188  13.700  22.298   9.780
 2039POPC   GL128189  13.638  22.194   9.276
 2039POPC   GL228190  13.443  21.895   9.153
 2039POPC   C1A28191  13.800  22.106   8.825
 2039POPC   D2A28192  13.855  21.930   8.400
 2039POPC   C3A28193  13.583  22.079   8.071
 2039POPC   C4A28194  13.549  22.234   7.629
 2039POPC   C1B28195  13.282  22.106   8.752
 2039POPC   C2B28196  13.173  22.241   8.311
 2039POPC   C3B28197  13.126  22.048   7.858
 2039POPC   C4B28198  13.126  22.013   7.393
 2040POPC   NC328199  21.236  43.464   9.467
 2040POPC   PO428200  21.562  44.090   9.441
 2040POPC   GL128201  21.549  43.774   9.143
 2040POPC   GL228202  21.204  43.850   9.131
 2040POPC   C1A28203  21.520  43.828   8.684
 2040POPC   D2A28204  21.354  44.083   8.344
 2040POPC   C3A28205  21.585  44.014   7.967
 2040POPC   C4A28206  21.802  43.855   7.631
 2040POPC   C1B28207  21.021  43.648   8.804
 2040POPC   C2B28208  21.148  43.585   8.392
 2040POPC   C3B28209  21.106  43.780   7.985
 2040POPC   C4B28210  21.302  43.796   7.565
 2041POPC   NC328211  40.489  36.356   9.384
 2041POPC   PO428212  40.757  35.878   9.772
 2041POPC   GL128213  40.917  36.114   9.241
 2041POPC   GL228214  41.043  36.448   9.176
 2041POPC   C1A28215  40.784  36.215   8.800
 2041POPC   D2A28216  40.582  36.101   8.405
 2041POPC   C3A28217  40.797  35.895   8.078
 2041POPC   C4A28218  40.684  36.051   7.691
 2041POPC   C1B28219  41.082  36.667   8.777
 2041POPC   C2B28220  40.908  36.517   8.391
 2041POPC   C3B28221  40.722  36.428   8.017
 2041POPC   C4B28222  40.999  36.478   7.709
 2042POPC   NC328223   7.872  40.037   9.517
 2042POPC   PO428224   8.497  39.927   9.296
 2042POPC   GL128225   8.118  40.012   9.055
 2042POPC   GL228226   7.856  39.828   9.052
 2042POPC   C1A28227   8.086  39.916   8.621
 2042POPC   D2A28228   8.488  39.906   8.449
 2042POPC   C3A28229   8.457  40.197   8.136
 2042POPC   C4A28230   8.157  40.102   7.794
 2042POPC   C1B28231   7.584  39.763   8.743
 2042POPC   C2B28232   7.657  39.589   8.384
 2042POPC   C3B28233   7.915  39.822   8.137
 2042POPC   C4B28234   7.760  39.762   7.746
 2043POPC   NC328235  35.150  19.818   9.610
 2043POPC   PO428236  35.772  19.895   9.383
 2043POPC   GL128237  35.408  20.021   9.196
 2043POPC   GL228238  35.276  19.673   9.153
 2043POPC   C1A28239  35.426  19.979   8.771
 2043POPC   D2A28240  35.508  19.753   8.390
 2043POPC   C3A28241  35.647  19.958   8.045
 2043POPC   C4A28242  35.451  19.951   7.657
 2043POPC   C1B28243  35.265  19.502   8.770
 2043POPC   C2B28244  35.055  19.510   8.351
 2043POPC   C3B28245  35.180  19.596   7.922
 2043POPC   C4B28246  35.158  19.514   7.408
 2044POPC   NC328247  41.850  30.443   9.382
 2044POPC   PO428248  41.551  31.030   9.530
 2044POPC   GL128249  41.566  30.834   9.093
 2044POPC   GL228250  41.918  30.726   8.965
 2044POPC   C1A28251  41.532  30.710   8.628
 2044POPC   D2A28252  41.240  30.573   8.311
 2044POPC   C3A28253  41.346  30.480   7.905
 2044POPC   C4A28254  41.578  30.641   7.579
 2044POPC   C1B28255  41.838  30.301   8.731
 2044POPC   C2B28256  41.755  30.356   8.302
 2044POPC   C3B28257  41.775  30.743   8.061
 2044POPC   C4B28258  42.041  30.824   7.699
 2045POPC   NC328259  10.314  35.264   9.479
 2045POPC   PO428260  10.886  35.552   9.361
 2045POPC   GL128261  10.845  35.114   9.127
 2045POPC   GL228262  10.498  35.015   9.077
 2045POPC   C1A28263  10.811  35.002   8.657
 2045POPC   D2A28264  10.826  35.332   8.350
 2045POPC   C3A28265  10.699  35.273   7.922
 2045POPC   C4A28266  10.710  35.660   7.793
 2045POPC   C1B28267  10.391  35.261   8.749
 2045POPC   C2B28268  10.355  35.172   8.325
 2045POPC   C3B28269  10.287  35.534   8.096
 2045POPC   C4B28270  10.106  35.727   7.758
 2046POPC   NC328271  17.641   3.149   9.829
 2046POPC   PO428272  17.821   3.603   9.344
 2046POPC   GL128273  17.547   3.478   9.052
 2046POPC   GL228274  17.203   3.433   9.171
 2046POPC   C1A28275  17.566   3.574   8.623
 2046POPC   D2A28276  17.402   3.359   8.267
 2046POPC   C3A28277  17.653   3.482   7.911
 2046POPC   C4A28278  17.933   3.412   7.587
 2046POPC   C1B28279  17.089   3.549   8.751
 2046POPC   C2B28280  17.070   3.757   8.355
 2046POPC   C3B28281  17.094   3.671   7.954
 2046POPC   C4B28282  17.211   3.289   7.786
 2047POPC   NC328283  34.396  21.148   9.454
 2047POPC   PO428284  34.341  21.812   9.531
 2047POPC   GL128285  34.443  21.561   9.147
 2047POPC   GL228286  34.731  21.436   9.110
 2047POPC   C1A28287  34.421  21.241   8.781
 2047POPC   D2A28288  34.368  21.459   8.390
 2047POPC   C3A28289  34.443  21.225   8.050
 2047POPC   C4A28290  34.601  21.029   7.740
 2047POPC   C1B28291  34.815  21.563   8.704
 2047POPC   C2B28292  34.872  21.324   8.351
 2047POPC   C3B28293  34.951  20.990   8.102
 2047POPC   C4B28294  35.145  20.943   7.753
 2048POPC   NC328295  31.025  23.903   9.852
 2048POPC   PO428296  30.586  23.590   9.499
 2048POPC   GL128297  30.749  23.793   9.168
 2048POPC   GL228298  31.095  23.836   9.269
 2048POPC   C1A28299  30.612  23.614   8.776
 2048POPC   D2A28300  30.316  23.675   8.458
 2048POPC   C3A28301  30.571  23.700   8.095
 2048POPC   C4A28302  30.633  23.362   7.841
 2048POPC   C1B28303  31.120  23.761   8.805
 2048POPC   C2B28304  30.998  23.528   8.424
 2048POPC   C3B28305  31.096  23.499   8.001
 2048POPC   C4B28306  30.915  23.793   7.709
 2049POPC   NC328307  43.507  30.634   9.518
 2049POPC   PO428308  44.176  30.504   9.542
 2049POPC   GL128309  44.005  30.530   9.146
 2049POPC   GL228310  43.704  30.352   9.137
 2049POPC   C1A28311  44.077  30.612   8.710
 2049POPC   D2A28312  43.980  30.648   8.289
 2049POPC   C3A28313  44.040  30.606   7.866
 2049POPC   C4A28314  44.075  30.502   7.437
 2049POPC   C1B28315  43.540  30.626   8.828
 2049POPC   C2B28316  43.517  30.821   8.445
 2049POPC   C3B28317  43.510  30.610   8.062
 2049POPC   C4B28318  43.583  30.748   7.658
 2050POPC   NC328319  42.558  41.742   9.420
 2050POPC   PO428320  42.114  41.341   9.749
 2050POPC   GL128321  42.045  41.564   9.266
 2050POPC   GL228322  42.188  41.868   9.108
 2050POPC   C1A28323  42.096  41.487   8.787
 2050POPC   D2A28324  42.124  41.761   8.454
 2050POPC   C3A28325  42.106  41.513   8.111
 2050POPC   C4A28326  42.177  41.314   7.728
 2050POPC   C1B28327  42.535  41.752   8.781
 2050POPC   C2B28328  42.620  41.403   8.492
 2050POPC   C3B28329  42.594  41.437   8.022
 2050POPC   C4B28330  42.566  41.651   7.606
 2051POPC   NC328331   7.518  37.102   9.588
 2051POPC   PO428332   7.811  36.512   9.624
 2051POPC   GL128333   7.749  36.722   9.158
 2051POPC   GL228334   7.406  36.938   9.132
 2051POPC   C1A28335   7.496  36.653   8.750
 2051POPC   D2A28336   7.361  36.944   8.430
 2051POPC   C3A28337   7.572  36.764   8.096
 2051POPC   C4A28338   7.437  36.837   7.693
 2051POPC   C1B28339   7.708  37.116   8.804
 2051POPC   C2B28340   7.791  37.189   8.343
 2051POPC   C3B28341   7.527  37.275   7.989
 2051POPC   C4B28342   7.620  37.287   7.556
 2052POPC   NC328343  40.715   3.127   9.444
 2052POPC   PO428344  41.091   2.521   9.402
 2052POPC   GL128345  40.795   2.730   9.132
 2052POPC   GL228346  40.992   2.993   9.023
 2052POPC   C1A28347  40.572   2.853   8.715
 2052POPC   D2A28348  40.584   3.109   8.301
 2052POPC   C3A28349  40.761   2.847   7.949
 2052POPC   C4A28350  40.653   2.465   7.738
 2052POPC   C1B28351  41.054   2.636   8.713
 2052POPC   C2B28352  41.090   2.667   8.288
 2052POPC   C3B28353  41.131   2.467   7.909
 2052POPC   C4B28354  41.115   2.480   7.472
 2053POPC   NC328355  42.539   9.545   9.440
 2053POPC   PO428356  42.049  10.005   9.401
 2053POPC   GL128357  42.169   9.812   9.070
 2053POPC   GL228358  42.484   9.942   9.074
 2053POPC   C1A28359  42.231   9.696   8.666
 2053POPC   D2A28360  41.991   9.538   8.343
 2053POPC   C3A28361  42.201   9.677   7.987
 2053POPC   C4A28362  42.619   9.519   7.859
 2053POPC   C1B28363  42.580  10.111   8.661
 2053POPC   C2B28364  42.505  10.004   8.238
 2053POPC   C3B28365  42.525  10.026   7.791
 2053POPC   C4B28366  42.383  10.319   7.490
 2054POPC   NC328367   9.920   7.766   9.387
 2054POPC   PO428368   9.603   8.284   9.690
 2054POPC   GL128369   9.666   8.212   9.230
 2054POPC   GL228370   9.388   8.403   9.143
 2054POPC   C1A28371   9.873   8.171   8.802
 2054POPC   D2A28372   9.789   7.939   8.439
 2054POPC   C3A28373   9.859   8.193   8.092
 2054POPC   C4A28374   9.909   8.299   7.691
 2054POPC   C1B28375   9.373   8.178   8.753
 2054POPC   C2B28376   9.419   8.320   8.319
 2054POPC   C3B28377   9.405   8.171   7.875
 2054POPC   C4B28378   9.380   8.316   7.412
 2055POPC   NC328379   1.056   1.504   9.617
 2055POPC   PO428380   1.692   1.290   9.533
 2055POPC   GL128381   1.331   1.266   9.255
 2055POPC   GL228382   1.105   1.011   9.412
 2055POPC   C1A28383   1.345   1.337   8.814
 2055POPC   D2A28384   1.503   1.113   8.444
 2055POPC   C3A28385   1.353   1.284   8.047
 2055POPC   C4A28386   1.013   1.457   7.802
 2055POPC   C1B28387   1.010   0.972   8.984
 2055POPC   C2B28388   1.019   1.036   8.543
 2055POPC   C3B28389   0.922   1.030   8.103
 2055POPC   C4B28390   0.976   0.922   7.672
 2056POPC   NC328391  15.041   7.181   9.510
 2056POPC   PO428392  15.600   6.865   9.326
 2056POPC   GL128393  15.352   7.203   9.106
 2056POPC   GL228394  14.990   7.341   9.035
 2056POPC   C1A28395  15.337   7.317   8.683
 2056POPC   D2A28396  15.484   7.382   8.312
 2056POPC   C3A28397  15.109   7.320   8.096
 2056POPC   C4A28398  15.271   7.261   7.736
 2056POPC   C1B28399  14.787   7.446   8.646
 2056POPC   C2B28400  14.635   7.615   8.272
 2056POPC   C3B28401  14.842   7.738   7.878
 2056POPC   C4B28402  14.980   7.588   7.448
 2057POPC   NC328403   3.772  18.075   9.288
 2057POPC   PO428404   4.364  18.330   9.528
 2057POPC   GL128405   4.285  18.220   9.097
 2057POPC   GL228406   3.993  18.431   8.984
 2057POPC   C1A28407   4.594  18.317   8.750
 2057POPC   D2A28408   4.748  18.461   8.346
 2057POPC   C3A28409   4.442  18.346   8.048
 2057POPC   C4A28410   4.411  18.038   7.693
 2057POPC   C1B28411   4.097  18.225   8.588
 2057POPC   C2B28412   4.126  17.984   8.205
 2057POPC   C3B28413   3.970  18.227   7.848
 2057POPC   C4B28414   3.916  18.050   7.438
 2058POPC   NC328415  30.326  12.934   9.422
 2058POPC   PO428416  29.720  12.899   9.490
 2058POPC   GL128417  29.876  12.813   9.102
 2058POPC   GL228418  30.106  13.083   9.005
 2058POPC   C1A28419  29.812  12.867   8.667
 2058POPC   D2A28420  30.022  12.964   8.312
 2058POPC   C3A28421  29.875  12.790   7.965
 2058POPC   C4A28422  29.729  12.876   7.588
 2058POPC   C1B28423  30.232  13.291   8.645
 2058POPC   C2B28424  30.445  13.223   8.238
 2058POPC   C3B28425  30.174  13.172   7.857
 2058POPC   C4B28426  30.126  13.103   7.421
 2059POPC   NC328427  32.729  29.910   9.567
 2059POPC   PO428428  33.146  30.360   9.873
 2059POPC   GL128429  33.172  30.053   9.383
 2059POPC   GL228430  33.043  29.735   9.189
 2059POPC   C1A28431  33.133  30.139   8.915
 2059POPC   D2A28432  33.129  29.854   8.569
 2059POPC   C3A28433  33.144  30.127   8.219
 2059POPC   C4A28434  33.348  30.056   7.831
 2059POPC   C1B28435  32.710  29.837   8.882
 2059POPC   C2B28436  32.646  29.902   8.413
 2059POPC   C3B28437  32.790  29.889   7.963
 2059POPC   C4B28438  32.887  30.271   7.717
 2060POPC   NC328439  25.527  29.189   9.474
 2060POPC   PO428440  24.964  29.514   9.565
 2060POPC   GL128441  25.052  29.287   9.191
 2060POPC   GL228442  25.289  29.045   9.045
 2060POPC   C1A28443  25.075  29.418   8.775
 2060POPC   D2A28444  25.240  29.477   8.390
 2060POPC   C3A28445  25.357  29.154   8.129
 2060POPC   C4A28446  25.229  29.161   7.727
 2060POPC   C1B28447  25.588  28.766   8.862
 2060POPC   C2B28448  25.602  28.794   8.425
 2060POPC   C3B28449  25.766  28.819   8.016
 2060POPC   C4B28450  25.694  28.908   7.568
 2061POPC   NC328451   5.836  28.735   9.489
 2061POPC   PO428452   6.014  29.366   9.405
 2061POPC   GL128453   5.845  29.111   9.133
 2061POPC   GL228454   5.495  29.164   9.135
 2061POPC   C1A28455   5.784  29.006   8.726
 2061POPC   D2A28456   5.773  29.283   8.400
 2061POPC   C3A28457   5.642  29.052   8.087
 2061POPC   C4A28458   5.713  28.991   7.677
 2061POPC   C1B28459   5.536  29.505   8.807
 2061POPC   C2B28460   5.573  29.763   8.399
 2061POPC   C3B28461   5.677  29.582   7.975
 2061POPC   C4B28462   5.384  29.382   7.699
 2062POPC   NC328463  40.155  11.842   9.874
 2062POPC   PO428464  39.549  12.099   9.769
 2062POPC   GL128465  39.735  12.068   9.325
 2062POPC   GL228466  40.110  11.977   9.239
 2062POPC   C1A28467  39.767  12.290   8.920
 2062POPC   D2A28468  39.760  12.423   8.481
 2062POPC   C3A28469  40.056  12.243   8.253
 2062POPC   C4A28470  40.283  12.125   7.912
 2062POPC   C1B28471  40.073  11.894   8.758
 2062POPC   C2B28472  40.038  11.734   8.288
 2062POPC   C3B28473  40.372  11.642   7.955
 2062POPC   C4B28474  40.431  11.784   7.505
 2063POPC   NC328475   1.245  14.141   9.577
 2063POPC   PO428476   1.232  14.840   9.568
 2063POPC   GL128477   1.340  14.543   9.232
 2063POPC   GL228478   1.018  14.591   9.093
 2063POPC   C1A28479   1.566  14.596   8.821
 2063POPC   D2A28480   1.411  14.733   8.397
 2063POPC   C3A28481   1.564  14.514   8.011
 2063POPC   C4A28482   1.511  14.386   7.567
 2063POPC   C1B28483   1.087  14.402   8.713
 2063POPC   C2B28484   0.967  14.467   8.281
 2063POPC   C3B28485   1.093  14.667   7.886
 2063POPC   C4B28486   1.420  14.883   7.655
 2064POPC   NC328487  20.447  38.945   9.873
 2064POPC   PO428488  20.894  38.450   9.641
 2064POPC   GL128489  20.666  38.394   9.231
 2064POPC   GL228490  20.365  38.158   9.221
 2064POPC   C1A28491  20.473  38.619   8.853
 2064POPC   D2A28492  20.284  38.496   8.448
 2064POPC   C3A28493  20.212  38.707   8.019
 2064POPC   C4A28494  20.556  38.726   7.750
 2064POPC   C1B28495  20.503  38.096   8.793
 2064POPC   C2B28496  20.418  37.998   8.369
 2064POPC   C3B28497  20.496  38.285   8.029
 2064POPC   C4B28498  20.620  38.255   7.601
 2065POPC   NC328499  21.017  24.268   9.373
 2065POPC   PO428500  21.581  24.606   9.466
 2065POPC   GL128501  21.478  24.323   9.139
 2065POPC   GL228502  21.688  24.068   9.208
 2065POPC   C1A28503  21.352  24.331   8.711
 2065POPC   D2A28504  21.356  24.720   8.523
 2065POPC   C3A28505  21.409  24.751   8.087
 2065POPC   C4A28506  21.218  24.724   7.677
 2065POPC   C1B28507  21.850  24.223   8.787
 2065POPC   C2B28508  21.799  24.442   8.375
 2065POPC   C3B28509  21.674  24.333   7.970
 2065POPC   C4B28510  21.258  24.225   7.867
 2066POPC   NC328511  16.039  43.535   9.356
 2066POPC   PO428512  16.410  44.087   9.515
 2066POPC   GL128513  16.257  44.175   9.129
 2066POPC   GL228514  15.933  43.989   9.090
 2066POPC   C1A28515  16.151  44.329   8.707
 2066POPC   D2A28516  16.258  44.100   8.345
 2066POPC   C3A28517  16.078  44.076   7.954
 2066POPC   C4A28518  16.097  43.750   7.623
 2066POPC   C1B28519  15.642  44.169   8.771
 2066POPC   C2B28520  15.684  44.171   8.312
 2066POPC   C3B28521  15.628  43.833   7.987
 2066POPC   C4B28522  15.583  43.864   7.520
 2067POPC   NC328523  11.405  14.189   9.648
 2067POPC   PO428524  10.767  14.387   9.824
 2067POPC   GL128525  11.050  14.358   9.352
 2067POPC   GL228526  11.036  14.054   9.211
 2067POPC   C1A28527  11.416  14.297   8.968
 2067POPC   D2A28528  11.342  14.143   8.496
 2067POPC   C3A28529  11.487  14.319   8.078
 2067POPC   C4A28530  11.377  14.629   7.754
 2067POPC   C1B28531  10.937  14.322   8.826
 2067POPC   C2B28532  10.819  14.271   8.427
 2067POPC   C3B28533  10.980  14.134   8.065
 2067POPC   C4B28534  10.972  14.307   7.694
 2068POPC   NC328535  42.629  39.054   9.265
 2068POPC   PO428536  42.245  39.583   9.454
 2068POPC   GL128537  42.346  39.452   9.048
 2068POPC   GL228538  42.195  39.113   8.952
 2068POPC   C1A28539  42.235  39.545   8.632
 2068POPC   D2A28540  41.972  39.224   8.444
 2068POPC   C3A28541  42.070  39.131   8.016
 2068POPC   C4A28542  42.115  39.504   7.767
 2068POPC   C1B28543  42.478  39.086   8.607
 2068POPC   C2B28544  42.638  39.377   8.324
 2068POPC   C3B28545  42.587  39.255   7.894
 2068POPC   C4B28546  42.602  38.946   7.568
 2069POPC   NC328547  37.194  44.891   9.659
 2069POPC   PO428548  36.663  44.514   9.660
 2069POPC   GL128549  36.785  44.749   9.313
 2069POPC   GL228550  37.100  44.633   9.235
 2069POPC   C1A28551  36.753  44.535   8.881
 2069POPC   D2A28552  36.846  44.321   8.471
 2069POPC   C3A28553  36.730  44.542   8.067
 2069POPC   C4A28554  36.830  44.961   7.855
 2069POPC   C1B28555  37.199  44.809   8.788
 2069POPC   C2B28556  37.118  44.803   8.315
 2069POPC   C3B28557  37.299  44.803   7.892
 2069POPC   C4B28558  37.200  44.843   7.447
 2070POPC   NC328559  32.441  36.700   9.558
 2070POPC   PO428560  32.525  37.294   9.312
 2070POPC   GL128561  32.327  36.949   9.106
 2070POPC   GL228562  32.177  36.605   9.120
 2070POPC   C1A28563  32.237  37.038   8.701
 2070POPC   D2A28564  32.013  37.015   8.339
 2070POPC   C3A28565  32.235  37.153   8.014
 2070POPC   C4A28566  32.094  37.108   7.573
 2070POPC   C1B28567  32.409  36.544   8.772
 2070POPC   C2B28568  32.386  36.673   8.345
 2070POPC   C3B28569  32.220  36.647   7.915
 2070POPC   C4B28570  32.245  36.635   7.454
 2071POPC   NC328571  31.788  19.393   9.329
 2071POPC   PO428572  31.705  18.732   9.430
 2071POPC   GL128573  31.495  19.008   9.167
 2071POPC   GL228574  31.177  18.867   9.202
 2071POPC   C1A28575  31.551  19.206   8.754
 2071POPC   D2A28576  31.516  19.400   8.367
 2071POPC   C3A28577  31.671  19.188   8.059
 2071POPC   C4A28578  31.400  19.161   7.721
 2071POPC   C1B28579  31.323  18.718   8.793
 2071POPC   C2B28580  31.393  18.850   8.388
 2071POPC   C3B28581  31.487  18.707   7.979
 2071POPC   C4B28582  31.321  18.688   7.558
 2072POPC   NC328583   1.178  27.796   9.605
 2072POPC   PO428584   1.664  27.551   9.228
 2072POPC   GL128585   1.256  27.442   9.207
 2072POPC   GL228586   1.080  27.729   9.124
 2072POPC   C1A28587   1.112  27.314   8.815
 2072POPC   D2A28588   1.039  27.460   8.426
 2072POPC   C3A28589   1.286  27.368   8.070
 2072POPC   C4A28590   1.389  27.625   7.705
 2072POPC   C1B28591   1.259  27.819   8.758
 2072POPC   C2B28592   1.089  27.962   8.376
 2072POPC   C3B28593   0.975  27.787   7.997
 2072POPC   C4B28594   0.753  28.051   7.764
 2073POPC   NC328595  19.360  27.759   9.376
 2073POPC   PO428596  18.868  27.435   9.614
 2073POPC   GL128597  18.939  27.462   9.210
 2073POPC   GL228598  19.195  27.257   9.102
 2073POPC   C1A28599  18.935  27.622   8.807
 2073POPC   D2A28600  19.111  27.635   8.398
 2073POPC   C3A28601  18.878  27.653   8.009
 2073POPC   C4A28602  18.877  27.808   7.586
 2073POPC   C1B28603  19.444  27.461   8.776
 2073POPC   C2B28604  19.531  27.330   8.369
 2073POPC   C3B28605  19.385  27.508   7.985
 2073POPC   C4B28606  19.307  27.543   7.568
 2074POPC   NC328607   9.287  12.249   9.393
 2074POPC   PO428608   9.877  12.621   9.421
 2074POPC   GL128609   9.871  12.716   9.011
 2074POPC   GL228610   9.663  13.022   8.990
 2074POPC   C1A28611  10.023  12.902   8.653
 2074POPC   D2A28612   9.767  12.917   8.298
 2074POPC   C3A28613   9.958  12.825   7.926
 2074POPC   C4A28614   9.985  13.140   7.622
 2074POPC   C1B28615   9.402  12.695   8.791
 2074POPC   C2B28616   9.425  12.520   8.379
 2074POPC   C3B28617   9.401  12.615   7.943
 2074POPC   C4B28618   9.607  12.780   7.565
 2075POPC   NC328619   6.509  40.216   9.431
 2075POPC   PO428620   6.137  40.813   9.575
 2075POPC   GL128621   6.265  41.010   9.155
 2075POPC   GL228622   6.474  40.687   9.156
 2075POPC   C1A28623   6.528  41.003   8.774
 2075POPC   D2A28624   6.555  40.811   8.417
 2075POPC   C3A28625   6.836  40.843   8.108
 2075POPC   C4A28626   6.629  41.007   7.771
 2075POPC   C1B28627   6.487  40.420   8.784
 2075POPC   C2B28628   6.676  40.339   8.374
 2075POPC   C3B28629   6.521  40.441   8.002
 2075POPC   C4B28630   6.281  40.238   7.678
 2076POPC   NC328631  44.900  37.991   9.542
 2076POPC   PO428632  44.518  37.602   9.854
 2076POPC   GL128633  44.553  37.654   9.331
 2076POPC   GL228634  44.358  37.920   9.209
 2076POPC   C1A28635  44.511  37.513   8.847
 2076POPC   D2A28636  44.837  37.551   8.501
 2076POPC   C3A28637  44.779  37.788   8.088
 2076POPC   C4A28638  44.509  37.700   7.770
 2076POPC   C1B28639  44.709  37.953   8.915
 2076POPC   C2B28640  44.579  37.992   8.517
 2076POPC   C3B28641  44.302  38.094   8.197
 2076POPC   C4B28642  44.529  38.201   7.831
 2077POPC   NC328643   2.613  12.492   9.622
 2077POPC   PO428644   3.113  12.966   9.477
 2077POPC   GL128645   2.932  12.970   9.114
 2077POPC   GL228646   2.665  12.733   9.148
 2077POPC   C1A28647   2.804  13.005   8.728
 2077POPC   D2A28648   2.688  13.013   8.335
 2077POPC   C3A28649   2.865  12.814   7.991
 2077POPC   C4A28650   2.648  13.079   7.741
 2077POPC   C1B28651   2.410  12.683   8.726
 2077POPC   C2B28652   2.243  12.782   8.284
 2077POPC   C3B28653   2.403  12.599   7.875
 2077POPC   C4B28654   2.731  12.596   7.522
 2078POPC   NC328655  32.237  33.970   9.543
 2078POPC   PO428656  32.160  33.337   9.541
 2078POPC   GL128657  32.104  33.541   9.135
 2078POPC   GL228658  32.095  33.942   9.066
 2078POPC   C1A28659  32.178  33.601   8.702
 2078POPC   D2A28660  32.141  33.936   8.400
 2078POPC   C3A28661  32.282  33.682   8.118
 2078POPC   C4A28662  32.182  33.529   7.731
 2078POPC   C1B28663  32.369  34.178   8.776
 2078POPC   C2B28664  32.440  34.347   8.347
 2078POPC   C3B28665  32.626  34.087   8.038
 2078POPC   C4B28666  32.314  34.008   7.730
 2079POPC   NC328667  29.858  24.870   9.606
 2079POPC   PO428668  30.390  25.238   9.488
 2079POPC   GL128669  29.995  25.257   9.195
 2079POPC   GL228670  29.624  25.085   9.223
 2079POPC   C1A28671  30.050  25.548   8.834
 2079POPC   D2A28672  30.267  25.525   8.453
 2079POPC   C3A28673  30.047  25.528   8.092
 2079POPC   C4A28674  29.942  25.652   7.737
 2079POPC   C1B28675  29.587  25.322   8.864
 2079POPC   C2B28676  29.777  25.300   8.477
 2079POPC   C3B28677  29.599  25.305   8.092
 2079POPC   C4B28678  29.752  25.178   7.706
 2080POPC   NC328679   2.069   1.563   9.448
 2080POPC   PO428680   2.528   0.973   9.408
 2080POPC   GL128681   2.208   1.156   9.167
 2080POPC   GL228682   2.419   1.423   9.088
 2080POPC   C1A28683   1.883   1.141   8.831
 2080POPC   D2A28684   1.999   1.004   8.414
 2080POPC   C3A28685   1.832   1.114   8.009
 2080POPC   C4A28686   1.563   1.021   7.653
 2080POPC   C1B28687   2.242   1.493   8.730
 2080POPC   C2B28688   2.350   1.388   8.338
 2080POPC   C3B28689   2.190   1.517   7.978
 2080POPC   C4B28690   1.970   1.445   7.622
 2081POPC   NC328691  32.160  18.591   9.409
 2081POPC   PO428692  32.333  19.383   9.559
 2081POPC   GL128693  32.251  19.322   9.111
 2081POPC   GL228694  32.045  19.005   9.127
 2081POPC   C1A28695  32.109  19.224   8.669
 2081POPC   D2A28696  32.204  19.184   8.216
 2081POPC   C3A28697  32.123  19.332   7.830
 2081POPC   C4A28698  32.386  19.030   7.696
 2081POPC   C1B28699  31.826  18.785   8.799
 2081POPC   C2B28700  31.904  18.830   8.394
 2081POPC   C3B28701  32.025  18.733   7.989
 2081POPC   C4B28702  31.856  18.942   7.651
 2082POPC   NC328703  24.078  36.817   9.563
 2082POPC   PO428704  24.781  37.117   9.734
 2082POPC   GL128705  24.629  37.027   9.267
 2082POPC   GL228706  24.293  36.909   9.112
 2082POPC   C1A28707  24.637  37.123   8.782
 2082POPC   D2A28708  24.834  37.050   8.344
 2082POPC   C3A28709  24.593  36.960   7.969
 2082POPC   C4A28710  24.548  36.723   7.558
 2082POPC   C1B28711  24.388  36.674   8.728
 2082POPC   C2B28712  24.249  36.760   8.305
 2082POPC   C3B28713  24.113  36.678   7.855
 2082POPC   C4B28714  24.051  36.577   7.406
 2083POPC   NC328715  14.389   1.717   9.682
 2083POPC   PO428716  14.294   2.314   9.529
 2083POPC   GL128717  14.300   2.014   9.196
 2083POPC   GL228718  14.541   1.783   9.198
 2083POPC   C1A28719  14.239   1.909   8.792
 2083POPC   D2A28720  14.372   2.041   8.401
 2083POPC   C3A28721  14.213   1.897   8.017
 2083POPC   C4A28722  14.400   2.062   7.661
 2083POPC   C1B28723  14.697   1.636   8.802
 2083POPC   C2B28724  14.807   1.763   8.414
 2083POPC   C3B28725  14.764   1.902   7.998
 2083POPC   C4B28726  14.806   1.765   7.565
 2084POPC   NC328727  25.635  15.159   9.603
 2084POPC   PO428728  26.340  15.354   9.547
 2084POPC   GL128729  26.064  15.099   9.249
 2084POPC   GL228730  25.851  15.332   9.142
 2084POPC   C1A28731  25.948  15.010   8.787
 2084POPC   D2A28732  26.160  15.092   8.405
 2084POPC   C3A28733  26.302  15.001   8.004
 2084POPC   C4A28734  26.008  14.956   7.689
 2084POPC   C1B28735  25.981  15.514   8.749
 2084POPC   C2B28736  25.747  15.539   8.365
 2084POPC   C3B28737  25.907  15.359   8.013
 2084POPC   C4B28738  26.180  15.421   7.662
 2085POPC   NC328739   3.497  13.244   9.516
 2085POPC   PO428740   3.100  13.707   9.316
 2085POPC   GL128741   3.330  13.406   9.049
 2085POPC   GL228742   3.636  13.577   9.157
 2085POPC   C1A28743   3.669  13.326   8.715
 2085POPC   D2A28744   3.883  13.487   8.328
 2085POPC   C3A28745   3.587  13.596   7.983
 2085POPC   C4A28746   3.607  13.507   7.496
 2085POPC   C1B28747   3.828  13.810   8.819
 2085POPC   C2B28748   3.742  13.976   8.423
 2085POPC   C3B28749   3.717  14.143   8.043
 2085POPC   C4B28750   3.664  13.975   7.664
 2086POPC   NC328751   5.074  39.646   9.728
 2086POPC   PO428752   5.333  40.218   9.557
 2086POPC   GL128753   5.132  40.108   9.219
 2086POPC   GL228754   4.850  39.887   9.327
 2086POPC   C1A28755   5.247  40.172   8.800
 2086POPC   D2A28756   5.176  39.941   8.422
 2086POPC   C3A28757   5.128  40.206   8.048
 2086POPC   C4A28758   5.286  40.092   7.632
 2086POPC   C1B28759   4.895  39.777   8.891
 2086POPC   C2B28760   4.882  39.506   8.542
 2086POPC   C3B28761   4.968  39.559   8.097
 2086POPC   C4B28762   4.843  39.862   7.792
 2087POPC   NC328763  14.357  33.484   9.537
 2087POPC   PO428764  14.672  34.152   9.552
 2087POPC   GL128765  14.461  34.044   9.179
 2087POPC   GL228766  14.316  33.721   9.090
 2087POPC   C1A28767  14.376  34.174   8.765
 2087POPC   D2A28768  14.348  34.222   8.293
 2087POPC   C3A28769  14.111  33.962   7.986
 2087POPC   C4A28770  14.051  34.107   7.546
 2087POPC   C1B28771  14.642  33.427   8.892
 2087POPC   C2B28772  14.866  33.531   8.524
 2087POPC   C3B28773  14.908  33.567   8.109
 2087POPC   C4B28774  14.606  33.573   7.795
 2088POPC   NC328775  35.917  14.750   9.698
 2088POPC   PO428776  36.101  15.366   9.410
 2088POPC   GL128777  36.102  15.237   9.012
 2088POPC   GL228778  36.427  15.401   8.975
 2088POPC   C1A28779  35.846  15.269   8.644
 2088POPC   D2A28780  35.900  15.447   8.239
 2088POPC   C3A28781  35.780  15.147   7.921
 2088POPC   C4A28782  35.817  15.237   7.491
 2088POPC   C1B28783  36.354  15.240   8.557
 2088POPC   C2B28784  36.163  15.011   8.253
 2088POPC   C3B28785  36.257  14.972   7.821
 2088POPC   C4B28786  36.305  15.080   7.405
 2089POPC   NC328787  25.929   9.133   9.604
 2089POPC   PO428788  26.429   9.176   9.175
 2089POPC   GL128789  25.965   9.250   9.106
 2089POPC   GL228790  25.820   8.927   9.161
 2089POPC   C1A28791  25.926   9.330   8.693
 2089POPC   D2A28792  26.343   9.134   8.562
 2089POPC   C3A28793  26.423   9.195   8.146
 2089POPC   C4A28794  26.113   9.135   7.823
 2089POPC   C1B28795  25.978   8.825   8.781
 2089POPC   C2B28796  25.885   8.945   8.337
 2089POPC   C3B28797  25.836   8.710   7.948
 2089POPC   C4B28798  25.836   8.821   7.490
 2090POPC   NC328799  23.066  14.866   9.419
 2090POPC   PO428800  22.981  15.553   9.610
 2090POPC   GL128801  23.130  15.358   9.256
 2090POPC   GL228802  22.827  15.258   9.166
 2090POPC   C1A28803  23.209  15.237   8.817
 2090POPC   D2A28804  23.023  15.346   8.425
 2090POPC   C3A28805  23.099  15.088   8.086
 2090POPC   C4A28806  23.351  15.221   7.761
 2090POPC   C1B28807  22.701  15.104   8.772
 2090POPC   C2B28808  22.473  15.200   8.407
 2090POPC   C3B28809  22.600  15.083   7.996
 2090POPC   C4B28810  22.877  15.195   7.627
 2091POPC   NC328811  19.279  44.870   9.510
 2091POPC   PO428812  18.633  44.724   9.706
 2091POPC   GL128813  18.910  44.601   9.274
 2091POPC   GL228814  19.199  44.393   9.149
 2091POPC   C1A28815  19.112  44.780   8.853
 2091POPC   D2A28816  19.278  44.860   8.434
 2091POPC   C3A28817  19.067  44.845   8.008
 2091POPC   C4A28818  18.897   0.175   7.720
 2091POPC   C1B28819  18.900  44.326   8.752
 2091POPC   C2B28820  18.823  44.327   8.278
 2091POPC   C3B28821  19.079  44.338   7.884
 2091POPC   C4B28822  19.040  44.259   7.419
 2092POPC   NC328823  17.316   2.460   9.472
 2092POPC   PO428824  17.509   1.933   9.848
 2092POPC   GL128825  17.538   2.018   9.326
 2092POPC   GL228826  17.482   1.742   9.103
 2092POPC   C1A28827  17.309   2.174   8.869
 2092POPC   D2A28828  17.242   2.355   8.427
 2092POPC   C3A28829  17.474   2.077   8.125
 2092POPC   C4A28830  17.642   2.142   7.720
 2092POPC   C1B28831  17.611   1.834   8.646
 2092POPC   C2B28832  17.988   1.838   8.395
 2092POPC   C3B28833  17.952   1.818   7.979
 2092POPC   C4B28834  17.818   1.677   7.597
 2093POPC   NC328835  16.373  42.936   9.538
 2093POPC   PO428836  15.868  43.249   9.680
 2093POPC   GL128837  15.988  43.014   9.221
 2093POPC   GL228838  16.302  43.123   9.058
 2093POPC   C1A28839  15.730  42.833   8.851
 2093POPC   D2A28840  15.604  43.050   8.473
 2093POPC   C3A28841  15.836  42.856   8.163
 2093POPC   C4A28842  16.015  42.907   7.776
 2093POPC   C1B28843  16.146  43.032   8.614
 2093POPC   C2B28844  16.248  43.168   8.160
 2093POPC   C3B28845  16.342  43.302   7.719
 2093POPC   C4B28846  16.209  43.345   7.264
 2094POPC   NC328847  19.372  29.211   9.429
 2094POPC   PO428848  20.041  29.161   9.466
 2094POPC   GL128849  19.787  28.973   9.171
 2094POPC   GL228850  19.734  29.317   9.062
 2094POPC   C1A28851  19.795  28.900   8.714
 2094POPC   D2A28852  19.996  29.054   8.327
 2094POPC   C3A28853  19.960  28.886   7.877
 2094POPC   C4A28854  20.060  28.777   7.422
 2094POPC   C1B28855  19.507  29.317   8.687
 2094POPC   C2B28856  19.524  29.263   8.254
 2094POPC   C3B28857  19.667  29.289   7.862
 2094POPC   C4B28858  20.010  29.531   7.679
 2095POPC   NC328859  37.295  36.116   9.774
 2095POPC   PO428860  37.898  36.062   9.505
 2095POPC   GL128861  37.679  36.069   9.143
 2095POPC   GL228862  37.542  36.362   9.236
 2095POPC   C1A28863  37.503  35.885   8.768
 2095POPC   D2A28864  37.544  36.057   8.372
 2095POPC   C3A28865  37.713  35.856   8.031
 2095POPC   C4A28866  37.406  35.694   7.756
 2095POPC   C1B28867  37.525  36.426   8.797
 2095POPC   C2B28868  37.457  36.555   8.379
 2095POPC   C3B28869  37.806  36.421   8.115
 2095POPC   C4B28870  38.021  36.336   7.763
 2096POPC   NC328871  42.246  31.909   9.542
 2096POPC   PO428872  42.512  31.309   9.601
 2096POPC   GL128873  42.397  31.451   9.230
 2096POPC   GL228874  42.588  31.766   9.192
 2096POPC   C1A28875  42.143  31.256   8.921
 2096POPC   D2A28876  42.233  31.319   8.497
 2096POPC   C3A28877  42.186  31.161   8.075
 2096POPC   C4A28878  42.199  31.427   7.709
 2096POPC   C1B28879  42.788  31.813   8.806
 2096POPC   C2B28880  42.500  31.772   8.487
 2096POPC   C3B28881  42.289  31.692   8.133
 2096POPC   C4B28882  42.567  31.749   7.797
 2097POPC   NC328883  30.389  18.709   9.546
 2097POPC   PO428884  30.015  18.123   9.503
 2097POPC   GL128885  30.175  18.334   9.144
 2097POPC   GL228886  30.243  18.005   8.985
 2097POPC   C1A28887  30.051  18.387   8.702
 2097POPC   D2A28888  29.953  18.203   8.295
 2097POPC   C3A28889  30.025  18.438   7.928
 2097POPC   C4A28890  29.670  18.374   7.704
 2097POPC   C1B28891  30.015  17.809   8.634
 2097POPC   C2B28892  30.131  17.726   8.193
 2097POPC   C3B28893  29.994  17.915   7.782
 2097POPC   C4B28894  30.228  17.915   7.392
 2098POPC   NC328895  29.711  14.743   9.564
 2098POPC   PO428896  29.679  15.385   9.711
 2098POPC   GL128897  29.831  15.237   9.314
 2098POPC   GL228898  29.631  15.033   9.143
 2098POPC   C1A28899  29.755  15.441   8.894
 2098POPC   D2A28900  29.800  15.568   8.477
 2098POPC   C3A28901  29.812  15.254   8.182
 2098POPC   C4A28902  29.896  15.517   7.869
 2098POPC   C1B28903  29.740  14.896   8.732
 2098POPC   C2B28904  29.648  14.637   8.364
 2098POPC   C3B28905  29.583  14.768   7.939
 2098POPC   C4B28906  29.637  15.140   7.701
 2099POPC   NC328907  14.821  10.486   9.563
 2099POPC   PO428908  15.355  10.792   9.736
 2099POPC   GL128909  15.254  10.632   9.295
 2099POPC   GL228910  14.993  10.843   9.249
 2099POPC   C1A28911  15.249  10.440   8.817
 2099POPC   D2A28912  15.482  10.544   8.384
 2099POPC   C3A28913  15.212  10.543   8.024
 2099POPC   C4A28914  14.792  10.532   7.998
 2099POPC   C1B28915  15.171  10.949   8.871
 2099POPC   C2B28916  15.049  10.797   8.480
 2099POPC   C3B28917  15.044  11.045   8.144
 2099POPC   C4B28918  14.963  10.940   7.762
 2100POPC   NC328919   0.044  28.506   9.563
 2100POPC   PO428920   0.583  28.723   9.352
 2100POPC   GL128921   0.509  28.304   9.143
 2100POPC   GL228922   0.834  28.161   8.998
 2100POPC   C1A28923   0.439  28.196   8.708
 2100POPC   D2A28924   0.620  28.340   8.340
 2100POPC   C3A28925   0.349  28.258   8.034
 2100POPC   C4A28926   0.262  28.085   7.655
 2100POPC   C1B28927   0.826  28.577   8.776
 2100POPC   C2B28928   0.963  28.733   8.385
 2100POPC   C3B28929   1.030  28.453   8.064
 2100POPC   C4B28930   0.704  28.554   7.763
 2101POPC   NC328931  27.338  42.505   9.396
 2101POPC   PO428932  28.000  42.525   9.309
 2101POPC   GL128933  27.681  42.342   9.019
 2101POPC   GL228934  27.519  42.041   9.166
 2101POPC   C1A28935  27.476  42.462   8.626
 2101POPC   D2A28936  27.410  42.586   8.206
 2101POPC   C3A28937  27.777  42.436   8.013
 2101POPC   C4A28938  27.913  42.316   7.609
 2101POPC   C1B28939  27.166  42.142   8.848
 2101POPC   C2B28940  27.014  42.251   8.459
 2101POPC   C3B28941  27.064  42.165   8.065
 2101POPC   C4B28942  27.334  42.298   7.767
 2102POPC   NC328943  15.250  26.588   9.361
 2102POPC   PO428944  14.843  27.102   9.467
 2102POPC   GL128945  14.994  26.873   9.053
 2102POPC   GL228946  14.923  26.493   9.000
 2102POPC   C1A28947  15.288  26.896   8.699
 2102POPC   D2A28948  15.407  27.162   8.329
 2102POPC   C3A28949  15.351  26.992   7.911
 2102POPC   C4A28950  14.933  26.861   7.842
 2102POPC   C1B28951  14.845  26.620   8.577
 2102POPC   C2B28952  15.158  26.668   8.259
 2102POPC   C3B28953  15.296  26.486   7.869
 2102POPC   C4B28954  15.113  26.431   7.448
 2103POPC   NC328955  23.292   3.443   9.479
 2103POPC   PO428956  23.975   3.624   9.509
 2103POPC   GL128957  23.647   3.664   9.161
 2103POPC   GL228958  23.699   3.322   9.010
 2103POPC   C1A28959  23.560   3.715   8.721
 2103POPC   D2A28960  23.492   3.370   8.425
 2103POPC   C3A28961  23.705   3.397   8.031
 2103POPC   C4A28962  23.652   3.314   7.589
 2103POPC   C1B28963  24.054   3.632   8.840
 2103POPC   C2B28964  24.057   3.871   8.447
 2103POPC   C3B28965  24.060   3.788   8.018
 2103POPC   C4B28966  23.846   3.767   7.659
 2104POPC   NC328967  15.892  18.987   9.459
 2104POPC   PO428968  15.562  18.446   9.216
 2104POPC   GL128969  15.778  18.793   8.973
 2104POPC   GL228970  16.130  18.973   9.016
 2104POPC   C1A28971  15.895  18.957   8.558
 2104POPC   D2A28972  15.873  19.278   8.250
 2104POPC   C3A28973  15.884  19.085   7.863
 2104POPC   C4A28974  15.930  18.680   7.751
 2104POPC   C1B28975  16.394  18.893   8.634
 2104POPC   C2B28976  16.286  18.861   8.195
 2104POPC   C3B28977  16.399  18.887   7.766
 2104POPC   C4B28978  16.284  18.731   7.348
 2105POPC   NC328979  28.740  18.626   9.471
 2105POPC   PO428980  28.150  18.338   9.438
 2105POPC   GL128981  28.490  18.192   9.165
 2105POPC   GL228982  28.770  18.386   9.041
 2105POPC   C1A28983  28.554  18.006   8.764
 2105POPC   D2A28984  28.364  17.911   8.351
 2105POPC   C3A28985  28.485  18.166   7.971
 2105POPC   C4A28986  28.200  18.454   7.696
 2105POPC   C1B28987  28.540  18.518   8.700
 2105POPC   C2B28988  28.233  18.442   8.390
 2105POPC   C3B28989  28.440  18.682   8.094
 2105POPC   C4B28990  28.741  18.603   7.813
 2106POPC   NC328991  29.208  21.680   9.517
 2106POPC   PO428992  29.076  22.375   9.569
 2106POPC   GL128993  29.232  22.322   9.182
 2106POPC   GL228994  29.061  22.004   9.078
 2106POPC   C1A28995  29.169  22.488   8.785
 2106POPC   D2A28996  29.350  22.373   8.417
 2106POPC   C3A28997  29.414  22.643   8.093
 2106POPC   C4A28998  29.223  22.457   7.762
 2106POPC   C1B28999  29.461  22.011   8.822
 2106POPC   C2B29000  29.612  21.945   8.360
 2106POPC   C3B29001  29.483  22.019   7.895
 2106POPC   C4B29002  29.568  21.762   7.499
 2107POPC   NC329003  36.232  38.160   9.604
 2107POPC   PO429004  35.717  38.543   9.561
 2107POPC   GL129005  35.733  38.679   9.147
 2107POPC   GL229006  35.715  38.344   9.054
 2107POPC   C1A29007  36.097  38.678   8.855
 2107POPC   D2A29008  36.347  38.468   8.534
 2107POPC   C3A29009  36.287  38.476   8.070
 2107POPC   C4A29010  36.423  38.412   7.630
 2107POPC   C1B29011  35.888  38.246   8.665
 2107POPC   C2B29012  35.825  38.533   8.368
 2107POPC   C3B29013  35.768  38.514   7.945
 2107POPC   C4B29014  35.982  38.144   7.780
 2108POPC   NC329015  36.120  37.175   9.476
 2108POPC   PO429016  36.320  36.603   9.389
 2108POPC   GL129017  36.053  36.815   9.086
 2108POPC   GL229018  35.872  37.142   9.041
 2108POPC   C1A29019  36.221  36.931   8.700
 2108POPC   D2A29020  36.345  36.675   8.359
 2108POPC   C3A29021  36.289  36.930   8.029
 2108POPC   C4A29022  36.268  36.754   7.679
 2108POPC   C1B29023  35.711  36.884   8.708
 2108POPC   C2B29024  35.859  36.888   8.300
 2108POPC   C3B29025  35.800  36.774   7.894
 2108POPC   C4B29026  35.827  36.880   7.447
 2109POPC   NC329027  29.685  12.439   9.449
 2109POPC   PO429028  30.444  12.496   9.404
 2109POPC   GL129029  30.111  12.336   9.173
 2109POPC   GL229030  29.908  12.032   9.185
 2109POPC   C1A29031  29.895  12.387   8.802
 2109POPC   D2A29032  29.946  12.458   8.376
 2109POPC   C3A29033  29.700  12.336   8.012
 2109POPC   C4A29034  29.760  12.353   7.609
 2109POPC   C1B29035  29.911  11.905   8.705
 2109POPC   C2B29036  29.943  11.947   8.244
 2109POPC   C3B29037  29.574  11.855   7.963
 2109POPC   C4B29038  29.541  11.829   7.526
 2110POPC   NC329039  14.805  34.835   9.544
 2110POPC   PO429040  15.316  34.421   9.642
 2110POPC   GL129041  15.183  34.577   9.265
 2110POPC   GL229042  14.938  34.336   9.150
 2110POPC   C1A29043  15.312  34.797   8.889
 2110POPC   D2A29044  15.089  34.833   8.508
 2110POPC   C3A29045  15.215  34.798   8.069
 2110POPC   C4A29046  15.235  34.709   7.641
 2110POPC   C1B29047  15.181  34.309   8.785
 2110POPC   C2B29048  15.235  34.356   8.350
 2110POPC   C3B29049  15.235  34.294   7.926
 2110POPC   C4B29050  15.520  34.264   7.611
 2111POPC   NC329051   5.142   6.467   9.577
 2111POPC   PO429052   4.932   7.014   9.797
 2111POPC   GL129053   5.109   6.855   9.237
 2111POPC   GL229054   5.168   6.473   9.075
 2111POPC   C1A29055   4.871   6.667   8.760
 2111POPC   D2A29056   5.033   6.498   8.363
 2111POPC   C3A29057   4.802   6.670   7.987
 2111POPC   C4A29058   4.744   6.864   7.585
 2111POPC   C1B29059   5.409   6.656   8.716
 2111POPC   C2B29060   5.548   6.532   8.290
 2111POPC   C3B29061   5.299   6.543   7.923
 2111POPC   C4B29062   5.082   6.477   7.560
 2112POPC   NC329063  29.810  43.902   9.537
 2112POPC   PO429064  30.436  44.096   9.793
 2112POPC   GL129065  29.992  44.321   9.346
 2112POPC   GL229066  29.639  44.196   9.166
 2112POPC   C1A29067  30.007  44.280   8.839
 2112POPC   D2A29068  29.687  44.190   8.492
 2112POPC   C3A29069  29.833  44.151   8.049
 2112POPC   C4A29070  30.179  43.996   7.778
 2112POPC   C1B29071  29.780  43.827   8.863
 2112POPC   C2B29072  30.075  43.834   8.485
 2112POPC   C3B29073  30.034  43.639   8.083
 2112POPC   C4B29074  29.768  43.501   7.739
 2113POPC   NC329075  10.986  21.640   9.722
 2113POPC   PO429076  11.590  21.337   9.528
 2113POPC   GL129077  11.337  21.396   9.180
 2113POPC   GL229078  11.198  21.731   9.237
 2113POPC   C1A29079  11.220  21.181   8.789
 2113POPC   D2A29080  10.977  21.230   8.419
 2113POPC   C3A29081  11.252  21.279   8.100
 2113POPC   C4A29082  11.394  21.277   7.685
 2113POPC   C1B29083  11.303  21.733   8.777
 2113POPC   C2B29084  11.370  21.741   8.320
 2113POPC   C3B29085  11.300  21.745   7.871
 2113POPC   C4B29086  11.095  21.624   7.499
 2114POPC   NC329087   9.451  40.752   9.532
 2114POPC   PO429088   8.722  40.695   9.521
 2114POPC   GL129089   9.014  40.673   9.205
 2114POPC   GL229090   8.720  40.557   9.010
 2114POPC   C1A29091   9.191  40.656   8.769
 2114POPC   D2A29092   9.151  40.945   8.401
 2114POPC   C3A29093   9.179  40.915   7.956
 2114POPC   C4A29094   9.137  41.292   7.691
 2114POPC   C1B29095   8.809  40.277   8.680
 2114POPC   C2B29096   9.029  40.418   8.312
 2114POPC   C3B29097   8.929  40.451   7.888
 2114POPC   C4B29098   8.856  40.486   7.450
 2115POPC   NC329099  10.943   5.937   9.506
 2115POPC   PO429100  11.575   5.544   9.535
 2115POPC   GL129101  11.339   5.763   9.241
 2115POPC   GL229102  11.488   6.027   9.100
 2115POPC   C1A29103  11.199   5.691   8.840
 2115POPC   D2A29104  11.319   5.690   8.423
 2115POPC   C3A29105  11.065   5.735   8.066
 2115POPC   C4A29106  11.068   5.559   7.681
 2115POPC   C1B29107  11.686   5.952   8.724
 2115POPC   C2B29108  11.599   6.110   8.318
 2115POPC   C3B29109  11.581   5.867   7.971
 2115POPC   C4B29110  11.581   6.059   7.593
 2116POPC   NC329111  20.612   6.310   9.405
 2116POPC   PO429112  20.251   5.762   9.461
 2116POPC   GL129113  20.621   5.834   9.150
 2116POPC   GL229114  20.814   6.138   8.986
 2116POPC   C1A29115  20.579   5.699   8.731
 2116POPC   D2A29116  20.230   5.584   8.471
 2116POPC   C3A29117  20.300   5.646   8.054
 2116POPC   C4A29118  20.592   5.689   7.729
 2116POPC   C1B29119  20.946   6.033   8.593
 2116POPC   C2B29120  20.795   5.915   8.191
 2116POPC   C3B29121  21.058   5.834   7.840
 2116POPC   C4B29122  21.052   5.967   7.409
 2117POPC   NC329123  20.953   7.492   9.490
 2117POPC   PO429124  20.311   7.461   9.561
 2117POPC   GL129125  20.466   7.241   9.201
 2117POPC   GL229126  20.827   7.231   9.064
 2117POPC   C1A29127  20.414   7.084   8.786
 2117POPC   D2A29128  20.668   7.125   8.430
 2117POPC   C3A29129  20.452   7.229   8.038
 2117POPC   C4A29130  20.121   7.451   7.804
 2117POPC   C1B29131  21.139   7.196   8.693
 2117POPC   C2B29132  21.133   7.019   8.251
 2117POPC   C3B29133  20.928   7.164   7.846
 2117POPC   C4B29134  20.969   7.410   7.454
 2118POPC   NC329135  44.162   2.965   9.651
 2118POPC   PO429136  44.740   2.697   9.655
 2118POPC   GL129137  44.816   2.697   9.210
 2118POPC   GL229138  44.479   2.592   9.110
 2118POPC   C1A29139  44.817   2.931   8.806
 2118POPC   D2A29140  44.641   3.029   8.385
 2118POPC   C3A29141  44.843   3.125   7.993
 2118POPC   C4A29142  44.827   2.873   7.598
 2118POPC   C1B29143  44.303   2.745   8.711
 2118POPC   C2B29144  44.191   2.791   8.284
 2118POPC   C3B29145  44.449   2.789   7.943
 2118POPC   C4B29146  44.576   2.400   7.726
 2119POPC   NC329147   5.614  22.674   9.508
 2119POPC   PO429148   5.929  21.979   9.496
 2119POPC   GL129149   5.839  22.316   9.228
 2119POPC   GL229150   6.124  22.287   9.044
 2119POPC   C1A29151   5.697  22.378   8.787
 2119POPC   D2A29152   5.951  22.199   8.434
 2119POPC   C3A29153   5.846  22.231   7.989
 2119POPC   C4A29154   6.006  22.258   7.516
 2119POPC   C1B29155   5.839  21.913   8.866
 2119POPC   C2B29156   5.711  21.748   8.463
 2119POPC   C3B29157   5.800  21.580   8.071
 2119POPC   C4B29158   5.839  21.824   7.697
 2120POPC   NC329159  41.504   4.577   9.473
 2120POPC   PO429160  41.622   3.887   9.553
 2120POPC   GL129161  41.544   4.135   9.190
 2120POPC   GL229162  41.811   4.365   9.146
 2120POPC   C1A29163  41.373   4.323   8.797
 2120POPC   D2A29164  41.504   4.559   8.426
 2120POPC   C3A29165  41.358   4.463   8.010
 2120POPC   C4A29166  41.370   4.088   7.786
 2120POPC   C1B29167  41.858   4.565   8.792
 2120POPC   C2B29168  42.015   4.474   8.421
 2120POPC   C3B29169  41.858   4.338   8.050
 2120POPC   C4B29170  41.783   4.485   7.693
 2121POPC   NC329171   9.746  41.918   9.617
 2121POPC   PO429172   9.492  41.263   9.557
 2121POPC   GL129173   9.539  41.505   9.195
 2121POPC   GL229174   9.828  41.700   9.160
 2121POPC   C1A29175   9.464  41.582   8.763
 2121POPC   D2A29176   9.624  41.414   8.393
 2121POPC   C3A29177   9.593  41.731   8.105
 2121POPC   C4A29178   9.592  41.637   7.684
 2121POPC   C1B29179   9.991  41.502   8.791
 2121POPC   C2B29180  10.103  41.622   8.364
 2121POPC   C3B29181  10.028  41.526   7.934
 2121POPC   C4B29182  10.052  41.683   7.499
 2122POPC   NC329183  36.418  17.492   9.438
 2122POPC   PO429184  36.005  17.055   9.664
 2122POPC   GL129185  35.984  17.365   9.176
 2122POPC   GL229186  36.159  17.664   9.047
 2122POPC   C1A29187  36.101  17.328   8.679
 2122POPC   D2A29188  36.410  17.188   8.317
 2122POPC   C3A29189  36.269  17.195   7.864
 2122POPC   C4A29190  35.947  17.348   7.544
 2122POPC   C1B29191  36.169  17.877   8.654
 2122POPC   C2B29192  36.249  17.698   8.301
 2122POPC   C3B29193  36.019  17.614   7.974
 2122POPC   C4B29194  35.937  17.847   7.614
 2123POPC   NC329195  25.392  27.534   9.534
 2123POPC   PO429196  25.479  28.119   9.579
 2123POPC   GL129197  25.487  27.899   9.188
 2123POPC   GL229198  25.135  27.818   9.162
 2123POPC   C1A29199  25.436  27.678   8.768
 2123POPC   D2A29200  25.202  27.753   8.409
 2123POPC   C3A29201  25.332  27.766   7.966
 2123POPC   C4A29202  25.137  27.879   7.574
 2123POPC   C1B29203  24.959  27.516   8.849
 2123POPC   C2B29204  25.056  27.193   8.539
 2123POPC   C3B29205  25.106  27.329   8.129
 2123POPC   C4B29206  24.887  27.487   7.811
 2124POPC   NC329207   6.159  32.113   9.894
 2124POPC   PO429208   5.678  32.442   9.521
 2124POPC   GL129209   5.793  32.156   9.208
 2124POPC   GL229210   5.497  32.263   9.003
 2124POPC   C1A29211   5.962  32.192   8.781
 2124POPC   D2A29212   5.638  32.230   8.470
 2124POPC   C3A29213   5.732  32.466   8.121
 2124POPC   C4A29214   5.870  32.658   7.787
 2124POPC   C1B29215   5.590  31.846   8.829
 2124POPC   C2B29216   5.491  31.723   8.383
 2124POPC   C3B29217   5.497  31.994   7.995
 2124POPC   C4B29218   5.864  32.155   7.737
 2125POPC   NC329219   6.081  31.120   9.480
 2125POPC   PO429220   5.934  31.712   9.725
 2125POPC   GL129221   5.861  31.587   9.232
 2125POPC   GL229222   5.719  31.262   9.135
 2125POPC   C1A29223   6.056  31.604   8.765
 2125POPC   D2A29224   5.943  31.455   8.328
 2125POPC   C3A29225   6.128  31.218   7.981
 2125POPC   C4A29226   6.240  31.389   7.565
 2125POPC   C1B29227   5.630  31.331   8.719
 2125POPC   C2B29228   5.514  31.185   8.312
 2125POPC   C3B29229   5.646  31.268   7.902
 2125POPC   C4B29230   5.871  31.654   7.842
 2126POPC   NC329231  39.367   8.686   9.547
 2126POPC   PO429232  39.179   9.299   9.427
 2126POPC   GL129233  39.242   8.946   9.113
 2126POPC   GL229234  39.591   8.775   9.095
 2126POPC   C1A29235  39.312   9.020   8.674
 2126POPC   D2A29236  39.067   9.196   8.341
 2126POPC   C3A29237  39.169   9.055   7.938
 2126POPC   C4A29238  39.538   9.138   7.694
 2126POPC   C1B29239  39.724   8.674   8.667
 2126POPC   C2B29240  39.459   8.698   8.282
 2126POPC   C3B29241  39.476   8.651   7.834
 2126POPC   C4B29242  39.513   8.542   7.398
 2127POPC   NC329243  37.386  26.323   9.627
 2127POPC   PO429244  36.926  25.939   9.706
 2127POPC   GL129245  36.932  26.116   9.255
 2127POPC   GL229246  36.672  26.339   9.185
 2127POPC   C1A29247  36.888  26.143   8.758
 2127POPC   D2A29248  36.953  26.004   8.305
 2127POPC   C3A29249  37.204  26.173   7.939
 2127POPC   C4A29250  37.426  25.886   7.632
 2127POPC   C1B29251  36.504  25.897   8.977
 2127POPC   C2B29252  36.599  25.719   8.542
 2127POPC   C3B29253  36.498  25.849   8.107
 2127POPC   C4B29254  36.690  26.195   7.864
 2128POPC   NC329255   4.332   8.851   9.639
 2128POPC   PO429256   4.679   9.437   9.555
 2128POPC   GL129257   4.413   9.142   9.212
 2128POPC   GL229258   4.202   8.776   9.156
 2128POPC   C1A29259   4.556   8.892   8.826
 2128POPC   D2A29260   4.443   8.951   8.413
 2128POPC   C3A29261   4.600   8.892   8.022
 2128POPC   C4A29262   4.280   9.039   7.723
 2128POPC   C1B29263   4.050   8.772   8.733
 2128POPC   C2B29264   3.913   8.897   8.308
 2128POPC   C3B29265   3.840   9.173   7.954
 2128POPC   C4B29266   3.798   9.106   7.510
 2129POPC   NC329267  42.697  30.494   9.407
 2129POPC   PO429268  43.175  31.003   9.522
 2129POPC   GL129269  43.181  30.797   9.151
 2129POPC   GL229270  43.154  30.479   9.157
 2129POPC   C1A29271  43.102  30.966   8.779
 2129POPC   D2A29272  42.990  30.805   8.434
 2129POPC   C3A29273  43.151  30.973   8.077
 2129POPC   C4A29274  42.976  30.828   7.713
 2129POPC   C1B29275  42.950  30.416   8.786
 2129POPC   C2B29276  43.141  30.329   8.406
 2129POPC   C3B29277  42.944  30.434   8.042
 2129POPC   C4B29278  43.219  30.380   7.705
 2130POPC   NC329279  15.123  11.189   9.655
 2130POPC   PO429280  14.999  11.798   9.331
 2130POPC   GL129281  15.300  11.502   9.135
 2130POPC   GL229282  15.446  11.163   9.263
 2130POPC   C1A29283  15.339  11.485   8.706
 2130POPC   D2A29284  15.469  11.747   8.397
 2130POPC   C3A29285  15.331  11.571   8.017
 2130POPC   C4A29286  15.280  11.314   7.678
 2130POPC   C1B29287  15.652  11.125   8.855
 2130POPC   C2B29288  15.507  11.079   8.418
 2130POPC   C3B29289  15.528  10.952   7.988
 2130POPC   C4B29290  15.439  10.812   7.583
 2131POPC   NC329291  21.237  35.755   9.479
 2131POPC   PO429292  21.756  35.368   9.479
 2131POPC   GL129293  21.385  35.323   9.177
 2131POPC   GL229294  21.010  35.395   9.203
 2131POPC   C1A29295  21.339  35.142   8.762
 2131POPC   D2A29296  21.520  34.985   8.379
 2131POPC   C3A29297  21.502  35.248   8.069
 2131POPC   C4A29298  21.286  35.132   7.750
 2131POPC   C1B29299  21.115  35.624   8.824
 2131POPC   C2B29300  21.235  35.574   8.384
 2131POPC   C3B29301  21.110  35.596   7.931
 2131POPC   C4B29302  21.171  35.750   7.487
 2132POPC   NC329303  13.229   8.525   9.311
 2132POPC   PO429304  13.749   8.815   9.541
 2132POPC   GL129305  13.791   8.842   9.114
 2132POPC   GL229306  13.453   8.849   8.967
 2132POPC   C1A29307  13.887   9.059   8.735
 2132POPC   D2A29308  13.590   9.301   8.494
 2132POPC   C3A29309  13.552   9.073   8.131
 2132POPC   C4A29310  13.903   9.001   7.896
 2132POPC   C1B29311  13.294   8.617   8.604
 2132POPC   C2B29312  13.362   8.595   8.158
 2132POPC   C3B29313  13.176   8.857   7.819
 2132POPC   C4B29314  13.209   8.867   7.328
 2133POPC   NC329315   3.680  41.083   9.605
 2133POPC   PO429316   3.281  40.496   9.502
 2133POPC   GL129317   3.434  40.762   9.206
 2133POPC   GL229318   3.772  40.721   9.177
 2133POPC   C1A29319   3.482  40.930   8.786
 2133POPC   D2A29320   3.630  41.065   8.401
 2133POPC   C3A29321   3.466  40.939   8.026
 2133POPC   C4A29322   3.317  40.741   7.677
 2133POPC   C1B29323   3.986  40.967   8.839
 2133POPC   C2B29324   4.110  40.906   8.404
 2133POPC   C3B29325   3.976  41.046   8.005
 2133POPC   C4B29326   3.826  40.852   7.643
 2134POPC   NC329327  11.680  20.184   9.556
 2134POPC   PO429328  12.184  20.671   9.595
 2134POPC   GL129329  12.264  20.729   9.170
 2134POPC   GL229330  11.955  20.549   9.089
 2134POPC   C1A29331  12.201  20.913   8.746
 2134POPC   D2A29332  11.958  20.861   8.372
 2134POPC   C3A29333  12.182  20.931   7.953
 2134POPC   C4A29334  12.419  20.713   7.621
 2134POPC   C1B29335  11.835  20.467   8.654
 2134POPC   C2B29336  11.925  20.357   8.211
 2134POPC   C3B29337  11.977  20.470   7.776
 2134POPC   C4B29338  11.890  20.531   7.312
 2135POPC   NC329339  29.374  13.182   9.601
 2135POPC   PO429340  28.770  13.161   9.317
 2135POPC   GL129341  29.176  13.076   9.144
 2135POPC   GL229342  29.342  12.755   9.164
 2135POPC   C1A29343  29.247  13.009   8.742
 2135POPC   D2A29344  28.940  13.016   8.506
 2135POPC   C3A29345  29.082  13.271   8.205
 2135POPC   C4A29346  28.964  13.097   7.827
 2135POPC   C1B29347  29.430  12.547   8.766
 2135POPC   C2B29348  29.458  12.692   8.309
 2135POPC   C3B29349  29.342  12.703   7.851
 2135POPC   C4B29350  29.349  12.623   7.382
 2136POPC   NC329351  20.628  25.166   9.580
 2136POPC   PO429352  20.583  25.822   9.444
 2136POPC   GL129353  20.519  25.526   9.109
 2136POPC   GL229354  20.700  25.191   9.087
 2136POPC   C1A29355  20.631  25.491   8.669
 2136POPC   D2A29356  20.793  25.436   8.269
 2136POPC   C3A29357  20.583  25.558   7.917
 2136POPC   C4A29358  20.305  25.274   7.726
 2136POPC   C1B29359  20.517  24.981   8.715
 2136POPC   C2B29360  20.375  24.717   8.385
 2136POPC   C3B29361  20.424  24.828   7.967
 2136POPC   C4B29362  20.755  24.956   7.702
 2137POPC   NC329363  38.909   4.692   9.432
 2137POPC   PO429364  39.087   4.066   9.399
 2137POPC   GL129365  39.291   4.387   9.119
 2137POPC   GL229366  39.667   4.497   9.154
 2137POPC   C1A29367  39.189   4.285   8.722
 2137POPC   D2A29368  38.925   4.262   8.392
 2137POPC   C3A29369  39.146   4.017   8.148
 2137POPC   C4A29370  39.262   4.217   7.844
 2137POPC   C1B29371  39.608   4.584   8.720
 2137POPC   C2B29372  39.459   4.440   8.313
 2137POPC   C3B29373  39.481   4.670   7.960
 2137POPC   C4B29374  39.655   4.438   7.662
 2138POPC   NC329375  44.130  37.750   9.649
 2138POPC   PO429376  43.480  37.415   9.528
 2138POPC   GL129377  43.581  37.667   9.157
 2138POPC   GL229378  43.823  37.940   9.223
 2138POPC   C1A29379  43.701  37.643   8.719
 2138POPC   D2A29380  43.736  37.559   8.305
 2138POPC   C3A29381  44.080  37.568   8.051
 2138POPC   C4A29382  43.942  37.509   7.630
 2138POPC   C1B29383  44.027  38.024   8.801
 2138POPC   C2B29384  43.772  38.074   8.419
 2138POPC   C3B29385  43.737  37.965   8.023
 2138POPC   C4B29386  44.065  37.987   7.759
 2139POPC   NC329387   9.319  35.359   9.497
 2139POPC   PO429388   9.926  35.314   9.698
 2139POPC   GL129389   9.841  35.436   9.279
 2139POPC   GL229390   9.992  35.173   9.076
 2139POPC   C1A29391   9.614  35.612   8.905
 2139POPC   D2A29392   9.474  35.368   8.544
 2139POPC   C3A29393   9.496  35.494   8.123
 2139POPC   C4A29394   9.722  35.397   7.766
 2139POPC   C1B29395   9.918  35.084   8.631
 2139POPC   C2B29396   9.873  35.101   8.180
 2139POPC   C3B29397  10.165  35.127   7.819
 2139POPC   C4B29398  10.015  35.191   7.393
 2140POPC   NC329399  18.569  13.260   9.507
 2140POPC   PO429400  17.969  13.076   9.467
 2140POPC   GL129401  18.005  13.102   9.077
 2140POPC   GL229402  18.357  13.019   9.092
 2140POPC   C1A29403  17.851  12.911   8.748
 2140POPC   D2A29404  17.830  12.956   8.346
 2140POPC   C3A29405  18.013  12.698   8.060
 2140POPC   C4A29406  18.298  12.898   7.794
 2140POPC   C1B29407  18.358  12.856   8.680
 2140POPC   C2B29408  18.351  13.060   8.298
 2140POPC   C3B29409  18.699  13.120   8.023
 2140POPC   C4B29410  18.760  12.960   7.617
 2141POPC   NC329411  13.018  38.635   9.517
 2141POPC   PO429412  13.198  38.029   9.510
 2141POPC   GL129413  12.961  38.242   9.177
 2141POPC   GL229414  12.689  38.493   9.147
 2141POPC   C1A29415  12.989  38.460   8.766
 2141POPC   D2A29416  13.083  38.395   8.375
 2141POPC   C3A29417  12.796  38.379   8.052
 2141POPC   C4A29418  13.003  38.666   7.790
 2141POPC   C1B29419  12.525  38.726   8.816
 2141POPC   C2B29420  12.659  38.768   8.412
 2141POPC   C3B29421  12.594  38.838   8.003
 2141POPC   C4B29422  12.403  38.551   7.762
 2142POPC   NC329423   9.400  21.497   9.470
 2142POPC   PO429424   8.851  21.138   9.463
 2142POPC   GL129425   9.035  21.252   9.132
 2142POPC   GL229426   9.386  21.100   9.151
 2142POPC   C1A29427   8.858  21.319   8.715
 2142POPC   D2A29428   8.600  21.144   8.359
 2142POPC   C3A29429   8.635  21.070   7.962
 2142POPC   C4A29430   8.606  21.428   7.716
 2142POPC   C1B29431   9.365  21.404   8.793
 2142POPC   C2B29432   9.177  21.594   8.428
 2142POPC   C3B29433   8.953  21.524   8.085
 2142POPC   C4B29434   9.078  21.251   7.799
 2143POPC   NC329435  44.962  21.126   9.358
 2143POPC   PO429436  44.483  21.567   9.560
 2143POPC   GL129437  44.687  21.517   9.161
 2143POPC   GL229438  44.382  21.557   9.011
 2143POPC   C1A29439  44.954  21.459   8.774
 2143POPC   D2A29440   0.076  21.659   8.388
 2143POPC   C3A29441  44.925  21.468   7.992
 2143POPC   C4A29442  44.541  21.614   7.770
 2143POPC   C1B29443  44.472  21.297   8.665
 2143POPC   C2B29444  44.615  21.159   8.287
 2143POPC   C3B29445  44.557  21.108   7.865
 2143POPC   C4B29446  44.776  21.187   7.525
 2144POPC   NC329447  13.530  20.093   9.509
 2144POPC   PO429448  13.575  19.436   9.721
 2144POPC   GL129449  13.524  19.595   9.228
 2144POPC   GL229450  13.809  19.525   9.044
 2144POPC   C1A29451  13.424  19.752   8.768
 2144POPC   D2A29452  13.234  19.757   8.321
 2144POPC   C3A29453  13.452  19.982   7.961
 2144POPC   C4A29454  13.464  19.877   7.466
 2144POPC   C1B29455  13.893  19.939   8.846
 2144POPC   C2B29456  13.733  20.132   8.475
 2144POPC   C3B29457  13.929  20.136   8.092
 2144POPC   C4B29458  13.904  19.986   7.680
 2145POPC   NC329459   3.670  34.530   9.517
 2145POPC   PO429460   4.002  34.876   8.985
 2145POPC   GL129461   3.623  34.743   9.069
 2145POPC   GL229462   3.437  35.015   9.241
 2145POPC   C1A29463   3.590  34.371   8.846
 2145POPC   D2A29464   3.749  34.445   8.438
 2145POPC   C3A29465   3.556  34.430   8.070
 2145POPC   C4A29466   3.627  34.640   7.717
 2145POPC   C1B29467   3.164  34.875   8.932
 2145POPC   C2B29468   3.280  34.673   8.546
 2145POPC   C3B29469   3.315  34.855   8.153
 2145POPC   C4B29470   3.145  34.805   7.793
 2146POPC   NC329471  10.834  11.430   9.431
 2146POPC   PO429472  10.411  10.908   9.492
 2146POPC   GL129473  10.544  11.124   9.128
 2146POPC   GL229474  10.430  11.454   9.063
 2146POPC   C1A29475  10.519  11.099   8.675
 2146POPC   D2A29476  10.462  11.245   8.236
 2146POPC   C3A29477  10.577  10.931   7.922
 2146POPC   C4A29478  10.509  10.821   7.497
 2146POPC   C1B29479  10.362  11.601   8.635
 2146POPC   C2B29480  10.562  11.770   8.243
 2146POPC   C3B29481  10.515  11.655   7.844
 2146POPC   C4B29482  10.276  11.330   7.747
 2147POPC   NC329483  37.268  43.182   9.566
 2147POPC   PO429484  37.880  43.456   9.575
 2147POPC   GL129485  37.727  43.215   9.225
 2147POPC   GL229486  37.404  43.355   9.120
 2147POPC   C1A29487  37.685  42.932   8.875
 2147POPC   D2A29488  37.877  42.694   8.536
 2147POPC   C3A29489  37.921  42.905   8.134
 2147POPC   C4A29490  37.762  42.751   7.726
 2147POPC   C1B29491  37.590  43.420   8.755
 2147POPC   C2B29492  37.469  43.372   8.374
 2147POPC   C3B29493  37.631  43.397   7.994
 2147POPC   C4B29494  37.667  43.254   7.613
 2148POPC   NC329495  22.001  24.450   9.359
 2148POPC   PO429496  22.517  24.439   9.776
 2148POPC   GL129497  22.499  24.452   9.263
 2148POPC   GL229498  22.249  24.727   9.048
 2148POPC   C1A29499  22.372  24.328   8.810
 2148POPC   D2A29500  22.267  24.649   8.495
 2148POPC   C3A29501  22.240  24.468   8.097
 2148POPC   C4A29502  22.514  24.237   7.875
 2148POPC   C1B29503  21.846  24.743   8.795
 2148POPC   C2B29504  21.827  24.943   8.370
 2148POPC   C3B29505  21.909  24.812   7.946
 2148POPC   C4B29506  22.316  24.756   7.683
 2149POPC   NC329507   0.182   0.887   9.976
 2149POPC   PO429508   0.711   1.221   9.715
 2149POPC   GL129509   0.606   1.112   9.285
 2149POPC   GL229510   0.775   1.386   9.187
 2149POPC   C1A29511   0.518   0.955   8.867
 2149POPC   D2A29512   0.516   1.165   8.479
 2149POPC   C3A29513   0.429   0.939   8.130
 2149POPC   C4A29514   0.154   1.029   7.796
 2149POPC   C1B29515   0.839   1.459   8.769
 2149POPC   C2B29516   0.885   1.496   8.316
 2149POPC   C3B29517   0.543   1.425   8.006
 2149POPC   C4B29518   0.562   1.248   7.578
 2150POPC   NC329519  11.060   0.205   9.558
 2150POPC   PO429520  11.359   0.698   9.627
 2150POPC   GL129521  11.108   0.609   9.242
 2150POPC   GL229522  11.389   0.428   9.134
 2150POPC   C1A29523  10.970   0.325   8.867
 2150POPC   D2A29524  11.104   0.203   8.419
 2150POPC   C3A29525  10.972   0.511   8.096
 2150POPC   C4A29526  10.981   0.513   7.639
 2150POPC   C1B29527  11.509   0.188   8.751
 2150POPC   C2B29528  11.521  44.883   8.393
 2150POPC   C3B29529  11.450   0.059   7.987
 2150POPC   C4B29530  11.671   0.420   7.797
 2151POPC   NC329531  15.938  20.779   9.619
 2151POPC   PO429532  15.570  20.226   9.442
 2151POPC   GL129533  15.776  20.508   9.192
 2151POPC   GL229534  15.840  20.867   9.130
 2151POPC   C1A29535  15.910  20.458   8.775
 2151POPC   D2A29536  16.000  20.342   8.357
 2151POPC   C3A29537  15.811  20.651   8.074
 2151POPC   C4A29538  15.739  20.570   7.692
 2151POPC   C1B29539  16.131  20.896   8.808
 2151POPC   C2B29540  16.333  20.715   8.464
 2151POPC   C3B29541  16.290  20.784   8.041
 2151POPC   C4B29542  16.160  20.884   7.631
 2152POPC   NC329543   7.805   5.058   9.818
 2152POPC   PO429544   7.343   5.258   9.452
 2152POPC   GL129545   7.388   5.277   9.044
 2152POPC   GL229546   7.290   5.008   8.864
 2152POPC   C1A29547   7.336   5.499   8.685
 2152POPC   D2A29548   7.525   5.656   8.325
 2152POPC   C3A29549   7.633   5.334   8.033
 2152POPC   C4A29550   7.379   5.242   7.678
 2152POPC   C1B29551   7.695   5.032   8.638
 2152POPC   C2B29552   7.715   4.845   8.237
 2152POPC   C3B29553   7.331   4.874   8.004
 2152POPC   C4B29554   7.244   4.744   7.564
 2153POPC   NC329555  35.037  39.359   9.471
 2153POPC   PO429556  34.326  39.202   9.513
 2153POPC   GL129557  34.582  39.316   9.183
 2153POPC   GL229558  34.781  38.994   9.139
 2153POPC   C1A29559  34.830  39.418   8.812
 2153POPC   D2A29560  34.872  39.208   8.405
 2153POPC   C3A29561  34.730  39.468   8.049
 2153POPC   C4A29562  34.636  39.354   7.624
 2153POPC   C1B29563  34.507  39.008   8.762
 2153POPC   C2B29564  34.344  39.203   8.388
 2153POPC   C3B29565  34.443  39.039   7.972
 2153POPC   C4B29566  34.440  38.883   7.540
 2154POPC   NC329567  10.595  27.925   9.660
 2154POPC   PO429568  10.293  27.430   9.405
 2154POPC   GL129569  10.396  27.788   9.188
 2154POPC   GL229570  10.730  27.765   9.201
 2154POPC   C1A29571  10.454  27.745   8.756
 2154POPC   D2A29572  10.267  27.748   8.380
 2154POPC   C3A29573  10.383  27.465   8.102
 2154POPC   C4A29574  10.251  27.461   7.709
 2154POPC   C1B29575  10.760  27.374   8.898
 2154POPC   C2B29576  10.785  27.408   8.440
 2154POPC   C3B29577  10.966  27.280   8.029
 2154POPC   C4B29578  10.752  27.565   7.776
 2155POPC   NC329579   7.084  33.771   9.436
 2155POPC   PO429580   7.617  34.227   9.367
 2155POPC   GL129581   7.619  33.773   9.163
 2155POPC   GL229582   7.289  33.624   9.000
 2155POPC   C1A29583   7.712  33.633   8.725
 2155POPC   D2A29584   7.465  33.580   8.293
 2155POPC   C3A29585   7.715  33.619   7.911
 2155POPC   C4A29586   7.742  33.577   7.463
 2155POPC   C1B29587   7.046  33.687   8.588
 2155POPC   C2B29588   6.971  34.028   8.275
 2155POPC   C3B29589   7.246  34.122   7.938
 2155POPC   C4B29590   7.356  33.872   7.566
 2156POPC   NC329591   2.986  11.564   9.625
 2156POPC   PO429592   2.966  12.282   9.815
 2156POPC   GL129593   2.844  12.230   9.276
 2156POPC   GL229594   2.777  11.850   9.230
 2156POPC   C1A29595   2.870  12.406   8.816
 2156POPC   D2A29596   2.682  12.490   8.353
 2156POPC   C3A29597   2.809  12.276   7.953
 2156POPC   C4A29598   3.119  12.242   7.631
 2156POPC   C1B29599   2.904  11.867   8.790
 2156POPC   C2B29600   3.090  11.720   8.372
 2156POPC   C3B29601   3.010  11.786   7.923
 2156POPC   C4B29602   2.621  11.799   7.694
 2157POPC   NC329603  20.905  12.619   9.621
 2157POPC   PO429604  20.700  13.204   9.422
 2157POPC   GL129605  20.473  12.979   9.126
 2157POPC   GL229606  20.750  12.744   9.141
 2157POPC   C1A29607  20.457  12.739   8.716
 2157POPC   D2A29608  20.548  12.545   8.306
 2157POPC   C3A29609  20.500  12.830   7.959
 2157POPC   C4A29610  20.468  12.925   7.512
 2157POPC   C1B29611  20.909  13.024   8.824
 2157POPC   C2B29612  20.849  12.928   8.419
 2157POPC   C3B29613  20.997  12.729   8.083
 2157POPC   C4B29614  20.963  12.979   7.726
 2158POPC   NC329615  34.231  39.742   9.537
 2158POPC   PO429616  34.984  39.843   9.544
 2158POPC   GL129617  34.837  40.079   9.203
 2158POPC   GL229618  34.550  39.865   9.132
 2158POPC   C1A29619  34.740  40.408   8.871
 2158POPC   D2A29620  34.795  40.504   8.445
 2158POPC   C3A29621  34.594  40.192   8.165
 2158POPC   C4A29622  34.586  39.927   7.796
 2158POPC   C1B29623  34.353  39.627   8.780
 2158POPC   C2B29624  34.301  39.729   8.336
 2158POPC   C3B29625  34.195  39.625   7.922
 2158POPC   C4B29626  34.300  39.689   7.450
 2159POPC   NC329627  13.196  10.773   9.482
 2159POPC   PO429628  12.874  10.217   9.653
 2159POPC   GL129629  12.825  10.168   9.216
 2159POPC   GL229630  12.848  10.514   9.174
 2159POPC   C1A29631  12.868  10.166   8.760
 2159POPC   D2A29632  12.713  10.352   8.390
 2159POPC   C3A29633  12.960  10.330   7.992
 2159POPC   C4A29634  12.852  10.320   7.546
 2159POPC   C1B29635  12.486  10.476   8.905
 2159POPC   C2B29636  12.277  10.708   8.592
 2159POPC   C3B29637  12.474  10.777   8.211
 2159POPC   C4B29638  12.492  10.490   7.887
 2160POPC   NC329639   8.954   9.206   9.409
 2160POPC   PO429640   8.970   8.492   9.480
 2160POPC   GL129641   8.984   8.745   9.139
 2160POPC   GL229642   9.298   8.916   9.151
 2160POPC   C1A29643   8.979   8.979   8.754
 2160POPC   D2A29644   8.854   8.993   8.335
 2160POPC   C3A29645   8.819   9.176   7.937
 2160POPC   C4A29646   8.758   9.131   7.508
 2160POPC   C1B29647   9.452   9.135   8.780
 2160POPC   C2B29648   9.387   8.888   8.406
 2160POPC   C3B29649   9.475   9.083   8.042
 2160POPC   C4B29650   9.292   9.137   7.662
 2161POPC   NC329651  10.401  25.600   9.576
 2161POPC   PO429652  11.055  25.372   9.548
 2161POPC   GL129653  10.858  25.414   9.122
 2161POPC   GL229654  10.523  25.503   9.085
 2161POPC   C1A29655  10.699  25.116   8.788
 2161POPC   D2A29656  10.429  25.102   8.410
 2161POPC   C3A29657  10.575  25.155   8.013
 2161POPC   C4A29658  10.453  24.897   7.727
 2161POPC   C1B29659  10.226  25.377   8.791
 2161POPC   C2B29660  10.087  25.531   8.401
 2161POPC   C3B29661  10.351  25.626   8.050
 2161POPC   C4B29662  10.327  25.403   7.642
 2162POPC   NC329663   2.316  23.338   9.259
 2162POPC   PO429664   2.923  23.178   9.513
 2162POPC   GL129665   2.858  22.807   9.207
 2162POPC   GL229666   2.496  22.866   9.204
 2162POPC   C1A29667   2.931  22.673   8.747
 2162POPC   D2A29668   3.035  22.998   8.401
 2162POPC   C3A29669   2.885  22.909   8.005
 2162POPC   C4A29670   2.871  22.490   7.878
 2162POPC   C1B29671   2.647  23.078   8.800
 2162POPC   C2B29672   2.526  23.035   8.400
 2162POPC   C3B29673   2.476  23.257   8.028
 2162POPC   C4B29674   2.641  23.316   7.617
 2163POPC   NC329675  20.638  23.963   9.754
 2163POPC   PO429676  20.130  23.502   9.609
 2163POPC   GL129677  20.488  23.680   9.300
 2163POPC   GL229678  20.594  24.022   9.165
 2163POPC   C1A29679  20.612  23.601   8.857
 2163POPC   D2A29680  20.656  23.795   8.440
 2163POPC   C3A29681  20.517  23.592   8.055
 2163POPC   C4A29682  20.686  23.383   7.693
 2163POPC   C1B29683  20.953  24.002   8.801
 2163POPC   C2B29684  21.114  24.009   8.352
 2163POPC   C3B29685  20.801  24.034   8.007
 2163POPC   C4B29686  20.603  23.931   7.632
 2164POPC   NC329687   7.809  38.842   9.588
 2164POPC   PO429688   7.348  38.284   9.440
 2164POPC   GL129689   7.339  38.470   9.073
 2164POPC   GL229690   7.491  38.770   9.178
 2164POPC   C1A29691   7.250  38.312   8.685
 2164POPC   D2A29692   7.081  38.201   8.322
 2164POPC   C3A29693   7.167  38.563   7.999
 2164POPC   C4A29694   7.347  38.694   7.584
 2164POPC   C1B29695   7.740  38.753   8.835
 2164POPC   C2B29696   7.519  38.694   8.457
 2164POPC   C3B29697   7.594  38.845   8.054
 2164POPC   C4B29698   7.815  38.901   7.703
 2165POPC   NC329699  26.444  11.638   9.520
 2165POPC   PO429700  26.678  12.324   9.567
 2165POPC   GL129701  26.665  12.061   9.220
 2165POPC   GL229702  26.443  12.275   9.108
 2165POPC   C1A29703  26.710  12.003   8.756
 2165POPC   D2A29704  26.593  11.824   8.344
 2165POPC   C3A29705  26.767  12.039   8.005
 2165POPC   C4A29706  26.952  12.037   7.613
 2165POPC   C1B29707  26.600  12.489   8.776
 2165POPC   C2B29708  26.778  12.450   8.388
 2165POPC   C3B29709  26.563  12.523   8.032
 2165POPC   C4B29710  26.619  12.426   7.666
 2166POPC   NC329711   0.541  21.865   9.436
 2166POPC   PO429712   0.092  22.306   9.501
 2166POPC   GL129713   0.317  22.228   9.142
 2166POPC   GL229714   0.613  22.366   9.295
 2166POPC   C1A29715   0.236  22.148   8.706
 2166POPC   D2A29716   0.334  22.079   8.266
 2166POPC   C3A29717   0.202  22.148   7.868
 2166POPC   C4A29718  44.967  21.855   7.634
 2166POPC   C1B29719   0.818  22.182   8.961
 2166POPC   C2B29720   0.748  22.076   8.564
 2166POPC   C3B29721   0.813  22.030   8.134
 2166POPC   C4B29722   0.740  22.028   7.755
 2167POPC   NC329723  19.996  31.650   9.595
 2167POPC   PO429724  19.346  31.481   9.947
 2167POPC   GL129725  19.590  31.335   9.437
 2167POPC   GL229726  19.639  31.601   9.198
 2167POPC   C1A29727  19.865  31.219   8.941
 2167POPC   D2A29728  20.109  31.287   8.534
 2167POPC   C3A29729  19.957  31.391   8.118
 2167POPC   C4A29730  19.929  31.209   7.707
 2167POPC   C1B29731  19.904  31.705   8.801
 2167POPC   C2B29732  20.064  31.844   8.367
 2167POPC   C3B29733  20.003  31.860   7.902
 2167POPC   C4B29734  19.669  31.652   7.682
 2168POPC   NC329735  26.506  41.044  10.086
 2168POPC   PO429736  26.311  41.507   9.592
 2168POPC   GL129737  26.281  41.675   9.198
 2168POPC   GL229738  26.211  41.330   9.076
 2168POPC   C1A29739  26.135  41.723   8.779
 2168POPC   D2A29740  26.212  41.387   8.505
 2168POPC   C3A29741  26.298  41.563   8.127
 2168POPC   C4A29742  26.117  41.759   7.782
 2168POPC   C1B29743  25.789  41.327   8.861
 2168POPC   C2B29744  25.593  41.378   8.467
 2168POPC   C3B29745  25.771  41.463   8.084
 2168POPC   C4B29746  26.024  41.272   7.788
 2169POPC   NC329747  13.438  36.978   9.577
 2169POPC   PO429748  13.970  36.588   9.342
 2169POPC   GL129749  13.735  36.890   9.152
 2169POPC   GL229750  13.400  36.773   9.137
 2169POPC   C1A29751  13.594  37.075   8.762
 2169POPC   D2A29752  13.757  37.057   8.342
 2169POPC   C3A29753  13.694  37.245   7.948
 2169POPC   C4A29754  13.668  36.938   7.670
 2169POPC   C1B29755  13.531  36.571   8.787
 2169POPC   C2B29756  13.427  36.611   8.386
 2169POPC   C3B29757  13.677  36.586   8.044
 2169POPC   C4B29758  13.607  36.445   7.636
 2170POPC   NC329759  43.065  16.474   9.439
 2170POPC   PO429760  43.586  16.798   9.555
 2170POPC   GL129761  43.308  16.918   9.176
 2170POPC   GL229762  42.958  16.847   9.101
 2170POPC   C1A29763  43.234  17.001   8.724
 2170POPC   D2A29764  42.915  17.026   8.402
 2170POPC   C3A29765  43.190  17.042   8.039
 2170POPC   C4A29766  43.340  16.753   7.765
 2170POPC   C1B29767  43.063  16.531   8.716
 2170POPC   C2B29768  43.138  16.571   8.270
 2170POPC   C3B29769  42.872  16.631   7.888
 2170POPC   C4B29770  43.001  16.479   7.463
 2171POPC   NC329771  22.724  14.045   9.348
 2171POPC   PO429772  23.263  14.453   9.534
 2171POPC   GL129773  23.142  14.443   9.113
 2171POPC   GL229774  23.083  14.089   8.980
 2171POPC   C1A29775  23.021  14.537   8.701
 2171POPC   D2A29776  23.134  14.254   8.348
 2171POPC   C3A29777  23.083  14.449   7.948
 2171POPC   C4A29778  22.886  14.701   7.635
 2171POPC   C1B29779  22.738  14.117   8.666
 2171POPC   C2B29780  22.609  14.209   8.291
 2171POPC   C3B29781  22.628  14.059   7.901
 2171POPC   C4B29782  22.833  14.181   7.581
 2172POPC   NC329783  11.015  30.536   9.693
 2172POPC   PO429784  11.657  30.894   9.613
 2172POPC   GL129785  11.322  30.721   9.343
 2172POPC   GL229786  10.964  30.901   9.319
 2172POPC   C1A29787  11.251  30.464   8.965
 2172POPC   D2A29788  11.077  30.614   8.562
 2172POPC   C3A29789  11.156  30.466   8.148
 2172POPC   C4A29790  11.306  30.612   7.769
 2172POPC   C1B29791  11.198  30.966   8.928
 2172POPC   C2B29792  11.317  31.089   8.519
 2172POPC   C3B29793  11.312  30.992   8.124
 2172POPC   C4B29794  11.359  31.146   7.750
 2173POPC   NC329795  23.157   5.363   9.588
 2173POPC   PO429796  22.808   4.784   9.542
 2173POPC   GL129797  22.632   5.024   9.224
 2173POPC   GL229798  22.829   5.258   9.173
 2173POPC   C1A29799  22.623   4.923   8.825
 2173POPC   D2A29800  22.784   5.117   8.496
 2173POPC   C3A29801  22.658   4.968   8.118
 2173POPC   C4A29802  22.747   5.079   7.742
 2173POPC   C1B29803  23.136   5.092   8.902
 2173POPC   C2B29804  23.298   5.161   8.490
 2173POPC   C3B29805  23.088   5.292   8.104
 2173POPC   C4B29806  23.242   5.312   7.691
 2174POPC   NC329807  14.116  31.956   9.446
 2174POPC   PO429808  14.711  32.264   9.479
 2174POPC   GL129809  14.355  32.351   9.184
 2174POPC   GL229810  14.209  32.041   8.960
 2174POPC   C1A29811  14.353  32.492   8.775
 2174POPC   D2A29812  14.354  32.205   8.457
 2174POPC   C3A29813  14.229  32.316   8.056
 2174POPC   C4A29814  14.198  32.000   7.763
 2174POPC   C1B29815  14.644  31.984   8.870
 2174POPC   C2B29816  14.835  31.969   8.487
 2174POPC   C3B29817  14.634  31.943   8.105
 2174POPC   C4B29818  14.680  32.163   7.742
 2175POPC   NC329819  24.715  29.067   9.527
 2175POPC   PO429820  24.300  29.459   9.019
 2175POPC   GL129821  24.451  29.012   9.084
 2175POPC   GL229822  24.785  28.856   9.072
 2175POPC   C1A29823  24.238  28.812   8.755
 2175POPC   D2A29824  24.189  28.951   8.352
 2175POPC   C3A29825  24.541  28.978   8.116
 2175POPC   C4A29826  24.471  28.849   7.709
 2175POPC   C1B29827  24.728  29.027   8.656
 2175POPC   C2B29828  24.708  29.409   8.419
 2175POPC   C3B29829  24.885  29.459   8.033
 2175POPC   C4B29830  24.646  29.320   7.768
 2176POPC   NC329831   9.841  36.208   9.583
 2176POPC   PO429832   9.262  35.894   9.484
 2176POPC   GL129833   9.473  36.210   9.198
 2176POPC   GL229834   9.716  36.496   9.168
 2176POPC   C1A29835   9.613  36.158   8.792
 2176POPC   D2A29836   9.513  35.893   8.463
 2176POPC   C3A29837   9.786  35.926   8.105
 2176POPC   C4A29838   9.554  35.904   7.721
 2176POPC   C1B29839  10.065  36.416   8.893
 2176POPC   C2B29840  10.046  36.212   8.489
 2176POPC   C3B29841  10.017  36.416   8.098
 2176POPC   C4B29842  10.014  36.218   7.724
 2177POPC   NC329843  42.444  28.306   9.542
 2177POPC   PO429844  41.961  27.909   9.129
 2177POPC   GL129845  42.329  28.127   9.050
 2177POPC   GL229846  42.471  28.471   9.076
 2177POPC   C1A29847  42.397  28.265   8.614
 2177POPC   D2A29848  42.587  28.565   8.354
 2177POPC   C3A29849  42.629  28.291   7.991
 2177POPC   C4A29850  42.266  28.132   7.777
 2177POPC   C1B29851  42.081  28.574   8.862
 2177POPC   C2B29852  42.078  28.724   8.447
 2177POPC   C3B29853  42.176  28.556   8.058
 2177POPC   C4B29854  42.430  28.658   7.693
 2178POPC   NC329855  14.872   9.722   9.460
 2178POPC   PO429856  14.309   9.447   9.609
 2178POPC   GL129857  14.344   9.758   9.244
 2178POPC   GL229858  14.644   9.601   9.027
 2178POPC   C1A29859  14.307   9.874   8.777
 2178POPC   D2A29860  14.667   9.736   8.489
 2178POPC   C3A29861  14.572   9.516   8.087
 2178POPC   C4A29862  14.301   9.612   7.704
 2178POPC   C1B29863  14.765  10.063   8.899
 2178POPC   C2B29864  14.829  10.244   8.473
 2178POPC   C3B29865  14.608  10.063   8.085
 2178POPC   C4B29866  14.812   9.846   7.750
 2179POPC   NC329867  29.816   7.275   9.950
 2179POPC   PO429868  30.183   7.137   9.368
 2179POPC   GL129869  29.927   7.250   9.002
 2179POPC   GL229870  29.748   7.563   8.911
 2179POPC   C1A29871  29.772   7.088   8.623
 2179POPC   D2A29872  29.525   7.158   8.268
 2179POPC   C3A29873  29.702   7.435   7.949
 2179POPC   C4A29874  29.696   7.367   7.482
 2179POPC   C1B29875  30.165   7.689   8.769
 2179POPC   C2B29876  30.235   7.927   8.412
 2179POPC   C3B29877  30.215   7.810   7.984
 2179POPC   C4B29878  29.935   7.776   7.623
 2180POPC   NC329879  18.589  26.520   9.482
 2180POPC   PO429880  18.194  27.072   9.522
 2180POPC   GL129881  18.293  27.020   9.105
 2180POPC   GL229882  18.232  26.686   9.013
 2180POPC   C1A29883  18.338  27.023   8.641
 2180POPC   D2A29884  18.032  26.842   8.406
 2180POPC   C3A29885  18.165  26.740   8.034
 2180POPC   C4A29886  18.239  27.017   7.740
 2180POPC   C1B29887  18.621  26.609   8.799
 2180POPC   C2B29888  18.737  26.732   8.369
 2180POPC   C3B29889  18.664  26.766   7.912
 2180POPC   C4B29890  18.354  26.537   7.592
 2181POPC   NC329891   1.507  20.504   9.522
 2181POPC   PO429892   2.125  20.766   9.511
 2181POPC   GL129893   1.968  20.685   9.100
 2181POPC   GL229894   1.928  21.049   9.072
 2181POPC   C1A29895   1.958  20.531   8.641
 2181POPC   D2A29896   1.787  20.746   8.257
 2181POPC   C3A29897   1.609  20.489   7.931
 2181POPC   C4A29898   1.800  20.155   7.650
 2181POPC   C1B29899   2.155  20.994   8.690
 2181POPC   C2B29900   2.295  20.836   8.270
 2181POPC   C3B29901   2.124  20.744   7.854
 2181POPC   C4B29902   2.059  20.939   7.450
 2182POPC   NC329903  20.346  14.153   9.675
 2182POPC   PO429904  20.913  14.462   9.367
 2182POPC   GL129905  20.577  14.458   9.171
 2182POPC   GL229906  20.298  14.620   9.287
 2182POPC   C1A29907  20.500  14.564   8.762
 2182POPC   D2A29908  20.606  14.333   8.417
 2182POPC   C3A29909  20.495  14.544   8.079
 2182POPC   C4A29910  20.753  14.306   7.844
 2182POPC   C1B29911  20.175  14.241   8.986
 2182POPC   C2B29912  20.126  14.220   8.546
 2182POPC   C3B29913  20.224  14.106   8.112
 2182POPC   C4B29914  20.296  14.202   7.700
 2183POPC   NC329915  43.613  20.860   9.283
 2183POPC   PO429916  43.885  20.223   9.499
 2183POPC   GL129917  43.933  20.463   9.102
 2183POPC   GL229918  44.139  20.744   9.234
 2183POPC   C1A29919  43.737  20.637   8.681
 2183POPC   D2A29920  43.679  20.769   8.248
 2183POPC   C3A29921  43.841  20.455   7.935
 2183POPC   C4A29922  43.704  20.383   7.493
 2183POPC   C1B29923  44.123  20.950   8.819
 2183POPC   C2B29924  44.069  21.087   8.391
 2183POPC   C3B29925  44.131  20.887   7.993
 2183POPC   C4B29926  43.979  20.818   7.581
 2184POPC   NC329927  26.967   0.072   9.502
 2184POPC   PO429928  27.251  44.479   9.562
 2184POPC   GL129929  26.838  44.514   9.264
 2184POPC   GL229930  26.653  44.840   9.153
 2184POPC   C1A29931  26.692  44.488   8.813
 2184POPC   D2A29932  26.941  44.548   8.462
 2184POPC   C3A29933  26.711  44.605   8.119
 2184POPC   C4A29934  26.843  44.468   7.743
 2184POPC   C1B29935  26.813   0.063   8.772
 2184POPC   C2B29936  27.122   0.065   8.427
 2184POPC   C3B29937  27.139  44.871   8.007
 2184POPC   C4B29938  26.772  44.962   7.751
 2185POPC   NC329939  30.080   8.714   9.398
 2185POPC   PO429940  29.617   9.222   9.503
 2185POPC   GL129941  29.803   9.040   9.141
 2185POPC   GL229942  29.616   8.725   9.178
 2185POPC   C1A29943  30.052   8.958   8.756
 2185POPC   D2A29944  30.215   8.927   8.337
 2185POPC   C3A29945  30.040   8.796   7.928
 2185POPC   C4A29946  29.800   9.025   7.567
 2185POPC   C1B29947  29.772   8.547   8.822
 2185POPC   C2B29948  29.728   8.663   8.402
 2185POPC   C3B29949  29.562   8.512   8.041
 2185POPC   C4B29950  29.703   8.540   7.618
 2186POPC   NC329951   8.588   5.617   9.546
 2186POPC   PO429952   8.015   5.990   9.564
 2186POPC   GL129953   8.300   5.889   9.194
 2186POPC   GL229954   8.488   6.158   9.082
 2186POPC   C1A29955   8.179   5.792   8.750
 2186POPC   D2A29956   7.995   5.912   8.348
 2186POPC   C3A29957   8.013   5.739   7.912
 2186POPC   C4A29958   7.885   5.918   7.508
 2186POPC   C1B29959   8.630   6.055   8.727
 2186POPC   C2B29960   8.509   5.908   8.351
 2186POPC   C3B29961   8.512   5.971   7.944
 2186POPC   C4B29962   8.749   6.186   7.653
 2187POPC   NC329963  20.333  33.344   9.520
 2187POPC   PO429964  20.696  32.797   9.643
 2187POPC   GL129965  20.715  33.097   9.256
 2187POPC   GL229966  20.406  33.086   9.102
 2187POPC   C1A29967  20.861  33.287   8.830
 2187POPC   D2A29968  20.719  33.363   8.385
 2187POPC   C3A29969  20.951  33.201   7.999
 2187POPC   C4A29970  20.756  32.908   7.679
 2187POPC   C1B29971  20.508  32.934   8.710
 2187POPC   C2B29972  20.325  32.991   8.318
 2187POPC   C3B29973  20.385  33.157   7.926
 2187POPC   C4B29974  20.120  32.847   7.704
 2188POPC   NC329975  24.136  30.792   9.388
 2188POPC   PO429976  24.745  31.125   9.288
 2188POPC   GL129977  24.490  30.871   9.016
 2188POPC   GL229978  24.131  30.893   8.912
 2188POPC   C1A29979  24.567  30.684   8.652
 2188POPC   D2A29980  24.636  30.377   8.349
 2188POPC   C3A29981  24.596  30.486   7.905
 2188POPC   C4A29982  24.543  30.503   7.449
 2188POPC   C1B29983  24.133  30.946   8.505
 2188POPC   C2B29984  24.444  30.901   8.222
 2188POPC   C3B29985  24.395  30.939   7.840
 2188POPC   C4B29986  24.735  30.930   7.625
 2189POPC   NC329987  17.700  21.774   9.563
 2189POPC   PO429988  17.254  22.202   9.775
 2189POPC   GL129989  17.266  22.175   9.310
 2189POPC   GL229990  17.317  22.503   9.128
 2189POPC   C1A29991  17.352  22.047   8.865
 2189POPC   D2A29992  17.342  22.206   8.431
 2189POPC   C3A29993  17.532  22.002   8.076
 2189POPC   C4A29994  17.396  21.810   7.684
 2189POPC   C1B29995  17.673  22.463   8.797
 2189POPC   C2B29996  17.711  22.544   8.358
 2189POPC   C3B29997  17.412  22.532   8.017
 2189POPC   C4B29998  17.594  22.330   7.686
 2190POPC   NC329999   9.871  43.682   9.976
 2190POPC   PO430000   9.492  43.972   9.466
 2190POPC   GL130001   9.714  43.932   9.089
 2190POPC   GL230002   9.532  44.112   8.857
 2190POPC   C1A30003   9.837  43.732   8.714
 2190POPC   D2A30004   9.753  44.029   8.379
 2190POPC   C3A30005   9.734  43.867   7.968
 2190POPC   C4A30006   9.769  43.538   7.664
 2190POPC   C1B30007   9.904  44.333   8.804
 2190POPC   C2B30008  10.145  44.379   8.441
 2190POPC   C3B30009   9.985  44.353   8.040
 2190POPC   C4B30010  10.023  44.176   7.661
 2191POPC   NC330011  29.719  10.644   9.612
 2191POPC   PO430012  29.044  10.770   9.689
 2191POPC   GL130013  29.183  10.696   9.252
 2191POPC   GL230014  29.377  11.014   9.198
 2191POPC   C1A30015  29.139  10.396   8.872
 2191POPC   D2A30016  28.917  10.283   8.461
 2191POPC   C3A30017  29.219  10.295   8.096
 2191POPC   C4A30018  29.254  10.222   7.668
 2191POPC   C1B30019  29.369  10.865   8.776
 2191POPC   C2B30020  29.207  10.704   8.399
 2191POPC   C3B30021  29.246  10.787   7.927
 2191POPC   C4B30022  29.518  10.901   7.574
 2192POPC   NC330023  28.850  34.548   9.695
 2192POPC   PO430024  29.469  34.882   9.465
 2192POPC   GL130025  29.272  34.667   9.123
 2192POPC   GL230026  29.348  34.316   9.193
 2192POPC   C1A30027  29.023  34.751   8.720
 2192POPC   D2A30028  28.761  34.830   8.322
 2192POPC   C3A30029  29.010  34.675   7.964
 2192POPC   C4A30030  29.145  34.233   7.867
 2192POPC   C1B30031  29.452  34.392   8.744
 2192POPC   C2B30032  29.502  34.257   8.318
 2192POPC   C3B30033  29.602  34.476   7.950
 2192POPC   C4B30034  29.477  34.881   7.849
 2193POPC   NC330035  40.355   0.355   9.430
 2193POPC   PO430036  39.904   0.753   9.487
 2193POPC   GL130037  40.020   0.558   9.100
 2193POPC   GL230038  39.914   0.219   9.033
 2193POPC   C1A30039  40.128   0.572   8.693
 2193POPC   D2A30040  39.911   0.719   8.339
 2193POPC   C3A30041  40.020   0.558   7.941
 2193POPC   C4A30042  39.803   0.416   7.611
 2193POPC   C1B30043  39.735   0.257   8.624
 2193POPC   C2B30044  39.972   0.172   8.261
 2193POPC   C3B30045  40.103   0.063   7.839
 2193POPC   C4B30046  39.896  44.971   7.404
 2194POPC   NC330047  12.785  17.362   9.666
 2194POPC   PO430048  12.333  17.588   9.471
 2194POPC   GL130049  12.679  17.414   9.163
 2194POPC   GL230050  12.995  17.602   9.104
 2194POPC   C1A30051  12.876  17.257   8.750
 2194POPC   D2A30052  12.774  17.379   8.313
 2194POPC   C3A30053  13.014  17.183   8.018
 2194POPC   C4A30054  13.130  17.114   7.605
 2194POPC   C1B30055  12.685  17.732   8.734
 2194POPC   C2B30056  12.410  17.738   8.328
 2194POPC   C3B30057  12.478  17.622   7.878
 2194POPC   C4B30058  12.698  17.904   7.564
 2195POPC   NC330059  35.327  14.420   9.584
 2195POPC   PO430060  35.766  14.877   9.293
 2195POPC   GL130061  35.499  14.519   9.084
 2195POPC   GL230062  35.147  14.343   9.122
 2195POPC   C1A30063  35.450  14.313   8.674
 2195POPC   D2A30064  35.581  14.178   8.260
 2195POPC   C3A30065  35.437  14.478   7.972
 2195POPC   C4A30066  35.299  14.589   7.573
 2195POPC   C1B30067  35.081  13.994   8.834
 2195POPC   C2B30068  35.150  13.890   8.401
 2195POPC   C3B30069  35.124  14.051   7.984
 2195POPC   C4B30070  35.481  14.034   7.729
 2196POPC   NC330071   1.916  13.010   9.491
 2196POPC   PO430072   2.244  12.478   9.357
 2196POPC   GL130073   2.208  12.944   9.089
 2196POPC   GL230074   1.889  13.121   8.977
 2196POPC   C1A30075   2.280  13.177   8.670
 2196POPC   D2A30076   1.936  13.299   8.437
 2196POPC   C3A30077   1.876  13.110   8.032
 2196POPC   C4A30078   2.147  13.006   7.712
 2196POPC   C1B30079   1.855  12.823   8.662
 2196POPC   C2B30080   1.749  12.655   8.252
 2196POPC   C3B30081   1.757  12.657   7.804
 2196POPC   C4B30082   1.624  12.568   7.377
 2197POPC   NC330083  29.120  30.929   9.495
 2197POPC   PO430084  28.881  30.242   9.537
 2197POPC   GL130085  29.123  30.501   9.205
 2197POPC   GL230086  29.489  30.523   9.124
 2197POPC   C1A30087  29.039  30.464   8.780
 2197POPC   D2A30088  29.101  30.643   8.405
 2197POPC   C3A30089  28.986  30.540   8.037
 2197POPC   C4A30090  28.834  30.802   7.703
 2197POPC   C1B30091  29.366  30.875   8.822
 2197POPC   C2B30092  29.176  31.128   8.452
 2197POPC   C3B30093  29.246  31.002   8.008
 2197POPC   C4B30094  29.333  30.679   7.677
 2198POPC   NC330095  11.793   9.235   9.531
 2198POPC   PO430096  12.291   9.698   9.494
 2198POPC   GL130097  12.081   9.906   9.196
 2198POPC   GL230098  12.364   9.995   9.054
 2198POPC   C1A30099  11.962   9.761   8.809
 2198POPC   D2A30100  11.981   9.529   8.444
 2198POPC   C3A30101  11.801   9.769   8.113
 2198POPC   C4A30102  12.048   9.527   7.880
 2198POPC   C1B30103  12.424   9.964   8.645
 2198POPC   C2B30104  12.252  10.130   8.301
 2198POPC   C3B30105  12.222  10.025   7.883
 2198POPC   C4B30106  12.378  10.048   7.478
 2199POPC   NC330107  17.020  44.825   9.537
 2199POPC   PO430108  16.368  44.827   9.640
 2199POPC   GL130109  16.501  44.628   9.288
 2199POPC   GL230110  16.640  44.958   9.179
 2199POPC   C1A30111  16.629  44.484   8.882
 2199POPC   D2A30112  16.562  44.538   8.438
 2199POPC   C3A30113  16.583  44.343   8.036
 2199POPC   C4A30114  16.920  44.211   7.748
 2199POPC   C1B30115  16.675  44.984   8.726
 2199POPC   C2B30116  16.796  44.976   8.332
 2199POPC   C3B30117  16.880  44.745   7.976
 2199POPC   C4B30118  16.510  44.735   7.732
 2200POPC   NC330119  21.883  13.502   9.518
 2200POPC   PO430120  22.527  13.794   9.688
 2200POPC   GL130121  22.155  13.806   9.252
 2200POPC   GL230122  22.183  13.394   9.139
 2200POPC   C1A30123  22.050  13.689   8.759
 2200POPC   D2A30124  22.397  13.753   8.403
 2200POPC   C3A30125  22.238  13.720   7.972
 2200POPC   C4A30126  21.938  13.886   7.725
 2200POPC   C1B30127  21.996  13.159   8.800
 2200POPC   C2B30128  21.795  13.253   8.410
 2200POPC   C3B30129  21.760  13.583   8.148
 2200POPC   C4B30130  21.872  13.392   7.780
 2201POPC   NC330131  21.032   0.760   9.409
 2201POPC   PO430132  20.605   0.177   9.503
 2201POPC   GL130133  20.740   0.398   9.171
 2201POPC   GL230134  20.539   0.683   9.215
 2201POPC   C1A30135  20.741   0.582   8.753
 2201POPC   D2A30136  20.844   0.781   8.342
 2201POPC   C3A30137  20.660   0.531   8.027
 2201POPC   C4A30138  20.827   0.331   7.679
 2201POPC   C1B30139  20.260   0.749   8.866
 2201POPC   C2B30140  20.358   0.678   8.439
 2201POPC   C3B30141  20.183   0.705   8.044
 2201POPC   C4B30142  20.369   0.833   7.672
 2202POPC   NC330143  29.520   4.485   9.570
 2202POPC   PO430144  30.107   4.064   9.417
 2202POPC   GL130145  30.045   4.188   9.045
 2202POPC   GL230146  29.686   4.215   9.101
 2202POPC   C1A30147  30.030   4.421   8.692
 2202POPC   D2A30148  29.819   4.500   8.328
 2202POPC   C3A30149  30.148   4.461   8.039
 2202POPC   C4A30150  30.102   4.369   7.633
 2202POPC   C1B30151  29.680   4.014   8.682
 2202POPC   C2B30152  29.558   4.070   8.230
 2202POPC   C3B30153  29.674   4.275   7.864
 2202POPC   C4B30154  29.451   4.333   7.489
 2203POPC   NC330155  30.107  21.524   9.925
 2203POPC   PO430156  30.745  21.501   9.654
 2203POPC   GL130157  30.611  21.329   9.252
 2203POPC   GL230158  30.886  21.483   9.123
 2203POPC   C1A30159  30.622  21.171   8.809
 2203POPC   D2A30160  30.480  21.401   8.435
 2203POPC   C3A30161  30.645  21.520   8.019
 2203POPC   C4A30162  30.880  21.299   7.728
 2203POPC   C1B30163  31.102  21.600   8.769
 2203POPC   C2B30164  30.991  21.622   8.379
 2203POPC   C3B30165  31.178  21.592   8.024
 2203POPC   C4B30166  31.360  21.411   7.686
 2204POPC   NC330167  29.263  10.212   9.553
 2204POPC   PO430168  28.850   9.744   9.876
 2204POPC   GL130169  29.028   9.822   9.349
 2204POPC   GL230170  29.367   9.888   9.147
 2204POPC   C1A30171  28.978   9.908   8.851
 2204POPC   D2A30172  29.329  10.007   8.513
 2204POPC   C3A30173  29.202   9.783   8.112
 2204POPC   C4A30174  29.034   9.753   7.712
 2204POPC   C1B30175  29.412   9.565   8.738
 2204POPC   C2B30176  29.651   9.640   8.309
 2204POPC   C3B30177  29.627   9.524   7.852
 2204POPC   C4B30178  29.845   9.501   7.432
 2205POPC   NC330179  11.453   9.874   9.590
 2205POPC   PO430180  11.151   9.527   9.161
 2205POPC   GL130181  11.480   9.832   9.059
 2205POPC   GL230182  11.679   9.600   9.202
 2205POPC   C1A30183  11.544   9.979   8.626
 2205POPC   D2A30184  11.188   9.993   8.337
 2205POPC   C3A30185  11.299   9.933   7.908
 2205POPC   C4A30186  11.043   9.811   7.541
 2205POPC   C1B30187  11.711   9.302   8.831
 2205POPC   C2B30188  11.573   9.175   8.413
 2205POPC   C3B30189  11.397   9.416   8.069
 2205POPC   C4B30190  11.510   9.545   7.651
 2206POPC   NC330191   9.645  32.779   9.356
 2206POPC   PO430192   9.756  32.117   9.542
 2206POPC   GL130193   9.732  32.329   9.126
 2206POPC   GL230194  10.043  32.296   8.943
 2206POPC   C1A30195   9.642  32.578   8.731
 2206POPC   D2A30196   9.483  32.514   8.326
 2206POPC   C3A30197   9.713  32.270   8.015
 2206POPC   C4A30198   9.629  32.302   7.582
 2206POPC   C1B30199   9.738  32.046   8.699
 2206POPC   C2B30200   9.749  31.808   8.312
 2206POPC   C3B30201   9.502  31.779   7.955
 2206POPC   C4B30202   9.740  31.811   7.629
 2207POPC   NC330203   9.470  24.021   9.664
 2207POPC   PO430204   9.805  23.506   9.752
 2207POPC   GL130205   9.580  23.587   9.358
 2207POPC   GL230206   9.806  23.858   9.254
 2207POPC   C1A30207   9.651  23.480   8.909
 2207POPC   D2A30208   9.660  23.732   8.546
 2207POPC   C3A30209   9.609  23.566   8.172
 2207POPC   C4A30210   9.637  23.713   7.784
 2207POPC   C1B30211  10.081  23.763   8.888
 2207POPC   C2B30212  10.177  23.706   8.453
 2207POPC   C3B30213  10.059  23.785   8.064
 2207POPC   C4B30214  10.152  23.695   7.635
 2208POPC   NC330215  31.593  28.925   9.475
 2208POPC   PO430216  31.166  29.403   9.544
 2208POPC   GL130217  31.258  29.212   9.128
 2208POPC   GL230218  31.615  29.143   9.029
 2208POPC   C1A30219  31.207  29.048   8.712
 2208POPC   D2A30220  31.435  29.061   8.295
 2208POPC   C3A30221  31.293  28.919   7.878
 2208POPC   C4A30222  31.148  29.193   7.489
 2208POPC   C1B30223  31.673  28.849   8.696
 2208POPC   C2B30224  31.810  28.721   8.310
 2208POPC   C3B30225  31.877  29.018   7.963
 2208POPC   C4B30226  31.647  29.156   7.622
 2209POPC   NC330227  15.402  38.179   9.643
 2209POPC   PO430228  15.043  38.735   9.519
 2209POPC   GL130229  15.014  38.431   9.209
 2209POPC   GL230230  14.702  38.297   9.136
 2209POPC   C1A30231  15.163  38.307   8.813
 2209POPC   D2A30232  15.282  38.164   8.386
 2209POPC   C3A30233  15.164  38.436   8.063
 2209POPC   C4A30234  15.039  38.437   7.650
 2209POPC   C1B30235  14.744  38.643   8.825
 2209POPC   C2B30236  14.825  38.735   8.373
 2209POPC   C3B30237  14.896  38.882   7.948
 2209POPC   C4B30238  14.685  38.801   7.569
 2210POPC   NC330239  40.545  26.327   9.343
 2210POPC   PO430240  40.693  26.969   9.459
 2210POPC   GL130241  40.764  26.994   9.032
 2210POPC   GL230242  40.810  26.614   8.989
 2210POPC   C1A30243  40.917  26.946   8.627
 2210POPC   D2A30244  40.817  26.716   8.267
 2210POPC   C3A30245  40.865  27.015   7.947
 2210POPC   C4A30246  40.727  27.009   7.521
 2210POPC   C1B30247  41.072  26.382   8.718
 2210POPC   C2B30248  41.200  26.141   8.376
 2210POPC   C3B30249  41.061  26.205   7.951
 2210POPC   C4B30250  40.863  26.535   7.729
 2211POPC   NC330251  13.102   8.840   9.891
 2211POPC   PO430252  12.778   8.694   9.337
 2211POPC   GL130253  12.846   8.770   8.981
 2211POPC   GL230254  12.566   9.036   8.983
 2211POPC   C1A30255  12.771   8.794   8.584
 2211POPC   D2A30256  12.888   8.709   8.234
 2211POPC   C3A30257  12.657   8.795   7.921
 2211POPC   C4A30258  12.749   8.861   7.538
 2211POPC   C1B30259  12.946   9.241   8.820
 2211POPC   C2B30260  13.087   9.184   8.401
 2211POPC   C3B30261  12.861   9.242   8.040
 2211POPC   C4B30262  12.962   9.317   7.623
 2212POPC   NC330263  42.329  32.650   9.493
 2212POPC   PO430264  42.000  33.279   9.526
 2212POPC   GL130265  42.153  33.030   9.187
 2212POPC   GL230266  42.502  32.942   9.113
 2212POPC   C1A30267  42.113  33.151   8.785
 2212POPC   D2A30268  41.924  33.055   8.408
 2212POPC   C3A30269  42.182  32.732   8.251
 2212POPC   C4A30270  42.353  32.884   7.902
 2212POPC   C1B30271  42.524  32.860   8.670
 2212POPC   C2B30272  42.445  33.180   8.376
 2212POPC   C3B30273  42.622  33.304   7.994
 2212POPC   C4B30274  42.724  33.043   7.598
 2213POPC   NC330275   9.149  24.487   9.368
 2213POPC   PO430276   8.639  24.818   9.617
 2213POPC   GL130277   8.687  24.625   9.194
 2213POPC   GL230278   8.734  24.241   9.160
 2213POPC   C1A30279   8.858  24.575   8.755
 2213POPC   D2A30280   8.920  24.531   8.285
 2213POPC   C3A30281   9.216  24.550   7.948
 2213POPC   C4A30282   9.126  24.510   7.503
 2213POPC   C1B30283   8.639  24.022   8.743
 2213POPC   C2B30284   8.741  24.041   8.267
 2213POPC   C3B30285   8.797  24.257   7.851
 2213POPC   C4B30286   8.754  24.198   7.395
 2214POPC   NC330287  14.464  39.971   9.453
 2214POPC   PO430288  14.582  39.225   9.525
 2214POPC   GL130289  14.420  39.084   9.103
 2214POPC   GL230290  14.308  39.418   8.959
 2214POPC   C1A30291  14.488  39.044   8.658
 2214POPC   D2A30292  14.414  39.401   8.429
 2214POPC   C3A30293  14.487  39.230   8.042
 2214POPC   C4A30294  14.473  39.488   7.752
 2214POPC   C1B30295  14.003  39.141   8.700
 2214POPC   C2B30296  14.062  39.066   8.284
 2214POPC   C3B30297  14.008  39.005   7.874
 2214POPC   C4B30298  14.239  39.026   7.500
 2215POPC   NC330299   1.805   9.030   9.489
 2215POPC   PO430300   2.433   8.955   9.458
 2215POPC   GL130301   2.153   8.858   9.137
 2215POPC   GL230302   1.906   8.599   9.230
 2215POPC   C1A30303   1.974   9.071   8.782
 2215POPC   D2A30304   2.220   9.221   8.409
 2215POPC   C3A30305   2.118   9.112   8.009
 2215POPC   C4A30306   2.326   8.960   7.701
 2215POPC   C1B30307   1.931   8.537   8.798
 2215POPC   C2B30308   1.927   8.750   8.393
 2215POPC   C3B30309   1.992   8.609   8.007
 2215POPC   C4B30310   1.723   8.391   7.736
 2216POPC   NC330311  24.569  17.631   9.578
 2216POPC   PO430312  24.386  16.951   9.595
 2216POPC   GL130313  24.315  17.312   9.252
 2216POPC   GL230314  24.656  17.442   9.123
 2216POPC   C1A30315  24.243  17.568   8.847
 2216POPC   D2A30316  24.466  17.504   8.455
 2216POPC   C3A30317  24.252  17.513   8.122
 2216POPC   C4A30318  24.323  17.673   7.734
 2216POPC   C1B30319  24.822  17.332   8.762
 2216POPC   C2B30320  24.985  17.562   8.405
 2216POPC   C3B30321  24.769  17.638   8.018
 2216POPC   C4B30322  24.774  17.514   7.564
 2217POPC   NC330323   7.169  12.084   9.281
 2217POPC   PO430324   6.585  12.058   9.538
 2217POPC   GL130325   6.712  12.268   9.155
 2217POPC   GL230326   6.685  11.909   9.009
 2217POPC   C1A30327   6.904  12.272   8.719
 2217POPC   D2A30328   6.829  11.941   8.417
 2217POPC   C3A30329   6.655  12.071   8.002
 2217POPC   C4A30330   6.920  12.284   7.665
 2217POPC   C1B30331   6.382  12.181   8.791
 2217POPC   C2B30332   6.348  12.348   8.379
 2217POPC   C3B30333   6.118  12.218   8.019
 2217POPC   C4B30334   6.183  12.030   7.619
 2218POPC   NC330335  42.643  20.954   9.505
 2218POPC   PO430336  43.302  20.626   9.544
 2218POPC   GL130337  43.149  20.510   9.126
 2218POPC   GL230338  42.913  20.766   9.099
 2218POPC   C1A30339  42.985  20.365   8.702
 2218POPC   D2A30340  43.317  20.430   8.368
 2218POPC   C3A30341  43.342  20.443   7.898
 2218POPC   C4A30342  43.154  20.396   7.482
 2218POPC   C1B30343  43.160  20.839   8.718
 2218POPC   C2B30344  42.877  20.758   8.378
 2218POPC   C3B30345  42.886  20.643   7.972
 2218POPC   C4B30346  43.237  20.951   7.982
 2219POPC   NC330347  33.488  20.878   9.244
 2219POPC   PO430348  33.702  20.340   9.608
 2219POPC   GL130349  33.684  20.418   9.168
 2219POPC   GL230350  34.004  20.571   9.162
 2219POPC   C1A30351  33.673  20.560   8.707
 2219POPC   D2A30352  33.984  20.490   8.399
 2219POPC   C3A30353  33.859  20.531   8.001
 2219POPC   C4A30354  33.752  20.368   7.577
 2219POPC   C1B30355  34.149  20.794   8.791
 2219POPC   C2B30356  34.103  21.012   8.392
 2219POPC   C3B30357  33.974  21.045   7.967
 2219POPC   C4B30358  33.721  20.878   7.670
 2220POPC   NC330359  22.678  16.491   9.414
 2220POPC   PO430360  22.020  16.648   9.416
 2220POPC   GL130361  22.251  16.466   9.099
 2220POPC   GL230362  21.991  16.521   8.856
 2220POPC   C1A30363  22.502  16.458   8.718
 2220POPC   D2A30364  22.374  16.631   8.315
 2220POPC   C3A30365  22.501  16.446   7.912
 2220POPC   C4A30366  22.346  16.326   7.504
 2220POPC   C1B30367  22.249  16.910   8.790
 2220POPC   C2B30368  22.354  17.127   8.402
 2220POPC   C3B30369  22.198  17.008   7.966
 2220POPC   C4B30370  21.892  17.097   7.630
 2221POPC   NC330371  43.169   3.043   9.741
 2221POPC   PO430372  43.080   3.634   9.583
 2221POPC   GL130373  43.132   3.544   9.182
 2221POPC   GL230374  43.156   3.193   9.218
 2221POPC   C1A30375  43.152   3.761   8.789
 2221POPC   D2A30376  43.186   3.619   8.381
 2221POPC   C3A30377  43.174   3.827   8.022
 2221POPC   C4A30378  43.055   3.739   7.605
 2221POPC   C1B30379  43.091   3.242   8.749
 2221POPC   C2B30380  43.145   3.096   8.311
 2221POPC   C3B30381  43.239   3.320   7.897
 2221POPC   C4B30382  43.304   3.349   7.389
 2222POPC   NC330383   5.855  23.347   9.497
 2222POPC   PO430384   6.095  23.963   9.549
 2222POPC   GL130385   6.147  23.722   9.192
 2222POPC   GL230386   5.806  23.653   9.109
 2222POPC   C1A30387   6.138  23.755   8.751
 2222POPC   D2A30388   5.962  23.721   8.372
 2222POPC   C3A30389   6.187  23.694   8.026
 2222POPC   C4A30390   6.027  23.665   7.634
 2222POPC   C1B30391   5.637  23.559   8.723
 2222POPC   C2B30392   5.704  23.277   8.405
 2222POPC   C3B30393   5.679  23.472   8.025
 2222POPC   C4B30394   5.613  23.342   7.653
 2223POPC   NC330395  17.917   6.542   9.512
 2223POPC   PO430396  18.469   6.420   9.289
 2223POPC   GL130397  18.257   6.451   8.951
 2223POPC   GL230398  17.986   6.677   9.034
 2223POPC   C1A30399  18.177   6.503   8.546
 2223POPC   D2A30400  18.382   6.785   8.262
 2223POPC   C3A30401  18.214   6.930   7.892
 2223POPC   C4A30402  18.432   7.070   7.530
 2223POPC   C1B30403  17.707   6.467   8.789
 2223POPC   C2B30404  17.715   6.590   8.366
 2223POPC   C3B30405  18.022   6.462   8.027
 2223POPC   C4B30406  18.225   6.528   7.596
 2224POPC   NC330407  24.307  23.607   9.633
 2224POPC   PO430408  25.040  23.607   9.591
 2224POPC   GL130409  24.799  23.787   9.210
 2224POPC   GL230410  24.425  23.767   9.183
 2224POPC   C1A30411  24.685  23.857   8.774
 2224POPC   D2A30412  24.869  23.923   8.382
 2224POPC   C3A30413  24.556  23.882   8.146
 2224POPC   C4A30414  24.467  23.855   7.757
 2224POPC   C1B30415  24.278  23.465   8.879
 2224POPC   C2B30416  24.086  23.392   8.481
 2224POPC   C3B30417  24.237  23.471   8.076
 2224POPC   C4B30418  24.021  23.651   7.740
 2225POPC   NC330419  32.977  22.186   9.788
 2225POPC   PO430420  32.722  21.906   9.294
 2225POPC   GL130421  32.897  22.051   8.979
 2225POPC   GL230422  33.222  22.032   9.132
 2225POPC   C1A30423  32.829  22.351   8.669
 2225POPC   D2A30424  32.601  22.463   8.334
 2225POPC   C3A30425  32.827  22.342   7.952
 2225POPC   C4A30426  32.746  21.941   7.740
 2225POPC   C1B30427  33.312  22.115   8.690
 2225POPC   C2B30428  33.230  22.340   8.311
 2225POPC   C3B30429  33.327  22.171   7.928
 2225POPC   C4B30430  33.218  22.043   7.548
 2226POPC   NC330431  34.563   3.986   9.751
 2226POPC   PO430432  34.357   3.369   9.521
 2226POPC   GL130433  34.579   3.437   9.175
 2226POPC   GL230434  34.899   3.620   9.258
 2226POPC   C1A30435  34.372   3.488   8.776
 2226POPC   D2A30436  34.344   3.282   8.399
 2226POPC   C3A30437  34.423   3.566   8.047
 2226POPC   C4A30438  34.312   3.642   7.601
 2226POPC   C1B30439  34.712   3.849   8.932
 2226POPC   C2B30440  34.736   3.710   8.495
 2226POPC   C3B30441  34.960   3.705   8.109
 2226POPC   C4B30442  34.832   3.654   7.680
 2227POPC   NC330443   7.715  37.956   9.352
 2227POPC   PO430444   7.291  37.536   9.554
 2227POPC   GL130445   7.242  37.592   9.127
 2227POPC   GL230446   7.186  37.947   9.042
 2227POPC   C1A30447   7.196  37.299   8.783
 2227POPC   D2A30448   6.989  37.331   8.382
 2227POPC   C3A30449   7.206  37.655   8.132
 2227POPC   C4A30450   7.254  37.618   7.666
 2227POPC   C1B30451   7.429  37.792   8.663
 2227POPC   C2B30452   7.722  37.701   8.303
 2227POPC   C3B30453   7.655  37.846   7.900
 2227POPC   C4B30454   7.284  38.092   7.874
 2228POPC   NC330455  23.696  24.052   9.772
 2228POPC   PO430456  23.762  24.671   9.764
 2228POPC   GL130457  23.885  24.502   9.324
 2228POPC   GL230458  23.643  24.671   9.061
 2228POPC   C1A30459  24.037  24.448   8.867
 2228POPC   D2A30460  23.847  24.339   8.477
 2228POPC   C3A30461  23.990  24.609   8.148
 2228POPC   C4A30462  23.909  24.619   7.716
 2228POPC   C1B30463  23.439  24.421   8.765
 2228POPC   C2B30464  23.322  24.417   8.381
 2228POPC   C3B30465  23.511  24.439   7.996
 2228POPC   C4B30466  23.371  24.505   7.589
 2229POPC   NC330467   0.402   1.526   9.512
 2229POPC   PO430468   0.144   2.123   9.483
 2229POPC   GL130469   0.390   1.945   9.185
 2229POPC   GL230470   0.156   1.728   9.048
 2229POPC   C1A30471   0.644   1.942   8.820
 2229POPC   D2A30472   0.481   1.775   8.437
 2229POPC   C3A30473   0.714   1.931   8.081
 2229POPC   C4A30474   0.667   1.802   7.674
 2229POPC   C1B30475   0.147   2.090   8.737
 2229POPC   C2B30476   0.201   2.179   8.284
 2229POPC   C3B30477   0.215   1.850   7.940
 2229POPC   C4B30478   0.215   1.679   7.500
 2230POPC   NC330479  16.804  42.467   9.719
 2230POPC   PO430480  16.461  41.847   9.491
 2230POPC   GL130481  16.601  42.243   9.203
 2230POPC   GL230482  16.660  42.592   9.236
 2230POPC   C1A30483  16.835  42.368   8.815
 2230POPC   D2A30484  16.956  42.314   8.362
 2230POPC   C3A30485  16.728  42.278   7.956
 2230POPC   C4A30486  17.024  42.320   7.600
 2230POPC   C1B30487  16.367  42.610   8.867
 2230POPC   C2B30488  16.477  42.495   8.453
 2230POPC   C3B30489  16.308  42.600   8.096
 2230POPC   C4B30490  16.296  42.445   7.689
 2231POPC   NC330491  41.453  31.467   9.593
 2231POPC   PO430492  41.816  32.021   9.506
 2231POPC   GL130493  41.703  31.692   9.148
 2231POPC   GL230494  41.465  31.397   9.104
 2231POPC   C1A30495  41.789  31.576   8.686
 2231POPC   D2A30496  41.755  31.334   8.270
 2231POPC   C3A30497  41.790  31.644   7.909
 2231POPC   C4A30498  41.840  31.705   7.423
 2231POPC   C1B30499  41.421  31.202   8.719
 2231POPC   C2B30500  41.280  31.087   8.318
 2231POPC   C3B30501  41.413  31.082   7.905
 2231POPC   C4B30502  41.363  31.465   7.727
 2232POPC   NC330503  13.835  23.457   9.493
 2232POPC   PO430504  13.387  23.855   9.451
 2232POPC   GL130505  13.482  23.677   9.092
 2232POPC   GL230506  13.799  23.772   9.095
 2232POPC   C1A30507  13.469  23.787   8.665
 2232POPC   D2A30508  13.647  23.586   8.317
 2232POPC   C3A30509  13.513  23.600   7.907
 2232POPC   C4A30510  13.691  23.333   7.608
 2232POPC   C1B30511  13.971  23.654   8.716
 2232POPC   C2B30512  14.146  23.860   8.349
 2232POPC   C3B30513  14.110  24.098   7.967
 2232POPC   C4B30514  13.987  23.801   7.719
 2233POPC   NC330515   4.789  42.872   9.540
 2233POPC   PO430516   5.355  43.096   9.726
 2233POPC   GL130517   5.268  43.150   9.266
 2233POPC   GL230518   4.924  43.119   9.132
 2233POPC   C1A30519   5.283  43.359   8.866
 2233POPC   D2A30520   5.227  43.116   8.475
 2233POPC   C3A30521   5.006  43.264   8.115
 2233POPC   C4A30522   5.178  43.124   7.746
 2233POPC   C1B30523   4.791  43.180   8.724
 2233POPC   C2B30524   4.758  42.917   8.385
 2233POPC   C3B30525   4.927  42.753   8.018
 2233POPC   C4B30526   4.864  42.713   7.586
 2234POPC   NC330527   8.005  35.681   9.433
 2234POPC   PO430528   8.569  35.371   9.252
 2234POPC   GL130529   8.173  35.371   9.050
 2234POPC   GL230530   7.887  35.602   8.961
 2234POPC   C1A30531   8.269  35.484   8.629
 2234POPC   D2A30532   8.497  35.257   8.313
 2234POPC   C3A30533   8.436  35.415   7.893
 2234POPC   C4A30534   8.283  35.281   7.471
 2234POPC   C1B30535   7.821  35.239   8.694
 2234POPC   C2B30536   7.952  35.168   8.320
 2234POPC   C3B30537   7.923  35.335   7.931
 2234POPC   C4B30538   7.858  34.998   7.691
 2235POPC   NC330539  17.770  12.661   9.454
 2235POPC   PO430540  17.274  13.054   9.621
 2235POPC   GL130541  17.478  13.143   9.201
 2235POPC   GL230542  17.429  12.827   9.124
 2235POPC   C1A30543  17.414  13.157   8.713
 2235POPC   D2A30544  17.309  13.002   8.279
 2235POPC   C3A30545  17.601  13.039   7.900
 2235POPC   C4A30546  17.528  13.080   7.444
 2235POPC   C1B30547  17.377  12.625   8.776
 2235POPC   C2B30548  17.525  12.564   8.421
 2235POPC   C3B30549  17.455  12.534   8.035
 2235POPC   C4B30550  17.671  12.559   7.677
 2236POPC   NC330551  24.066  41.249   9.406
 2236POPC   PO430552  23.784  41.932   9.426
 2236POPC   GL130553  23.768  41.667   9.099
 2236POPC   GL230554  24.117  41.647   9.075
 2236POPC   C1A30555  23.514  41.623   8.722
 2236POPC   D2A30556  23.674  41.549   8.315
 2236POPC   C3A30557  23.448  41.461   7.981
 2236POPC   C4A30558  23.501  41.614   7.592
 2236POPC   C1B30559  24.035  41.469   8.668
 2236POPC   C2B30560  24.166  41.431   8.218
 2236POPC   C3B30561  23.947  41.501   7.844
 2236POPC   C4B30562  23.837  41.269   7.458
 2237POPC   NC330563  28.640  22.325   9.407
 2237POPC   PO430564  28.168  21.899   9.613
 2237POPC   GL130565  28.319  21.993   9.182
 2237POPC   GL230566  28.293  22.342   9.032
 2237POPC   C1A30567  28.271  21.896   8.740
 2237POPC   D2A30568  28.564  21.903   8.380
 2237POPC   C3A30569  28.409  22.167   8.045
 2237POPC   C4A30570  28.405  21.877   7.720
 2237POPC   C1B30571  28.691  22.211   8.769
 2237POPC   C2B30572  28.849  22.328   8.341
 2237POPC   C3B30573  28.904  22.093   7.931
 2237POPC   C4B30574  28.719  22.253   7.524
 2238POPC   NC330575   0.488  15.846   9.320
 2238POPC   PO430576   0.665  15.248   9.646
 2238POPC   GL130577   0.459  15.160   9.257
 2238POPC   GL230578   0.537  15.434   9.025
 2238POPC   C1A30579   0.306  15.014   8.858
 2238POPC   D2A30580   0.487  15.190   8.483
 2238POPC   C3A30581   0.326  15.156   8.050
 2238POPC   C4A30582   0.408  15.050   7.598
 2238POPC   C1B30583   0.121  15.468   8.779
 2238POPC   C2B30584   0.118  15.538   8.337
 2238POPC   C3B30585   0.184  15.619   7.912
 2238POPC   C4B30586   0.035  15.404   7.538
 2239POPC   NC330587   3.403  41.778   9.580
 2239POPC   PO430588   3.911  41.470   9.724
 2239POPC   GL130589   3.732  41.456   9.251
 2239POPC   GL230590   3.399  41.593   9.115
 2239POPC   C1A30591   3.705  41.410   8.774
 2239POPC   D2A30592   3.494  41.571   8.386
 2239POPC   C3A30593   3.611  41.434   7.962
 2239POPC   C4A30594   3.462  41.207   7.587
 2239POPC   C1B30595   3.256  41.883   8.795
 2239POPC   C2B30596   3.331  42.061   8.355
 2239POPC   C3B30597   3.334  41.886   7.912
 2239POPC   C4B30598   3.461  41.697   7.500
 2240POPC   NC330599   9.558   5.342   9.641
 2240POPC   PO430600   9.334   4.792   9.491
 2240POPC   GL130601   9.495   4.906   9.093
 2240POPC   GL230602   9.729   5.203   9.138
 2240POPC   C1A30603   9.740   4.870   8.723
 2240POPC   D2A30604   9.653   5.197   8.416
 2240POPC   C3A30605   9.693   5.132   7.990
 2240POPC   C4A30606   9.631   4.831   7.689
 2240POPC   C1B30607   9.994   5.340   8.773
 2240POPC   C2B30608  10.211   5.564   8.443
 2240POPC   C3B30609  10.092   5.629   8.003
 2240POPC   C4B30610  10.077   5.303   7.700
 2241POPC   NC330611  10.070   0.243   9.421
 2241POPC   PO430612  10.700  44.933   9.643
 2241POPC   GL130613  10.602   0.168   9.278
 2241POPC   GL230614  10.508   0.532   9.277
 2241POPC   C1A30615  10.450   0.167   8.875
 2241POPC   D2A30616  10.608   0.312   8.492
 2241POPC   C3A30617  10.447   0.232   8.124
 2241POPC   C4A30618  10.510   0.339   7.719
 2241POPC   C1B30619  10.492   0.679   8.842
 2241POPC   C2B30620  10.382   0.768   8.391
 2241POPC   C3B30621  10.537   0.777   7.967
 2241POPC   C4B30622  10.633   0.888   7.543
 2242POPC   NC330623  14.031  34.349   9.315
 2242POPC   PO430624  13.543  34.592   9.650
 2242POPC   GL130625  13.592  34.625   9.179
 2242POPC   GL230626  13.729  34.946   9.021
 2242POPC   C1A30627  13.628  34.551   8.718
 2242POPC   D2A30628  13.356  34.366   8.424
 2242POPC   C3A30629  13.412  34.563   8.032
 2242POPC   C4A30630  13.320  34.511   7.598
 2242POPC   C1B30631  13.834  35.009   8.670
 2242POPC   C2B30632  13.775  34.836   8.290
 2242POPC   C3B30633  13.900  35.010   7.928
 2242POPC   C4B30634  13.998  34.974   7.512
 2243POPC   NC330635  33.774  33.979   9.555
 2243POPC   PO430636  33.410  34.576   9.491
 2243POPC   GL130637  33.555  34.843   9.111
 2243POPC   GL230638  33.728  34.524   9.022
 2243POPC   C1A30639  33.604  34.830   8.647
 2243POPC   D2A30640  33.607  34.504   8.312
 2243POPC   C3A30641  33.947  34.568   8.022
 2243POPC   C4A30642  34.173  34.900   7.759
 2243POPC   C1B30643  33.962  34.388   8.676
 2243POPC   C2B30644  33.944  34.053   8.381
 2243POPC   C3B30645  33.614  34.002   8.146
 2243POPC   C4B30646  33.508  34.266   7.812
 2244POPC   NC330647  35.083  30.240   9.504
 2244POPC   PO430648  35.411  29.631   9.471
 2244POPC   GL130649  35.218  29.795   9.132
 2244POPC   GL230650  35.309  30.148   9.055
 2244POPC   C1A30651  35.358  29.791   8.715
 2244POPC   D2A30652  35.350  30.093   8.396
 2244POPC   C3A30653  35.114  29.951   8.042
 2244POPC   C4A30654  35.411  29.641   7.853
 2244POPC   C1B30655  35.651  30.351   8.804
 2244POPC   C2B30656  35.712  30.504   8.394
 2244POPC   C3B30657  35.734  30.241   8.053
 2244POPC   C4B30658  35.492  30.123   7.753
 2245POPC   NC330659   9.258   3.351   9.393
 2245POPC   PO430660   8.556   3.402   9.543
 2245POPC   GL130661   8.602   3.562   9.109
 2245POPC   GL230662   8.862   3.324   9.032
 2245POPC   C1A30663   8.701   3.637   8.628
 2245POPC   D2A30664   9.040   3.831   8.359
 2245POPC   C3A30665   9.118   3.705   7.942
 2245POPC   C4A30666   8.858   3.457   7.740
 2245POPC   C1B30667   9.047   3.288   8.621
 2245POPC   C2B30668   8.981   3.296   8.210
 2245POPC   C3B30669   9.280   3.216   7.854
 2245POPC   C4B30670   9.294   3.320   7.407
 2246POPC   NC330671  39.054  10.785   9.699
 2246POPC   PO430672  39.586  10.464   9.558
 2246POPC   GL130673  39.351  10.662   9.237
 2246POPC   GL230674  38.975  10.603   9.232
 2246POPC   C1A30675  39.226  10.831   8.827
 2246POPC   D2A30676  38.989  10.729   8.460
 2246POPC   C3A30677  39.229  10.667   8.100
 2246POPC   C4A30678  39.111  10.765   7.691
 2246POPC   C1B30679  39.001  10.376   8.847
 2246POPC   C2B30680  39.157  10.236   8.437
 2246POPC   C3B30681  39.034  10.230   7.986
 2246POPC   C4B30682  38.867  10.169   7.581
 2247POPC   NC330683  13.556  40.160   9.618
 2247POPC   PO430684  14.106  39.767   9.695
 2247POPC   GL130685  13.878  39.957   9.241
 2247POPC   GL230686  13.501  40.097   9.138
 2247POPC   C1A30687  13.760  40.025   8.737
 2247POPC   D2A30688  13.509  39.940   8.356
 2247POPC   C3A30689  13.781  40.013   7.997
 2247POPC   C4A30690  13.892  40.344   7.689
 2247POPC   C1B30691  13.339  40.347   8.773
 2247POPC   C2B30692  13.450  40.468   8.348
 2247POPC   C3B30693  13.313  40.287   8.003
 2247POPC   C4B30694  13.305  39.964   7.744
 2248POPC   NC330695  38.921  15.595   9.456
 2248POPC   PO430696  39.248  16.212   9.618
 2248POPC   GL130697  39.142  16.050   9.229
 2248POPC   GL230698  39.098  16.407   9.148
 2248POPC   C1A30699  39.309  15.832   8.826
 2248POPC   D2A30700  39.609  15.601   8.494
 2248POPC   C3A30701  39.454  15.610   8.046
 2248POPC   C4A30702  38.989  15.589   7.947
 2248POPC   C1B30703  38.915  16.242   8.802
 2248POPC   C2B30704  39.187  16.288   8.467
 2248POPC   C3B30705  39.177  16.053   8.101
 2248POPC   C4B30706  39.143  16.004   7.670
 2249POPC   NC330707  41.648  17.979   9.385
 2249POPC   PO430708  41.483  18.635   9.514
 2249POPC   GL130709  41.379  18.376   9.124
 2249POPC   GL230710  41.289  17.996   9.043
 2249POPC   C1A30711  41.397  18.345   8.669
 2249POPC   D2A30712  41.734  18.259   8.379
 2249POPC   C3A30713  41.661  18.497   8.000
 2249POPC   C4A30714  41.390  18.468   7.677
 2249POPC   C1B30715  41.425  17.838   8.613
 2249POPC   C2B30716  41.308  18.039   8.193
 2249POPC   C3B30717  41.446  17.970   7.760
 2249POPC   C4B30718  41.251  18.058   7.339
 2250POPC   NC330719  36.714  27.062   9.571
 2250POPC   PO430720  36.182  26.598   9.593
 2250POPC   GL130721  36.169  26.675   9.183
 2250POPC   GL230722  36.396  26.906   9.210
 2250POPC   C1A30723  35.953  26.636   8.787
 2250POPC   D2A30724  36.059  26.461   8.393
 2250POPC   C3A30725  35.944  26.708   8.046
 2250POPC   C4A30726  35.778  26.685   7.614
 2250POPC   C1B30727  36.403  26.914   8.792
 2250POPC   C2B30728  36.257  26.953   8.395
 2250POPC   C3B30729  36.317  27.050   7.967
 2250POPC   C4B30730  36.037  27.105   7.677
 2251POPC   NC330731  29.136  43.513   9.529
 2251POPC   PO430732  29.367  42.881   9.675
 2251POPC   GL130733  29.395  43.097   9.274
 2251POPC   GL230734  29.040  43.140   9.188
 2251POPC   C1A30735  29.439  43.140   8.808
 2251POPC   D2A30736  29.224  43.039   8.406
 2251POPC   C3A30737  29.419  43.090   7.995
 2251POPC   C4A30738  29.488  43.062   7.550
 2251POPC   C1B30739  28.928  43.238   8.777
 2251POPC   C2B30740  28.776  43.355   8.380
 2251POPC   C3B30741  28.833  43.069   8.056
 2251POPC   C4B30742  28.975  43.136   7.658
 2252POPC   NC330743   3.324  22.583   9.329
 2252POPC   PO430744   3.386  21.995   9.661
 2252POPC   GL130745   3.523  22.115   9.196
 2252POPC   GL230746   3.792  22.361   9.192
 2252POPC   C1A30747   3.398  22.348   8.737
 2252POPC   D2A30748   3.211  22.490   8.318
 2252POPC   C3A30749   3.367  22.219   7.981
 2252POPC   C4A30750   3.402  21.751   7.880
 2252POPC   C1B30751   3.863  22.140   8.797
 2252POPC   C2B30752   3.770  22.253   8.364
 2252POPC   C3B30753   3.823  21.997   7.981
 2252POPC   C4B30754   3.845  22.097   7.541
 2253POPC   NC330755  34.209  14.264   9.586
 2253POPC   PO430756  33.749  14.686   9.738
 2253POPC   GL130757  33.769  14.620   9.301
 2253POPC   GL230758  33.547  14.331   9.301
 2253POPC   C1A30759  34.028  14.463   8.946
 2253POPC   D2A30760  33.996  14.269   8.533
 2253POPC   C3A30761  34.001  14.408   8.072
 2253POPC   C4A30762  33.784  14.282   7.656
 2253POPC   C1B30763  33.529  14.296   8.864
 2253POPC   C2B30764  33.501  14.456   8.469
 2253POPC   C3B30765  33.472  14.353   8.065
 2253POPC   C4B30766  33.626  14.718   7.852
 2254POPC   NC330767  19.366  24.372   9.244
 2254POPC   PO430768  18.970  24.760   9.706
 2254POPC   GL130769  18.910  24.822   9.210
 2254POPC   GL230770  18.859  24.484   9.133
 2254POPC   C1A30771  19.129  24.730   8.755
 2254POPC   D2A30772  19.363  24.344   8.545
 2254POPC   C3A30773  19.376  24.363   8.080
 2254POPC   C4A30774  19.130  24.672   7.885
 2254POPC   C1B30775  18.837  24.285   8.735
 2254POPC   C2B30776  18.880  24.440   8.308
 2254POPC   C3B30777  18.829  24.248   7.896
 2254POPC   C4B30778  18.680  24.318   7.429
 2255POPC   NC330779   3.457  16.296   9.693
 2255POPC   PO430780   3.406  16.935   9.648
 2255POPC   GL130781   3.528  16.726   9.276
 2255POPC   GL230782   3.685  16.401   9.243
 2255POPC   C1A30783   3.546  16.802   8.837
 2255POPC   D2A30784   3.384  16.628   8.455
 2255POPC   C3A30785   3.512  16.898   8.131
 2255POPC   C4A30786   3.393  16.840   7.722
 2255POPC   C1B30787   3.778  16.343   8.787
 2255POPC   C2B30788   3.693  16.194   8.355
 2255POPC   C3B30789   3.616  16.431   7.969
 2255POPC   C4B30790   3.769  16.426   7.533
 2256POPC   NC330791  41.082  43.981   9.449
 2256POPC   PO430792  40.391  43.923   9.525
 2256POPC   GL130793  40.615  43.927   9.155
 2256POPC   GL230794  40.906  44.055   8.992
 2256POPC   C1A30795  40.472  43.899   8.749
 2256POPC   D2A30796  40.692  43.980   8.391
 2256POPC   C3A30797  40.448  43.892   8.020
 2256POPC   C4A30798  40.583  43.880   7.593
 2256POPC   C1B30799  40.958  43.669   8.764
 2256POPC   C2B30800  41.073  43.564   8.330
 2256POPC   C3B30801  40.972  43.768   7.922
 2256POPC   C4B30802  41.171  44.150   7.712
 2257POPC   NC330803  36.306  23.080   9.443
 2257POPC   PO430804  35.720  22.773   9.556
 2257POPC   GL130805  35.956  22.801   9.135
 2257POPC   GL230806  36.070  23.134   9.007
 2257POPC   C1A30807  36.069  22.682   8.694
 2257POPC   D2A30808  36.009  22.454   8.280
 2257POPC   C3A30809  35.879  22.656   7.883
 2257POPC   C4A30810  36.047  22.855   7.508
 2257POPC   C1B30811  36.207  23.151   8.614
 2257POPC   C2B30812  36.275  22.931   8.237
 2257POPC   C3B30813  36.111  23.155   7.903
 2257POPC   C4B30814  36.285  23.305   7.514
 2258POPC   NC330815  13.615  37.787   9.422
 2258POPC   PO430816  13.864  37.133   9.634
 2258POPC   GL130817  13.818  37.385   9.156
 2258POPC   GL230818  13.555  37.653   8.958
 2258POPC   C1A30819  13.932  37.436   8.705
 2258POPC   D2A30820  13.919  37.778   8.463
 2258POPC   C3A30821  13.690  37.720   8.127
 2258POPC   C4A30822  13.578  37.986   7.868
 2258POPC   C1B30823  13.261  37.458   8.729
 2258POPC   C2B30824  13.382  37.385   8.365
 2258POPC   C3B30825  13.232  37.484   8.008
 2258POPC   C4B30826  13.292  37.650   7.643
 2259POPC   NC330827  30.385  22.484   9.891
 2259POPC   PO430828  30.968  22.158   9.615
 2259POPC   GL130829  30.901  22.326   9.190
 2259POPC   GL230830  30.904  22.014   9.019
 2259POPC   C1A30831  30.666  22.406   8.762
 2259POPC   D2A30832  30.411  22.501   8.395
 2259POPC   C3A30833  30.622  22.445   8.008
 2259POPC   C4A30834  30.478  22.140   7.738
 2259POPC   C1B30835  30.621  21.841   8.704
 2259POPC   C2B30836  30.618  21.981   8.270
 2259POPC   C3B30837  30.924  22.008   7.921
 2259POPC   C4B30838  31.023  21.759   7.533
 2260POPC   NC330839  21.686  18.553   9.429
 2260POPC   PO430840  21.284  18.093   9.630
 2260POPC   GL130841  21.215  18.041   9.185
 2260POPC   GL230842  21.242  18.396   9.116
 2260POPC   C1A30843  21.379  17.935   8.804
 2260POPC   D2A30844  21.664  17.934   8.479
 2260POPC   C3A30845  21.522  17.800   8.122
 2260POPC   C4A30846  21.456  18.055   7.780
 2260POPC   C1B30847  21.093  18.667   8.758
 2260POPC   C2B30848  20.939  18.598   8.308
 2260POPC   C3B30849  21.219  18.581   7.924
 2260POPC   C4B30850  21.603  18.592   7.697
 2261POPC   NC330851  13.480  44.413   9.546
 2261POPC   PO430852  14.094  44.734   9.598
 2261POPC   GL130853  13.895  44.568   9.214
 2261POPC   GL230854  13.600  44.779   9.150
 2261POPC   C1A30855  13.798  44.420   8.789
 2261POPC   D2A30856  13.628  44.601   8.448
 2261POPC   C3A30857  13.917  44.592   8.124
 2261POPC   C4A30858  13.983  44.370   7.715
 2261POPC   C1B30859  13.478   0.007   8.765
 2261POPC   C2B30860  13.310   0.017   8.362
 2261POPC   C3B30861  13.447  44.791   8.005
 2261POPC   C4B30862  13.771  44.831   7.698
 2262POPC   NC330863  34.611  42.643   9.499
 2262POPC   PO430864  34.904  43.250   9.543
 2262POPC   GL130865  34.699  43.064   9.183
 2262POPC   GL230866  34.895  42.752   9.093
 2262POPC   C1A30867  34.429  43.088   8.814
 2262POPC   D2A30868  34.544  43.090   8.381
 2262POPC   C3A30869  34.312  43.186   8.010
 2262POPC   C4A30870  34.289  43.617   7.767
 2262POPC   C1B30871  34.943  42.937   8.711
 2262POPC   C2B30872  34.957  42.833   8.287
 2262POPC   C3B30873  34.834  43.052   7.915
 2262POPC   C4B30874  34.573  43.208   7.560
 2263POPC   NC330875  15.937  11.230   9.615
 2263POPC   PO430876  15.372  11.643   9.722
 2263POPC   GL130877  15.734  11.613   9.355
 2263POPC   GL230878  16.086  11.634   9.261
 2263POPC   C1A30879  15.762  11.670   8.890
 2263POPC   D2A30880  15.873  11.443   8.531
 2263POPC   C3A30881  15.899  11.594   8.142
 2263POPC   C4A30882  15.767  11.406   7.800
 2263POPC   C1B30883  16.239  11.358   8.896
 2263POPC   C2B30884  16.305  11.185   8.450
 2263POPC   C3B30885  16.004  11.071   8.124
 2263POPC   C4B30886  15.943  10.952   7.658
 2264POPC   NC330887  13.672   0.394   9.525
 2264POPC   PO430888  13.452   1.055   9.488
 2264POPC   GL130889  13.453   0.753   9.161
 2264POPC   GL230890  13.411   0.379   9.103
 2264POPC   C1A30891  13.796   0.620   8.875
 2264POPC   D2A30892  14.019   0.598   8.497
 2264POPC   C3A30893  13.872   0.797   8.145
 2264POPC   C4A30894  13.939   0.723   7.720
 2264POPC   C1B30895  13.300   0.509   8.715
 2264POPC   C2B30896  13.549   0.478   8.382
 2264POPC   C3B30897  13.651   0.296   8.012
 2264POPC   C4B30898  13.213   0.254   7.878
 2265POPC   NC330899   0.966   7.126   9.383
 2265POPC   PO430900   0.993   7.826   9.388
 2265POPC   GL130901   1.332   7.623   9.163
 2265POPC   GL230902   1.459   7.279   9.228
 2265POPC   C1A30903   1.152   7.572   8.769
 2265POPC   D2A30904   0.922   7.597   8.408
 2265POPC   C3A30905   1.072   7.636   8.025
 2265POPC   C4A30906   1.281   7.652   7.644
 2265POPC   C1B30907   1.314   7.090   8.815
 2265POPC   C2B30908   1.331   7.274   8.391
 2265POPC   C3B30909   1.218   7.154   7.992
 2265POPC   C4B30910   1.340   6.816   7.758
 2266POPC   NC330911  43.495   0.546   9.485
 2266POPC   PO430912  43.121  44.985   9.740
 2266POPC   GL130913  43.055   0.224   9.268
 2266POPC   GL230914  43.008   0.617   9.261
 2266POPC   C1A30915  43.118   0.378   8.822
 2266POPC   D2A30916  42.863   0.324   8.447
 2266POPC   C3A30917  42.975   0.373   8.017
 2266POPC   C4A30918  43.321   0.281   7.789
 2266POPC   C1B30919  43.062   0.878   8.853
 2266POPC   C2B30920  43.221   0.884   8.430
 2266POPC   C3B30921  43.299   0.749   8.026
 2266POPC   C4B30922  43.015   0.906   7.803
 2267POPC   NC330923  38.352  40.004   9.515
 2267POPC   PO430924  38.940  40.380   9.441
 2267POPC   GL130925  38.626  40.139   9.113
 2267POPC   GL230926  38.285  40.023   9.028
 2267POPC   C1A30927  38.622  39.948   8.677
 2267POPC   D2A30928  38.799  39.906   8.274
 2267POPC   C3A30929  38.588  39.874   7.893
 2267POPC   C4A30930  38.555  40.122   7.515
 2267POPC   C1B30931  38.188  40.315   8.712
 2267POPC   C2B30932  38.378  40.299   8.314
 2267POPC   C3B30933  38.260  40.239   7.930
 2267POPC   C4B30934  38.085  39.911   7.732
 2268POPC   NC330935   6.266  28.028   9.451
 2268POPC   PO430936   5.571  28.335   9.518
 2268POPC   GL130937   5.812  28.341   9.125
 2268POPC   GL230938   6.017  28.637   9.025
 2268POPC   C1A30939   5.664  28.483   8.706
 2268POPC   D2A30940   5.871  28.641   8.346
 2268POPC   C3A30941   5.778  28.547   7.954
 2268POPC   C4A30942   5.882  28.183   7.745
 2268POPC   C1B30943   6.243  28.563   8.682
 2268POPC   C2B30944   6.393  28.279   8.409
 2268POPC   C3B30945   6.264  28.358   8.026
 2268POPC   C4B30946   6.230  28.737   7.811
 2269POPC   NC330947  33.875  20.739   9.783
 2269POPC   PO430948  34.473  20.707   9.592
 2269POPC   GL130949  34.508  20.737   9.171
 2269POPC   GL230950  34.796  20.915   9.169
 2269POPC   C1A30951  34.635  20.617   8.771
 2269POPC   D2A30952  34.585  20.884   8.433
 2269POPC   C3A30953  34.374  20.703   8.098
 2269POPC   C4A30954  34.229  20.644   7.687
 2269POPC   C1B30955  34.924  21.034   8.794
 2269POPC   C2B30956  35.075  20.730   8.520
 2269POPC   C3B30957  34.849  20.487   8.217
 2269POPC   C4B30958  34.756  20.563   7.786
 2270POPC   NC330959   8.433  37.354   9.394
 2270POPC   PO430960   8.177  38.045   9.377
 2270POPC   GL130961   8.111  37.898   9.005
 2270POPC   GL230962   7.993  37.549   9.138
 2270POPC   C1A30963   8.216  38.005   8.562
 2270POPC   D2A30964   8.584  38.037   8.269
 2270POPC   C3A30965   8.469  37.774   7.936
 2270POPC   C4A30966   8.508  37.383   7.789
 2270POPC   C1B30967   8.016  37.518   8.693
 2270POPC   C2B30968   8.212  37.492   8.290
 2270POPC   C3B30969   8.010  37.461   7.888
 2270POPC   C4B30970   8.101  37.435   7.445
 2271POPC   NC330971   4.066  43.038   9.613
 2271POPC   PO430972   4.630  43.375   9.500
 2271POPC   GL130973   4.407  43.045   9.202
 2271POPC   GL230974   4.028  42.923   9.127
 2271POPC   C1A30975   4.367  42.903   8.759
 2271POPC   D2A30976   4.327  43.215   8.434
 2271POPC   C3A30977   4.376  43.030   8.053
 2271POPC   C4A30978   4.071  42.883   7.788
 2271POPC   C1B30979   3.927  43.238   8.822
 2271POPC   C2B30980   3.807  43.333   8.386
 2271POPC   C3B30981   4.012  43.400   7.965
 2271POPC   C4B30982   4.105  43.321   7.496
 2272POPC   NC330983  19.240   2.436   9.440
 2272POPC   PO430984  18.847   2.929   9.607
 2272POPC   GL130985  19.194   2.926   9.272
 2272POPC   GL230986  18.965   3.013   9.023
 2272POPC   C1A30987  19.390   2.875   8.825
 2272POPC   D2A30988  19.091   2.920   8.506
 2272POPC   C3A30989  19.281   2.866   8.109
 2272POPC   C4A30990  19.206   2.988   7.693
 2272POPC   C1B30991  18.776   2.613   8.780
 2272POPC   C2B30992  18.697   2.426   8.339
 2272POPC   C3B30993  18.925   2.532   7.936
 2272POPC   C4B30994  18.946   2.484   7.449
 2273POPC   NC330995  37.370  13.432   9.631
 2273POPC   PO430996  37.915  13.739   9.955
 2273POPC   GL130997  37.845  13.766   9.406
 2273POPC   GL230998  37.558  13.572   9.193
 2273POPC   C1A30999  37.819  13.864   8.897
 2273POPC   D2A31000  37.928  13.758   8.444
 2273POPC   C3A31001  37.876  13.444   8.108
 2273POPC   C4A31002  37.940  13.551   7.685
 2273POPC   C1B31003  37.357  13.484   8.799
 2273POPC   C2B31004  37.403  13.499   8.356
 2273POPC   C3B31005  37.414  13.617   7.924
 2273POPC   C4B31006  37.515  13.245   7.725
 2274POPC   NC331007  11.300  37.352   9.557
 2274POPC   PO431008  11.105  36.722   9.504
 2274POPC   GL131009  11.282  36.841   9.097
 2274POPC   GL231010  11.332  37.182   9.079
 2274POPC   C1A31011  11.255  36.887   8.628
 2274POPC   D2A31012  11.441  37.169   8.356
 2274POPC   C3A31013  11.395  36.961   7.995
 2274POPC   C4A31014  11.277  37.093   7.642
 2274POPC   C1B31015  10.972  37.271   8.782
 2274POPC   C2B31016  10.752  37.112   8.443
 2274POPC   C3B31017  10.960  37.242   8.092
 2274POPC   C4B31018  10.931  37.445   7.727
 2275POPC   NC331019  28.775  12.703   9.448
 2275POPC   PO431020  28.078  12.750   9.487
 2275POPC   GL131021  28.321  12.949   9.137
 2275POPC   GL231022  28.662  12.874   8.940
 2275POPC   C1A31023  28.238  12.813   8.705
 2275POPC   D2A31024  28.465  12.636   8.379
 2275POPC   C3A31025  28.416  12.937   8.073
 2275POPC   C4A31026  28.475  13.115   7.669
 2275POPC   C1B31027  28.935  12.559   8.852
 2275POPC   C2B31028  29.015  12.473   8.473
 2275POPC   C3B31029  28.914  12.690   8.115
 2275POPC   C4B31030  28.672  12.633   7.746
 2276POPC   NC331031  29.755  35.272   9.434
 2276POPC   PO431032  29.792  35.947   9.655
 2276POPC   GL131033  29.895  35.744   9.219
 2276POPC   GL231034  30.101  35.506   9.111
 2276POPC   C1A31035  29.818  35.712   8.737
 2276POPC   D2A31036  29.730  35.330   8.510
 2276POPC   C3A31037  29.653  35.316   8.094
 2276POPC   C4A31038  29.837  35.203   7.730
 2276POPC   C1B31039  30.184  35.282   8.742
 2276POPC   C2B31040  30.227  35.548   8.400
 2276POPC   C3B31041  30.170  35.425   8.019
 2276POPC   C4B31042  30.219  35.501   7.600
 2277POPC   NC331043  16.152   8.637   9.366
 2277POPC   PO431044  15.918   9.257   9.495
 2277POPC   GL131045  15.734   8.935   9.208
 2277POPC   GL231046  15.411   9.071   9.121
 2277POPC   C1A31047  15.844   8.861   8.770
 2277POPC   D2A31048  15.973   9.214   8.493
 2277POPC   C3A31049  16.124   9.094   8.075
 2277POPC   C4A31050  16.147   8.715   7.800
 2277POPC   C1B31051  15.479   9.218   8.671
 2277POPC   C2B31052  15.551   9.169   8.202
 2277POPC   C3B31053  15.689   9.023   7.808
 2277POPC   C4B31054  15.645   9.254   7.460
 2278POPC   NC331055   5.553   1.017   9.471
 2278POPC   PO431056   6.183   1.412   9.525
 2278POPC   GL131057   6.040   1.076   9.247
 2278POPC   GL231058   5.755   1.265   9.081
 2278POPC   C1A31059   6.059   0.962   8.809
 2278POPC   D2A31060   5.800   1.036   8.449
 2278POPC   C3A31061   5.931   1.279   8.068
 2278POPC   C4A31062   6.100   1.153   7.670
 2278POPC   C1B31063   5.414   1.119   8.816
 2278POPC   C2B31064   5.294   0.996   8.397
 2278POPC   C3B31065   5.517   0.979   8.019
 2278POPC   C4B31066   5.591   1.220   7.655
 2279POPC   NC331067  13.229  15.000   9.564
 2279POPC   PO431068  12.592  14.955   9.390
 2279POPC   GL131069  12.745  15.247   9.108
 2279POPC   GL231070  13.089  15.176   9.082
 2279POPC   C1A31071  12.788  15.261   8.673
 2279POPC   D2A31072  12.571  15.116   8.337
 2279POPC   C3A31073  12.649  15.319   7.944
 2279POPC   C4A31074  12.603  15.063   7.584
 2279POPC   C1B31075  13.156  14.924   8.679
 2279POPC   C2B31076  13.096  15.075   8.291
 2279POPC   C3B31077  12.943  14.906   7.934
 2279POPC   C4B31078  13.146  14.782   7.586
 2280POPC   NC331079  40.077   5.869   9.699
 2280POPC   PO431080  39.550   6.079   9.413
 2280POPC   GL131081  39.887   5.843   9.215
 2280POPC   GL231082  40.161   6.081   9.158
 2280POPC   C1A31083  40.090   5.615   8.873
 2280POPC   D2A31084  39.866   5.596   8.495
 2280POPC   C3A31085  39.983   5.867   8.202
 2280POPC   C4A31086  40.030   5.832   7.767
 2280POPC   C1B31087  40.081   6.106   8.682
 2280POPC   C2B31088  40.323   6.237   8.283
 2280POPC   C3B31089  40.343   6.227   7.796
 2280POPC   C4B31090  40.322   6.086   7.353
 2281POPC   NC331091  14.506  28.594   9.511
 2281POPC   PO431092  13.978  28.173   9.439
 2281POPC   GL131093  14.199  28.399   9.116
 2281POPC   GL231094  14.564  28.396   9.056
 2281POPC   C1A31095  14.190  28.247   8.695
 2281POPC   D2A31096  14.363  27.982   8.373
 2281POPC   C3A31097  14.256  28.097   7.927
 2281POPC   C4A31098  14.142  28.112   7.480
 2281POPC   C1B31099  14.699  28.297   8.651
 2281POPC   C2B31100  14.881  28.115   8.292
 2281POPC   C3B31101  14.947  28.217   7.869
 2281POPC   C4B31102  14.632  28.232   7.588
 2282POPC   NC331103  21.840  33.219   9.595
 2282POPC   PO431104  22.244  33.792   9.460
 2282POPC   GL131105  22.314  33.707   9.036
 2282POPC   GL231106  22.351  33.368   9.117
 2282POPC   C1A31107  22.237  33.853   8.585
 2282POPC   D2A31108  22.258  33.956   8.165
 2282POPC   C3A31109  22.455  33.690   7.918
 2282POPC   C4A31110  22.141  33.789   7.660
 2282POPC   C1B31111  22.113  33.368   8.705
 2282POPC   C2B31112  22.090  33.443   8.234
 2282POPC   C3B31113  22.022  33.294   7.811
 2282POPC   C4B31114  21.936  33.430   7.375
 2283POPC   NC331115  17.953   0.677   9.796
 2283POPC   PO431116  18.524   0.897   9.480
 2283POPC   GL131117  18.479   0.502   9.219
 2283POPC   GL231118  18.111   0.321   9.145
 2283POPC   C1A31119  18.504   0.465   8.775
 2283POPC   D2A31120  18.200   0.576   8.436
 2283POPC   C3A31121  18.385   0.518   8.015
 2283POPC   C4A31122  18.199   0.740   7.642
 2283POPC   C1B31123  18.127   0.121   8.708
 2283POPC   C2B31124  18.109   0.115   8.231
 2283POPC   C3B31125  17.938   0.333   7.859
 2283POPC   C4B31126  17.918   0.349   7.405
 2284POPC   NC331127  39.703  28.453   9.536
 2284POPC   PO431128  39.236  28.855   9.383
 2284POPC   GL131129  39.238  28.598   9.064
 2284POPC   GL231130  39.474  28.372   9.087
 2284POPC   C1A31131  39.336  28.622   8.645
 2284POPC   D2A31132  39.058  28.737   8.327
 2284POPC   C3A31133  39.182  28.586   7.917
 2284POPC   C4A31134  39.158  28.382   7.515
 2284POPC   C1B31135  39.212  28.143   8.817
 2284POPC   C2B31136  39.362  28.124   8.418
 2284POPC   C3B31137  39.226  28.080   8.013
 2284POPC   C4B31138  39.395  27.954   7.658
 2285POPC   NC331139  41.741  41.199   9.485
 2285POPC   PO431140  41.172  40.822   9.628
 2285POPC   GL131141  41.273  40.833   9.195
 2285POPC   GL231142  41.613  40.678   9.162
 2285POPC   C1A31143  41.252  40.855   8.737
 2285POPC   D2A31144  41.297  40.730   8.306
 2285POPC   C3A31145  41.367  41.080   8.049
 2285POPC   C4A31146  41.530  41.074   7.629
 2285POPC   C1B31147  41.738  40.954   8.812
 2285POPC   C2B31148  41.832  40.832   8.408
 2285POPC   C3B31149  41.866  40.998   8.016
 2285POPC   C4B31150  41.989  40.859   7.655
 2286POPC   NC331151   8.062  32.131   9.567
 2286POPC   PO431152   8.710  32.407   9.623
 2286POPC   GL131153   8.429  32.382   9.235
 2286POPC   GL231154   8.358  32.030   9.167
 2286POPC   C1A31155   8.235  32.474   8.811
 2286POPC   D2A31156   8.272  32.254   8.394
 2286POPC   C3A31157   8.195  32.457   8.016
 2286POPC   C4A31158   8.410  32.383   7.615
 2286POPC   C1B31159   8.141  31.968   8.794
 2286POPC   C2B31160   7.783  32.117   8.532
 2286POPC   C3B31161   7.777  32.118   8.083
 2286POPC   C4B31162   7.943  32.181   7.665
 2287POPC   NC331163  32.491  30.675   9.559
 2287POPC   PO431164  32.019  30.945   9.206
 2287POPC   GL131165  32.347  30.720   9.036
 2287POPC   GL231166  32.339  30.373   9.095
 2287POPC   C1A31167  32.375  30.752   8.601
 2287POPC   D2A31168  32.297  31.112   8.379
 2287POPC   C3A31169  31.998  30.986   8.096
 2287POPC   C4A31170  32.083  30.878   7.679
 2287POPC   C1B31171  32.657  30.338   8.749
 2287POPC   C2B31172  32.716  30.462   8.326
 2287POPC   C3B31173  32.440  30.665   8.017
 2287POPC   C4B31174  32.400  30.487   7.587
 2288POPC   NC331175  24.121   1.325   9.571
 2288POPC   PO431176  24.618   1.720   9.704
 2288POPC   GL131177  24.520   1.330   9.245
 2288POPC   GL231178  24.226   1.447   9.090
 2288POPC   C1A31179  24.645   1.324   8.764
 2288POPC   D2A31180  24.356   1.489   8.466
 2288POPC   C3A31181  24.569   1.416   8.095
 2288POPC   C4A31182  24.721   1.472   7.691
 2288POPC   C1B31183  24.234   1.081   8.890
 2288POPC   C2B31184  24.306   0.971   8.486
 2288POPC   C3B31185  24.184   1.078   8.080
 2288POPC   C4B31186  24.439   1.011   7.766
 2289POPC   NC331187  34.763   8.295   9.678
 2289POPC   PO431188  34.393   7.782   9.596
 2289POPC   GL131189  34.483   7.838   9.156
 2289POPC   GL231190  34.795   7.918   9.070
 2289POPC   C1A31191  34.340   8.058   8.780
 2289POPC   D2A31192  34.226   7.984   8.369
 2289POPC   C3A31193  34.473   8.240   8.034
 2289POPC   C4A31194  34.497   8.592   7.699
 2289POPC   C1B31195  34.836   8.178   8.712
 2289POPC   C2B31196  34.999   8.187   8.297
 2289POPC   C3B31197  35.043   8.108   7.872
 2289POPC   C4B31198  35.052   8.023   7.442
 2290POPC   NC331199  44.768  31.958   9.580
 2290POPC   PO431200  44.370  32.373   9.458
 2290POPC   GL131201  44.466  32.276   9.089
 2290POPC   GL231202  44.366  31.925   9.079
 2290POPC   C1A31203  44.614  32.406   8.688
 2290POPC   D2A31204  44.679  32.595   8.322
 2290POPC   C3A31205  44.637  32.299   8.050
 2290POPC   C4A31206  44.687  32.287   7.650
 2290POPC   C1B31207  44.804  31.972   8.878
 2290POPC   C2B31208   0.000  32.099   8.473
 2290POPC   C3B31209   0.040  32.001   8.037
 2290POPC   C4B31210  44.948  31.869   7.629
 2291POPC   NC331211  34.945  22.433   9.477
 2291POPC   PO431212  35.293  21.855   9.549
 2291POPC   GL131213  35.063  22.042   9.144
 2291POPC   GL231214  35.126  21.742   9.070
 2291POPC   C1A31215  35.065  22.150   8.647
 2291POPC   D2A31216  35.487  22.149   8.366
 2291POPC   C3A31217  35.426  22.341   7.965
 2291POPC   C4A31218  35.020  22.319   7.699
 2291POPC   C1B31219  35.426  21.847   8.787
 2291POPC   C2B31220  35.182  21.737   8.366
 2291POPC   C3B31221  35.177  21.880   7.937
 2291POPC   C4B31222  35.572  21.938   7.680
 2292POPC   NC331223   2.648  14.823   9.367
 2292POPC   PO431224   3.100  15.445   9.431
 2292POPC   GL131225   2.837  15.250   9.161
 2292POPC   GL231226   2.497  15.323   9.196
 2292POPC   C1A31227   2.951  15.107   8.790
 2292POPC   D2A31228   2.995  15.255   8.397
 2292POPC   C3A31229   2.640  15.222   8.130
 2292POPC   C4A31230   2.805  15.103   7.753
 2292POPC   C1B31231   2.435  15.122   8.784
 2292POPC   C2B31232   2.633  14.839   8.496
 2292POPC   C3B31233   2.543  14.693   8.106
 2292POPC   C4B31234   2.414  14.801   7.725
 2293POPC   NC331235   7.821  12.269   9.565
 2293POPC   PO431236   7.390  11.809   9.561
 2293POPC   GL131237   7.624  11.948   9.179
 2293POPC   GL231238   7.814  11.814   9.024
 2293POPC   C1A31239   7.504  11.998   8.693
 2293POPC   D2A31240   7.333  11.789   8.331
 2293POPC   C3A31241   7.180  12.056   8.052
 2293POPC   C4A31242   7.420  12.041   7.723
 2293POPC   C1B31243   7.817  12.335   8.925
 2293POPC   C2B31244   7.623  12.499   8.563
 2293POPC   C3B31245   7.626  12.315   8.150
 2293POPC   C4B31246   7.524  12.513   7.769
 2294POPC   NC331247   4.678   1.303   9.497
 2294POPC   PO431248   5.355   1.436   9.484
 2294POPC   GL131249   5.049   1.341   9.110
 2294POPC   GL231250   4.737   1.190   9.030
 2294POPC   C1A31251   5.012   1.391   8.642
 2294POPC   D2A31252   5.409   1.510   8.435
 2294POPC   C3A31253   5.409   1.489   8.031
 2294POPC   C4A31254   5.099   1.385   7.716
 2294POPC   C1B31255   4.657   1.016   8.676
 2294POPC   C2B31256   4.809   1.051   8.298
 2294POPC   C3B31257   5.002   0.947   7.940
 2294POPC   C4B31258   4.855   0.816   7.543
 2295POPC   NC331259  40.066  22.258   9.567
 2295POPC   PO431260  39.713  21.776   9.372
 2295POPC   GL131261  40.011  22.024   9.113
 2295POPC   GL231262  39.935  22.401   9.037
 2295POPC   C1A31263  40.069  22.068   8.678
 2295POPC   D2A31264  39.825  22.207   8.356
 2295POPC   C3A31265  40.091  22.440   8.102
 2295POPC   C4A31266  40.182  22.239   7.746
 2295POPC   C1B31267  39.715  22.599   8.643
 2295POPC   C2B31268  39.616  22.630   8.173
 2295POPC   C3B31269  39.775  22.580   7.722
 2295POPC   C4B31270  39.566  22.629   7.280
 2296POPC   NC331271  21.599  26.781   9.412
 2296POPC   PO431272  21.105  27.082   9.765
 2296POPC   GL131273  21.089  26.823   9.275
 2296POPC   GL231274  21.140  26.481   9.109
 2296POPC   C1A31275  21.165  26.866   8.783
 2296POPC   D2A31276  21.484  26.878   8.438
 2296POPC   C3A31277  21.398  27.012   8.024
 2296POPC   C4A31278  21.061  26.824   7.812
 2296POPC   C1B31279  21.525  26.504   8.812
 2296POPC   C2B31280  21.550  26.363   8.361
 2296POPC   C3B31281  21.575  26.533   7.928
 2296POPC   C4B31282  21.883  26.595   7.602
 2297POPC   NC331283   4.769   5.641   9.658
 2297POPC   PO431284   5.281   6.058   9.737
 2297POPC   GL131285   5.031   6.020   9.322
 2297POPC   GL231286   5.028   5.672   9.208
 2297POPC   C1A31287   5.010   6.057   8.819
 2297POPC   D2A31288   4.778   6.068   8.380
 2297POPC   C3A31289   4.899   6.171   7.959
 2297POPC   C4A31290   5.180   5.961   7.671
 2297POPC   C1B31291   4.754   5.555   8.870
 2297POPC   C2B31292   4.621   5.586   8.421
 2297POPC   C3B31293   4.878   5.659   8.043
 2297POPC   C4B31294   5.303   5.531   7.913
 2298POPC   NC331295  15.780   1.698   9.203
 2298POPC   PO431296  16.248   1.945   9.577
 2298POPC   GL131297  16.112   2.123   9.167
 2298POPC   GL231298  15.732   2.226   9.175
 2298POPC   C1A31299  16.271   2.090   8.716
 2298POPC   D2A31300  16.212   1.770   8.376
 2298POPC   C3A31301  16.412   1.731   7.963
 2298POPC   C4A31302  16.307   1.931   7.557
 2298POPC   C1B31303  15.770   2.207   8.734
 2298POPC   C2B31304  15.811   2.140   8.316
 2298POPC   C3B31305  15.949   2.028   7.902
 2298POPC   C4B31306  15.887   2.225   7.466
 2299POPC   NC331307  32.938  10.184   9.500
 2299POPC   PO431308  33.336  10.816   9.577
 2299POPC   GL131309  33.315  10.672   9.166
 2299POPC   GL231310  33.133  10.382   9.091
 2299POPC   C1A31311  33.201  10.741   8.761
 2299POPC   D2A31312  32.968  10.546   8.473
 2299POPC   C3A31313  33.061  10.605   8.046
 2299POPC   C4A31314  32.924  10.470   7.648
 2299POPC   C1B31315  32.720  10.321   8.887
 2299POPC   C2B31316  32.520  10.304   8.489
 2299POPC   C3B31317  32.609  10.253   8.052
 2299POPC   C4B31318  32.576  10.100   7.624
 2300POPC   NC331319  15.736  32.239   9.554
 2300POPC   PO431320  16.454  32.182   9.623
 2300POPC   GL131321  16.136  32.320   9.250
 2300POPC   GL231322  15.949  32.630   9.294
 2300POPC   C1A31323  16.103  32.176   8.820
 2300POPC   D2A31324  16.275  32.053   8.412
 2300POPC   C3A31325  16.108  32.083   7.985
 2300POPC   C4A31326  16.108  31.871   7.559
 2300POPC   C1B31327  15.915  32.650   8.841
 2300POPC   C2B31328  16.059  32.514   8.425
 2300POPC   C3B31329  16.079  32.614   7.998
 2300POPC   C4B31330  15.755  32.691   7.684
 2301POPC   NC331331  32.988  34.359   9.541
 2301POPC   PO431332  32.704  34.958   9.525
 2301POPC   GL131333  32.764  34.711   9.165
 2301POPC   GL231334  33.085  34.699   9.109
 2301POPC   C1A31335  32.830  34.318   8.912
 2301POPC   D2A31336  32.890  34.193   8.500
 2301POPC   C3A31337  33.156  34.300   8.197
 2301POPC   C4A31338  33.011  34.362   7.812
 2301POPC   C1B31339  33.121  34.636   8.647
 2301POPC   C2B31340  32.831  34.694   8.277
 2301POPC   C3B31341  32.951  34.854   7.885
 2301POPC   C4B31342  33.415  34.774   7.796
 2302POPC   NC331343  34.916   6.184   9.522
 2302POPC   PO431344  34.303   5.897   9.599
 2302POPC   GL131345  34.444   5.740   9.190
 2302POPC   GL231346  34.146   5.562   9.111
 2302POPC   C1A31347  34.601   5.777   8.746
 2302POPC   D2A31348  34.447   5.988   8.338
 2302POPC   C3A31349  34.692   5.981   7.927
 2302POPC   C4A31350  34.624   5.720   7.541
 2302POPC   C1B31351  34.089   5.781   8.724
 2302POPC   C2B31352  34.052   5.667   8.304
 2302POPC   C3B31353  34.234   5.740   7.911
 2302POPC   C4B31354  34.087   5.733   7.503
 2303POPC   NC331355   5.140  38.014   9.388
 2303POPC   PO431356   5.268  37.383   9.167
 2303POPC   GL131357   5.224  37.741   8.962
 2303POPC   GL231358   5.473  37.959   9.030
 2303POPC   C1A31359   5.274  37.677   8.560
 2303POPC   D2A31360   5.056  37.412   8.352
 2303POPC   C3A31361   5.084  37.429   7.947
 2303POPC   C4A31362   4.826  37.723   7.750
 2303POPC   C1B31363   5.483  38.133   8.670
 2303POPC   C2B31364   5.463  38.015   8.257
 2303POPC   C3B31365   5.322  37.934   7.875
 2303POPC   C4B31366   5.591  38.006   7.532
 2304POPC   NC331367  42.587   2.489   9.328
 2304POPC   PO431368  43.189   2.618   9.560
 2304POPC   GL131369  43.074   2.666   9.124
 2304POPC   GL231370  42.820   2.887   8.995
 2304POPC   C1A31371  43.277   2.757   8.734
 2304POPC   D2A31372  43.330   2.520   8.389
 2304POPC   C3A31373  43.310   2.701   8.031
 2304POPC   C4A31374  43.193   2.608   7.667
 2304POPC   C1B31375  42.790   2.665   8.649
 2304POPC   C2B31376  42.845   2.607   8.204
 2304POPC   C3B31377  42.827   2.931   7.921
 2304POPC   C4B31378  42.961   3.026   7.532
 2305POPC   NC331379  28.793  29.769   9.537
 2305POPC   PO431380  28.099  30.073   9.526
 2305POPC   GL131381  28.412  29.943   9.259
 2305POPC   GL231382  28.225  30.073   9.022
 2305POPC   C1A31383  28.507  29.651   8.923
 2305POPC   D2A31384  28.557  29.666   8.469
 2305POPC   C3A31385  28.262  29.845   8.200
 2305POPC   C4A31386  28.301  29.976   7.803
 2305POPC   C1B31387  28.063  29.872   8.682
 2305POPC   C2B31388  27.955  30.200   8.408
 2305POPC   C3B31389  27.928  30.244   8.002
 2305POPC   C4B31390  28.068  30.435   7.637
 2306POPC   NC331391   6.398  24.246   9.746
 2306POPC   PO431392   6.889  24.518   9.300
 2306POPC   GL131393   6.682  24.374   8.979
 2306POPC   GL231394   6.417  24.264   9.221
 2306POPC   C1A31395   6.624  24.478   8.570
 2306POPC   D2A31396   6.385  24.591   8.248
 2306POPC   C3A31397   6.608  24.559   7.940
 2306POPC   C4A31398   6.718  24.543   7.567
 2306POPC   C1B31399   6.201  24.266   8.851
 2306POPC   C2B31400   6.251  24.134   8.435
 2306POPC   C3B31401   6.521  24.082   8.108
 2306POPC   C4B31402   6.358  24.065   7.693
 2307POPC   NC331403  37.294  41.545   9.577
 2307POPC   PO431404  36.691  41.481   9.398
 2307POPC   GL131405  37.002  41.448   9.116
 2307POPC   GL231406  37.158  41.195   9.189
 2307POPC   C1A31407  37.042  41.603   8.717
 2307POPC   D2A31408  36.928  41.994   8.506
 2307POPC   C3A31409  37.074  42.033   8.083
 2307POPC   C4A31410  36.952  41.685   7.859
 2307POPC   C1B31411  37.315  41.180   8.787
 2307POPC   C2B31412  37.125  41.213   8.373
 2307POPC   C3B31413  37.293  41.302   7.967
 2307POPC   C4B31414  37.438  41.666   7.721
 2308POPC   NC331415  34.360  22.915   9.583
 2308POPC   PO431416  35.018  22.796   9.745
 2308POPC   GL131417  34.893  22.911   9.290
 2308POPC   GL231418  34.578  23.122   9.164
 2308POPC   C1A31419  34.868  22.876   8.829
 2308POPC   D2A31420  34.604  23.060   8.536
 2308POPC   C3A31421  34.659  23.015   8.103
 2308POPC   C4A31422  34.606  22.656   7.831
 2308POPC   C1B31423  34.344  22.803   8.914
 2308POPC   C2B31424  34.153  22.805   8.486
 2308POPC   C3B31425  34.191  22.808   8.069
 2308POPC   C4B31426  34.270  23.127   7.773
 2309POPC   NC331427  16.801  16.252   9.874
 2309POPC   PO431428  16.653  15.711   9.409
 2309POPC   GL131429  16.534  15.805   9.060
 2309POPC   GL231430  16.422  16.146   9.111
 2309POPC   C1A31431  16.783  15.937   8.712
 2309POPC   D2A31432  16.780  15.841   8.282
 2309POPC   C3A31433  17.067  15.849   7.975
 2309POPC   C4A31434  17.228  16.218   7.758
 2309POPC   C1B31435  16.256  16.035   8.717
 2309POPC   C2B31436  16.147  15.931   8.326
 2309POPC   C3B31437  16.382  15.900   7.983
 2309POPC   C4B31438  16.704  16.204   7.871
 2310POPC   NC331439  39.298   1.786   9.338
 2310POPC   PO431440  39.211   1.102   9.533
 2310POPC   GL131441  39.106   1.220   9.140
 2310POPC   GL231442  38.897   1.503   9.184
 2310POPC   C1A31443  39.273   1.366   8.771
 2310POPC   D2A31444  39.065   1.220   8.420
 2310POPC   C3A31445  39.206   1.020   8.068
 2310POPC   C4A31446  39.363   1.224   7.735
 2310POPC   C1B31447  38.751   1.460   8.751
 2310POPC   C2B31448  38.716   1.560   8.292
 2310POPC   C3B31449  39.126   1.676   8.071
 2310POPC   C4B31450  39.235   1.695   7.603
 2311POPC   NC331451  37.292  11.742   9.318
 2311POPC   PO431452  36.748  12.038   9.663
 2311POPC   GL131453  36.759  12.152   9.213
 2311POPC   GL231454  36.441  11.995   9.051
 2311POPC   C1A31455  37.075  12.288   8.900
 2311POPC   D2A31456  37.197  12.431   8.486
 2311POPC   C3A31457  37.187  12.229   8.060
 2311POPC   C4A31458  37.079  12.338   7.638
 2311POPC   C1B31459  36.573  12.267   8.732
 2311POPC   C2B31460  36.726  12.291   8.342
 2311POPC   C3B31461  36.690  12.193   7.943
 2311POPC   C4B31462  36.838  11.898   7.755
 2312POPC   NC331463  21.186  34.761   9.580
 2312POPC   PO431464  21.487  34.249   9.350
 2312POPC   GL131465  21.429  34.669   9.140
 2312POPC   GL231466  21.079  34.866   9.099
 2312POPC   C1A31467  21.584  34.652   8.742
 2312POPC   D2A31468  21.414  34.435   8.398
 2312POPC   C3A31469  21.567  34.593   8.032
 2312POPC   C4A31470  21.404  34.592   7.667
 2312POPC   C1B31471  21.059  34.570   8.795
 2312POPC   C2B31472  20.898  34.611   8.410
 2312POPC   C3B31473  21.073  34.685   8.047
 2312POPC   C4B31474  21.020  34.291   7.873
 2313POPC   NC331475  16.852  44.116   9.394
 2313POPC   PO431476  16.533  43.453   9.427
 2313POPC   GL131477  16.591  43.742   9.141
 2313POPC   GL231478  16.938  43.680   9.180
 2313POPC   C1A31479  16.557  43.987   8.754
 2313POPC   D2A31480  16.782  44.003   8.346
 2313POPC   C3A31481  16.554  43.846   7.952
 2313POPC   C4A31482  16.428  44.126   7.599
 2313POPC   C1B31483  17.023  43.793   8.776
 2313POPC   C2B31484  17.146  43.658   8.350
 2313POPC   C3B31485  17.055  43.718   7.874
 2313POPC   C4B31486  17.106  43.835   7.406
 2314POPC   NC331487  30.468  30.687   9.162
 2314POPC   PO431488  31.040  31.073   9.361
 2314POPC   GL131489  30.916  30.833   9.004
 2314POPC   GL231490  30.919  30.433   9.006
 2314POPC   C1A31491  30.750  30.823   8.616
 2314POPC   D2A31492  30.545  31.036   8.281
 2314POPC   C3A31493  30.438  30.838   7.892
 2314POPC   C4A31494  30.711  30.906   7.544
 2314POPC   C1B31495  30.687  30.301   8.669
 2314POPC   C2B31496  30.497  30.494   8.324
 2314POPC   C3B31497  30.656  30.369   7.967
 2314POPC   C4B31498  30.497  30.405   7.577
 2315POPC   NC331499  22.307  41.043   9.594
 2315POPC   PO431500  22.147  41.727   9.574
 2315POPC   GL131501  22.200  41.582   9.169
 2315POPC   GL231502  22.386  41.324   9.189
 2315POPC   C1A31503  22.227  41.669   8.732
 2315POPC   D2A31504  22.367  41.975   8.433
 2315POPC   C3A31505  22.304  41.838   8.065
 2315POPC   C4A31506  22.327  41.789   7.655
 2315POPC   C1B31507  22.507  41.234   8.803
 2315POPC   C2B31508  22.243  41.153   8.452
 2315POPC   C3B31509  22.339  41.308   8.066
 2315POPC   C4B31510  22.357  41.280   7.629
 2316POPC   NC331511  23.606   9.193   9.465
 2316POPC   PO431512  24.106   8.775   9.519
 2316POPC   GL131513  23.855   8.837   9.135
 2316POPC   GL231514  23.524   8.740   9.025
 2316POPC   C1A31515  23.895   8.763   8.681
 2316POPC   D2A31516  23.768   8.826   8.251
 2316POPC   C3A31517  23.784   8.514   7.928
 2316POPC   C4A31518  23.544   8.489   7.526
 2316POPC   C1B31519  23.478   9.161   8.815
 2316POPC   C2B31520  23.387   9.407   8.434
 2316POPC   C3B31521  23.570   9.294   8.044
 2316POPC   C4B31522  23.600   8.963   7.781
 2317POPC   NC331523  44.458  21.137   9.722
 2317POPC   PO431524  43.819  21.198   9.540
 2317POPC   GL131525  43.832  21.292   9.091
 2317POPC   GL231526  43.862  21.650   9.061
 2317POPC   C1A31527  43.632  21.178   8.678
 2317POPC   D2A31528  43.631  21.328   8.244
 2317POPC   C3A31529  43.703  21.122   7.883
 2317POPC   C4A31530  43.763  21.244   7.446
 2317POPC   C1B31531  44.017  21.547   8.640
 2317POPC   C2B31532  44.174  21.558   8.205
 2317POPC   C3B31533  44.075  21.440   7.787
 2317POPC   C4B31534  44.138  21.644   7.346
 2318POPC   NC331535  44.547  44.508   9.445
 2318POPC   PO431536  44.499   0.150   9.205
 2318POPC   GL131537  44.803  44.832   9.121
 2318POPC   GL231538   0.074   0.074   9.089
 2318POPC   C1A31539  44.894  44.490   8.786
 2318POPC   D2A31540   0.031  44.383   8.345
 2318POPC   C3A31541  44.720  44.395   8.005
 2318POPC   C4A31542  44.501  44.657   7.688
 2318POPC   C1B31543  44.850  44.988   8.642
 2318POPC   C2B31544  44.785  44.890   8.187
 2318POPC   C3B31545  44.969  44.828   7.777
 2318POPC   C4B31546  44.940   0.096   7.387
 2319POPC   NC331547   9.481  13.879   9.553
 2319POPC   PO431548   9.870  13.309   9.382
 2319POPC   GL131549   9.772  13.718   9.157
 2319POPC   GL231550   9.461  13.855   9.053
 2319POPC   C1A31551   9.895  13.799   8.732
 2319POPC   D2A31552   9.892  13.387   8.484
 2319POPC   C3A31553   9.901  13.420   8.052
 2319POPC   C4A31554   9.890  13.856   7.886
 2319POPC   C1B31555   9.512  13.473   8.807
 2319POPC   C2B31556   9.391  13.478   8.363
 2319POPC   C3B31557   9.419  13.618   7.927
 2319POPC   C4B31558   9.649  13.508   7.595
 2320POPC   NC331559  26.998  15.893   9.597
 2320POPC   PO431560  26.665  16.353   9.441
 2320POPC   GL131561  26.819  16.012   9.138
 2320POPC   GL231562  26.902  15.604   9.201
 2320POPC   C1A31563  26.648  16.057   8.736
 2320POPC   D2A31564  26.697  15.873   8.356
 2320POPC   C3A31565  26.652  16.068   8.011
 2320POPC   C4A31566  26.932  16.091   7.681
 2320POPC   C1B31567  26.927  15.607   8.754
 2320POPC   C2B31568  26.964  15.431   8.336
 2320POPC   C3B31569  26.985  15.665   7.953
 2320POPC   C4B31570  27.167  15.671   7.535
 2321POPC   NC331571   5.524  42.268   9.526
 2321POPC   PO431572   6.098  42.532   9.290
 2321POPC   GL131573   5.835  42.327   9.061
 2321POPC   GL231574   5.905  42.042   9.232
 2321POPC   C1A31575   5.654  42.514   8.704
 2321POPC   D2A31576   5.793  42.487   8.290
 2321POPC   C3A31577   5.505  42.277   8.037
 2321POPC   C4A31578   5.787  42.329   7.721
 2321POPC   C1B31579   6.054  41.902   8.851
 2321POPC   C2B31580   5.872  42.021   8.489
 2321POPC   C3B31581   5.889  41.938   8.074
 2321POPC   C4B31582   6.161  41.988   7.723
 2322POPC   NC331583  34.370  36.449   9.596
 2322POPC   PO431584  34.739  35.941   9.502
 2322POPC   GL131585  34.867  36.065   9.124
 2322POPC   GL231586  34.765  36.394   9.107
 2322POPC   C1A31587  34.757  35.872   8.769
 2322POPC   D2A31588  34.587  35.981   8.404
 2322POPC   C3A31589  34.693  35.854   8.034
 2322POPC   C4A31590  34.398  35.712   7.759
 2322POPC   C1B31591  34.810  36.381   8.671
 2322POPC   C2B31592  34.576  36.472   8.292
 2322POPC   C3B31593  34.503  36.304   7.880
 2322POPC   C4B31594  34.498  36.399   7.403
 2323POPC   NC331595  39.002  20.524   9.438
 2323POPC   PO431596  39.646  20.313   9.557
 2323POPC   GL131597  39.422  20.354   9.149
 2323POPC   GL231598  39.302  20.720   9.073
 2323POPC   C1A31599  39.298  20.224   8.723
 2323POPC   D2A31600  39.107  20.361   8.293
 2323POPC   C3A31601  39.365  20.584   7.967
 2323POPC   C4A31602  39.652  20.868   7.746
 2323POPC   C1B31603  39.011  20.684   8.709
 2323POPC   C2B31604  38.902  20.881   8.303
 2323POPC   C3B31605  38.881  20.796   7.839
 2323POPC   C4B31606  38.787  20.997   7.446
 2324POPC   NC331607  41.083   8.962   9.453
 2324POPC   PO431608  40.532   9.238   9.631
 2324POPC   GL131609  40.557   9.225   9.164
 2324POPC   GL231610  40.633   8.852   9.102
 2324POPC   C1A31611  40.510   9.108   8.689
 2324POPC   D2A31612  40.675   8.974   8.254
 2324POPC   C3A31613  40.374   9.022   7.880
 2324POPC   C4A31614  40.412   9.055   7.404
 2324POPC   C1B31615  40.997   8.936   8.772
 2324POPC   C2B31616  41.287   8.882   8.407
 2324POPC   C3B31617  41.190   8.858   7.955
 2324POPC   C4B31618  40.856   9.030   7.706
 2325POPC   NC331619  33.018  15.461   9.290
 2325POPC   PO431620  33.201  15.980   9.806
 2325POPC   GL131621  33.267  15.934   9.168
 2325POPC   GL231622  33.353  15.659   8.949
 2325POPC   C1A31623  32.996  15.934   8.741
 2325POPC   D2A31624  32.676  15.758   8.447
 2325POPC   C3A31625  32.628  16.060   8.120
 2325POPC   C4A31626  32.906  16.192   7.803
 2325POPC   C1B31627  33.501  16.070   8.745
 2325POPC   C2B31628  33.316  16.128   8.336
 2325POPC   C3B31629  33.227  15.864   8.002
 2325POPC   C4B31630  32.881  15.653   7.853
 2326POPC   NC331631  41.079  13.107   9.528
 2326POPC   PO431632  40.558  13.507   9.464
 2326POPC   GL131633  40.582  13.273   9.121
 2326POPC   GL231634  40.943  13.316   9.096
 2326POPC   C1A31635  40.562  13.490   8.743
 2326POPC   D2A31636  40.701  13.876   8.612
 2326POPC   C3A31637  40.692  13.870   8.192
 2326POPC   C4A31638  40.740  13.903   7.752
 2326POPC   C1B31639  41.059  13.562   8.791
 2326POPC   C2B31640  40.995  13.460   8.404
 2326POPC   C3B31641  40.832  13.405   8.024
 2326POPC   C4B31642  41.013  13.484   7.657
 2327POPC   NC331643  31.902  17.637   9.559
 2327POPC   PO431644  31.383  17.183   9.449
 2327POPC   GL131645  31.389  17.399   9.064
 2327POPC   GL231646  31.710  17.534   9.094
 2327POPC   C1A31647  31.333  17.431   8.604
 2327POPC   D2A31648  31.145  17.177   8.245
 2327POPC   C3A31649  31.453  17.246   7.940
 2327POPC   C4A31650  31.543  17.659   7.942
 2327POPC   C1B31651  31.820  17.306   8.721
 2327POPC   C2B31652  31.913  17.476   8.303
 2327POPC   C3B31653  32.050  17.761   7.956
 2327POPC   C4B31654  31.953  17.395   7.725
 2328POPC   NC331655  17.975  18.397   9.536
 2328POPC   PO431656  18.515  18.441   9.810
 2328POPC   GL131657  18.456  18.385   9.333
 2328POPC   GL231658  18.204  18.114   9.196
 2328POPC   C1A31659  18.651  18.208   8.960
 2328POPC   D2A31660  18.600  18.271   8.532
 2328POPC   C3A31661  18.339  18.014   8.287
 2328POPC   C4A31662  18.471  17.981   7.880
 2328POPC   C1B31663  18.097  18.359   8.812
 2328POPC   C2B31664  18.189  18.525   8.397
 2328POPC   C3B31665  18.149  18.450   7.966
 2328POPC   C4B31666  17.930  18.200   7.692
 2329POPC   NC331667  30.509   1.159   9.515
 2329POPC   PO431668  31.189   1.016   9.442
 2329POPC   GL131669  30.918   1.200   9.114
 2329POPC   GL231670  30.566   1.305   9.033
 2329POPC   C1A31671  30.815   0.993   8.711
 2329POPC   D2A31672  31.051   0.937   8.325
 2329POPC   C3A31673  30.816   1.053   7.950
 2329POPC   C4A31674  30.738   1.171   7.535
 2329POPC   C1B31675  30.803   1.510   8.702
 2329POPC   C2B31676  30.871   1.436   8.282
 2329POPC   C3B31677  30.799   1.665   7.917
 2329POPC   C4B31678  30.419   1.460   7.823
 2330POPC   NC331679  42.304  15.808   9.588
 2330POPC   PO431680  42.772  16.217   9.706
 2330POPC   GL131681  42.587  15.942   9.199
 2330POPC   GL231682  42.219  15.925   9.109
 2330POPC   C1A31683  42.488  16.008   8.700
 2330POPC   D2A31684  42.572  15.785   8.292
 2330POPC   C3A31685  42.318  15.855   7.923
 2330POPC   C4A31686  42.156  16.265   7.850
 2330POPC   C1B31687  41.982  15.895   8.738
 2330POPC   C2B31688  42.017  15.725   8.339
 2330POPC   C3B31689  41.944  15.521   7.943
 2330POPC   C4B31690  41.957  15.732   7.556
 2331POPC   NC331691  43.966  32.583   9.548
 2331POPC   PO431692  43.963  33.249   9.719
 2331POPC   GL131693  43.856  33.235   9.289
 2331POPC   GL231694  44.203  33.229   9.213
 2331POPC   C1A31695  43.823  33.047   8.867
 2331POPC   D2A31696  43.796  32.758   8.490
 2331POPC   C3A31697  43.822  32.902   8.065
 2331POPC   C4A31698  43.878  32.701   7.674
 2331POPC   C1B31699  44.259  33.250   8.751
 2331POPC   C2B31700  43.956  33.269   8.423
 2331POPC   C3B31701  44.127  33.334   8.052
 2331POPC   C4B31702  44.030  33.192   7.688
 2332POPC   NC331703  13.387  22.564   9.569
 2332POPC   PO431704  13.844  22.998   9.420
 2332POPC   GL131705  13.877  23.244   9.046
 2332POPC   GL231706  14.081  23.054   8.837
 2332POPC   C1A31707  13.612  23.266   8.727
 2332POPC   D2A31708  13.714  22.981   8.417
 2332POPC   C3A31709  13.605  23.117   8.058
 2332POPC   C4A31710  13.282  22.997   7.823
 2332POPC   C1B31711  13.796  22.666   8.818
 2332POPC   C2B31712  13.637  22.450   8.425
 2332POPC   C3B31713  13.656  22.610   7.959
 2332POPC   C4B31714  13.591  22.803   7.488
 2333POPC   NC331715   3.402   6.864   9.462
 2333POPC   PO431716   3.796   6.369   9.588
 2333POPC   GL131717   3.706   6.483   9.191
 2333POPC   GL231718   3.381   6.477   9.152
 2333POPC   C1A31719   3.813   6.318   8.788
 2333POPC   D2A31720   3.985   6.475   8.404
 2333POPC   C3A31721   3.712   6.469   8.065
 2333POPC   C4A31722   3.739   6.613   7.665
 2333POPC   C1B31723   3.461   6.726   8.796
 2333POPC   C2B31724   3.587   6.837   8.380
 2333POPC   C3B31725   3.483   6.979   7.957
 2333POPC   C4B31726   3.182   6.801   7.671
 2334POPC   NC331727  24.435  27.931  10.272
 2334POPC   PO431728  24.502  28.315   9.669
 2334POPC   GL131729  24.458  28.473   9.232
 2334POPC   GL231730  24.140  28.458   9.086
 2334POPC   C1A31731  24.588  28.454   8.801
 2334POPC   D2A31732  24.584  28.595   8.430
 2334POPC   C3A31733  24.608  28.387   8.089
 2334POPC   C4A31734  24.440  28.354   7.706
 2334POPC   C1B31735  24.252  28.080   8.870
 2334POPC   C2B31736  24.404  27.999   8.452
 2334POPC   C3B31737  24.188  28.068   8.060
 2334POPC   C4B31738  24.132  27.913   7.663
 2335POPC   NC331739  27.143  22.975   9.426
 2335POPC   PO431740  26.621  22.622   9.523
 2335POPC   GL131741  26.663  22.953   9.159
 2335POPC   GL231742  26.903  23.243   9.088
 2335POPC   C1A31743  26.519  23.217   8.789
 2335POPC   D2A31744  26.470  23.165   8.359
 2335POPC   C3A31745  26.698  22.953   8.039
 2335POPC   C4A31746  27.060  22.717   7.832
 2335POPC   C1B31747  27.009  22.987   8.699
 2335POPC   C2B31748  27.128  23.066   8.255
 2335POPC   C3B31749  27.066  23.225   7.811
 2335POPC   C4B31750  27.008  23.397   7.386
 2336POPC   NC331751  23.340  31.284   9.363
 2336POPC   PO431752  22.725  31.262   9.604
 2336POPC   GL131753  22.834  31.433   9.216
 2336POPC   GL231754  22.808  31.791   9.129
 2336POPC   C1A31755  22.793  31.178   8.863
 2336POPC   D2A31756  23.061  31.133   8.526
 2336POPC   C3A31757  22.975  31.338   8.142
 2336POPC   C4A31758  23.185  31.564   7.795
 2336POPC   C1B31759  22.971  31.658   8.723
 2336POPC   C2B31760  22.988  31.843   8.302
 2336POPC   C3B31761  22.714  31.787   7.953
 2336POPC   C4B31762  22.798  31.781   7.510
 2337POPC   NC331763   7.299  17.778   9.548
 2337POPC   PO431764   7.782  17.308   9.701
 2337POPC   GL131765   7.734  17.374   9.270
 2337POPC   GL231766   7.648  17.682   9.193
 2337POPC   C1A31767   7.711  17.305   8.812
 2337POPC   D2A31768   7.385  17.327   8.498
 2337POPC   C3A31769   7.477  17.270   8.082
 2337POPC   C4A31770   7.765  17.442   7.788
 2337POPC   C1B31771   7.344  17.703   8.867
 2337POPC   C2B31772   7.307  17.844   8.419
 2337POPC   C3B31773   7.370  17.756   7.959
 2337POPC   C4B31774   7.161  17.829   7.562
 2338POPC   NC331775  39.549  44.825   9.694
 2338POPC   PO431776  39.015  44.463   9.492
 2338POPC   GL131777  39.156  44.731   9.125
 2338POPC   GL231778  39.508  44.910   9.202
 2338POPC   C1A31779  39.182  44.466   8.728
 2338POPC   D2A31780  39.495  44.354   8.424
 2338POPC   C3A31781  39.348  44.456   8.022
 2338POPC   C4A31782  39.112  44.401   7.664
 2338POPC   C1B31783  39.564  44.803   8.800
 2338POPC   C2B31784  39.415  44.888   8.384
 2338POPC   C3B31785  39.641  44.879   7.994
 2338POPC   C4B31786  39.490  44.757   7.600
 2339POPC   NC331787  21.600  10.789  10.155
 2339POPC   PO431788  21.322  10.754   9.549
 2339POPC   GL131789  21.521  10.743   9.168
 2339POPC   GL231790  21.197  10.870   9.063
 2339POPC   C1A31791  21.513  10.522   8.759
 2339POPC   D2A31792  21.312  10.470   8.331
 2339POPC   C3A31793  21.444  10.227   7.952
 2339POPC   C4A31794  21.305  10.410   7.560
 2339POPC   C1B31795  21.490  11.043   8.776
 2339POPC   C2B31796  21.619  10.891   8.390
 2339POPC   C3B31797  21.726  10.646   8.063
 2339POPC   C4B31798  21.620  10.859   7.705
 2340POPC   NC331799   1.506  18.763   9.690
 2340POPC   PO431800   0.820  18.757   9.465
 2340POPC   GL131801   1.088  18.911   9.137
 2340POPC   GL231802   1.264  19.251   9.124
 2340POPC   C1A31803   1.062  19.011   8.708
 2340POPC   D2A31804   1.290  18.945   8.337
 2340POPC   C3A31805   1.022  19.080   7.999
 2340POPC   C4A31806   0.948  18.949   7.585
 2340POPC   C1B31807   1.579  19.063   8.798
 2340POPC   C2B31808   1.794  19.033   8.387
 2340POPC   C3B31809   1.598  19.222   8.013
 2340POPC   C4B31810   1.422  18.932   7.705
 2341POPC   NC331811  27.712   0.447   9.535
 2341POPC   PO431812  27.194   0.874   9.409
 2341POPC   GL131813  27.448   0.580   9.115
 2341POPC   GL231814  27.849   0.569   9.068
 2341POPC   C1A31815  27.445   0.218   8.847
 2341POPC   D2A31816  27.666   0.129   8.474
 2341POPC   C3A31817  27.507   0.235   8.085
 2341POPC   C4A31818  27.585   0.171   7.652
 2341POPC   C1B31819  27.882   0.868   8.746
 2341POPC   C2B31820  27.716   0.807   8.332
 2341POPC   C3B31821  27.721   0.684   7.913
 2341POPC   C4B31822  27.410   0.700   7.568
 2342POPC   NC331823   7.375  43.464   9.506
 2342POPC   PO431824   7.567  42.944   9.821
 2342POPC   GL131825   7.346  42.977   9.344
 2342POPC   GL231826   7.589  43.013   9.071
 2342POPC   C1A31827   7.132  43.091   8.895
 2342POPC   D2A31828   7.452  43.215   8.560
 2342POPC   C3A31829   7.389  43.343   8.118
 2342POPC   C4A31830   7.340  43.196   7.690
 2342POPC   C1B31831   7.774  42.834   8.739
 2342POPC   C2B31832   7.925  42.925   8.314
 2342POPC   C3B31833   7.712  42.912   7.898
 2342POPC   C4B31834   7.763  42.877   7.425
 2343POPC   NC331835  14.326  36.520   9.617
 2343POPC   PO431836  14.522  35.849   9.670
 2343POPC   GL131837  14.545  35.956   9.238
 2343POPC   GL231838  14.374  36.263   9.177
 2343POPC   C1A31839  14.352  35.875   8.828
 2343POPC   D2A31840  14.395  35.667   8.429
 2343POPC   C3A31841  14.307  35.958   8.101
 2343POPC   C4A31842  14.570  36.088   7.776
 2343POPC   C1B31843  14.224  36.382   8.766
 2343POPC   C2B31844  14.474  36.358   8.414
 2343POPC   C3B31845  14.475  36.537   8.013
 2343POPC   C4B31846  14.103  36.389   7.782
 2344POPC   NC331847  35.346   4.001   9.507
 2344POPC   PO431848  35.621   4.597   9.615
 2344POPC   GL131849  35.303   4.507   9.258
 2344POPC   GL231850  35.567   4.334   9.135
 2344POPC   C1A31851  35.220   4.422   8.776
 2344POPC   D2A31852  35.423   4.562   8.383
 2344POPC   C3A31853  35.174   4.522   8.028
 2344POPC   C4A31854  35.036   4.141   7.838
 2344POPC   C1B31855  35.765   4.376   8.742
 2344POPC   C2B31856  35.849   4.175   8.344
 2344POPC   C3B31857  35.522   4.176   8.027
 2344POPC   C4B31858  35.504   4.202   7.609
 2345POPC   NC331859  21.994   3.192   9.888
 2345POPC   PO431860  22.067   3.637   9.427
 2345POPC   GL131861  22.271   3.650   9.090
 2345POPC   GL231862  22.319   3.304   9.084
 2345POPC   C1A31863  22.287   3.889   8.737
 2345POPC   D2A31864  22.178   3.879   8.299
 2345POPC   C3A31865  22.558   3.871   8.061
 2345POPC   C4A31866  22.424   3.805   7.664
 2345POPC   C1B31867  22.083   3.397   8.681
 2345POPC   C2B31868  21.817   3.500   8.329
 2345POPC   C3B31869  21.905   3.624   7.915
 2345POPC   C4B31870  22.094   3.407   7.613
 2346POPC   NC331871  13.721  17.543   9.638
 2346POPC   PO431872  13.196  17.175   9.761
 2346POPC   GL131873  13.418  17.219   9.323
 2346POPC   GL231874  13.780  17.180   9.217
 2346POPC   C1A31875  13.429  17.273   8.853
 2346POPC   D2A31876  13.283  17.399   8.442
 2346POPC   C3A31877  13.523  17.254   8.083
 2346POPC   C4A31878  13.327  17.543   7.813
 2346POPC   C1B31879  13.949  17.423   8.877
 2346POPC   C2B31880  13.783  17.466   8.503
 2346POPC   C3B31881  13.785  17.696   8.166
 2346POPC   C4B31882  13.824  17.578   7.782
 2347POPC   NC331883  36.884  11.579   9.731
 2347POPC   PO431884  37.160  11.319   9.143
 2347POPC   GL131885  36.744  11.399   9.061
 2347POPC   GL231886  36.762  11.655   9.235
 2347POPC   C1A31887  36.510  11.475   8.736
 2347POPC   D2A31888  36.781  11.541   8.387
 2347POPC   C3A31889  36.890  11.234   8.082
 2347POPC   C4A31890  36.652  11.416   7.787
 2347POPC   C1B31891  36.859  11.838   8.809
 2347POPC   C2B31892  37.133  11.912   8.461
 2347POPC   C3B31893  37.178  11.706   8.056
 2347POPC   C4B31894  37.154  11.539   7.622
 2348POPC   NC331895  26.694  30.457   9.664
 2348POPC   PO431896  26.116  30.085   9.622
 2348POPC   GL131897  26.119  30.111   9.179
 2348POPC   GL231898  25.854  29.901   9.033
 2348POPC   C1A31899  26.274  30.036   8.754
 2348POPC   D2A31900  25.884  29.948   8.519
 2348POPC   C3A31901  25.941  29.984   8.096
 2348POPC   C4A31902  26.309  30.098   7.869
 2348POPC   C1B31903  26.125  29.577   8.841
 2348POPC   C2B31904  26.298  29.597   8.438
 2348POPC   C3B31905  26.218  29.527   8.039
 2348POPC   C4B31906  26.052  29.706   7.671
 2349POPC   NC331907  19.154   4.265   9.546
 2349POPC   PO431908  18.496   4.290   9.529
 2349POPC   GL131909  18.770   4.097   9.185
 2349POPC   GL231910  19.144   3.987   9.091
 2349POPC   C1A31911  18.763   4.200   8.749
 2349POPC   D2A31912  19.031   4.287   8.362
 2349POPC   C3A31913  19.013   4.100   7.970
 2349POPC   C4A31914  18.641   4.166   7.726
 2349POPC   C1B31915  19.244   4.366   8.814
 2349POPC   C2B31916  19.502   4.485   8.455
 2349POPC   C3B31917  19.295   4.638   8.055
 2349POPC   C4B31918  18.978   4.548   7.703
 2350POPC   NC331919  13.038  15.965   9.822
 2350POPC   PO431920  12.457  15.821   9.510
 2350POPC   GL131921  12.751  15.757   9.150
 2350POPC   GL231922  13.139  15.692   9.162
 2350POPC   C1A31923  12.803  15.768   8.700
 2350POPC   D2A31924  12.986  15.592   8.327
 2350POPC   C3A31925  12.863  15.818   7.954
 2350POPC   C4A31926  12.633  16.219   7.884
 2350POPC   C1B31927  13.234  16.015   8.815
 2350POPC   C2B31928  13.037  16.120   8.373
 2350POPC   C3B31929  13.146  16.286   7.949
 2350POPC   C4B31930  13.583  16.351   7.861
 2351POPC   NC331931   7.609   4.167   9.408
 2351POPC   PO431932   7.445   4.778   9.677
 2351POPC   GL131933   7.333   4.614   9.225
 2351POPC   GL231934   7.185   4.279   9.155
 2351POPC   C1A31935   7.494   4.538   8.772
 2351POPC   D2A31936   7.318   4.480   8.348
 2351POPC   C3A31937   7.411   4.377   7.906
 2351POPC   C4A31938   7.209   3.981   7.743
 2351POPC   C1B31939   7.341   4.045   8.815
 2351POPC   C2B31940   7.605   4.065   8.476
 2351POPC   C3B31941   7.601   3.947   8.071
 2351POPC   C4B31942   7.770   4.072   7.659
 2352POPC   NC331943  32.597  42.363   9.493
 2352POPC   PO431944  31.994  42.234   9.358
 2352POPC   GL131945  32.252  42.343   9.068
 2352POPC   GL231946  32.505  42.587   9.011
 2352POPC   C1A31947  32.348  42.242   8.639
 2352POPC   D2A31948  32.306  42.518   8.260
 2352POPC   C3A31949  32.375  42.260   7.905
 2352POPC   C4A31950  32.069  42.110   7.587
 2352POPC   C1B31951  32.125  42.687   8.742
 2352POPC   C2B31952  31.842  42.650   8.403
 2352POPC   C3B31953  31.742  42.742   7.996
 2352POPC   C4B31954  32.027  42.601   7.725
 2353POPC   NC331955   0.692   0.760   9.628
 2353POPC   PO431956   0.184   0.442   9.775
 2353POPC   GL131957   0.307   0.527   9.295
 2353POPC   GL231958   0.674   0.577   9.178
 2353POPC   C1A31959   0.369   0.427   8.825
 2353POPC   D2A31960   0.606   0.176   8.519
 2353POPC   C3A31961   0.445   0.316   8.126
 2353POPC   C4A31962   0.131   0.308   7.797
 2353POPC   C1B31963   0.883   0.512   8.809
 2353POPC   C2B31964   0.748   0.640   8.411
 2353POPC   C3B31965   0.893   0.529   8.003
 2353POPC   C4B31966   0.525   0.635   7.736
 2354POPC   NC331967  41.392  11.050   9.499
 2354POPC   PO431968  41.404  11.742   9.448
 2354POPC   GL131969  41.593  11.481   9.135
 2354POPC   GL231970  41.677  11.119   9.100
 2354POPC   C1A31971  41.792  11.444   8.753
 2354POPC   D2A31972  41.691  11.118   8.467
 2354POPC   C3A31973  41.634  11.252   8.050
 2354POPC   C4A31974  41.459  11.202   7.657
 2354POPC   C1B31975  41.972  10.865   8.871
 2354POPC   C2B31976  41.889  10.639   8.480
 2354POPC   C3B31977  41.862  10.809   8.044
 2354POPC   C4B31978  41.897  10.970   7.604
 2355POPC   NC331979  18.973  18.356   9.598
 2355POPC   PO431980  18.979  17.697   9.397
 2355POPC   GL131981  19.159  18.023   9.106
 2355POPC   GL231982  19.113  18.406   9.113
 2355POPC   C1A31983  19.066  18.103   8.646
 2355POPC   D2A31984  18.939  18.059   8.182
 2355POPC   C3A31985  19.147  18.322   7.856
 2355POPC   C4A31986  19.351  18.728   7.895
 2355POPC   C1B31987  18.998  18.590   8.729
 2355POPC   C2B31988  18.959  18.550   8.292
 2355POPC   C3B31989  18.664  18.454   7.991
 2355POPC   C4B31990  18.675  18.312   7.539
 2356POPC   NC331991  28.353  23.800   9.776
 2356POPC   PO431992  28.952  23.772   9.671
 2356POPC   GL131993  28.654  23.690   9.325
 2356POPC   GL231994  28.575  23.949   9.098
 2356POPC   C1A31995  28.540  23.464   8.909
 2356POPC   D2A31996  28.658  23.201   8.520
 2356POPC   C3A31997  28.411  23.245   8.112
 2356POPC   C4A31998  28.275  23.581   7.807
 2356POPC   C1B31999  28.223  24.049   8.829
 2356POPC   C2B32000  28.145  24.154   8.414
 2356POPC   C3B32001  28.425  23.983   8.112
 2356POPC   C4B32002  28.465  24.137   7.735
 2357POPC   NC332003   3.023   9.988   9.667
 2357POPC   PO432004   3.774   9.853   9.461
 2357POPC   GL132005   3.609   9.837   9.100
 2357POPC   GL232006   3.260   9.867   9.233
 2357POPC   C1A32007   3.759   9.604   8.757
 2357POPC   D2A32008   3.691   9.505   8.342
 2357POPC   C3A32009   3.891   9.691   8.014
 2357POPC   C4A32010   3.647   9.588   7.684
 2357POPC   C1B32011   3.263  10.081   8.842
 2357POPC   C2B32012   3.544  10.006   8.509
 2357POPC   C3B32013   3.428   9.896   8.097
 2357POPC   C4B32014   3.379  10.136   7.745
 2358POPC   NC332015  33.558  11.635   9.379
 2358POPC   PO432016  33.811  12.252   9.452
 2358POPC   GL132017  33.869  11.965   9.104
 2358POPC   GL232018  33.627  11.711   8.901
 2358POPC   C1A32019  33.911  12.042   8.681
 2358POPC   D2A32020  33.753  11.822   8.359
 2358POPC   C3A32021  33.907  11.977   7.976
 2358POPC   C4A32022  34.063  12.073   7.561
 2358POPC   C1B32023  33.461  12.158   8.899
 2358POPC   C2B32024  33.514  12.357   8.516
 2358POPC   C3B32025  33.524  12.291   8.074
 2358POPC   C4B32026  33.514  12.079   7.651
 2359POPC   NC332027  29.876   6.330   9.626
 2359POPC   PO432028  30.206   5.890   9.365
 2359POPC   GL132029  30.028   5.877   8.994
 2359POPC   GL232030  29.973   5.530   8.955
 2359POPC   C1A32031  30.075   5.842   8.538
 2359POPC   D2A32032  29.830   6.127   8.292
 2359POPC   C3A32033  29.832   6.114   7.874
 2359POPC   C4A32034  29.978   5.803   7.612
 2359POPC   C1B32035  29.611   5.774   8.725
 2359POPC   C2B32036  29.412   5.810   8.315
 2359POPC   C3B32037  29.587   5.697   7.935
 2359POPC   C4B32038  29.529   5.580   7.525
 2360POPC   NC332039  14.009   1.076   9.578
 2360POPC   PO432040  14.700   1.370   9.689
 2360POPC   GL132041  14.407   1.310   9.334
 2360POPC   GL232042  14.373   0.970   9.241
 2360POPC   C1A32043  14.281   1.379   8.898
 2360POPC   D2A32044  14.265   1.525   8.464
 2360POPC   C3A32045  14.508   1.463   8.095
 2360POPC   C4A32046  14.403   1.480   7.666
 2360POPC   C1B32047  14.331   0.867   8.795
 2360POPC   C2B32048  14.272   1.027   8.346
 2360POPC   C3B32049  14.352   1.011   7.878
 2360POPC   C4B32050  14.297   0.959   7.403
 2361POPC   NC332051  36.650  39.637   9.477
 2361POPC   PO432052  36.615  38.949   9.395
 2361POPC   GL132053  36.844  39.302   9.130
 2361POPC   GL232054  37.196  39.442   9.165
 2361POPC   C1A32055  36.985  39.456   8.696
 2361POPC   D2A32056  36.737  39.254   8.380
 2361POPC   C3A32057  36.845  39.304   7.986
 2361POPC   C4A32058  36.715  39.206   7.558
 2361POPC   C1B32059  37.203  39.047   8.880
 2361POPC   C2B32060  37.173  38.995   8.439
 2361POPC   C3B32061  37.117  38.871   8.016
 2361POPC   C4B32062  37.338  38.937   7.624
 2362POPC   NC332063  11.917  41.513   9.690
 2362POPC   PO432064  12.480  41.123   9.594
 2362POPC   GL132065  12.371  41.258   9.161
 2362POPC   GL232066  12.239  41.591   9.238
 2362POPC   C1A32067  12.216  41.425   8.747
 2362POPC   D2A32068  12.015  41.600   8.384
 2362POPC   C3A32069  12.103  41.495   7.956
 2362POPC   C4A32070  11.778  41.625   7.651
 2362POPC   C1B32071  12.308  41.885   8.895
 2362POPC   C2B32072  12.252  42.044   8.491
 2362POPC   C3B32073  12.337  41.930   8.104
 2362POPC   C4B32074  12.267  42.116   7.725
 2363POPC   NC332075  30.118  14.273   9.499
 2363POPC   PO432076  29.535  14.384   9.788
 2363POPC   GL132077  29.693  14.307   9.239
 2363POPC   GL232078  29.900  14.577   9.111
 2363POPC   C1A32079  29.546  14.327   8.773
 2363POPC   D2A32080  29.527  14.130   8.370
 2363POPC   C3A32081  29.745  14.287   7.979
 2363POPC   C4A32082  29.852  14.269   7.524
 2363POPC   C1B32083  30.045  14.306   8.780
 2363POPC   C2B32084  30.046  14.098   8.358
 2363POPC   C3B32085  30.263  14.259   8.000
 2363POPC   C4B32086  30.158  14.630   7.714
 2364POPC   NC332087  28.249  42.915   9.451
 2364POPC   PO432088  27.877  43.492   9.530
 2364POPC   GL132089  28.088  43.290   9.147
 2364POPC   GL232090  28.506  43.247   9.167
 2364POPC   C1A32091  28.180  42.996   8.813
 2364POPC   D2A32092  28.498  42.944   8.525
 2364POPC   C3A32093  28.326  42.925   8.116
 2364POPC   C4A32094  28.458  43.059   7.700
 2364POPC   C1B32095  28.465  43.430   8.785
 2364POPC   C2B32096  28.197  43.358   8.427
 2364POPC   C3B32097  28.332  43.435   8.023
 2364POPC   C4B32098  28.682  43.556   7.755
 2365POPC   NC332099  34.947  12.984   9.151
 2365POPC   PO432100  34.515  12.493   9.392
 2365POPC   GL132101  34.468  12.774   9.049
 2365POPC   GL232102  34.212  13.043   9.101
 2365POPC   C1A32103  34.625  12.713   8.615
 2365POPC   D2A32104  34.619  12.462   8.230
 2365POPC   C3A32105  34.640  12.704   7.856
 2365POPC   C4A32106  34.778  13.137   7.703
 2365POPC   C1B32107  34.179  12.954   8.663
 2365POPC   C2B32108  34.278  12.847   8.234
 2365POPC   C3B32109  34.295  13.092   7.857
 2365POPC   C4B32110  34.350  13.099   7.408
 2366POPC   NC332111   9.876  29.335   9.504
 2366POPC   PO432112   9.213  29.239   9.318
 2366POPC   GL132113   9.580  29.201   9.120
 2366POPC   GL232114   9.789  28.910   9.222
 2366POPC   C1A32115   9.744  29.161   8.721
 2366POPC   D2A32116   9.969  29.353   8.413
 2366POPC   C3A32117   9.813  29.412   8.032
 2366POPC   C4A32118   9.440  29.281   7.940
 2366POPC   C1B32119  10.077  28.803   8.888
 2366POPC   C2B32120  10.083  28.836   8.447
 2366POPC   C3B32121   9.852  28.890   8.065
 2366POPC   C4B32122  10.082  28.753   7.737
 2367POPC   NC332123  40.521  11.537   9.439
 2367POPC   PO432124  40.928  11.027   9.549
 2367POPC   GL132125  40.993  11.229   9.140
 2367POPC   GL232126  41.070  11.605   9.076
 2367POPC   C1A32127  40.776  11.337   8.728
 2367POPC   D2A32128  40.403  11.400   8.437
 2367POPC   C3A32129  40.422  11.143   8.048
 2367POPC   C4A32130  40.849  11.172   7.921
 2367POPC   C1B32131  41.287  11.334   8.745
 2367POPC   C2B32132  41.168  11.286   8.322
 2367POPC   C3B32133  41.213  11.522   7.950
 2367POPC   C4B32134  41.050  11.461   7.503
 2368POPC   NC332135  10.902  10.690   9.543
 2368POPC   PO432136  11.533  10.343   9.594
 2368POPC   GL132137  11.246  10.454   9.247
 2368POPC   GL232138  11.308  10.805   9.099
 2368POPC   C1A32139  11.327  10.402   8.814
 2368POPC   D2A32140  11.348  10.677   8.479
 2368POPC   C3A32141  11.384  10.412   8.142
 2368POPC   C4A32142  11.272  10.427   7.744
 2368POPC   C1B32143  11.035  11.019   8.769
 2368POPC   C2B32144  10.893  10.947   8.337
 2368POPC   C3B32145  11.090  10.874   7.925
 2368POPC   C4B32146  11.021  10.797   7.450
 2369POPC   NC332147  31.948  13.371   9.539
 2369POPC   PO432148  31.462  13.800   9.562
 2369POPC   GL132149  31.545  13.595   9.216
 2369POPC   GL232150  31.815  13.812   9.171
 2369POPC   C1A32151  31.271  13.437   8.866
 2369POPC   D2A32152  31.096  13.470   8.476
 2369POPC   C3A32153  31.377  13.664   8.182
 2369POPC   C4A32154  31.145  13.615   7.814
 2369POPC   C1B32155  31.544  13.876   8.800
 2369POPC   C2B32156  31.771  13.951   8.444
 2369POPC   C3B32157  31.842  13.890   8.026
 2369POPC   C4B32158  31.589  13.816   7.691
 2370POPC   NC332159   7.860   9.150   9.470
 2370POPC   PO432160   8.215   8.675   9.420
 2370POPC   GL132161   8.357   9.025   9.182
 2370POPC   GL232162   8.070   9.133   9.017
 2370POPC   C1A32163   8.472   8.975   8.748
 2370POPC   D2A32164   8.492   8.654   8.433
 2370POPC   C3A32165   8.391   8.924   8.079
 2370POPC   C4A32166   8.204   8.976   7.657
 2370POPC   C1B32167   7.864   9.286   8.687
 2370POPC   C2B32168   7.995   9.295   8.249
 2370POPC   C3B32169   7.812   9.312   7.834
 2370POPC   C4B32170   7.846   9.229   7.372
 2371POPC   NC332171   3.914  31.712   9.819
 2371POPC   PO432172   3.398  31.463   9.454
 2371POPC   GL132173   3.577  31.301   9.070
 2371POPC   GL232174   3.939  31.236   9.082
 2371POPC   C1A32175   3.415  31.185   8.660
 2371POPC   D2A32176   3.078  31.339   8.385
 2371POPC   C3A32177   3.271  31.476   7.992
 2371POPC   C4A32178   3.586  31.250   7.780
 2371POPC   C1B32179   3.834  31.531   8.712
 2371POPC   C2B32180   3.888  31.779   8.328
 2371POPC   C3B32181   3.924  31.618   7.889
 2371POPC   C4B32182   3.725  31.584   7.441
 2372POPC   NC332183  43.435  31.379   9.637
 2372POPC   PO432184  44.069  31.437   9.637
 2372POPC   GL132185  43.829  31.235   9.333
 2372POPC   GL232186  43.784  31.523   9.150
 2372POPC   C1A32187  43.954  31.025   8.976
 2372POPC   D2A32188  44.059  31.106   8.534
 2372POPC   C3A32189  43.902  31.132   8.110
 2372POPC   C4A32190  44.110  31.514   7.884
 2372POPC   C1B32191  43.999  31.610   8.758
 2372POPC   C2B32192  43.894  31.900   8.400
 2372POPC   C3B32193  43.719  31.825   7.968
 2372POPC   C4B32194  43.601  31.746   7.522
 2373POPC   NC332195  39.502  12.531   9.560
 2373POPC   PO432196  40.142  12.836   9.443
 2373POPC   GL132197  40.070  12.677   9.076
 2373POPC   GL232198  40.338  12.854   8.927
 2373POPC   C1A32199  39.796  12.838   8.779
 2373POPC   D2A32200  39.864  12.988   8.371
 2373POPC   C3A32201  40.089  12.740   8.124
 2373POPC   C4A32202  40.016  12.530   7.785
 2373POPC   C1B32203  40.116  13.255   8.782
 2373POPC   C2B32204  40.191  13.477   8.385
 2373POPC   C3B32205  40.309  13.197   8.090
 2373POPC   C4B32206  40.183  13.063   7.666
 2374POPC   NC332207  31.460   3.652   9.466
 2374POPC   PO432208  32.084   3.426   9.362
 2374POPC   GL132209  31.729   3.456   9.044
 2374POPC   GL232210  31.375   3.330   9.089
 2374POPC   C1A32211  31.476   3.771   8.796
 2374POPC   D2A32212  31.238   3.845   8.401
 2374POPC   C3A32213  31.489   3.607   8.113
 2374POPC   C4A32214  31.888   3.733   7.903
 2374POPC   C1B32215  31.365   3.128   8.712
 2374POPC   C2B32216  31.145   3.121   8.331
 2374POPC   C3B32217  31.269   3.161   7.930
 2374POPC   C4B32218  31.664   3.262   7.780
 2375POPC   NC332219  21.099  30.781   9.457
 2375POPC   PO432220  21.782  30.951   9.489
 2375POPC   GL132221  21.516  30.705   9.160
 2375POPC   GL232222  21.247  30.880   8.971
 2375POPC   C1A32223  21.445  30.474   8.750
 2375POPC   D2A32224  21.163  30.633   8.427
 2375POPC   C3A32225  21.222  30.469   8.004
 2375POPC   C4A32226  21.473  30.363   7.660
 2375POPC   C1B32227  21.696  30.917   8.754
 2375POPC   C2B32228  21.626  30.852   8.354
 2375POPC   C3B32229  21.713  30.634   8.029
 2375POPC   C4B32230  21.790  30.857   7.717
 2376POPC   NC332231  17.142  13.939   9.682
 2376POPC   PO432232  16.743  13.461   9.546
 2376POPC   GL132233  16.807  13.608   9.154
 2376POPC   GL232234  16.952  13.965   9.190
 2376POPC   C1A32235  16.579  13.458   8.787
 2376POPC   D2A32236  16.403  13.536   8.410
 2376POPC   C3A32237  16.650  13.403   8.050
 2376POPC   C4A32238  16.426  13.444   7.679
 2376POPC   C1B32239  16.836  13.917   8.743
 2376POPC   C2B32240  16.907  13.908   8.304
 2376POPC   C3B32241  16.946  13.948   7.886
 2376POPC   C4B32242  16.887  13.651   7.600
 2377POPC   NC332243  25.449  17.190   9.471
 2377POPC   PO432244  25.105  16.501   9.250
 2377POPC   GL132245  25.362  16.817   9.126
 2377POPC   GL232246  25.090  17.070   9.138
 2377POPC   C1A32247  25.609  16.949   8.767
 2377POPC   D2A32248  25.525  16.831   8.338
 2377POPC   C3A32249  25.645  17.044   7.974
 2377POPC   C4A32250  25.504  16.763   7.683
 2377POPC   C1B32251  25.069  16.885   8.725
 2377POPC   C2B32252  25.003  17.039   8.358
 2377POPC   C3B32253  25.122  16.941   7.995
 2377POPC   C4B32254  25.054  17.086   7.618
 2378POPC   NC332255  40.337  44.753   9.656
 2378POPC   PO432256  40.844  44.374   9.389
 2378POPC   GL132257  40.738  44.635   9.106
 2378POPC   GL232258  40.530  44.424   8.887
 2378POPC   C1A32259  40.737  44.890   8.743
 2378POPC   D2A32260  41.058  44.883   8.417
 2378POPC   C3A32261  41.092  44.697   7.977
 2378POPC   C4A32262  40.869  44.579   7.594
 2378POPC   C1B32263  40.910  44.424   8.664
 2378POPC   C2B32264  40.741  44.502   8.311
 2378POPC   C3B32265  40.754  44.286   7.979
 2378POPC   C4B32266  40.419  44.344   7.765
 2379POPC   NC332267  25.195  29.942   9.586
 2379POPC   PO432268  25.695  29.641   9.438
 2379POPC   GL132269  25.392  29.672   9.096
 2379POPC   GL232270  25.059  29.844   9.092
 2379POPC   C1A32271  25.364  29.872   8.668
 2379POPC   D2A32272  25.431  29.965   8.214
 2379POPC   C3A32273  25.362  29.635   7.925
 2379POPC   C4A32274  25.474  29.570   7.532
 2379POPC   C1B32275  25.054  30.234   8.833
 2379POPC   C2B32276  25.166  30.336   8.444
 2379POPC   C3B32277  25.047  30.323   8.058
 2379POPC   C4B32278  25.140  30.053   7.760
 2380POPC   NC332279   7.654   2.535   9.517
 2380POPC   PO432280   8.307   2.751   9.743
 2380POPC   GL132281   8.288   2.768   9.241
 2380POPC   GL232282   8.086   2.489   9.165
 2380POPC   C1A32283   8.258   2.921   8.781
 2380POPC   D2A32284   8.486   3.155   8.415
 2380POPC   C3A32285   8.398   3.006   7.972
 2380POPC   C4A32286   8.115   2.687   7.789
 2380POPC   C1B32287   8.006   2.451   8.703
 2380POPC   C2B32288   8.220   2.643   8.325
 2380POPC   C3B32289   8.518   2.485   7.998
 2380POPC   C4B32290   8.424   2.284   7.602
 2381POPC   NC332291  23.509  34.992   9.375
 2381POPC   PO432292  23.435  35.619   9.503
 2381POPC   GL132293  23.698  35.543   9.175
 2381POPC   GL232294  24.037  35.751   9.210
 2381POPC   C1A32295  23.593  35.274   8.791
 2381POPC   D2A32296  23.334  35.244   8.409
 2381POPC   C3A32297  23.585  35.186   8.037
 2381POPC   C4A32298  23.685  35.353   7.670
 2381POPC   C1B32299  24.028  35.540   8.808
 2381POPC   C2B32300  23.905  35.406   8.420
 2381POPC   C3B32301  23.895  35.603   8.069
 2381POPC   C4B32302  24.179  35.722   7.752
 2382POPC   NC332303  44.197  41.914   9.441
 2382POPC   PO432304  44.712  41.508   9.597
 2382POPC   GL132305  44.783  41.535   9.172
 2382POPC   GL232306  44.677  41.882   9.205
 2382POPC   C1A32307  44.601  41.372   8.809
 2382POPC   D2A32308  44.654  41.223   8.406
 2382POPC   C3A32309  44.903  41.462   8.139
 2382POPC   C4A32310  44.645  41.550   7.831
 2382POPC   C1B32311  44.733  41.861   8.773
 2382POPC   C2B32312  44.588  41.752   8.400
 2382POPC   C3B32313  44.635  42.009   8.065
 2382POPC   C4B32314  44.774  42.016   7.684
 2383POPC   NC332315  22.875  24.766   9.726
 2383POPC   PO432316  23.357  24.466   9.419
 2383POPC   GL132317  23.073  24.417   9.117
 2383POPC   GL232318  22.952  24.693   9.193
 2383POPC   C1A32319  22.842  24.508   8.723
 2383POPC   D2A32320  22.670  24.347   8.363
 2383POPC   C3A32321  22.970  24.414   8.021
 2383POPC   C4A32322  22.854  24.577   7.658
 2383POPC   C1B32323  23.182  24.864   8.836
 2383POPC   C2B32324  23.108  24.899   8.369
 2383POPC   C3B32325  23.168  24.900   7.890
 2383POPC   C4B32326  23.146  24.932   7.402
 2384POPC   NC332327  35.067  37.071   9.491
 2384POPC   PO432328  35.703  36.947   9.475
 2384POPC   GL132329  35.440  36.836   9.157
 2384POPC   GL232330  35.332  37.150   9.071
 2384POPC   C1A32331  35.213  36.685   8.798
 2384POPC   D2A32332  34.996  36.800   8.440
 2384POPC   C3A32333  35.342  36.868   8.174
 2384POPC   C4A32334  35.342  36.907   7.729
 2384POPC   C1B32335  35.313  37.186   8.651
 2384POPC   C2B32336  35.619  37.333   8.354
 2384POPC   C3B32337  35.605  37.271   7.966
 2384POPC   C4B32338  35.195  37.390   7.821
 2385POPC   NC332339  32.514  27.257   9.568
 2385POPC   PO432340  32.153  26.735   9.645
 2385POPC   GL132341  32.359  26.869   9.277
 2385POPC   GL232342  32.314  26.564   9.117
 2385POPC   C1A32343  32.366  26.990   8.826
 2385POPC   D2A32344  32.314  26.848   8.383
 2385POPC   C3A32345  32.548  27.039   8.046
 2385POPC   C4A32346  32.517  27.253   7.669
 2385POPC   C1B32347  32.105  26.364   8.808
 2385POPC   C2B32348  31.948  26.372   8.418
 2385POPC   C3B32349  31.996  26.550   8.033
 2385POPC   C4B32350  32.342  26.666   7.789
 2386POPC   NC332351  20.219  44.534   9.448
 2386POPC   PO432352  19.590  44.491   9.475
 2386POPC   GL132353  19.601  44.751   9.141
 2386POPC   GL232354  19.924  44.870   9.111
 2386POPC   C1A32355  19.613  44.611   8.741
 2386POPC   D2A32356  19.793  44.484   8.362
 2386POPC   C3A32357  19.590  44.716   8.052
 2386POPC   C4A32358  19.697  44.996   7.706
 2386POPC   C1B32359  20.130  44.717   8.735
 2386POPC   C2B32360  20.264  44.721   8.308
 2386POPC   C3B32361  20.064  44.602   7.926
 2386POPC   C4B32362  20.130  44.824   7.548
 2387POPC   NC332363   5.236  12.145   9.503
 2387POPC   PO432364   4.667  12.019   9.198
 2387POPC   GL132365   4.773  12.326   8.939
 2387POPC   GL232366   5.126  12.214   9.019
 2387POPC   C1A32367   4.994  12.282   8.544
 2387POPC   D2A32368   5.200  11.884   8.401
 2387POPC   C3A32369   4.945  11.791   8.067
 2387POPC   C4A32370   5.077  11.951   7.705
 2387POPC   C1B32371   5.455  12.159   8.772
 2387POPC   C2B32372   5.475  12.322   8.360
 2387POPC   C3B32373   5.147  12.329   8.051
 2387POPC   C4B32374   5.273  12.435   7.645
 2388POPC   NC332375  29.835  42.843   9.700
 2388POPC   PO432376  29.911  43.462   9.447
 2388POPC   GL132377  29.911  43.070   9.216
 2388POPC   GL232378  30.193  42.855   9.242
 2388POPC   C1A32379  29.975  43.139   8.792
 2388POPC   D2A32380  29.805  43.364   8.462
 2388POPC   C3A32381  29.919  43.151   8.101
 2388POPC   C4A32382  29.978  43.056   7.701
 2388POPC   C1B32383  30.233  42.700   8.832
 2388POPC   C2B32384  30.235  42.892   8.416
 2388POPC   C3B32385  30.299  42.774   7.996
 2388POPC   C4B32386  30.127  42.583   7.640
 2389POPC   NC332387  33.636  35.847   9.334
 2389POPC   PO432388  33.938  36.536   9.437
 2389POPC   GL132389  33.998  36.186   9.176
 2389POPC   GL232390  34.346  36.093   9.202
 2389POPC   C1A32391  33.826  36.048   8.762
 2389POPC   D2A32392  33.630  36.323   8.480
 2389POPC   C3A32393  33.609  36.231   8.035
 2389POPC   C4A32394  33.630  36.202   7.586
 2389POPC   C1B32395  34.319  36.279   8.780
 2389POPC   C2B32396  34.126  36.194   8.380
 2389POPC   C3B32397  34.074  35.991   8.015
 2389POPC   C4B32398  34.136  36.106   7.608
 2390POPC   NC332399  28.311   9.947   9.627
 2390POPC   PO432400  28.667   9.490   9.344
 2390POPC   GL132401  28.531   9.843   9.167
 2390POPC   GL232402  28.177   9.782   9.169
 2390POPC   C1A32403  28.454   9.884   8.742
 2390POPC   D2A32404  28.395   9.579   8.424
 2390POPC   C3A32405  28.622   9.683   8.044
 2390POPC   C4A32406  28.756  10.116   7.924
 2390POPC   C1B32407  28.079   9.458   8.862
 2390POPC   C2B32408  27.885   9.527   8.456
 2390POPC   C3B32409  28.042   9.515   8.041
 2390POPC   C4B32410  28.188   9.874   7.827
 2391POPC   NC332411   4.692  15.184   9.484
 2391POPC   PO432412   3.988  15.064   9.620
 2391POPC   GL132413   4.167  15.271   9.267
 2391POPC   GL232414   4.324  14.956   9.193
 2391POPC   C1A32415   4.299  15.345   8.830
 2391POPC   D2A32416   4.539  15.255   8.443
 2391POPC   C3A32417   4.366  15.329   8.045
 2391POPC   C4A32418   4.268  15.127   7.690
 2391POPC   C1B32419   4.468  14.880   8.786
 2391POPC   C2B32420   4.402  14.735   8.386
 2391POPC   C3B32421   4.483  14.782   7.960
 2391POPC   C4B32422   4.406  14.640   7.546
 2392POPC   NC332423   3.453   3.891   9.620
 2392POPC   PO432424   3.455   3.209   9.498
 2392POPC   GL132425   3.569   3.558   9.234
 2392POPC   GL232426   3.308   3.796   9.154
 2392POPC   C1A32427   3.574   3.531   8.792
 2392POPC   D2A32428   3.764   3.722   8.407
 2392POPC   C3A32429   3.742   3.528   8.012
 2392POPC   C4A32430   3.529   3.676   7.680
 2392POPC   C1B32431   3.070   3.719   8.797
 2392POPC   C2B32432   3.117   3.836   8.388
 2392POPC   C3B32433   3.169   3.618   8.028
 2392POPC   C4B32434   3.000   3.760   7.632
 2393POPC   NC332435  24.649  15.009   9.670
 2393POPC   PO432436  24.542  15.589   9.365
 2393POPC   GL132437  24.598  15.190   9.134
 2393POPC   GL232438  24.872  14.977   9.217
 2393POPC   C1A32439  24.501  15.207   8.687
 2393POPC   D2A32440  24.143  15.208   8.378
 2393POPC   C3A32441  24.279  15.332   7.992
 2393POPC   C4A32442  24.532  15.314   7.659
 2393POPC   C1B32443  25.019  15.074   8.823
 2393POPC   C2B32444  24.959  14.882   8.437
 2393POPC   C3B32445  24.818  15.073   8.046
 2393POPC   C4B32446  24.776  14.885   7.634
 2394POPC   NC332447  42.099  12.588   9.957
 2394POPC   PO432448  42.064  12.328   9.374
 2394POPC   GL132449  42.376  12.131   9.182
 2394POPC   GL232450  42.285  11.791   9.112
 2394POPC   C1A32451  42.458  12.183   8.774
 2394POPC   D2A32452  42.139  12.347   8.519
 2394POPC   C3A32453  42.156  12.310   8.075
 2394POPC   C4A32454  42.074  11.973   7.789
 2394POPC   C1B32455  42.156  11.792   8.669
 2394POPC   C2B32456  42.394  11.861   8.279
 2394POPC   C3B32457  42.512  11.625   7.895
 2394POPC   C4B32458  42.756  11.510   7.511
 2395POPC   NC332459  14.156   4.607   9.326
 2395POPC   PO432460  14.358   3.947   9.473
 2395POPC   GL132461  14.396   4.182   9.125
 2395POPC   GL232462  14.041   4.178   9.066
 2395POPC   C1A32463  14.662   4.393   8.818
 2395POPC   D2A32464  14.552   4.702   8.519
 2395POPC   C3A32465  14.717   4.577   8.142
 2395POPC   C4A32466  14.770   4.328   7.781
 2395POPC   C1B32467  14.136   4.368   8.691
 2395POPC   C2B32468  14.126   4.482   8.285
 2395POPC   C3B32469  14.274   4.398   7.904
 2395POPC   C4B32470  14.134   4.552   7.518
 2396POPC   NC332471  25.153  25.924   9.490
 2396POPC   PO432472  25.149  26.674   9.535
 2396POPC   GL132473  25.158  26.325   9.190
 2396POPC   GL232474  25.424  26.087   9.101
 2396POPC   C1A32475  25.048  26.160   8.770
 2396POPC   D2A32476  24.982  26.310   8.350
 2396POPC   C3A32477  25.252  26.319   7.979
 2396POPC   C4A32478  25.070  26.220   7.540
 2396POPC   C1B32479  25.378  25.736   8.827
 2396POPC   C2B32480  25.501  25.643   8.422
 2396POPC   C3B32481  25.465  25.527   8.015
 2396POPC   C4B32482  25.252  25.844   7.811
 2397POPC   NC332483  10.145  32.365   9.446
 2397POPC   PO432484  10.702  32.062   9.602
 2397POPC   GL132485  10.518  32.172   9.153
 2397POPC   GL232486  10.515  32.520   9.068
 2397POPC   C1A32487  10.479  32.206   8.672
 2397POPC   D2A32488  10.749  32.372   8.346
 2397POPC   C3A32489  10.568  32.214   7.963
 2397POPC   C4A32490  10.155  31.974   7.952
 2397POPC   C1B32491  10.342  32.677   8.629
 2397POPC   C2B32492  10.068  32.587   8.242
 2397POPC   C3B32493  10.184  32.474   7.784
 2397POPC   C4B32494  10.621  32.561   7.551
 2398POPC   NC332495  27.903  17.129   9.560
 2398POPC   PO432496  27.974  17.778   9.702
 2398POPC   GL132497  27.660  17.642   9.329
 2398POPC   GL232498  27.476  17.370   9.246
 2398POPC   C1A32499  27.542  17.781   8.880
 2398POPC   D2A32500  27.441  17.643   8.468
 2398POPC   C3A32501  27.370  17.946   8.161
 2398POPC   C4A32502  27.548  17.805   7.773
 2398POPC   C1B32503  27.387  17.266   8.829
 2398POPC   C2B32504  27.497  17.099   8.443
 2398POPC   C3B32505  27.609  17.282   8.081
 2398POPC   C4B32506  27.526  17.189   7.694
 2399POPC   NC332507  18.900  25.229   9.597
 2399POPC   PO432508  19.404  24.830   9.345
 2399POPC   GL132509  19.236  25.214   9.101
 2399POPC   GL232510  18.907  25.369   9.122
 2399POPC   C1A32511  19.097  25.278   8.662
 2399POPC   D2A32512  19.153  24.998   8.307
 2399POPC   C3A32513  18.909  25.137   7.987
 2399POPC   C4A32514  18.820  25.138   7.576
 2399POPC   C1B32515  18.705  25.632   8.828
 2399POPC   C2B32516  18.811  25.746   8.348
 2399POPC   C3B32517  18.920  25.648   7.870
 2399POPC   C4B32518  18.685  25.604   7.438
 2400POPC   NC332519  22.930  11.687  10.234
 2400POPC   PO432520  23.072  11.775   9.539
 2400POPC   GL132521  22.855  11.928   9.133
 2400POPC   GL232522  22.664  12.260   9.145
 2400POPC   C1A32523  23.013  12.126   8.746
 2400POPC   D2A32524  23.196  12.212   8.332
 2400POPC   C3A32525  22.976  12.056   7.956
 2400POPC   C4A32526  23.027  12.182   7.528
 2400POPC   C1B32527  22.488  12.136   8.754
 2400POPC   C2B32528  22.674  12.218   8.356
 2400POPC   C3B32529  22.858  12.520   8.083
 2400POPC   C4B32530  22.874  12.648   7.701
 2401POPC   NC332531  34.644  37.532   9.716
 2401POPC   PO432532  34.727  36.757   9.576
 2401POPC   GL132533  34.549  36.843   9.191
 2401POPC   GL232534  34.855  36.912   9.052
 2401POPC   C1A32535  34.470  36.776   8.732
 2401POPC   D2A32536  34.515  36.972   8.324
 2401POPC   C3A32537  34.437  36.798   7.898
 2401POPC   C4A32538  34.403  36.906   7.461
 2401POPC   C1B32539  34.802  37.181   8.706
 2401POPC   C2B32540  34.983  37.293   8.291
 2401POPC   C3B32541  34.892  37.012   7.970
 2401POPC   C4B32542  34.864  37.064   7.548
 2402POPC   NC332543  28.418  30.427   9.544
 2402POPC   PO432544  28.666  30.994   9.489
 2402POPC   GL132545  28.655  30.717   9.087
 2402POPC   GL232546  28.644  30.371   9.100
 2402POPC   C1A32547  28.554  30.580   8.624
 2402POPC   D2A32548  28.603  30.789   8.207
 2402POPC   C3A32549  28.343  30.836   7.837
 2402POPC   C4A32550  28.507  31.120   7.455
 2402POPC   C1B32551  28.675  30.101   8.787
 2402POPC   C2B32552  28.772  30.149   8.383
 2402POPC   C3B32553  28.450  30.314   8.159
 2402POPC   C4B32554  28.576  30.386   7.789
 2403POPC   NC332555  16.467  32.680   9.368
 2403POPC   PO432556  16.655  33.221   9.694
 2403POPC   GL132557  16.659  33.162   9.223
 2403POPC   GL232558  16.766  32.875   9.037
 2403POPC   C1A32559  16.718  33.277   8.754
 2403POPC   D2A32560  17.033  33.313   8.418
 2403POPC   C3A32561  16.854  33.285   8.005
 2403POPC   C4A32562  16.850  33.145   7.576
 2403POPC   C1B32563  16.452  32.665   8.747
 2403POPC   C2B32564  16.455  32.833   8.359
 2403POPC   C3B32565  16.517  32.921   7.951
 2403POPC   C4B32566  16.486  32.807   7.550
 2404POPC   NC332567  15.818  14.572   9.346
 2404POPC   PO432568  15.233  14.521   9.713
 2404POPC   GL132569  15.220  14.603   9.271
 2404POPC   GL232570  15.342  14.315   9.190
 2404POPC   C1A32571  14.976  14.563   8.857
 2404POPC   D2A32572  14.934  14.416   8.408
 2404POPC   C3A32573  15.085  14.607   8.005
 2404POPC   C4A32574  14.979  14.441   7.587
 2404POPC   C1B32575  15.454  14.394   8.760
 2404POPC   C2B32576  15.741  14.426   8.416
 2404POPC   C3B32577  15.620  14.234   8.035
 2404POPC   C4B32578  15.468  14.371   7.659
 2405POPC   NC332579   9.613  25.645   9.462
 2405POPC   PO432580  10.020  25.136   9.638
 2405POPC   GL132581   9.926  25.314   9.206
 2405POPC   GL232582  10.018  25.677   9.149
 2405POPC   C1A32583   9.766  25.159   8.781
 2405POPC   D2A32584   9.964  24.890   8.451
 2405POPC   C3A32585   9.918  25.105   8.068
 2405POPC   C4A32586   9.486  25.097   7.892
 2405POPC   C1B32587   9.716  25.711   8.786
 2405POPC   C2B32588   9.475  25.802   8.395
 2405POPC   C3B32589   9.519  25.598   8.004
 2405POPC   C4B32590   9.896  25.571   7.828
 2406POPC   NC332591   3.096  21.753   9.388
 2406POPC   PO432592   2.640  21.337   9.557
 2406POPC   GL132593   2.706  21.482   9.137
 2406POPC   GL232594   2.372  21.328   9.051
 2406POPC   C1A32595   3.003  21.550   8.760
 2406POPC   D2A32596   3.167  21.409   8.354
 2406POPC   C3A32597   2.972  21.488   7.946
 2406POPC   C4A32598   2.550  21.661   7.763
 2406POPC   C1B32599   2.569  21.290   8.677
 2406POPC   C2B32600   2.649  21.550   8.352
 2406POPC   C3B32601   2.570  21.242   8.108
 2406POPC   C4B32602   2.408  21.155   7.768
 2407POPC   NC332603  39.190   2.347   9.752
 2407POPC   PO432604  39.483   2.187   9.228
 2407POPC   GL132605  39.098   2.177   9.043
 2407POPC   GL232606  39.061   1.872   8.853
 2407POPC   C1A32607  38.789   2.300   8.747
 2407POPC   D2A32608  38.844   2.035   8.382
 2407POPC   C3A32609  38.941   2.220   8.018
 2407POPC   C4A32610  39.327   2.112   7.869
 2407POPC   C1B32611  39.453   1.862   8.643
 2407POPC   C2B32612  39.645   1.602   8.348
 2407POPC   C3B32613  39.642   1.654   7.916
 2407POPC   C4B32614  39.726   1.561   7.483
 2408POPC   NC332615  27.038  29.569   9.360
 2408POPC   PO432616  27.111  30.184   9.637
 2408POPC   GL132617  26.874  30.051   9.233
 2408POPC   GL232618  26.566  29.811   9.214
 2408POPC   C1A32619  26.984  29.964   8.783
 2408POPC   D2A32620  26.969  30.092   8.355
 2408POPC   C3A32621  27.097  29.983   7.916
 2408POPC   C4A32622  26.764  30.114   7.643
 2408POPC   C1B32623  26.647  29.571   8.821
 2408POPC   C2B32624  26.855  29.603   8.411
 2408POPC   C3B32625  26.667  29.769   8.067
 2408POPC   C4B32626  26.585  29.638   7.678
 2409POPC   NC332627   2.034  32.761   9.349
 2409POPC   PO432628   2.623  32.973   9.549
 2409POPC   GL132629   2.370  33.077   9.135
 2409POPC   GL232630   2.076  33.170   8.987
 2409POPC   C1A32631   2.398  32.883   8.689
 2409POPC   D2A32632   2.510  32.908   8.229
 2409POPC   C3A32633   2.260  33.210   7.948
 2409POPC   C4A32634   1.861  33.248   7.714
 2409POPC   C1B32635   1.901  32.866   8.695
 2409POPC   C2B32636   1.955  32.978   8.286
 2409POPC   C3B32637   1.907  32.764   7.922
 2409POPC   C4B32638   1.697  32.756   7.538
 2410POPC   NC332639  30.760  20.903   9.492
 2410POPC   PO432640  30.154  21.166   9.598
 2410POPC   GL132641  30.274  20.917   9.194
 2410POPC   GL232642  30.491  20.612   9.174
 2410POPC   C1A32643  30.237  20.711   8.752
 2410POPC   D2A32644  30.063  20.645   8.324
 2410POPC   C3A32645  30.350  20.832   8.066
 2410POPC   C4A32646  30.517  20.714   7.694
 2410POPC   C1B32647  30.751  20.584   8.777
 2410POPC   C2B32648  30.817  20.750   8.321
 2410POPC   C3B32649  30.988  20.622   7.882
 2410POPC   C4B32650  31.076  20.394   7.451
 2411POPC   NC332651  23.962  10.720   9.547
 2411POPC   PO432652  23.455  10.330   9.693
 2411POPC   GL132653  23.640  10.443   9.266
 2411POPC   GL232654  23.995  10.292   9.267
 2411POPC   C1A32655  23.508  10.609   8.850
 2411POPC   D2A32656  23.387  10.840   8.481
 2411POPC   C3A32657  23.549  10.689   8.093
 2411POPC   C4A32658  23.368  10.741   7.712
 2411POPC   C1B32659  24.016  10.583   8.890
 2411POPC   C2B32660  23.917  10.663   8.430
 2411POPC   C3B32661  24.090  10.695   7.957
 2411POPC   C4B32662  24.030  10.695   7.456
 2412POPC   NC332663  23.292  15.845   9.410
 2412POPC   PO432664  23.933  15.716   9.333
 2412POPC   GL132665  23.823  16.058   9.090
 2412POPC   GL232666  23.462  16.106   9.017
 2412POPC   C1A32667  23.812  16.000   8.654
 2412POPC   D2A32668  23.770  16.077   8.233
 2412POPC   C3A32669  23.992  15.748   8.071
 2412POPC   C4A32670  24.211  15.739   7.668
 2412POPC   C1B32671  23.368  16.250   8.619
 2412POPC   C2B32672  23.362  16.371   8.216
 2412POPC   C3B32673  23.512  16.295   7.834
 2412POPC   C4B32674  23.801  16.027   7.705
 2413POPC   NC332675  42.763  15.036   9.635
 2413POPC   PO432676  42.228  15.378   9.721
 2413POPC   GL132677  42.209  15.430   9.257
 2413POPC   GL232678  42.454  15.229   9.153
 2413POPC   C1A32679  42.077  15.378   8.793
 2413POPC   D2A32680  42.327  15.347   8.413
 2413POPC   C3A32681  42.292  15.166   8.059
 2413POPC   C4A32682  42.542  15.335   7.748
 2413POPC   C1B32683  42.536  15.110   8.785
 2413POPC   C2B32684  42.311  14.821   8.504
 2413POPC   C3B32685  42.370  14.667   8.093
 2413POPC   C4B32686  42.478  14.835   7.699
 2414POPC   NC332687   5.685  40.537   9.575
 2414POPC   PO432688   5.514  41.138   9.466
 2414POPC   GL132689   5.754  40.956   9.154
 2414POPC   GL232690   5.936  40.625   9.150
 2414POPC   C1A32691   5.905  41.173   8.799
 2414POPC   D2A32692   6.146  41.120   8.422
 2414POPC   C3A32693   5.853  41.081   8.112
 2414POPC   C4A32694   5.606  41.055   7.761
 2414POPC   C1B32695   6.094  40.714   8.760
 2414POPC   C2B32696   6.128  40.542   8.349
 2414POPC   C3B32697   6.081  40.669   7.910
 2414POPC   C4B32698   5.864  40.726   7.510
 2415POPC   NC332699   7.005  10.712   9.361
 2415POPC   PO432700   7.512  10.497   9.773
 2415POPC   GL132701   7.472  10.515   9.232
 2415POPC   GL232702   7.131  10.487   8.937
 2415POPC   C1A32703   7.581  10.333   8.812
 2415POPC   D2A32704   7.315  10.301   8.456
 2415POPC   C3A32705   7.509  10.376   8.056
 2415POPC   C4A32706   7.317  10.391   7.651
 2415POPC   C1B32707   7.289  10.796   8.701
 2415POPC   C2B32708   7.464  10.825   8.297
 2415POPC   C3B32709   7.264  10.838   7.915
 2415POPC   C4B32710   6.975  11.114   7.724
 2416POPC   NC332711  23.113  32.703   9.480
 2416POPC   PO432712  22.579  33.127   9.610
 2416POPC   GL132713  22.785  33.129   9.231
 2416POPC   GL232714  22.679  32.789   9.185
 2416POPC   C1A32715  22.758  33.318   8.804
 2416POPC   D2A32716  22.541  33.302   8.404
 2416POPC   C3A32717  22.778  33.306   8.015
 2416POPC   C4A32718  22.972  33.132   7.663
 2416POPC   C1B32719  22.995  32.861   8.846
 2416POPC   C2B32720  23.037  33.050   8.443
 2416POPC   C3B32721  22.962  32.825   8.077
 2416POPC   C4B32722  22.967  32.613   7.713
 2417POPC   NC332723  17.693  17.629   9.566
 2417POPC   PO432724  18.110  17.204   9.354
 2417POPC   GL132725  18.241  17.588   9.169
 2417POPC   GL232726  18.577  17.709   9.090
 2417POPC   C1A32727  18.189  17.840   8.778
 2417POPC   D2A32728  17.846  17.904   8.509
 2417POPC   C3A32729  17.912  17.751   8.091
 2417POPC   C4A32730  18.082  17.722   7.717
 2417POPC   C1B32731  18.476  17.412   8.761
 2417POPC   C2B32732  18.215  17.477   8.416
 2417POPC   C3B32733  18.379  17.475   8.037
 2417POPC   C4B32734  18.607  17.166   7.778
 2418POPC   NC332735  23.636  17.894   9.556
 2418POPC   PO432736  23.424  17.206   9.495
 2418POPC   GL132737  23.649  17.389   9.136
 2418POPC   GL232738  23.900  17.613   9.212
 2418POPC   C1A32739  23.825  17.243   8.720
 2418POPC   D2A32740  23.930  17.117   8.273
 2418POPC   C3A32741  23.750  17.379   7.938
 2418POPC   C4A32742  23.426  17.712   7.843
 2418POPC   C1B32743  23.759  17.771   8.804
 2418POPC   C2B32744  23.839  17.699   8.374
 2418POPC   C3B32745  23.911  17.874   7.962
 2418POPC   C4B32746  23.844  17.688   7.538
 2419POPC   NC332747  23.930  16.867   9.561
 2419POPC   PO432748  23.465  16.417   9.744
 2419POPC   GL132749  23.642  16.531   9.217
 2419POPC   GL232750  23.657  16.890   9.148
 2419POPC   C1A32751  23.862  16.643   8.778
 2419POPC   D2A32752  24.128  16.665   8.422
 2419POPC   C3A32753  23.888  16.573   8.071
 2419POPC   C4A32754  23.946  16.518   7.631
 2419POPC   C1B32755  23.380  16.972   8.839
 2419POPC   C2B32756  23.471  16.796   8.483
 2419POPC   C3B32757  23.446  16.853   8.089
 2419POPC   C4B32758  23.639  16.912   7.756
 2420POPC   NC332759  11.669  10.825   9.482
 2420POPC   PO432760  12.068  11.497   9.506
 2420POPC   GL132761  12.286  11.413   9.070
 2420POPC   GL232762  12.147  11.074   8.971
 2420POPC   C1A32763  12.485  11.345   8.671
 2420POPC   D2A32764  12.269  11.234   8.284
 2420POPC   C3A32765  12.199  11.587   7.969
 2420POPC   C4A32766  12.221  11.491   7.533
 2420POPC   C1B32767  11.961  11.403   8.688
 2420POPC   C2B32768  11.799  11.409   8.273
 2420POPC   C3B32769  11.900  11.213   7.857
 2420POPC   C4B32770  11.710  11.520   7.605
 2421POPC   NC332771   1.927  18.711   9.306
 2421POPC   PO432772   1.559  19.197   9.523
 2421POPC   GL132773   1.911  19.205   9.162
 2421POPC   GL232774   2.263  19.000   9.075
 2421POPC   C1A32775   2.081  19.291   8.725
 2421POPC   D2A32776   2.329  19.074   8.402
 2421POPC   C3A32777   2.161  19.171   7.997
 2421POPC   C4A32778   2.240  19.511   7.703
 2421POPC   C1B32779   2.108  18.734   8.705
 2421POPC   C2B32780   2.269  18.552   8.322
 2421POPC   C3B32781   2.179  18.642   7.936
 2421POPC   C4B32782   1.812  18.762   7.938
 2422POPC   NC332783   1.173  32.755   9.496
 2422POPC   PO432784   1.691  33.063   9.299
 2422POPC   GL132785   1.480  32.741   9.001
 2422POPC   GL232786   1.115  32.786   9.000
 2422POPC   C1A32787   1.232  32.530   8.596
 2422POPC   D2A32788   1.112  32.667   8.185
 2422POPC   C3A32789   1.363  32.905   7.905
 2422POPC   C4A32790   1.353  33.179   7.528
 2422POPC   C1B32791   0.930  32.959   8.608
 2422POPC   C2B32792   1.046  33.174   8.238
 2422POPC   C3B32793   0.895  33.160   7.838
 2422POPC   C4B32794   0.891  33.479   7.509
 2423POPC   NC332795  11.987  21.092   9.612
 2423POPC   PO432796  12.288  21.664   9.533
 2423POPC   GL132797  12.103  21.543   9.166
 2423POPC   GL232798  11.984  21.204   9.123
 2423POPC   C1A32799  12.259  21.461   8.748
 2423POPC   D2A32800  12.177  21.302   8.331
 2423POPC   C3A32801  12.248  21.537   7.963
 2423POPC   C4A32802  12.372  21.409   7.544
 2423POPC   C1B32803  11.726  21.428   8.834
 2423POPC   C2B32804  11.653  21.334   8.427
 2423POPC   C3B32805  11.734  21.512   8.018
 2423POPC   C4B32806  11.902  21.316   7.670
 2424POPC   NC332807   3.144  36.822   9.584
 2424POPC   PO432808   3.690  37.254   9.645
 2424POPC   GL132809   3.798  37.211   9.173
 2424POPC   GL232810   3.689  36.915   8.998
 2424POPC   C1A32811   3.737  37.390   8.750
 2424POPC   D2A32812   3.450  37.328   8.417
 2424POPC   C3A32813   3.545  37.115   8.021
 2424POPC   C4A32814   3.395  37.092   7.604
 2424POPC   C1B32815   3.890  36.649   8.693
 2424POPC   C2B32816   3.878  36.769   8.296
 2424POPC   C3B32817   3.761  36.666   7.908
 2424POPC   C4B32818   3.343  36.574   7.914
 2425POPC   NC332819  32.338   6.721   9.554
 2425POPC   PO432820  31.781   6.420   9.684
 2425POPC   GL132821  31.950   6.694   9.239
 2425POPC   GL232822  32.286   6.865   9.101
 2425POPC   C1A32823  32.044   6.635   8.762
 2425POPC   D2A32824  32.135   6.484   8.404
 2425POPC   C3A32825  32.427   6.666   8.165
 2425POPC   C4A32826  32.346   6.422   7.817
 2425POPC   C1B32827  32.531   6.835   8.750
 2425POPC   C2B32828  32.683   7.052   8.422
 2425POPC   C3B32829  32.572   7.174   8.046
 2425POPC   C4B32830  32.491   6.909   7.730
 2426POPC   NC332831  34.817   7.475   9.537
 2426POPC   PO432832  34.187   7.203   9.499
 2426POPC   GL132833  34.367   7.145   9.102
 2426POPC   GL232834  34.637   7.361   9.092
 2426POPC   C1A32835  34.676   6.945   8.816
 2426POPC   D2A32836  34.850   7.072   8.413
 2426POPC   C3A32837  34.595   7.300   8.159
 2426POPC   C4A32838  34.446   7.368   7.756
 2426POPC   C1B32839  34.817   7.494   8.742
 2426POPC   C2B32840  34.683   7.762   8.442
 2426POPC   C3B32841  34.717   7.773   8.025
 2426POPC   C4B32842  34.946   7.586   7.721
 2427POPC   NC332843  35.975  32.690   9.527
 2427POPC   PO432844  36.333  33.323   9.578
 2427POPC   GL132845  36.168  33.345   9.186
 2427POPC   GL232846  36.503  33.277   9.062
 2427POPC   C1A32847  35.794  33.274   8.890
 2427POPC   D2A32848  35.844  33.044   8.485
 2427POPC   C3A32849  36.120  33.176   8.135
 2427POPC   C4A32850  36.176  32.864   7.782
 2427POPC   C1B32851  36.446  33.261   8.635
 2427POPC   C2B32852  36.637  33.227   8.250
 2427POPC   C3B32853  36.603  33.170   7.801
 2427POPC   C4B32854  36.589  32.890   7.421
 2428POPC   NC332855  42.648   6.805   9.655
 2428POPC   PO432856  43.148   6.381   9.503
 2428POPC   GL132857  43.004   6.732   9.241
 2428POPC   GL232858  43.062   6.479   9.010
 2428POPC   C1A32859  43.086   6.913   8.777
 2428POPC   D2A32860  43.079   6.773   8.357
 2428POPC   C3A32861  43.031   7.004   7.989
 2428POPC   C4A32862  43.015   6.866   7.562
 2428POPC   C1B32863  42.829   6.458   8.675
 2428POPC   C2B32864  42.667   6.359   8.319
 2428POPC   C3B32865  42.789   6.542   7.950
 2428POPC   C4B32866  42.611   6.541   7.593
 2429POPC   NC332867  19.487  19.948   9.791
 2429POPC   PO432868  18.944  20.282   9.484
 2429POPC   GL132869  19.084  20.407   9.117
 2429POPC   GL232870  19.305  20.666   9.222
 2429POPC   C1A32871  19.265  20.355   8.716
 2429POPC   D2A32872  19.090  20.328   8.327
 2429POPC   C3A32873  19.169  20.424   7.920
 2429POPC   C4A32874  18.794  20.602   7.748
 2429POPC   C1B32875  19.129  20.838   8.846
 2429POPC   C2B32876  19.273  20.824   8.425
 2429POPC   C3B32877  19.135  20.919   8.024
 2429POPC   C4B32878  19.241  20.828   7.622
 2430POPC   NC332879  35.363  13.386   9.535
 2430POPC   PO432880  35.573  14.033   9.568
 2430POPC   GL132881  35.438  13.825   9.167
 2430POPC   GL232882  35.453  13.443   9.043
 2430POPC   C1A32883  35.581  13.820   8.734
 2430POPC   D2A32884  35.618  13.488   8.466
 2430POPC   C3A32885  35.521  13.655   8.082
 2430POPC   C4A32886  35.630  13.513   7.665
 2430POPC   C1B32887  35.152  13.464   8.709
 2430POPC   C2B32888  35.131  13.288   8.315
 2430POPC   C3B32889  35.064  13.503   7.942
 2430POPC   C4B32890  34.920  13.736   7.624
 2431POPC   NC332891  41.824  24.002   9.470
 2431POPC   PO432892  41.395  23.535   9.483
 2431POPC   GL132893  41.307  23.691   9.098
 2431POPC   GL232894  41.659  23.806   9.026
 2431POPC   C1A32895  41.351  23.633   8.666
 2431POPC   D2A32896  41.661  23.610   8.327
 2431POPC   C3A32897  41.455  23.695   7.966
 2431POPC   C4A32898  41.428  23.472   7.566
 2431POPC   C1B32899  41.788  24.007   8.610
 2431POPC   C2B32900  41.808  24.100   8.152
 2431POPC   C3B32901  41.976  24.002   7.726
 2431POPC   C4B32902  41.899  24.211   7.282
 2432POPC   NC332903  13.641  31.023   9.456
 2432POPC   PO432904  13.715  30.330   9.501
 2432POPC   GL132905  13.665  30.607   9.117
 2432POPC   GL232906  13.396  30.837   9.082
 2432POPC   C1A32907  13.618  30.667   8.656
 2432POPC   D2A32908  13.852  30.526   8.322
 2432POPC   C3A32909  13.878  30.803   8.012
 2432POPC   C4A32910  13.682  30.860   7.655
 2432POPC   C1B32911  13.318  31.058   8.741
 2432POPC   C2B32912  13.513  31.048   8.335
 2432POPC   C3B32913  13.292  30.916   7.991
 2432POPC   C4B32914  13.197  31.039   7.609
 2433POPC   NC332915   0.916   8.644   9.735
 2433POPC   PO432916   1.481   8.689   9.519
 2433POPC   GL132917   1.459   8.843   9.105
 2433POPC   GL232918   1.106   8.794   9.035
 2433POPC   C1A32919   1.456   8.693   8.680
 2433POPC   D2A32920   1.342   8.817   8.280
 2433POPC   C3A32921   1.622   9.109   8.127
 2433POPC   C4A32922   1.690   8.928   7.758
 2433POPC   C1B32923   0.921   8.718   8.594
 2433POPC   C2B32924   0.604   8.726   8.253
 2433POPC   C3B32925   0.792   8.843   7.864
 2433POPC   C4B32926   1.196   9.119   7.832
 2434POPC   NC332927  40.081  33.860   9.669
 2434POPC   PO432928  40.573  34.237   9.405
 2434POPC   GL132929  40.272  33.885   9.204
 2434POPC   GL232930  39.921  33.771   9.192
 2434POPC   C1A32931  40.256  33.744   8.783
 2434POPC   D2A32932  40.103  33.541   8.429
 2434POPC   C3A32933  39.919  33.793   8.126
 2434POPC   C4A32934  40.026  33.992   7.742
 2434POPC   C1B32935  39.756  33.521   8.856
 2434POPC   C2B32936  39.527  33.556   8.489
 2434POPC   C3B32937  39.533  33.451   8.085
 2434POPC   C4B32938  39.739  33.532   7.730
 2435POPC   NC332939   2.602   5.594   9.551
 2435POPC   PO432940   2.734   6.257   9.520
 2435POPC   GL132941   2.664   6.060   9.139
 2435POPC   GL232942   2.396   5.844   9.148
 2435POPC   C1A32943   2.848   5.780   8.852
 2435POPC   D2A32944   3.066   5.850   8.467
 2435POPC   C3A32945   2.845   6.087   8.161
 2435POPC   C4A32946   3.010   5.924   7.784
 2435POPC   C1B32947   2.348   5.646   8.785
 2435POPC   C2B32948   2.533   5.748   8.418
 2435POPC   C3B32949   2.536   5.701   7.998
 2435POPC   C4B32950   2.509   6.004   7.716
 2436POPC   NC332951  26.951  44.074   9.548
 2436POPC   PO432952  26.297  44.178   9.539
 2436POPC   GL132953  26.603  44.041   9.179
 2436POPC   GL232954  26.569  43.684   8.984
 2436POPC   C1A32955  26.903  44.035   8.824
 2436POPC   D2A32956  26.813  43.873   8.438
 2436POPC   C3A32957  26.893  44.089   8.097
 2436POPC   C4A32958  26.818  43.943   7.696
 2436POPC   C1B32959  26.974  43.509   8.762
 2436POPC   C2B32960  27.235  43.573   8.432
 2436POPC   C3B32961  27.103  43.607   8.013
 2436POPC   C4B32962  27.308  43.688   7.646
 2437POPC   NC332963   7.028  19.655   9.522
 2437POPC   PO432964   7.484  20.080   9.774
 2437POPC   GL132965   7.382  19.997   9.304
 2437POPC   GL232966   7.493  19.657   9.274
 2437POPC   C1A32967   7.368  20.136   8.826
 2437POPC   D2A32968   7.532  20.275   8.395
 2437POPC   C3A32969   7.409  20.093   8.001
 2437POPC   C4A32970   7.007  19.930   7.832
 2437POPC   C1B32971   7.438  19.604   8.839
 2437POPC   C2B32972   7.413  19.757   8.427
 2437POPC   C3B32973   7.343  19.587   8.040
 2437POPC   C4B32974   7.589  19.530   7.752
 2438POPC   NC332975  31.789  16.889   9.513
 2438POPC   PO432976  31.352  16.335   9.503
 2438POPC   GL132977  31.428  16.632   9.073
 2438POPC   GL232978  31.629  16.948   9.056
 2438POPC   C1A32979  31.300  16.914   8.681
 2438POPC   D2A32980  31.464  16.744   8.279
 2438POPC   C3A32981  31.257  16.781   7.870
 2438POPC   C4A32982  31.208  17.084   7.506
 2438POPC   C1B32983  31.781  16.756   8.709
 2438POPC   C2B32984  32.029  16.939   8.396
 2438POPC   C3B32985  31.867  16.971   8.019
 2438POPC   C4B32986  31.719  16.588   7.849
 2439POPC   NC332987   2.537  28.190   9.499
 2439POPC   PO432988   2.894  28.681   9.610
 2439POPC   GL132989   2.903  28.615   9.165
 2439POPC   GL232990   2.872  28.283   9.135
 2439POPC   C1A32991   3.092  28.440   8.726
 2439POPC   D2A32992   2.947  28.459   8.331
 2439POPC   C3A32993   3.147  28.284   8.018
 2439POPC   C4A32994   2.928  28.480   7.732
 2439POPC   C1B32995   2.591  28.375   8.798
 2439POPC   C2B32996   2.497  28.223   8.386
 2439POPC   C3B32997   2.507  28.364   8.003
 2439POPC   C4B32998   2.502  28.223   7.591
 2440POPC   NC332999  19.490  12.592   9.495
 2440POPC   PO433000  19.813  13.154   9.556
 2440POPC   GL133001  19.813  13.098   9.138
 2440POPC   GL233002  19.481  13.167   9.124
 2440POPC   C1A33003  19.954  12.894   8.761
 2440POPC   D2A33004  20.081  12.736   8.352
 2440POPC   C3A33005  20.085  12.507   7.966
 2440POPC   C4A33006  19.978  12.757   7.615
 2440POPC   C1B33007  19.402  13.010   8.740
 2440POPC   C2B33008  19.561  12.690   8.475
 2440POPC   C3B33009  19.641  12.771   8.052
 2440POPC   C4B33010  19.573  13.083   7.772
 2441POPC   NC333011  17.383  18.774   9.488
 2441POPC   PO433012  17.639  18.079   9.492
 2441POPC   GL133013  17.685  18.259   9.104
 2441POPC   GL233014  17.734  18.602   9.126
 2441POPC   C1A33015  17.470  18.188   8.724
 2441POPC   D2A33016  17.038  18.172   8.581
 2441POPC   C3A33017  17.059  18.175   8.096
 2441POPC   C4A33018  17.188  18.480   7.778
 2441POPC   C1B33019  17.383  18.673   8.841
 2441POPC   C2B33020  17.291  18.569   8.395
 2441POPC   C3B33021  17.597  18.450   8.072
 2441POPC   C4B33022  17.611  18.750   7.731
 2442POPC   NC333023  34.274   5.421   9.597
 2442POPC   PO433024  34.793   5.030   9.505
 2442POPC   GL133025  34.506   5.193   9.174
 2442POPC   GL233026  34.444   4.904   8.987
 2442POPC   C1A33027  34.371   5.306   8.713
 2442POPC   D2A33028  34.427   4.954   8.403
 2442POPC   C3A33029  34.451   4.999   7.949
 2442POPC   C4A33030  34.340   5.310   7.643
 2442POPC   C1B33031  34.836   4.793   8.834
 2442POPC   C2B33032  34.884   4.698   8.413
 2442POPC   C3B33033  34.952   4.996   8.090
 2442POPC   C4B33034  35.205   4.936   7.730
 2443POPC   NC333035  34.420  30.731   9.501
 2443POPC   PO433036  35.032  30.698   9.616
 2443POPC   GL133037  34.835  30.628   9.201
 2443POPC   GL233038  34.565  30.895   9.060
 2443POPC   C1A33039  34.708  30.508   8.797
 2443POPC   D2A33040  34.644  30.789   8.474
 2443POPC   C3A33041  34.671  30.655   8.057
 2443POPC   C4A33042  34.753  30.937   7.718
 2443POPC   C1B33043  34.230  30.953   8.748
 2443POPC   C2B33044  34.175  30.868   8.304
 2443POPC   C3B33045  34.291  31.001   7.893
 2443POPC   C4B33046  34.319  30.979   7.419
 2444POPC   NC333047  34.804  23.926   9.554
 2444POPC   PO433048  34.275  23.409   9.477
 2444POPC   GL133049  34.324  23.586   9.069
 2444POPC   GL233050  34.600  23.793   9.117
 2444POPC   C1A33051  34.440  23.508   8.655
 2444POPC   D2A33052  34.228  23.316   8.294
 2444POPC   C3A33053  34.376  23.584   7.974
 2444POPC   C4A33054  34.206  23.961   7.814
 2444POPC   C1B33055  34.499  24.000   8.754
 2444POPC   C2B33056  34.500  23.968   8.317
 2444POPC   C3B33057  34.700  24.138   7.945
 2444POPC   C4B33058  34.907  23.850   7.635
 2445POPC   NC333059  20.696  41.820   9.724
 2445POPC   PO433060  20.711  42.556   9.651
 2445POPC   GL133061  20.748  42.378   9.209
 2445POPC   GL233062  20.700  42.676   8.994
 2445POPC   C1A33063  20.562  42.281   8.758
 2445POPC   D2A33064  20.600  42.471   8.335
 2445POPC   C3A33065  20.379  42.485   7.925
 2445POPC   C4A33066  20.460  42.191   7.588
 2445POPC   C1B33067  20.564  42.886   8.623
 2445POPC   C2B33068  20.588  42.979   8.184
 2445POPC   C3B33069  20.882  42.851   7.873
 2445POPC   C4B33070  20.725  42.620   7.566
 2446POPC   NC333071  21.877  26.180   9.535
 2446POPC   PO433072  22.511  25.902   9.540
 2446POPC   GL133073  22.300  25.944   9.123
 2446POPC   GL233074  22.072  26.240   9.053
 2446POPC   C1A33075  22.421  26.105   8.706
 2446POPC   D2A33076  22.300  26.332   8.311
 2446POPC   C3A33077  22.516  26.271   7.946
 2446POPC   C4A33078  22.420  25.989   7.604
 2446POPC   C1B33079  21.806  26.082   8.723
 2446POPC   C2B33080  21.594  25.831   8.403
 2446POPC   C3B33081  21.760  25.852   8.025
 2446POPC   C4B33082  22.023  26.185   7.883
 2447POPC   NC333083  44.427  33.186   9.750
 2447POPC   PO433084  44.843  32.870   9.498
 2447POPC   GL133085  44.571  32.833   9.097
 2447POPC   GL233086  44.212  32.733   9.127
 2447POPC   C1A33087  44.689  32.981   8.656
 2447POPC   D2A33088  44.594  33.300   8.320
 2447POPC   C3A33089  44.582  33.124   7.913
 2447POPC   C4A33090  44.812  32.752   7.826
 2447POPC   C1B33091  44.240  32.742   8.711
 2447POPC   C2B33092  44.278  32.896   8.311
 2447POPC   C3B33093  44.310  32.690   7.936
 2447POPC   C4B33094  44.385  32.716   7.489
 2448POPC   NC333095  33.104  30.832   9.662
 2448POPC   PO433096  32.746  30.331   9.395
 2448POPC   GL133097  32.843  30.746   9.186
 2448POPC   GL233098  33.179  30.886   9.153
 2448POPC   C1A33099  32.847  30.845   8.749
 2448POPC   D2A33100  32.826  31.029   8.330
 2448POPC   C3A33101  32.946  30.773   7.969
 2448POPC   C4A33102  32.841  30.752   7.536
 2448POPC   C1B33103  33.308  30.620   8.855
 2448POPC   C2B33104  33.209  30.622   8.432
 2448POPC   C3B33105  33.406  30.539   8.059
 2448POPC   C4B33106  33.316  30.548   7.649
 2449POPC   NC333107  44.453  26.929   9.399
 2449POPC   PO433108  44.867  26.457   9.670
 2449POPC   GL133109  44.937  26.721   9.299
 2449POPC   GL233110   0.112  26.492   9.120
 2449POPC   C1A33111  44.876  26.978   8.901
 2449POPC   D2A33112  44.534  27.128   8.624
 2449POPC   C3A33113  44.605  27.106   8.176
 2449POPC   C4A33114  44.570  26.822   7.840
 2449POPC   C1B33115  44.824  26.405   8.776
 2449POPC   C2B33116  44.734  26.500   8.327
 2449POPC   C3B33117  44.963  26.558   7.955
 2449POPC   C4B33118  44.876  26.508   7.481
 2450POPC   NC333119   3.684   1.264   9.613
 2450POPC   PO433120   3.470   0.644   9.355
 2450POPC   GL133121   3.445   1.012   9.091
 2450POPC   GL233122   3.471   1.383   9.164
 2450POPC   C1A33123   3.460   0.904   8.673
 2450POPC   D2A33124   3.732   0.958   8.364
 2450POPC   C3A33125   3.506   0.973   7.999
 2450POPC   C4A33126   3.624   1.113   7.592
 2450POPC   C1B33127   3.244   1.345   8.773
 2450POPC   C2B33128   3.287   1.305   8.345
 2450POPC   C3B33129   3.599   1.478   8.151
 2450POPC   C4B33130   3.719   1.592   7.782
 2451POPC   NC333131  30.395  24.039   9.465
 2451POPC   PO433132  29.885  23.602   9.546
 2451POPC   GL133133  29.912  23.826   9.155
 2451POPC   GL233134  30.227  23.678   9.104
 2451POPC   C1A33135  29.840  23.782   8.684
 2451POPC   D2A33136  29.578  23.764   8.275
 2451POPC   C3A33137  29.751  23.564   7.874
 2451POPC   C4A33138  29.909  23.856   7.491
 2451POPC   C1B33139  30.287  24.052   8.821
 2451POPC   C2B33140  30.122  24.151   8.407
 2451POPC   C3B33141  30.100  23.925   8.001
 2451POPC   C4B33142  30.398  23.904   7.646
 2452POPC   NC333143  33.225  12.130   9.659
 2452POPC   PO433144  32.608  12.229   9.392
 2452POPC   GL133145  32.946  12.251   9.129
 2452POPC   GL233146  33.052  11.938   9.171
 2452POPC   C1A33147  33.028  12.302   8.695
 2452POPC   D2A33148  33.046  12.412   8.247
 2452POPC   C3A33149  33.050  12.140   7.901
 2452POPC   C4A33150  32.848  12.358   7.566
 2452POPC   C1B33151  33.145  11.781   8.783
 2452POPC   C2B33152  33.235  11.929   8.364
 2452POPC   C3B33153  33.393  11.730   7.983
 2452POPC   C4B33154  33.361  11.601   7.519
 2453POPC   NC333155  11.158  32.907   9.506
 2453POPC   PO433156  11.593  33.430   9.549
 2453POPC   GL133157  11.343  33.276   9.210
 2453POPC   GL233158  11.577  32.991   9.179
 2453POPC   C1A33159  11.222  33.060   8.801
 2453POPC   D2A33160  11.442  32.997   8.415
 2453POPC   C3A33161  11.292  32.953   8.015
 2453POPC   C4A33162  11.323  32.810   7.623
 2453POPC   C1B33163  11.679  33.278   8.830
 2453POPC   C2B33164  11.650  33.499   8.440
 2453POPC   C3B33165  11.566  33.393   8.060
 2453POPC   C4B33166  11.676  33.295   7.670
 2454POPC   NC333167   9.965  41.353   9.525
 2454POPC   PO433168   9.934  40.671   9.540
 2454POPC   GL133169   9.810  40.962   9.233
 2454POPC   GL233170   9.794  40.668   9.036
 2454POPC   C1A33171   9.668  41.106   8.832
 2454POPC   D2A33172   9.888  40.977   8.467
 2454POPC   C3A33173   9.647  40.843   8.152
 2454POPC   C4A33174   9.619  41.123   7.791
 2454POPC   C1B33175   9.779  40.472   8.644
 2454POPC   C2B33176   9.987  40.312   8.277
 2454POPC   C3B33177  10.082  40.562   7.939
 2454POPC   C4B33178  10.091  41.026   7.973
 2455POPC   NC333179   8.547  39.351   9.786
 2455POPC   PO433180   8.097  39.600   9.437
 2455POPC   GL133181   8.079  39.206   9.149
 2455POPC   GL233182   8.405  39.020   9.106
 2455POPC   C1A33183   7.981  39.394   8.749
 2455POPC   D2A33184   8.203  39.438   8.383
 2455POPC   C3A33185   7.987  39.345   8.012
 2455POPC   C4A33186   8.263  39.598   7.752
 2455POPC   C1B33187   8.228  38.945   8.725
 2455POPC   C2B33188   7.928  39.004   8.420
 2455POPC   C3B33189   8.150  38.863   8.098
 2455POPC   C4B33190   8.312  39.059   7.754
 2456POPC   NC333191  23.688  29.242   9.564
 2456POPC   PO433192  24.344  29.335   9.527
 2456POPC   GL133193  23.968  29.112   9.161
 2456POPC   GL233194  23.607  29.132   9.089
 2456POPC   C1A33195  23.835  29.126   8.671
 2456POPC   D2A33196  23.892  29.366   8.312
 2456POPC   C3A33197  23.764  29.039   8.015
 2456POPC   C4A33198  23.948  28.902   7.617
 2456POPC   C1B33199  23.350  29.319   8.724
 2456POPC   C2B33200  23.404  29.293   8.328
 2456POPC   C3B33201  23.219  29.279   7.968
 2456POPC   C4B33202  23.439  29.120   7.630
 2457POPC   NC333203  30.201  19.920   9.531
 2457POPC   PO433204  30.724  19.686   9.476
 2457POPC   GL133205  30.570  19.793   9.110
 2457POPC   GL233206  30.640  20.121   9.182
 2457POPC   C1A33207  30.679  19.874   8.676
 2457POPC   D2A33208  30.568  19.638   8.328
 2457POPC   C3A33209  30.772  19.722   7.978
 2457POPC   C4A33210  31.190  19.602   7.898
 2457POPC   C1B33211  30.333  20.202   8.882
 2457POPC   C2B33212  30.430  20.314   8.461
 2457POPC   C3B33213  30.384  20.301   8.026
 2457POPC   C4B33214  30.649  20.239   7.682
 2458POPC   NC333215   7.542   7.905   9.724
 2458POPC   PO433216   7.215   7.316   9.502
 2458POPC   GL133217   7.394   7.485   9.142
 2458POPC   GL233218   7.529   7.191   9.092
 2458POPC   C1A33219   7.280   7.419   8.699
 2458POPC   D2A33220   7.057   7.509   8.317
 2458POPC   C3A33221   7.324   7.493   7.952
 2458POPC   C4A33222   7.185   7.510   7.491
 2458POPC   C1B33223   7.732   7.156   8.759
 2458POPC   C2B33224   7.648   7.290   8.348
 2458POPC   C3B33225   7.653   7.060   7.987
 2458POPC   C4B33226   7.477   7.111   7.612
 2459POPC   NC333227  13.954  16.092   9.586
 2459POPC   PO433228  13.417  15.627   9.657
 2459POPC   GL133229  13.656  15.822   9.253
 2459POPC   GL233230  13.763  16.191   9.121
 2459POPC   C1A33231  13.717  15.832   8.784
 2459POPC   D2A33232  13.556  16.092   8.408
 2459POPC   C3A33233  13.392  15.854   8.079
 2459POPC   C4A33234  13.591  15.672   7.752
 2459POPC   C1B33235  13.914  16.327   8.670
 2459POPC   C2B33236  14.004  16.316   8.205
 2459POPC   C3B33237  13.996  16.069   7.820
 2459POPC   C4B33238  13.914  16.331   7.445
 2460POPC   NC333239  40.934  37.161   9.535
 2460POPC   PO433240  40.749  37.830   9.689
 2460POPC   GL133241  40.651  37.696   9.282
 2460POPC   GL233242  40.503  37.357   9.274
 2460POPC   C1A33243  40.789  37.645   8.862
 2460POPC   D2A33244  40.797  37.475   8.437
 2460POPC   C3A33245  40.922  37.661   8.049
 2460POPC   C4A33246  40.965  37.927   7.667
 2460POPC   C1B33247  40.483  37.226   8.831
 2460POPC   C2B33248  40.301  37.286   8.443
 2460POPC   C3B33249  40.461  37.215   8.049
 2460POPC   C4B33250  40.690  37.360   7.717
 2461POPC   NC333251  21.810   6.522   9.394
 2461POPC   PO433252  22.420   6.823   9.481
 2461POPC   GL133253  22.200   6.754   9.136
 2461POPC   GL233254  22.031   7.057   9.105
 2461POPC   C1A33255  22.213   6.428   8.819
 2461POPC   D2A33256  22.340   6.263   8.420
 2461POPC   C3A33257  22.192   6.528   8.079
 2461POPC   C4A33258  22.410   6.771   7.773
 2461POPC   C1B33259  22.026   6.894   8.687
 2461POPC   C2B33260  22.259   6.993   8.334
 2461POPC   C3B33261  22.054   7.061   7.963
 2461POPC   C4B33262  21.938   6.840   7.566
 2462POPC   NC333263   4.489   7.905   9.925
 2462POPC   PO433264   4.286   8.407   9.521
 2462POPC   GL133265   4.244   8.045   9.242
 2462POPC   GL233266   4.570   7.911   9.089
 2462POPC   C1A33267   4.210   8.075   8.785
 2462POPC   D2A33268   4.421   8.433   8.556
 2462POPC   C3A33269   4.529   8.398   8.107
 2462POPC   C4A33270   4.327   8.529   7.721
 2462POPC   C1B33271   4.721   8.021   8.715
 2462POPC   C2B33272   4.752   7.937   8.295
 2462POPC   C3B33273   4.889   8.082   7.923
 2462POPC   C4B33274   4.579   8.098   7.637
 2463POPC   NC333275  11.554  38.326   9.526
 2463POPC   PO433276  10.875  38.304   9.465
 2463POPC   GL133277  11.120  38.542   9.197
 2463POPC   GL233278  11.470  38.525   9.087
 2463POPC   C1A33279  11.077  38.715   8.810
 2463POPC   D2A33280  11.221  38.553   8.448
 2463POPC   C3A33281  10.893  38.560   8.174
 2463POPC   C4A33282  10.926  38.502   7.761
 2463POPC   C1B33283  11.682  38.374   8.786
 2463POPC   C2B33284  11.734  38.360   8.399
 2463POPC   C3B33285  11.497  38.356   8.029
 2463POPC   C4B33286  11.404  38.446   7.596
 2464POPC   NC333287  16.688  23.946   9.420
 2464POPC   PO433288  16.372  23.358   9.511
 2464POPC   GL133289  16.454  23.584   9.138
 2464POPC   GL233290  16.841  23.581   9.114
 2464POPC   C1A33291  16.568  23.829   8.767
 2464POPC   D2A33292  16.766  23.685   8.397
 2464POPC   C3A33293  16.519  23.868   8.109
 2464POPC   C4A33294  16.759  24.031   7.823
 2464POPC   C1B33295  17.143  23.312   8.958
 2464POPC   C2B33296  17.202  23.347   8.534
 2464POPC   C3B33297  17.283  23.569   8.138
 2464POPC   C4B33298  17.076  23.430   7.751
 2465POPC   NC333299   2.408  43.393   9.734
 2465POPC   PO433300   2.936  43.106   9.459
 2465POPC   GL133301   2.624  43.073   9.143
 2465POPC   GL233302   2.403  43.367   9.190
 2465POPC   C1A33303   2.605  42.986   8.697
 2465POPC   D2A33304   2.847  42.994   8.335
 2465POPC   C3A33305   2.747  42.841   7.946
 2465POPC   C4A33306   3.122  42.903   7.743
 2465POPC   C1B33307   2.576  43.510   8.804
 2465POPC   C2B33308   2.559  43.415   8.389
 2465POPC   C3B33309   2.735  43.378   8.002
 2465POPC   C4B33310   2.756  43.270   7.613
 2466POPC   NC333311   0.323  31.522   9.552
 2466POPC   PO433312   0.746  31.049   9.727
 2466POPC   GL133313   0.387  31.075   9.277
 2466POPC   GL233314   0.179  31.348   9.126
 2466POPC   C1A33315   0.512  31.207   8.787
 2466POPC   D2A33316   0.405  31.397   8.412
 2466POPC   C3A33317   0.577  31.312   8.044
 2466POPC   C4A33318   0.743  31.310   7.649
 2466POPC   C1B33319   0.128  31.607   8.780
 2466POPC   C2B33320  44.928  31.587   8.370
 2466POPC   C3B33321   0.087  31.489   7.958
 2466POPC   C4B33322   0.045  31.395   7.496
 2467POPC   NC333323  10.988  13.284   9.564
 2467POPC   PO433324  11.250  12.688   9.595
 2467POPC   GL133325  11.037  12.802   9.210
 2467POPC   GL233326  11.199  13.088   9.167
 2467POPC   C1A33327  11.121  12.867   8.742
 2467POPC   D2A33328  11.476  12.779   8.479
 2467POPC   C3A33329  11.340  12.858   8.051
 2467POPC   C4A33330  11.373  12.650   7.691
 2467POPC   C1B33331  11.590  13.017   8.966
 2467POPC   C2B33332  11.769  13.217   8.609
 2467POPC   C3B33333  11.747  13.142   8.196
 2467POPC   C4B33334  11.816  13.371   7.814
 2468POPC   NC333335  13.237  16.737   9.979
 2468POPC   PO433336  13.764  16.516   9.583
 2468POPC   GL133337  13.644  16.688   9.192
 2468POPC   GL233338  13.956  16.682   9.039
 2468POPC   C1A33339  13.487  16.609   8.756
 2468POPC   D2A33340  13.313  16.893   8.428
 2468POPC   C3A33341  13.333  16.780   7.987
 2468POPC   C4A33342  13.555  16.835   7.611
 2468POPC   C1B33343  13.861  16.949   8.682
 2468POPC   C2B33344  13.800  16.790   8.252
 2468POPC   C3B33345  13.981  16.703   7.831
 2468POPC   C4B33346  13.994  17.098   7.559
 2469POPC   NC333347  29.061   9.299   9.500
 2469POPC   PO433348  29.014   8.672   9.567
 2469POPC   GL133349  29.124   8.859   9.148
 2469POPC   GL233350  29.308   9.175   9.083
 2469POPC   C1A33351  29.004   8.947   8.708
 2469POPC   D2A33352  29.216   8.855   8.299
 2469POPC   C3A33353  29.123   9.230   8.018
 2469POPC   C4A33354  28.804   9.310   7.720
 2469POPC   C1B33355  29.506   8.994   8.747
 2469POPC   C2B33356  29.707   9.160   8.435
 2469POPC   C3B33357  29.606   9.044   8.026
 2469POPC   C4B33358  29.289   8.823   7.747
 2470POPC   NC333359   0.693   5.621   9.750
 2470POPC   PO433360   1.360   5.840   9.639
 2470POPC   GL133361   1.102   5.923   9.292
 2470POPC   GL233362   1.129   5.581   9.233
 2470POPC   C1A33363   0.999   6.188   8.938
 2470POPC   D2A33364   1.149   6.247   8.520
 2470POPC   C3A33365   0.837   6.137   8.183
 2470POPC   C4A33366   0.833   5.967   7.770
 2470POPC   C1B33367   1.322   5.575   8.828
 2470POPC   C2B33368   1.173   5.731   8.463
 2470POPC   C3B33369   1.173   5.723   8.057
 2470POPC   C4B33370   1.111   5.571   7.643
 2471POPC   NC333371   0.524   7.829   9.310
 2471POPC   PO433372   0.104   7.619   9.796
 2471POPC   GL133373   0.116   7.524   9.253
 2471POPC   GL233374   0.198   7.224   9.057
 2471POPC   C1A33375   0.144   7.638   8.768
 2471POPC   D2A33376   0.424   7.594   8.408
 2471POPC   C3A33377   0.425   7.725   7.985
 2471POPC   C4A33378   0.191   7.415   7.769
 2471POPC   C1B33379   0.612   7.303   8.801
 2471POPC   C2B33380   0.815   7.115   8.431
 2471POPC   C3B33381   0.714   7.247   8.000
 2471POPC   C4B33382   0.853   6.953   7.671
 2472POPC   NC333383  10.230  10.498   9.374
 2472POPC   PO433384  10.814  10.203   9.489
 2472POPC   GL133385  10.664  10.430   9.135
 2472POPC   GL233386  10.797  10.689   9.041
 2472POPC   C1A33387  10.375  10.490   8.754
 2472POPC   D2A33388  10.439  10.680   8.362
 2472POPC   C3A33389  10.377  10.355   8.069
 2472POPC   C4A33390  10.238  10.399   7.688
 2472POPC   C1B33391  10.867  10.502   8.623
 2472POPC   C2B33392  10.878  10.460   8.171
 2472POPC   C3B33393  10.771  10.454   7.734
 2472POPC   C4B33394  10.989  10.279   7.335
 2473POPC   NC333395  33.256  44.703   9.802
 2473POPC   PO433396  32.933   0.329   9.618
 2473POPC   GL133397  33.005   0.407   9.208
 2473POPC   GL233398  32.728   0.604   9.160
 2473POPC   C1A33399  32.990   0.358   8.779
 2473POPC   D2A33400  33.122   0.139   8.440
 2473POPC   C3A33401  33.035   0.252   8.054
 2473POPC   C4A33402  33.181   0.053   7.703
 2473POPC   C1B33403  32.745   0.792   8.763
 2473POPC   C2B33404  33.018   0.750   8.379
 2473POPC   C3B33405  32.951   0.730   7.928
 2473POPC   C4B33406  32.840   0.462   7.567
 2474POPC   NC333407  33.913  33.001   9.707
 2474POPC   PO433408  33.429  32.619   9.360
 2474POPC   GL133409  33.822  32.814   9.059
 2474POPC   GL233410  33.997  33.168   9.186
 2474POPC   C1A33411  34.113  32.771   8.745
 2474POPC   D2A33412  34.131  32.569   8.355
 2474POPC   C3A33413  33.885  32.717   8.031
 2474POPC   C4A33414  33.846  32.747   7.606
 2474POPC   C1B33415  33.852  33.241   8.794
 2474POPC   C2B33416  33.931  33.086   8.408
 2474POPC   C3B33417  33.924  33.214   8.016
 2474POPC   C4B33418  33.767  33.289   7.643
 2475POPC   NC333419  16.267  25.471   9.367
 2475POPC   PO433420  16.919  25.501   9.539
 2475POPC   GL133421  16.711  25.396   9.124
 2475POPC   GL233422  16.946  25.609   9.023
 2475POPC   C1A33423  16.446  25.364   8.716
 2475POPC   D2A33424  16.234  25.250   8.325
 2475POPC   C3A33425  16.465  25.344   7.990
 2475POPC   C4A33426  16.756  25.383   7.679
 2475POPC   C1B33427  16.957  25.394   8.664
 2475POPC   C2B33428  16.777  25.168   8.355
 2475POPC   C3B33429  16.915  25.019   8.003
 2475POPC   C4B33430  17.242  25.244   7.842
 2476POPC   NC333431   0.858  41.363   9.310
 2476POPC   PO433432   1.409  41.715   9.478
 2476POPC   GL133433   1.188  41.731   9.105
 2476POPC   GL233434   1.289  41.397   9.006
 2476POPC   C1A33435   1.124  41.768   8.662
 2476POPC   D2A33436   1.340  41.659   8.286
 2476POPC   C3A33437   1.364  41.960   7.948
 2476POPC   C4A33438   1.533  41.905   7.522
 2476POPC   C1B33439   0.983  41.241   8.684
 2476POPC   C2B33440   1.102  41.085   8.291
 2476POPC   C3B33441   1.411  41.216   8.047
 2476POPC   C4B33442   1.289  41.491   7.725
 2477POPC   NC333443  33.199  35.114   9.466
 2477POPC   PO433444  32.659  35.549   9.626
 2477POPC   GL133445  32.816  35.492   9.156
 2477POPC   GL233446  33.026  35.207   9.013
 2477POPC   C1A33447  32.897  35.616   8.691
 2477POPC   D2A33448  32.830  35.834   8.241
 2477POPC   C3A33449  33.089  35.687   7.890
 2477POPC   C4A33450  33.274  35.280   7.794
 2477POPC   C1B33451  32.856  35.100   8.629
 2477POPC   C2B33452  32.892  35.302   8.226
 2477POPC   C3B33453  32.744  35.311   7.810
 2477POPC   C4B33454  32.641  35.095   7.428
 2478POPC   NC333455  25.093  11.102   9.371
 2478POPC   PO433456  25.318  11.721   9.498
 2478POPC   GL133457  25.380  11.437   9.137
 2478POPC   GL233458  25.584  11.110   9.222
 2478POPC   C1A33459  25.255  11.521   8.702
 2478POPC   D2A33460  25.220  11.651   8.263
 2478POPC   C3A33461  25.183  11.308   7.973
 2478POPC   C4A33462  24.848  11.067   7.789
 2478POPC   C1B33463  25.609  11.142   8.773
 2478POPC   C2B33464  25.761  11.219   8.357
 2478POPC   C3B33465  25.604  11.017   8.003
 2478POPC   C4B33466  25.379  10.964   7.656
 2479POPC   NC333467  33.427  36.653   9.397
 2479POPC   PO433468  32.851  36.527   9.706
 2479POPC   GL133469  32.847  36.825   9.266
 2479POPC   GL233470  33.158  36.985   9.102
 2479POPC   C1A33471  32.757  36.947   8.797
 2479POPC   D2A33472  32.939  36.811   8.399
 2479POPC   C3A33473  32.704  36.927   8.055
 2479POPC   C4A33474  32.572  36.983   7.664
 2479POPC   C1B33475  33.383  36.802   8.722
 2479POPC   C2B33476  33.477  36.756   8.267
 2479POPC   C3B33477  33.159  36.727   7.932
 2479POPC   C4B33478  33.070  37.080   7.701
 2480POPC   NC333479  33.683   2.288   9.533
 2480POPC   PO433480  34.186   1.728   9.451
 2480POPC   GL133481  33.922   1.955   9.203
 2480POPC   GL233482  33.991   2.269   9.117
 2480POPC   C1A33483  33.585   1.987   8.923
 2480POPC   D2A33484  33.636   1.869   8.528
 2480POPC   C3A33485  33.443   2.011   8.184
 2480POPC   C4A33486  33.739   1.832   7.869
 2480POPC   C1B33487  34.030   2.183   8.699
 2480POPC   C2B33488  33.873   2.269   8.289
 2480POPC   C3B33489  34.071   2.220   7.897
 2480POPC   C4B33490  34.013   2.348   7.471
 2481POPC   NC333491  44.596   6.098   9.591
 2481POPC   PO433492  44.704   5.445   9.456
 2481POPC   GL133493  44.571   5.798   9.169
 2481POPC   GL233494  44.908   5.927   9.153
 2481POPC   C1A33495  44.618   6.049   8.760
 2481POPC   D2A33496  44.648   5.855   8.365
 2481POPC   C3A33497  44.754   6.072   7.990
 2481POPC   C4A33498  44.425   5.932   7.729
 2481POPC   C1B33499  44.922   5.621   8.774
 2481POPC   C2B33500   0.154   5.550   8.376
 2481POPC   C3B33501  44.936   5.607   8.015
 2481POPC   C4B33502  44.889   5.718   7.582
 2482POPC   NC333503  29.006  37.848   9.562
 2482POPC   PO433504  29.344  37.288   9.626
 2482POPC   GL133505  29.145  37.470   9.213
 2482POPC   GL233506  29.276  37.828   9.119
 2482POPC   C1A33507  28.974  37.355   8.784
 2482POPC   D2A33508  29.185  37.242   8.385
 2482POPC   C3A33509  28.983  37.248   7.998
 2482POPC   C4A33510  29.098  37.427   7.609
 2482POPC   C1B33511  29.400  37.910   8.681
 2482POPC   C2B33512  29.189  37.783   8.270
 2482POPC   C3B33513  29.278  37.864   7.825
 2482POPC   C4B33514  29.252  37.910   7.364
 2483POPC   NC333515  19.456  20.136   9.319
 2483POPC   PO433516  19.086  19.706   9.745
 2483POPC   GL133517  19.073  19.769   9.302
 2483POPC   GL233518  18.781  19.577   9.274
 2483POPC   C1A33519  19.175  19.837   8.835
 2483POPC   D2A33520  18.940  19.850   8.441
 2483POPC   C3A33521  19.166  19.912   8.030
 2483POPC   C4A33522  19.133  20.053   7.572
 2483POPC   C1B33523  18.771  19.542   8.832
 2483POPC   C2B33524  18.727  19.358   8.396
 2483POPC   C3B33525  18.709  19.623   8.059
 2483POPC   C4B33526  18.838  19.657   7.678
 2484POPC   NC333527  43.222  20.119   9.450
 2484POPC   PO433528  42.602  19.805   9.574
 2484POPC   GL133529  42.834  19.744   9.153
 2484POPC   GL233530  43.092  19.969   9.000
 2484POPC   C1A33531  42.950  19.601   8.698
 2484POPC   D2A33532  43.175  19.945   8.468
 2484POPC   C3A33533  43.023  20.089   8.095
 2484POPC   C4A33534  43.230  19.964   7.743
 2484POPC   C1B33535  43.427  19.699   8.823
 2484POPC   C2B33536  43.507  19.568   8.441
 2484POPC   C3B33537  43.255  19.570   8.054
 2484POPC   C4B33538  43.339  19.478   7.605
 2485POPC   NC333539  12.810  33.386   9.622
 2485POPC   PO433540  12.998  34.021   9.648
 2485POPC   GL133541  12.997  33.800   9.225
 2485POPC   GL233542  12.988  33.447   9.143
 2485POPC   C1A33543  12.892  33.847   8.777
 2485POPC   D2A33544  13.198  33.824   8.446
 2485POPC   C3A33545  13.022  33.643   8.088
 2485POPC   C4A33546  12.826  33.888   7.781
 2485POPC   C1B33547  12.712  33.369   8.771
 2485POPC   C2B33548  12.611  33.596   8.406
 2485POPC   C3B33549  12.512  33.482   7.990
 2485POPC   C4B33550  12.407  33.661   7.608
 2486POPC   NC333551   3.833  38.659   9.464
 2486POPC   PO433552   3.946  37.948   9.555
 2486POPC   GL133553   3.679  38.203   9.278
 2486POPC   GL233554   3.359  38.084   9.204
 2486POPC   C1A33555   3.779  38.359   8.864
 2486POPC   D2A33556   3.967  38.299   8.487
 2486POPC   C3A33557   3.682  38.416   8.202
 2486POPC   C4A33558   3.705  38.470   7.774
 2486POPC   C1B33559   3.320  38.514   8.979
 2486POPC   C2B33560   3.319  38.612   8.560
 2486POPC   C3B33561   3.280  38.695   8.118
 2486POPC   C4B33562   3.184  38.505   7.743
 2487POPC   NC333563  38.108  32.616   9.438
 2487POPC   PO433564  38.617  32.109   9.510
 2487POPC   GL133565  38.430  32.307   9.175
 2487POPC   GL233566  38.564  32.642   9.204
 2487POPC   C1A33567  38.212  32.340   8.787
 2487POPC   D2A33568  38.146  32.092   8.421
 2487POPC   C3A33569  38.218  32.273   8.028
 2487POPC   C4A33570  38.578  32.139   7.836
 2487POPC   C1B33571  38.613  32.738   8.793
 2487POPC   C2B33572  38.473  32.576   8.400
 2487POPC   C3B33573  38.528  32.686   7.984
 2487POPC   C4B33574  38.886  32.582   7.728
 2488POPC   NC333575   3.402   0.305   9.653
 2488POPC   PO433576   4.078   0.242   9.725
 2488POPC   GL133577   3.924   0.212   9.277
 2488POPC   GL233578   3.574   0.081   9.223
 2488POPC   C1A33579   3.851   0.289   8.812
 2488POPC   D2A33580   3.510   0.383   8.495
 2488POPC   C3A33581   3.598   0.310   8.062
 2488POPC   C4A33582   3.630   0.583   7.694
 2488POPC   C1B33583   3.382  44.986   8.808
 2488POPC   C2B33584   3.352  44.844   8.377
 2488POPC   C3B33585   3.162   0.008   7.986
 2488POPC   C4B33586   3.284   0.157   7.587
 2489POPC   NC333587  12.723  21.447   9.500
 2489POPC   PO433588  13.377  21.508   9.492
 2489POPC   GL133589  13.045  21.533   9.127
 2489POPC   GL233590  12.811  21.212   9.040
 2489POPC   C1A33591  12.885  21.540   8.690
 2489POPC   D2A33592  12.662  21.198   8.502
 2489POPC   C3A33593  12.649  21.263   8.092
 2489POPC   C4A33594  12.810  21.237   7.715
 2489POPC   C1B33595  13.126  21.078   8.714
 2489POPC   C2B33596  13.155  21.129   8.237
 2489POPC   C3B33597  13.282  21.105   7.776
 2489POPC   C4B33598  13.154  21.151   7.321
 2490POPC   NC333599   7.155   2.023   9.568
 2490POPC   PO433600   6.448   2.141   9.526
 2490POPC   GL133601   6.748   2.133   9.189
 2490POPC   GL233602   6.844   1.777   9.157
 2490POPC   C1A33603   6.616   1.998   8.760
 2490POPC   D2A33604   6.615   1.809   8.327
 2490POPC   C3A33605   6.575   2.034   7.920
 2490POPC   C4A33606   6.528   2.023   7.459
 2490POPC   C1B33607   6.950   1.584   8.737
 2490POPC   C2B33608   7.061   1.550   8.288
 2490POPC   C3B33609   6.828   1.569   7.907
 2490POPC   C4B33610   6.823   1.592   7.470
 2491POPC   NC333611  34.536  41.224   9.468
 2491POPC   PO433612  34.492  41.867   9.753
 2491POPC   GL133613  34.547  41.725   9.271
 2491POPC   GL233614  34.894  41.703   9.132
 2491POPC   C1A33615  34.551  41.446   8.853
 2491POPC   D2A33616  34.449  41.497   8.413
 2491POPC   C3A33617  34.712  41.300   8.110
 2491POPC   C4A33618  34.677  41.393   7.693
 2491POPC   C1B33619  34.865  41.875   8.754
 2491POPC   C2B33620  34.924  41.730   8.359
 2491POPC   C3B33621  34.722  41.828   8.024
 2491POPC   C4B33622  34.758  41.885   7.610
 2492POPC   NC333623  21.285  14.205   9.467
 2492POPC   PO433624  21.662  14.767   9.545
 2492POPC   GL133625  21.441  14.626   9.169
 2492POPC   GL233626  21.670  14.336   9.164
 2492POPC   C1A33627  21.349  14.601   8.705
 2492POPC   D2A33628  21.466  14.651   8.257
 2492POPC   C3A33629  21.205  14.447   7.957
 2492POPC   C4A33630  21.044  14.565   7.503
 2492POPC   C1B33631  21.662  14.079   8.805
 2492POPC   C2B33632  21.489  14.164   8.419
 2492POPC   C3B33633  21.658  14.213   8.036
 2492POPC   C4B33634  21.567  14.231   7.659
 2493POPC   NC333635   4.349  35.976   9.560
 2493POPC   PO433636   3.834  36.326   9.527
 2493POPC   GL133637   4.019  36.073   9.182
 2493POPC   GL233638   4.420  36.162   9.107
 2493POPC   C1A33639   4.055  36.152   8.759
 2493POPC   D2A33640   4.376  36.195   8.464
 2493POPC   C3A33641   4.180  36.311   8.083
 2493POPC   C4A33642   4.155  36.117   7.666
 2493POPC   C1B33643   4.810  36.406   8.984
 2493POPC   C2B33644   4.842  36.575   8.545
 2493POPC   C3B33645   4.762  36.356   8.176
 2493POPC   C4B33646   4.607  36.300   7.781
 2494POPC   NC333647   7.672   7.054   9.540
 2494POPC   PO433648   7.298   6.461   9.560
 2494POPC   GL133649   7.464   6.681   9.226
 2494POPC   GL233650   7.152   6.843   9.194
 2494POPC   C1A33651   7.703   6.628   8.850
 2494POPC   D2A33652   7.661   6.772   8.439
 2494POPC   C3A33653   7.654   6.551   8.068
 2494POPC   C4A33654   7.726   6.408   7.637
 2494POPC   C1B33655   7.258   6.911   8.775
 2494POPC   C2B33656   7.213   7.022   8.340
 2494POPC   C3B33657   7.205   6.785   7.979
 2494POPC   C4B33658   7.287   6.642   7.581
 2495POPC   NC333659  38.824  37.965   9.474
 2495POPC   PO433660  38.153  37.825   9.444
 2495POPC   GL133661  38.473  37.734   9.183
 2495POPC   GL233662  38.370  37.396   9.146
 2495POPC   C1A33663  38.733  37.815   8.817
 2495POPC   D2A33664  38.591  37.939   8.414
 2495POPC   C3A33665  38.685  37.729   8.039
 2495POPC   C4A33666  38.529  37.947   7.706
 2495POPC   C1B33667  38.276  37.591   8.747
 2495POPC   C2B33668  38.280  37.514   8.345
 2495POPC   C3B33669  38.161  37.803   8.042
 2495POPC   C4B33670  38.292  37.482   7.761
 2496POPC   NC333671  27.867  12.319   9.457
 2496POPC   PO433672  28.607  12.257   9.490
 2496POPC   GL133673  28.486  12.424   9.099
 2496POPC   GL233674  28.138  12.473   9.060
 2496POPC   C1A33675  28.556  12.241   8.699
 2496POPC   D2A33676  28.411  11.834   8.530
 2496POPC   C3A33677  28.443  11.824   8.087
 2496POPC   C4A33678  28.236  11.907   7.696
 2496POPC   C1B33679  28.050  12.250   8.703
 2496POPC   C2B33680  28.151  12.210   8.291
 2496POPC   C3B33681  28.263  12.403   7.944
 2496POPC   C4B33682  28.132  12.723   7.685
 2497POPC   NC333683  37.751  30.915   9.524
 2497POPC   PO433684  37.252  30.431   9.627
 2497POPC   GL133685  37.455  30.629   9.227
 2497POPC   GL233686  37.815  30.633   9.100
 2497POPC   C1A33687  37.351  30.775   8.792
 2497POPC   D2A33688  37.503  30.557   8.436
 2497POPC   C3A33689  37.453  30.664   7.989
 2497POPC   C4A33690  37.792  30.522   7.706
 2497POPC   C1B33691  37.846  30.853   8.686
 2497POPC   C2B33692  37.919  30.755   8.247
 2497POPC   C3B33693  37.984  30.974   7.898
 2497POPC   C4B33694  38.089  30.956   7.447
 2498POPC   NC333695  31.179  21.805   9.390
 2498POPC   PO433696  31.650  21.427   9.668
 2498POPC   GL133697  31.465  21.344   9.268
 2498POPC   GL233698  31.200  21.127   9.352
 2498POPC   C1A33699  31.594  21.421   8.837
 2498POPC   D2A33700  31.521  21.664   8.452
 2498POPC   C3A33701  31.649  21.430   8.097
 2498POPC   C4A33702  31.832  21.549   7.697
 2498POPC   C1B33703  31.155  21.102   8.902
 2498POPC   C2B33704  31.300  21.180   8.486
 2498POPC   C3B33705  31.190  21.077   8.085
 2498POPC   C4B33706  31.392  20.921   7.743
 2499POPC   NC333707  40.386  18.301   9.478
 2499POPC   PO433708  39.827  18.668   9.608
 2499POPC   GL133709  39.875  18.399   9.233
 2499POPC   GL233710  40.162  18.381   9.038
 2499POPC   C1A33711  39.739  18.183   8.838
 2499POPC   D2A33712  39.904  18.002   8.475
 2499POPC   C3A33713  39.750  18.146   8.090
 2499POPC   C4A33714  39.906  18.099   7.706
 2499POPC   C1B33715  40.397  18.284   8.680
 2499POPC   C2B33716  40.279  18.285   8.262
 2499POPC   C3B33717  40.107  18.545   7.976
 2499POPC   C4B33718  40.206  18.481   7.504
 2500POPC   NC333719  37.780  15.632   9.640
 2500POPC   PO433720  38.039  16.191   9.422
 2500POPC   GL133721  37.943  15.967   9.073
 2500POPC   GL233722  37.619  15.838   9.125
 2500POPC   C1A33723  38.053  16.012   8.636
 2500POPC   D2A33724  37.783  15.934   8.297
 2500POPC   C3A33725  37.896  15.892   7.864
 2500POPC   C4A33726  37.496  16.057   7.639
 2500POPC   C1B33727  37.445  15.817   8.704
 2500POPC   C2B33728  37.500  15.528   8.380
 2500POPC   C3B33729  37.413  15.687   7.981
 2500POPC   C4B33730  37.209  15.602   7.591
 2501POPC   NC333731  44.410  25.957   9.630
 2501POPC   PO433732   0.020  25.671   9.432
 2501POPC   GL133733  44.775  25.940   9.213
 2501POPC   GL233734   0.077  25.995   9.024
 2501POPC   C1A33735  44.473  25.964   8.857
 2501POPC   D2A33736  44.369  26.144   8.457
 2501POPC   C3A33737  44.496  25.922   8.090
 2501POPC   C4A33738  44.565  26.251   7.779
 2501POPC   C1B33739  44.917  25.733   8.766
 2501POPC   C2B33740  44.857  25.979   8.459
 2501POPC   C3B33741  44.974  26.067   8.091
 2501POPC   C4B33742  44.884  25.859   7.725
 2502POPC   NC333743  39.527  41.975   9.393
 2502POPC   PO433744  40.074  42.344   9.639
 2502POPC   GL133745  39.959  42.257   9.226
 2502POPC   GL233746  39.681  42.468   9.270
 2502POPC   C1A33747  40.101  42.355   8.806
 2502POPC   D2A33748  40.124  42.166   8.378
 2502POPC   C3A33749  40.067  42.410   8.021
 2502POPC   C4A33750  40.433  42.408   7.817
 2502POPC   C1B33751  39.677  42.664   8.864
 2502POPC   C2B33752  39.851  42.691   8.442
 2502POPC   C3B33753  39.612  42.679   8.056
 2502POPC   C4B33754  39.563  42.583   7.648
 2503POPC   NC333755  38.569   2.409   9.517
 2503POPC   PO433756  38.034   2.837   9.478
 2503POPC   GL133757  38.320   2.728   9.175
 2503POPC   GL233758  38.590   2.945   9.259
 2503POPC   C1A33759  38.275   2.582   8.754
 2503POPC   D2A33760  37.935   2.478   8.452
 2503POPC   C3A33761  38.075   2.464   8.030
 2503POPC   C4A33762  38.281   2.358   7.657
 2503POPC   C1B33763  38.724   2.825   8.825
 2503POPC   C2B33764  38.825   2.674   8.373
 2503POPC   C3B33765  38.665   2.670   7.918
 2503POPC   C4B33766  38.426   2.917   7.567
 2504POPC   NC333767  25.452  16.337   9.521
 2504POPC   PO433768  25.540  15.609   9.426
 2504POPC   GL133769  25.361  15.998   9.152
 2504POPC   GL233770  25.564  16.320   9.043
 2504POPC   C1A33771  25.146  16.049   8.748
 2504POPC   D2A33772  25.289  15.846   8.352
 2504POPC   C3A33773  25.136  15.911   7.950
 2504POPC   C4A33774  25.216  15.676   7.571
 2504POPC   C1B33775  25.481  16.439   8.654
 2504POPC   C2B33776  25.127  16.496   8.368
 2504POPC   C3B33777  25.146  16.434   7.919
 2504POPC   C4B33778  25.488  16.252   7.665
 2505POPC   NC333779  27.952  22.298   9.610
 2505POPC   PO433780  27.505  22.690   9.516
 2505POPC   GL133781  27.483  22.249   9.276
 2505POPC   GL233782  27.814  22.089   9.166
 2505POPC   C1A33783  27.420  22.000   8.855
 2505POPC   D2A33784  27.411  22.191   8.435
 2505POPC   C3A33785  27.479  22.010   8.045
 2505POPC   C4A33786  27.441  22.162   7.614
 2505POPC   C1B33787  27.867  22.260   8.736
 2505POPC   C2B33788  27.892  22.407   8.299
 2505POPC   C3B33789  27.899  22.230   7.871
 2505POPC   C4B33790  27.908  21.894   7.539
 2506POPC   NC333791  36.726  14.197   9.641
 2506POPC   PO433792  36.821  14.858   9.526
 2506POPC   GL133793  36.960  14.532   9.253
 2506POPC   GL233794  36.930  14.175   9.170
 2506POPC   C1A33795  36.860  14.579   8.825
 2506POPC   D2A33796  37.026  14.754   8.486
 2506POPC   C3A33797  36.996  14.626   8.100
 2506POPC   C4A33798  36.860  14.728   7.714
 2506POPC   C1B33799  36.722  14.100   8.753
 2506POPC   C2B33800  36.635  14.197   8.299
 2506POPC   C3B33801  36.844  14.201   7.868
 2506POPC   C4B33802  37.255  14.097   7.676
 2507POPC   NC333803  17.962   2.019   9.817
 2507POPC   PO433804  18.010   1.709   9.211
 2507POPC   GL133805  18.022   2.003   8.890
 2507POPC   GL233806  17.913   2.301   9.065
 2507POPC   C1A33807  18.409   2.033   8.638
 2507POPC   D2A33808  18.519   1.732   8.401
 2507POPC   C3A33809  18.454   1.962   8.072
 2507POPC   C4A33810  18.641   2.162   7.724
 2507POPC   C1B33811  18.147   2.463   8.691
 2507POPC   C2B33812  18.176   2.338   8.260
 2507POPC   C3B33813  18.146   2.266   7.818
 2507POPC   C4B33814  18.023   2.123   7.408
 2508POPC   NC333815   8.081  34.268   9.377
 2508POPC   PO433816   8.186  33.630   9.634
 2508POPC   GL133817   8.198  33.764   9.216
 2508POPC   GL233818   8.313  33.458   9.110
 2508POPC   C1A33819   8.183  33.848   8.755
 2508POPC   D2A33820   8.019  33.700   8.334
 2508POPC   C3A33821   8.179  33.907   7.974
 2508POPC   C4A33822   8.157  33.826   7.546
 2508POPC   C1B33823   8.163  33.325   8.693
 2508POPC   C2B33824   8.316  33.293   8.258
 2508POPC   C3B33825   8.188  33.392   7.835
 2508POPC   C4B33826   8.164  33.311   7.397
 2509POPC   NC333827  31.446  34.345   9.443
 2509POPC   PO433828  31.190  34.979   9.501
 2509POPC   GL133829  31.233  34.747   9.134
 2509POPC   GL233830  31.530  34.578   9.000
 2509POPC   C1A33831  31.114  34.633   8.725
 2509POPC   D2A33832  31.446  34.598   8.437
 2509POPC   C3A33833  31.288  34.465   8.065
 2509POPC   C4A33834  31.466  34.644   7.748
 2509POPC   C1B33835  31.519  34.206   8.766
 2509POPC   C2B33836  31.548  34.089   8.330
 2509POPC   C3B33837  31.351  33.968   7.918
 2509POPC   C4B33838  31.586  34.170   7.609
 2510POPC   NC333839  12.542  42.008   9.533
 2510POPC   PO433840  12.737  42.637   9.630
 2510POPC   GL133841  12.754  42.409   9.167
 2510POPC   GL233842  12.744  42.034   9.091
 2510POPC   C1A33843  12.857  42.589   8.718
 2510POPC   D2A33844  13.073  42.769   8.326
 2510POPC   C3A33845  13.141  42.527   7.908
 2510POPC   C4A33846  13.069  42.546   7.411
 2510POPC   C1B33847  12.746  42.090   8.692
 2510POPC   C2B33848  12.903  42.239   8.338
 2510POPC   C3B33849  12.680  42.302   8.003
 2510POPC   C4B33850  12.850  42.164   7.656
 2511POPC   NC333851  43.955  16.518   9.489
 2511POPC   PO433852  43.396  16.101   9.444
 2511POPC   GL133853  43.489  16.433   9.078
 2511POPC   GL233854  43.763  16.719   9.066
 2511POPC   C1A33855  43.556  16.602   8.621
 2511POPC   D2A33856  43.631  16.982   8.354
 2511POPC   C3A33857  43.804  16.813   7.972
 2511POPC   C4A33858  44.008  16.467   7.753
 2511POPC   C1B33859  44.086  16.665   8.735
 2511POPC   C2B33860  44.354  16.856   8.412
 2511POPC   C3B33861  44.335  16.787   7.965
 2511POPC   C4B33862  44.129  16.985   7.608
 2512POPC   NC333863   6.098   4.456   9.573
 2512POPC   PO433864   5.999   3.878   9.277
 2512POPC   GL133865   5.752   4.225   9.162
 2512POPC   GL233866   6.078   4.373   9.076
 2512POPC   C1A33867   5.731   4.381   8.722
 2512POPC   D2A33868   6.110   4.241   8.490
 2512POPC   C3A33869   5.959   4.126   8.113
 2512POPC   C4A33870   5.707   4.387   7.867
 2512POPC   C1B33871   6.241   4.665   8.789
 2512POPC   C2B33872   6.435   4.632   8.419
 2512POPC   C3B33873   6.208   4.588   8.008
 2512POPC   C4B33874   6.485   4.614   7.657
 2513POPC   NC333875  11.031  22.351   9.863
 2513POPC   PO433876  10.491  21.930   9.700
 2513POPC   GL133877  10.413  21.928   9.254
 2513POPC   GL233878  10.466  22.265   9.150
 2513POPC   C1A33879  10.553  21.932   8.800
 2513POPC   D2A33880  10.563  22.191   8.421
 2513POPC   C3A33881  10.481  21.966   8.048
 2513POPC   C4A33882  10.713  21.885   7.666
 2513POPC   C1B33883  10.214  22.341   8.772
 2513POPC   C2B33884  10.046  22.335   8.348
 2513POPC   C3B33885  10.171  22.391   7.908
 2513POPC   C4B33886  10.294  22.134   7.595
 2514POPC   NC333887   2.870  25.815   9.626
 2514POPC   PO433888   2.187  25.741   9.510
 2514POPC   GL133889   2.497  25.883   9.156
 2514POPC   GL233890   2.796  26.072   9.196
 2514POPC   C1A33891   2.716  25.819   8.726
 2514POPC   D2A33892   2.979  25.850   8.369
 2514POPC   C3A33893   2.779  25.945   7.983
 2514POPC   C4A33894   2.871  25.788   7.597
 2514POPC   C1B33895   3.071  26.145   8.852
 2514POPC   C2B33896   3.065  26.330   8.499
 2514POPC   C3B33897   3.188  26.360   8.075
 2514POPC   C4B33898   3.052  26.292   7.664
 2515POPC   NC333899  29.511  25.898   9.608
 2515POPC   PO433900  28.870  25.983   9.540
 2515POPC   GL133901  29.197  26.014   9.195
 2515POPC   GL233902  29.428  26.292   9.236
 2515POPC   C1A33903  29.184  26.112   8.740
 2515POPC   D2A33904  29.295  25.847   8.354
 2515POPC   C3A33905  28.971  25.928   8.007
 2515POPC   C4A33906  28.743  26.302   7.876
 2515POPC   C1B33907  29.691  26.351   8.875
 2515POPC   C2B33908  29.575  26.306   8.458
 2515POPC   C3B33909  29.342  26.297   8.090
 2515POPC   C4B33910  29.602  26.437   7.780
 2516POPC   NC333911   2.321   2.277   9.436
 2516POPC   PO433912   2.958   2.644   9.599
 2516POPC   GL133913   3.024   2.779   9.159
 2516POPC   GL233914   2.711   2.989   9.119
 2516POPC   C1A33915   3.096   2.650   8.713
 2516POPC   D2A33916   2.827   2.804   8.353
 2516POPC   C3A33917   2.912   2.700   7.899
 2516POPC   C4A33918   2.921   2.594   7.436
 2516POPC   C1B33919   2.591   2.658   8.827
 2516POPC   C2B33920   2.516   2.362   8.461
 2516POPC   C3B33921   2.520   2.367   7.999
 2516POPC   C4B33922   2.438   2.598   7.584
 2517POPC   NC333923  29.573  18.408   9.445
 2517POPC   PO433924  28.845  18.168   9.544
 2517POPC   GL133925  29.139  18.074   9.159
 2517POPC   GL233926  29.361  18.337   8.987
 2517POPC   C1A33927  29.089  18.050   8.676
 2517POPC   D2A33928  29.386  18.132   8.312
 2517POPC   C3A33929  29.427  17.956   7.871
 2517POPC   C4A33930  29.452  18.035   7.403
 2517POPC   C1B33931  29.098  18.552   8.700
 2517POPC   C2B33932  28.921  18.443   8.306
 2517POPC   C3B33933  29.203  18.456   7.945
 2517POPC   C4B33934  29.092  18.346   7.534
 2518POPC   NC333935  24.507  14.069   9.421
 2518POPC   PO433936  24.265  14.789   9.507
 2518POPC   GL133937  24.326  14.498   9.181
 2518POPC   GL233938  24.685  14.500   9.216
 2518POPC   C1A33939  24.306  14.328   8.751
 2518POPC   D2A33940  24.425  13.964   8.478
 2518POPC   C3A33941  24.332  14.115   8.059
 2518POPC   C4A33942  24.062  14.174   7.678
 2518POPC   C1B33943  24.632  14.731   8.832
 2518POPC   C2B33944  24.387  14.768   8.462
 2518POPC   C3B33945  24.370  14.815   8.034
 2518POPC   C4B33946  24.467  14.486   7.758
 2519POPC   NC333947  21.357  40.957   9.518
 2519POPC   PO433948  21.619  40.470   9.753
 2519POPC   GL133949  21.540  40.588   9.233
 2519POPC   GL233950  21.189  40.675   9.132
 2519POPC   C1A33951  21.548  40.909   8.855
 2519POPC   D2A33952  21.579  40.828   8.419
 2519POPC   C3A33953  21.643  41.081   8.058
 2519POPC   C4A33954  21.586  40.883   7.662
 2519POPC   C1B33955  21.332  40.474   8.740
 2519POPC   C2B33956  21.116  40.644   8.393
 2519POPC   C3B33957  21.229  40.728   8.001
 2519POPC   C4B33958  21.198  40.529   7.634
 2520POPC   NC333959   2.458  16.298   9.705
 2520POPC   PO433960   2.260  15.811   9.327
 2520POPC   GL133961   1.952  16.080   9.147
 2520POPC   GL233962   2.222  16.246   8.946
 2520POPC   C1A33963   1.751  16.111   8.738
 2520POPC   D2A33964   1.905  15.940   8.315
 2520POPC   C3A33965   1.856  16.144   7.935
 2520POPC   C4A33966   1.509  16.389   7.782
 2520POPC   C1B33967   2.204  15.842   8.699
 2520POPC   C2B33968   2.275  15.546   8.368
 2520POPC   C3B33969   2.415  15.681   7.951
 2520POPC   C4B33970   2.291  15.862   7.558
 2521POPC   NC333971  32.234  28.516   9.776
 2521POPC   PO433972  31.814  28.086   9.533
 2521POPC   GL133973  32.146  28.283   9.193
 2521POPC   GL233974  32.355  28.606   9.276
 2521POPC   C1A33975  32.344  28.036   8.842
 2521POPC   D2A33976  32.299  27.836   8.429
 2521POPC   C3A33977  32.330  28.122   8.090
 2521POPC   C4A33978  32.115  28.217   7.678
 2521POPC   C1B33979  32.490  28.526   8.855
 2521POPC   C2B33980  32.306  28.560   8.442
 2521POPC   C3B33981  32.199  28.605   8.022
 2521POPC   C4B33982  32.231  28.719   7.619
 2522POPC   NC333983  21.293  17.652   9.532
 2522POPC   PO433984  21.713  17.219   9.403
 2522POPC   GL133985  21.504  17.492   9.094
 2522POPC   GL233986  21.152  17.498   9.073
 2522POPC   C1A33987  21.418  17.456   8.641
 2522POPC   D2A33988  21.429  17.144   8.322
 2522POPC   C3A33989  21.695  17.332   8.014
 2522POPC   C4A33990  21.812  17.640   7.658
 2522POPC   C1B33991  20.927  17.701   8.762
 2522POPC   C2B33992  21.034  17.686   8.369
 2522POPC   C3B33993  21.005  17.712   7.946
 2522POPC   C4B33994  21.312  17.552   7.728
 2523POPC   NC333995  35.738  44.144   9.374
 2523POPC   PO433996  35.077  43.877   9.507
 2523POPC   GL133997  35.276  43.968   9.154
 2523POPC   GL233998  35.474  43.676   9.167
 2523POPC   C1A33999  35.141  43.874   8.745
 2523POPC   D2A34000  35.354  43.989   8.362
 2523POPC   C3A34001  35.103  43.975   8.014
 2523POPC   C4A34002  35.042  44.085   7.603
 2523POPC   C1B34003  35.627  43.755   8.777
 2523POPC   C2B34004  35.588  43.538   8.380
 2523POPC   C3B34005  35.629  43.736   7.990
 2523POPC   C4B34006  35.494  43.863   7.592
 2524POPC   NC334007  11.919  23.918   9.499
 2524POPC   PO434008  11.481  23.469   9.256
 2524POPC   GL134009  11.766  23.723   9.020
 2524POPC   GL234010  12.122  23.737   9.069
 2524POPC   C1A34011  11.886  23.752   8.606
 2524POPC   D2A34012  12.238  23.938   8.429
 2524POPC   C3A34013  12.067  23.878   8.033
 2524POPC   C4A34014  11.884  23.471   7.908
 2524POPC   C1B34015  12.262  23.436   8.779
 2524POPC   C2B34016  12.239  23.442   8.336
 2524POPC   C3B34017  12.548  23.704   8.070
 2524POPC   C4B34018  12.496  23.626   7.641
 2525POPC   NC334019  36.259  42.662   9.617
 2525POPC   PO434020  35.930  42.129   9.381
 2525POPC   GL134021  36.126  42.369   9.079
 2525POPC   GL234022  36.409  42.544   9.116
 2525POPC   C1A34023  36.030  42.247   8.692
 2525POPC   D2A34024  35.809  42.134   8.335
 2525POPC   C3A34025  35.966  42.351   7.998
 2525POPC   C4A34026  36.223  42.210   7.748
 2525POPC   C1B34027  36.429  42.615   8.707
 2525POPC   C2B34028  36.314  42.452   8.334
 2525POPC   C3B34029  36.396  42.697   8.015
 2525POPC   C4B34030  36.354  42.757   7.638
 2526POPC   NC334031  25.633  28.555   9.524
 2526POPC   PO434032  26.268  28.254   9.414
 2526POPC   GL134033  26.125  28.317   9.060
 2526POPC   GL234034  25.777  28.325   9.097
 2526POPC   C1A34035  26.076  28.543   8.707
 2526POPC   D2A34036  25.909  28.390   8.353
 2526POPC   C3A34037  26.144  28.449   8.026
 2526POPC   C4A34038  26.158  28.681   7.685
 2526POPC   C1B34039  25.797  28.048   8.763
 2526POPC   C2B34040  25.720  27.897   8.371
 2526POPC   C3B34041  25.704  28.111   7.972
 2526POPC   C4B34042  25.614  28.088   7.542
 2527POPC   NC334043  40.543   5.510   9.461
 2527POPC   PO434044  40.897   4.891   9.471
 2527POPC   GL134045  40.871   5.233   9.163
 2527POPC   GL234046  41.169   5.249   8.993
 2527POPC   C1A34047  40.682   5.260   8.741
 2527POPC   D2A34048  40.676   5.037   8.328
 2527POPC   C3A34049  40.638   5.304   7.967
 2527POPC   C4A34050  40.361   5.441   7.648
 2527POPC   C1B34051  41.131   4.795   8.867
 2527POPC   C2B34052  41.009   4.633   8.462
 2527POPC   C3B34053  41.138   4.911   8.136
 2527POPC   C4B34054  40.980   5.009   7.725
 2528POPC   NC334055  33.821   4.670   9.653
 2528POPC   PO434056  34.232   4.200   9.516
 2528POPC   GL134057  33.894   4.242   9.223
 2528POPC   GL234058  33.674   3.948   9.257
 2528POPC   C1A34059  33.879   4.379   8.792
 2528POPC   D2A34060  33.932   4.248   8.394
 2528POPC   C3A34061  34.102   4.529   8.093
 2528POPC   C4A34062  33.940   4.375   7.720
 2528POPC   C1B34063  33.508   4.023   8.851
 2528POPC   C2B34064  33.544   3.909   8.416
 2528POPC   C3B34065  33.582   4.145   8.028
 2528POPC   C4B34066  33.314   4.154   7.673
 2529POPC   NC334067  39.186  12.285  10.032
 2529POPC   PO434068  39.161  12.853   9.634
 2529POPC   GL134069  39.177  12.765   9.221
 2529POPC   GL234070  39.254  12.394   9.157
 2529POPC   C1A34071  39.163  13.039   8.858
 2529POPC   D2A34072  38.964  13.085   8.473
 2529POPC   C3A34073  39.187  13.081   8.065
 2529POPC   C4A34074  38.955  13.089   7.666
 2529POPC   C1B34075  39.362  12.564   8.781
 2529POPC   C2B34076  39.385  12.772   8.426
 2529POPC   C3B34077  39.562  12.643   8.061
 2529POPC   C4B34078  39.714  12.975   7.839
 2530POPC   NC334079  43.526   2.833   9.327
 2530POPC   PO434080  44.073   2.477   9.471
 2530POPC   GL134081  44.030   2.844   9.185
 2530POPC   GL234082  43.886   2.615   8.978
 2530POPC   C1A34083  43.898   3.082   8.825
 2530POPC   D2A34084  43.733   2.827   8.498
 2530POPC   C3A34085  43.682   3.025   8.114
 2530POPC   C4A34086  43.541   2.993   7.686
 2530POPC   C1B34087  44.134   2.271   8.784
 2530POPC   C2B34088  44.328   2.270   8.355
 2530POPC   C3B34089  44.127   2.375   7.973
 2530POPC   C4B34090  43.965   2.728   7.806
 2531POPC   NC334091  11.617  36.631   9.470
 2531POPC   PO434092  11.365  35.941   9.551
 2531POPC   GL134093  11.330  36.015   9.151
 2531POPC   GL234094  11.304  36.338   9.207
 2531POPC   C1A34095  11.518  35.943   8.772
 2531POPC   D2A34096  11.612  35.919   8.341
 2531POPC   C3A34097  11.250  35.844   8.079
 2531POPC   C4A34098  11.090  35.978   7.703
 2531POPC   C1B34099  11.462  36.456   8.797
 2531POPC   C2B34100  11.562  36.510   8.363
 2531POPC   C3B34101  11.349  36.390   7.992
 2531POPC   C4B34102  11.365  36.594   7.600
 2532POPC   NC334103   8.656   3.050   9.812
 2532POPC   PO434104   9.200   2.860   9.467
 2532POPC   GL134105   8.854   2.817   9.201
 2532POPC   GL234106   9.032   2.559   9.025
 2532POPC   C1A34107   8.766   2.886   8.754
 2532POPC   D2A34108   9.011   2.814   8.395
 2532POPC   C3A34109   8.908   2.860   7.948
 2532POPC   C4A34110   9.132   2.828   7.522
 2532POPC   C1B34111   8.606   2.427   8.921
 2532POPC   C2B34112   8.639   2.363   8.482
 2532POPC   C3B34113   8.991   2.374   8.160
 2532POPC   C4B34114   8.944   2.395   7.713
 2533POPC   NC334115  18.988  41.305   9.522
 2533POPC   PO434116  19.507  41.654   9.555
 2533POPC   GL134117  19.273  41.673   9.194
 2533POPC   GL234118  19.373  41.359   9.108
 2533POPC   C1A34119  18.972  41.562   8.829
 2533POPC   D2A34120  19.021  41.381   8.380
 2533POPC   C3A34121  18.826  41.580   7.985
 2533POPC   C4A34122  18.758  41.564   7.495
 2533POPC   C1B34123  19.462  41.451   8.670
 2533POPC   C2B34124  19.472  41.677   8.267
 2533POPC   C3B34125  19.307  41.595   7.831
 2533POPC   C4B34126  19.272  41.591   7.368
 2534POPC   NC334127  21.772  30.441   9.492
 2534POPC   PO434128  22.437  30.608   9.588
 2534POPC   GL134129  22.235  30.525   9.228
 2534POPC   GL234130  22.044  30.777   9.114
 2534POPC   C1A34131  22.230  30.414   8.801
 2534POPC   D2A34132  21.918  30.448   8.483
 2534POPC   C3A34133  22.172  30.432   8.098
 2534POPC   C4A34134  22.228  30.579   7.705
 2534POPC   C1B34135  22.259  30.991   8.810
 2534POPC   C2B34136  22.269  30.817   8.422
 2534POPC   C3B34137  22.168  30.962   8.031
 2534POPC   C4B34138  22.292  31.099   7.595
 2535POPC   NC334139  22.876  13.467   9.630
 2535POPC   PO434140  22.596  13.686   9.096
 2535POPC   GL134141  22.881  13.461   8.934
 2535POPC   GL234142  23.109  13.370   9.164
 2535POPC   C1A34143  23.062  13.696   8.634
 2535POPC   D2A34144  22.953  13.799   8.239
 2535POPC   C3A34145  22.709  13.553   8.000
 2535POPC   C4A34146  22.752  13.669   7.563
 2535POPC   C1B34147  23.392  13.338   8.793
 2535POPC   C2B34148  23.235  13.332   8.337
 2535POPC   C3B34149  23.197  13.434   7.917
 2535POPC   C4B34150  23.304  13.517   7.510
 2536POPC   NC334151  35.997   1.774   9.360
 2536POPC   PO434152  36.403   2.271   9.543
 2536POPC   GL134153  36.245   2.162   9.123
 2536POPC   GL234154  35.907   2.174   9.044
 2536POPC   C1A34155  36.218   1.837   8.766
 2536POPC   D2A34156  35.998   1.776   8.384
 2536POPC   C3A34157  36.161   1.815   7.976
 2536POPC   C4A34158  35.904   1.774   7.623
 2536POPC   C1B34159  35.995   2.279   8.669
 2536POPC   C2B34160  36.134   2.286   8.305
 2536POPC   C3B34161  35.874   2.262   7.985
 2536POPC   C4B34162  36.114   2.289   7.653
 2537POPC   NC334163  11.873  30.455   9.594
 2537POPC   PO434164  12.391  30.925   9.513
 2537POPC   GL134165  12.147  30.757   9.183
 2537POPC   GL234166  11.795  30.708   9.147
 2537POPC   C1A34167  12.153  30.688   8.745
 2537POPC   D2A34168  12.166  30.910   8.363
 2537POPC   C3A34169  12.210  30.655   7.991
 2537POPC   C4A34170  12.558  30.403   7.839
 2537POPC   C1B34171  11.638  30.749   8.720
 2537POPC   C2B34172  11.714  30.723   8.252
 2537POPC   C3B34173  11.817  30.984   7.869
 2537POPC   C4B34174  11.669  30.988   7.382
 2538POPC   NC334175  40.141  21.606   9.417
 2538POPC   PO434176  39.785  21.014   9.441
 2538POPC   GL134177  39.889  21.179   9.050
 2538POPC   GL234178  40.250  21.317   9.017
 2538POPC   C1A34179  39.797  21.094   8.605
 2538POPC   D2A34180  39.596  21.048   8.218
 2538POPC   C3A34181  39.693  21.370   7.930
 2538POPC   C4A34182  40.076  21.515   7.758
 2538POPC   C1B34183  39.975  21.562   8.741
 2538POPC   C2B34184  40.006  21.501   8.319
 2538POPC   C3B34185  40.082  21.860   8.110
 2538POPC   C4B34186  39.768  21.952   7.829
 2539POPC   NC334187  14.026  25.149   9.326
 2539POPC   PO434188  13.387  25.408   9.460
 2539POPC   GL134189  13.454  25.150   9.030
 2539POPC   GL234190  13.710  25.356   8.954
 2539POPC   C1A34191  13.501  25.088   8.574
 2539POPC   D2A34192  13.800  25.411   8.429
 2539POPC   C3A34193  13.707  25.646   8.072
 2539POPC   C4A34194  13.706  25.475   7.700
 2539POPC   C1B34195  13.968  25.018   8.734
 2539POPC   C2B34196  13.951  24.903   8.354
 2539POPC   C3B34197  13.669  25.036   8.042
 2539POPC   C4B34198  13.893  25.005   7.670
 2540POPC   NC334199   2.596  22.473   9.564
 2540POPC   PO434200   3.032  22.213   9.273
 2540POPC   GL134201   2.798  22.220   8.957
 2540POPC   GL234202   2.528  22.398   9.032
 2540POPC   C1A34203   2.757  21.981   8.607
 2540POPC   D2A34204   3.048  21.908   8.279
 2540POPC   C3A34205   2.931  21.987   7.861
 2540POPC   C4A34206   2.808  22.096   7.473
 2540POPC   C1B34207   2.477  22.410   8.577
 2540POPC   C2B34208   2.569  22.198   8.169
 2540POPC   C3B34209   2.419  22.288   7.727
 2540POPC   C4B34210   2.499  22.446   7.286
 2541POPC   NC334211  12.411  10.157   9.535
 2541POPC   PO434212  12.127  10.777   9.411
 2541POPC   GL134213  12.066  10.418   9.185
 2541POPC   GL234214  11.727  10.324   9.131
 2541POPC   C1A34215  12.036  10.264   8.758
 2541POPC   D2A34216  11.802  10.393   8.436
 2541POPC   C3A34217  12.003  10.504   8.079
 2541POPC   C4A34218  11.758  10.247   7.815
 2541POPC   C1B34219  11.779  10.704   8.838
 2541POPC   C2B34220  11.819  10.909   8.413
 2541POPC   C3B34221  11.622  10.826   8.014
 2541POPC   C4B34222  11.882  10.740   7.635
 2542POPC   NC334223  25.190   3.728   9.551
 2542POPC   PO434224  25.013   3.108   9.182
 2542POPC   GL134225  25.288   3.357   9.099
 2542POPC   GL234226  25.595   3.135   9.089
 2542POPC   C1A34227  25.139   3.578   8.730
 2542POPC   D2A34228  24.967   3.688   8.333
 2542POPC   C3A34229  25.019   3.421   7.953
 2542POPC   C4A34230  25.243   3.369   7.537
 2542POPC   C1B34231  25.592   3.343   8.686
 2542POPC   C2B34232  25.389   3.340   8.311
 2542POPC   C3B34233  25.550   3.452   7.920
 2542POPC   C4B34234  25.823   3.459   7.548
 2543POPC   NC334235  36.002  30.243   9.367
 2543POPC   PO434236  36.263  29.624   9.553
 2543POPC   GL134237  36.168  29.782   9.183
 2543POPC   GL234238  36.492  29.948   9.136
 2543POPC   C1A34239  35.812  29.854   8.907
 2543POPC   D2A34240  35.833  29.975   8.487
 2543POPC   C3A34241  35.967  29.767   8.109
 2543POPC   C4A34242  35.875  29.811   7.713
 2543POPC   C1B34243  36.294  30.013   8.739
 2543POPC   C2B34244  36.365  29.742   8.411
 2543POPC   C3B34245  36.486  29.561   8.033
 2543POPC   C4B34246  36.432  29.774   7.660
 2544POPC   NC334247   8.096  17.746   9.547
 2544POPC   PO434248   8.223  17.240   9.247
 2544POPC   GL134249   8.127  17.585   9.008
 2544POPC   GL234250   8.056  17.940   9.058
 2544POPC   C1A34251   8.228  17.608   8.605
 2544POPC   D2A34252   8.470  17.570   8.274
 2544POPC   C3A34253   8.231  17.508   7.943
 2544POPC   C4A34254   8.433  17.496   7.553
 2544POPC   C1B34255   7.790  17.825   8.689
 2544POPC   C2B34256   7.786  17.691   8.267
 2544POPC   C3B34257   7.887  17.919   7.900
 2544POPC   C4B34258   8.125  17.896   7.539
 2545POPC   NC334259  33.006  33.406   9.843
 2545POPC   PO434260  32.722  33.959   9.570
 2545POPC   GL134261  33.071  33.957   9.225
 2545POPC   GL234262  33.315  34.226   9.110
 2545POPC   C1A34263  32.993  33.804   8.815
 2545POPC   D2A34264  32.638  33.764   8.518
 2545POPC   C3A34265  32.769  33.602   8.144
 2545POPC   C4A34266  32.685  33.556   7.747
 2545POPC   C1B34267  33.395  34.120   8.652
 2545POPC   C2B34268  33.196  33.810   8.340
 2545POPC   C3B34269  33.109  33.859   7.868
 2545POPC   C4B34270  33.238  33.964   7.419
 2546POPC   NC334271   2.567  41.745   9.401
 2546POPC   PO434272   3.211  41.340   9.545
 2546POPC   GL134273   2.930  41.414   9.208
 2546POPC   GL234274   3.125  41.145   9.073
 2546POPC   C1A34275   2.789  41.630   8.808
 2546POPC   D2A34276   2.989  41.681   8.396
 2546POPC   C3A34277   2.838  41.921   8.071
 2546POPC   C4A34278   2.665  41.663   7.774
 2546POPC   C1B34279   3.185  41.329   8.720
 2546POPC   C2B34280   3.117  41.172   8.338
 2546POPC   C3B34281   3.095  41.368   7.934
 2546POPC   C4B34282   3.026  41.469   7.485
 2547POPC   NC334283   1.771  25.440   9.522
 2547POPC   PO434284   2.058  24.858   9.455
 2547POPC   GL134285   1.747  24.986   9.175
 2547POPC   GL234286   1.982  25.259   9.092
 2547POPC   C1A34287   1.630  25.047   8.733
 2547POPC   D2A34288   1.878  25.199   8.373
 2547POPC   C3A34289   1.867  25.068   7.931
 2547POPC   C4A34290   1.811  24.969   7.490
 2547POPC   C1B34291   1.812  25.515   8.782
 2547POPC   C2B34292   1.750  25.739   8.437
 2547POPC   C3B34293   1.869  25.593   8.033
 2547POPC   C4B34294   2.257  25.656   7.773
 2548POPC   NC334295  35.816   5.750   9.472
 2548POPC   PO434296  35.358   6.249   9.670
 2548POPC   GL134297  35.277   5.896   9.294
 2548POPC   GL234298  35.394   5.534   9.264
 2548POPC   C1A34299  35.139   5.814   8.835
 2548POPC   D2A34300  34.960   5.874   8.389
 2548POPC   C3A34301  35.201   6.079   8.062
 2548POPC   C4A34302  35.330   5.928   7.669
 2548POPC   C1B34303  35.433   5.384   8.852
 2548POPC   C2B34304  35.338   5.511   8.443
 2548POPC   C3B34305  35.206   5.538   8.026
 2548POPC   C4B34306  35.391   5.411   7.653
 2549POPC   NC334307  19.990  28.670   9.584
 2549POPC   PO434308  19.595  28.120   9.572
 2549POPC   GL134309  19.826  28.329   9.242
 2549POPC   GL234310  20.176  28.243   9.261
 2549POPC   C1A34311  19.943  28.415   8.814
 2549POPC   D2A34312  19.846  28.283   8.390
 2549POPC   C3A34313  19.667  28.474   8.000
 2549POPC   C4A34314  19.335  28.339   7.675
 2549POPC   C1B34315  20.239  27.983   8.867
 2549POPC   C2B34316  20.140  27.843   8.427
 2549POPC   C3B34317  20.106  28.054   8.015
 2549POPC   C4B34318  19.950  28.275   7.618
 2550POPC   NC334319   7.568  44.407   9.779
 2550POPC   PO434320   6.972  44.673   9.582
 2550POPC   GL134321   7.200  44.671   9.221
 2550POPC   GL234322   7.452  44.419   9.284
 2550POPC   C1A34323   7.088  44.739   8.785
 2550POPC   D2A34324   7.356  44.681   8.437
 2550POPC   C3A34325   7.383  44.862   8.048
 2550POPC   C4A34326   7.147  44.814   7.699
 2550POPC   C1B34327   7.468  44.375   8.848
 2550POPC   C2B34328   7.716  44.275   8.492
 2550POPC   C3B34329   7.647  44.413   8.074
 2550POPC   C4B34330   7.674  44.579   7.634
 2551POPC   NC334331  24.912  27.073   9.415
 2551POPC   PO434332  24.273  26.917   9.505
 2551POPC   GL134333  24.520  26.894   9.122
 2551POPC   GL234334  24.771  26.641   9.117
 2551POPC   C1A34335  24.576  27.037   8.723
 2551POPC   D2A34336  24.330  27.203   8.407
 2551POPC   C3A34337  24.615  27.138   8.086
 2551POPC   C4A34338  24.552  26.911   7.748
 2551POPC   C1B34339  24.609  26.506   8.702
 2551POPC   C2B34340  24.613  26.649   8.263
 2551POPC   C3B34341  24.785  26.493   7.849
 2551POPC   C4B34342  24.841  26.649   7.394
 2552POPC   NC334343  28.311   0.979   9.647
 2552POPC   PO434344  28.140   0.262   9.602
 2552POPC   GL134345  28.348   0.395   9.192
 2552POPC   GL234346  28.583   0.663   9.158
 2552POPC   C1A34347  28.309   0.576   8.761
 2552POPC   D2A34348  28.207   0.745   8.366
 2552POPC   C3A34349  28.304   0.512   8.018
 2552POPC   C4A34350  28.043   0.428   7.623
 2552POPC   C1B34351  28.828   0.656   8.736
 2552POPC   C2B34352  28.935   0.422   8.338
 2552POPC   C3B34353  28.815   0.511   7.906
 2552POPC   C4B34354  28.532   0.534   7.569
 2553POPC   NC334355  24.395  44.099   9.497
 2553POPC   PO434356  24.726  43.650   9.441
 2553POPC   GL134357  24.419  43.712   9.137
 2553POPC   GL234358  24.523  44.049   9.006
 2553POPC   C1A34359  24.523  43.592   8.725
 2553POPC   D2A34360  24.652  43.848   8.371
 2553POPC   C3A34361  24.538  43.726   7.960
 2553POPC   C4A34362  24.835  43.942   7.685
 2553POPC   C1B34363  24.244  44.023   8.648
 2553POPC   C2B34364  24.236  44.147   8.214
 2553POPC   C3B34365  24.348  44.159   7.778
 2553POPC   C4B34366  24.267  43.786   7.521
 2554POPC   NC334367  38.196   6.555   9.604
 2554POPC   PO434368  38.815   6.406   9.287
 2554POPC   GL134369  38.396   6.483   9.041
 2554POPC   GL234370  38.065   6.649   9.108
 2554POPC   C1A34371  38.219   6.342   8.644
 2554POPC   D2A34372  38.208   6.159   8.224
 2554POPC   C3A34373  38.550   6.265   7.943
 2554POPC   C4A34374  38.531   6.511   7.572
 2554POPC   C1B34375  37.964   6.792   8.672
 2554POPC   C2B34376  38.249   6.744   8.285
 2554POPC   C3B34377  38.303   6.883   7.842
 2554POPC   C4B34378  38.153   6.819   7.380
 2555POPC   NC334379   2.077   3.866   9.579
 2555POPC   PO434380   1.769   3.288   9.674
 2555POPC   GL134381   1.847   3.500   9.247
 2555POPC   GL234382   1.790   3.850   9.177
 2555POPC   C1A34383   2.075   3.555   8.836
 2555POPC   D2A34384   2.058   3.294   8.430
 2555POPC   C3A34385   1.897   3.505   8.059
 2555POPC   C4A34386   2.162   3.791   7.827
 2555POPC   C1B34387   1.641   3.846   8.759
 2555POPC   C2B34388   1.633   4.093   8.409
 2555POPC   C3B34389   1.556   3.896   8.005
 2555POPC   C4B34390   1.690   3.761   7.594
 2556POPC   NC334391  39.548  29.212   9.464
 2556POPC   PO434392  40.201  29.181   9.577
 2556POPC   GL134393  40.007  29.257   9.195
 2556POPC   GL234394  40.338  29.280   9.075
 2556POPC   C1A34395  39.778  29.415   8.837
 2556POPC   D2A34396  39.902  29.469   8.404
 2556POPC   C3A34397  39.827  29.195   8.076
 2556POPC   C4A34398  39.649  29.430   7.741
 2556POPC   C1B34399  40.217  29.181   8.677
 2556POPC   C2B34400  40.353  29.231   8.268
 2556POPC   C3B34401  40.298  28.940   7.968
 2556POPC   C4B34402  39.962  28.792   7.744
 2557POPC   NC334403  38.693  30.913   9.477
 2557POPC   PO434404  38.133  30.543   9.532
 2557POPC   GL134405  38.351  30.589   9.188
 2557POPC   GL234406  38.611  30.377   9.082
 2557POPC   C1A34407  38.211  30.491   8.791
 2557POPC   D2A34408  38.463  30.324   8.498
 2557POPC   C3A34409  38.378  30.565   8.165
 2557POPC   C4A34410  38.366  30.665   7.750
 2557POPC   C1B34411  38.697  30.683   8.790
 2557POPC   C2B34412  38.803  30.790   8.368
 2557POPC   C3B34413  38.833  30.580   7.959
 2557POPC   C4B34414  38.817  30.601   7.506
 2558POPC   NC334415  23.085  37.212   9.740
 2558POPC   PO434416  22.824  36.616   9.597
 2558POPC   GL134417  22.802  36.868   9.212
 2558POPC   GL234418  22.997  36.719   8.974
 2558POPC   C1A34419  22.584  36.986   8.800
 2558POPC   D2A34420  22.722  37.155   8.395
 2558POPC   C3A34421  22.570  37.111   7.980
 2558POPC   C4A34422  22.765  37.133   7.597
 2558POPC   C1B34423  23.107  37.139   8.777
 2558POPC   C2B34424  23.237  37.278   8.349
 2558POPC   C3B34425  23.077  37.039   8.017
 2558POPC   C4B34426  23.070  36.723   7.719
 2559POPC   NC334427  14.213  20.180   9.427
 2559POPC   PO434428  14.692  20.702   9.465
 2559POPC   GL134429  14.514  20.793   9.078
 2559POPC   GL234430  14.203  20.636   9.157
 2559POPC   C1A34431  14.395  20.602   8.678
 2559POPC   D2A34432  14.390  20.418   8.279
 2559POPC   C3A34433  14.467  20.804   8.051
 2559POPC   C4A34434  14.308  20.933   7.673
 2559POPC   C1B34435  13.919  20.491   8.815
 2559POPC   C2B34436  13.924  20.631   8.387
 2559POPC   C3B34437  14.017  20.611   7.961
 2559POPC   C4B34438  14.278  20.351   7.773
 2560POPC   NC334439  38.642  18.865   9.492
 2560POPC   PO434440  38.229  19.418   9.425
 2560POPC   GL134441  38.471  19.224   9.148
 2560POPC   GL234442  38.271  18.902   9.152
 2560POPC   C1A34443  38.625  19.284   8.728
 2560POPC   D2A34444  38.385  19.193   8.365
 2560POPC   C3A34445  38.554  19.121   8.003
 2560POPC   C4A34446  38.848  18.856   8.003
 2560POPC   C1B34447  38.128  19.057   8.778
 2560POPC   C2B34448  37.926  18.902   8.432
 2560POPC   C3B34449  38.057  18.959   8.043
 2560POPC   C4B34450  38.168  19.110   7.662
 2561POPC   NC334451  10.307   5.496   9.519
 2561POPC   PO434452  10.453   6.159   9.581
 2561POPC   GL134453  10.499   5.864   9.240
 2561POPC   GL234454  10.238   5.701   9.054
 2561POPC   C1A34455  10.723   5.865   8.885
 2561POPC   D2A34456  10.822   5.842   8.502
 2561POPC   C3A34457  10.555   5.811   8.142
 2561POPC   C4A34458  10.558   5.590   7.785
 2561POPC   C1B34459  10.269   6.003   8.717
 2561POPC   C2B34460  10.077   6.058   8.323
 2561POPC   C3B34461  10.215   6.171   7.944
 2561POPC   C4B34462  10.463   6.093   7.602
 2562POPC   NC334463  35.344   1.625   9.616
 2562POPC   PO434464  34.886   1.116   9.485
 2562POPC   GL134465  35.278   1.254   9.272
 2562POPC   GL234466  35.093   1.535   9.161
 2562POPC   C1A34467  35.476   1.397   8.858
 2562POPC   D2A34468  35.296   1.613   8.469
 2562POPC   C3A34469  35.298   1.399   8.061
 2562POPC   C4A34470  35.395   1.236   7.630
 2562POPC   C1B34471  35.029   1.185   8.844
 2562POPC   C2B34472  35.052   1.153   8.440
 2562POPC   C3B34473  34.782   1.119   8.111
 2562POPC   C4B34474  34.932   0.897   7.794
 2563POPC   NC334475  17.783  26.056   9.268
 2563POPC   PO434476  17.769  25.575   9.757
 2563POPC   GL134477  17.397  25.691   9.312
 2563POPC   GL234478  17.219  26.011   9.176
 2563POPC   C1A34479  17.389  25.672   8.808
 2563POPC   D2A34480  17.085  25.845   8.488
 2563POPC   C3A34481  17.190  25.863   8.053
 2563POPC   C4A34482  17.515  25.670   7.889
 2563POPC   C1B34483  17.379  26.186   8.769
 2563POPC   C2B34484  17.586  25.975   8.414
 2563POPC   C3B34485  17.726  26.118   8.019
 2563POPC   C4B34486  17.385  26.310   7.846
 2564POPC   NC334487   1.800  37.356   9.391
 2564POPC   PO434488   1.889  38.019   9.585
 2564POPC   GL134489   1.914  37.824   9.183
 2564POPC   GL234490   2.102  38.084   9.104
 2564POPC   C1A34491   1.949  37.724   8.717
 2564POPC   D2A34492   2.248  37.547   8.377
 2564POPC   C3A34493   2.111  37.483   7.944
 2564POPC   C4A34494   2.127  37.638   7.522
 2564POPC   C1B34495   1.783  38.221   8.828
 2564POPC   C2B34496   1.656  38.071   8.437
 2564POPC   C3B34497   1.803  37.803   8.195
 2564POPC   C4B34498   2.009  38.009   7.872
 2565POPC   NC334499  34.573  10.681   9.626
 2565POPC   PO434500  34.081  10.341   9.415
 2565POPC   GL134501  34.390  10.482   9.133
 2565POPC   GL234502  34.540  10.816   9.141
 2565POPC   C1A34503  34.443  10.505   8.701
 2565POPC   D2A34504  34.435  10.513   8.252
 2565POPC   C3A34505  34.495  10.272   7.888
 2565POPC   C4A34506  34.351  10.361   7.417
 2565POPC   C1B34507  34.859  10.780   8.843
 2565POPC   C2B34508  34.919  10.560   8.438
 2565POPC   C3B34509  34.831  10.700   8.004
 2565POPC   C4B34510  34.501  10.759   7.714
 2566POPC   NC334511  22.289  28.649   9.384
 2566POPC   PO434512  21.919  28.162   9.505
 2566POPC   GL134513  22.050  28.310   9.098
 2566POPC   GL234514  22.216  28.016   9.067
 2566POPC   C1A34515  22.180  28.667   8.765
 2566POPC   D2A34516  22.222  28.914   8.401
 2566POPC   C3A34517  22.245  28.625   8.103
 2566POPC   C4A34518  22.153  28.525   7.718
 2566POPC   C1B34519  22.480  28.233   8.816
 2566POPC   C2B34520  22.352  28.244   8.425
 2566POPC   C3B34521  22.539  28.189   8.051
 2566POPC   C4B34522  22.362  28.067   7.674
 2567POPC   NC334523   2.476   0.490   9.412
 2567POPC   PO434524   1.880   0.308   9.531
 2567POPC   GL134525   2.039   0.313   9.160
 2567POPC   GL234526   2.315   0.050   9.121
 2567POPC   C1A34527   1.960   0.614   8.860
 2567POPC   D2A34528   2.220   0.566   8.557
 2567POPC   C3A34529   2.099   0.578   8.137
 2567POPC   C4A34530   1.879   0.648   7.799
 2567POPC   C1B34531   2.115   0.068   8.698
 2567POPC   C2B34532   2.041  44.989   8.244
 2567POPC   C3B34533   2.145   0.182   7.827
 2567POPC   C4B34534   2.091   0.152   7.346
 2568POPC   NC334535  25.457   0.361   9.655
 2568POPC   PO434536  24.865   0.098   9.571
 2568POPC   GL134537  25.093   0.376   9.267
 2568POPC   GL234538  25.301   0.141   9.096
 2568POPC   C1A34539  25.177   0.624   8.872
 2568POPC   D2A34540  25.023   0.523   8.419
 2568POPC   C3A34541  25.279   0.534   8.035
 2568POPC   C4A34542  25.689   0.750   7.960
 2568POPC   C1B34543  25.367   0.209   8.674
 2568POPC   C2B34544  25.625   0.361   8.371
 2568POPC   C3B34545  25.632   0.186   7.961
 2568POPC   C4B34546  25.301   0.013   7.701
 2569POPC   NC334547  37.887  10.527   9.636
 2569POPC   PO434548  38.601  10.629   9.612
 2569POPC   GL134549  38.345  10.586   9.272
 2569POPC   GL234550  38.523  10.347   9.092
 2569POPC   C1A34551  38.280  10.752   8.860
 2569POPC   D2A34552  38.058  10.652   8.466
 2569POPC   C3A34553  38.184  10.760   8.055
 2569POPC   C4A34554  38.117  10.558   7.691
 2569POPC   C1B34555  38.487  10.325   8.681
 2569POPC   C2B34556  38.532  10.482   8.315
 2569POPC   C3B34557  38.493  10.282   7.947
 2569POPC   C4B34558  38.631  10.607   7.743
 2570POPC   NC334559  39.144  31.731   9.561
 2570POPC   PO434560  38.879  31.201   9.174
 2570POPC   GL134561  39.244  31.321   8.992
 2570POPC   GL234562  39.191  31.668   9.018
 2570POPC   C1A34563  39.345  31.213   8.630
 2570POPC   D2A34564  39.002  31.351   8.367
 2570POPC   C3A34565  38.943  31.132   8.018
 2570POPC   C4A34566  38.895  31.241   7.628
 2570POPC   C1B34567  39.535  31.681   8.706
 2570POPC   C2B34568  39.474  31.535   8.271
 2570POPC   C3B34569  39.279  31.534   7.904
 2570POPC   C4B34570  39.611  31.365   7.711
 2571POPC   NC334571   6.243  31.884   9.393
 2571POPC   PO434572   6.779  31.489   9.404
 2571POPC   GL134573   6.610  31.654   9.083
 2571POPC   GL234574   6.347  31.416   9.119
 2571POPC   C1A34575   6.605  31.573   8.659
 2571POPC   D2A34576   6.462  31.395   8.321
 2571POPC   C3A34577   6.346  31.685   8.066
 2571POPC   C4A34578   6.626  31.671   7.806
 2571POPC   C1B34579   6.659  31.138   8.884
 2571POPC   C2B34580   6.803  31.075   8.520
 2571POPC   C3B34581   6.888  31.056   8.134
 2571POPC   C4B34582   6.607  31.167   7.857
 2572POPC   NC334583  25.960  34.773   9.309
 2572POPC   PO434584  25.621  34.312   9.503
 2572POPC   GL134585  25.740  34.389   9.057
 2572POPC   GL234586  26.095  34.363   9.023
 2572POPC   C1A34587  25.828  34.672   8.663
 2572POPC   D2A34588  25.930  34.525   8.223
 2572POPC   C3A34589  25.779  34.637   7.811
 2572POPC   C4A34590  25.790  34.616   7.333
 2572POPC   C1B34591  26.285  34.425   8.609
 2572POPC   C2B34592  26.442  34.420   8.196
 2572POPC   C3B34593  26.362  34.678   7.841
 2572POPC   C4B34594  26.549  34.612   7.447
 2573POPC   NC334595   3.984  30.180   9.244
 2573POPC   PO434596   4.329  29.681   9.635
 2573POPC   GL134597   4.260  29.717   9.215
 2573POPC   GL234598   4.472  29.437   9.170
 2573POPC   C1A34599   4.335  29.738   8.770
 2573POPC   D2A34600   4.135  29.552   8.420
 2573POPC   C3A34601   3.998  29.875   8.126
 2573POPC   C4A34602   4.224  30.014   7.746
 2573POPC   C1B34603   4.783  29.474   8.807
 2573POPC   C2B34604   4.770  29.663   8.402
 2573POPC   C3B34605   4.502  29.602   8.063
 2573POPC   C4B34606   4.553  29.648   7.643
 2574POPC   NC334607  28.534  25.682   9.588
 2574POPC   PO434608  28.722  25.039   9.440
 2574POPC   GL134609  28.478  25.359   9.210
 2574POPC   GL234610  28.769  25.604   9.149
 2574POPC   C1A34611  28.182  25.465   8.867
 2574POPC   D2A34612  28.240  25.243   8.498
 2574POPC   C3A34613  28.132  25.331   8.080
 2574POPC   C4A34614  28.169  24.997   7.821
 2574POPC   C1B34615  28.718  25.346   8.768
 2574POPC   C2B34616  28.692  25.444   8.358
 2574POPC   C3B34617  28.636  25.244   7.977
 2574POPC   C4B34618  28.822  25.488   7.658
 2575POPC   NC334619  13.790  39.441   9.590
 2575POPC   PO434620  13.407  38.885   9.494
 2575POPC   GL134621  13.563  39.067   9.133
 2575POPC   GL234622  13.902  39.168   9.188
 2575POPC   C1A34623  13.473  39.226   8.726
 2575POPC   D2A34624  13.369  39.428   8.343
 2575POPC   C3A34625  13.602  39.326   7.974
 2575POPC   C4A34626  13.618  39.176   7.544
 2575POPC   C1B34627  13.808  39.549   8.929
 2575POPC   C2B34628  13.909  39.603   8.470
 2575POPC   C3B34629  14.058  39.540   8.046
 2575POPC   C4B34630  14.013  39.457   7.600
 2576POPC   NC334631   6.543  18.027   9.640
 2576POPC   PO434632   6.986  18.566   9.525
 2576POPC   GL134633   6.774  18.309   9.197
 2576POPC   GL234634   6.604  17.991   9.151
 2576POPC   C1A34635   6.601  18.339   8.773
 2576POPC   D2A34636   6.726  18.531   8.388
 2576POPC   C3A34637   6.639  18.301   7.993
 2576POPC   C4A34638   6.614  18.401   7.549
 2576POPC   C1B34639   6.376  17.863   8.807
 2576POPC   C2B34640   6.306  18.021   8.433
 2576POPC   C3B34641   6.181  18.047   8.051
 2576POPC   C4B34642   6.223  18.085   7.635
 2577POPC   NC334643  42.466  38.262   9.585
 2577POPC   PO434644  42.195  38.903   9.418
 2577POPC   GL134645  42.376  38.609   9.149
 2577POPC   GL234646  42.235  38.299   9.142
 2577POPC   C1A34647  42.288  38.627   8.734
 2577POPC   D2A34648  42.164  38.723   8.336
 2577POPC   C3A34649  42.433  38.717   7.988
 2577POPC   C4A34650  42.254  38.582   7.584
 2577POPC   C1B34651  42.274  38.056   8.797
 2577POPC   C2B34652  42.326  38.221   8.424
 2577POPC   C3B34653  42.387  38.214   8.040
 2577POPC   C4B34654  42.292  37.972   7.733
 2578POPC   NC334655  12.312  28.827   9.432
 2578POPC   PO434656  11.764  29.251   9.621
 2578POPC   GL134657  11.926  29.122   9.219
 2578POPC   GL234658  12.221  29.237   9.068
 2578POPC   C1A34659  11.795  29.329   8.829
 2578POPC   D2A34660  11.776  29.486   8.435
 2578POPC   C3A34661  11.918  29.218   8.113
 2578POPC   C4A34662  11.685  29.301   7.776
 2578POPC   C1B34663  12.103  28.913   8.738
 2578POPC   C2B34664  12.280  28.641   8.399
 2578POPC   C3B34665  12.454  28.789   7.998
 2578POPC   C4B34666  12.338  29.210   7.805
 2579POPC   NC334667  23.373  42.148   9.435
 2579POPC   PO434668  23.805  42.566   9.703
 2579POPC   GL134669  23.753  42.426   9.226
 2579POPC   GL234670  23.422  42.594   9.163
 2579POPC   C1A34671  23.805  42.120   8.814
 2579POPC   D2A34672  23.544  42.058   8.430
 2579POPC   C3A34673  23.664  41.965   7.987
 2579POPC   C4A34674  23.532  42.113   7.559
 2579POPC   C1B34675  23.654  42.593   8.755
 2579POPC   C2B34676  23.743  42.745   8.344
 2579POPC   C3B34677  23.597  42.655   7.954
 2579POPC   C4B34678  23.914  42.411   7.766
 2580POPC   NC334679  20.929   0.123   9.830
 2580POPC   PO434680  20.688  44.575   9.468
 2580POPC   GL134681  20.543  44.565   9.059
 2580POPC   GL234682  20.446  44.884   9.106
 2580POPC   C1A34683  20.628  44.540   8.629
 2580POPC   D2A34684  20.930  44.372   8.344
 2580POPC   C3A34685  20.810  44.470   7.937
 2580POPC   C4A34686  20.424  44.369   7.675
 2580POPC   C1B34687  20.632   0.066   8.766
 2580POPC   C2B34688  20.537   0.181   8.382
 2580POPC   C3B34689  20.773   0.007   8.070
 2580POPC   C4B34690  20.610  44.867   7.690
 2581POPC   NC334691  34.079  16.862   9.735
 2581POPC   PO434692  33.676  16.433   9.419
 2581POPC   GL134693  33.814  16.815   9.240
 2581POPC   GL234694  33.520  16.847   9.037
 2581POPC   C1A34695  33.991  16.983   8.874
 2581POPC   D2A34696  33.786  16.931   8.485
 2581POPC   C3A34697  33.850  17.051   8.065
 2581POPC   C4A34698  33.834  16.917   7.645
 2581POPC   C1B34699  33.787  16.518   8.795
 2581POPC   C2B34700  33.953  16.431   8.381
 2581POPC   C3B34701  33.728  16.521   8.001
 2581POPC   C4B34702  33.425  16.289   7.727
 2582POPC   NC334703  30.029  36.450   9.484
 2582POPC   PO434704  30.270  37.095   9.608
 2582POPC   GL134705  30.161  37.027   9.206
 2582POPC   GL234706  30.376  36.730   9.192
 2582POPC   C1A34707  29.890  37.119   8.826
 2582POPC   D2A34708  29.758  37.059   8.361
 2582POPC   C3A34709  30.113  36.903   8.099
 2582POPC   C4A34710  30.339  37.021   7.713
 2582POPC   C1B34711  30.136  36.665   8.841
 2582POPC   C2B34712  29.822  36.611   8.577
 2582POPC   C3B34713  29.729  36.558   8.163
 2582POPC   C4B34714  30.007  36.455   7.885
 2583POPC   NC334715   3.628  32.443   9.844
 2583POPC   PO434716   3.871  33.050   9.592
 2583POPC   GL134717   3.693  33.005   9.163
 2583POPC   GL234718   3.341  32.944   9.050
 2583POPC   C1A34719   3.682  33.182   8.746
 2583POPC   D2A34720   3.468  33.120   8.345
 2583POPC   C3A34721   3.721  33.361   8.064
 2583POPC   C4A34722   3.753  33.294   7.633
 2583POPC   C1B34723   3.411  32.708   8.669
 2583POPC   C2B34724   3.459  32.612   8.216
 2583POPC   C3B34725   3.508  32.886   7.859
 2583POPC   C4B34726   3.595  32.872   7.406
 2584POPC   NC334727  21.975  40.434   9.440
 2584POPC   PO434728  21.801  41.079   9.423
 2584POPC   GL134729  22.136  40.855   9.159
 2584POPC   GL234730  22.033  41.060   8.920
 2584POPC   C1A34731  22.438  40.739   8.771
 2584POPC   D2A34732  22.671  40.889   8.374
 2584POPC   C3A34733  22.468  40.684   8.023
 2584POPC   C4A34734  22.091  40.905   7.871
 2584POPC   C1B34735  21.947  40.623   8.752
 2584POPC   C2B34736  22.044  40.643   8.337
 2584POPC   C3B34737  21.752  40.551   8.003
 2584POPC   C4B34738  21.941  40.509   7.591
 2585POPC   NC334739  34.931  20.794   9.642
 2585POPC   PO434740  35.426  20.441   9.649
 2585POPC   GL134741  35.222  20.529   9.263
 2585POPC   GL234742  35.447  20.797   9.219
 2585POPC   C1A34743  35.088  20.350   8.856
 2585POPC   D2A34744  35.320  20.300   8.416
 2585POPC   C3A34745  35.148  20.104   8.058
 2585POPC   C4A34746  35.221  20.392   7.717
 2585POPC   C1B34747  35.537  20.612   8.816
 2585POPC   C2B34748  35.679  20.699   8.401
 2585POPC   C3B34749  35.554  20.812   8.013
 2585POPC   C4B34750  35.613  20.713   7.586
 2586POPC   NC334751  29.584  22.531   9.567
 2586POPC   PO434752  29.160  23.045   9.476
 2586POPC   GL134753  29.341  23.088   9.103
 2586POPC   GL234754  29.515  22.790   9.086
 2586POPC   C1A34755  29.103  23.049   8.749
 2586POPC   D2A34756  29.045  22.825   8.394
 2586POPC   C3A34757  28.927  23.059   8.062
 2586POPC   C4A34758  29.021  22.916   7.678
 2586POPC   C1B34759  29.592  22.922   8.618
 2586POPC   C2B34760  29.444  23.148   8.232
 2586POPC   C3B34761  29.485  23.116   7.794
 2586POPC   C4B34762  29.629  22.726   7.615
 2587POPC   NC334763  17.697  44.134   9.472
 2587POPC   PO434764  17.296  43.627   9.565
 2587POPC   GL134765  17.443  43.801   9.164
 2587POPC   GL234766  17.810  43.760   9.116
 2587POPC   C1A34767  17.495  43.913   8.734
 2587POPC   D2A34768  17.318  44.124   8.443
 2587POPC   C3A34769  17.472  43.930   8.096
 2587POPC   C4A34770  17.420  44.074   7.727
 2587POPC   C1B34771  17.913  44.134   8.833
 2587POPC   C2B34772  17.836  44.303   8.407
 2587POPC   C3B34773  17.847  44.218   7.958
 2587POPC   C4B34774  17.908  43.837   7.751
 2588POPC   NC334775  37.080  31.482   9.513
 2588POPC   PO434776  36.393  31.412   9.508
 2588POPC   GL134777  36.759  31.381   9.132
 2588POPC   GL234778  37.152  31.571   9.041
 2588POPC   C1A34779  36.967  31.217   8.763
 2588POPC   D2A34780  37.026  31.449   8.444
 2588POPC   C3A34781  37.074  31.277   8.049
 2588POPC   C4A34782  36.810  31.362   7.695
 2588POPC   C1B34783  37.364  31.789   8.703
 2588POPC   C2B34784  37.342  31.764   8.230
 2588POPC   C3B34785  37.096  31.752   7.859
 2588POPC   C4B34786  37.066  31.777   7.371
 2589POPC   NC334787  12.675  31.277   9.404
 2589POPC   PO434788  13.015  31.776   9.488
 2589POPC   GL134789  12.927  31.571   9.086
 2589POPC   GL234790  12.575  31.637   8.991
 2589POPC   C1A34791  12.864  31.292   8.741
 2589POPC   D2A34792  13.032  31.205   8.327
 2589POPC   C3A34793  12.859  31.304   7.922
 2589POPC   C4A34794  12.964  31.475   7.484
 2589POPC   C1B34795  12.456  31.954   8.685
 2589POPC   C2B34796  12.252  31.941   8.304
 2589POPC   C3B34797  12.491  31.671   8.054
 2589POPC   C4B34798  12.500  31.537   7.651
 2590POPC   NC334799  24.196  27.554   9.656
 2590POPC   PO434800  24.924  27.646   9.604
 2590POPC   GL134801  24.612  27.626   9.251
 2590POPC   GL234802  24.479  27.950   9.291
 2590POPC   C1A34803  24.461  27.566   8.794
 2590POPC   D2A34804  24.702  27.572   8.400
 2590POPC   C3A34805  24.426  27.608   8.059
 2590POPC   C4A34806  24.418  27.397   7.648
 2590POPC   C1B34807  24.752  27.984   8.883
 2590POPC   C2B34808  24.893  28.160   8.482
 2590POPC   C3B34809  24.858  27.947   8.074
 2590POPC   C4B34810  24.632  27.908   7.715
 2591POPC   NC334811  30.213  28.015   9.512
 2591POPC   PO434812  30.239  27.312   9.603
 2591POPC   GL134813  30.137  27.438   9.170
 2591POPC   GL234814  29.851  27.306   9.081
 2591POPC   C1A34815  30.268  27.553   8.735
 2591POPC   D2A34816  30.071  27.817   8.434
 2591POPC   C3A34817  30.227  27.747   8.020
 2591POPC   C4A34818  29.941  27.756   7.667
 2591POPC   C1B34819  29.792  27.685   8.877
 2591POPC   C2B34820  29.608  27.574   8.536
 2591POPC   C3B34821  29.761  27.542   8.111
 2591POPC   C4B34822  29.548  27.392   7.749
 2592POPC   NC334823  41.379   2.870   9.380
 2592POPC   PO434824  42.015   2.968   9.592
 2592POPC   GL134825  41.840   2.858   9.170
 2592POPC   GL234826  41.685   3.168   9.096
 2592POPC   C1A34827  41.552   2.784   8.776
 2592POPC   D2A34828  41.508   2.983   8.388
 2592POPC   C3A34829  41.565   2.663   8.100
 2592POPC   C4A34830  41.762   2.510   7.710
 2592POPC   C1B34831  41.923   3.119   8.719
 2592POPC   C2B34832  42.008   2.924   8.329
 2592POPC   C3B34833  41.882   2.987   7.904
 2592POPC   C4B34834  41.804   3.327   7.619
 2593POPC   NC334835  34.924  41.911   9.590
 2593POPC   PO434836  34.319  42.257   9.433
 2593POPC   GL134837  34.484  42.403   9.075
 2593POPC   GL234838  34.804  42.241   9.138
 2593POPC   C1A34839  34.546  42.601   8.692
 2593POPC   D2A34840  34.306  42.509   8.354
 2593POPC   C3A34841  34.498  42.668   8.026
 2593POPC   C4A34842  34.563  42.292   7.814
 2593POPC   C1B34843  35.002  42.371   8.717
 2593POPC   C2B34844  34.887  42.332   8.258
 2593POPC   C3B34845  34.992  42.554   7.858
 2593POPC   C4B34846  34.945  42.366   7.450
 2594POPC   NC334847  20.670  37.225   9.508
 2594POPC   PO434848  20.571  36.625   9.723
 2594POPC   GL134849  20.581  36.800   9.255
 2594POPC   GL234850  20.355  37.048   9.153
 2594POPC   C1A34851  20.734  37.033   8.828
 2594POPC   D2A34852  20.500  36.928   8.441
 2594POPC   C3A34853  20.756  36.948   8.109
 2594POPC   C4A34854  20.722  36.958   7.671
 2594POPC   C1B34855  20.261  37.246   8.755
 2594POPC   C2B34856  20.359  37.417   8.325
 2594POPC   C3B34857  20.485  37.329   7.932
 2594POPC   C4B34858  20.909  37.412   7.873
 2595POPC   NC334859  33.858   8.720   9.656
 2595POPC   PO434860  34.081   9.342   9.463
 2595POPC   GL134861  33.781   9.045   9.207
 2595POPC   GL234862  33.680   8.679   9.194
 2595POPC   C1A34863  33.657   9.023   8.782
 2595POPC   D2A34864  33.889   8.996   8.398
 2595POPC   C3A34865  33.729   8.988   8.022
 2595POPC   C4A34866  33.574   8.920   7.629
 2595POPC   C1B34867  33.877   8.504   8.837
 2595POPC   C2B34868  34.124   8.516   8.458
 2595POPC   C3B34869  34.143   8.691   8.052
 2595POPC   C4B34870  33.963   8.605   7.653
 2596POPC   NC334871  12.912   3.924   9.636
 2596POPC   PO434872  12.477   3.468   9.715
 2596POPC   GL134873  12.627   3.554   9.271
 2596POPC   GL234874  12.984   3.695   9.140
 2596POPC   C1A34875  12.495   3.657   8.843
 2596POPC   D2A34876  12.788   3.708   8.516
 2596POPC   C3A34877  12.647   3.586   8.110
 2596POPC   C4A34878  12.752   3.693   7.681
 2596POPC   C1B34879  13.235   3.544   8.751
 2596POPC   C2B34880  13.297   3.571   8.298
 2596POPC   C3B34881  13.153   3.341   7.911
 2596POPC   C4B34882  13.101   3.371   7.442
 2597POPC   NC334883  22.559  36.223   9.615
 2597POPC   PO434884  23.145  36.142   9.410
 2597POPC   GL134885  22.990  36.131   9.036
 2597POPC   GL234886  22.735  36.328   9.156
 2597POPC   C1A34887  23.098  36.180   8.593
 2597POPC   D2A34888  22.783  36.129   8.250
 2597POPC   C3A34889  22.876  35.844   7.865
 2597POPC   C4A34890  22.845  35.978   7.411
 2597POPC   C1B34891  22.650  36.413   8.752
 2597POPC   C2B34892  22.858  36.663   8.485
 2597POPC   C3B34893  22.786  36.627   8.104
 2597POPC   C4B34894  22.724  36.322   7.771
 2598POPC   NC334895  32.392  26.345   9.574
 2598POPC   PO434896  32.153  25.763   9.473
 2598POPC   GL134897  32.223  26.014   9.157
 2598POPC   GL234898  32.560  26.020   9.098
 2598POPC   C1A34899  32.120  25.867   8.747
 2598POPC   D2A34900  32.311  25.889   8.352
 2598POPC   C3A34901  32.078  26.051   8.040
 2598POPC   C4A34902  32.142  26.210   7.676
 2598POPC   C1B34903  32.613  26.305   8.747
 2598POPC   C2B34904  32.485  26.375   8.310
 2598POPC   C3B34905  32.576  26.191   7.915
 2598POPC   C4B34906  32.595  26.365   7.456
 2599POPC   NC334907  24.406  38.508   9.602
 2599POPC   PO434908  24.382  37.872   9.450
 2599POPC   GL134909  24.495  38.251   9.151
 2599POPC   GL234910  24.427  38.656   9.133
 2599POPC   C1A34911  24.390  38.339   8.724
 2599POPC   D2A34912  24.492  38.553   8.353
 2599POPC   C3A34913  24.488  38.323   7.982
 2599POPC   C4A34914  24.749  38.407   7.662
 2599POPC   C1B34915  24.322  38.859   8.742
 2599POPC   C2B34916  24.078  38.849   8.326
 2599POPC   C3B34917  24.301  38.800   7.924
 2599POPC   C4B34918  24.244  38.635   7.540
 2600POPC   NC334919  25.386   7.691   9.509
 2600POPC   PO434920  25.623   7.018   9.586
 2600POPC   GL134921  25.390   7.265   9.236
 2600POPC   GL234922  25.045   7.433   9.196
 2600POPC   C1A34923  25.435   7.577   8.880
 2600POPC   D2A34924  25.574   7.580   8.470
 2600POPC   C3A34925  25.522   7.674   8.070
 2600POPC   C4A34926  25.515   7.535   7.693
 2600POPC   C1B34927  24.962   7.595   8.752
 2600POPC   C2B34928  25.095   7.416   8.350
 2600POPC   C3B34929  25.026   7.530   7.921
 2600POPC   C4B34930  24.944   7.178   7.646
 2601POPC   NC334931   5.279  21.021   9.617
 2601POPC   PO434932   4.973  21.613   9.522
 2601POPC   GL134933   4.980  21.464   9.127
 2601POPC   GL234934   5.315  21.372   9.146
 2601POPC   C1A34935   5.036  21.333   8.683
 2601POPC   D2A34936   4.876  21.036   8.372
 2601POPC   C3A34937   4.935  21.192   8.002
 2601POPC   C4A34938   5.349  21.336   7.924
 2601POPC   C1B34939   5.329  21.732   8.835
 2601POPC   C2B34940   5.198  21.749   8.394
 2601POPC   C3B34941   5.381  21.862   7.984
 2601POPC   C4B34942   5.384  21.691   7.554
 2602POPC   NC334943  39.479  17.486   9.363
 2602POPC   PO434944  38.823  17.594   9.399
 2602POPC   GL134945  39.079  17.701   9.032
 2602POPC   GL234946  39.425  17.825   9.016
 2602POPC   C1A34947  39.114  17.702   8.587
 2602POPC   D2A34948  39.108  17.373   8.284
 2602POPC   C3A34949  39.133  17.428   7.851
 2602POPC   C4A34950  39.121  17.326   7.379
 2602POPC   C1B34951  39.634  17.624   8.710
 2602POPC   C2B34952  39.556  17.666   8.291
 2602POPC   C3B34953  39.619  17.694   7.885
 2602POPC   C4B34954  39.567  17.404   7.591
 2603POPC   NC334955  31.760   9.969   9.602
 2603POPC   PO434956  31.224   9.520   9.610
 2603POPC   GL134957  31.525   9.617   9.307
 2603POPC   GL234958  31.371   9.936   9.225
 2603POPC   C1A34959  31.719   9.636   8.900
 2603POPC   D2A34960  31.670   9.855   8.503
 2603POPC   C3A34961  31.770   9.691   8.087
 2603POPC   C4A34962  31.493   9.549   7.774
 2603POPC   C1B34963  31.233   9.849   8.787
 2603POPC   C2B34964  31.179   9.939   8.311
 2603POPC   C3B34965  31.412  10.082   7.927
 2603POPC   C4B34966  31.301  10.407   7.575
 2604POPC   NC334967  25.576  12.133   9.497
 2604POPC   PO434968  24.967  12.268   9.316
 2604POPC   GL134969  25.156  11.960   9.060
 2604POPC   GL234970  25.516  11.911   9.054
 2604POPC   C1A34971  25.238  12.041   8.627
 2604POPC   D2A34972  25.397  12.264   8.257
 2604POPC   C3A34973  25.287  12.016   7.893
 2604POPC   C4A34974  25.137  11.678   7.615
 2604POPC   C1B34975  25.707  12.146   8.756
 2604POPC   C2B34976  25.846  12.028   8.345
 2604POPC   C3B34977  25.791  12.027   7.897
 2604POPC   C4B34978  25.594  12.369   7.627
 2605POPC   NC334979  24.402  24.644   9.626
 2605POPC   PO434980  24.137  24.036   9.575
 2605POPC   GL134981  24.399  24.291   9.236
 2605POPC   GL234982  24.401  24.673   9.127
 2605POPC   C1A34983  24.550  24.327   8.805
 2605POPC   D2A34984  24.344  24.329   8.419
 2605POPC   C3A34985  24.400  24.337   7.988
 2605POPC   C4A34986  24.774  24.270   7.806
 2605POPC   C1B34987  24.544  24.816   8.726
 2605POPC   C2B34988  24.780  24.636   8.365
 2605POPC   C3B34989  24.784  24.775   7.935
 2605POPC   C4B34990  24.435  24.722   7.664
 2606POPC   NC334991  19.131  31.882  10.009
 2606POPC   PO434992  19.022  32.412   9.608
 2606POPC   GL134993  18.982  32.409   9.191
 2606POPC   GL234994  19.333  32.511   9.182
 2606POPC   C1A34995  18.883  32.086   8.872
 2606POPC   D2A34996  19.075  32.008   8.445
 2606POPC   C3A34997  18.845  32.005   8.068
 2606POPC   C4A34998  18.889  32.241   7.718
 2606POPC   C1B34999  19.312  32.370   8.784
 2606POPC   C2B35000  19.323  32.565   8.432
 2606POPC   C3B35001  19.234  32.415   8.058
 2606POPC   C4B35002  19.245  32.632   7.676
 2607POPC   NC335003  18.840  13.741   9.764
 2607POPC   PO435004  19.317  13.918   9.319
 2607POPC   GL135005  19.116  13.595   9.168
 2607POPC   GL235006  18.796  13.668   9.266
 2607POPC   C1A35007  19.191  13.472   8.767
 2607POPC   D2A35008  19.422  13.690   8.477
 2607POPC   C3A35009  19.280  13.570   8.073
 2607POPC   C4A35010  19.089  13.345   7.773
 2607POPC   C1B35011  18.703  13.633   8.848
 2607POPC   C2B35012  18.564  13.778   8.466
 2607POPC   C3B35013  18.579  13.904   8.038
 2607POPC   C4B35014  18.830  13.779   7.705
 2608POPC   NC335015  12.935   7.919   9.539
 2608POPC   PO435016  13.185   7.299   9.580
 2608POPC   GL135017  13.024   7.360   9.176
 2608POPC   GL235018  12.736   7.541   9.216
 2608POPC   C1A35019  12.751   7.206   8.807
 2608POPC   D2A35020  12.616   7.413   8.407
 2608POPC   C3A35021  12.823   7.264   8.039
 2608POPC   C4A35022  12.735   6.921   7.798
 2608POPC   C1B35023  12.902   7.708   8.787
 2608POPC   C2B35024  13.043   7.687   8.334
 2608POPC   C3B35025  12.796   7.771   7.948
 2608POPC   C4B35026  12.443   7.571   7.747
 2609POPC   NC335027  15.145  36.699   9.416
 2609POPC   PO435028  15.520  37.178   9.269
 2609POPC   GL135029  15.380  36.909   8.984
 2609POPC   GL235030  15.002  36.892   8.970
 2609POPC   C1A35031  15.310  36.739   8.591
 2609POPC   D2A35032  15.026  36.736   8.259
 2609POPC   C3A35033  15.345  36.735   7.942
 2609POPC   C4A35034  15.448  36.873   7.541
 2609POPC   C1B35035  14.879  36.503   8.721
 2609POPC   C2B35036  14.954  36.242   8.324
 2609POPC   C3B35037  14.965  36.405   7.882
 2609POPC   C4B35038  14.912  36.842   7.682
 2610POPC   NC335039  13.121   9.829   9.749
 2610POPC   PO435040  12.887   9.225   9.755
 2610POPC   GL135041  12.846   9.594   9.391
 2610POPC   GL235042  13.178   9.789   9.240
 2610POPC   C1A35043  12.774   9.711   8.964
 2610POPC   D2A35044  12.822   9.653   8.515
 2610POPC   C3A35045  12.473   9.667   8.227
 2610POPC   C4A35046  12.541   9.581   7.821
 2610POPC   C1B35047  13.265   9.825   8.762
 2610POPC   C2B35048  13.135  10.005   8.342
 2610POPC   C3B35049  13.012   9.804   7.976
 2610POPC   C4B35050  13.301   9.495   8.005
 2611POPC   NC335051   3.010  40.911   9.522
 2611POPC   PO435052   2.470  40.516   9.417
 2611POPC   GL135053   2.776  40.691   9.142
 2611POPC   GL235054   2.657  40.997   9.116
 2611POPC   C1A35055   3.044  40.675   8.786
 2611POPC   D2A35056   3.237  40.627   8.361
 2611POPC   C3A35057   2.950  40.808   8.013
 2611POPC   C4A35058   2.673  40.632   7.701
 2611POPC   C1B35059   2.696  41.084   8.690
 2611POPC   C2B35060   2.404  41.021   8.338
 2611POPC   C3B35061   2.349  41.277   7.985
 2611POPC   C4B35062   2.672  41.150   7.699
 2612POPC   NC335063   3.285  28.912   9.507
 2612POPC   PO435064   3.616  29.611   9.596
 2612POPC   GL135065   3.503  29.306   9.226
 2612POPC   GL235066   3.597  28.930   9.123
 2612POPC   C1A35067   3.506  29.282   8.767
 2612POPC   D2A35068   3.616  29.530   8.408
 2612POPC   C3A35069   3.696  29.436   7.988
 2612POPC   C4A35070   4.066  29.496   7.771
 2612POPC   C1B35071   3.183  28.918   8.868
 2612POPC   C2B35072   3.027  28.952   8.447
 2612POPC   C3B35073   3.177  28.867   8.027
 2612POPC   C4B35074   3.428  29.081   7.677
 2613POPC   NC335075  44.666  37.238   9.617
 2613POPC   PO435076  44.847  36.670   9.701
 2613POPC   GL135077  44.568  36.746   9.282
 2613POPC   GL235078  44.479  37.080   9.117
 2613POPC   C1A35079  44.538  36.567   8.832
 2613POPC   D2A35080  44.800  36.591   8.448
 2613POPC   C3A35081  44.686  36.840   8.086
 2613POPC   C4A35082  44.654  36.739   7.640
 2613POPC   C1B35083  44.548  37.043   8.637
 2613POPC   C2B35084  44.412  37.238   8.252
 2613POPC   C3B35085  44.451  37.199   7.785
 2613POPC   C4B35086  44.734  37.188   7.410
 2614POPC   NC335087   3.481   4.625   9.478
 2614POPC   PO435088   3.865   4.112   9.630
 2614POPC   GL135089   3.651   4.178   9.208
 2614POPC   GL235090   3.401   4.426   9.032
 2614POPC   C1A35091   3.563   4.036   8.776
 2614POPC   D2A35092   3.507   4.236   8.412
 2614POPC   C3A35093   3.427   4.053   8.027
 2614POPC   C4A35094   3.336   4.155   7.608
 2614POPC   C1B35095   3.522   4.697   8.668
 2614POPC   C2B35096   3.621   4.688   8.208
 2614POPC   C3B35097   3.300   4.585   7.891
 2614POPC   C4B35098   3.300   4.640   7.441
 2615POPC   NC335099  19.513  25.242   9.530
 2615POPC   PO435100  20.174  25.111   9.591
 2615POPC   GL135101  20.161  25.138   9.147
 2615POPC   GL235102  19.817  25.124   9.130
 2615POPC   C1A35103  20.119  25.299   8.714
 2615POPC   D2A35104  20.286  25.251   8.275
 2615POPC   C3A35105  19.891  25.293   8.004
 2615POPC   C4A35106  19.757  25.313   7.576
 2615POPC   C1B35107  19.598  25.146   8.749
 2615POPC   C2B35108  19.529  25.392   8.363
 2615POPC   C3B35109  19.373  25.352   7.932
 2615POPC   C4B35110  19.327  25.041   7.600
 2616POPC   NC335111  24.198   2.116   9.510
 2616POPC   PO435112  24.598   1.789   9.163
 2616POPC   GL135113  24.563   2.192   9.071
 2616POPC   GL235114  24.862   2.356   9.154
 2616POPC   C1A35115  24.493   2.207   8.646
 2616POPC   D2A35116  24.315   1.990   8.309
 2616POPC   C3A35117  24.505   1.905   7.927
 2616POPC   C4A35118  24.383   2.164   7.606
 2616POPC   C1B35119  25.001   2.160   8.756
 2616POPC   C2B35120  24.871   1.965   8.371
 2616POPC   C3B35121  24.942   2.159   8.015
 2616POPC   C4B35122  24.906   2.061   7.600
 2617POPC   NC335123  13.151  42.750   9.812
 2617POPC   PO435124  13.650  42.307   9.483
 2617POPC   GL135125  13.374  42.381   9.176
 2617POPC   GL235126  13.226  42.146   9.065
 2617POPC   C1A35127  13.407  42.576   8.755
 2617POPC   D2A35128  13.394  42.380   8.379
 2617POPC   C3A35129  13.645  42.420   8.041
 2617POPC   C4A35130  13.558  42.534   7.627
 2617POPC   C1B35131  13.598  42.085   8.821
 2617POPC   C2B35132  13.844  42.136   8.456
 2617POPC   C3B35133  13.848  41.924   8.094
 2617POPC   C4B35134  13.729  42.045   7.697
 2618POPC   NC335135  10.241  28.512   9.607
 2618POPC   PO435136  10.878  28.290   9.637
 2618POPC   GL135137  10.587  28.278   9.277
 2618POPC   GL235138  10.505  28.619   9.146
 2618POPC   C1A35139  10.710  28.172   8.869
 2618POPC   D2A35140  10.557  28.154   8.467
 2618POPC   C3A35141  10.627  27.981   8.085
 2618POPC   C4A35142  10.737  28.313   7.830
 2618POPC   C1B35143  10.522  28.625   8.675
 2618POPC   C2B35144  10.472  28.587   8.195
 2618POPC   C3B35145  10.580  28.793   7.795
 2618POPC   C4B35146  10.791  28.751   7.385
 2619POPC   NC335147   7.700   4.961   9.312
 2619POPC   PO435148   8.326   5.195   9.623
 2619POPC   GL135149   8.257   5.041   9.202
 2619POPC   GL235150   8.406   4.725   9.180
 2619POPC   C1A35151   8.189   5.238   8.771
 2619POPC   D2A35152   8.222   5.450   8.352
 2619POPC   C3A35153   8.150   5.249   7.951
 2619POPC   C4A35154   8.345   5.300   7.558
 2619POPC   C1B35155   8.246   4.718   8.758
 2619POPC   C2B35156   8.228   4.912   8.348
 2619POPC   C3B35157   8.184   4.742   7.925
 2619POPC   C4B35158   8.377   4.759   7.494
 2620POPC   NC335159  37.246  28.597   9.423
 2620POPC   PO435160  37.108  28.049   9.802
 2620POPC   GL135161  36.968  28.186   9.336
 2620POPC   GL235162  36.761  28.516   9.253
 2620POPC   C1A35163  36.961  28.208   8.860
 2620POPC   D2A35164  37.201  28.384   8.486
 2620POPC   C3A35165  37.065  28.577   8.066
 2620POPC   C4A35166  36.955  28.383   7.652
 2620POPC   C1B35167  36.588  28.606   8.827
 2620POPC   C2B35168  36.670  28.435   8.394
 2620POPC   C3B35169  36.549  28.373   7.948
 2620POPC   C4B35170  36.539  28.668   7.584
 2621POPC   NC335171  34.456  10.082   9.470
 2621POPC   PO435172  34.937   9.696   9.840
 2621POPC   GL135173  34.854   9.821   9.329
 2621POPC   GL235174  34.538   9.669   9.185
 2621POPC   C1A35175  34.877   9.883   8.863
 2621POPC   D2A35176  34.642  10.085   8.518
 2621POPC   C3A35177  34.667   9.900   8.165
 2621POPC   C4A35178  34.757   9.810   7.764
 2621POPC   C1B35179  34.350   9.768   8.788
 2621POPC   C2B35180  34.271   9.644   8.364
 2621POPC   C3B35181  34.198   9.791   7.953
 2621POPC   C4B35182  34.188   9.569   7.593
 2622POPC   NC335183  12.335  23.453   9.785
 2622POPC   PO435184  12.646  22.844   9.541
 2622POPC   GL135185  12.838  23.013   9.194
 2622POPC   GL235186  12.563  23.168   9.087
 2622POPC   C1A35187  13.194  22.937   8.904
 2622POPC   D2A35188  13.214  22.728   8.516
 2622POPC   C3A35189  12.928  22.849   8.202
 2622POPC   C4A35190  12.809  22.832   7.786
 2622POPC   C1B35191  12.750  23.120   8.695
 2622POPC   C2B35192  12.714  23.299   8.333
 2622POPC   C3B35193  12.510  23.206   7.935
 2622POPC   C4B35194  12.666  23.185   7.463
 2623POPC   NC335195  34.238  12.111   9.474
 2623POPC   PO435196  34.880  11.937   9.566
 2623POPC   GL135197  34.671  12.056   9.176
 2623POPC   GL235198  34.363  11.885   9.037
 2623POPC   C1A35199  34.653  12.201   8.749
 2623POPC   D2A35200  34.669  11.972   8.374
 2623POPC   C3A35201  34.950  12.115   8.057
 2623POPC   C4A35202  35.067  12.402   7.731
 2623POPC   C1B35203  34.276  11.706   8.615
 2623POPC   C2B35204  34.278  11.682   8.180
 2623POPC   C3B35205  34.420  12.041   7.935
 2623POPC   C4B35206  34.552  12.258   7.579
 2624POPC   NC335207  14.957  35.777   9.511
 2624POPC   PO435208  15.338  36.304   9.549
 2624POPC   GL135209  15.021  36.229   9.196
 2624POPC   GL235210  15.270  36.409   9.025
 2624POPC   C1A35211  14.862  36.008   8.794
 2624POPC   D2A35212  14.921  35.716   8.402
 2624POPC   C3A35213  15.023  35.890   7.959
 2624POPC   C4A35214  15.045  36.050   7.517
 2624POPC   C1B35215  15.347  36.211   8.674
 2624POPC   C2B35216  15.457  36.348   8.280
 2624POPC   C3B35217  15.444  36.204   7.887
 2624POPC   C4B35218  15.442  36.370   7.504
 2625POPC   NC335219  33.958  24.579   9.596
 2625POPC   PO435220  33.677  24.123   9.450
 2625POPC   GL135221  33.752  24.484   9.153
 2625POPC   GL235222  34.123  24.480   9.107
 2625POPC   C1A35223  33.786  24.776   8.801
 2625POPC   D2A35224  33.969  24.684   8.380
 2625POPC   C3A35225  33.832  24.804   7.945
 2625POPC   C4A35226  33.988  24.890   7.490
 2625POPC   C1B35227  34.070  24.290   8.689
 2625POPC   C2B35228  33.807  24.154   8.325
 2625POPC   C3B35229  33.798  24.259   7.870
 2625POPC   C4B35230  33.630  24.540   7.545
 2626POPC   NC335231  34.143   3.763   9.379
 2626POPC   PO435232  33.625   3.405   9.497
 2626POPC   GL135233  33.827   3.437   9.149
 2626POPC   GL235234  34.107   3.221   9.109
 2626POPC   C1A35235  33.875   3.670   8.780
 2626POPC   D2A35236  34.063   3.717   8.407
 2626POPC   C3A35237  33.851   3.686   8.049
 2626POPC   C4A35238  33.822   3.873   7.682
 2626POPC   C1B35239  33.855   3.142   8.756
 2626POPC   C2B35240  33.803   3.277   8.369
 2626POPC   C3B35241  34.013   3.199   8.006
 2626POPC   C4B35242  33.809   3.334   7.643
 2627POPC   NC335243  20.235   0.521   9.607
 2627POPC   PO435244  19.608   0.202   9.568
 2627POPC   GL135245  19.833   0.366   9.221
 2627POPC   GL235246  20.191   0.317   9.154
 2627POPC   C1A35247  19.753   0.583   8.863
 2627POPC   D2A35248  19.876   0.620   8.461
 2627POPC   C3A35249  19.666   0.672   8.083
 2627POPC   C4A35250  19.852   0.477   7.723
 2627POPC   C1B35251  20.128   0.236   8.738
 2627POPC   C2B35252  19.872   0.065   8.411
 2627POPC   C3B35253  20.082   0.118   8.022
 2627POPC   C4B35254  20.322   0.296   7.694
 2628POPC   NC335255  20.352   2.093   9.451
 2628POPC   PO435256  20.801   1.624   9.640
 2628POPC   GL135257  20.710   1.678   9.198
 2628POPC   GL235258  21.068   1.790   9.155
 2628POPC   C1A35259  20.503   1.669   8.763
 2628POPC   D2A35260  20.390   1.995   8.401
 2628POPC   C3A35261  20.372   1.922   7.945
 2628POPC   C4A35262  20.167   2.192   7.670
 2628POPC   C1B35263  20.998   1.964   8.768
 2628POPC   C2B35264  20.854   1.780   8.414
 2628POPC   C3B35265  20.847   1.986   8.070
 2628POPC   C4B35266  20.815   1.875   7.675
 2629POPC   NC335267   1.994  42.489   9.630
 2629POPC   PO435268   1.594  42.839   9.248
 2629POPC   GL135269   1.932  42.533   9.108
 2629POPC   GL235270   1.942  42.163   9.160
 2629POPC   C1A35271   2.186  42.413   8.740
 2629POPC   D2A35272   2.106  42.323   8.296
 2629POPC   C3A35273   2.108  42.618   7.950
 2629POPC   C4A35274   1.784  42.748   7.693
 2629POPC   C1B35275   1.882  41.990   8.722
 2629POPC   C2B35276   1.784  41.924   8.294
 2629POPC   C3B35277   1.862  42.086   7.896
 2629POPC   C4B35278   2.233  42.174   7.698
 2630POPC   NC335279  12.058  33.207   9.393
 2630POPC   PO435280  12.311  32.474   9.483
 2630POPC   GL135281  12.045  32.727   9.202
 2630POPC   GL235282  11.805  32.526   9.076
 2630POPC   C1A35283  12.143  33.019   8.811
 2630POPC   D2A35284  11.944  33.079   8.434
 2630POPC   C3A35285  12.061  33.248   8.098
 2630POPC   C4A35286  12.177  33.207   7.682
 2630POPC   C1B35287  11.729  32.737   8.750
 2630POPC   C2B35288  11.797  32.606   8.332
 2630POPC   C3B35289  11.825  32.825   7.947
 2630POPC   C4B35290  11.817  32.835   7.512
 2631POPC   NC335291  26.322   2.841   9.572
 2631POPC   PO435292  26.325   2.243   9.538
 2631POPC   GL135293  26.129   2.446   9.149
 2631POPC   GL235294  26.076   2.823   9.079
 2631POPC   C1A35295  26.110   2.472   8.699
 2631POPC   D2A35296  25.868   2.504   8.303
 2631POPC   C3A35297  26.135   2.652   7.959
 2631POPC   C4A35298  26.530   2.542   7.723
 2631POPC   C1B35299  25.833   2.898   8.680
 2631POPC   C2B35300  25.810   3.050   8.238
 2631POPC   C3B35301  25.817   3.006   7.779
 2631POPC   C4B35302  25.752   2.996   7.314
 2632POPC   NC335303  34.003  44.838   9.660
 2632POPC   PO435304  33.552  44.386   9.605
 2632POPC   GL135305  33.665  44.463   9.210
 2632POPC   GL235306  33.828  44.754   9.192
 2632POPC   C1A35307  33.810  44.453   8.790
 2632POPC   D2A35308  33.667  44.698   8.462
 2632POPC   C3A35309  33.791  44.541   8.090
 2632POPC   C4A35310  33.526  44.666   7.774
 2632POPC   C1B35311  33.944  44.976   8.800
 2632POPC   C2B35312  34.133  44.863   8.359
 2632POPC   C3B35313  34.007  44.981   7.929
 2632POPC   C4B35314  34.156  44.982   7.506
 2633POPC   NC335315   8.132   3.150   9.541
 2633POPC   PO435316   7.882   3.816   9.568
 2633POPC   GL135317   8.065   3.529   9.215
 2633POPC   GL235318   7.967   3.211   9.081
 2633POPC   C1A35319   8.219   3.528   8.771
 2633POPC   D2A35320   8.265   3.798   8.413
 2633POPC   C3A35321   8.443   3.547   8.077
 2633POPC   C4A35322   8.349   3.410   7.646
 2633POPC   C1B35323   7.806   3.182   8.683
 2633POPC   C2B35324   7.970   3.108   8.246
 2633POPC   C3B35325   7.858   3.121   7.792
 2633POPC   C4B35326   7.893   3.399   7.424
 2634POPC   NC335327  11.262  23.387   9.647
 2634POPC   PO435328  11.111  22.703   9.571
 2634POPC   GL135329  11.147  23.041   9.267
 2634POPC   GL235330  11.445  23.005   9.081
 2634POPC   C1A35331  11.048  23.193   8.842
 2634POPC   D2A35332  11.012  22.959   8.465
 2634POPC   C3A35333  11.355  23.076   8.200
 2634POPC   C4A35334  11.331  23.037   7.789
 2634POPC   C1B35335  11.285  22.680   8.826
 2634POPC   C2B35336  11.391  22.600   8.406
 2634POPC   C3B35337  11.178  22.601   8.024
 2634POPC   C4B35338  11.480  22.555   7.715
 2635POPC   NC335339   8.376   1.565   9.388
 2635POPC   PO435340   7.808   1.098   9.461
 2635POPC   GL135341   8.037   1.117   9.105
 2635POPC   GL235342   7.972   1.464   9.080
 2635POPC   C1A35343   7.912   1.152   8.664
 2635POPC   D2A35344   7.912   1.398   8.291
 2635POPC   C3A35345   7.901   1.072   8.009
 2635POPC   C4A35346   8.160   0.866   7.748
 2635POPC   C1B35347   8.371   1.345   8.771
 2635POPC   C2B35348   8.399   1.186   8.320
 2635POPC   C3B35349   8.385   1.319   7.880
 2635POPC   C4B35350   8.580   1.483   7.491
 2636POPC   NC335351  41.499  14.458   9.562
 2636POPC   PO435352  42.121  14.504   9.465
 2636POPC   GL135353  41.738  14.598   9.141
 2636POPC   GL235354  41.329  14.609   9.131
 2636POPC   C1A35355  41.574  14.402   8.746
 2636POPC   D2A35356  41.676  14.091   8.447
 2636POPC   C3A35357  41.502  14.231   8.072
 2636POPC   C4A35358  41.591  14.383   7.674
 2636POPC   C1B35359  41.276  14.823   8.753
 2636POPC   C2B35360  41.310  14.961   8.329
 2636POPC   C3B35361  41.269  14.715   7.936
 2636POPC   C4B35362  41.225  14.678   7.468
 2637POPC   NC335363  30.891  39.403   9.607
 2637POPC   PO435364  30.284  39.545   9.307
 2637POPC   GL135365  30.649  39.252   9.191
 2637POPC   GL235366  30.965  39.449   9.104
 2637POPC   C1A35367  30.869  39.027   8.835
 2637POPC   D2A35368  30.691  38.911   8.407
 2637POPC   C3A35369  30.823  39.085   8.013
 2637POPC   C4A35370  30.469  39.184   7.760
 2637POPC   C1B35371  30.646  39.478   8.747
 2637POPC   C2B35372  30.539  39.397   8.342
 2637POPC   C3B35373  30.625  39.601   8.004
 2637POPC   C4B35374  30.970  39.549   7.786
 2638POPC   NC335375  40.503  13.997   9.432
 2638POPC   PO435376  41.128  14.201   9.470
 2638POPC   GL135377  40.773  14.401   9.227
 2638POPC   GL235378  40.832  14.699   9.029
 2638POPC   C1A35379  40.501  14.371   8.827
 2638POPC   D2A35380  40.664  14.343   8.419
 2638POPC   C3A35381  40.448  14.293   8.040
 2638POPC   C4A35382  40.591  14.384   7.663
 2638POPC   C1B35383  41.036  14.364   8.788
 2638POPC   C2B35384  41.170  14.465   8.387
 2638POPC   C3B35385  40.984  14.287   8.023
 2638POPC   C4B35386  41.112  14.218   7.625
 2639POPC   NC335387  31.881  42.680   9.370
 2639POPC   PO435388  31.309  42.153   9.443
 2639POPC   GL135389  31.501  42.384   9.140
 2639POPC   GL235390  31.173  42.489   9.041
 2639POPC   C1A35391  31.698  42.295   8.748
 2639POPC   D2A35392  31.559  42.105   8.363
 2639POPC   C3A35393  31.709  42.237   7.961
 2639POPC   C4A35394  31.621  42.357   7.520
 2639POPC   C1B35395  31.158  42.246   8.670
 2639POPC   C2B35396  31.081  42.221   8.221
 2639POPC   C3B35397  31.220  42.148   7.802
 2639POPC   C4B35398  31.088  42.422   7.481
 2640POPC   NC335399  30.364  15.241   9.450
 2640POPC   PO435400  30.929  14.939   9.210
 2640POPC   GL135401  30.561  15.167   8.983
 2640POPC   GL235402  30.194  15.019   9.013
 2640POPC   C1A35403  30.646  15.483   8.641
 2640POPC   D2A35404  30.800  15.284   8.295
 2640POPC   C3A35405  30.815  15.431   7.911
 2640POPC   C4A35406  30.907  15.039   7.735
 2640POPC   C1B35407  30.164  15.228   8.614
 2640POPC   C2B35408  30.309  15.400   8.220
 2640POPC   C3B35409  30.397  15.138   7.881
 2640POPC   C4B35410  30.145  15.135   7.554
 2641POPC   NC335411  25.704  43.244   9.388
 2641POPC   PO435412  26.280  42.949   9.490
 2641POPC   GL135413  26.142  42.735   9.119
 2641POPC   GL235414  25.785  42.868   9.029
 2641POPC   C1A35415  26.128  42.748   8.681
 2641POPC   D2A35416  25.765  42.921   8.461
 2641POPC   C3A35417  25.956  42.952   8.112
 2641POPC   C4A35418  25.923  42.931   7.716
 2641POPC   C1B35419  25.958  43.250   8.800
 2641POPC   C2B35420  25.887  43.448   8.393
 2641POPC   C3B35421  26.071  43.435   7.992
 2641POPC   C4B35422  26.113  43.365   7.558
 2642POPC   NC335423  39.127  34.156   9.621
 2642POPC   PO435424  39.616  33.647   9.589
 2642POPC   GL135425  39.378  33.765   9.198
 2642POPC   GL235426  39.440  34.121   9.192
 2642POPC   C1A35427  39.113  33.628   8.805
 2642POPC   D2A35428  38.987  33.479   8.347
 2642POPC   C3A35429  39.108  33.701   7.936
 2642POPC   C4A35430  39.506  33.962   7.857
 2642POPC   C1B35431  39.021  34.116   8.963
 2642POPC   C2B35432  38.950  34.185   8.520
 2642POPC   C3B35433  39.127  34.209   8.085
 2642POPC   C4B35434  39.126  34.164   7.578
 2643POPC   NC335435  15.609   8.003   9.557
 2643POPC   PO435436  15.028   8.334   9.514
 2643POPC   GL135437  15.260   8.164   9.184
 2643POPC   GL235438  15.291   7.767   9.228
 2643POPC   C1A35439  15.142   8.266   8.771
 2643POPC   D2A35440  15.058   8.467   8.391
 2643POPC   C3A35441  15.002   8.248   8.003
 2643POPC   C4A35442  15.071   8.409   7.575
 2643POPC   C1B35443  15.147   7.775   8.815
 2643POPC   C2B35444  15.135   7.749   8.376
 2643POPC   C3B35445  15.353   7.767   7.990
 2643POPC   C4B35446  15.267   7.954   7.625
 2644POPC   NC335447  32.976   9.168   9.513
 2644POPC   PO435448  32.931   9.757   9.658
 2644POPC   GL135449  32.980   9.795   9.156
 2644POPC   GL235450  33.044   9.448   9.084
 2644POPC   C1A35451  33.142  10.019   8.729
 2644POPC   D2A35452  33.082  10.105   8.258
 2644POPC   C3A35453  32.786   9.789   8.121
 2644POPC   C4A35454  32.730   9.628   7.731
 2644POPC   C1B35455  33.373   9.520   8.773
 2644POPC   C2B35456  33.334   9.681   8.352
 2644POPC   C3B35457  33.263   9.707   7.912
 2644POPC   C4B35458  33.313   9.555   7.503
 2645POPC   NC335459   4.995  20.421  10.012
 2645POPC   PO435460   5.485  20.607   9.568
 2645POPC   GL135461   5.117  20.688   9.247
 2645POPC   GL235462   4.783  20.538   9.111
 2645POPC   C1A35463   5.069  20.819   8.793
 2645POPC   D2A35464   5.202  20.609   8.388
 2645POPC   C3A35465   5.309  20.807   8.028
 2645POPC   C4A35466   5.123  20.891   7.648
 2645POPC   C1B35467   5.024  20.298   8.793
 2645POPC   C2B35468   5.036  20.117   8.359
 2645POPC   C3B35469   5.061  20.279   7.936
 2645POPC   C4B35470   4.899  20.471   7.506
 2646POPC   NC335471  44.925   3.128   9.506
 2646POPC   PO435472  44.341   3.459   9.611
 2646POPC   GL135473  44.611   3.447   9.232
 2646POPC   GL235474  44.489   3.115   9.187
 2646POPC   C1A35475  44.731   3.587   8.791
 2646POPC   D2A35476  44.480   3.610   8.397
 2646POPC   C3A35477  44.643   3.618   7.958
 2646POPC   C4A35478  44.916   3.918   7.741
 2646POPC   C1B35479  44.375   3.238   8.765
 2646POPC   C2B35480  44.083   3.279   8.384
 2646POPC   C3B35481  44.110   3.234   7.931
 2646POPC   C4B35482  44.434   3.226   7.629
 2647POPC   NC335483  22.028   8.822   9.590
 2647POPC   PO435484  22.329   9.361   9.600
 2647POPC   GL135485  22.315   9.040   9.203
 2647POPC   GL235486  22.019   8.788   9.091
 2647POPC   C1A35487  22.384   8.899   8.758
 2647POPC   D2A35488  22.320   8.855   8.319
 2647POPC   C3A35489  22.489   9.139   8.019
 2647POPC   C4A35490  22.413   8.896   7.687
 2647POPC   C1B35491  21.855   8.803   8.678
 2647POPC   C2B35492  21.850   9.067   8.319
 2647POPC   C3B35493  21.999   9.010   7.915
 2647POPC   C4B35494  22.022   9.084   7.430
 2648POPC   NC335495  42.544  23.321   9.335
 2648POPC   PO435496  42.292  23.957   9.620
 2648POPC   GL135497  42.352  23.787   9.217
 2648POPC   GL235498  42.072  23.555   9.282
 2648POPC   C1A35499  42.560  23.731   8.770
 2648POPC   D2A35500  42.718  23.593   8.359
 2648POPC   C3A35501  42.410  23.593   8.010
 2648POPC   C4A35502  42.581  23.728   7.625
 2648POPC   C1B35503  42.066  23.584   8.832
 2648POPC   C2B35504  42.247  23.424   8.479
 2648POPC   C3B35505  42.024  23.240   8.194
 2648POPC   C4B35506  41.875  23.460   7.836
 2649POPC   NC335507   4.387  35.091   9.104
 2649POPC   PO435508   4.013  35.631   9.444
 2649POPC   GL135509   4.110  35.560   9.041
 2649POPC   GL235510   4.447  35.617   9.167
 2649POPC   C1A35511   4.201  35.424   8.594
 2649POPC   D2A35512   4.370  35.091   8.364
 2649POPC   C3A35513   4.247  35.228   7.985
 2649POPC   C4A35514   4.313  35.146   7.567
 2649POPC   C1B35515   4.485  35.792   8.771
 2649POPC   C2B35516   4.639  35.706   8.363
 2649POPC   C3B35517   4.461  35.836   7.997
 2649POPC   C4B35518   4.230  35.629   7.661
 2650POPC   NC335519  37.887  21.260   9.648
 2650POPC   PO435520  37.260  21.325   9.401
 2650POPC   GL135521  37.652  21.370   9.168
 2650POPC   GL235522  38.024  21.399   9.176
 2650POPC   C1A35523  37.652  21.353   8.737
 2650POPC   D2A35524  37.436  21.486   8.385
 2650POPC   C3A35525  37.554  21.288   8.022
 2650POPC   C4A35526  37.583  21.602   7.714
 2650POPC   C1B35527  38.065  21.081   8.835
 2650POPC   C2B35528  37.910  20.937   8.402
 2650POPC   C3B35529  37.952  20.956   7.931
 2650POPC   C4B35530  37.846  21.189   7.547
 2651POPC   NC335531  41.869  32.287   9.880
 2651POPC   PO435532  42.549  32.258   9.601
 2651POPC   GL135533  42.527  32.296   9.187
 2651POPC   GL235534  42.143  32.294   9.183
 2651POPC   C1A35535  42.440  32.197   8.775
 2651POPC   D2A35536  42.114  32.207   8.478
 2651POPC   C3A35537  42.295  32.208   8.076
 2651POPC   C4A35538  42.125  31.989   7.727
 2651POPC   C1B35539  42.108  32.605   8.840
 2651POPC   C2B35540  41.751  32.609   8.543
 2651POPC   C3B35541  41.704  32.650   8.112
 2651POPC   C4B35542  42.025  32.504   7.756
 2652POPC   NC335543   6.444   2.618   9.453
 2652POPC   PO435544   6.743   3.287   9.522
 2652POPC   GL135545   6.715   3.044   9.132
 2652POPC   GL235546   6.852   2.708   9.155
 2652POPC   C1A35547   6.716   2.914   8.704
 2652POPC   D2A35548   6.388   2.850   8.407
 2652POPC   C3A35549   6.562   2.919   7.982
 2652POPC   C4A35550   6.855   2.961   7.627
 2652POPC   C1B35551   6.895   2.439   8.780
 2652POPC   C2B35552   6.612   2.352   8.397
 2652POPC   C3B35553   6.331   2.477   8.061
 2652POPC   C4B35554   6.502   2.499   7.665
 2653POPC   NC335555  32.729  21.495   9.499
 2653POPC   PO435556  33.196  21.062   9.545
 2653POPC   GL135557  33.153  21.291   9.158
 2653POPC   GL235558  32.911  21.521   9.024
 2653POPC   C1A35559  33.264  21.335   8.716
 2653POPC   D2A35560  32.980  21.267   8.392
 2653POPC   C3A35561  32.911  21.595   8.104
 2653POPC   C4A35562  33.162  21.580   7.742
 2653POPC   C1B35563  32.635  21.226   8.819
 2653POPC   C2B35564  32.460  21.269   8.415
 2653POPC   C3B35565  32.639  21.169   8.004
 2653POPC   C4B35566  32.707  21.341   7.603
 2654POPC   NC335567  21.113  33.969   9.479
 2654POPC   PO435568  21.425  33.414   9.629
 2654POPC   GL135569  21.505  33.691   9.275
 2654POPC   GL235570  21.838  33.591   9.228
 2654POPC   C1A35571  21.275  33.782   8.859
 2654POPC   D2A35572  21.172  33.623   8.442
 2654POPC   C3A35573  21.258  33.841   8.048
 2654POPC   C4A35574  21.162  33.605   7.680
 2654POPC   C1B35575  21.798  33.787   8.840
 2654POPC   C2B35576  21.618  33.938   8.477
 2654POPC   C3B35577  21.771  33.819   8.090
 2654POPC   C4B35578  21.661  33.680   7.711
 2655POPC   NC335579   9.951  15.385   9.580
 2655POPC   PO435580   9.438  15.014   9.593
 2655POPC   GL135581   9.615  15.197   9.218
 2655POPC   GL235582   9.373  15.479   9.255
 2655POPC   C1A35583   9.839  15.333   8.825
 2655POPC   D2A35584   9.779  15.478   8.390
 2655POPC   C3A35585   9.895  15.238   8.023
 2655POPC   C4A35586   9.973  15.377   7.625
 2655POPC   C1B35587   9.273  15.266   8.851
 2655POPC   C2B35588   9.505  15.077   8.501
 2655POPC   C3B35589   9.387  15.219   8.083
 2655POPC   C4B35590   9.495  15.200   7.683
 2656POPC   NC335591  41.572  28.856   9.524
 2656POPC   PO435592  41.824  29.551   9.471
 2656POPC   GL135593  41.759  29.212   9.175
 2656POPC   GL235594  41.391  29.087   9.106
 2656POPC   C1A35595  41.729  29.337   8.762
 2656POPC   D2A35596  41.947  29.259   8.419
 2656POPC   C3A35597  41.808  29.371   8.084
 2656POPC   C4A35598  41.686  29.106   7.792
 2656POPC   C1B35599  41.218  29.297   8.751
 2656POPC   C2B35600  41.386  29.235   8.399
 2656POPC   C3B35601  41.305  29.320   8.026
 2656POPC   C4B35602  41.222  29.291   7.604
 2657POPC   NC335603   2.597   2.268   9.921
 2657POPC   PO435604   2.461   1.825   9.384
 2657POPC   GL135605   2.823   1.908   9.126
 2657POPC   GL235606   2.638   2.203   9.027
 2657POPC   C1A35607   3.042   2.119   8.728
 2657POPC   D2A35608   3.019   2.318   8.304
 2657POPC   C3A35609   2.974   2.032   7.971
 2657POPC   C4A35610   3.169   1.632   7.894
 2657POPC   C1B35611   2.574   1.901   8.688
 2657POPC   C2B35612   2.612   1.828   8.267
 2657POPC   C3B35613   2.521   1.866   7.844
 2657POPC   C4B35614   2.648   2.142   7.537
 2658POPC   NC335615  26.471   8.868   9.521
 2658POPC   PO435616  27.194   9.081   9.432
 2658POPC   GL135617  26.953   8.936   9.110
 2658POPC   GL235618  26.784   8.672   9.189
 2658POPC   C1A35619  26.961   8.708   8.724
 2658POPC   D2A35620  26.737   8.806   8.373
 2658POPC   C3A35621  26.903   8.815   7.989
 2658POPC   C4A35622  26.665   9.042   7.726
 2658POPC   C1B35623  26.477   8.668   8.819
 2658POPC   C2B35624  26.264   8.627   8.403
 2658POPC   C3B35625  26.374   8.703   7.984
 2658POPC   C4B35626  26.609   8.543   7.622
 2659POPC   NC335627  19.264  11.870   9.672
 2659POPC   PO435628  19.087  12.497   9.701
 2659POPC   GL135629  19.168  12.250   9.286
 2659POPC   GL235630  18.859  12.337   9.072
 2659POPC   C1A35631  19.101  11.915   8.937
 2659POPC   D2A35632  19.038  12.070   8.511
 2659POPC   C3A35633  19.246  11.956   8.112
 2659POPC   C4A35634  19.301  11.797   7.687
 2659POPC   C1B35635  18.658  12.427   8.624
 2659POPC   C2B35636  18.596  12.610   8.188
 2659POPC   C3B35637  18.654  12.463   7.758
 2659POPC   C4B35638  18.882  12.084   7.568
 2660POPC   NC335639  23.170   1.048   9.433
 2660POPC   PO435640  23.665   1.449   9.570
 2660POPC   GL135641  23.759   1.214   9.219
 2660POPC   GL235642  23.963   0.915   9.288
 2660POPC   C1A35643  23.799   1.371   8.823
 2660POPC   D2A35644  23.876   1.236   8.439
 2660POPC   C3A35645  23.605   1.364   8.104
 2660POPC   C4A35646  23.562   1.203   7.693
 2660POPC   C1B35647  23.802   0.830   8.859
 2660POPC   C2B35648  23.864   0.708   8.456
 2660POPC   C3B35649  23.713   0.855   8.068
 2660POPC   C4B35650  23.963   0.738   7.739
 2661POPC   NC335651   0.867  40.244   9.619
 2661POPC   PO435652   1.462  40.058   9.487
 2661POPC   GL135653   1.227  40.025   9.081
 2661POPC   GL235654   0.918  40.288   9.056
 2661POPC   C1A35655   1.166  39.722   8.737
 2661POPC   D2A35656   0.925  39.726   8.325
 2661POPC   C3A35657   1.162  39.794   7.931
 2661POPC   C4A35658   1.616  39.813   7.800
 2661POPC   C1B35659   0.930  40.153   8.656
 2661POPC   C2B35660   1.278  40.097   8.383
 2661POPC   C3B35661   1.420  40.240   7.994
 2661POPC   C4B35662   1.358  40.288   7.553
 2662POPC   NC335663  25.550  10.245   9.609
 2662POPC   PO435664  25.254  10.809   9.674
 2662POPC   GL135665  25.235  10.641   9.221
 2662POPC   GL235666  24.901  10.747   9.085
 2662POPC   C1A35667  25.303  10.572   8.765
 2662POPC   D2A35668  25.477  10.254   8.491
 2662POPC   C3A35669  25.304  10.282   8.080
 2662POPC   C4A35670  25.487  10.436   7.717
 2662POPC   C1B35671  25.072  11.037   8.757
 2662POPC   C2B35672  25.274  10.985   8.390
 2662POPC   C3B35673  25.146  10.747   8.037
 2662POPC   C4B35674  25.028  10.618   7.573
 2663POPC   NC335675   4.193  26.552   9.573
 2663POPC   PO435676   4.543  27.116   9.515
 2663POPC   GL135677   4.642  26.963   9.137
 2663POPC   GL235678   4.541  26.608   9.185
 2663POPC   C1A35679   4.454  26.991   8.750
 2663POPC   D2A35680   4.344  27.154   8.352
 2663POPC   C3A35681   4.544  27.015   7.997
 2663POPC   C4A35682   4.345  26.908   7.619
 2663POPC   C1B35683   4.589  26.482   8.775
 2663POPC   C2B35684   4.485  26.641   8.369
 2663POPC   C3B35685   4.238  26.560   8.023
 2663POPC   C4B35686   4.305  26.386   7.648
 2664POPC   NC335687  37.329   5.304   9.723
 2664POPC   PO435688  37.930   5.166   9.685
 2664POPC   GL135689  37.640   5.049   9.335
 2664POPC   GL235690  37.455   5.338   9.207
 2664POPC   C1A35691  37.639   4.838   8.925
 2664POPC   D2A35692  37.782   4.650   8.540
 2664POPC   C3A35693  37.712   4.818   8.116
 2664POPC   C4A35694  37.535   4.815   7.682
 2664POPC   C1B35695  37.602   5.441   8.792
 2664POPC   C2B35696  37.730   5.275   8.391
 2664POPC   C3B35697  37.589   5.312   7.982
 2664POPC   C4B35698  37.577   5.508   7.595
 2665POPC   NC335699  36.819  30.555   9.492
 2665POPC   PO435700  37.311  31.098   9.404
 2665POPC   GL135701  36.983  30.860   9.133
 2665POPC   GL235702  37.019  30.450   9.052
 2665POPC   C1A35703  36.789  30.764   8.725
 2665POPC   D2A35704  37.035  30.806   8.360
 2665POPC   C3A35705  36.817  30.849   7.976
 2665POPC   C4A35706  37.089  30.928   7.631
 2665POPC   C1B35707  36.746  30.269   8.738
 2665POPC   C2B35708  36.666  30.442   8.309
 2665POPC   C3B35709  36.670  30.369   7.866
 2665POPC   C4B35710  36.919  30.378   7.487
 2666POPC   NC335711  26.144  29.633   9.514
 2666POPC   PO435712  25.927  28.939   9.480
 2666POPC   GL135713  26.138  29.189   9.223
 2666POPC   GL235714  25.810  29.270   9.066
 2666POPC   C1A35715  26.250  29.079   8.806
 2666POPC   D2A35716  26.024  29.128   8.425
 2666POPC   C3A35717  26.251  28.994   8.080
 2666POPC   C4A35718  26.318  29.178   7.690
 2666POPC   C1B35719  25.655  29.443   8.691
 2666POPC   C2B35720  25.741  29.524   8.254
 2666POPC   C3B35721  25.787  29.313   7.854
 2666POPC   C4B35722  25.885  29.344   7.383
 2667POPC   NC335723  26.474  37.684   9.469
 2667POPC   PO435724  26.944  37.235   9.656
 2667POPC   GL135725  26.775  37.368   9.255
 2667POPC   GL235726  27.041  37.503   9.095
 2667POPC   C1A35727  26.566  37.562   8.840
 2667POPC   D2A35728  26.628  37.832   8.459
 2667POPC   C3A35729  26.651  37.604   8.059
 2667POPC   C4A35730  26.731  37.412   7.655
 2667POPC   C1B35731  27.051  37.749   8.733
 2667POPC   C2B35732  27.129  37.723   8.298
 2667POPC   C3B35733  27.171  37.584   7.885
 2667POPC   C4B35734  27.043  37.767   7.472
 2668POPC   NC335735  37.352  20.478   9.598
 2668POPC   PO435736  37.885  20.811   9.796
 2668POPC   GL135737  37.842  20.863   9.309
 2668POPC   GL235738  37.812  20.519   9.215
 2668POPC   C1A35739  37.553  20.880   8.921
 2668POPC   D2A35740  37.503  20.614   8.526
 2668POPC   C3A35741  37.526  20.744   8.097
 2668POPC   C4A35742  37.551  20.786   7.651
 2668POPC   C1B35743  37.946  20.586   8.777
 2668POPC   C2B35744  37.999  20.392   8.365
 2668POPC   C3B35745  37.896  20.416   7.937
 2668POPC   C4B35746  37.797  20.376   7.523
 2669POPC   NC335747  21.117  44.175   9.571
 2669POPC   PO435748  21.521  44.784   9.584
 2669POPC   GL135749  21.380  44.622   9.212
 2669POPC   GL235750  21.580  44.918   9.093
 2669POPC   C1A35751  21.387  44.430   8.786
 2669POPC   D2A35752  21.639  44.594   8.435
 2669POPC   C3A35753  21.487  44.517   8.015
 2669POPC   C4A35754  21.253  44.306   7.680
 2669POPC   C1B35755  21.316  44.945   8.762
 2669POPC   C2B35756  21.174  44.822   8.399
 2669POPC   C3B35757  21.315  44.999   8.056
 2669POPC   C4B35758  21.128  44.819   7.733
 2670POPC   NC335759  27.684  44.384   9.396
 2670POPC   PO435760  27.329  43.895   9.763
 2670POPC   GL135761  27.456  43.870   9.326
 2670POPC   GL235762  27.808  43.915   9.205
 2670POPC   C1A35763  27.404  43.875   8.873
 2670POPC   D2A35764  27.680  43.805   8.508
 2670POPC   C3A35765  27.536  43.875   8.100
 2670POPC   C4A35766  27.708  43.522   7.948
 2670POPC   C1B35767  27.856  44.186   8.789
 2670POPC   C2B35768  27.781  44.282   8.348
 2670POPC   C3B35769  27.813  44.269   7.914
 2670POPC   C4B35770  27.730  44.065   7.565
 2671POPC   NC335771  29.331  35.933   9.786
 2671POPC   PO435772  28.901  36.400   9.686
 2671POPC   GL135773  28.971  36.383   9.224
 2671POPC   GL235774  29.016  36.006   9.146
 2671POPC   C1A35775  29.020  36.329   8.755
 2671POPC   D2A35776  28.990  36.111   8.343
 2671POPC   C3A35777  29.091  36.267   7.891
 2671POPC   C4A35778  29.052  36.318   7.405
 2671POPC   C1B35779  29.205  35.832   8.732
 2671POPC   C2B35780  29.336  35.647   8.349
 2671POPC   C3B35781  29.381  35.708   7.915
 2671POPC   C4B35782  29.251  35.874   7.571
 2672POPC   NC335783  18.353   2.010   9.263
 2672POPC   PO435784  19.089   1.964   9.508
 2672POPC   GL135785  18.847   1.864   9.203
 2672POPC   GL235786  18.908   2.173   9.057
 2672POPC   C1A35787  18.797   1.717   8.830
 2672POPC   D2A35788  18.921   2.016   8.544
 2672POPC   C3A35789  18.963   1.937   8.118
 2672POPC   C4A35790  19.146   2.105   7.743
 2672POPC   C1B35791  19.229   2.351   8.811
 2672POPC   C2B35792  19.217   2.437   8.427
 2672POPC   C3B35793  19.398   2.343   8.103
 2672POPC   C4B35794  19.408   2.531   7.727
 2673POPC   NC335795  22.728   9.138   9.542
 2673POPC   PO435796  23.285   8.832   9.457
 2673POPC   GL135797  23.035   8.903   9.107
 2673POPC   GL235798  23.070   9.246   9.154
 2673POPC   C1A35799  23.152   8.772   8.666
 2673POPC   D2A35800  23.364   8.499   8.360
 2673POPC   C3A35801  23.251   8.626   7.959
 2673POPC   C4A35802  22.830   8.740   7.908
 2673POPC   C1B35803  22.737   9.278   8.846
 2673POPC   C2B35804  22.796   9.067   8.440
 2673POPC   C3B35805  23.059   9.160   8.081
 2673POPC   C4B35806  22.864   9.397   7.768
 2674POPC   NC335807  27.282   7.853   9.637
 2674POPC   PO435808  26.710   8.303   9.575
 2674POPC   GL135809  26.943   8.187   9.216
 2674POPC   GL235810  26.576   8.225   9.076
 2674POPC   C1A35811  26.989   8.194   8.762
 2674POPC   D2A35812  26.643   8.305   8.498
 2674POPC   C3A35813  26.721   8.316   8.065
 2674POPC   C4A35814  27.061   8.184   7.802
 2674POPC   C1B35815  26.426   7.911   8.831
 2674POPC   C2B35816  26.528   7.819   8.417
 2674POPC   C3B35817  26.585   7.805   8.004
 2674POPC   C4B35818  26.536   8.032   7.666
 2675POPC   NC335819  15.123   1.583   9.640
 2675POPC   PO435820  15.289   2.219   9.550
 2675POPC   GL135821  15.315   1.938   9.212
 2675POPC   GL235822  15.011   1.934   9.091
 2675POPC   C1A35823  15.370   1.839   8.744
 2675POPC   D2A35824  15.280   1.989   8.340
 2675POPC   C3A35825  15.511   1.803   8.057
 2675POPC   C4A35826  15.212   1.705   7.832
 2675POPC   C1B35827  14.783   2.135   8.754
 2675POPC   C2B35828  14.849   2.302   8.334
 2675POPC   C3B35829  14.715   2.417   7.904
 2675POPC   C4B35830  14.810   2.272   7.449
 2676POPC   NC335831  11.561  41.888   9.406
 2676POPC   PO435832  11.034  42.301   9.534
 2676POPC   GL135833  11.254  42.334   9.164
 2676POPC   GL235834  10.898  42.258   9.050
 2676POPC   C1A35835  11.558  42.537   8.873
 2676POPC   D2A35836  11.828  42.595   8.496
 2676POPC   C3A35837  11.623  42.453   8.085
 2676POPC   C4A35838  11.295  42.505   7.777
 2676POPC   C1B35839  11.113  42.355   8.673
 2676POPC   C2B35840  11.136  42.499   8.272
 2676POPC   C3B35841  10.901  42.252   7.988
 2676POPC   C4B35842  10.945  42.128   7.546
 2677POPC   NC335843  10.233   8.962   9.299
 2677POPC   PO435844  10.823   8.609   9.383
 2677POPC   GL135845  10.620   8.818   9.010
 2677POPC   GL235846  10.253   8.704   8.836
 2677POPC   C1A35847  10.492   9.103   8.655
 2677POPC   D2A35848  10.336   8.923   8.248
 2677POPC   C3A35849  10.492   9.174   7.903
 2677POPC   C4A35850  10.883   9.451   7.913
 2677POPC   C1B35851  10.642   8.625   8.554
 2677POPC   C2B35852  10.860   8.538   8.197
 2677POPC   C3B35853  10.681   8.711   7.851
 2677POPC   C4B35854  10.270   8.710   7.656
 2678POPC   NC335855  36.560  22.013   9.385
 2678POPC   PO435856  37.092  22.307   9.310
 2678POPC   GL135857  37.016  21.983   9.029
 2678POPC   GL235858  36.673  21.957   8.894
 2678POPC   C1A35859  37.074  21.740   8.667
 2678POPC   D2A35860  36.717  21.816   8.375
 2678POPC   C3A35861  36.828  22.092   8.040
 2678POPC   C4A35862  37.051  21.996   7.658
 2678POPC   C1B35863  36.919  22.250   8.607
 2678POPC   C2B35864  37.081  22.464   8.250
 2678POPC   C3B35865  36.859  22.658   7.885
 2678POPC   C4B35866  36.809  22.420   7.529
 2679POPC   NC335867   0.559   2.357   9.456
 2679POPC   PO435868   0.326   3.005   9.310
 2679POPC   GL135869   0.348   2.626   9.070
 2679POPC   GL235870   0.717   2.594   9.032
 2679POPC   C1A35871   0.382   2.549   8.627
 2679POPC   D2A35872   0.133   2.807   8.356
 2679POPC   C3A35873   0.226   2.801   7.923
 2679POPC   C4A35874   0.273   2.666   7.451
 2679POPC   C1B35875   1.039   2.331   8.820
 2679POPC   C2B35876   1.017   2.258   8.373
 2679POPC   C3B35877   0.656   2.449   8.107
 2679POPC   C4B35878   0.687   2.732   7.755
 2680POPC   NC335879   8.501   8.332   9.489
 2680POPC   PO435880   7.781   8.316   9.555
 2680POPC   GL135881   8.140   8.315   9.100
 2680POPC   GL235882   8.495   8.536   9.025
 2680POPC   C1A35883   7.999   8.184   8.692
 2680POPC   D2A35884   7.799   8.385   8.359
 2680POPC   C3A35885   8.028   8.307   8.021
 2680POPC   C4A35886   8.177   7.893   7.963
 2680POPC   C1B35887   8.507   8.223   8.755
 2680POPC   C2B35888   8.483   8.149   8.336
 2680POPC   C3B35889   8.523   8.370   7.972
 2680POPC   C4B35890   8.618   8.678   7.702
 2681POPC   NC335891  19.356  15.443   9.567
 2681POPC   PO435892  19.268  14.774   9.375
 2681POPC   GL135893  19.168  15.121   9.098
 2681POPC   GL235894  18.860  15.247   9.192
 2681POPC   C1A35895  18.988  15.108   8.662
 2681POPC   D2A35896  18.984  15.320   8.250
 2681POPC   C3A35897  19.281  15.290   7.901
 2681POPC   C4A35898  19.210  14.946   7.628
 2681POPC   C1B35899  18.546  15.489   8.930
 2681POPC   C2B35900  18.506  15.373   8.488
 2681POPC   C3B35901  18.531  15.481   8.043
 2681POPC   C4B35902  18.792  15.223   7.747
 2682POPC   NC335903  24.140  43.235   9.507
 2682POPC   PO435904  24.706  42.916   9.510
 2682POPC   GL135905  24.537  43.176   9.160
 2682POPC   GL235906  24.210  43.254   9.004
 2682POPC   C1A35907  24.601  43.031   8.741
 2682POPC   D2A35908  24.581  42.885   8.343
 2682POPC   C3A35909  24.549  43.204   8.047
 2682POPC   C4A35910  24.694  42.978   7.716
 2682POPC   C1B35911  24.028  43.544   8.724
 2682POPC   C2B35912  24.168  43.619   8.312
 2682POPC   C3B35913  24.072  43.454   7.916
 2682POPC   C4B35914  24.273  43.239   7.591
 2683POPC   NC335915  24.982   1.808   9.413
 2683POPC   PO435916  25.208   2.503   9.505
 2683POPC   GL135917  25.354   2.179   9.121
 2683POPC   GL235918  25.284   1.826   9.039
 2683POPC   C1A35919  25.554   1.965   8.673
 2683POPC   D2A35920  25.446   1.878   8.256
 2683POPC   C3A35921  25.455   2.202   7.935
 2683POPC   C4A35922  25.173   2.535   7.790
 2683POPC   C1B35923  25.079   1.635   8.707
 2683POPC   C2B35924  25.064   1.466   8.295
 2683POPC   C3B35925  25.102   1.700   7.917
 2683POPC   C4B35926  25.208   1.689   7.447
 2684POPC   NC335927  29.335  44.781   9.496
 2684POPC   PO435928  28.778  44.505   9.463
 2684POPC   GL135929  28.947  44.725   9.139
 2684POPC   GL235930  29.270  44.555   9.036
 2684POPC   C1A35931  28.838  44.695   8.725
 2684POPC   D2A35932  29.065  44.433   8.463
 2684POPC   C3A35933  29.067  44.508   8.042
 2684POPC   C4A35934  29.404  44.389   7.804
 2684POPC   C1B35935  29.293  44.903   8.750
 2684POPC   C2B35936  29.124  44.944   8.334
 2684POPC   C3B35937  29.358  44.925   7.922
 2684POPC   C4B35938  29.615   0.029   7.564
 2685POPC   NC335939  17.984  15.126   9.846
 2685POPC   PO435940  17.447  15.104   9.408
 2685POPC   GL135941  17.608  15.317   9.065
 2685POPC   GL235942  17.630  14.986   8.874
 2685POPC   C1A35943  17.602  15.451   8.640
 2685POPC   D2A35944  17.506  15.128   8.355
 2685POPC   C3A35945  17.583  15.161   7.939
 2685POPC   C4A35946  17.736  14.865   7.715
 2685POPC   C1B35947  17.194  15.133   8.766
 2685POPC   C2B35948  17.035  15.378   8.426
 2685POPC   C3B35949  17.048  15.225   8.040
 2685POPC   C4B35950  17.200  15.423   7.714
 2686POPC   NC335951  12.527  22.408   9.441
 2686POPC   PO435952  13.153  22.164   9.509
 2686POPC   GL135953  12.928  22.188   9.154
 2686POPC   GL235954  12.984  22.531   9.173
 2686POPC   C1A35955  12.767  22.048   8.766
 2686POPC   D2A35956  12.811  21.898   8.347
 2686POPC   C3A35957  12.515  21.957   8.059
 2686POPC   C4A35958  12.685  21.803   7.692
 2686POPC   C1B35959  12.738  22.618   8.811
 2686POPC   C2B35960  12.688  22.419   8.416
 2686POPC   C3B35961  12.789  22.378   7.994
 2686POPC   C4B35962  12.510  22.294   7.655
 2687POPC   NC335963   8.457  26.737   9.715
 2687POPC   PO435964   7.812  26.977   9.559
 2687POPC   GL135965   8.048  27.094   9.183
 2687POPC   GL235966   8.365  26.956   9.213
 2687POPC   C1A35967   8.186  27.148   8.736
 2687POPC   D2A35968   8.252  26.856   8.361
 2687POPC   C3A35969   8.132  26.915   7.923
 2687POPC   C4A35970   7.864  27.200   7.668
 2687POPC   C1B35971   8.326  26.650   8.836
 2687POPC   C2B35972   8.141  26.359   8.507
 2687POPC   C3B35973   8.265  26.315   8.051
 2687POPC   C4B35974   8.404  26.524   7.651
 2688POPC   NC335975  21.858  39.524   9.433
 2688POPC   PO435976  22.370  39.019   9.460
 2688POPC   GL135977  22.086  39.153   9.139
 2688POPC   GL235978  22.175  39.488   9.047
 2688POPC   C1A35979  21.913  39.049   8.737
 2688POPC   D2A35980  22.143  38.960   8.361
 2688POPC   C3A35981  22.158  39.191   8.000
 2688POPC   C4A35982  22.361  38.993   7.667
 2688POPC   C1B35983  21.862  39.542   8.757
 2688POPC   C2B35984  21.731  39.355   8.350
 2688POPC   C3B35985  21.791  39.580   7.983
 2688POPC   C4B35986  21.993  39.524   7.606
 2689POPC   NC335987  10.985  34.670   9.565
 2689POPC   PO435988  10.316  34.784   9.500
 2689POPC   GL135989  10.425  34.512   9.164
 2689POPC   GL235990  10.754  34.582   9.134
 2689POPC   C1A35991  10.429  34.599   8.715
 2689POPC   D2A35992  10.205  34.677   8.323
 2689POPC   C3A35993  10.466  34.629   7.925
 2689POPC   C4A35994  10.548  34.419   7.496
 2689POPC   C1B35995  10.857  34.302   8.850
 2689POPC   C2B35996  10.740  34.198   8.485
 2689POPC   C3B35997  10.975  34.206   8.124
 2689POPC   C4B35998  10.953  34.485   7.776
 2690POPC   NC335999  43.481  40.516   9.523
 2690POPC   PO436000  44.136  40.690   9.581
 2690POPC   GL136001  43.845  40.785   9.270
 2690POPC   GL236002  43.818  40.447   9.140
 2690POPC   C1A36003  43.877  41.074   8.935
 2690POPC   D2A36004  43.765  41.036   8.519
 2690POPC   C3A36005  43.738  41.061   8.083
 2690POPC   C4A36006  44.029  41.006   7.754
 2690POPC   C1B36007  43.942  40.586   8.738
 2690POPC   C2B36008  43.879  40.588   8.302
 2690POPC   C3B36009  43.841  40.532   7.900
 2690POPC   C4B36010  43.466  40.314   7.802
 2691POPC   NC336011  27.778  11.400   9.488
 2691POPC   PO436012  27.419  10.771   9.432
 2691POPC   GL136013  27.406  11.154   9.169
 2691POPC   GL236014  27.339  11.496   9.183
 2691POPC   C1A36015  27.713  11.365   8.833
 2691POPC   D2A36016  27.675  11.495   8.369
 2691POPC   C3A36017  27.808  11.196   8.018
 2691POPC   C4A36018  27.525  10.910   7.789
 2691POPC   C1B36019  27.223  11.314   8.731
 2691POPC   C2B36020  27.091  11.463   8.317
 2691POPC   C3B36021  27.348  11.419   7.948
 2691POPC   C4B36022  27.727  11.700   7.877
 2692POPC   NC336023   5.236   7.321   9.607
 2692POPC   PO436024   4.710   7.740   9.557
 2692POPC   GL136025   4.923   7.529   9.183
 2692POPC   GL236026   5.261   7.383   9.113
 2692POPC   C1A36027   5.052   7.638   8.738
 2692POPC   D2A36028   5.265   7.433   8.380
 2692POPC   C3A36029   5.114   7.618   7.994
 2692POPC   C4A36030   4.692   7.628   7.825
 2692POPC   C1B36031   4.979   7.153   8.810
 2692POPC   C2B36032   4.966   7.006   8.368
 2692POPC   C3B36033   5.098   7.093   7.924
 2692POPC   C4B36034   5.448   6.961   7.655
 2693POPC   NC336035   0.161   5.545   9.375
 2693POPC   PO436036   0.487   6.039   9.646
 2693POPC   GL136037   0.559   6.018   9.227
 2693POPC   GL236038   0.629   5.697   9.218
 2693POPC   C1A36039   0.332   5.924   8.852
 2693POPC   D2A36040   0.093   6.049   8.506
 2693POPC   C3A36041   0.317   5.986   8.136
 2693POPC   C4A36042   0.353   5.795   7.756
 2693POPC   C1B36043   0.811   5.695   8.844
 2693POPC   C2B36044   0.640   5.774   8.474
 2693POPC   C3B36045   0.681   5.603   8.093
 2693POPC   C4B36046   0.630   5.381   7.708
 2694POPC   NC336047   9.543   7.200   9.814
 2694POPC   PO436048   9.966   7.305   9.314
 2694POPC   GL136049   9.940   7.373   8.948
 2694POPC   GL236050   9.660   7.589   8.958
 2694POPC   C1A36051   9.971   7.462   8.530
 2694POPC   D2A36052   9.745   7.376   8.185
 2694POPC   C3A36053   9.633   7.723   7.979
 2694POPC   C4A36054   9.906   7.774   7.630
 2694POPC   C1B36055   9.549   7.211   8.661
 2694POPC   C2B36056   9.284   7.198   8.359
 2694POPC   C3B36057   9.313   7.271   7.902
 2694POPC   C4B36058   9.637   7.338   7.636
 2695POPC   NC336059  24.815  10.961   9.949
 2695POPC   PO436060  24.320  10.451   9.673
 2695POPC   GL136061  24.494  10.426   9.242
 2695POPC   GL236062  24.526  10.081   9.226
 2695POPC   C1A36063  24.725  10.366   8.831
 2695POPC   D2A36064  24.831  10.680   8.490
 2695POPC   C3A36065  24.647  10.688   8.083
 2695POPC   C4A36066  24.820  10.318   7.908
 2695POPC   C1B36067  24.272  10.141   8.854
 2695POPC   C2B36068  24.345  10.400   8.495
 2695POPC   C3B36069  24.356  10.280   8.095
 2695POPC   C4B36070  24.200  10.212   7.710
 2696POPC   NC336071   6.143  15.021   9.813
 2696POPC   PO436072   5.579  15.370   9.450
 2696POPC   GL136073   5.887  15.333   9.161
 2696POPC   GL236074   5.789  15.030   9.038
 2696POPC   C1A36075   5.880  15.410   8.712
 2696POPC   D2A36076   6.119  15.367   8.319
 2696POPC   C3A36077   5.864  15.459   7.950
 2696POPC   C4A36078   5.489  15.265   7.752
 2696POPC   C1B36079   6.067  14.876   8.782
 2696POPC   C2B36080   5.938  14.875   8.367
 2696POPC   C3B36081   5.864  14.943   7.949
 2696POPC   C4B36082   6.058  14.738   7.632
 2697POPC   NC336083   7.322  15.387   9.412
 2697POPC   PO436084   6.869  14.865   9.397
 2697POPC   GL136085   7.186  15.046   9.064
 2697POPC   GL236086   7.570  15.195   9.012
 2697POPC   C1A36087   7.297  15.120   8.619
 2697POPC   D2A36088   7.697  15.055   8.485
 2697POPC   C3A36089   7.720  15.197   8.083
 2697POPC   C4A36090   7.283  15.178   7.943
 2697POPC   C1B36091   7.634  15.500   8.708
 2697POPC   C2B36092   7.395  15.535   8.322
 2697POPC   C3B36093   7.344  15.680   7.901
 2697POPC   C4B36094   7.767  15.711   7.776
 2698POPC   NC336095  39.286  27.424   9.499
 2698POPC   PO436096  39.365  28.112   9.505
 2698POPC   GL136097  39.355  27.823   9.181
 2698POPC   GL236098  39.012  27.742   9.147
 2698POPC   C1A36099  39.354  27.608   8.774
 2698POPC   D2A36100  39.215  27.641   8.321
 2698POPC   C3A36101  39.401  27.455   7.937
 2698POPC   C4A36102  39.284  27.479   7.513
 2698POPC   C1B36103  38.862  27.479   8.772
 2698POPC   C2B36104  38.743  27.415   8.327
 2698POPC   C3B36105  38.872  27.434   7.898
 2698POPC   C4B36106  38.869  27.846   7.701
 2699POPC   NC336107  19.586  34.198   9.444
 2699POPC   PO436108  20.113  34.493   9.757
 2699POPC   GL136109  20.005  34.562   9.309
 2699POPC   GL236110  20.167  34.814   9.106
 2699POPC   C1A36111  19.696  34.671   8.954
 2699POPC   D2A36112  19.579  34.827   8.521
 2699POPC   C3A36113  19.550  34.529   8.189
 2699POPC   C4A36114  19.634  34.546   7.767
 2699POPC   C1B36115  20.147  34.432   8.833
 2699POPC   C2B36116  19.933  34.238   8.447
 2699POPC   C3B36117  20.023  34.310   8.009
 2699POPC   C4B36118  20.130  34.636   7.690
 2700POPC   NC336119  15.102  18.473   9.251
 2700POPC   PO436120  15.276  17.865   9.521
 2700POPC   GL136121  15.095  17.955   9.132
 2700POPC   GL236122  15.384  18.066   8.918
 2700POPC   C1A36123  14.907  18.119   8.737
 2700POPC   D2A36124  15.110  18.081   8.329
 2700POPC   C3A36125  14.976  18.226   7.902
 2700POPC   C4A36126  14.980  18.645   7.694
 2700POPC   C1B36127  15.291  18.452   8.636
 2700POPC   C2B36128  15.190  18.594   8.230
 2700POPC   C3B36129  15.447  18.585   7.887
 2700POPC   C4B36130  15.469  18.601   7.452
 2701POPC   NC336131  16.822  13.001   9.550
 2701POPC   PO436132  16.535  12.400   9.459
 2701POPC   GL136133  16.455  12.787   9.177
 2701POPC   GL236134  16.729  13.066   9.069
 2701POPC   C1A36135  16.368  12.912   8.755
 2701POPC   D2A36136  16.653  13.026   8.422
 2701POPC   C3A36137  16.488  12.894   8.011
 2701POPC   C4A36138  16.701  12.956   7.658
 2701POPC   C1B36139  16.877  12.718   8.817
 2701POPC   C2B36140  17.008  12.540   8.424
 2701POPC   C3B36141  16.957  12.701   8.039
 2701POPC   C4B36142  17.196  12.773   7.685
 2702POPC   NC336143  29.811  37.256   9.607
 2702POPC   PO436144  30.122  37.877   9.509
 2702POPC   GL136145  30.053  37.557   9.205
 2702POPC   GL236146  29.676  37.487   9.190
 2702POPC   C1A36147  29.913  37.697   8.793
 2702POPC   D2A36148  30.027  37.899   8.413
 2702POPC   C3A36149  29.667  37.968   8.146
 2702POPC   C4A36150  29.912  37.681   7.918
 2702POPC   C1B36151  29.477  37.416   8.803
 2702POPC   C2B36152  29.610  37.536   8.399
 2702POPC   C3B36153  29.492  37.414   7.990
 2702POPC   C4B36154  29.832  37.185   7.785
 2703POPC   NC336155  15.724  21.518   9.557
 2703POPC   PO436156  16.237  21.104   9.447
 2703POPC   GL136157  16.013  21.352   9.169
 2703POPC   GL236158  16.079  21.700   9.136
 2703POPC   C1A36159  15.916  21.359   8.751
 2703POPC   D2A36160  16.216  21.247   8.425
 2703POPC   C3A36161  15.970  21.169   8.057
 2703POPC   C4A36162  15.731  21.196   7.680
 2703POPC   C1B36163  16.252  21.723   8.720
 2703POPC   C2B36164  15.997  21.714   8.330
 2703POPC   C3B36165  15.932  21.646   7.885
 2703POPC   C4B36166  15.661  21.686   7.520
 2704POPC   NC336167  19.568  43.057   9.564
 2704POPC   PO436168  20.271  43.052   9.599
 2704POPC   GL136169  19.950  43.080   9.214
 2704POPC   GL236170  19.825  43.426   9.156
 2704POPC   C1A36171  19.750  43.097   8.750
 2704POPC   D2A36172  19.654  42.778   8.463
 2704POPC   C3A36173  19.550  42.970   8.089
 2704POPC   C4A36174  19.639  43.206   7.765
 2704POPC   C1B36175  19.804  43.597   8.709
 2704POPC   C2B36176  19.760  43.456   8.254
 2704POPC   C3B36177  19.766  43.678   7.855
 2704POPC   C4B36178  20.047  43.388   7.553
 2705POPC   NC336179  22.575   0.786   9.453
 2705POPC   PO436180  22.938   1.424   9.550
 2705POPC   GL136181  22.937   1.457   9.150
 2705POPC   GL236182  22.745   1.156   9.087
 2705POPC   C1A36183  22.857   1.538   8.720
 2705POPC   D2A36184  22.719   1.216   8.408
 2705POPC   C3A36185  23.031   1.069   8.111
 2705POPC   C4A36186  23.067   1.336   7.774
 2705POPC   C1B36187  22.499   0.878   8.806
 2705POPC   C2B36188  22.362   0.854   8.395
 2705POPC   C3B36189  22.564   0.861   8.044
 2705POPC   C4B36190  22.799   0.842   7.683
 2706POPC   NC336191   9.628   0.886   9.471
 2706POPC   PO436192  10.090   1.421   9.492
 2706POPC   GL136193   9.819   1.435   9.116
 2706POPC   GL236194   9.726   1.119   9.054
 2706POPC   C1A36195   9.735   1.420   8.653
 2706POPC   D2A36196   9.842   1.722   8.338
 2706POPC   C3A36197   9.912   1.525   7.959
 2706POPC   C4A36198   9.841   1.078   7.833
 2706POPC   C1B36199   9.633   0.815   8.747
 2706POPC   C2B36200   9.777   0.767   8.343
 2706POPC   C3B36201   9.459   0.802   8.055
 2706POPC   C4B36202   9.327   1.057   7.741
 2707POPC   NC336203  14.331  21.018   9.504
 2707POPC   PO436204  14.728  21.570   9.446
 2707POPC   GL136205  14.579  21.339   9.102
 2707POPC   GL236206  14.244  21.383   9.155
 2707POPC   C1A36207  14.395  21.505   8.689
 2707POPC   D2A36208  14.204  21.553   8.284
 2707POPC   C3A36209  14.472  21.324   8.036
 2707POPC   C4A36210  14.587  21.350   7.641
 2707POPC   C1B36211  14.150  21.066   8.868
 2707POPC   C2B36212  14.233  21.044   8.450
 2707POPC   C3B36213  14.018  21.103   8.091
 2707POPC   C4B36214  14.057  21.364   7.734
 2708POPC   NC336215  27.544  29.952   9.642
 2708POPC   PO436216  27.426  29.422   9.175
 2708POPC   GL136217  27.376  29.705   8.941
 2708POPC   GL236218  27.384  29.992   9.146
 2708POPC   C1A36219  27.378  29.697   8.504
 2708POPC   D2A36220  27.751  29.743   8.274
 2708POPC   C3A36221  27.601  29.867   7.879
 2708POPC   C4A36222  27.855  29.958   7.558
 2708POPC   C1B36223  27.521  30.144   8.713
 2708POPC   C2B36224  27.458  30.171   8.258
 2708POPC   C3B36225  27.460  30.347   7.837
 2708POPC   C4B36226  27.409  30.147   7.413
 2709POPC   NC336227  43.775  31.981   9.465
 2709POPC   PO436228  43.567  32.685   9.327
 2709POPC   GL136229  43.880  32.338   9.119
 2709POPC   GL236230  43.743  32.010   8.965
 2709POPC   C1A36231  44.113  32.242   8.735
 2709POPC   D2A36232  44.201  32.370   8.340
 2709POPC   C3A36233  44.178  32.077   8.010
 2709POPC   C4A36234  44.193  32.277   7.658
 2709POPC   C1B36235  43.548  32.389   8.756
 2709POPC   C2B36236  43.428  32.417   8.367
 2709POPC   C3B36237  43.750  32.375   8.059
 2709POPC   C4B36238  43.708  32.217   7.643
 2710POPC   NC336239  31.310  37.034   9.511
 2710POPC   PO436240  31.987  36.864   9.516
 2710POPC   GL136241  31.741  36.872   9.146
 2710POPC   GL236242  31.381  36.888   9.050
 2710POPC   C1A36243  31.719  37.065   8.748
 2710POPC   D2A36244  31.440  36.921   8.441
 2710POPC   C3A36245  31.667  36.736   8.091
 2710POPC   C4A36246  31.734  37.117   7.910
 2710POPC   C1B36247  31.091  37.096   8.785
 2710POPC   C2B36248  30.899  36.903   8.417
 2710POPC   C3B36249  31.142  36.729   8.071
 2710POPC   C4B36250  31.314  36.882   7.731
 2711POPC   NC336251  34.848  28.229   9.532
 2711POPC   PO436252  34.279  28.431   9.574
 2711POPC   GL136253  34.408  28.521   9.153
 2711POPC   GL236254  34.121  28.376   8.977
 2711POPC   C1A36255  34.610  28.375   8.780
 2711POPC   D2A36256  34.386  28.300   8.391
 2711POPC   C3A36257  34.640  28.342   8.027
 2711POPC   C4A36258  34.634  28.607   7.658
 2711POPC   C1B36259  34.234  28.736   8.707
 2711POPC   C2B36260  34.371  28.836   8.301
 2711POPC   C3B36261  34.219  28.632   7.951
 2711POPC   C4B36262  34.251  28.282   7.703
 2712POPC   NC336263  10.701  27.185   9.533
 2712POPC   PO436264  10.408  26.607   9.725
 2712POPC   GL136265  10.591  26.713   9.308
 2712POPC   GL236266  10.671  26.422   9.150
 2712POPC   C1A36267  10.546  26.874   8.869
 2712POPC   D2A36268  10.784  26.907   8.463
 2712POPC   C3A36269  10.587  26.965   8.109
 2712POPC   C4A36270  10.589  27.087   7.721
 2712POPC   C1B36271  10.536  26.355   8.699
 2712POPC   C2B36272  10.416  26.508   8.270
 2712POPC   C3B36273  10.365  26.616   7.814
 2712POPC   C4B36274  10.642  26.423   7.493
 2713POPC   NC336275  42.597  11.184   9.601
 2713POPC   PO436276  41.975  11.337   9.474
 2713POPC   GL136277  42.181  11.284   9.081
 2713POPC   GL236278  42.540  11.333   9.092
 2713POPC   C1A36279  42.236  11.263   8.633
 2713POPC   D2A36280  42.055  11.460   8.275
 2713POPC   C3A36281  42.187  11.217   7.943
 2713POPC   C4A36282  42.353  11.197   7.527
 2713POPC   C1B36283  42.739  11.229   8.686
 2713POPC   C2B36284  42.596  11.222   8.251
 2713POPC   C3B36285  42.787  11.140   7.852
 2713POPC   C4B36286  43.028  11.043   7.461
 2714POPC   NC336287  34.158  32.336   9.566
 2714POPC   PO436288  34.706  31.925   9.575
 2714POPC   GL136289  34.599  32.206   9.248
 2714POPC   GL236290  34.300  32.070   9.143
 2714POPC   C1A36291  34.513  32.466   8.838
 2714POPC   D2A36292  34.623  32.667   8.415
 2714POPC   C3A36293  34.521  32.491   7.991
 2714POPC   C4A36294  34.319  32.495   7.544
 2714POPC   C1B36295  34.610  31.970   8.793
 2714POPC   C2B36296  34.627  32.148   8.402
 2714POPC   C3B36297  34.516  31.975   8.034
 2714POPC   C4B36298  34.597  32.106   7.649
 2715POPC   NC336299  20.687  38.036   9.598
 2715POPC   PO436300  20.277  37.553   9.492
 2715POPC   GL136301  20.486  37.581   9.104
 2715POPC   GL236302  20.754  37.814   9.137
 2715POPC   C1A36303  20.656  37.601   8.680
 2715POPC   D2A36304  20.832  37.719   8.267
 2715POPC   C3A36305  20.554  37.809   7.891
 2715POPC   C4A36306  20.250  37.632   7.569
 2715POPC   C1B36307  21.005  37.980   8.778
 2715POPC   C2B36308  20.882  38.205   8.398
 2715POPC   C3B36309  20.974  38.113   7.962
 2715POPC   C4B36310  20.966  37.847   7.589
 2716POPC   NC336311   3.052  32.815   9.460
 2716POPC   PO436312   3.003  33.481   9.365
 2716POPC   GL136313   2.865  33.123   9.103
 2716POPC   GL236314   2.713  32.719   9.107
 2716POPC   C1A36315   2.854  33.065   8.694
 2716POPC   D2A36316   2.958  33.230   8.354
 2716POPC   C3A36317   2.736  33.383   8.012
 2716POPC   C4A36318   2.757  33.380   7.560
 2716POPC   C1B36319   2.917  32.568   8.772
 2716POPC   C2B36320   2.971  32.674   8.345
 2716POPC   C3B36321   3.019  32.916   7.979
 2716POPC   C4B36322   2.674  32.927   7.741
 2717POPC   NC336323   5.497  20.120   9.542
 2717POPC   PO436324   5.690  19.460   9.484
 2717POPC   GL136325   5.971  19.617   9.154
 2717POPC   GL236326   6.017  19.957   9.049
 2717POPC   C1A36327   6.012  19.539   8.716
 2717POPC   D2A36328   5.788  19.563   8.318
 2717POPC   C3A36329   5.952  19.765   7.965
 2717POPC   C4A36330   5.608  19.916   7.715
 2717POPC   C1B36331   5.764  20.057   8.716
 2717POPC   C2B36332   6.012  20.152   8.362
 2717POPC   C3B36333   6.249  20.193   8.016
 2717POPC   C4B36334   6.066  20.152   7.614
 2718POPC   NC336335  14.352  35.432   9.593
 2718POPC   PO436336  14.430  34.852   9.802
 2718POPC   GL136337  14.458  35.069   9.252
 2718POPC   GL236338  14.363  35.427   9.096
 2718POPC   C1A36339  14.352  35.078   8.739
 2718POPC   D2A36340  14.125  35.243   8.345
 2718POPC   C3A36341  14.346  35.270   7.954
 2718POPC   C4A36342  14.663  35.542   7.856
 2718POPC   C1B36343  13.982  35.499   8.806
 2718POPC   C2B36344  13.870  35.709   8.407
 2718POPC   C3B36345  13.958  35.582   7.969
 2718POPC   C4B36346  14.198  35.737   7.647
 2719POPC   NC336347  24.457   0.386   9.649
 2719POPC   PO436348  24.475   1.015   9.623
 2719POPC   GL136349  24.434   0.710   9.238
 2719POPC   GL236350  24.555   0.328   9.162
 2719POPC   C1A36351  24.268   0.576   8.832
 2719POPC   D2A36352  24.505   0.500   8.484
 2719POPC   C3A36353  24.296   0.568   8.112
 2719POPC   C4A36354  24.477   0.493   7.723
 2719POPC   C1B36355  24.851   0.217   8.816
 2719POPC   C2B36356  24.984   0.004   8.413
 2719POPC   C3B36357  24.903   0.169   8.000
 2719POPC   C4B36358  24.711   0.037   7.627
 2720POPC   NC336359  19.614   6.846   9.467
 2720POPC   PO436360  20.164   6.477   9.458
 2720POPC   GL136361  19.981   6.393   9.062
 2720POPC   GL236362  19.647   6.508   9.049
 2720POPC   C1A36363  19.957   6.375   8.596
 2720POPC   D2A36364  19.841   6.560   8.205
 2720POPC   C3A36365  19.825   6.270   7.911
 2720POPC   C4A36366  19.425   6.087   7.766
 2720POPC   C1B36367  19.471   6.496   8.604
 2720POPC   C2B36368  19.182   6.569   8.266
 2720POPC   C3B36369  19.321   6.855   7.961
 2720POPC   C4B36370  19.655   6.689   7.708
 2721POPC   NC336371  24.887   6.829   9.421
 2721POPC   PO436372  24.285   6.642   9.681
 2721POPC   GL136373  24.375   6.747   9.272
 2721POPC   GL236374  24.578   6.472   9.198
 2721POPC   C1A36375  24.393   6.840   8.810
 2721POPC   D2A36376  24.270   6.954   8.381
 2721POPC   C3A36377  24.296   6.707   8.013
 2721POPC   C4A36378  24.139   6.330   7.831
 2721POPC   C1B36379  24.674   6.411   8.755
 2721POPC   C2B36380  24.664   6.537   8.315
 2721POPC   C3B36381  24.650   6.313   7.899
 2721POPC   C4B36382  24.885   6.337   7.504
 2722POPC   NC336383  15.498   9.496   9.516
 2722POPC   PO436384  15.130  10.114   9.481
 2722POPC   GL136385  15.280   9.863   9.156
 2722POPC   GL236386  15.187   9.529   9.091
 2722POPC   C1A36387  15.191   9.873   8.718
 2722POPC   D2A36388  15.352  10.058   8.407
 2722POPC   C3A36389  15.142  10.025   8.087
 2722POPC   C4A36390  15.283  10.113   7.702
 2722POPC   C1B36391  15.006   9.385   8.719
 2722POPC   C2B36392  15.135   9.530   8.317
 2722POPC   C3B36393  15.324   9.552   7.910
 2722POPC   C4B36394  15.220   9.610   7.479
 2723POPC   NC336395  34.143   6.756   9.372
 2723POPC   PO436396  34.841   6.621   9.399
 2723POPC   GL136397  34.526   6.489   9.096
 2723POPC   GL236398  34.227   6.234   9.132
 2723POPC   C1A36399  34.625   6.306   8.700
 2723POPC   D2A36400  34.798   6.363   8.270
 2723POPC   C3A36401  34.692   6.731   8.050
 2723POPC   C4A36402  34.710   6.568   7.659
 2723POPC   C1B36403  34.138   6.514   8.747
 2723POPC   C2B36404  34.314   6.536   8.355
 2723POPC   C3B36405  34.303   6.348   7.983
 2723POPC   C4B36406  34.209   6.606   7.653
 2724POPC   NC336407  10.908  26.460   9.643
 2724POPC   PO436408  10.331  26.055   9.644
 2724POPC   GL136409  10.420  25.985   9.206
 2724POPC   GL236410  10.798  25.930   9.268
 2724POPC   C1A36411  10.292  25.903   8.736
 2724POPC   D2A36412  10.606  26.005   8.333
 2724POPC   C3A36413  10.493  26.119   7.913
 2724POPC   C4A36414  10.110  26.189   7.700
 2724POPC   C1B36415  10.778  25.884   8.818
 2724POPC   C2B36416  10.644  25.554   8.529
 2724POPC   C3B36417  10.867  25.554   8.140
 2724POPC   C4B36418  10.956  25.880   7.837
 2725POPC   NC336419   6.442  13.503   9.645
 2725POPC   PO436420   5.841  13.850   9.608
 2725POPC   GL136421   6.003  13.629   9.262
 2725POPC   GL236422   6.267  13.851   9.305
 2725POPC   C1A36423   5.919  13.589   8.812
 2725POPC   D2A36424   5.710  13.533   8.412
 2725POPC   C3A36425   5.992  13.509   8.044
 2725POPC   C4A36426   6.110  13.473   7.609
 2725POPC   C1B36427   6.345  13.842   8.876
 2725POPC   C2B36428   6.164  13.980   8.487
 2725POPC   C3B36429   5.974  14.013   8.075
 2725POPC   C4B36430   5.774  13.864   7.700
 2726POPC   NC336431  35.885  31.708   9.694
 2726POPC   PO436432  36.210  32.342   9.722
 2726POPC   GL136433  36.264  32.434   9.197
 2726POPC   GL236434  36.574  32.394   9.012
 2726POPC   C1A36435  36.063  32.409   8.765
 2726POPC   D2A36436  35.968  32.162   8.390
 2726POPC   C3A36437  36.008  32.448   8.054
 2726POPC   C4A36438  35.891  32.383   7.649
 2726POPC   C1B36439  36.381  32.001   8.860
 2726POPC   C2B36440  36.408  31.838   8.419
 2726POPC   C3B36441  36.355  32.064   8.024
 2726POPC   C4B36442  36.436  32.433   7.769
 2727POPC   NC336443   7.430  29.028   9.505
 2727POPC   PO436444   7.827  29.595   9.391
 2727POPC   GL136445   7.575  29.356   9.141
 2727POPC   GL236446   7.205  29.358   9.171
 2727POPC   C1A36447   7.563  29.086   8.793
 2727POPC   D2A36448   7.749  29.144   8.376
 2727POPC   C3A36449   7.562  28.915   8.043
 2727POPC   C4A36450   7.914  28.937   7.815
 2727POPC   C1B36451   7.261  29.513   8.750
 2727POPC   C2B36452   7.253  29.264   8.390
 2727POPC   C3B36453   7.395  29.388   7.972
 2727POPC   C4B36454   7.583  29.227   7.554
 2728POPC   NC336455  42.731  27.496   9.442
 2728POPC   PO436456  42.217  27.902   9.608
 2728POPC   GL136457  42.291  27.575   9.244
 2728POPC   GL236458  42.274  27.226   9.346
 2728POPC   C1A36459  42.448  27.687   8.804
 2728POPC   D2A36460  42.277  27.806   8.388
 2728POPC   C3A36461  42.576  27.762   8.057
 2728POPC   C4A36462  42.523  27.563   7.672
 2728POPC   C1B36463  42.405  27.177   8.895
 2728POPC   C2B36464  42.481  27.335   8.447
 2728POPC   C3B36465  42.233  27.344   8.102
 2728POPC   C4B36466  42.128  27.173   7.723
 2729POPC   NC336467   5.019  34.927   9.390
 2729POPC   PO436468   5.122  34.311   9.460
 2729POPC   GL136469   5.250  34.528   9.106
 2729POPC   GL236470   5.475  34.802   9.149
 2729POPC   C1A36471   4.984  34.560   8.767
 2729POPC   D2A36472   5.026  34.315   8.419
 2729POPC   C3A36473   4.998  34.434   8.009
 2729POPC   C4A36474   4.900  34.526   7.591
 2729POPC   C1B36475   5.393  34.836   8.694
 2729POPC   C2B36476   5.066  34.855   8.347
 2729POPC   C3B36477   5.104  34.913   7.907
 2729POPC   C4B36478   5.518  34.970   7.810
 2730POPC   NC336479  14.104  14.462   9.455
 2730POPC   PO436480  13.497  14.630   9.663
 2730POPC   GL136481  13.684  14.309   9.243
 2730POPC   GL236482  14.011  14.115   9.096
 2730POPC   C1A36483  13.616  14.244   8.789
 2730POPC   D2A36484  13.339  14.449   8.472
 2730POPC   C3A36485  13.557  14.567   8.094
 2730POPC   C4A36486  13.574  14.538   7.680
 2730POPC   C1B36487  14.118  14.032   8.662
 2730POPC   C2B36488  13.865  14.188   8.307
 2730POPC   C3B36489  13.677  14.098   7.910
 2730POPC   C4B36490  13.833  14.146   7.488
 2731POPC   NC336491  25.492  36.243   9.557
 2731POPC   PO436492  24.969  36.519   9.212
 2731POPC   GL136493  25.319  36.361   9.071
 2731POPC   GL236494  25.392  36.031   9.118
 2731POPC   C1A36495  25.358  36.299   8.669
 2731POPC   D2A36496  25.457  36.024   8.391
 2731POPC   C3A36497  25.299  36.214   8.030
 2731POPC   C4A36498  25.344  36.305   7.610
 2731POPC   C1B36499  25.207  35.799   8.808
 2731POPC   C2B36500  25.315  35.524   8.480
 2731POPC   C3B36501  25.388  35.650   8.070
 2731POPC   C4B36502  25.115  35.827   7.750
 2732POPC   NC336503  44.087   7.356   9.405
 2732POPC   PO436504  43.461   7.706   9.527
 2732POPC   GL136505  43.673   7.525   9.153
 2732POPC   GL236506  43.756   7.162   9.089
 2732POPC   C1A36507  43.891   7.506   8.738
 2732POPC   D2A36508  43.779   7.601   8.320
 2732POPC   C3A36509  44.075   7.524   7.965
 2732POPC   C4A36510  44.100   7.717   7.547
 2732POPC   C1B36511  43.851   6.950   8.741
 2732POPC   C2B36512  43.988   7.099   8.344
 2732POPC   C3B36513  44.186   7.026   7.952
 2732POPC   C4B36514  43.920   7.148   7.600
 2733POPC   NC336515   3.091   7.795   9.403
 2733POPC   PO436516   2.727   8.309   9.649
 2733POPC   GL136517   2.871   8.272   9.235
 2733POPC   GL236518   2.674   7.970   9.165
 2733POPC   C1A36519   2.977   8.425   8.822
 2733POPC   D2A36520   2.765   8.415   8.424
 2733POPC   C3A36521   2.889   8.161   8.085
 2733POPC   C4A36522   2.736   8.179   7.672
 2733POPC   C1B36523   2.491   7.787   8.821
 2733POPC   C2B36524   2.547   7.918   8.423
 2733POPC   C3B36525   2.383   7.786   8.042
 2733POPC   C4B36526   2.383   7.829   7.613
 2734POPC   NC336527  22.645   3.563   9.430
 2734POPC   PO436528  23.235   3.896   9.535
 2734POPC   GL136529  23.108   3.748   9.123
 2734POPC   GL236530  22.767   3.765   8.958
 2734POPC   C1A36531  23.117   3.472   8.776
 2734POPC   D2A36532  22.940   3.691   8.423
 2734POPC   C3A36533  23.076   3.507   8.068
 2734POPC   C4A36534  23.326   3.657   7.765
 2734POPC   C1B36535  22.594   3.469   8.716
 2734POPC   C2B36536  22.424   3.439   8.314
 2734POPC   C3B36537  22.520   3.358   7.905
 2734POPC   C4B36538  22.850   3.323   7.636
 2735POPC   NC336539  27.237  23.566   9.544
 2735POPC   PO436540  27.973  23.568   9.617
 2735POPC   GL136541  27.829  23.542   9.150
 2735POPC   GL236542  27.511  23.765   9.118
 2735POPC   C1A36543  27.851  23.655   8.698
 2735POPC   D2A36544  28.056  23.642   8.291
 2735POPC   C3A36545  27.788  23.538   7.975
 2735POPC   C4A36546  27.644  23.921   7.790
 2735POPC   C1B36547  27.420  23.941   8.717
 2735POPC   C2B36548  27.504  23.839   8.300
 2735POPC   C3B36549  27.206  23.732   7.981
 2735POPC   C4B36550  27.121  23.874   7.573
 2736POPC   NC336551  13.925   9.224   9.473
 2736POPC   PO436552  13.683   9.838   9.627
 2736POPC   GL136553  13.688   9.770   9.182
 2736POPC   GL236554  13.627  10.072   9.013
 2736POPC   C1A36555  13.876   9.570   8.848
 2736POPC   D2A36556  14.126   9.474   8.501
 2736POPC   C3A36557  14.099   9.721   8.162
 2736POPC   C4A36558  13.803   9.522   7.900
 2736POPC   C1B36559  13.819  10.038   8.635
 2736POPC   C2B36560  13.624   9.795   8.340
 2736POPC   C3B36561  13.559   9.973   7.962
 2736POPC   C4B36562  13.319  10.144   7.671
 2737POPC   NC336563  14.247   0.133   9.812
 2737POPC   PO436564  14.728  44.730   9.598
 2737POPC   GL136565  14.462  44.627   9.234
 2737POPC   GL236566  14.283  44.911   9.124
 2737POPC   C1A36567  14.295  44.487   8.823
 2737POPC   D2A36568  14.329  44.724   8.409
 2737POPC   C3A36569  14.392  44.564   7.954
 2737POPC   C4A36570  14.258  44.731   7.511
 2737POPC   C1B36571  13.984  44.908   8.794
 2737POPC   C2B36572  13.939   0.073   8.387
 2737POPC   C3B36573  14.186   0.033   8.005
 2737POPC   C4B36574  14.083   0.227   7.644
 2738POPC   NC336575  44.267  18.139   9.702
 2738POPC   PO436576  43.750  18.514   9.729
 2738POPC   GL136577  43.861  18.498   9.242
 2738POPC   GL236578  43.968  18.139   9.204
 2738POPC   C1A36579  43.932  18.403   8.747
 2738POPC   D2A36580  44.178  18.558   8.353
 2738POPC   C3A36581  43.991  18.465   8.004
 2738POPC   C4A36582  43.596  18.640   7.833
 2738POPC   C1B36583  43.533  18.182   8.986
 2738POPC   C2B36584  43.474  18.243   8.527
 2738POPC   C3B36585  43.613  18.160   8.099
 2738POPC   C4B36586  44.018  17.894   8.105
 2739POPC   NC336587  27.020  40.343   9.591
 2739POPC   PO436588  26.917  39.681   9.610
 2739POPC   GL136589  26.929  39.973   9.225
 2739POPC   GL236590  27.210  40.209   9.132
 2739POPC   C1A36591  27.018  39.922   8.774
 2739POPC   D2A36592  26.980  39.654   8.436
 2739POPC   C3A36593  26.809  39.735   8.095
 2739POPC   C4A36594  27.019  39.866   7.733
 2739POPC   C1B36595  27.343  40.345   8.707
 2739POPC   C2B36596  27.185  40.121   8.313
 2739POPC   C3B36597  26.863  40.225   8.051
 2739POPC   C4B36598  26.723  40.272   7.662
 2740POPC   NC336599  25.852   2.279   9.534
 2740POPC   PO436600  26.056   1.664   9.653
 2740POPC   GL136601  26.084   1.886   9.272
 2740POPC   GL236602  25.789   1.915   9.143
 2740POPC   C1A36603  26.239   1.998   8.859
 2740POPC   D2A36604  26.027   2.026   8.474
 2740POPC   C3A36605  26.239   2.175   8.092
 2740POPC   C4A36606  25.963   2.198   7.730
 2740POPC   C1B36607  25.967   1.564   8.886
 2740POPC   C2B36608  26.020   1.512   8.449
 2740POPC   C3B36609  25.995   1.732   8.063
 2740POPC   C4B36610  26.069   1.702   7.634
 2741POPC   NC336611  25.548  26.566   9.726
 2741POPC   PO436612  26.148  26.685   9.490
 2741POPC   GL136613  26.276  26.922   9.149
 2741POPC   GL236614  26.258  26.599   8.992
 2741POPC   C1A36615  26.128  27.061   8.745
 2741POPC   D2A36616  25.944  26.949   8.317
 2741POPC   C3A36617  26.057  27.120   7.919
 2741POPC   C4A36618  26.126  26.875   7.546
 2741POPC   C1B36619  25.969  26.574   8.670
 2741POPC   C2B36620  25.787  26.453   8.273
 2741POPC   C3B36621  25.828  26.533   7.819
 2741POPC   C4B36622  25.972  26.424   7.371
 2742POPC   NC336623  11.419  28.885   9.565
 2742POPC   PO436624  11.040  29.388   9.474
 2742POPC   GL136625  11.204  29.426   9.090
 2742POPC   GL236626  11.427  29.190   9.163
 2742POPC   C1A36627  11.312  29.328   8.686
 2742POPC   D2A36628  11.192  29.110   8.385
 2742POPC   C3A36629  11.280  29.320   8.067
 2742POPC   C4A36630  11.192  29.142   7.655
 2742POPC   C1B36631  11.575  28.884   8.883
 2742POPC   C2B36632  11.667  28.967   8.462
 2742POPC   C3B36633  11.520  28.884   8.006
 2742POPC   C4B36634  11.626  28.858   7.521
 2743POPC   NC336635  12.524  24.523   9.579
 2743POPC   PO436636  13.166  24.433   9.415
 2743POPC   GL136637  12.832  24.468   9.148
 2743POPC   GL236638  12.810  24.796   9.110
 2743POPC   C1A36639  12.688  24.394   8.718
 2743POPC   D2A36640  12.673  24.165   8.318
 2743POPC   C3A36641  12.757  24.402   7.967
 2743POPC   C4A36642  13.145  24.352   7.760
 2743POPC   C1B36643  13.136  24.698   8.791
 2743POPC   C2B36644  13.057  24.544   8.370
 2743POPC   C3B36645  13.180  24.791   8.005
 2743POPC   C4B36646  12.941  24.820   7.652
 2744POPC   NC336647  17.688  20.304   9.578
 2744POPC   PO436648  17.416  19.696   9.429
 2744POPC   GL136649  17.554  19.653   9.074
 2744POPC   GL236650  17.856  19.864   9.085
 2744POPC   C1A36651  17.359  19.713   8.676
 2744POPC   D2A36652  17.529  20.021   8.411
 2744POPC   C3A36653  17.441  19.928   7.997
 2744POPC   C4A36654  17.146  19.604   7.899
 2744POPC   C1B36655  17.865  19.625   8.682
 2744POPC   C2B36656  17.854  19.657   8.273
 2744POPC   C3B36657  17.837  19.590   7.868
 2744POPC   C4B36658  18.013  19.519   7.474
 2745POPC   NC336659  13.907  36.116   9.383
 2745POPC   PO436660  13.299  36.147   9.671
 2745POPC   GL136661  13.429  36.222   9.179
 2745POPC   GL236662  13.109  36.374   9.025
 2745POPC   C1A36663  13.739  36.105   8.765
 2745POPC   D2A36664  13.924  36.227   8.342
 2745POPC   C3A36665  13.748  36.043   7.944
 2745POPC   C4A36666  13.792  35.995   7.489
 2745POPC   C1B36667  13.234  36.158   8.688
 2745POPC   C2B36668  13.416  36.066   8.335
 2745POPC   C3B36669  13.269  36.268   7.983
 2745POPC   C4B36670  13.274  36.068   7.596
 2746POPC   NC336671  38.415  16.454   9.374
 2746POPC   PO436672  38.760  15.981   9.641
 2746POPC   GL136673  38.573  15.902   9.189
 2746POPC   GL236674  38.411  16.159   8.979
 2746POPC   C1A36675  38.461  15.717   8.734
 2746POPC   D2A36676  38.416  15.929   8.292
 2746POPC   C3A36677  38.478  15.651   7.933
 2746POPC   C4A36678  38.727  15.739   7.526
 2746POPC   C1B36679  38.445  16.387   8.597
 2746POPC   C2B36680  38.745  16.393   8.248
 2746POPC   C3B36681  38.700  16.128   7.894
 2746POPC   C4B36682  38.345  16.071   7.634
 2747POPC   NC336683  40.859  39.202   9.451
 2747POPC   PO436684  40.318  39.602   9.415
 2747POPC   GL136685  40.606  39.449   9.077
 2747POPC   GL236686  40.576  39.056   9.004
 2747POPC   C1A36687  40.890  39.329   8.730
 2747POPC   D2A36688  40.677  38.996   8.501
 2747POPC   C3A36689  40.469  39.139   8.172
 2747POPC   C4A36690  40.626  39.262   7.817
 2747POPC   C1B36691  40.969  38.823   8.891
 2747POPC   C2B36692  41.200  38.973   8.532
 2747POPC   C3B36693  41.034  39.003   8.132
 2747POPC   C4B36694  40.938  38.879   7.742
 2748POPC   NC336695  14.593  11.649   9.479
 2748POPC   PO436696  14.637  10.973   9.615
 2748POPC   GL136697  14.548  11.176   9.237
 2748POPC   GL236698  14.842  11.315   9.193
 2748POPC   C1A36699  14.356  11.335   8.836
 2748POPC   D2A36700  14.454  11.536   8.426
 2748POPC   C3A36701  14.243  11.442   8.016
 2748POPC   C4A36702  14.125  11.502   7.580
 2748POPC   C1B36703  14.860  11.351   8.766
 2748POPC   C2B36704  14.956  11.542   8.374
 2748POPC   C3B36705  14.758  11.441   7.995
 2748POPC   C4B36706  14.569  11.256   7.657
 2749POPC   NC336707  26.919  24.452   9.590
 2749POPC   PO436708  26.285  24.213   9.598
 2749POPC   GL136709  26.608  24.286   9.213
 2749POPC   GL236710  26.828  24.579   9.077
 2749POPC   C1A36711  26.739  24.138   8.805
 2749POPC   D2A36712  27.008  24.080   8.437
 2749POPC   C3A36713  26.956  24.405   8.130
 2749POPC   C4A36714  26.933  24.339   7.682
 2749POPC   C1B36715  26.756  24.580   8.602
 2749POPC   C2B36716  26.552  24.805   8.325
 2749POPC   C3B36717  26.622  24.962   7.951
 2749POPC   C4B36718  26.912  24.857   7.685
 2750POPC   NC336719  39.918  33.312   9.476
 2750POPC   PO436720  40.157  32.739   9.531
 2750POPC   GL136721  40.224  32.960   9.143
 2750POPC   GL236722  40.192  33.329   9.069
 2750POPC   C1A36723  40.070  32.849   8.742
 2750POPC   D2A36724  39.838  33.115   8.468
 2750POPC   C3A36725  39.969  33.166   8.052
 2750POPC   C4A36726  39.790  33.048   7.654
 2750POPC   C1B36727  40.423  33.232   8.756
 2750POPC   C2B36728  40.378  33.068   8.383
 2750POPC   C3B36729  40.524  33.384   8.178
 2750POPC   C4B36730  40.271  33.545   7.839
 2751POPC   NC336731   7.546  32.680   9.347
 2751POPC   PO436732   7.276  33.321   9.575
 2751POPC   GL136733   7.374  33.132   9.162
 2751POPC   GL236734   7.204  32.833   8.982
 2751POPC   C1A36735   7.454  33.213   8.738
 2751POPC   D2A36736   7.762  33.191   8.415
 2751POPC   C3A36737   7.524  33.092   8.103
 2751POPC   C4A36738   7.326  33.313   7.740
 2751POPC   C1B36739   7.435  32.741   8.571
 2751POPC   C2B36740   7.733  32.584   8.291
 2751POPC   C3B36741   7.656  32.614   7.870
 2751POPC   C4B36742   7.195  32.795   7.868
 2752POPC   NC336743  13.484  41.870   9.475
 2752POPC   PO436744  13.347  41.224   9.732
 2752POPC   GL136745  13.372  41.402   9.309
 2752POPC   GL236746  13.170  41.645   9.142
 2752POPC   C1A36747  13.606  41.541   8.931
 2752POPC   D2A36748  13.534  41.409   8.559
 2752POPC   C3A36749  13.597  41.467   8.156
 2752POPC   C4A36750  13.599  41.555   7.756
 2752POPC   C1B36751  13.158  41.772   8.729
 2752POPC   C2B36752  13.385  41.878   8.384
 2752POPC   C3B36753  13.299  42.030   7.995
 2752POPC   C4B36754  13.143  41.754   7.738
 2753POPC   NC336755  27.623  19.900   9.402
 2753POPC   PO436756  27.189  19.438   9.661
 2753POPC   GL136757  27.375  19.517   9.165
 2753POPC   GL236758  27.712  19.542   9.053
 2753POPC   C1A36759  27.455  19.848   8.772
 2753POPC   D2A36760  27.738  19.914   8.403
 2753POPC   C3A36761  27.602  19.808   7.992
 2753POPC   C4A36762  27.469  20.117   7.718
 2753POPC   C1B36763  27.880  19.296   8.770
 2753POPC   C2B36764  27.757  19.398   8.397
 2753POPC   C3B36765  27.865  19.368   8.004
 2753POPC   C4B36766  28.030  19.663   7.742
 2754POPC   NC336767   9.438  44.904   9.492
 2754POPC   PO436768   8.922  44.571   9.621
 2754POPC   GL136769   8.831  44.490   9.224
 2754POPC   GL236770   8.754  44.830   9.149
 2754POPC   C1A36771   8.967  44.492   8.814
 2754POPC   D2A36772   8.770  44.457   8.452
 2754POPC   C3A36773   8.996  44.579   8.139
 2754POPC   C4A36774   8.990  44.646   7.730
 2754POPC   C1B36775   9.097  44.988   8.884
 2754POPC   C2B36776   9.239  44.897   8.480
 2754POPC   C3B36777   9.218   0.027   8.066
 2754POPC   C4B36778   9.414  44.946   7.695
 2755POPC   NC336779  21.586  16.784   9.336
 2755POPC   PO436780  21.106  16.385   9.418
 2755POPC   GL136781  21.231  16.623   9.014
 2755POPC   GL236782  21.317  17.016   8.960
 2755POPC   C1A36783  21.519  16.642   8.674
 2755POPC   D2A36784  21.557  16.448   8.312
 2755POPC   C3A36785  21.216  16.615   8.072
 2755POPC   C4A36786  20.960  16.442   7.751
 2755POPC   C1B36787  21.754  17.089   8.761
 2755POPC   C2B36788  21.897  16.887   8.386
 2755POPC   C3B36789  21.692  16.815   7.995
 2755POPC   C4B36790  21.371  17.027   7.753
 2756POPC   NC336791  23.233  28.372   9.556
 2756POPC   PO436792  22.725  28.720   9.304
 2756POPC   GL136793  22.962  28.348   9.113
 2756POPC   GL236794  23.225  28.047   9.173
 2756POPC   C1A36795  22.927  28.449   8.706
 2756POPC   D2A36796  22.658  28.667   8.471
 2756POPC   C3A36797  22.763  28.654   8.061
 2756POPC   C4A36798  22.688  28.478   7.654
 2756POPC   C1B36799  23.363  28.212   8.765
 2756POPC   C2B36800  23.249  28.365   8.336
 2756POPC   C3B36801  23.060  28.206   7.961
 2756POPC   C4B36802  23.273  27.827   7.739
 2757POPC   NC336803  11.159  31.963   9.542
 2757POPC   PO436804  11.493  32.573   9.497
 2757POPC   GL136805  11.373  32.296   9.202
 2757POPC   GL236806  11.227  32.608   9.062
 2757POPC   C1A36807  11.415  31.982   8.882
 2757POPC   D2A36808  11.138  31.996   8.542
 2757POPC   C3A36809  11.216  31.902   8.163
 2757POPC   C4A36810  11.040  32.082   7.816
 2757POPC   C1B36811  11.325  32.455   8.676
 2757POPC   C2B36812  11.251  32.478   8.268
 2757POPC   C3B36813  11.486  32.424   7.934
 2757POPC   C4B36814  11.630  32.330   7.561
 2758POPC   NC336815   3.977  29.974   9.732
 2758POPC   PO436816   3.515  30.086   9.292
 2758POPC   GL136817   3.602  30.055   8.934
 2758POPC   GL236818   3.723  29.716   8.968
 2758POPC   C1A36819   3.644  30.009   8.539
 2758POPC   D2A36820   3.335  29.938   8.255
 2758POPC   C3A36821   3.532  29.978   7.879
 2758POPC   C4A36822   3.739  30.315   7.722
 2758POPC   C1B36823   3.270  29.717   8.755
 2758POPC   C2B36824   3.094  29.507   8.375
 2758POPC   C3B36825   3.192  29.552   7.935
 2758POPC   C4B36826   3.404  29.604   7.561
 2759POPC   NC336827  21.070  15.900   9.482
 2759POPC   PO436828  21.764  15.739   9.537
 2759POPC   GL136829  21.527  15.959   9.208
 2759POPC   GL236830  21.279  15.716   9.067
 2759POPC   C1A36831  21.412  16.144   8.792
 2759POPC   D2A36832  21.172  16.101   8.389
 2759POPC   C3A36833  21.355  16.114   7.968
 2759POPC   C4A36834  21.261  16.049   7.525
 2759POPC   C1B36835  21.661  15.558   8.902
 2759POPC   C2B36836  21.686  15.477   8.494
 2759POPC   C3B36837  21.437  15.632   8.189
 2759POPC   C4B36838  21.493  15.658   7.761
 2760POPC   NC336839  32.431  29.467   9.534
 2760POPC   PO436840  32.055  28.899   9.597
 2760POPC   GL136841  32.170  29.110   9.193
 2760POPC   GL236842  32.457  29.328   9.051
 2760POPC   C1A36843  32.172  28.942   8.789
 2760POPC   D2A36844  32.188  29.096   8.369
 2760POPC   C3A36845  32.402  29.082   7.975
 2760POPC   C4A36846  32.196  29.216   7.584
 2760POPC   C1B36847  32.378  29.500   8.663
 2760POPC   C2B36848  32.185  29.720   8.316
 2760POPC   C3B36849  32.348  29.629   7.922
 2760POPC   C4B36850  32.684  29.448   7.704
 2761POPC   NC336851  24.389  40.139   9.389
 2761POPC   PO436852  24.920  39.775   9.526
 2761POPC   GL136853  24.810  39.867   9.138
 2761POPC   GL236854  24.787  40.184   9.072
 2761POPC   C1A36855  24.558  39.817   8.770
 2761POPC   D2A36856  24.344  40.124   8.538
 2761POPC   C3A36857  24.270  40.036   8.118
 2761POPC   C4A36858  24.241  40.014   7.690
 2761POPC   C1B36859  24.979  40.095   8.689
 2761POPC   C2B36860  25.021  40.104   8.263
 2761POPC   C3B36861  24.751  39.927   7.959
 2761POPC   C4B36862  24.735  39.995   7.532
 2762POPC   NC336863   0.120  25.568   9.868
 2762POPC   PO436864   0.424  25.001   9.523
 2762POPC   GL136865   0.454  25.229   9.132
 2762POPC   GL236866   0.774  25.336   9.023
 2762POPC   C1A36867   0.430  25.089   8.736
 2762POPC   D2A36868   0.678  24.987   8.399
 2762POPC   C3A36869   0.490  25.198   8.041
 2762POPC   C4A36870   0.527  24.983   7.652
 2762POPC   C1B36871   0.820  25.437   8.601
 2762POPC   C2B36872   0.796  25.608   8.208
 2762POPC   C3B36873   0.875  25.578   7.777
 2762POPC   C4B36874   0.669  25.436   7.399
 2763POPC   NC336875  27.431   8.669   9.367
 2763POPC   PO436876  27.890   9.152   9.596
 2763POPC   GL136877  27.868   8.903   9.239
 2763POPC   GL236878  27.646   9.174   9.105
 2763POPC   C1A36879  27.872   8.804   8.812
 2763POPC   D2A36880  27.750   9.039   8.476
 2763POPC   C3A36881  27.801   8.828   8.117
 2763POPC   C4A36882  27.837   9.095   7.792
 2763POPC   C1B36883  27.375   8.985   8.804
 2763POPC   C2B36884  27.270   8.938   8.377
 2763POPC   C3B36885  27.359   9.090   7.983
 2763POPC   C4B36886  27.163   9.118   7.604
 2764POPC   NC336887  38.720  12.982   9.488
 2764POPC   PO436888  38.219  12.524   9.560
 2764POPC   GL136889  38.450  12.653   9.214
 2764POPC   GL236890  38.747  12.464   9.235
 2764POPC   C1A36891  38.506  12.944   8.836
 2764POPC   D2A36892  38.456  12.774   8.417
 2764POPC   C3A36893  38.654  12.958   8.076
 2764POPC   C4A36894  38.546  12.796   7.683
 2764POPC   C1B36895  38.871  12.611   8.854
 2764POPC   C2B36896  38.912  12.588   8.439
 2764POPC   C3B36897  39.033  12.610   8.032
 2764POPC   C4B36898  38.926  12.414   7.660
 2765POPC   NC336899  10.598  13.873   9.409
 2765POPC   PO436900  11.270  13.688   9.566
 2765POPC   GL136901  11.254  13.595   9.159
 2765POPC   GL236902  10.904  13.544   9.103
 2765POPC   C1A36903  11.291  13.394   8.764
 2765POPC   D2A36904  11.264  13.227   8.395
 2765POPC   C3A36905  11.354  13.419   8.038
 2765POPC   C4A36906  11.336  13.835   7.850
 2765POPC   C1B36907  10.990  13.812   8.752
 2765POPC   C2B36908  11.062  13.706   8.338
 2765POPC   C3B36909  10.883  13.613   7.916
 2765POPC   C4B36910  10.944  13.841   7.502
 2766POPC   NC336911  41.413  32.456   9.447
 2766POPC   PO436912  41.518  32.012  10.038
 2766POPC   GL136913  41.336  31.961   9.442
 2766POPC   GL236914  41.130  31.905   9.133
 2766POPC   C1A36915  41.528  32.113   8.919
 2766POPC   D2A36916  41.479  32.183   8.448
 2766POPC   C3A36917  41.773  32.157   8.085
 2766POPC   C4A36918  41.535  32.373   7.731
 2766POPC   C1B36919  41.284  31.700   8.745
 2766POPC   C2B36920  41.413  31.686   8.326
 2766POPC   C3B36921  41.351  31.927   7.977
 2766POPC   C4B36922  41.422  31.924   7.552
 2767POPC   NC336923  25.003  43.294   9.504
 2767POPC   PO436924  25.462  42.858   9.435
 2767POPC   GL136925  25.308  43.085   9.118
 2767POPC   GL236926  24.995  42.965   9.093
 2767POPC   C1A36927  25.310  42.975   8.693
 2767POPC   D2A36928  25.118  42.908   8.298
 2767POPC   C3A36929  25.451  42.938   8.007
 2767POPC   C4A36930  25.450  42.922   7.562
 2767POPC   C1B36931  24.974  43.359   8.849
 2767POPC   C2B36932  24.873  43.381   8.423
 2767POPC   C3B36933  24.995  43.543   8.044
 2767POPC   C4B36934  25.132  43.263   7.772
 2768POPC   NC336935  27.828   7.990   9.257
 2768POPC   PO436936  27.667   7.480   9.607
 2768POPC   GL136937  27.770   7.441   9.129
 2768POPC   GL236938  27.856   7.715   8.845
 2768POPC   C1A36939  27.538   7.348   8.703
 2768POPC   D2A36940  27.420   7.475   8.263
 2768POPC   C3A36941  27.632   7.308   7.857
 2768POPC   C4A36942  27.883   6.973   7.620
 2768POPC   C1B36943  27.466   7.906   8.675
 2768POPC   C2B36944  27.362   8.016   8.246
 2768POPC   C3B36945  27.378   7.781   7.856
 2768POPC   C4B36946  27.563   7.841   7.463
 2769POPC   NC336947   9.431  29.088   9.686
 2769POPC   PO436948   8.716  29.152   9.525
 2769POPC   GL136949   8.735  29.296   9.127
 2769POPC   GL236950   8.660  29.676   9.130
 2769POPC   C1A36951   8.896  29.083   8.744
 2769POPC   D2A36952   8.767  28.878   8.366
 2769POPC   C3A36953   8.973  29.064   7.999
 2769POPC   C4A36954   9.307  28.826   7.777
 2769POPC   C1B36955   8.818  29.590   8.732
 2769POPC   C2B36956   8.580  29.361   8.405
 2769POPC   C3B36957   8.623  29.445   7.971
 2769POPC   C4B36958   9.041  29.556   7.797
 2770POPC   NC336959  35.771   3.312   9.835
 2770POPC   PO436960  35.307   3.300   9.330
 2770POPC   GL136961  35.502   3.680   9.162
 2770POPC   GL236962  35.204   3.980   9.036
 2770POPC   C1A36963  35.651   3.891   8.824
 2770POPC   D2A36964  35.399   3.976   8.483
 2770POPC   C3A36965  35.571   3.706   8.140
 2770POPC   C4A36966  35.336   3.725   7.749
 2770POPC   C1B36967  35.150   3.636   8.791
 2770POPC   C2B36968  35.285   3.450   8.463
 2770POPC   C3B36969  35.304   3.288   8.050
 2770POPC   C4B36970  35.105   3.213   7.701
 2771POPC   NC336971  37.668   1.548   9.479
 2771POPC   PO436972  38.067   2.160   9.478
 2771POPC   GL136973  37.758   1.972   9.208
 2771POPC   GL236974  37.934   1.678   9.061
 2771POPC   C1A36975  37.533   1.993   8.799
 2771POPC   D2A36976  37.556   2.150   8.376
 2771POPC   C3A36977  37.480   2.094   7.945
 2771POPC   C4A36978  37.775   2.239   7.647
 2771POPC   C1B36979  37.710   1.521   8.686
 2771POPC   C2B36980  37.622   1.624   8.238
 2771POPC   C3B36981  37.646   1.629   7.796
 2771POPC   C4B36982  37.695   1.786   7.403
 2772POPC   NC336983   2.209  40.877   9.279
 2772POPC   PO436984   1.651  40.674   9.504
 2772POPC   GL136985   1.719  40.830   9.102
 2772POPC   GL236986   1.843  41.174   9.071
 2772POPC   C1A36987   1.802  40.642   8.719
 2772POPC   D2A36988   1.731  40.331   8.416
 2772POPC   C3A36989   1.844  40.525   8.016
 2772POPC   C4A36990   1.742  40.591   7.600
 2772POPC   C1B36991   2.015  41.098   8.670
 2772POPC   C2B36992   1.791  40.957   8.293
 2772POPC   C3B36993   1.850  41.048   7.855
 2772POPC   C4B36994   2.207  40.846   7.764
 2773POPC   NC336995  22.591  43.641   9.527
 2773POPC   PO436996  23.187  44.023   9.532
 2773POPC   GL136997  22.864  43.957   9.224
 2773POPC   GL236998  22.925  43.594   9.147
 2773POPC   C1A36999  22.759  44.063   8.815
 2773POPC   D2A37000  22.997  43.876   8.469
 2773POPC   C3A37001  22.948  44.081   8.068
 2773POPC   C4A37002  22.799  43.940   7.654
 2773POPC   C1B37003  23.055  43.406   8.767
 2773POPC   C2B37004  22.881  43.341   8.365
 2773POPC   C3B37005  23.087  43.559   8.040
 2773POPC   C4B37006  23.022  43.495   7.628
 2774POPC   NC337007   1.795   4.557   9.872
 2774POPC   PO437008   2.160   4.988   9.401
 2774POPC   GL137009   2.025   5.142   9.054
 2774POPC   GL237010   2.016   5.481   9.181
 2774POPC   C1A37011   2.071   4.946   8.677
 2774POPC   D2A37012   2.214   5.014   8.299
 2774POPC   C3A37013   1.906   5.102   8.034
 2774POPC   C4A37014   2.007   5.107   7.601
 2774POPC   C1B37015   1.848   5.588   8.765
 2774POPC   C2B37016   2.063   5.536   8.343
 2774POPC   C3B37017   2.029   5.562   7.885
 2774POPC   C4B37018   1.862   5.573   7.463
 2775POPC   NC337019  38.651  35.008   9.308
 2775POPC   PO437020  38.451  34.555   9.709
 2775POPC   GL137021  38.418  34.539   9.260
 2775POPC   GL237022  38.776  34.511   9.208
 2775POPC   C1A37023  38.262  34.731   8.850
 2775POPC   D2A37024  38.182  34.946   8.431
 2775POPC   C3A37025  38.422  34.751   8.086
 2775POPC   C4A37026  38.347  34.433   7.763
 2775POPC   C1B37027  38.844  34.639   8.761
 2775POPC   C2B37028  38.905  34.678   8.293
 2775POPC   C3B37029  38.872  34.569   7.827
 2775POPC   C4B37030  38.807  34.519   7.360
 2776POPC   NC337031  32.033  32.495   9.400
 2776POPC   PO437032  32.276  31.854   9.536
 2776POPC   GL137033  32.303  32.094   9.108
 2776POPC   GL237034  32.267  32.462   8.963
 2776POPC   C1A37035  32.374  32.082   8.644
 2776POPC   D2A37036  32.568  32.227   8.246
 2776POPC   C3A37037  32.176  32.300   8.042
 2776POPC   C4A37038  31.843  32.110   7.811
 2776POPC   C1B37039  32.588  32.562   8.661
 2776POPC   C2B37040  32.589  32.760   8.261
 2776POPC   C3B37041  32.514  32.615   7.825
 2776POPC   C4B37042  32.630  32.702   7.382
 2777POPC   NC337043  33.515  33.064   9.332
 2777POPC   PO437044  33.860  33.528   9.632
 2777POPC   GL137045  33.760  33.641   9.170
 2777POPC   GL237046  33.807  34.001   9.021
 2777POPC   C1A37047  33.494  33.623   8.792
 2777POPC   D2A37048  33.645  33.515   8.401
 2777POPC   C3A37049  33.464  33.485   8.039
 2777POPC   C4A37050  33.575  33.752   7.713
 2777POPC   C1B37051  34.043  33.702   8.745
 2777POPC   C2B37052  34.140  33.562   8.349
 2777POPC   C3B37053  34.019  33.700   7.956
 2777POPC   C4B37054  33.985  34.083   7.797
 2778POPC   NC337055  11.577  15.226   9.492
 2778POPC   PO437056  11.154  14.853   9.292
 2778POPC   GL137057  11.468  15.026   9.012
 2778POPC   GL237058  11.485  15.382   8.995
 2778POPC   C1A37059  11.535  14.971   8.560
 2778POPC   D2A37060  11.442  14.955   8.142
 2778POPC   C3A37061  11.526  15.342   7.953
 2778POPC   C4A37062  11.463  15.630   7.604
 2778POPC   C1B37063  11.130  15.239   8.690
 2778POPC   C2B37064  11.066  15.309   8.233
 2778POPC   C3B37065  11.038  15.336   7.771
 2778POPC   C4B37066  11.024  15.517   7.331
 2779POPC   NC337067  14.876  27.726   9.841
 2779POPC   PO437068  14.889  28.342   9.505
 2779POPC   GL137069  14.924  27.987   9.172
 2779POPC   GL237070  14.860  27.598   9.218
 2779POPC   C1A37071  14.961  27.846   8.734
 2779POPC   D2A37072  15.117  27.610   8.395
 2779POPC   C3A37073  15.193  27.794   7.998
 2779POPC   C4A37074  15.302  27.942   7.589
 2779POPC   C1B37075  14.986  27.324   8.816
 2779POPC   C2B37076  14.900  27.114   8.396
 2779POPC   C3B37077  14.991  27.335   7.992
 2779POPC   C4B37078  15.281  27.429   7.632
 2780POPC   NC337079  42.003  44.324   9.338
 2780POPC   PO437080  42.335  43.889   9.689
 2780POPC   GL137081  42.311  43.791   9.243
 2780POPC   GL237082  42.421  44.074   9.160
 2780POPC   C1A37083  42.529  43.675   8.855
 2780POPC   D2A37084  42.479  43.516   8.448
 2780POPC   C3A37085  42.454  43.687   8.018
 2780POPC   C4A37086  42.725  44.007   7.798
 2780POPC   C1B37087  42.276  44.172   8.778
 2780POPC   C2B37088  42.268  44.001   8.411
 2780POPC   C3B37089  42.305  44.168   8.043
 2780POPC   C4B37090  42.075  44.421   7.858
 2781POPC   NC337091  11.558  11.675   9.508
 2781POPC   PO437092  11.180  11.084   9.499
 2781POPC   GL137093  11.327  11.342   9.184
 2781POPC   GL237094  11.704  11.272   9.173
 2781POPC   C1A37095  11.183  11.527   8.792
 2781POPC   D2A37096  10.875  11.447   8.475
 2781POPC   C3A37097  10.930  11.389   8.000
 2781POPC   C4A37098  11.183  11.483   7.555
 2781POPC   C1B37099  11.531  11.139   8.766
 2781POPC   C2B37100  11.340  11.180   8.369
 2781POPC   C3B37101  11.412  11.283   7.960
 2781POPC   C4B37102  11.445  11.042   7.577
 2782POPC   NC337103  18.764   1.571   9.601
 2782POPC   PO437104  19.269   1.142   9.504
 2782POPC   GL137105  19.130   1.424   9.214
 2782POPC   GL237106  18.854   1.194   9.157
 2782POPC   C1A37107  19.158   1.359   8.774
 2782POPC   D2A37108  18.915   1.408   8.416
 2782POPC   C3A37109  19.131   1.402   8.064
 2782POPC   C4A37110  19.053   1.614   7.708
 2782POPC   C1B37111  18.882   0.908   8.781
 2782POPC   C2B37112  18.657   0.808   8.400
 2782POPC   C3B37113  18.549   1.004   8.015
 2782POPC   C4B37114  18.843   1.149   7.691
 2783POPC   NC337115  38.329  27.035   9.480
 2783POPC   PO437116  37.749  26.608   9.564
 2783POPC   GL137117  37.819  26.800   9.155
 2783POPC   GL237118  37.877  27.124   9.166
 2783POPC   C1A37119  37.638  26.892   8.738
 2783POPC   D2A37120  37.705  26.633   8.327
 2783POPC   C3A37121  37.503  26.621   7.906
 2783POPC   C4A37122  37.722  26.745   7.473
 2783POPC   C1B37123  37.959  27.297   8.749
 2783POPC   C2B37124  37.862  27.137   8.331
 2783POPC   C3B37125  37.820  27.012   7.924
 2783POPC   C4B37126  38.026  27.155   7.571
 2784POPC   NC337127   7.028  32.245   9.727
 2784POPC   PO437128   7.572  31.921   9.549
 2784POPC   GL137129   7.407  32.165   9.229
 2784POPC   GL237130   7.716  32.045   9.061
 2784POPC   C1A37131   7.319  32.314   8.823
 2784POPC   D2A37132   7.064  32.382   8.466
 2784POPC   C3A37133   7.305  32.327   8.083
 2784POPC   C4A37134   7.174  32.344   7.629
 2784POPC   C1B37135   7.441  31.821   8.774
 2784POPC   C2B37136   7.263  31.896   8.414
 2784POPC   C3B37137   7.395  31.744   8.046
 2784POPC   C4B37138   7.500  31.943   7.688
 2785POPC   NC337139  39.627   0.405   9.389
 2785POPC   PO437140  39.126   0.038   9.537
 2785POPC   GL137141  39.154   0.312   9.165
 2785POPC   GL237142  39.217   0.693   9.211
 2785POPC   C1A37143  38.943   0.413   8.774
 2785POPC   D2A37144  38.846   0.253   8.372
 2785POPC   C3A37145  39.058   0.441   8.026
 2785POPC   C4A37146  39.347   0.237   7.753
 2785POPC   C1B37147  39.247   0.831   8.781
 2785POPC   C2B37148  39.369   0.607   8.409
 2785POPC   C3B37149  39.528   0.652   7.987
 2785POPC   C4B37150  39.372   0.725   7.546
 2786POPC   NC337151  14.597  38.752   9.461
 2786POPC   PO437152  14.135  38.341   9.662
 2786POPC   GL137153  14.192  38.460   9.208
 2786POPC   GL237154  13.900  38.658   9.126
 2786POPC   C1A37155  14.353  38.302   8.780
 2786POPC   D2A37156  14.760  38.240   8.509
 2786POPC   C3A37157  14.683  38.257   8.066
 2786POPC   C4A37158  14.338  38.070   7.849
 2786POPC   C1B37159  13.952  38.618   8.683
 2786POPC   C2B37160  14.307  38.630   8.405
 2786POPC   C3B37161  14.416  38.715   8.018
 2786POPC   C4B37162  14.264  38.559   7.663
 2787POPC   NC337163  12.142  19.240   9.433
 2787POPC   PO437164  12.033  19.867   9.585
 2787POPC   GL137165  12.223  20.032   9.234
 2787POPC   GL237166  12.252  19.648   9.131
 2787POPC   C1A37167  12.005  20.040   8.870
 2787POPC   D2A37168  12.064  19.765   8.542
 2787POPC   C3A37169  12.198  19.900   8.143
 2787POPC   C4A37170  11.989  19.950   7.727
 2787POPC   C1B37171  12.430  19.400   8.754
 2787POPC   C2B37172  12.258  19.372   8.288
 2787POPC   C3B37173  12.235  19.450   7.820
 2787POPC   C4B37174  12.221  19.233   7.392
 2788POPC   NC337175  39.677  14.185   9.421
 2788POPC   PO437176  40.311  14.445   9.448
 2788POPC   GL137177  39.973  14.587   9.208
 2788POPC   GL237178  40.009  14.271   9.047
 2788POPC   C1A37179  39.932  14.690   8.772
 2788POPC   D2A37180  40.183  14.526   8.433
 2788POPC   C3A37181  40.167  14.710   8.005
 2788POPC   C4A37182  40.114  14.521   7.604
 2788POPC   C1B37183  39.801  14.210   8.664
 2788POPC   C2B37184  39.735  14.350   8.237
 2788POPC   C3B37185  39.877  14.163   7.857
 2788POPC   C4B37186  39.754  14.194   7.396
 2789POPC   NC337187  43.350  38.715   9.471
 2789POPC   PO437188  42.676  38.687   9.559
 2789POPC   GL137189  42.912  38.570   9.194
 2789POPC   GL237190  42.779  38.231   9.186
 2789POPC   C1A37191  43.173  38.511   8.795
 2789POPC   D2A37192  43.276  38.300   8.379
 2789POPC   C3A37193  43.363  38.466   7.940
 2789POPC   C4A37194  43.179  38.246   7.542
 2789POPC   C1B37195  42.695  38.343   8.785
 2789POPC   C2B37196  42.742  38.543   8.402
 2789POPC   C3B37197  42.874  38.369   8.017
 2789POPC   C4B37198  42.693  38.357   7.622
 2790POPC   NC337199  26.032  15.682   9.447
 2790POPC   PO437200  25.933  16.267   9.540
 2790POPC   GL137201  26.064  16.216   9.124
 2790POPC   GL237202  25.867  15.912   9.051
 2790POPC   C1A37203  26.125  16.142   8.671
 2790POPC   D2A37204  26.182  15.812   8.378
 2790POPC   C3A37205  26.154  15.839   7.958
 2790POPC   C4A37206  26.432  15.866   7.602
 2790POPC   C1B37207  25.656  15.936   8.696
 2790POPC   C2B37208  25.741  16.076   8.273
 2790POPC   C3B37209  25.644  15.830   7.909
 2790POPC   C4B37210  25.702  15.534   7.582
 2791POPC   NC337211  33.217   8.537   9.413
 2791POPC   PO437212  32.749   8.060   9.577
 2791POPC   GL137213  32.931   8.169   9.178
 2791POPC   GL237214  32.700   8.408   9.123
 2791POPC   C1A37215  33.059   8.229   8.731
 2791POPC   D2A37216  33.217   8.275   8.311
 2791POPC   C3A37217  33.064   8.107   7.920
 2791POPC   C4A37218  33.337   7.894   7.596
 2791POPC   C1B37219  32.572   8.174   8.732
 2791POPC   C2B37220  32.713   8.348   8.356
 2791POPC   C3B37221  32.555   8.482   8.019
 2791POPC   C4B37222  32.726   8.444   7.633
 2792POPC   NC337223   3.822   8.477   9.447
 2792POPC   PO437224   3.488   8.013   9.288
 2792POPC   GL137225   3.489   8.279   9.003
 2792POPC   GL237226   3.818   8.361   8.953
 2792POPC   C1A37227   3.379   8.170   8.626
 2792POPC   D2A37228   3.282   8.430   8.335
 2792POPC   C3A37229   3.465   8.261   8.010
 2792POPC   C4A37230   3.226   8.029   7.717
 2792POPC   C1B37231   3.866   8.333   8.513
 2792POPC   C2B37232   4.167   8.087   8.256
 2792POPC   C3B37233   3.986   8.200   7.894
 2792POPC   C4B37234   3.801   8.639   7.806
 2793POPC   NC337235  24.125  15.299   9.320
 2793POPC   PO437236  23.524  14.978   9.365
 2793POPC   GL137237  23.658  15.272   9.107
 2793POPC   GL237238  23.531  15.593   9.043
 2793POPC   C1A37239  23.744  15.255   8.705
 2793POPC   D2A37240  23.518  15.177   8.377
 2793POPC   C3A37241  23.740  15.302   8.064
 2793POPC   C4A37242  23.911  15.035   7.803
 2793POPC   C1B37243  23.280  15.736   8.715
 2793POPC   C2B37244  23.480  15.679   8.347
 2793POPC   C3B37245  23.430  15.727   7.922
 2793POPC   C4B37246  23.687  15.553   7.601
 2794POPC   NC337247  14.550  43.334   9.656
 2794POPC   PO437248  13.960  43.009   9.506
 2794POPC   GL137249  14.216  43.299   9.244
 2794POPC   GL237250  14.577  43.375   9.163
 2794POPC   C1A37251  14.133  43.345   8.822
 2794POPC   D2A37252  14.106  43.082   8.456
 2794POPC   C3A37253  14.376  43.093   8.096
 2794POPC   C4A37254  14.373  42.944   7.686
 2794POPC   C1B37255  14.657  43.307   8.760
 2794POPC   C2B37256  14.751  43.343   8.357
 2794POPC   C3B37257  14.886  43.325   7.942
 2794POPC   C4B37258  14.662  43.367   7.587
 2795POPC   NC337259  16.617   1.691   9.345
 2795POPC   PO437260  17.059   1.156   9.495
 2795POPC   GL137261  17.036   1.346   9.114
 2795POPC   GL237262  16.684   1.246   9.043
 2795POPC   C1A37263  16.989   1.404   8.670
 2795POPC   D2A37264  16.771   1.454   8.261
 2795POPC   C3A37265  16.992   1.331   7.864
 2795POPC   C4A37266  17.009   1.400   7.400
 2795POPC   C1B37267  16.737   0.940   8.685
 2795POPC   C2B37268  16.602   0.938   8.257
 2795POPC   C3B37269  16.465   1.186   7.905
 2795POPC   C4B37270  16.683   1.016   7.564
 2796POPC   NC337271  15.483   3.354   9.753
 2796POPC   PO437272  14.949   3.745   9.566
 2796POPC   GL137273  15.306   3.693   9.331
 2796POPC   GL237274  15.342   3.331   9.265
 2796POPC   C1A37275  15.320   3.685   8.880
 2796POPC   D2A37276  15.370   3.558   8.450
 2796POPC   C3A37277  15.024   3.586   8.131
 2796POPC   C4A37278  15.269   3.576   7.744
 2796POPC   C1B37279  15.430   3.165   8.851
 2796POPC   C2B37280  15.398   2.999   8.440
 2796POPC   C3B37281  15.290   3.171   8.073
 2796POPC   C4B37282  14.874   3.142   7.867
 2797POPC   NC337283  16.959  35.852   9.429
 2797POPC   PO437284  16.260  36.093   9.508
 2797POPC   GL137285  16.512  36.219   9.162
 2797POPC   GL237286  16.827  36.352   9.278
 2797POPC   C1A37287  16.542  36.073   8.743
 2797POPC   D2A37288  16.743  36.000   8.340
 2797POPC   C3A37289  16.578  36.160   7.947
 2797POPC   C4A37290  16.707  36.378   7.598
 2797POPC   C1B37291  17.020  36.211   8.876
 2797POPC   C2B37292  17.223  36.139   8.447
 2797POPC   C3B37293  17.123  36.033   7.985
 2797POPC   C4B37294  17.102  36.084   7.527
 2798POPC   NC337295  43.075  21.917   9.541
 2798POPC   PO437296  43.455  22.436   9.820
 2798POPC   GL137297  43.138  22.394   9.347
 2798POPC   GL237298  43.218  22.043   9.075
 2798POPC   C1A37299  42.854  22.328   8.930
 2798POPC   D2A37300  43.099  22.077   8.573
 2798POPC   C3A37301  42.951  22.111   8.118
 2798POPC   C4A37302  42.861  22.428   7.769
 2798POPC   C1B37303  43.576  21.957   8.786
 2798POPC   C2B37304  43.646  21.804   8.392
 2798POPC   C3B37305  43.483  21.860   7.999
 2798POPC   C4B37306  43.242  22.068   7.702
 2799POPC   NC337307  13.270   1.514   9.442
 2799POPC   PO437308  13.976   1.581   9.529
 2799POPC   GL137309  13.852   1.297   9.161
 2799POPC   GL237310  13.522   1.303   9.042
 2799POPC   C1A37311  13.880   1.111   8.724
 2799POPC   D2A37312  13.751   1.318   8.365
 2799POPC   C3A37313  14.005   1.381   8.019
 2799POPC   C4A37314  13.950   1.241   7.619
 2799POPC   C1B37315  13.363   1.022   8.732
 2799POPC   C2B37316  13.381   0.969   8.306
 2799POPC   C3B37317  13.555   1.095   7.923
 2799POPC   C4B37318  13.431   0.723   7.770
 2800POPC   NC337319   6.382  22.268   9.504
 2800POPC   PO437320   6.991  22.490   9.223
 2800POPC   GL137321   6.652  22.274   9.029
 2800POPC   GL237322   6.519  21.949   8.983
 2800POPC   C1A37323   6.430  22.299   8.639
 2800POPC   D2A37324   6.235  22.615   8.418
 2800POPC   C3A37325   6.359  22.382   8.111
 2800POPC   C4A37326   6.819  22.467   8.010
 2800POPC   C1B37327   6.810  21.933   8.635
 2800POPC   C2B37328   6.738  22.004   8.215
 2800POPC   C3B37329   6.757  21.995   7.784
 2800POPC   C4B37330   6.419  21.932   7.439
 2801POPC   NC337331  28.277  40.196   9.703
 2801POPC   PO437332  28.805  39.720   9.650
 2801POPC   GL137333  28.596  39.851   9.241
 2801POPC   GL237334  28.569  40.229   9.229
 2801POPC   C1A37335  28.330  39.987   8.850
 2801POPC   D2A37336  28.180  40.061   8.419
 2801POPC   C3A37337  28.187  39.796   8.024
 2801POPC   C4A37338  27.971  39.882   7.624
 2801POPC   C1B37339  28.669  40.377   8.792
 2801POPC   C2B37340  28.551  40.406   8.362
 2801POPC   C3B37341  28.399  40.257   7.974
 2801POPC   C4B37342  28.278  40.348   7.563
 2802POPC   NC337343  12.508   9.199   9.472
 2802POPC   PO437344  11.920   8.770   9.514
 2802POPC   GL137345  12.059   9.014   9.137
 2802POPC   GL237346  12.131   9.367   9.137
 2802POPC   C1A37347  12.125   9.044   8.691
 2802POPC   D2A37348  11.987   8.854   8.329
 2802POPC   C3A37349  11.879   9.036   7.943
 2802POPC   C4A37350  11.892   8.813   7.543
 2802POPC   C1B37351  12.381   9.470   8.785
 2802POPC   C2B37352  12.548   9.228   8.469
 2802POPC   C3B37353  12.348   9.156   8.114
 2802POPC   C4B37354  12.340   9.125   7.683
 2803POPC   NC337355  40.078  17.358   9.602
 2803POPC   PO437356  39.736  17.862   9.469
 2803POPC   GL137357  39.932  17.602   9.138
 2803POPC   GL237358  40.184  17.313   9.116
 2803POPC   C1A37359  40.175  17.673   8.772
 2803POPC   D2A37360  40.412  17.815   8.451
 2803POPC   C3A37361  40.149  17.772   8.071
 2803POPC   C4A37362  40.056  17.539   7.695
 2803POPC   C1B37363  40.156  17.141   8.718
 2803POPC   C2B37364  40.051  17.266   8.294
 2803POPC   C3B37365  40.275  17.108   7.949
 2803POPC   C4B37366  40.331  17.137   7.483
 2804POPC   NC337367  36.882   4.537   9.632
 2804POPC   PO437368  36.936   3.818   9.599
 2804POPC   GL137369  36.938   4.160   9.222
 2804POPC   GL237370  36.910   4.525   9.141
 2804POPC   C1A37371  36.679   4.210   8.776
 2804POPC   D2A37372  36.620   4.270   8.284
 2804POPC   C3A37373  36.953   4.314   8.043
 2804POPC   C4A37374  37.115   4.239   7.715
 2804POPC   C1B37375  37.124   4.477   8.777
 2804POPC   C2B37376  36.921   4.645   8.443
 2804POPC   C3B37377  36.706   4.764   8.070
 2804POPC   C4B37378  36.960   4.717   7.709
 2805POPC   NC337379  41.839  18.878   9.692
 2805POPC   PO437380  41.423  19.344   9.579
 2805POPC   GL137381  41.440  19.075   9.223
 2805POPC   GL237382  41.765  18.898   9.179
 2805POPC   C1A37383  41.368  18.830   8.848
 2805POPC   D2A37384  41.561  18.778   8.438
 2805POPC   C3A37385  41.448  19.123   8.150
 2805POPC   C4A37386  41.409  18.968   7.768
 2805POPC   C1B37387  41.864  19.015   8.777
 2805POPC   C2B37388  41.911  19.148   8.363
 2805POPC   C3B37389  41.893  18.969   7.976
 2805POPC   C4B37390  41.878  19.236   7.609
 2806POPC   NC337391  16.529   6.361   9.609
 2806POPC   PO437392  17.089   6.797   9.575
 2806POPC   GL137393  16.862   6.801   9.158
 2806POPC   GL237394  16.543   6.985   9.237
 2806POPC   C1A37395  16.793   6.532   8.739
 2806POPC   D2A37396  16.882   6.232   8.370
 2806POPC   C3A37397  16.959   6.370   7.968
 2806POPC   C4A37398  16.610   6.514   7.788
 2806POPC   C1B37399  16.570   7.112   8.804
 2806POPC   C2B37400  16.773   6.977   8.451
 2806POPC   C3B37401  16.711   6.922   8.047
 2806POPC   C4B37402  16.668   7.119   7.675
 2807POPC   NC337403  44.785   0.356   9.506
 2807POPC   PO437404  44.232   0.729   9.665
 2807POPC   GL137405  44.447   0.706   9.263
 2807POPC   GL237406  44.816   0.782   9.202
 2807POPC   C1A37407  44.427   0.780   8.838
 2807POPC   D2A37408  44.619   0.807   8.429
 2807POPC   C3A37409  44.575   0.397   8.194
 2807POPC   C4A37410  44.586   0.182   7.781
 2807POPC   C1B37411  44.866   0.503   8.823
 2807POPC   C2B37412   0.047   0.407   8.434
 2807POPC   C3B37413   0.013   0.667   8.125
 2807POPC   C4B37414  44.754   0.673   7.796
 2808POPC   NC337415   0.801  19.282   9.426
 2808POPC   PO437416   0.146  19.106   9.529
 2808POPC   GL137417   0.413  19.061   9.171
 2808POPC   GL237418   0.390  19.425   9.161
 2808POPC   C1A37419   0.521  18.940   8.721
 2808POPC   D2A37420   0.371  18.958   8.248
 2808POPC   C3A37421   0.416  19.009   7.768
 2808POPC   C4A37422   0.192  18.814   7.388
 2808POPC   C1B37423   0.608  19.448   8.805
 2808POPC   C2B37424   0.733  19.280   8.411
 2808POPC   C3B37425   0.596  19.427   8.039
 2808POPC   C4B37426   0.762  19.410   7.665
 2809POPC   NC337427  36.587  40.262   9.380
 2809POPC   PO437428  37.082  39.826   9.511
 2809POPC   GL137429  36.995  40.054   9.132
 2809POPC   GL237430  36.822  39.811   9.032
 2809POPC   C1A37431  37.050  40.331   8.755
 2809POPC   D2A37432  37.183  40.200   8.362
 2809POPC   C3A37433  37.037  40.355   8.005
 2809POPC   C4A37434  36.815  40.164   7.713
 2809POPC   C1B37435  36.746  39.951   8.657
 2809POPC   C2B37436  36.784  39.754   8.310
 2809POPC   C3B37437  36.608  39.746   7.939
 2809POPC   C4B37438  36.710  39.697   7.540
 2810POPC   NC337439  18.555  24.659   9.543
 2810POPC   PO437440  17.877  24.326   9.547
 2810POPC   GL137441  18.104  24.302   9.149
 2810POPC   GL237442  18.348  24.585   9.071
 2810POPC   C1A37443  18.018  24.358   8.730
 2810POPC   D2A37444  18.296  24.436   8.415
 2810POPC   C3A37445  18.149  24.190   8.105
 2810POPC   C4A37446  18.423  23.970   7.826
 2810POPC   C1B37447  18.621  24.729   8.704
 2810POPC   C2B37448  18.584  24.854   8.277
 2810POPC   C3B37449  18.628  24.716   7.882
 2810POPC   C4B37450  18.324  24.467   7.735
 2811POPC   NC337451  15.467  22.338   9.305
 2811POPC   PO437452  15.353  21.787   9.695
 2811POPC   GL137453  15.187  21.842   9.190
 2811POPC   GL237454  15.074  22.185   9.004
 2811POPC   C1A37455  15.302  21.827   8.737
 2811POPC   D2A37456  15.066  22.127   8.489
 2811POPC   C3A37457  15.107  22.096   8.088
 2811POPC   C4A37458  14.942  22.201   7.716
 2811POPC   C1B37459  15.409  22.407   8.709
 2811POPC   C2B37460  15.472  22.571   8.356
 2811POPC   C3B37461  15.371  22.518   7.910
 2811POPC   C4B37462  15.436  22.725   7.527
 2812POPC   NC337463   4.199  33.412   9.714
 2812POPC   PO437464   4.805  33.364   9.420
 2812POPC   GL137465   4.521  33.541   9.203
 2812POPC   GL237466   4.185  33.674   9.259
 2812POPC   C1A37467   4.578  33.679   8.798
 2812POPC   D2A37468   4.265  33.612   8.489
 2812POPC   C3A37469   4.261  33.545   8.071
 2812POPC   C4A37470   4.398  33.832   7.769
 2812POPC   C1B37471   4.063  33.908   8.856
 2812POPC   C2B37472   4.136  34.124   8.431
 2812POPC   C3B37473   3.999  34.141   7.990
 2812POPC   C4B37474   3.897  33.760   7.768
 2813POPC   NC337475   9.244  11.579   9.365
 2813POPC   PO437476   9.700  10.983   9.468
 2813POPC   GL137477   9.718  11.226   9.099
 2813POPC   GL237478  10.039  11.142   9.013
 2813POPC   C1A37479   9.750  11.315   8.635
 2813POPC   D2A37480   9.978  11.502   8.280
 2813POPC   C3A37481   9.796  11.354   7.878
 2813POPC   C4A37482   9.836  11.489   7.416
 2813POPC   C1B37483  10.049  10.888   8.672
 2813POPC   C2B37484  10.017  10.990   8.246
 2813POPC   C3B37485  10.069  10.875   7.824
 2813POPC   C4B37486   9.772  11.006   7.511
 2814POPC   NC337487  36.755   5.580   9.770
 2814POPC   PO437488  36.700   6.066   9.355
 2814POPC   GL137489  37.027   5.996   9.126
 2814POPC   GL237490  37.031   5.639   9.217
 2814POPC   C1A37491  37.026   5.936   8.676
 2814POPC   D2A37492  36.773   5.668   8.433
 2814POPC   C3A37493  36.664   5.824   8.023
 2814POPC   C4A37494  36.944   6.082   7.784
 2814POPC   C1B37495  37.084   5.450   8.818
 2814POPC   C2B37496  37.246   5.463   8.392
 2814POPC   C3B37497  37.119   5.556   7.981
 2814POPC   C4B37498  36.901   5.613   7.595
 2815POPC   NC337499  12.340  15.374   9.417
 2815POPC   PO437500  11.909  14.924   9.606
 2815POPC   GL137501  11.956  15.149   9.176
 2815POPC   GL237502  12.243  15.034   9.025
 2815POPC   C1A37503  11.909  15.265   8.739
 2815POPC   D2A37504  12.056  15.020   8.408
 2815POPC   C3A37505  12.149  15.191   7.993
 2815POPC   C4A37506  11.956  15.458   7.681
 2815POPC   C1B37507  11.870  14.754   8.875
 2815POPC   C2B37508  11.794  14.540   8.471
 2815POPC   C3B37509  11.883  14.695   8.055
 2815POPC   C4B37510  11.767  14.975   7.709
 2816POPC   NC337511  12.149  39.124   9.437
 2816POPC   PO437512  11.621  39.504   9.194
 2816POPC   GL137513  11.895  39.207   8.979
 2816POPC   GL237514  11.957  38.867   9.022
 2816POPC   C1A37515  12.310  39.215   8.784
 2816POPC   D2A37516  12.390  39.539   8.472
 2816POPC   C3A37517  12.064  39.510   8.127
 2816POPC   C4A37518  11.863  39.457   7.744
 2816POPC   C1B37519  12.045  38.802   8.587
 2816POPC   C2B37520  12.242  39.050   8.290
 2816POPC   C3B37521  12.160  39.063   7.855
 2816POPC   C4B37522  11.731  38.955   7.732
 2817POPC   NC337523   4.774  29.592   9.542
 2817POPC   PO437524   5.326  30.038   9.475
 2817POPC   GL137525   5.114  29.784   9.158
 2817POPC   GL237526   4.752  29.872   9.101
 2817POPC   C1A37527   5.149  29.833   8.719
 2817POPC   D2A37528   5.118  30.059   8.328
 2817POPC   C3A37529   5.176  29.764   8.006
 2817POPC   C4A37530   5.044  29.749   7.592
 2817POPC   C1B37531   4.697  30.103   8.712
 2817POPC   C2B37532   4.475  30.065   8.310
 2817POPC   C3B37533   4.738  30.039   7.943
 2817POPC   C4B37534   4.712  30.136   7.506
 2818POPC   NC337535  27.224  21.333   9.484
 2818POPC   PO437536  27.867  21.178   9.435
 2818POPC   GL137537  27.580  21.351   9.129
 2818POPC   GL237538  27.409  21.052   9.045
 2818POPC   C1A37539  27.339  21.484   8.767
 2818POPC   D2A37540  27.527  21.650   8.413
 2818POPC   C3A37541  27.484  21.431   8.032
 2818POPC   C4A37542  27.457  21.667   7.663
 2818POPC   C1B37543  27.812  21.065   8.775
 2818POPC   C2B37544  27.858  21.261   8.369
 2818POPC   C3B37545  27.799  21.000   8.003
 2818POPC   C4B37546  27.715  20.965   7.570
 2819POPC   NC337547   7.363   0.884   9.444
 2819POPC   PO437548   7.139   1.526   9.482
 2819POPC   GL137549   7.371   1.466   9.086
 2819POPC   GL237550   7.529   1.128   9.034
 2819POPC   C1A37551   7.542   1.522   8.712
 2819POPC   D2A37552   7.437   1.232   8.410
 2819POPC   C3A37553   7.459   1.329   7.992
 2819POPC   C4A37554   7.307   1.636   7.757
 2819POPC   C1B37555   7.558   0.754   8.766
 2819POPC   C2B37556   7.574   0.770   8.325
 2819POPC   C3B37557   7.457   0.817   7.885
 2819POPC   C4B37558   7.616   0.963   7.489
 2820POPC   NC337559  17.307   6.403   9.704
 2820POPC   PO437560  17.710   6.930   9.669
 2820POPC   GL137561  17.495   6.689   9.279
 2820POPC   GL237562  17.466   6.999   9.163
 2820POPC   C1A37563  17.262   6.690   8.845
 2820POPC   D2A37564  17.187   6.630   8.370
 2820POPC   C3A37565  17.442   6.546   7.954
 2820POPC   C4A37566  17.615   6.629   7.536
 2820POPC   C1B37567  17.640   7.011   8.725
 2820POPC   C2B37568  17.779   7.123   8.295
 2820POPC   C3B37569  17.697   6.998   7.887
 2820POPC   C4B37570  17.542   7.154   7.514
 2821POPC   NC337571  29.530  36.071   9.273
 2821POPC   PO437572  30.244  36.147   9.233
 2821POPC   GL137573  30.196  36.033   8.925
 2821POPC   GL237574  29.867  36.199   8.893
 2821POPC   C1A37575  30.283  36.047   8.560
 2821POPC   D2A37576  29.951  36.136   8.356
 2821POPC   C3A37577  29.852  35.807   8.120
 2821POPC   C4A37578  30.097  35.943   7.794
 2821POPC   C1B37579  29.509  36.218   8.613
 2821POPC   C2B37580  29.465  36.120   8.204
 2821POPC   C3B37581  29.607  36.158   7.802
 2821POPC   C4B37582  29.532  36.538   7.649
 2822POPC   NC337583  14.431  19.560   9.706
 2822POPC   PO437584  13.910  19.819   9.477
 2822POPC   GL137585  14.263  19.680   9.220
 2822POPC   GL237586  14.611  19.567   9.173
 2822POPC   C1A37587  14.258  19.549   8.798
 2822POPC   D2A37588  14.195  19.834   8.429
 2822POPC   C3A37589  14.163  19.662   8.013
 2822POPC   C4A37590  14.322  19.711   7.586
 2822POPC   C1B37591  14.701  19.808   8.782
 2822POPC   C2B37592  14.693  19.734   8.326
 2822POPC   C3B37593  14.568  20.004   8.003
 2822POPC   C4B37594  14.665  20.103   7.561
 2823POPC   NC337595  28.379  17.993   9.652
 2823POPC   PO437596  28.536  17.372   9.439
 2823POPC   GL137597  28.400  17.649   9.134
 2823POPC   GL237598  28.109  17.849   9.199
 2823POPC   C1A37599  28.404  17.522   8.720
 2823POPC   D2A37600  28.436  17.337   8.345
 2823POPC   C3A37601  28.558  17.605   7.999
 2823POPC   C4A37602  28.477  17.331   7.705
 2823POPC   C1B37603  27.945  17.480   8.934
 2823POPC   C2B37604  27.929  17.429   8.477
 2823POPC   C3B37605  28.057  17.523   8.034
 2823POPC   C4B37606  27.950  17.559   7.588
 2824POPC   NC337607  33.413  25.852   9.524
 2824POPC   PO437608  32.838  26.224   9.488
 2824POPC   GL137609  33.069  26.118   9.159
 2824POPC   GL237610  33.066  25.768   9.140
 2824POPC   C1A37611  33.109  26.093   8.729
 2824POPC   D2A37612  33.039  26.327   8.376
 2824POPC   C3A37613  33.131  26.174   7.990
 2824POPC   C4A37614  32.936  26.012   7.618
 2824POPC   C1B37615  33.058  25.580   8.736
 2824POPC   C2B37616  33.058  25.743   8.314
 2824POPC   C3B37617  33.279  25.690   7.914
 2824POPC   C4B37618  33.511  25.990   7.688
 2825POPC   NC337619  10.959  24.182   9.407
 2825POPC   PO437620  10.900  23.637   9.824
 2825POPC   GL137621  11.032  23.697   9.309
 2825POPC   GL237622  11.356  23.954   9.224
 2825POPC   C1A37623  11.047  23.718   8.817
 2825POPC   D2A37624  10.924  23.466   8.411
 2825POPC   C3A37625  10.976  23.633   8.002
 2825POPC   C4A37626  11.357  23.538   7.796
 2825POPC   C1B37627  11.480  24.082   8.789
 2825POPC   C2B37628  11.425  23.924   8.344
 2825POPC   C3B37629  11.560  23.996   7.894
 2825POPC   C4B37630  11.566  23.839   7.438
 2826POPC   NC337631  39.545   5.463   9.423
 2826POPC   PO437632  39.390   4.715   9.525
 2826POPC   GL137633  39.250   5.064   9.254
 2826POPC   GL237634  39.497   4.961   9.064
 2826POPC   C1A37635  39.244   5.326   8.826
 2826POPC   D2A37636  39.094   5.382   8.404
 2826POPC   C3A37637  39.371   5.166   8.123
 2826POPC   C4A37638  39.169   5.071   7.774
 2826POPC   C1B37639  39.152   4.807   8.811
 2826POPC   C2B37640  39.115   4.795   8.376
 2826POPC   C3B37641  38.971   4.627   7.978
 2826POPC   C4B37642  39.147   4.635   7.543
 2827POPC   NC337643   1.326   2.326   9.520
 2827POPC   PO437644   0.815   1.864   9.475
 2827POPC   GL137645   1.117   1.766   9.143
 2827POPC   GL237646   1.335   2.036   9.126
 2827POPC   C1A37647   1.174   1.836   8.697
 2827POPC   D2A37648   1.357   1.663   8.376
 2827POPC   C3A37649   1.242   1.910   8.026
 2827POPC   C4A37650   1.082   2.308   7.849
 2827POPC   C1B37651   1.603   2.115   8.804
 2827POPC   C2B37652   1.571   2.124   8.392
 2827POPC   C3B37653   1.505   2.447   8.130
 2827POPC   C4B37654   1.658   2.241   7.795
 2828POPC   NC337655   2.672   4.117   9.713
 2828POPC   PO437656   3.035   4.607   9.374
 2828POPC   GL137657   2.867   4.379   9.076
 2828POPC   GL237658   2.870   4.057   9.207
 2828POPC   C1A37659   3.055   4.237   8.707
 2828POPC   D2A37660   3.045   4.382   8.288
 2828POPC   C3A37661   2.929   4.138   7.953
 2828POPC   C4A37662   2.854   4.243   7.514
 2828POPC   C1B37663   2.611   3.978   8.846
 2828POPC   C2B37664   2.644   4.094   8.415
 2828POPC   C3B37665   2.531   4.412   8.105
 2828POPC   C4B37666   2.376   4.255   7.723
 2829POPC   NC337667  35.155  35.765   9.430
 2829POPC   PO437668  34.939  35.155   9.449
 2829POPC   GL137669  35.239  35.329   9.152
 2829POPC   GL237670  35.547  35.503   9.203
 2829POPC   C1A37671  35.429  35.304   8.738
 2829POPC   D2A37672  35.330  34.922   8.529
 2829POPC   C3A37673  35.093  34.908   8.138
 2829POPC   C4A37674  35.377  35.128   7.922
 2829POPC   C1B37675  35.769  35.709   8.860
 2829POPC   C2B37676  35.855  35.688   8.433
 2829POPC   C3B37677  35.523  35.665   8.138
 2829POPC   C4B37678  35.544  35.560   7.726
 2830POPC   NC337679  33.557  41.109   9.337
 2830POPC   PO437680  33.298  40.489   9.333
 2830POPC   GL137681  33.081  40.740   9.046
 2830POPC   GL237682  33.203  41.019   8.980
 2830POPC   C1A37683  32.864  40.633   8.720
 2830POPC   D2A37684  32.971  40.349   8.415
 2830POPC   C3A37685  33.068  40.634   8.070
 2830POPC   C4A37686  32.915  40.902   7.726
 2830POPC   C1B37687  33.512  41.117   8.680
 2830POPC   C2B37688  33.377  41.063   8.274
 2830POPC   C3B37689  33.401  40.984   7.858
 2830POPC   C4B37690  33.570  40.951   7.449
 2831POPC   NC337691  10.592  29.447   9.571
 2831POPC   PO437692  10.142  28.966   9.598
 2831POPC   GL137693  10.301  29.147   9.225
 2831POPC   GL237694  10.670  29.133   9.177
 2831POPC   C1A37695  10.294  29.280   8.798
 2831POPC   D2A37696  10.460  29.441   8.392
 2831POPC   C3A37697  10.301  29.173   8.061
 2831POPC   C4A37698  10.149  29.285   7.677
 2831POPC   C1B37699  10.807  29.202   8.764
 2831POPC   C2B37700  10.706  29.006   8.373
 2831POPC   C3B37701  10.802  29.193   7.990
 2831POPC   C4B37702  10.697  29.237   7.541
 2832POPC   NC337703  31.321  22.495   9.545
 2832POPC   PO437704  31.413  23.123   9.561
 2832POPC   GL137705  31.536  22.929   9.226
 2832POPC   GL237706  31.764  22.658   9.308
 2832POPC   C1A37707  31.508  22.951   8.794
 2832POPC   D2A37708  31.340  22.773   8.432
 2832POPC   C3A37709  31.441  23.021   8.083
 2832POPC   C4A37710  31.362  22.894   7.675
 2832POPC   C1B37711  31.862  22.572   8.857
 2832POPC   C2B37712  31.856  22.751   8.425
 2832POPC   C3B37713  31.763  22.628   8.031
 2832POPC   C4B37714  31.947  22.544   7.668
 2833POPC   NC337715   0.079   4.116   9.492
 2833POPC   PO437716   0.705   4.435   9.616
 2833POPC   GL137717   0.588   4.326   9.197
 2833POPC   GL237718   0.899   4.282   9.009
 2833POPC   C1A37719   0.475   4.276   8.742
 2833POPC   D2A37720   0.661   4.027   8.391
 2833POPC   C3A37721   0.406   4.106   8.025
 2833POPC   C4A37722   0.394   4.458   7.774
 2833POPC   C1B37723   0.890   4.654   8.749
 2833POPC   C2B37724   0.893   4.769   8.308
 2833POPC   C3B37725   0.841   4.427   8.027
 2833POPC   C4B37726   0.819   4.206   7.644
 2834POPC   NC337727  43.737  18.986   9.667
 2834POPC   PO437728  43.874  19.659   9.826
 2834POPC   GL137729  43.711  19.407   9.331
 2834POPC   GL237730  43.720  19.033   9.175
 2834POPC   C1A37731  43.823  19.388   8.828
 2834POPC   D2A37732  44.003  19.443   8.405
 2834POPC   C3A37733  43.706  19.326   8.053
 2834POPC   C4A37734  43.728  19.132   7.660
 2834POPC   C1B37735  43.995  18.905   8.818
 2834POPC   C2B37736  43.852  18.946   8.395
 2834POPC   C3B37737  44.061  18.965   7.995
 2834POPC   C4B37738  44.200  18.731   7.630
 2835POPC   NC337739  35.484   8.287   9.691
 2835POPC   PO437740  35.007   7.910   9.541
 2835POPC   GL137741  35.286   8.062   9.224
 2835POPC   GL237742  35.339   8.390   9.159
 2835POPC   C1A37743  35.334   8.076   8.772
 2835POPC   D2A37744  35.675   8.099   8.520
 2835POPC   C3A37745  35.515   8.158   8.140
 2835POPC   C4A37746  35.518   8.184   7.722
 2835POPC   C1B37747  35.519   8.553   8.756
 2835POPC   C2B37748  35.336   8.597   8.351
 2835POPC   C3B37749  35.444   8.651   7.922
 2835POPC   C4B37750  35.538   8.624   7.467
 2836POPC   NC337751   1.060  25.875   9.715
 2836POPC   PO437752   0.846  26.403   9.490
 2836POPC   GL137753   1.108  26.079   9.228
 2836POPC   GL237754   1.028  25.729   9.215
 2836POPC   C1A37755   1.320  26.117   8.814
 2836POPC   D2A37756   1.356  26.429   8.468
 2836POPC   C3A37757   1.259  26.286   8.049
 2836POPC   C4A37758   1.479  26.258   7.664
 2836POPC   C1B37759   0.864  25.905   8.803
 2836POPC   C2B37760   0.850  26.113   8.393
 2836POPC   C3B37761   0.817  26.071   7.941
 2836POPC   C4B37762   0.694  26.371   7.628
 2837POPC   NC337763  31.045  19.388   9.619
 2837POPC   PO437764  30.427  19.152   9.693
 2837POPC   GL137765  30.467  19.291   9.250
 2837POPC   GL237766  30.813  19.240   9.200
 2837POPC   C1A37767  30.561  19.392   8.791
 2837POPC   D2A37768  30.596  19.106   8.436
 2837POPC   C3A37769  30.564  19.232   8.002
 2837POPC   C4A37770  30.389  18.897   7.734
 2837POPC   C1B37771  31.042  19.204   8.823
 2837POPC   C2B37772  31.005  19.389   8.415
 2837POPC   C3B37773  31.080  19.149   8.107
 2837POPC   C4B37774  30.935  18.949   7.765
 2838POPC   NC337775  21.886  44.583   9.392
 2838POPC   PO437776  22.439  44.159   9.479
 2838POPC   GL137777  22.261  44.376   9.109
 2838POPC   GL237778  22.201  44.735   9.053
 2838POPC   C1A37779  22.117  44.486   8.651
 2838POPC   D2A37780  22.343  44.536   8.278
 2838POPC   C3A37781  22.084  44.596   7.907
 2838POPC   C4A37782  22.120  44.742   7.466
 2838POPC   C1B37783  22.442   0.043   8.893
 2838POPC   C2B37784  22.527   0.057   8.461
 2838POPC   C3B37785  22.454  44.989   8.035
 2838POPC   C4B37786  22.545  44.978   7.617
 2839POPC   NC337787   8.905  10.158   9.713
 2839POPC   PO437788   8.668   9.566   9.458
 2839POPC   GL137789   8.713   9.632   9.046
 2839POPC   GL237790   9.010   9.822   9.113
 2839POPC   C1A37791   8.791   9.439   8.639
 2839POPC   D2A37792   9.188   9.397   8.387
 2839POPC   C3A37793   9.141   9.559   7.958
 2839POPC   C4A37794   8.792   9.614   7.636
 2839POPC   C1B37795   9.020   9.896   8.665
 2839POPC   C2B37796   9.095  10.034   8.261
 2839POPC   C3B37797   8.960  10.048   7.837
 2839POPC   C4B37798   8.703  10.301   7.575
 2840POPC   NC337799  35.152  32.227   9.547
 2840POPC   PO437800  35.834  32.217   9.341
 2840POPC   GL137801  35.429  32.149   9.130
 2840POPC   GL237802  35.087  31.906   9.170
 2840POPC   C1A37803  35.383  32.433   8.786
 2840POPC   D2A37804  35.614  32.558   8.404
 2840POPC   C3A37805  35.531  32.300   8.042
 2840POPC   C4A37806  35.380  32.406   7.651
 2840POPC   C1B37807  35.171  31.975   8.740
 2840POPC   C2B37808  35.138  32.198   8.359
 2840POPC   C3B37809  35.010  32.181   7.938
 2840POPC   C4B37810  35.074  32.091   7.438
 2841POPC   NC337811  16.877   3.170   9.501
 2841POPC   PO437812  16.892   2.516   9.320
 2841POPC   GL137813  16.812   2.891   9.087
 2841POPC   GL237814  16.466   3.015   9.087
 2841POPC   C1A37815  16.821   3.083   8.709
 2841POPC   D2A37816  16.637   2.823   8.404
 2841POPC   C3A37817  16.853   2.628   8.091
 2841POPC   C4A37818  16.905   2.882   7.730
 2841POPC   C1B37819  16.322   3.190   8.663
 2841POPC   C2B37820  16.181   2.989   8.276
 2841POPC   C3B37821  16.429   2.909   7.931
 2841POPC   C4B37822  16.431   3.035   7.525
 2842POPC   NC337823  20.896  36.455   9.444
 2842POPC   PO437824  21.524  36.130   9.478
 2842POPC   GL137825  21.494  36.029   9.074
 2842POPC   GL237826  21.136  36.080   9.082
 2842POPC   C1A37827  21.541  36.303   8.711
 2842POPC   D2A37828  21.357  36.356   8.291
 2842POPC   C3A37829  21.613  36.309   7.917
 2842POPC   C4A37830  21.600  35.981   7.623
 2842POPC   C1B37831  21.056  36.106   8.659
 2842POPC   C2B37832  20.842  35.903   8.301
 2842POPC   C3B37833  20.939  36.196   8.045
 2842POPC   C4B37834  21.156  36.223   7.708
 2843POPC   NC337835  21.998  38.722   9.419
 2843POPC   PO437836  21.819  38.087   9.527
 2843POPC   GL137837  22.164  38.263   9.202
 2843POPC   GL237838  22.263  38.609   9.012
 2843POPC   C1A37839  22.388  38.152   8.797
 2843POPC   D2A37840  22.214  38.334   8.438
 2843POPC   C3A37841  22.421  38.389   8.036
 2843POPC   C4A37842  22.330  38.478   7.620
 2843POPC   C1B37843  21.873  38.552   8.758
 2843POPC   C2B37844  21.757  38.651   8.321
 2843POPC   C3B37845  21.955  38.719   7.895
 2843POPC   C4B37846  21.955  38.785   7.425
 2844POPC   NC337847   7.840  20.239   9.532
 2844POPC   PO437848   8.295  19.816   9.412
 2844POPC   GL137849   8.169  20.042   9.102
 2844POPC   GL237850   7.829  20.032   9.071
 2844POPC   C1A37851   8.324  19.886   8.721
 2844POPC   D2A37852   8.190  19.864   8.301
 2844POPC   C3A37853   8.486  19.836   8.012
 2844POPC   C4A37854   8.370  19.637   7.658
 2844POPC   C1B37855   7.825  19.907   8.664
 2844POPC   C2B37856   7.882  19.477   8.451
 2844POPC   C3B37857   8.025  19.443   8.023
 2844POPC   C4B37858   7.955  19.857   7.856
 2845POPC   NC337859   1.634   0.700   9.485
 2845POPC   PO437860   0.935   0.326   9.533
 2845POPC   GL137861   1.211   0.509   9.229
 2845POPC   GL237862   1.448   0.232   9.243
 2845POPC   C1A37863   1.404   0.677   8.835
 2845POPC   D2A37864   1.252   0.571   8.437
 2845POPC   C3A37865   1.405   0.751   8.080
 2845POPC   C4A37866   1.373   0.547   7.708
 2845POPC   C1B37867   1.626   0.205   8.842
 2845POPC   C2B37868   1.731   0.376   8.441
 2845POPC   C3B37869   1.647   0.243   8.017
 2845POPC   C4B37870   1.682   0.021   7.616
 2846POPC   NC337871  17.339  36.616   9.702
 2846POPC   PO437872  17.503  37.215   9.487
 2846POPC   GL137873  17.529  36.870   9.168
 2846POPC   GL237874  17.256  36.615   9.194
 2846POPC   C1A37875  17.773  36.720   8.782
 2846POPC   D2A37876  17.975  36.784   8.339
 2846POPC   C3A37877  17.760  36.827   7.962
 2846POPC   C4A37878  17.579  37.178   7.792
 2846POPC   C1B37879  17.273  36.634   8.749
 2846POPC   C2B37880  17.429  36.831   8.391
 2846POPC   C3B37881  17.234  36.872   7.996
 2846POPC   C4B37882  17.168  36.593   7.665
 2847POPC   NC337883  22.082   8.176   9.730
 2847POPC   PO437884  22.528   8.665   9.513
 2847POPC   GL137885  22.321   8.402   9.214
 2847POPC   GL237886  22.213   8.053   9.197
 2847POPC   C1A37887  22.317   8.327   8.774
 2847POPC   D2A37888  22.087   8.410   8.431
 2847POPC   C3A37889  21.985   8.186   8.076
 2847POPC   C4A37890  22.038   8.505   7.774
 2847POPC   C1B37891  22.458   7.835   8.855
 2847POPC   C2B37892  22.375   7.970   8.425
 2847POPC   C3B37893  22.509   7.875   8.039
 2847POPC   C4B37894  22.271   8.001   7.697
 2848POPC   NC337895   2.819  24.043   9.391
 2848POPC   PO437896   2.724  24.717   9.355
 2848POPC   GL137897   2.727  24.397   9.039
 2848POPC   GL237898   2.485  24.109   9.005
 2848POPC   C1A37899   2.979  24.414   8.671
 2848POPC   D2A37900   3.190  24.200   8.374
 2848POPC   C3A37901   3.012  24.198   7.973
 2848POPC   C4A37902   2.867  24.532   7.708
 2848POPC   C1B37903   2.460  24.398   8.629
 2848POPC   C2B37904   2.645  24.458   8.232
 2848POPC   C3B37905   2.393  24.531   7.901
 2848POPC   C4B37906   2.306  24.903   7.691
 2849POPC   NC337907  30.032  29.218   9.897
 2849POPC   PO437908  30.239  29.150   9.266
 2849POPC   GL137909  29.888  29.060   9.022
 2849POPC   GL237910  29.912  29.381   8.914
 2849POPC   C1A37911  30.031  28.815   8.687
 2849POPC   D2A37912  30.261  29.128   8.475
 2849POPC   C3A37913  30.134  29.202   8.064
 2849POPC   C4A37914  29.971  29.095   7.698
 2849POPC   C1B37915  29.758  29.227   8.552
 2849POPC   C2B37916  29.485  29.280   8.256
 2849POPC   C3B37917  29.650  29.425   7.887
 2849POPC   C4B37918  29.479  29.580   7.492
 2850POPC   NC337919  40.953  23.536   9.627
 2850POPC   PO437920  40.497  23.937   9.659
 2850POPC   GL137921  40.796  23.847   9.256
 2850POPC   GL237922  40.809  23.495   9.109
 2850POPC   C1A37923  40.901  23.916   8.804
 2850POPC   D2A37924  40.615  23.863   8.427
 2850POPC   C3A37925  40.737  23.677   8.034
 2850POPC   C4A37926  41.036  23.826   7.721
 2850POPC   C1B37927  40.818  23.452   8.642
 2850POPC   C2B37928  41.095  23.402   8.291
 2850POPC   C3B37929  41.073  23.336   7.877
 2850POPC   C4B37930  40.826  23.419   7.520
 2851POPC   NC337931  31.279  18.423   9.501
 2851POPC   PO437932  31.865  18.065   9.745
 2851POPC   GL137933  31.599  18.029   9.342
 2851POPC   GL237934  31.611  18.335   9.137
 2851POPC   C1A37935  31.419  17.902   8.931
 2851POPC   D2A37936  31.604  17.847   8.515
 2851POPC   C3A37937  31.365  18.037   8.213
 2851POPC   C4A37938  31.303  18.231   7.813
 2851POPC   C1B37939  31.659  18.308   8.742
 2851POPC   C2B37940  31.677  18.392   8.362
 2851POPC   C3B37941  31.804  18.241   7.994
 2851POPC   C4B37942  31.760  18.450   7.623
 2852POPC   NC337943  38.020  37.374   9.540
 2852POPC   PO437944  37.593  37.835   9.740
 2852POPC   GL137945  37.626  37.755   9.258
 2852POPC   GL237946  37.909  37.849   9.018
 2852POPC   C1A37947  37.457  37.770   8.818
 2852POPC   D2A37948  37.734  37.820   8.434
 2852POPC   C3A37949  37.493  37.815   8.033
 2852POPC   C4A37950  37.438  37.665   7.613
 2852POPC   C1B37951  37.821  37.414   8.900
 2852POPC   C2B37952  37.806  37.297   8.470
 2852POPC   C3B37953  37.818  37.429   8.057
 2852POPC   C4B37954  37.732  37.249   7.678
 2853POPC   NC337955  26.962  28.103   9.599
 2853POPC   PO437956  26.651  27.483   9.717
 2853POPC   GL137957  26.860  27.688   9.329
 2853POPC   GL237958  26.608  27.900   9.216
 2853POPC   C1A37959  27.027  27.802   8.871
 2853POPC   D2A37960  27.210  27.899   8.437
 2853POPC   C3A37961  26.900  27.749   8.132
 2853POPC   C4A37962  26.915  27.500   7.736
 2853POPC   C1B37963  26.573  27.490   8.955
 2853POPC   C2B37964  26.542  27.557   8.498
 2853POPC   C3B37965  26.458  27.501   8.043
 2853POPC   C4B37966  26.538  27.826   7.712
 2854POPC   NC337967  25.960   9.780   9.778
 2854POPC   PO437968  26.368   9.290   9.712
 2854POPC   GL137969  26.219   9.619   9.357
 2854POPC   GL237970  25.890   9.834   9.289
 2854POPC   C1A37971  26.201   9.741   8.889
 2854POPC   D2A37972  26.324   9.639   8.455
 2854POPC   C3A37973  25.989   9.481   8.203
 2854POPC   C4A37974  25.983   9.655   7.821
 2854POPC   C1B37975  25.748  10.031   8.903
 2854POPC   C2B37976  25.878   9.935   8.464
 2854POPC   C3B37977  25.722  10.035   8.035
 2854POPC   C4B37978  25.657   9.962   7.580
 2855POPC   NC337979  41.915   5.769   9.502
 2855POPC   PO437980  41.249   5.591   9.451
 2855POPC   GL137981  41.433   5.844   9.124
 2855POPC   GL237982  41.769   5.863   9.050
 2855POPC   C1A37983  41.380   6.022   8.747
 2855POPC   D2A37984  41.331   5.832   8.363
 2855POPC   C3A37985  41.596   5.811   8.011
 2855POPC   C4A37986  41.448   5.875   7.581
 2855POPC   C1B37987  41.875   6.179   8.819
 2855POPC   C2B37988  41.806   6.047   8.437
 2855POPC   C3B37989  41.740   6.319   8.138
 2855POPC   C4B37990  41.747   6.257   7.735
 2856POPC   NC337991  14.225  44.236   9.459
 2856POPC   PO437992  13.531  43.912   9.516
 2856POPC   GL137993  13.719  44.078   9.165
 2856POPC   GL237994  13.406  44.305   9.069
 2856POPC   C1A37995  13.906  43.828   8.798
 2856POPC   D2A37996  13.752  43.529   8.460
 2856POPC   C3A37997  13.885  43.666   8.047
 2856POPC   C4A37998  13.781  43.904   7.695
 2856POPC   C1B37999  13.444  44.039   8.736
 2856POPC   C2B38000  13.665  44.053   8.363
 2856POPC   C3B38001  13.561  44.254   7.996
 2856POPC   C4B38002  13.510  44.399   7.591
 2857POPC   NC338003  37.706  33.344   9.553
 2857POPC   PO438004  37.691  32.662   9.632
 2857POPC   GL138005  37.665  32.683   9.171
 2857POPC   GL238006  37.462  32.962   9.239
 2857POPC   C1A38007  37.814  32.680   8.754
 2857POPC   D2A38008  37.945  32.568   8.358
 2857POPC   C3A38009  37.835  32.851   8.042
 2857POPC   C4A38010  37.976  32.790   7.631
 2857POPC   C1B38011  37.458  33.047   8.802
 2857POPC   C2B38012  37.681  33.226   8.448
 2857POPC   C3B38013  37.562  33.372   8.033
 2857POPC   C4B38014  37.584  33.131   7.650
 2858POPC   NC338015  31.146  30.615   9.402
 2858POPC   PO438016  31.789  30.476   9.646
 2858POPC   GL138017  31.612  30.675   9.188
 2858POPC   GL238018  31.419  30.864   9.051
 2858POPC   C1A38019  31.760  30.598   8.714
 2858POPC   D2A38020  31.685  30.324   8.363
 2858POPC   C3A38021  31.891  30.472   8.011
 2858POPC   C4A38022  31.623  30.743   7.796
 2858POPC   C1B38023  31.255  30.641   8.685
 2858POPC   C2B38024  31.049  30.524   8.302
 2858POPC   C3B38025  31.029  30.762   7.918
 2858POPC   C4B38026  31.227  30.881   7.519
 2859POPC   NC338027  10.626  22.642   9.446
 2859POPC   PO438028  10.193  23.092   9.652
 2859POPC   GL138029  10.377  23.013   9.218
 2859POPC   GL238030  10.214  22.782   9.012
 2859POPC   C1A38031  10.581  23.027   8.785
 2859POPC   D2A38032  10.489  23.183   8.364
 2859POPC   C3A38033  10.822  23.093   8.006
 2859POPC   C4A38034  10.896  22.905   7.565
 2859POPC   C1B38035  10.182  22.799   8.561
 2859POPC   C2B38036  10.451  22.694   8.223
 2859POPC   C3B38037  10.393  22.860   7.820
 2859POPC   C4B38038  10.237  22.664   7.444
 2860POPC   NC338039  34.089  36.986   9.383
 2860POPC   PO438040  33.504  37.168   9.470
 2860POPC   GL138041  33.656  37.148   9.045
 2860POPC   GL238042  33.996  37.262   8.978
 2860POPC   C1A38043  33.672  37.228   8.579
 2860POPC   D2A38044  34.058  37.216   8.332
 2860POPC   C3A38045  33.976  37.024   7.916
 2860POPC   C4A38046  33.613  36.768   7.733
 2860POPC   C1B38047  33.951  36.836   8.753
 2860POPC   C2B38048  34.072  36.696   8.357
 2860POPC   C3B38049  34.023  36.505   7.980
 2860POPC   C4B38050  34.050  36.581   7.579
 2861POPC   NC338051   5.581  39.838   9.504
 2861POPC   PO438052   6.189  40.017   9.720
 2861POPC   GL138053   6.007  40.050   9.273
 2861POPC   GL238054   5.660  40.195   9.163
 2861POPC   C1A38055   5.939  39.751   8.910
 2861POPC   D2A38056   5.788  39.772   8.486
 2861POPC   C3A38057   5.920  39.608   8.099
 2861POPC   C4A38058   6.064  39.774   7.765
 2861POPC   C1B38059   5.878  40.250   8.801
 2861POPC   C2B38060   5.690  40.267   8.443
 2861POPC   C3B38061   5.906  40.150   8.097
 2861POPC   C4B38062   5.774  40.284   7.732
 2862POPC   NC338063   1.665  41.332   9.525
 2862POPC   PO438064   2.323  41.326   9.364
 2862POPC   GL138065   2.099  41.644   9.149
 2862POPC   GL238066   1.733  41.674   9.092
 2862POPC   C1A38067   2.197  41.588   8.732
 2862POPC   D2A38068   2.474  41.564   8.397
 2862POPC   C3A38069   2.293  41.834   8.103
 2862POPC   C4A38070   2.170  41.688   7.718
 2862POPC   C1B38071   1.684  41.493   8.670
 2862POPC   C2B38072   1.935  41.445   8.285
 2862POPC   C3B38073   1.742  41.572   7.915
 2862POPC   C4B38074   1.756  41.448   7.471
 2863POPC   NC338075  20.351  43.543   9.460
 2863POPC   PO438076  20.970  43.758   9.712
 2863POPC   GL138077  20.732  43.906   9.310
 2863POPC   GL238078  20.409  44.071   9.240
 2863POPC   C1A38079  20.793  44.118   8.892
 2863POPC   D2A38080  20.724  43.917   8.481
 2863POPC   C3A38081  20.637  44.008   8.051
 2863POPC   C4A38082  20.825  44.035   7.650
 2863POPC   C1B38083  20.420  43.757   8.861
 2863POPC   C2B38084  20.239  43.691   8.438
 2863POPC   C3B38085  20.224  43.546   8.012
 2863POPC   C4B38086  20.428  43.716   7.640
 2864POPC   NC338087   4.635  21.944   9.505
 2864POPC   PO438088   4.480  22.569   9.588
 2864POPC   GL138089   4.615  22.354   9.207
 2864POPC   GL238090   4.294  22.137   9.167
 2864POPC   C1A38091   4.557  22.384   8.762
 2864POPC   D2A38092   4.325  22.271   8.402
 2864POPC   C3A38093   4.544  22.342   8.000
 2864POPC   C4A38094   4.337  22.234   7.612
 2864POPC   C1B38095   4.289  21.864   8.809
 2864POPC   C2B38096   4.075  21.835   8.419
 2864POPC   C3B38097   4.307  21.904   8.013
 2864POPC   C4B38098   4.122  21.687   7.651
 2865POPC   NC338099  38.527  17.216   9.502
 2865POPC   PO438100  38.336  17.805   9.766
 2865POPC   GL138101  38.342  17.643   9.264
 2865POPC   GL238102  38.192  17.364   9.130
 2865POPC   C1A38103  38.585  17.446   8.834
 2865POPC   D2A38104  38.628  17.604   8.416
 2865POPC   C3A38105  38.636  17.395   8.022
 2865POPC   C4A38106  38.715  17.575   7.627
 2865POPC   C1B38107  38.139  17.711   8.778
 2865POPC   C2B38108  37.997  17.877   8.358
 2865POPC   C3B38109  38.083  17.817   7.890
 2865POPC   C4B38110  38.198  17.478   7.572
 2866POPC   NC338111  38.930  39.262   9.613
 2866POPC   PO438112  38.314  39.178   9.760
 2866POPC   GL138113  38.311  39.426   9.279
 2866POPC   GL238114  38.609  39.618   9.143
 2866POPC   C1A38115  38.234  39.578   8.788
 2866POPC   D2A38116  38.260  39.761   8.331
 2866POPC   C3A38117  38.284  39.474   7.949
 2866POPC   C4A38118  38.623  39.156   7.829
 2866POPC   C1B38119  38.869  39.505   8.768
 2866POPC   C2B38120  38.810  39.371   8.323
 2866POPC   C3B38121  38.955  39.525   7.920
 2866POPC   C4B38122  38.934  39.392   7.484
 2867POPC   NC338123  27.309  29.016   9.382
 2867POPC   PO438124  27.652  29.499   9.644
 2867POPC   GL138125  27.861  29.194   9.206
 2867POPC   GL238126  27.650  28.963   9.032
 2867POPC   C1A38127  27.812  29.280   8.693
 2867POPC   D2A38128  27.458  29.177   8.398
 2867POPC   C3A38129  27.555  29.368   8.004
 2867POPC   C4A38130  27.956  29.525   7.822
 2867POPC   C1B38131  27.347  28.782   8.743
 2867POPC   C2B38132  27.445  28.619   8.332
 2867POPC   C3B38133  27.523  28.863   7.956
 2867POPC   C4B38134  27.686  29.119   7.587
 2868POPC   NC338135  30.871   0.359   9.461
 2868POPC   PO438136  30.267   0.703   9.475
 2868POPC   GL138137  30.567   0.671   9.155
 2868POPC   GL238138  30.460   0.322   9.155
 2868POPC   C1A38139  30.807   0.490   8.794
 2868POPC   D2A38140  30.693   0.565   8.362
 2868POPC   C3A38141  30.952   0.553   7.980
 2868POPC   C4A38142  30.721   0.654   7.612
 2868POPC   C1B38143  30.623   0.020   8.884
 2868POPC   C2B38144  30.538   0.074   8.471
 2868POPC   C3B38145  30.696   0.134   8.078
 2868POPC   C4B38146  30.629   0.160   7.635
 2869POPC   NC338147   9.126  42.346   9.471
 2869POPC   PO438148   8.533  41.980   9.449
 2869POPC   GL138149   8.787  42.204   9.114
 2869POPC   GL238150   8.815  42.569   9.092
 2869POPC   C1A38151   9.125  42.238   8.779
 2869POPC   D2A38152   9.259  42.032   8.406
 2869POPC   C3A38153   8.894  42.125   8.177
 2869POPC   C4A38154   8.758  42.091   7.773
 2869POPC   C1B38155   8.899  42.688   8.653
 2869POPC   C2B38156   9.186  42.559   8.289
 2869POPC   C3B38157   9.185  42.414   7.821
 2869POPC   C4B38158   9.187  42.646   7.396
 2870POPC   NC338159   2.350  37.879   9.509
 2870POPC   PO438160   3.008  37.733   9.603
 2870POPC   GL138161   2.913  37.807   9.176
 2870POPC   GL238162   2.615  37.986   9.103
 2870POPC   C1A38163   2.917  37.640   8.762
 2870POPC   D2A38164   3.124  37.703   8.340
 2870POPC   C3A38165   2.983  37.556   7.948
 2870POPC   C4A38166   2.601  37.597   7.726
 2870POPC   C1B38167   2.449  37.870   8.744
 2870POPC   C2B38168   2.657  37.889   8.366
 2870POPC   C3B38169   2.715  38.075   7.990
 2870POPC   C4B38170   2.442  38.055   7.629
 2871POPC   NC338171  14.613   8.084   9.530
 2871POPC   PO438172  13.946   7.868   9.497
 2871POPC   GL138173  14.225   7.947   9.156
 2871POPC   GL238174  14.177   8.301   9.103
 2871POPC   C1A38175  14.623   7.897   8.893
 2871POPC   D2A38176  14.760   8.063   8.502
 2871POPC   C3A38177  14.525   8.104   8.129
 2871POPC   C4A38178  14.569   8.235   7.689
 2871POPC   C1B38179  14.236   8.123   8.659
 2871POPC   C2B38180  14.057   7.919   8.287
 2871POPC   C3B38181  14.077   8.143   7.900
 2871POPC   C4B38182  14.264   8.603   7.877
 2872POPC   NC338183  12.590  34.053   9.392
 2872POPC   PO438184  12.406  34.724   9.453
 2872POPC   GL138185  12.129  34.657   9.103
 2872POPC   GL238186  12.037  34.332   9.249
 2872POPC   C1A38187  12.021  34.642   8.670
 2872POPC   D2A38188  11.984  34.741   8.224
 2872POPC   C3A38189  12.323  34.528   7.965
 2872POPC   C4A38190  12.308  34.529   7.497
 2872POPC   C1B38191  11.892  34.161   8.866
 2872POPC   C2B38192  12.004  34.190   8.434
 2872POPC   C3B38193  11.896  34.203   8.048
 2872POPC   C4B38194  11.852  34.535   7.776
 2873POPC   NC338195  44.083   1.996   9.419
 2873POPC   PO438196  43.366   1.736   9.486
 2873POPC   GL138197  43.613   1.946   9.182
 2873POPC   GL238198  43.605   2.306   9.278
 2873POPC   C1A38199  43.795   1.848   8.761
 2873POPC   D2A38200  44.178   1.804   8.517
 2873POPC   C3A38201  44.044   1.877   8.093
 2873POPC   C4A38202  44.277   1.963   7.723
 2873POPC   C1B38203  43.547   2.299   8.809
 2873POPC   C2B38204  43.786   2.290   8.393
 2873POPC   C3B38205  43.616   2.291   7.960
 2873POPC   C4B38206  43.724   2.044   7.607
 2874POPC   NC338207   3.011  20.999   9.552
 2874POPC   PO438208   2.761  20.376   9.310
 2874POPC   GL138209   2.517  20.709   9.124
 2874POPC   GL238210   2.743  20.976   9.112
 2874POPC   C1A38211   2.599  20.721   8.674
 2874POPC   D2A38212   2.776  20.366   8.408
 2874POPC   C3A38213   2.959  20.434   8.007
 2874POPC   C4A38214   2.583  20.492   7.769
 2874POPC   C1B38215   3.014  21.036   8.736
 2874POPC   C2B38216   2.934  20.902   8.299
 2874POPC   C3B38217   2.876  20.912   7.843
 2874POPC   C4B38218   3.032  20.851   7.414
 2875POPC   NC338219   2.657  10.856   9.650
 2875POPC   PO438220   3.184  10.424   9.593
 2875POPC   GL138221   2.923  10.516   9.248
 2875POPC   GL238222   2.580  10.448   9.313
 2875POPC   C1A38223   2.937  10.466   8.775
 2875POPC   D2A38224   2.829  10.561   8.337
 2875POPC   C3A38225   2.936  10.346   7.932
 2875POPC   C4A38226   2.710  10.534   7.575
 2875POPC   C1B38227   2.447  10.354   8.860
 2875POPC   C2B38228   2.488  10.204   8.413
 2875POPC   C3B38229   2.437  10.403   7.995
 2875POPC   C4B38230   2.181  10.434   7.595
 2876POPC   NC338231  20.212  22.418   9.409
 2876POPC   PO438232  20.704  22.090   9.699
 2876POPC   GL138233  20.593  22.093   9.259
 2876POPC   GL238234  20.677  22.424   9.180
 2876POPC   C1A38235  20.676  22.046   8.805
 2876POPC   D2A38236  20.544  22.173   8.387
 2876POPC   C3A38237  20.774  22.071   8.026
 2876POPC   C4A38238  20.530  21.992   7.662
 2876POPC   C1B38239  20.417  22.494   8.779
 2876POPC   C2B38240  20.346  22.656   8.332
 2876POPC   C3B38241  20.487  22.493   7.910
 2876POPC   C4B38242  20.633  22.553   7.473
 2877POPC   NC338243  19.691   1.343   9.439
 2877POPC   PO438244  20.237   0.978   9.540
 2877POPC   GL138245  20.159   1.219   9.191
 2877POPC   GL238246  19.853   1.045   9.062
 2877POPC   C1A38247  20.170   1.272   8.755
 2877POPC   D2A38248  20.014   1.120   8.376
 2877POPC   C3A38249  20.161   1.232   7.965
 2877POPC   C4A38250  19.873   0.981   7.716
 2877POPC   C1B38251  19.680   1.419   8.812
 2877POPC   C2B38252  19.536   1.455   8.417
 2877POPC   C3B38253  19.655   1.314   8.048
 2877POPC   C4B38254  19.471   1.301   7.687
 2878POPC   NC338255  23.589  11.821   9.495
 2878POPC   PO438256  23.507  12.466   9.401
 2878POPC   GL138257  23.432  12.173   9.063
 2878POPC   GL238258  23.744  12.083   9.073
 2878POPC   C1A38259  23.477  11.923   8.665
 2878POPC   D2A38260  23.619  11.764   8.245
 2878POPC   C3A38261  23.457  11.917   7.863
 2878POPC   C4A38262  23.519  12.093   7.450
 2878POPC   C1B38263  23.894  12.303   8.729
 2878POPC   C2B38264  23.925  12.173   8.299
 2878POPC   C3B38265  23.826  12.292   7.864
 2878POPC   C4B38266  23.891  12.473   7.443
 2879POPC   NC338267  25.217  38.634   9.605
 2879POPC   PO438268  25.338  37.977   9.722
 2879POPC   GL138269  25.285  38.214   9.271
 2879POPC   GL238270  24.982  38.425   9.202
 2879POPC   C1A38271  25.302  38.326   8.800
 2879POPC   D2A38272  25.462  38.536   8.402
 2879POPC   C3A38273  25.510  38.308   8.019
 2879POPC   C4A38274  25.198  38.159   7.709
 2879POPC   C1B38275  24.841  38.629   8.839
 2879POPC   C2B38276  24.961  38.728   8.447
 2879POPC   C3B38277  25.006  38.510   8.105
 2879POPC   C4B38278  25.213  38.662   7.785
 2880POPC   NC338279  17.992  43.230   9.587
 2880POPC   PO438280  18.308  42.615   9.600
 2880POPC   GL138281  18.222  42.916   9.200
 2880POPC   GL238282  18.116  43.302   9.118
 2880POPC   C1A38283  18.400  43.033   8.797
 2880POPC   D2A38284  18.497  42.924   8.392
 2880POPC   C3A38285  18.474  43.193   8.036
 2880POPC   C4A38286  18.782  43.277   7.720
 2880POPC   C1B38287  17.919  43.228   8.732
 2880POPC   C2B38288  18.005  43.106   8.299
 2880POPC   C3B38289  17.950  43.245   7.863
 2880POPC   C4B38290  17.942  43.395   7.437
 2881POPC   NC338291   5.084  28.086   9.645
 2881POPC   PO438292   4.673  28.519   9.411
 2881POPC   GL138293   4.860  28.297   9.124
 2881POPC   GL238294   5.235  28.307   9.124
 2881POPC   C1A38295   4.703  28.250   8.734
 2881POPC   D2A38296   4.842  28.046   8.387
 2881POPC   C3A38297   4.921  28.335   8.115
 2881POPC   C4A38298   4.743  28.301   7.749
 2881POPC   C1B38299   5.161  28.474   8.688
 2881POPC   C2B38300   5.362  28.549   8.275
 2881POPC   C3B38301   5.405  28.200   7.983
 2881POPC   C4B38302   5.094  27.895   7.896
 2882POPC   NC338303  25.953  19.931   9.602
 2882POPC   PO438304  26.621  20.215   9.635
 2882POPC   GL138305  26.322  20.087   9.302
 2882POPC   GL238306  26.401  19.762   9.198
 2882POPC   C1A38307  26.098  20.028   8.892
 2882POPC   D2A38308  26.141  19.925   8.434
 2882POPC   C3A38309  25.972  20.162   8.064
 2882POPC   C4A38310  25.634  20.100   7.750
 2882POPC   C1B38311  26.460  19.629   8.773
 2882POPC   C2B38312  26.343  19.437   8.377
 2882POPC   C3B38313  25.960  19.381   8.177
 2882POPC   C4B38314  25.882  19.660   7.868
 2883POPC   NC338315  36.923  34.122   9.631
 2883POPC   PO438316  37.210  33.538   9.496
 2883POPC   GL138317  37.045  33.797   9.191
 2883POPC   GL238318  36.706  33.901   9.211
 2883POPC   C1A38319  37.118  33.985   8.800
 2883POPC   D2A38320  37.089  34.158   8.413
 2883POPC   C3A38321  36.810  34.038   8.044
 2883POPC   C4A38322  36.991  33.926   7.624
 2883POPC   C1B38323  36.477  33.804   8.836
 2883POPC   C2B38324  36.427  33.940   8.422
 2883POPC   C3B38325  36.375  33.663   8.099
 2883POPC   C4B38326  36.529  33.680   7.711
 2884POPC   NC338327  26.923  26.067   9.756
 2884POPC   PO438328  26.352  25.776   9.503
 2884POPC   GL138329  26.736  25.963   9.256
 2884POPC   GL238330  26.981  25.693   9.236
 2884POPC   C1A38331  26.976  26.017   8.836
 2884POPC   D2A38332  26.782  26.100   8.444
 2884POPC   C3A38333  26.789  26.328   8.102
 2884POPC   C4A38334  26.653  26.189   7.698
 2884POPC   C1B38335  27.134  25.532   8.813
 2884POPC   C2B38336  27.062  25.685   8.412
 2884POPC   C3B38337  26.938  25.834   8.008
 2884POPC   C4B38338  27.025  25.838   7.569
 2885POPC   NC338339   3.940  35.141   9.366
 2885POPC   PO438340   3.401  35.429   9.561
 2885POPC   GL138341   3.593  35.497   9.150
 2885POPC   GL238342   3.294  35.636   9.075
 2885POPC   C1A38343   3.714  35.388   8.715
 2885POPC   D2A38344   3.769  35.006   8.407
 2885POPC   C3A38345   3.737  35.099   7.933
 2885POPC   C4A38346   3.750  35.385   7.562
 2885POPC   C1B38347   3.225  35.346   8.716
 2885POPC   C2B38348   3.388  35.332   8.272
 2885POPC   C3B38349   3.275  35.298   7.810
 2885POPC   C4B38350   2.954  35.124   7.446
 2886POPC   NC338351  31.501  25.142   9.412
 2886POPC   PO438352  31.272  25.563   9.042
 2886POPC   GL138353  31.387  25.161   8.918
 2886POPC   GL238354  31.779  25.126   8.992
 2886POPC   C1A38355  31.211  24.936   8.589
 2886POPC   D2A38356  31.353  24.868   8.158
 2886POPC   C3A38357  31.341  25.208   7.843
 2886POPC   C4A38358  31.169  25.095   7.410
 2886POPC   C1B38359  31.789  25.456   8.709
 2886POPC   C2B38360  31.593  25.319   8.328
 2886POPC   C3B38361  31.820  25.081   7.999
 2886POPC   C4B38362  31.822  25.304   7.603
 2887POPC   NC338363  15.361   8.657   9.444
 2887POPC   PO438364  15.016   9.261   9.479
 2887POPC   GL138365  14.893   9.030   9.101
 2887POPC   GL238366  15.035   8.668   9.080
 2887POPC   C1A38367  14.853   8.856   8.671
 2887POPC   D2A38368  15.108   8.983   8.367
 2887POPC   C3A38369  14.956   9.155   8.013
 2887POPC   C4A38370  15.180   9.137   7.651
 2887POPC   C1B38371  15.359   8.717   8.752
 2887POPC   C2B38372  15.529   8.665   8.324
 2887POPC   C3B38373  15.286   8.719   7.921
 2887POPC   C4B38374  15.389   8.760   7.422
 2888POPC   NC338375  20.827  19.060   9.505
 2888POPC   PO438376  20.244  18.798   9.230
 2888POPC   GL138377  20.628  18.837   9.067
 2888POPC   GL238378  20.620  19.186   9.033
 2888POPC   C1A38379  20.618  18.839   8.637
 2888POPC   D2A38380  20.433  18.632   8.280
 2888POPC   C3A38381  20.477  18.941   7.958
 2888POPC   C4A38382  20.680  18.946   7.541
 2888POPC   C1B38383  20.333  19.298   8.702
 2888POPC   C2B38384  20.431  19.434   8.277
 2888POPC   C3B38385  20.647  19.411   7.872
 2888POPC   C4B38386  20.332  19.301   7.539
 2889POPC   NC338387  38.207  13.416   9.598
 2889POPC   PO438388  38.843  13.781   9.626
 2889POPC   GL138389  38.644  13.897   9.155
 2889POPC   GL238390  38.276  13.836   9.101
 2889POPC   C1A38391  38.555  13.676   8.723
 2889POPC   D2A38392  38.647  13.448   8.330
 2889POPC   C3A38393  38.390  13.437   7.979
 2889POPC   C4A38394  38.521  13.584   7.609
 2889POPC   C1B38395  38.269  14.112   8.732
 2889POPC   C2B38396  38.341  14.026   8.300
 2889POPC   C3B38397  38.226  13.933   7.870
 2889POPC   C4B38398  38.102  13.998   7.425
 2890POPC   NC338399  41.913  42.633   9.543
 2890POPC   PO438400  42.390  42.137   9.584
 2890POPC   GL138401  42.215  42.351   9.265
 2890POPC   GL238402  42.394  42.653   9.249
 2890POPC   C1A38403  42.140  42.298   8.854
 2890POPC   D2A38404  42.403  42.201   8.500
 2890POPC   C3A38405  42.328  42.192   8.050
 2890POPC   C4A38406  42.054  42.329   7.713
 2890POPC   C1B38407  42.566  42.625   8.832
 2890POPC   C2B38408  42.651  42.798   8.393
 2890POPC   C3B38409  42.629  42.645   7.963
 2890POPC   C4B38410  42.765  42.272   7.742
 2891POPC   NC338411  26.408  14.756   9.421
 2891POPC   PO438412  25.778  14.646   9.553
 2891POPC   GL138413  25.754  14.404   9.198
 2891POPC   GL238414  26.057  14.579   9.091
 2891POPC   C1A38415  25.718  14.399   8.759
 2891POPC   D2A38416  25.935  14.631   8.462
 2891POPC   C3A38417  25.974  14.601   8.050
 2891POPC   C4A38418  25.738  14.484   7.689
 2891POPC   C1B38419  26.339  14.703   8.747
 2891POPC   C2B38420  26.480  14.478   8.406
 2891POPC   C3B38421  26.418  14.348   8.014
 2891POPC   C4B38422  26.367  14.604   7.675
 2892POPC   NC338423  38.123  12.117   9.746
 2892POPC   PO438424  37.458  12.151   9.503
 2892POPC   GL138425  37.659  12.118   9.123
 2892POPC   GL238426  37.659  12.447   8.967
 2892POPC   C1A38427  37.580  11.920   8.733
 2892POPC   D2A38428  37.620  12.133   8.328
 2892POPC   C3A38429  37.678  11.884   7.975
 2892POPC   C4A38430  37.430  11.964   7.656
 2892POPC   C1B38431  37.955  12.254   8.697
 2892POPC   C2B38432  38.089  12.409   8.292
 2892POPC   C3B38433  38.100  12.176   7.893
 2892POPC   C4B38434  37.969  12.129   7.436
 2893POPC   NC338435   3.921  18.040   9.762
 2893POPC   PO438436   3.584  18.510   9.379
 2893POPC   GL138437   3.480  18.366   8.984
 2893POPC   GL238438   3.354  18.018   8.994
 2893POPC   C1A38439   3.616  18.482   8.589
 2893POPC   D2A38440   3.860  18.588   8.236
 2893POPC   C3A38441   3.553  18.567   7.935
 2893POPC   C4A38442   3.460  18.199   7.720
 2893POPC   C1B38443   3.647  17.963   8.652
 2893POPC   C2B38444   3.632  18.082   8.214
 2893POPC   C3B38445   3.693  17.791   7.840
 2893POPC   C4B38446   3.505  17.749   7.397
 2894POPC   NC338447  36.455  43.457   9.257
 2894POPC   PO438448  35.946  43.817   9.631
 2894POPC   GL138449  35.984  43.702   9.188
 2894POPC   GL238450  35.926  43.392   9.248
 2894POPC   C1A38451  36.130  43.828   8.760
 2894POPC   D2A38452  35.895  43.971   8.392
 2894POPC   C3A38453  36.126  43.846   8.047
 2894POPC   C4A38454  36.417  43.988   7.748
 2894POPC   C1B38455  35.805  43.283   8.834
 2894POPC   C2B38456  36.059  43.399   8.482
 2894POPC   C3B38457  36.030  43.345   8.044
 2894POPC   C4B38458  35.999  43.575   7.643
 2895POPC   NC338459  13.243   6.745   9.520
 2895POPC   PO438460  13.959   6.410   9.490
 2895POPC   GL138461  13.615   6.654   9.172
 2895POPC   GL238462  13.535   6.423   8.959
 2895POPC   C1A38463  13.615   6.865   8.716
 2895POPC   D2A38464  13.728   7.032   8.285
 2895POPC   C3A38465  13.774   6.705   8.021
 2895POPC   C4A38466  14.072   6.394   7.991
 2895POPC   C1B38467  13.892   6.275   8.811
 2895POPC   C2B38468  13.824   6.425   8.447
 2895POPC   C3B38469  13.637   6.163   8.144
 2895POPC   C4B38470  13.500   6.360   7.774
 2896POPC   NC338471  38.027  18.080   9.563
 2896POPC   PO438472  37.390  18.401   9.582
 2896POPC   GL138473  37.566  18.376   9.187
 2896POPC   GL238474  37.892  18.419   9.198
 2896POPC   C1A38475  37.707  18.153   8.799
 2896POPC   D2A38476  37.484  18.061   8.421
 2896POPC   C3A38477  37.657  18.115   8.035
 2896POPC   C4A38478  37.571  18.233   7.638
 2896POPC   C1B38479  38.083  18.532   8.834
 2896POPC   C2B38480  37.993  18.392   8.428
 2896POPC   C3B38481  38.000  18.467   8.011
 2896POPC   C4B38482  38.096  18.283   7.640
 2897POPC   NC338483   8.586  22.824   9.458
 2897POPC   PO438484   9.205  22.953   9.585
 2897POPC   GL138485   9.003  22.956   9.218
 2897POPC   GL238486   8.975  22.595   9.233
 2897POPC   C1A38487   8.786  22.898   8.835
 2897POPC   D2A38488   8.834  23.132   8.475
 2897POPC   C3A38489   9.016  23.015   8.115
 2897POPC   C4A38490   8.885  23.070   7.717
 2897POPC   C1B38491   9.297  22.662   8.940
 2897POPC   C2B38492   9.180  22.728   8.532
 2897POPC   C3B38493   9.110  22.518   8.148
 2897POPC   C4B38494   9.299  22.635   7.800
 2898POPC   NC338495  22.752   2.609   9.598
 2898POPC   PO438496  22.387   3.209   9.612
 2898POPC   GL138497  22.701   3.005   9.248
 2898POPC   GL238498  22.886   2.654   9.140
 2898POPC   C1A38499  22.880   3.006   8.802
 2898POPC   D2A38500  22.849   3.169   8.407
 2898POPC   C3A38501  22.906   3.020   8.038
 2898POPC   C4A38502  23.272   3.070   7.813
 2898POPC   C1B38503  22.659   2.432   8.853
 2898POPC   C2B38504  22.694   2.631   8.464
 2898POPC   C3B38505  22.749   2.549   8.037
 2898POPC   C4B38506  22.833   2.730   7.621
 2899POPC   NC338507  32.341   8.395   9.503
 2899POPC   PO438508  32.047   7.800   9.526
 2899POPC   GL138509  32.086   8.061   9.207
 2899POPC   GL238510  32.428   7.989   9.186
 2899POPC   C1A38511  32.125   8.342   8.862
 2899POPC   D2A38512  32.228   8.487   8.436
 2899POPC   C3A38513  32.041   8.301   8.056
 2899POPC   C4A38514  31.994   7.891   7.848
 2899POPC   C1B38515  32.293   7.748   8.879
 2899POPC   C2B38516  32.100   7.882   8.518
 2899POPC   C3B38517  32.394   7.984   8.214
 2899POPC   C4B38518  32.495   8.024   7.793
 2900POPC   NC338519  19.217  27.129   9.615
 2900POPC   PO438520  19.026  26.528   9.629
 2900POPC   GL138521  18.987  26.776   9.270
 2900POPC   GL238522  18.734  27.006   9.370
 2900POPC   C1A38523  19.128  26.718   8.845
 2900POPC   D2A38524  19.242  26.852   8.449
 2900POPC   C3A38525  19.148  26.636   8.066
 2900POPC   C4A38526  19.128  26.686   7.623
 2900POPC   C1B38527  18.762  27.078   8.929
 2900POPC   C2B38528  18.853  27.197   8.538
 2900POPC   C3B38529  19.027  27.176   8.145
 2900POPC   C4B38530  19.003  27.164   7.738
 2901POPC   NC338531   9.998  26.476   9.497
 2901POPC   PO438532   9.590  27.064   9.376
 2901POPC   GL138533   9.771  26.744   9.115
 2901POPC   GL238534  10.110  26.885   9.194
 2901POPC   C1A38535   9.617  26.636   8.709
 2901POPC   D2A38536   9.744  26.964   8.456
 2901POPC   C3A38537   9.567  26.963   8.071
 2901POPC   C4A38538   9.354  26.747   7.779
 2901POPC   C1B38539  10.071  27.147   8.829
 2901POPC   C2B38540  10.239  27.112   8.438
 2901POPC   C3B38541  10.081  27.040   8.007
 2901POPC   C4B38542  10.101  26.987   7.547
 2902POPC   NC338543  30.359  44.510   9.596
 2902POPC   PO438544  29.805  44.817   9.507
 2902POPC   GL138545  29.893  44.757   9.108
 2902POPC   GL238546  30.230  44.864   9.195
 2902POPC   C1A38547  29.752  44.688   8.690
 2902POPC   D2A38548  29.556  44.638   8.286
 2902POPC   C3A38549  29.815  44.679   7.905
 2902POPC   C4A38550  29.893  44.364   7.561
 2902POPC   C1B38551  30.115   0.096   8.817
 2902POPC   C2B38552  30.039  44.983   8.403
 2902POPC   C3B38553  30.234  44.953   8.042
 2902POPC   C4B38554  30.134   0.043   7.644
 2903POPC   NC338555  17.727  35.659  10.040
 2903POPC   PO438556  17.579  35.288   9.515
 2903POPC   GL138557  17.472  35.266   9.121
 2903POPC   GL238558  17.177  35.459   9.143
 2903POPC   C1A38559  17.408  35.287   8.696
 2903POPC   D2A38560  17.397  35.152   8.290
 2903POPC   C3A38561  17.648  35.392   8.076
 2903POPC   C4A38562  17.557  35.250   7.663
 2903POPC   C1B38563  17.247  35.754   8.804
 2903POPC   C2B38564  17.213  35.637   8.363
 2903POPC   C3B38565  17.177  35.511   7.945
 2903POPC   C4B38566  17.043  35.590   7.519
 2904POPC   NC338567  32.937   8.593  10.025
 2904POPC   PO438568  33.387   8.945   9.567
 2904POPC   GL138569  33.261   8.978   9.132
 2904POPC   GL238570  32.933   8.860   9.112
 2904POPC   C1A38571  33.162   9.061   8.697
 2904POPC   D2A38572  33.368   9.181   8.324
 2904POPC   C3A38573  33.236   9.176   7.882
 2904POPC   C4A38574  32.951   9.218   7.512
 2904POPC   C1B38575  32.810   8.696   8.718
 2904POPC   C2B38576  32.977   8.790   8.304
 2904POPC   C3B38577  33.105   8.644   7.931
 2904POPC   C4B38578  33.105   8.758   7.514
 2905POPC   NC338579   3.396  44.267   9.835
 2905POPC   PO438580   3.680  43.677   9.580
 2905POPC   GL138581   3.488  43.716   9.157
 2905POPC   GL238582   3.343  44.050   9.076
 2905POPC   C1A38583   3.494  43.548   8.762
 2905POPC   D2A38584   3.413  43.867   8.486
 2905POPC   C3A38585   3.579  43.708   8.119
 2905POPC   C4A38586   3.501  43.801   7.732
 2905POPC   C1B38587   3.684  44.217   8.796
 2905POPC   C2B38588   3.711  44.439   8.430
 2905POPC   C3B38589   3.616  44.214   8.082
 2905POPC   C4B38590   3.769  44.255   7.707
 2906POPC   NC338591  21.534  10.302   9.444
 2906POPC   PO438592  21.158   9.772   9.710
 2906POPC   GL138593  21.380   9.802   9.262
 2906POPC   GL238594  21.614  10.027   9.018
 2906POPC   C1A38595  21.295   9.703   8.810
 2906POPC   D2A38596  21.377   9.966   8.431
 2906POPC   C3A38597  21.141   9.783   8.093
 2906POPC   C4A38598  21.141   9.371   7.838
 2906POPC   C1B38599  21.775   9.721   8.646
 2906POPC   C2B38600  21.608   9.537   8.244
 2906POPC   C3B38601  21.569   9.736   7.835
 2906POPC   C4B38602  21.629  10.039   7.472
 2907POPC   NC338603   2.976  35.244   9.608
 2907POPC   PO438604   2.485  34.799   9.575
 2907POPC   GL138605   2.719  35.056   9.183
 2907POPC   GL238606   2.841  35.420   9.143
 2907POPC   C1A38607   2.740  35.187   8.710
 2907POPC   D2A38608   2.888  35.406   8.315
 2907POPC   C3A38609   2.775  35.203   7.923
 2907POPC   C4A38610   2.489  35.350   7.583
 2907POPC   C1B38611   2.876  35.708   8.760
 2907POPC   C2B38612   2.855  35.942   8.357
 2907POPC   C3B38613   3.054  35.876   7.954
 2907POPC   C4B38614   2.941  35.602   7.603
 2908POPC   NC338615  37.870   8.825   9.453
 2908POPC   PO438616  37.370   9.294   9.445
 2908POPC   GL138617  37.544   9.067   9.117
 2908POPC   GL238618  37.914   9.199   9.122
 2908POPC   C1A38619  37.534   8.860   8.681
 2908POPC   D2A38620  37.809   8.602   8.393
 2908POPC   C3A38621  37.797   8.669   7.956
 2908POPC   C4A38622  37.492   8.819   7.635
 2908POPC   C1B38623  37.767   9.323   8.753
 2908POPC   C2B38624  37.590   9.316   8.383
 2908POPC   C3B38625  37.681   9.166   7.997
 2908POPC   C4B38626  37.600   9.297   7.581
 2909POPC   NC338627  28.943   6.788   9.672
 2909POPC   PO438628  29.512   6.601   9.618
 2909POPC   GL138629  29.290   6.768   9.263
 2909POPC   GL238630  28.934   6.684   9.155
 2909POPC   C1A38631  29.323   6.833   8.812
 2909POPC   D2A38632  29.223   6.695   8.383
 2909POPC   C3A38633  29.125   6.929   8.006
 2909POPC   C4A38634  29.488   6.981   7.755
 2909POPC   C1B38635  28.807   6.671   8.703
 2909POPC   C2B38636  28.786   6.439   8.301
 2909POPC   C3B38637  28.897   6.468   7.855
 2909POPC   C4B38638  28.795   6.558   7.403
 2910POPC   NC338639  33.741  43.241   9.591
 2910POPC   PO438640  34.220  42.825   9.669
 2910POPC   GL138641  34.098  43.042   9.253
 2910POPC   GL238642  33.738  42.989   9.143
 2910POPC   C1A38643  34.003  43.363   8.904
 2910POPC   D2A38644  34.130  43.390   8.468
 2910POPC   C3A38645  33.894  43.469   8.070
 2910POPC   C4A38646  33.898  43.221   7.706
 2910POPC   C1B38647  33.551  42.793   8.759
 2910POPC   C2B38648  33.615  42.581   8.344
 2910POPC   C3B38649  33.501  42.534   7.895
 2910POPC   C4B38650  33.582  42.826   7.571
 2911POPC   NC338651  42.127  10.429   9.580
 2911POPC   PO438652  42.675  10.748   9.638
 2911POPC   GL138653  42.400  10.815   9.226
 2911POPC   GL238654  42.271  10.484   9.103
 2911POPC   C1A38655  42.447  10.785   8.731
 2911POPC   D2A38656  42.360  10.521   8.342
 2911POPC   C3A38657  42.338  10.722   7.893
 2911POPC   C4A38658  42.634  10.749   7.557
 2911POPC   C1B38659  42.113  10.250   8.772
 2911POPC   C2B38660  42.014  10.106   8.379
 2911POPC   C3B38661  42.113  10.251   7.979
 2911POPC   C4B38662  41.933  10.467   7.640
 2912POPC   NC338663   8.794  40.249   9.422
 2912POPC   PO438664   9.410  40.267   9.523
 2912POPC   GL138665   9.183  39.945   9.272
 2912POPC   GL238666   9.149  40.207   9.054
 2912POPC   C1A38667   8.997  39.784   8.826
 2912POPC   D2A38668   9.020  39.911   8.363
 2912POPC   C3A38669   8.753  39.761   8.029
 2912POPC   C4A38670   8.660  40.044   7.704
 2912POPC   C1B38671   9.350  40.161   8.680
 2912POPC   C2B38672   9.497  40.196   8.285
 2912POPC   C3B38673   9.465  40.428   7.914
 2912POPC   C4B38674   9.332  40.404   7.507
 2913POPC   NC338675  23.976  40.618   9.683
 2913POPC   PO438676  23.550  41.032   9.460
 2913POPC   GL138677  23.813  40.849   9.150
 2913POPC   GL238678  23.928  40.488   9.177
 2913POPC   C1A38679  23.758  40.987   8.735
 2913POPC   D2A38680  23.710  40.785   8.343
 2913POPC   C3A38681  23.790  41.031   7.990
 2913POPC   C4A38682  24.091  40.891   7.720
 2913POPC   C1B38683  23.695  40.471   8.795
 2913POPC   C2B38684  23.516  40.308   8.430
 2913POPC   C3B38685  23.747  40.337   8.050
 2913POPC   C4B38686  23.433  40.465   7.769
 2914POPC   NC338687  14.848  22.022   9.493
 2914POPC   PO438688  14.144  22.218   9.383
 2914POPC   GL138689  14.447  22.170   9.104
 2914POPC   GL238690  14.460  21.847   9.120
 2914POPC   C1A38691  14.358  22.076   8.673
 2914POPC   D2A38692  14.598  22.313   8.404
 2914POPC   C3A38693  14.498  22.246   7.998
 2914POPC   C4A38694  14.049  22.185   7.926
 2914POPC   C1B38695  14.793  21.798   8.815
 2914POPC   C2B38696  14.871  21.661   8.381
 2914POPC   C3B38697  14.733  21.758   7.974
 2914POPC   C4B38698  14.326  21.789   7.787
 2915POPC   NC338699   3.508  15.033   9.640
 2915POPC   PO438700   3.065  14.614   9.399
 2915POPC   GL138701   3.300  14.982   9.180
 2915POPC   GL238702   3.710  14.992   9.187
 2915POPC   C1A38703   3.445  15.211   8.813
 2915POPC   D2A38704   3.541  15.076   8.412
 2915POPC   C3A38705   3.375  15.306   8.057
 2915POPC   C4A38706   3.346  15.025   7.756
 2915POPC   C1B38707   3.946  14.972   8.813
 2915POPC   C2B38708   4.045  15.133   8.416
 2915POPC   C3B38709   3.862  15.143   8.006
 2915POPC   C4B38710   3.847  14.859   7.667
 2916POPC   NC338711  13.424  21.052   9.519
 2916POPC   PO438712  13.815  20.471   9.466
 2916POPC   GL138713  13.726  20.829   9.178
 2916POPC   GL238714  13.345  20.767   9.100
 2916POPC   C1A38715  13.675  20.937   8.749
 2916POPC   D2A38716  13.432  20.750   8.458
 2916POPC   C3A38717  13.568  20.827   8.069
 2916POPC   C4A38718  13.760  20.958   7.684
 2916POPC   C1B38719  13.159  20.467   8.805
 2916POPC   C2B38720  13.243  20.280   8.391
 2916POPC   C3B38721  13.219  20.450   7.969
 2916POPC   C4B38722  13.610  20.427   7.730
 2917POPC   NC338723   8.615  33.800   9.593
 2917POPC   PO438724   9.216  33.681   9.792
 2917POPC   GL138725   9.079  33.791   9.291
 2917POPC   GL238726   8.742  33.725   9.117
 2917POPC   C1A38727   9.060  33.841   8.774
 2917POPC   D2A38728   9.060  33.567   8.392
 2917POPC   C3A38729   9.139  33.698   7.969
 2917POPC   C4A38730   9.091  34.108   7.823
 2917POPC   C1B38731   8.618  33.561   8.707
 2917POPC   C2B38732   8.559  33.746   8.316
 2917POPC   C3B38733   8.635  33.621   7.904
 2917POPC   C4B38734   8.573  33.566   7.474
 2918POPC   NC338735  35.753  23.850   9.383
 2918POPC   PO438736  35.197  23.605   9.581
 2918POPC   GL138737  35.222  23.890   9.264
 2918POPC   GL238738  35.407  23.701   9.033
 2918POPC   C1A38739  35.020  24.011   8.888
 2918POPC   D2A38740  35.250  23.937   8.521
 2918POPC   C3A38741  35.035  23.806   8.169
 2918POPC   C4A38742  35.360  23.832   7.888
 2918POPC   C1B38743  35.198  23.451   8.738
 2918POPC   C2B38744  35.347  23.394   8.313
 2918POPC   C3B38745  35.682  23.459   8.030
 2918POPC   C4B38746  35.771  23.593   7.603
 2919POPC   NC338747   6.777  18.758   9.889
 2919POPC   PO438748   7.148  19.173   9.527
 2919POPC   GL138749   7.348  19.150   9.163
 2919POPC   GL238750   7.159  18.851   9.108
 2919POPC   C1A38751   7.535  19.084   8.783
 2919POPC   D2A38752   7.425  19.250   8.423
 2919POPC   C3A38753   7.607  19.133   8.075
 2919POPC   C4A38754   7.363  19.087   7.720
 2919POPC   C1B38755   6.997  18.672   8.814
 2919POPC   C2B38756   7.097  18.876   8.494
 2919POPC   C3B38757   7.083  18.934   8.101
 2919POPC   C4B38758   7.017  18.645   7.763
 2920POPC   NC338759  10.056   2.019   9.544
 2920POPC   PO438760   9.371   2.096   9.657
 2920POPC   GL138761   9.523   2.328   9.319
 2920POPC   GL238762   9.712   2.072   9.166
 2920POPC   C1A38763   9.473   2.395   8.859
 2920POPC   D2A38764   9.552   2.104   8.522
 2920POPC   C3A38765   9.494   2.168   8.074
 2920POPC   C4A38766   9.462   2.359   7.661
 2920POPC   C1B38767   9.966   2.236   8.821
 2920POPC   C2B38768  10.140   2.219   8.427
 2920POPC   C3B38769  10.187   1.994   8.075
 2920POPC   C4B38770   9.875   1.990   7.761
 2921POPC   NC338771  24.208  25.654   9.427
 2921POPC   PO438772  24.463  25.054   9.443
 2921POPC   GL138773  24.383  25.281   9.063
 2921POPC   GL238774  24.538  25.605   9.044
 2921POPC   C1A38775  24.458  25.315   8.634
 2921POPC   D2A38776  24.679  25.156   8.331
 2921POPC   C3A38777  24.411  25.110   8.006
 2921POPC   C4A38778  24.649  25.216   7.649
 2921POPC   C1B38779  24.143  25.684   8.780
 2921POPC   C2B38780  24.215  25.692   8.359
 2921POPC   C3B38781  24.447  25.614   8.032
 2921POPC   C4B38782  24.265  25.562   7.633
 2922POPC   NC338783  22.702  29.204   9.395
 2922POPC   PO438784  23.355  29.494   9.343
 2922POPC   GL138785  23.109  29.134   9.123
 2922POPC   GL238786  23.230  28.791   9.209
 2922POPC   C1A38787  22.871  29.092   8.715
 2922POPC   D2A38788  22.596  29.257   8.373
 2922POPC   C3A38789  22.692  29.384   7.939
 2922POPC   C4A38790  22.928  29.453   7.581
 2922POPC   C1B38791  23.312  28.804   8.768
 2922POPC   C2B38792  23.159  28.854   8.357
 2922POPC   C3B38793  23.264  28.739   7.941
 2922POPC   C4B38794  22.945  28.943   7.686
 2923POPC   NC338795  34.082  41.833   9.524
 2923POPC   PO438796  33.638  41.348   9.717
 2923POPC   GL138797  33.707  41.584   9.272
 2923POPC   GL238798  34.047  41.602   9.076
 2923POPC   C1A38799  33.608  41.663   8.833
 2923POPC   D2A38800  33.536  41.558   8.391
 2923POPC   C3A38801  33.802  41.657   8.042
 2923POPC   C4A38802  33.772  41.343   7.715
 2923POPC   C1B38803  33.996  41.316   8.702
 2923POPC   C2B38804  33.885  41.201   8.278
 2923POPC   C3B38805  34.209  41.305   7.969
 2923POPC   C4B38806  34.278  41.728   7.794
 2924POPC   NC338807   9.756  10.647   9.795
 2924POPC   PO438808   9.973  10.130   9.453
 2924POPC   GL138809   9.795  10.342   9.117
 2924POPC   GL238810   9.845  10.679   9.100
 2924POPC   C1A38811   9.808  10.391   8.690
 2924POPC   D2A38812   9.960  10.499   8.350
 2924POPC   C3A38813   9.819  10.318   8.040
 2924POPC   C4A38814   9.748  10.506   7.686
 2924POPC   C1B38815   9.553  10.820   8.787
 2924POPC   C2B38816   9.475  10.967   8.393
 2924POPC   C3B38817   9.575  10.862   7.998
 2924POPC   C4B38818   9.326  10.843   7.630
 2925POPC   NC338819  14.703   3.490   9.258
 2925POPC   PO438820  14.150   3.297   9.640
 2925POPC   GL138821  14.092   3.294   9.211
 2925POPC   GL238822  14.066   3.654   9.129
 2925POPC   C1A38823  14.292   3.311   8.796
 2925POPC   D2A38824  14.575   3.557   8.517
 2925POPC   C3A38825  14.289   3.617   8.203
 2925POPC   C4A38826  14.367   3.423   7.860
 2925POPC   C1B38827  14.226   3.851   8.738
 2925POPC   C2B38828  14.499   4.083   8.430
 2925POPC   C3B38829  14.652   3.929   8.046
 2925POPC   C4B38830  14.350   3.915   7.725
 2926POPC   NC338831  35.682  24.574   9.567
 2926POPC   PO438832  35.034  24.384   9.536
 2926POPC   GL138833  35.301  24.386   9.165
 2926POPC   GL238834  35.402  24.712   9.171
 2926POPC   C1A38835  35.137  24.485   8.735
 2926POPC   D2A38836  34.906  24.290   8.425
 2926POPC   C3A38837  35.172  24.298   8.097
 2926POPC   C4A38838  35.209  24.269   7.681
 2926POPC   C1B38839  35.583  24.728   8.776
 2926POPC   C2B38840  35.541  24.531   8.390
 2926POPC   C3B38841  35.585  24.568   7.971
 2926POPC   C4B38842  35.300  24.751   7.724
 2927POPC   NC338843  31.004  23.337   9.455
 2927POPC   PO438844  30.517  22.829   9.598
 2927POPC   GL138845  30.657  22.893   9.208
 2927POPC   GL238846  31.016  22.828   9.297
 2927POPC   C1A38847  30.522  23.068   8.794
 2927POPC   D2A38848  30.565  23.228   8.351
 2927POPC   C3A38849  30.435  22.923   7.995
 2927POPC   C4A38850  30.447  23.006   7.499
 2927POPC   C1B38851  31.005  22.806   8.847
 2927POPC   C2B38852  30.830  22.802   8.438
 2927POPC   C3B38853  30.937  22.983   8.048
 2927POPC   C4B38854  30.858  22.768   7.682
 2928POPC   NC338855  17.449  16.886   9.495
 2928POPC   PO438856  17.305  16.280   9.447
 2928POPC   GL138857  17.309  16.584   9.111
 2928POPC   GL238858  17.668  16.577   9.135
 2928POPC   C1A38859  17.436  16.963   8.846
 2928POPC   D2A38860  17.510  16.973   8.423
 2928POPC   C3A38861  17.319  16.839   8.039
 2928POPC   C4A38862  17.318  17.115   7.692
 2928POPC   C1B38863  17.814  16.634   8.721
 2928POPC   C2B38864  17.777  16.579   8.273
 2928POPC   C3B38865  17.830  16.768   7.871
 2928POPC   C4B38866  17.992  16.600   7.462
 2929POPC   NC338867  38.050   0.439   9.239
 2929POPC   PO438868  37.527   0.194   9.511
 2929POPC   GL138869  37.575   0.372   9.109
 2929POPC   GL238870  37.613   0.029   9.018
 2929POPC   C1A38871  37.748   0.518   8.690
 2929POPC   D2A38872  37.942   0.441   8.313
 2929POPC   C3A38873  37.650   0.508   7.977
 2929POPC   C4A38874  37.774   0.481   7.537
 2929POPC   C1B38875  37.948   0.040   8.742
 2929POPC   C2B38876  37.940  44.880   8.381
 2929POPC   C3B38877  37.734   0.026   8.065
 2929POPC   C4B38878  37.741  44.946   7.680
 2930POPC   NC338879  42.705   3.379   9.498
 2930POPC   PO438880  42.213   3.741   9.497
 2930POPC   GL138881  42.438   3.684   9.118
 2930POPC   GL238882  42.669   3.401   9.019
 2930POPC   C1A38883  42.186   3.564   8.778
 2930POPC   D2A38884  42.142   3.450   8.373
 2930POPC   C3A38885  42.366   3.699   8.077
 2930POPC   C4A38886  42.244   3.596   7.688
 2930POPC   C1B38887  42.681   3.575   8.658
 2930POPC   C2B38888  42.732   3.409   8.285
 2930POPC   C3B38889  42.752   3.446   7.862
 2930POPC   C4B38890  42.633   3.387   7.448
 2931POPC   NC338891  22.646  40.134   9.513
 2931POPC   PO438892  23.115  39.675   9.585
 2931POPC   GL138893  22.938  39.719   9.241
 2931POPC   GL238894  23.020  40.046   9.158
 2931POPC   C1A38895  23.016  39.557   8.889
 2931POPC   D2A38896  22.984  39.488   8.501
 2931POPC   C3A38897  22.739  39.693   8.227
 2931POPC   C4A38898  22.958  39.720   7.844
 2931POPC   C1B38899  22.866  40.021   8.740
 2931POPC   C2B38900  23.087  40.010   8.391
 2931POPC   C3B38901  22.961  40.219   7.998
 2931POPC   C4B38902  22.822  40.446   7.639
 2932POPC   NC338903  35.802  31.784   9.183
 2932POPC   PO438904  35.773  31.256   9.612
 2932POPC   GL138905  35.985  31.277   9.188
 2932POPC   GL238906  36.243  31.516   9.039
 2932POPC   C1A38907  35.886  31.323   8.737
 2932POPC   D2A38908  35.714  31.233   8.336
 2932POPC   C3A38909  35.946  31.435   7.994
 2932POPC   C4A38910  35.901  31.896   7.857
 2932POPC   C1B38911  36.486  31.388   8.667
 2932POPC   C2B38912  36.552  31.317   8.205
 2932POPC   C3B38913  36.373  31.127   7.822
 2932POPC   C4B38914  36.372  31.216   7.356
 2933POPC   NC338915  15.605  18.198   9.592
 2933POPC   PO438916  16.171  18.613   9.627
 2933POPC   GL138917  16.075  18.472   9.260
 2933POPC   GL238918  15.969  18.133   9.195
 2933POPC   C1A38919  16.197  18.489   8.856
 2933POPC   D2A38920  16.344  18.408   8.450
 2933POPC   C3A38921  16.131  18.284   8.084
 2933POPC   C4A38922  16.259  18.316   7.656
 2933POPC   C1B38923  15.888  18.121   8.718
 2933POPC   C2B38924  15.630  18.203   8.357
 2933POPC   C3B38925  15.473  18.087   7.967
 2933POPC   C4B38926  15.777  18.204   7.707
 2934POPC   NC338927  37.815  44.769   9.464
 2934POPC   PO438928  38.357  44.322   9.540
 2934POPC   GL138929  37.948  44.325   9.219
 2934POPC   GL238930  37.573  44.502   9.120
 2934POPC   C1A38931  37.915  44.532   8.795
 2934POPC   D2A38932  37.904  44.364   8.436
 2934POPC   C3A38933  37.685  44.529   8.093
 2934POPC   C4A38934  37.813  44.445   7.707
 2934POPC   C1B38935  37.247  44.307   8.880
 2934POPC   C2B38936  37.383  44.394   8.487
 2934POPC   C3B38937  37.225  44.317   8.086
 2934POPC   C4B38938  37.315  44.354   7.644
 2935POPC   NC338939   9.563  12.969   9.489
 2935POPC   PO438940   8.963  12.611   9.463
 2935POPC   GL138941   8.878  12.877   9.114
 2935POPC   GL238942   9.166  13.083   9.169
 2935POPC   C1A38943   8.764  12.773   8.688
 2935POPC   D2A38944   8.927  12.592   8.298
 2935POPC   C3A38945   8.896  12.885   7.961
 2935POPC   C4A38946   8.756  13.037   7.583
 2935POPC   C1B38947   9.150  13.134   8.730
 2935POPC   C2B38948   9.258  12.993   8.321
 2935POPC   C3B38949   9.448  13.117   7.927
 2935POPC   C4B38950   9.241  13.215   7.532
 2936POPC   NC338951  30.892   7.540   9.662
 2936POPC   PO438952  30.268   7.660   9.681
 2936POPC   GL138953  30.485   7.517   9.240
 2936POPC   GL238954  30.829   7.409   9.179
 2936POPC   C1A38955  30.542   7.359   8.778
 2936POPC   D2A38956  30.675   7.600   8.397
 2936POPC   C3A38957  30.547   7.397   7.994
 2936POPC   C4A38958  30.188   7.363   7.750
 2936POPC   C1B38959  31.058   7.508   8.800
 2936POPC   C2B38960  31.219   7.420   8.409
 2936POPC   C3B38961  31.043   7.513   8.033
 2936POPC   C4B38962  30.860   7.639   7.662
 2937POPC   NC338963  37.325   3.236   9.446
 2937POPC   PO438964  37.831   3.816   9.480
 2937POPC   GL138965  37.646   3.788   9.048
 2937POPC   GL238966  37.311   3.558   9.070
 2937POPC   C1A38967  37.899   3.682   8.699
 2937POPC   D2A38968  37.820   3.343   8.386
 2937POPC   C3A38969  37.636   3.502   8.025
 2937POPC   C4A38970  37.842   3.857   7.872
 2937POPC   C1B38971  37.402   3.487   8.661
 2937POPC   C2B38972  37.510   3.810   8.405
 2937POPC   C3B38973  37.360   3.943   8.062
 2937POPC   C4B38974  37.208   3.730   7.773
 2938POPC   NC338975  16.143   7.832   9.484
 2938POPC   PO438976  15.748   8.410   9.395
 2938POPC   GL138977  15.993   8.168   9.127
 2938POPC   GL238978  15.735   8.008   9.069
 2938POPC   C1A38979  16.091   7.965   8.709
 2938POPC   D2A38980  16.308   8.095   8.359
 2938POPC   C3A38981  16.055   8.235   8.029
 2938POPC   C4A38982  16.260   8.106   7.678
 2938POPC   C1B38983  15.664   8.271   8.730
 2938POPC   C2B38984  15.461   8.140   8.374
 2938POPC   C3B38985  15.508   8.255   7.977
 2938POPC   C4B38986  15.716   8.491   7.709
 2939POPC   NC338987  17.907  26.729   9.432
 2939POPC   PO438988  17.258  26.447   9.431
 2939POPC   GL138989  17.454  26.736   9.166
 2939POPC   GL238990  17.514  27.074   9.296
 2939POPC   C1A38991  17.704  26.729   8.789
 2939POPC   D2A38992  17.630  26.492   8.403
 2939POPC   C3A38993  17.661  26.702   8.017
 2939POPC   C4A38994  17.500  26.839   7.622
 2939POPC   C1B38995  17.383  27.130   8.838
 2939POPC   C2B38996  17.615  27.131   8.436
 2939POPC   C3B38997  17.486  27.175   7.995
 2939POPC   C4B38998  17.772  27.258   7.646
 2940POPC   NC338999  40.292  16.665   9.394
 2940POPC   PO439000  39.685  17.086   9.488
 2940POPC   GL139001  39.874  16.905   9.156
 2940POPC   GL239002  39.704  17.165   8.972
 2940POPC   C1A39003  40.000  16.646   8.790
 2940POPC   D2A39004  40.159  16.729   8.364
 2940POPC   C3A39005  40.153  16.383   8.068
 2940POPC   C4A39006  40.149  16.556   7.665
 2940POPC   C1B39007  39.506  16.778   8.818
 2940POPC   C2B39008  39.627  16.616   8.411
 2940POPC   C3B39009  39.767  16.718   8.000
 2940POPC   C4B39010  39.861  17.012   7.677
 2941POPC   NC339011  26.169  24.667   9.458
 2941POPC   PO439012  25.501  24.463   9.426
 2941POPC   GL139013  25.798  24.496   9.101
 2941POPC   GL239014  26.104  24.292   9.121
 2941POPC   C1A39015  25.939  24.797   8.800
 2941POPC   D2A39016  26.052  24.822   8.364
 2941POPC   C3A39017  26.006  24.521   8.050
 2941POPC   C4A39018  26.103  24.413   7.616
 2941POPC   C1B39019  26.299  24.412   8.768
 2941POPC   C2B39020  26.369  24.300   8.347
 2941POPC   C3B39021  26.496  24.472   7.923
 2941POPC   C4B39022  26.545  24.580   7.446
 2942POPC   NC339023   9.171  33.213   9.678
 2942POPC   PO439024   9.856  33.111   9.596
 2942POPC   GL139025   9.684  33.279   9.197
 2942POPC   GL239026   9.980  33.252   9.035
 2942POPC   C1A39027   9.534  33.314   8.735
 2942POPC   D2A39028   9.316  33.114   8.360
 2942POPC   C3A39029   9.475  33.111   7.918
 2942POPC   C4A39030   9.826  32.818   7.770
 2942POPC   C1B39031   9.962  33.035   8.651
 2942POPC   C2B39032   9.845  33.065   8.249
 2942POPC   C3B39033   9.965  33.294   7.878
 2942POPC   C4B39034  10.154  33.440   7.478
 2943POPC   NC339035  10.060   3.946   9.390
 2943POPC   PO439036   9.742   3.285   9.501
 2943POPC   GL139037   9.647   3.489   9.107
 2943POPC   GL239038   9.716   3.834   9.021
 2943POPC   C1A39039   9.491   3.495   8.701
 2943POPC   D2A39040   9.449   3.512   8.283
 2943POPC   C3A39041   9.744   3.360   7.993
 2943POPC   C4A39042   9.592   3.631   7.685
 2943POPC   C1B39043   9.970   3.701   8.674
 2943POPC   C2B39044   9.902   3.770   8.279
 2943POPC   C3B39045   9.966   3.954   7.909
 2943POPC   C4B39046  10.104   3.588   7.681
 2944POPC   NC339047  34.565  35.485   9.412
 2944POPC   PO439048  34.297  34.951   9.310
 2944POPC   GL139049  34.589  35.099   9.027
 2944POPC   GL239050  34.890  34.939   8.938
 2944POPC   C1A39051  34.521  35.133   8.586
 2944POPC   D2A39052  34.570  35.402   8.231
 2944POPC   C3A39053  34.545  35.247   7.818
 2944POPC   C4A39054  34.266  35.326   7.466
 2944POPC   C1B39055  34.929  35.384   8.751
 2944POPC   C2B39056  35.033  35.618   8.353
 2944POPC   C3B39057  35.008  35.477   7.890
 2944POPC   C4B39058  35.044  35.144   7.555
 2945POPC   NC339059   3.813  17.215   9.526
 2945POPC   PO439060   3.506  17.829   9.640
 2945POPC   GL139061   3.463  17.579   9.271
 2945POPC   GL239062   3.739  17.618   9.060
 2945POPC   C1A39063   3.285  17.542   8.824
 2945POPC   D2A39064   3.456  17.556   8.398
 2945POPC   C3A39065   3.247  17.775   8.076
 2945POPC   C4A39066   3.270  17.487   7.766
 2945POPC   C1B39067   3.779  17.296   8.765
 2945POPC   C2B39068   3.979  17.361   8.372
 2945POPC   C3B39069   3.773  17.321   7.998
 2945POPC   C4B39070   3.864  17.047   7.696
 2946POPC   NC339071   9.051   2.386   9.490
 2946POPC   PO439072   8.702   1.855   9.541
 2946POPC   GL139073   8.867   2.035   9.165
 2946POPC   GL239074   9.193   1.949   9.204
 2946POPC   C1A39075   9.037   2.120   8.742
 2946POPC   D2A39076   8.902   1.916   8.385
 2946POPC   C3A39077   9.062   1.910   7.982
 2946POPC   C4A39078   8.804   1.909   7.651
 2946POPC   C1B39079   9.412   1.760   8.885
 2946POPC   C2B39080   9.318   1.647   8.458
 2946POPC   C3B39081   9.411   1.517   8.048
 2946POPC   C4B39082   9.421   1.747   7.645
 2947POPC   NC339083   5.747  15.574   9.816
 2947POPC   PO439084   5.490  16.144   9.577
 2947POPC   GL139085   5.689  15.896   9.253
 2947POPC   GL239086   5.988  15.784   9.412
 2947POPC   C1A39087   5.735  15.924   8.787
 2947POPC   D2A39088   5.796  15.767   8.365
 2947POPC   C3A39089   5.766  16.012   8.022
 2947POPC   C4A39090   5.700  16.022   7.599
 2947POPC   C1B39091   6.182  15.800   9.005
 2947POPC   C2B39092   6.252  15.791   8.578
 2947POPC   C3B39093   6.269  15.832   8.113
 2947POPC   C4B39094   6.201  16.060   7.720
 2948POPC   NC339095   7.401  20.509   9.885
 2948POPC   PO439096   7.160  20.999   9.602
 2948POPC   GL139097   7.417  20.856   9.215
 2948POPC   GL239098   7.536  20.489   9.198
 2948POPC   C1A39099   7.365  20.717   8.770
 2948POPC   D2A39100   7.066  20.530   8.496
 2948POPC   C3A39101   7.176  20.610   8.073
 2948POPC   C4A39102   7.295  20.865   7.721
 2948POPC   C1B39103   7.785  20.454   8.809
 2948POPC   C2B39104   7.764  20.729   8.390
 2948POPC   C3B39105   7.681  20.577   7.931
 2948POPC   C4B39106   7.741  20.229   7.600
 2949POPC   NC339107   4.989  13.105   9.386
 2949POPC   PO439108   4.851  12.404   9.634
 2949POPC   GL139109   5.010  12.622   9.282
 2949POPC   GL239110   5.373  12.639   9.239
 2949POPC   C1A39111   5.049  12.758   8.829
 2949POPC   D2A39112   4.899  12.772   8.399
 2949POPC   C3A39113   4.835  12.998   8.027
 2949POPC   C4A39114   4.857  12.713   7.706
 2949POPC   C1B39115   5.557  12.658   8.821
 2949POPC   C2B39116   5.423  12.828   8.446
 2949POPC   C3B39117   5.319  12.805   8.023
 2949POPC   C4B39118   5.290  13.015   7.648
 2950POPC   NC339119  20.125  15.580   9.553
 2950POPC   PO439120  20.646  15.991   9.654
 2950POPC   GL139121  20.658  15.743   9.228
 2950POPC   GL239122  20.353  15.590   9.110
 2950POPC   C1A39123  20.636  15.869   8.773
 2950POPC   D2A39124  20.367  16.090   8.450
 2950POPC   C3A39125  20.539  16.107   8.028
 2950POPC   C4A39126  20.342  16.342   7.720
 2950POPC   C1B39127  20.317  15.470   8.717
 2950POPC   C2B39128  20.456  15.590   8.329
 2950POPC   C3B39129  20.295  15.648   7.934
 2950POPC   C4B39130  20.493  15.638   7.529
 2951POPC   NC339131   3.510   9.427   9.437
 2951POPC   PO439132   3.887   8.918   9.524
 2951POPC   GL139133   3.605   8.799   9.127
 2951POPC   GL239134   3.253   8.671   9.238
 2951POPC   C1A39135   3.531   8.759   8.657
 2951POPC   D2A39136   3.320   9.167   8.464
 2951POPC   C3A39137   3.329   9.293   8.030
 2951POPC   C4A39138   3.388   8.970   7.753
 2951POPC   C1B39139   3.136   8.942   8.900
 2951POPC   C2B39140   2.892   8.894   8.530
 2951POPC   C3B39141   3.053   8.833   8.114
 2951POPC   C4B39142   3.134   8.534   7.741
 2952POPC   NC339143  15.836  40.963   9.671
 2952POPC   PO439144  16.406  40.858   9.633
 2952POPC   GL139145  16.135  41.028   9.219
 2952POPC   GL239146  15.767  41.129   9.191
 2952POPC   C1A39147  16.019  41.166   8.745
 2952POPC   D2A39148  15.977  41.120   8.267
 2952POPC   C3A39149  16.188  40.750   8.043
 2952POPC   C4A39150  16.361  40.478   7.680
 2952POPC   C1B39151  15.705  40.799   8.894
 2952POPC   C2B39152  15.608  40.771   8.432
 2952POPC   C3B39153  15.670  40.640   8.014
 2952POPC   C4B39154  15.831  40.556   7.617
 2953POPC   NC339155  21.414  37.310   9.416
 2953POPC   PO439156  21.077  37.811   9.546
 2953POPC   GL139157  21.254  37.726   9.156
 2953POPC   GL239158  21.534  37.912   9.153
 2953POPC   C1A39159  21.122  37.431   8.829
 2953POPC   D2A39160  21.010  37.274   8.411
 2953POPC   C3A39161  21.343  37.261   8.041
 2953POPC   C4A39162  21.378  37.547   7.662
 2953POPC   C1B39163  21.651  37.576   8.850
 2953POPC   C2B39164  21.463  37.543   8.459
 2953POPC   C3B39165  21.350  37.800   8.131
 2953POPC   C4B39166  21.604  37.947   7.812
 2954POPC   NC339167  15.038  39.171   9.632
 2954POPC   PO439168  15.493  39.620   9.637
 2954POPC   GL139169  15.243  39.376   9.205
 2954POPC   GL239170  14.948  39.085   9.145
 2954POPC   C1A39171  15.296  39.196   8.742
 2954POPC   D2A39172  15.391  39.344   8.296
 2954POPC   C3A39173  15.354  39.112   7.902
 2954POPC   C4A39174  15.371  39.372   7.551
 2954POPC   C1B39175  14.830  39.366   8.828
 2954POPC   C2B39176  14.898  39.248   8.373
 2954POPC   C3B39177  14.962  39.410   7.933
 2954POPC   C4B39178  14.861  39.269   7.555
 2955POPC   NC339179  17.283   5.720   9.469
 2955POPC   PO439180  17.811   6.113   9.686
 2955POPC   GL139181  17.601   6.089   9.230
 2955POPC   GL239182  17.247   6.209   9.197
 2955POPC   C1A39183  17.528   5.828   8.808
 2955POPC   D2A39184  17.642   5.659   8.411
 2955POPC   C3A39185  17.357   5.549   8.090
 2955POPC   C4A39186  17.577   5.600   7.744
 2955POPC   C1B39187  17.243   6.220   8.735
 2955POPC   C2B39188  17.440   6.144   8.349
 2955POPC   C3B39189  17.372   6.036   7.931
 2955POPC   C4B39190  17.324   6.217   7.530
 2956POPC   NC339191  20.864  14.941   9.342
 2956POPC   PO439192  20.192  15.155   9.345
 2956POPC   GL139193  20.468  15.044   8.999
 2956POPC   GL239194  20.759  15.287   8.951
 2956POPC   C1A39195  20.505  15.032   8.534
 2956POPC   D2A39196  20.845  15.255   8.335
 2956POPC   C3A39197  20.724  15.356   7.928
 2956POPC   C4A39198  20.398  15.138   7.756
 2956POPC   C1B39199  20.958  14.922   8.720
 2956POPC   C2B39200  20.944  14.736   8.315
 2956POPC   C3B39201  20.869  14.855   7.886
 2956POPC   C4B39202  20.856  15.073   7.468
 2957POPC   NC339203   4.589  17.256   9.397
 2957POPC   PO439204   4.030  17.694   9.465
 2957POPC   GL139205   4.330  17.679   9.160
 2957POPC   GL239206   4.211  17.366   9.048
 2957POPC   C1A39207   4.415  17.833   8.739
 2957POPC   D2A39208   4.642  17.935   8.348
 2957POPC   C3A39209   4.516  17.644   8.033
 2957POPC   C4A39210   4.147  17.606   7.755
 2957POPC   C1B39211   4.572  17.345   8.764
 2957POPC   C2B39212   4.541  17.242   8.363
 2957POPC   C3B39213   4.296  17.170   7.971
 2957POPC   C4B39214   4.307  17.209   7.471
 2958POPC   NC339215   7.352  42.555   9.634
 2958POPC   PO439216   7.555  41.958   9.656
 2958POPC   GL139217   7.605  42.105   9.236
 2958POPC   GL239218   7.298  42.280   9.176
 2958POPC   C1A39219   7.579  42.140   8.778
 2958POPC   D2A39220   7.274  42.165   8.459
 2958POPC   C3A39221   7.361  42.339   8.066
 2958POPC   C4A39222   7.606  42.292   7.739
 2958POPC   C1B39223   7.307  42.591   8.828
 2958POPC   C2B39224   7.428  42.722   8.403
 2958POPC   C3B39225   7.220  42.833   8.051
 2958POPC   C4B39226   7.167  42.699   7.674
 2959POPC   NC339227  40.136  13.296   9.444
 2959POPC   PO439228  39.610  13.732   9.475
 2959POPC   GL139229  39.845  13.779   9.085
 2959POPC   GL239230  40.207  13.683   9.110
 2959POPC   C1A39231  39.796  13.681   8.633
 2959POPC   D2A39232  39.657  13.427   8.283
 2959POPC   C3A39233  39.893  13.445   7.903
 2959POPC   C4A39234  39.859  13.725   7.577
 2959POPC   C1B39235  40.227  13.927   8.750
 2959POPC   C2B39236  40.138  14.001   8.327
 2959POPC   C3B39237  40.244  13.822   7.939
 2959POPC   C4B39238  40.432  13.506   7.727
 2960POPC   NC339239  38.368  27.690   9.641
 2960POPC   PO439240  38.825  27.271   9.464
 2960POPC   GL139241  38.562  27.507   9.186
 2960POPC   GL239242  38.247  27.470   9.169
 2960POPC   C1A39243  38.382  27.651   8.733
 2960POPC   D2A39244  38.144  27.585   8.365
 2960POPC   C3A39245  38.406  27.707   8.047
 2960POPC   C4A39246  38.433  27.555   7.671
 2960POPC   C1B39247  38.433  27.154   8.854
 2960POPC   C2B39248  38.364  27.117   8.436
 2960POPC   C3B39249  38.301  27.208   8.008
 2960POPC   C4B39250  38.530  27.066   7.616
 2961POPC   NC339251  14.452  38.025   9.486
 2961POPC   PO439252  14.695  37.272   9.412
 2961POPC   GL139253  14.525  37.608   9.229
 2961POPC   GL239254  14.283  37.535   9.059
 2961POPC   C1A39255  14.586  37.862   8.831
 2961POPC   D2A39256  14.412  37.896   8.400
 2961POPC   C3A39257  14.625  37.687   8.082
 2961POPC   C4A39258  14.463  37.611   7.661
 2961POPC   C1B39259  14.441  37.420   8.631
 2961POPC   C2B39260  14.251  37.229   8.313
 2961POPC   C3B39261  14.139  37.493   8.033
 2961POPC   C4B39262  13.961  37.680   7.683
 2962POPC   NC339263  17.893  14.968   9.340
 2962POPC   PO439264  17.974  15.567   9.661
 2962POPC   GL139265  18.106  15.439   9.226
 2962POPC   GL239266  18.352  15.164   9.261
 2962POPC   C1A39267  18.079  15.284   8.775
 2962POPC   D2A39268  18.006  15.423   8.324
 2962POPC   C3A39269  18.116  15.136   7.980
 2962POPC   C4A39270  18.094  15.168   7.527
 2962POPC   C1B39271  18.514  14.978   8.865
 2962POPC   C2B39272  18.608  14.790   8.490
 2962POPC   C3B39273  18.570  14.956   8.123
 2962POPC   C4B39274  18.446  14.848   7.718
 2963POPC   NC339275  12.883  41.273   9.773
 2963POPC   PO439276  13.013  41.939   9.523
 2963POPC   GL139277  12.740  41.562   9.360
 2963POPC   GL239278  12.882  41.209   9.243
 2963POPC   C1A39279  12.708  41.559   8.901
 2963POPC   D2A39280  12.589  41.653   8.479
 2963POPC   C3A39281  12.817  41.769   8.116
 2963POPC   C4A39282  12.603  41.720   7.702
 2963POPC   C1B39283  13.124  41.256   8.833
 2963POPC   C2B39284  13.049  41.399   8.392
 2963POPC   C3B39285  13.144  41.274   7.954
 2963POPC   C4B39286  12.971  41.331   7.542
 2964POPC   NC339287   4.698  32.964   9.610
 2964POPC   PO439288   5.330  33.222   9.730
 2964POPC   GL139289   5.277  33.178   9.263
 2964POPC   GL239290   4.979  32.953   9.168
 2964POPC   C1A39291   5.397  33.041   8.828
 2964POPC   D2A39292   5.227  33.046   8.367
 2964POPC   C3A39293   5.436  32.909   7.965
 2964POPC   C4A39294   5.416  33.228   7.567
 2964POPC   C1B39295   4.668  32.968   8.836
 2964POPC   C2B39296   4.774  32.823   8.456
 2964POPC   C3B39297   4.890  32.769   8.064
 2964POPC   C4B39298   4.995  33.143   7.879
 2965POPC   NC339299  19.419  16.115   9.373
 2965POPC   PO439300  18.968  15.669   9.696
 2965POPC   GL139301  18.919  15.744   9.218
 2965POPC   GL239302  19.058  16.001   9.049
 2965POPC   C1A39303  18.986  15.609   8.752
 2965POPC   D2A39304  18.847  15.791   8.389
 2965POPC   C3A39305  19.062  15.797   8.007
 2965POPC   C4A39306  18.834  15.714   7.645
 2965POPC   C1B39307  19.063  16.297   8.748
 2965POPC   C2B39308  19.228  16.294   8.359
 2965POPC   C3B39309  19.000  16.394   8.021
 2965POPC   C4B39310  18.821  16.272   7.638
 2966POPC   NC339311   4.331   9.734   9.426
 2966POPC   PO439312   4.837  10.113   9.369
 2966POPC   GL139313   4.508  10.034   9.046
 2966POPC   GL239314   4.126  10.130   9.153
 2966POPC   C1A39315   4.417   9.681   8.742
 2966POPC   D2A39316   4.200   9.427   8.411
 2966POPC   C3A39317   4.391   9.496   8.009
 2966POPC   C4A39318   4.601   9.860   7.813
 2966POPC   C1B39319   4.046  10.038   8.706
 2966POPC   C2B39320   4.233   9.979   8.270
 2966POPC   C3B39321   4.153  10.084   7.798
 2966POPC   C4B39322   3.894   9.986   7.413
 2967POPC   NC339323  44.729  17.893   9.429
 2967POPC   PO439324  44.560  18.497   9.699
 2967POPC   GL139325  44.404  18.458   9.258
 2967POPC   GL239326  44.604  18.204   9.062
 2967POPC   C1A39327  44.420  18.555   8.786
 2967POPC   D2A39328  44.687  18.474   8.373
 2967POPC   C3A39329  44.504  18.378   7.936
 2967POPC   C4A39330  44.373  17.970   7.753
 2967POPC   C1B39331  44.868  17.962   8.730
 2967POPC   C2B39332   0.148  17.979   8.354
 2967POPC   C3B39333  44.970  18.106   7.965
 2967POPC   C4B39334  44.802  18.172   7.524
 2968POPC   NC339335   2.692  34.410   9.685
 2968POPC   PO439336   3.277  34.745   9.635
 2968POPC   GL139337   3.194  34.473   9.294
 2968POPC   GL239338   2.853  34.562   9.227
 2968POPC   C1A39339   3.096  34.311   8.872
 2968POPC   D2A39340   2.846  34.245   8.493
 2968POPC   C3A39341   3.054  34.392   8.140
 2968POPC   C4A39342   3.123  34.302   7.725
 2968POPC   C1B39343   2.733  34.672   8.781
 2968POPC   C2B39344   2.830  34.824   8.346
 2968POPC   C3B39345   2.688  34.683   7.942
 2968POPC   C4B39346   2.531  34.832   7.567
 2969POPC   NC339347  34.425  28.881   9.504
 2969POPC   PO439348  34.620  29.566   9.563
 2969POPC   GL139349  34.552  29.276   9.186
 2969POPC   GL239350  34.236  29.063   9.088
 2969POPC   C1A39351  34.654  29.044   8.798
 2969POPC   D2A39352  34.779  29.175   8.395
 2969POPC   C3A39353  34.837  28.878   8.040
 2969POPC   C4A39354  34.844  29.047   7.600
 2969POPC   C1B39355  34.221  29.333   8.753
 2969POPC   C2B39356  34.289  29.350   8.327
 2969POPC   C3B39357  34.480  29.243   7.951
 2969POPC   C4B39358  34.328  29.078   7.568
 2970POPC   NC339359  26.943  14.319   9.348
 2970POPC   PO439360  27.514  14.328   9.746
 2970POPC   GL139361  27.482  14.419   9.302
 2970POPC   GL239362  27.432  14.107   9.214
 2970POPC   C1A39363  27.581  14.465   8.824
 2970POPC   D2A39364  27.684  14.757   8.452
 2970POPC   C3A39365  27.796  14.562   8.048
 2970POPC   C4A39366  27.472  14.471   7.735
 2970POPC   C1B39367  27.238  14.069   8.823
 2970POPC   C2B39368  27.413  14.074   8.452
 2970POPC   C3B39369  27.333  14.110   8.052
 2970POPC   C4B39370  27.175  14.046   7.662
 2971POPC   NC339371  16.795  22.203   9.690
 2971POPC   PO439372  16.921  21.726   9.283
 2971POPC   GL139373  16.786  22.098   9.088
 2971POPC   GL239374  16.812  22.410   9.227
 2971POPC   C1A39375  16.925  22.323   8.730
 2971POPC   D2A39376  16.845  22.204   8.312
 2971POPC   C3A39377  17.050  22.175   7.918
 2971POPC   C4A39378  16.769  21.984   7.619
 2971POPC   C1B39379  16.555  22.620   8.930
 2971POPC   C2B39380  16.517  22.605   8.434
 2971POPC   C3B39381  16.504  22.390   7.973
 2971POPC   C4B39382  16.312  22.349   7.526
 2972POPC   NC339383   4.606  42.094   9.182
 2972POPC   PO439384   5.086  42.486   9.460
 2972POPC   GL139385   5.311  42.392   9.098
 2972POPC   GL239386   5.491  42.688   9.191
 2972POPC   C1A39387   5.306  42.140   8.742
 2972POPC   D2A39388   4.932  42.046   8.529
 2972POPC   C3A39389   4.808  42.243   8.158
 2972POPC   C4A39390   5.035  42.290   7.791
 2972POPC   C1B39391   5.170  42.780   8.843
 2972POPC   C2B39392   5.195  42.594   8.435
 2972POPC   C3B39393   5.434  42.802   8.099
 2972POPC   C4B39394   5.398  42.675   7.685
 2973POPC   NC339395  24.057  28.281   9.545
 2973POPC   PO439396  23.580  28.692   9.587
 2973POPC   GL139397  23.612  28.432   9.186
 2973POPC   GL239398  23.758  28.095   9.083
 2973POPC   C1A39399  23.757  28.571   8.782
 2973POPC   D2A39400  23.666  28.686   8.364
 2973POPC   C3A39401  23.671  28.331   8.057
 2973POPC   C4A39402  23.446  28.304   7.665
 2973POPC   C1B39403  23.835  28.093   8.605
 2973POPC   C2B39404  24.102  28.419   8.422
 2973POPC   C3B39405  24.107  28.592   8.003
 2973POPC   C4B39406  23.940  28.395   7.591
 2974POPC   NC339407  33.435  31.296   9.363
 2974POPC   PO439408  33.852  31.843   9.438
 2974POPC   GL139409  33.915  31.479   9.183
 2974POPC   GL239410  34.094  31.655   8.939
 2974POPC   C1A39411  33.784  31.236   8.796
 2974POPC   D2A39412  33.975  31.336   8.421
 2974POPC   C3A39413  33.786  31.338   8.027
 2974POPC   C4A39414  33.983  31.333   7.656
 2974POPC   C1B39415  33.735  31.775   8.716
 2974POPC   C2B39416  33.535  31.718   8.302
 2974POPC   C3B39417  33.665  31.850   7.875
 2974POPC   C4B39418  33.756  31.761   7.419
 2975POPC   NC339419  17.864  19.558   9.507
 2975POPC   PO439420  17.894  18.845   9.546
 2975POPC   GL139421  17.686  19.138   9.259
 2975POPC   GL239422  17.951  19.317   9.071
 2975POPC   C1A39423  17.441  19.202   8.882
 2975POPC   D2A39424  17.583  19.240   8.469
 2975POPC   C3A39425  17.371  19.028   8.148
 2975POPC   C4A39426  17.445  19.226   7.764
 2975POPC   C1B39427  17.889  18.958   8.820
 2975POPC   C2B39428  17.754  18.750   8.497
 2975POPC   C3B39429  17.878  18.883   8.128
 2975POPC   C4B39430  17.988  19.099   7.772
 2976POPC   NC339431  26.406  27.072   9.632
 2976POPC   PO439432  26.780  26.480   9.614
 2976POPC   GL139433  26.718  26.657   9.219
 2976POPC   GL239434  26.916  26.447   9.058
 2976POPC   C1A39435  26.637  26.888   8.791
 2976POPC   D2A39436  26.443  27.075   8.362
 2976POPC   C3A39437  26.454  26.820   7.995
 2976POPC   C4A39438  26.780  26.693   7.739
 2976POPC   C1B39439  27.039  26.496   8.621
 2976POPC   C2B39440  26.841  26.770   8.344
 2976POPC   C3B39441  26.882  27.098   8.040
 2976POPC   C4B39442  27.165  27.047   7.676
 2977POPC   NC339443  31.049  26.309   9.453
 2977POPC   PO439444  30.539  25.873   9.304
 2977POPC   GL139445  30.801  26.073   9.073
 2977POPC   GL239446  30.902  25.852   8.877
 2977POPC   C1A39447  30.768  26.326   8.720
 2977POPC   D2A39448  30.744  26.327   8.327
 2977POPC   C3A39449  31.066  26.325   8.060
 2977POPC   C4A39450  30.740  26.104   7.844
 2977POPC   C1B39451  30.586  25.870   8.615
 2977POPC   C2B39452  30.736  25.717   8.259
 2977POPC   C3B39453  30.887  25.615   7.882
 2977POPC   C4B39454  30.474  25.698   7.736
 2978POPC   NC339455  14.143   5.994   9.371
 2978POPC   PO439456  14.571   5.583   9.608
 2978POPC   GL139457  14.540   5.670   9.179
 2978POPC   GL239458  14.217   5.560   9.121
 2978POPC   C1A39459  14.662   5.815   8.763
 2978POPC   D2A39460  14.542   5.686   8.356
 2978POPC   C3A39461  14.658   5.927   7.982
 2978POPC   C4A39462  14.472   6.250   7.731
 2978POPC   C1B39463  14.164   5.815   8.746
 2978POPC   C2B39464  14.136   6.037   8.366
 2978POPC   C3B39465  14.122   5.873   7.967
 2978POPC   C4B39466  14.375   5.506   7.913
 2979POPC   NC339467  14.826   5.974   9.513
 2979POPC   PO439468  15.476   5.975   9.450
 2979POPC   GL139469  15.209   6.143   9.167
 2979POPC   GL239470  15.353   6.467   9.111
 2979POPC   C1A39471  15.163   5.893   8.796
 2979POPC   D2A39472  15.035   5.913   8.373
 2979POPC   C3A39473  15.353   5.741   8.099
 2979POPC   C4A39474  15.130   5.881   7.765
 2979POPC   C1B39475  15.408   6.340   8.727
 2979POPC   C2B39476  15.511   6.134   8.401
 2979POPC   C3B39477  15.433   6.236   8.001
 2979POPC   C4B39478  15.639   6.025   7.731
 2980POPC   NC339479   3.477  37.736   9.605
 2980POPC   PO439480   3.307  37.144   9.294
 2980POPC   GL139481   3.383  37.556   9.130
 2980POPC   GL239482   3.728  37.705   9.163
 2980POPC   C1A39483   3.400  37.823   8.765
 2980POPC   D2A39484   3.572  37.940   8.368
 2980POPC   C3A39485   3.538  37.637   8.007
 2980POPC   C4A39486   3.357  37.629   7.559
 2980POPC   C1B39487   3.911  37.866   8.804
 2980POPC   C2B39488   4.053  37.790   8.418
 2980POPC   C3B39489   3.955  38.017   8.032
 2980POPC   C4B39490   3.795  37.894   7.651
 2981POPC   NC339491   5.478  25.790   9.614
 2981POPC   PO439492   6.009  26.104   9.511
 2981POPC   GL139493   5.828  25.860   9.195
 2981POPC   GL239494   5.620  26.138   9.150
 2981POPC   C1A39495   5.974  25.746   8.768
 2981POPC   D2A39496   5.813  25.771   8.330
 2981POPC   C3A39497   6.129  25.945   8.049
 2981POPC   C4A39498   6.149  26.328   7.786
 2981POPC   C1B39499   5.569  26.078   8.714
 2981POPC   C2B39500   5.415  26.124   8.285
 2981POPC   C3B39501   5.617  26.000   7.855
 2981POPC   C4B39502   5.530  25.738   7.473
 2982POPC   NC339503  32.489  14.317   9.382
 2982POPC   PO439504  31.951  14.671   9.509
 2982POPC   GL139505  32.138  14.615   9.142
 2982POPC   GL239506  32.387  14.848   9.228
 2982POPC   C1A39507  32.317  14.446   8.727
 2982POPC   D2A39508  32.214  14.198   8.322
 2982POPC   C3A39509  32.439  14.290   7.944
 2982POPC   C4A39510  32.507  14.134   7.533
 2982POPC   C1B39511  32.238  14.963   8.809
 2982POPC   C2B39512  32.084  14.898   8.398
 2982POPC   C3B39513  32.113  14.749   7.989
 2982POPC   C4B39514  32.284  14.641   7.572
 2983POPC   NC339515  41.910  17.402   9.428
 2983POPC   PO439516  42.530  17.167   9.506
 2983POPC   GL139517  42.613  17.259   9.092
 2983POPC   GL239518  42.337  17.494   9.109
 2983POPC   C1A39519  42.415  17.218   8.681
 2983POPC   D2A39520  42.145  17.493   8.463
 2983POPC   C3A39521  42.130  17.447   8.067
 2983POPC   C4A39522  42.367  17.503   7.777
 2983POPC   C1B39523  42.369  17.802   8.799
 2983POPC   C2B39524  42.225  17.996   8.411
 2983POPC   C3B39525  42.430  17.936   8.028
 2983POPC   C4B39526  42.452  18.010   7.581
 2984POPC   NC339527  13.036   0.849   9.537
 2984POPC   PO439528  12.756   1.464   9.544
 2984POPC   GL139529  12.749   1.322   9.147
 2984POPC   GL239530  13.050   1.151   9.126
 2984POPC   C1A39531  12.687   1.010   8.800
 2984POPC   D2A39532  12.863   1.039   8.398
 2984POPC   C3A39533  12.718   1.429   8.199
 2984POPC   C4A39534  12.701   1.542   7.772
 2984POPC   C1B39535  13.042   1.428   8.738
 2984POPC   C2B39536  13.216   1.456   8.304
 2984POPC   C3B39537  13.078   1.224   7.915
 2984POPC   C4B39538  13.227   1.167   7.501
 2985POPC   NC339539  40.398  29.708   9.450
 2985POPC   PO439540  39.822  30.098   9.449
 2985POPC   GL139541  40.115  30.002   9.149
 2985POPC   GL239542  40.291  30.253   9.070
 2985POPC   C1A39543  40.070  29.822   8.756
 2985POPC   D2A39544  39.824  29.973   8.433
 2985POPC   C3A39545  40.001  29.832   8.039
 2985POPC   C4A39546  40.366  29.611   7.882
 2985POPC   C1B39547  40.104  30.333   8.692
 2985POPC   C2B39548  40.277  30.190   8.301
 2985POPC   C3B39549  40.209  30.284   7.863
 2985POPC   C4B39550  40.172  30.283   7.401
 2986POPC   NC339551   2.222  13.952   9.478
 2986POPC   PO439552   2.335  13.237   9.494
 2986POPC   GL139553   2.076  13.508   9.248
 2986POPC   GL239554   1.696  13.487   9.285
 2986POPC   C1A39555   2.011  13.662   8.839
 2986POPC   D2A39556   2.157  13.755   8.427
 2986POPC   C3A39557   2.278  13.840   8.019
 2986POPC   C4A39558   2.286  13.464   7.813
 2986POPC   C1B39559   1.525  13.545   8.849
 2986POPC   C2B39560   1.640  13.721   8.453
 2986POPC   C3B39561   1.617  13.547   8.054
 2986POPC   C4B39562   1.819  13.635   7.669
 2987POPC   NC339563  32.751  43.160   9.475
 2987POPC   PO439564  33.399  42.883   9.507
 2987POPC   GL139565  33.207  43.215   9.249
 2987POPC   GL239566  33.414  43.509   9.246
 2987POPC   C1A39567  32.999  43.295   8.838
 2987POPC   D2A39568  33.155  43.046   8.490
 2987POPC   C3A39569  33.062  43.145   8.090
 2987POPC   C4A39570  32.893  43.069   7.699
 2987POPC   C1B39571  33.504  43.303   8.840
 2987POPC   C2B39572  33.633  43.234   8.446
 2987POPC   C3B39573  33.558  43.057   8.053
 2987POPC   C4B39574  33.365  43.266   7.686
 2988POPC   NC339575  27.794  25.709   9.418
 2988POPC   PO439576  27.269  26.085   9.464
 2988POPC   GL139577  27.480  25.974   9.078
 2988POPC   GL239578  27.817  26.154   9.122
 2988POPC   C1A39579  27.448  25.960   8.621
 2988POPC   D2A39580  27.267  26.160   8.259
 2988POPC   C3A39581  27.576  26.330   8.016
 2988POPC   C4A39582  27.831  26.239   7.760
 2988POPC   C1B39583  27.962  25.947   8.747
 2988POPC   C2B39584  27.870  26.034   8.306
 2988POPC   C3B39585  27.974  25.796   7.926
 2988POPC   C4B39586  27.886  25.821   7.457
 2989POPC   NC339587  12.778  32.664   9.577
 2989POPC   PO439588  12.369  33.248   9.729
 2989POPC   GL139589  12.600  33.084   9.276
 2989POPC   GL239590  12.538  32.771   9.117
 2989POPC   C1A39591  12.997  32.965   8.976
 2989POPC   D2A39592  13.093  32.887   8.503
 2989POPC   C3A39593  12.901  33.106   8.111
 2989POPC   C4A39594  12.924  33.323   7.696
 2989POPC   C1B39595  12.605  32.881   8.693
 2989POPC   C2B39596  12.458  33.093   8.378
 2989POPC   C3B39597  12.406  32.888   8.002
 2989POPC   C4B39598  12.622  32.925   7.658
 2990POPC   NC339599  23.306  33.644   9.397
 2990POPC   PO439600  23.940  33.909   9.536
 2990POPC   GL139601  23.868  33.825   9.134
 2990POPC   GL239602  23.552  33.980   9.070
 2990POPC   C1A39603  23.892  33.683   8.726
 2990POPC   D2A39604  23.594  33.789   8.439
 2990POPC   C3A39605  23.669  33.818   8.005
 2990POPC   C4A39606  23.875  33.615   7.670
 2990POPC   C1B39607  23.345  34.215   8.724
 2990POPC   C2B39608  23.208  34.088   8.354
 2990POPC   C3B39609  23.285  34.198   7.961
 2990POPC   C4B39610  23.537  34.450   7.743
 2991POPC   NC339611  30.486  18.045   9.433
 2991POPC   PO439612  30.863  18.652   9.546
 2991POPC   GL139613  30.723  18.474   9.175
 2991POPC   GL239614  31.051  18.382   9.031
 2991POPC   C1A39615  30.590  18.347   8.764
 2991POPC   D2A39616  30.444  18.053   8.462
 2991POPC   C3A39617  30.433  18.124   8.021
 2991POPC   C4A39618  30.654  18.005   7.668
 2991POPC   C1B39619  31.136  18.225   8.635
 2991POPC   C2B39620  30.896  18.252   8.250
 2991POPC   C3B39621  30.820  18.457   7.849
 2991POPC   C4B39622  30.951  18.357   7.442
 2992POPC   NC339623   9.232  11.783   9.917
 2992POPC   PO439624   8.927  11.953   9.352
 2992POPC   GL139625   9.034  12.003   8.994
 2992POPC   GL239626   8.985  12.371   8.978
 2992POPC   C1A39627   8.978  11.820   8.620
 2992POPC   D2A39628   9.116  12.142   8.439
 2992POPC   C3A39629   9.239  12.104   8.046
 2992POPC   C4A39630   9.074  11.745   7.811
 2992POPC   C1B39631   8.644  12.263   8.700
 2992POPC   C2B39632   8.608  12.113   8.306
 2992POPC   C3B39633   8.589  12.269   7.897
 2992POPC   C4B39634   8.944  12.419   7.810
 2993POPC   NC339635   6.449  29.569   9.417
 2993POPC   PO439636   6.968  29.113   9.563
 2993POPC   GL139637   6.712  29.117   9.187
 2993POPC   GL239638   6.370  28.960   9.266
 2993POPC   C1A39639   6.821  29.223   8.752
 2993POPC   D2A39640   6.710  29.188   8.314
 2993POPC   C3A39641   7.020  29.024   8.015
 2993POPC   C4A39642   7.032  29.236   7.660
 2993POPC   C1B39643   6.304  29.057   8.828
 2993POPC   C2B39644   6.212  29.006   8.378
 2993POPC   C3B39645   6.141  29.221   7.982
 2993POPC   C4B39646   6.547  29.158   7.809
 2994POPC   NC339647   8.415  20.952   9.564
 2994POPC   PO439648   7.737  20.702   9.621
 2994POPC   GL139649   7.959  20.847   9.279
 2994POPC   GL239650   8.184  20.569   9.232
 2994POPC   C1A39651   8.033  20.875   8.833
 2994POPC   D2A39652   8.283  20.784   8.468
 2994POPC   C3A39653   8.160  20.824   8.043
 2994POPC   C4A39654   8.430  20.728   7.631
 2994POPC   C1B39655   8.328  20.422   8.823
 2994POPC   C2B39656   8.103  20.324   8.443
 2994POPC   C3B39657   8.120  20.311   8.010
 2994POPC   C4B39658   8.319  20.174   7.651
 2995POPC   NC339659  10.938   6.775   9.456
 2995POPC   PO439660  11.426   6.366   9.479
 2995POPC   GL139661  11.243   6.512   9.116
 2995POPC   GL239662  11.019   6.237   9.096
 2995POPC   C1A39663  11.196   6.714   8.712
 2995POPC   D2A39664  11.356   6.636   8.284
 2995POPC   C3A39665  11.192   6.768   7.865
 2995POPC   C4A39666  11.416   6.845   7.460
 2995POPC   C1B39667  11.224   6.184   8.702
 2995POPC   C2B39668  11.103   6.203   8.305
 2995POPC   C3B39669  11.218   6.241   7.912
 2995POPC   C4B39670  10.960   6.046   7.647
 2996POPC   NC339671   1.152  30.283   9.559
 2996POPC   PO439672   0.939  29.650   9.469
 2996POPC   GL139673   1.024  29.925   9.128
 2996POPC   GL239674   1.354  30.016   9.078
 2996POPC   C1A39675   0.892  29.867   8.701
 2996POPC   D2A39676   0.774  29.722   8.296
 2996POPC   C3A39677   1.091  29.821   7.992
 2996POPC   C4A39678   1.081  29.933   7.556
 2996POPC   C1B39679   1.403  30.173   8.653
 2996POPC   C2B39680   1.474  30.127   8.204
 2996POPC   C3B39681   1.369  30.255   7.809
 2996POPC   C4B39682   1.149  30.450   7.429
 2997POPC   NC339683  32.109  21.526   9.630
 2997POPC   PO439684  32.513  20.973   9.525
 2997POPC   GL139685  32.307  21.224   9.225
 2997POPC   GL239686  32.382  21.543   9.147
 2997POPC   C1A39687  32.107  21.280   8.817
 2997POPC   D2A39688  31.923  21.153   8.428
 2997POPC   C3A39689  32.129  21.273   8.026
 2997POPC   C4A39690  32.147  21.169   7.583
 2997POPC   C1B39691  32.479  21.708   8.745
 2997POPC   C2B39692  32.526  21.944   8.392
 2997POPC   C3B39693  32.403  21.704   8.068
 2997POPC   C4B39694  32.314  21.655   7.669
 2998POPC   NC339695  25.988  18.993   9.654
 2998POPC   PO439696  26.272  19.583   9.652
 2998POPC   GL139697  26.245  19.262   9.262
 2998POPC   GL239698  26.029  18.943   9.161
 2998POPC   C1A39699  26.237  19.170   8.786
 2998POPC   D2A39700  26.122  18.927   8.411
 2998POPC   C3A39701  26.320  19.059   8.021
 2998POPC   C4A39702  26.019  19.142   7.706
 2998POPC   C1B39703  25.838  18.719   8.816
 2998POPC   C2B39704  25.655  18.692   8.422
 2998POPC   C3B39705  25.801  18.763   8.031
 2998POPC   C4B39706  25.654  18.817   7.638
 2999POPC   NC339707   3.458  30.959   9.416
 2999POPC   PO439708   3.944  30.589   9.472
 2999POPC   GL139709   3.641  30.566   9.115
 2999POPC   GL239710   3.268  30.542   9.157
 2999POPC   C1A39711   3.582  30.506   8.674
 2999POPC   D2A39712   3.592  30.411   8.234
 2999POPC   C3A39713   3.754  30.744   8.033
 2999POPC   C4A39714   3.793  30.838   7.612
 2999POPC   C1B39715   3.141  30.749   8.777
 2999POPC   C2B39716   3.151  30.734   8.340
 2999POPC   C3B39717   3.272  30.884   7.927
 2999POPC   C4B39718   3.255  30.932   7.457
 3000POPC   NC339719  41.434  34.777   9.426
 3000POPC   PO439720  41.793  34.195   9.353
 3000POPC   GL139721  41.699  34.533   9.071
 3000POPC   GL239722  41.317  34.529   8.998
 3000POPC   C1A39723  41.720  34.707   8.662
 3000POPC   D2A39724  41.915  34.914   8.318
 3000POPC   C3A39725  41.766  34.663   7.984
 3000POPC   C4A39726  41.476  34.371   7.864
 3000POPC   C1B39727  41.216  34.737   8.619
 3000POPC   C2B39728  41.199  34.632   8.215
 3000POPC   C3B39729  41.182  34.786   7.832
 3000POPC   C4B39730  41.037  35.122   7.611
 3001POPC   NC339731  41.386   8.309   9.667
 3001POPC   PO439732  41.943   7.972   9.617
 3001POPC   GL139733  41.864   8.088   9.159
 3001POPC   GL239734  41.524   8.282   9.153
 3001POPC   C1A39735  41.733   8.125   8.685
 3001POPC   D2A39736  41.515   7.862   8.352
 3001POPC   C3A39737  41.508   8.033   7.914
 3001POPC   C4A39738  41.777   8.065   7.538
 3001POPC   C1B39739  41.294   8.439   8.769
 3001POPC   C2B39740  41.394   8.357   8.343
 3001POPC   C3B39741  41.591   8.540   7.991
 3001POPC   C4B39742  41.558   8.526   7.540
 3002POPC   NC339743   6.663  23.003   9.633
 3002POPC   PO439744   6.017  22.918   9.523
 3002POPC   GL139745   5.885  22.866   9.109
 3002POPC   GL239746   5.664  23.151   9.033
 3002POPC   C1A39747   5.833  22.839   8.664
 3002POPC   D2A39748   5.716  22.641   8.316
 3002POPC   C3A39749   5.966  22.729   7.998
 3002POPC   C4A39750   5.735  22.646   7.666
 3002POPC   C1B39751   6.044  23.264   8.798
 3002POPC   C2B39752   6.186  23.138   8.342
 3002POPC   C3B39753   6.095  23.200   7.854
 3002POPC   C4B39754   6.104  23.257   7.356
 3003POPC   NC339755   0.390  15.687   9.774
 3003POPC   PO439756   0.527  16.295   9.363
 3003POPC   GL139757   0.370  16.224   8.984
 3003POPC   GL239758   0.667  16.044   8.903
 3003POPC   C1A39759   0.436  16.272   8.538
 3003POPC   D2A39760   0.257  16.033   8.226
 3003POPC   C3A39761   0.572  16.013   7.914
 3003POPC   C4A39762   0.581  16.234   7.542
 3003POPC   C1B39763   0.502  15.759   8.615
 3003POPC   C2B39764   0.636  15.607   8.236
 3003POPC   C3B39765   0.979  15.689   7.997
 3003POPC   C4B39766   0.915  15.602   7.602
 3004POPC   NC339767  31.337   8.370   9.604
 3004POPC   PO439768  31.948   8.649   9.471
 3004POPC   GL139769  31.676   8.375   9.220
 3004POPC   GL239770  31.315   8.436   9.113
 3004POPC   C1A39771  31.656   8.128   8.880
 3004POPC   D2A39772  31.763   8.277   8.489
 3004POPC   C3A39773  31.506   8.244   8.139
 3004POPC   C4A39774  31.606   8.180   7.687
 3004POPC   C1B39775  31.351   8.525   8.697
 3004POPC   C2B39776  31.089   8.431   8.395
 3004POPC   C3B39777  30.961   8.457   8.007
 3004POPC   C4B39778  31.247   8.526   7.713
 3005POPC   NC339779  35.969  28.464   9.566
 3005POPC   PO439780  36.462  28.105   9.365
 3005POPC   GL139781  36.203  28.367   9.103
 3005POPC   GL239782  35.847  28.317   9.084
 3005POPC   C1A39783  36.065  28.505   8.684
 3005POPC   D2A39784  36.205  28.664   8.301
 3005POPC   C3A39785  36.047  28.461   7.937
 3005POPC   C4A39786  36.068  28.469   7.504
 3005POPC   C1B39787  35.899  27.997   8.721
 3005POPC   C2B39788  35.825  27.813   8.322
 3005POPC   C3B39789  35.835  28.016   7.940
 3005POPC   C4B39790  35.801  28.010   7.494
 3006POPC   NC339791  13.954  10.150   9.393
 3006POPC   PO439792  13.656  10.835   9.560
 3006POPC   GL139793  13.598  10.527   9.260
 3006POPC   GL239794  13.314  10.287   9.350
 3006POPC   C1A39795  13.761  10.556   8.841
 3006POPC   D2A39796  13.918  10.540   8.435
 3006POPC   C3A39797  13.889  10.787   8.046
 3006POPC   C4A39798  13.808  10.543   7.673
 3006POPC   C1B39799  13.268  10.421   8.892
 3006POPC   C2B39800  13.436  10.378   8.477
 3006POPC   C3B39801  13.449  10.501   8.038
 3006POPC   C4B39802  13.279  10.647   7.617
 3007POPC   NC339803   4.679  38.893   9.508
 3007POPC   PO439804   4.088  39.130   9.283
 3007POPC   GL139805   4.461  39.057   9.054
 3007POPC   GL239806   4.684  39.330   8.998
 3007POPC   C1A39807   4.496  39.053   8.609
 3007POPC   D2A39808   4.548  39.276   8.231
 3007POPC   C3A39809   4.200  39.216   7.968
 3007POPC   C4A39810   4.359  38.974   7.696
 3007POPC   C1B39811   4.387  39.560   8.718
 3007POPC   C2B39812   4.133  39.539   8.367
 3007POPC   C3B39813   4.319  39.721   8.039
 3007POPC   C4B39814   4.359  39.784   7.652
 3008POPC   NC339815  42.731  25.821   9.534
 3008POPC   PO439816  41.985  26.044   9.497
 3008POPC   GL139817  42.401  26.009   9.196
 3008POPC   GL239818  42.431  26.286   9.069
 3008POPC   C1A39819  42.484  25.805   8.766
 3008POPC   D2A39820  42.482  26.057   8.381
 3008POPC   C3A39821  42.260  25.886   8.045
 3008POPC   C4A39822  42.526  25.734   7.700
 3008POPC   C1B39823  42.113  26.182   8.752
 3008POPC   C2B39824  42.055  26.347   8.328
 3008POPC   C3B39825  42.063  26.329   7.867
 3008POPC   C4B39826  42.477  26.246   7.748
 3009POPC   NC339827  36.874  21.074   9.526
 3009POPC   PO439828  36.797  21.695   9.598
 3009POPC   GL139829  36.832  21.522   9.168
 3009POPC   GL239830  36.930  21.177   9.044
 3009POPC   C1A39831  36.671  21.455   8.740
 3009POPC   D2A39832  36.679  21.165   8.454
 3009POPC   C3A39833  36.902  21.366   8.172
 3009POPC   C4A39834  36.711  21.613   7.882
 3009POPC   C1B39835  37.151  21.151   8.679
 3009POPC   C2B39836  37.103  20.910   8.311
 3009POPC   C3B39837  37.145  21.035   7.873
 3009POPC   C4B39838  37.322  21.205   7.469
 3010POPC   NC339839   8.250  36.446   9.772
 3010POPC   PO439840   7.800  36.078   9.305
 3010POPC   GL139841   7.957  36.119   8.938
 3010POPC   GL239842   8.262  35.939   9.035
 3010POPC   C1A39843   8.036  35.958   8.581
 3010POPC   D2A39844   7.948  35.711   8.294
 3010POPC   C3A39845   8.102  35.947   7.995
 3010POPC   C4A39846   8.145  35.755   7.629
 3010POPC   C1B39847   8.428  36.285   8.744
 3010POPC   C2B39848   8.437  36.208   8.339
 3010POPC   C3B39849   8.411  36.411   7.976
 3010POPC   C4B39850   8.438  36.177   7.666
 3011POPC   NC339851  20.034  24.699   9.448
 3011POPC   PO439852  20.612  24.376   9.555
 3011POPC   GL139853  20.709  24.659   9.207
 3011POPC   GL239854  20.391  24.679   9.091
 3011POPC   C1A39855  20.865  24.590   8.778
 3011POPC   D2A39856  20.748  24.357   8.417
 3011POPC   C3A39857  20.863  24.541   8.022
 3011POPC   C4A39858  20.817  24.417   7.604
 3011POPC   C1B39859  20.389  24.343   8.800
 3011POPC   C2B39860  20.266  24.130   8.428
 3011POPC   C3B39861  20.252  24.050   8.010
 3011POPC   C4B39862  20.338  24.383   7.730
 3012POPC   NC339863   4.882  26.303   9.418
 3012POPC   PO439864   5.051  25.649   9.491
 3012POPC   GL139865   5.242  25.789   9.126
 3012POPC   GL239866   5.129  26.107   9.041
 3012POPC   C1A39867   5.164  25.771   8.668
 3012POPC   D2A39868   4.918  25.807   8.324
 3012POPC   C3A39869   5.170  25.794   8.004
 3012POPC   C4A39870   5.022  25.762   7.622
 3012POPC   C1B39871   5.090  26.310   8.662
 3012POPC   C2B39872   4.950  26.374   8.250
 3012POPC   C3B39873   5.134  26.274   7.849
 3012POPC   C4B39874   5.292  26.171   7.450
 3013POPC   NC339875  36.279  34.651   9.550
 3013POPC   PO439876  35.592  34.514   9.456
 3013POPC   GL139877  35.972  34.521   9.188
 3013POPC   GL239878  36.190  34.823   9.081
 3013POPC   C1A39879  36.204  34.402   8.832
 3013POPC   D2A39880  36.163  34.714   8.530
 3013POPC   C3A39881  36.189  34.513   8.210
 3013POPC   C4A39882  36.096  34.576   7.775
 3013POPC   C1B39883  36.577  34.760   8.795
 3013POPC   C2B39884  36.616  34.887   8.340
 3013POPC   C3B39885  36.322  34.960   8.016
 3013POPC   C4B39886  36.418  35.025   7.592
 3014POPC   NC339887  21.038  33.151   9.673
 3014POPC   PO439888  21.688  32.820   9.761
 3014POPC   GL139889  21.462  33.003   9.321
 3014POPC   GL239890  21.201  33.278   9.203
 3014POPC   C1A39891  21.306  32.886   8.893
 3014POPC   D2A39892  21.233  33.112   8.488
 3014POPC   C3A39893  21.391  32.895   8.116
 3014POPC   C4A39894  21.217  32.654   7.797
 3014POPC   C1B39895  21.528  33.342   8.894
 3014POPC   C2B39896  21.649  33.420   8.484
 3014POPC   C3B39897  21.484  33.384   8.077
 3014POPC   C4B39898  21.529  33.185   7.668
 3015POPC   NC339899  22.228  11.879   9.763
 3015POPC   PO439900  22.277  12.376   9.458
 3015POPC   GL139901  22.144  12.148   9.155
 3015POPC   GL239902  22.327  11.838   9.214
 3015POPC   C1A39903  21.958  12.078   8.775
 3015POPC   D2A39904  22.095  11.758   8.507
 3015POPC   C3A39905  21.896  11.762   8.089
 3015POPC   C4A39906  21.984  12.075   7.776
 3015POPC   C1B39907  22.510  11.635   8.853
 3015POPC   C2B39908  22.584  11.601   8.404
 3015POPC   C3B39909  22.396  11.884   8.091
 3015POPC   C4B39910  22.484  12.258   7.835
 3016POPC   NC339911   9.056  26.138   9.466
 3016POPC   PO439912   8.517  25.689   9.248
 3016POPC   GL139913   8.891  25.865   9.049
 3016POPC   GL239914   9.288  25.862   9.080
 3016POPC   C1A39915   9.020  25.801   8.635
 3016POPC   D2A39916   8.971  26.122   8.345
 3016POPC   C3A39917   8.722  26.033   7.990
 3016POPC   C4A39918   8.731  25.715   7.650
 3016POPC   C1B39919   9.362  26.186   8.739
 3016POPC   C2B39920   9.429  26.315   8.279
 3016POPC   C3B39921   9.253  26.027   7.908
 3016POPC   C4B39922   9.187  25.859   7.473
 3017POPC   NC339923  26.299   8.095   9.537
 3017POPC   PO439924  25.945   8.673   9.597
 3017POPC   GL139925  26.072   8.442   9.229
 3017POPC   GL239926  25.884   8.081   9.177
 3017POPC   C1A39927  26.121   8.329   8.817
 3017POPC   D2A39928  26.129   8.133   8.473
 3017POPC   C3A39929  26.232   8.203   8.091
 3017POPC   C4A39930  26.134   8.350   7.706
 3017POPC   C1B39931  25.908   7.801   8.782
 3017POPC   C2B39932  26.048   7.665   8.321
 3017POPC   C3B39933  26.066   7.769   7.872
 3017POPC   C4B39934  25.841   7.841   7.487
 3018POPC   NC339935  33.440  39.925   9.744
 3018POPC   PO439936  34.108  40.172   9.695
 3018POPC   GL139937  33.908  40.290   9.246
 3018POPC   GL239938  34.055  39.998   9.059
 3018POPC   C1A39939  33.766  40.299   8.749
 3018POPC   D2A39940  33.942  40.118   8.377
 3018POPC   C3A39941  33.812  40.011   7.984
 3018POPC   C4A39942  34.090  40.114   7.642
 3018POPC   C1B39943  33.859  39.766   8.726
 3018POPC   C2B39944  33.795  39.558   8.350
 3018POPC   C3B39945  33.642  39.513   7.944
 3018POPC   C4B39946  33.818  39.685   7.578
 3019POPC   NC339947   3.008  16.730   9.475
 3019POPC   PO439948   2.890  16.078   9.671
 3019POPC   GL139949   2.672  16.323   9.242
 3019POPC   GL239950   2.600  16.679   9.193
 3019POPC   C1A39951   2.841  16.503   8.786
 3019POPC   D2A39952   2.786  16.773   8.399
 3019POPC   C3A39953   2.966  16.643   7.982
 3019POPC   C4A39954   2.732  16.608   7.571
 3019POPC   C1B39955   2.872  16.993   8.900
 3019POPC   C2B39956   3.159  17.117   8.548
 3019POPC   C3B39957   3.080  17.151   8.114
 3019POPC   C4B39958   2.947  17.069   7.692
 3020POPC   NC339959  39.958  35.866   9.425
 3020POPC   PO439960  40.517  35.833   9.325
 3020POPC   GL139961  40.246  36.065   9.037
 3020POPC   GL239962  39.854  36.101   8.997
 3020POPC   C1A39963  40.214  36.302   8.689
 3020POPC   D2A39964  39.981  36.301   8.323
 3020POPC   C3A39965  40.245  36.213   8.005
 3020POPC   C4A39966  40.288  36.344   7.612
 3020POPC   C1B39967  39.699  36.448   8.754
 3020POPC   C2B39968  39.617  36.662   8.345
 3020POPC   C3B39969  39.429  36.481   7.981
 3020POPC   C4B39970  39.746  36.202   7.796
 3021POPC   NC339971  24.549  18.405   9.587
 3021POPC   PO439972  24.126  17.916   9.561
 3021POPC   GL139973  24.447  17.921   9.188
 3021POPC   GL239974  24.528  18.255   9.087
 3021POPC   C1A39975  24.601  17.909   8.725
 3021POPC   D2A39976  24.318  17.966   8.350
 3021POPC   C3A39977  24.486  18.098   7.984
 3021POPC   C4A39978  24.725  18.007   7.670
 3021POPC   C1B39979  24.136  18.111   8.845
 3021POPC   C2B39980  23.909  18.235   8.466
 3021POPC   C3B39981  24.062  18.359   8.057
 3021POPC   C4B39982  24.305  18.517   7.755
 3022POPC   NC339983  26.717   0.864   9.301
 3022POPC   PO439984  26.497   0.162   9.503
 3022POPC   GL139985  26.586   0.380   9.123
 3022POPC   GL239986  26.940   0.426   9.145
 3022POPC   C1A39987  26.562   0.545   8.687
 3022POPC   D2A39988  26.807   0.503   8.298
 3022POPC   C3A39989  26.710   0.649   7.858
 3022POPC   C4A39990  26.444   0.568   7.466
 3022POPC   C1B39991  27.060   0.591   8.775
 3022POPC   C2B39992  27.310   0.553   8.458
 3022POPC   C3B39993  27.225   0.656   8.045
 3022POPC   C4B39994  27.101   0.336   7.740
 3023POPC   NC339995   1.009   4.096   9.462
 3023POPC   PO439996   1.662   4.145   9.604
 3023POPC   GL139997   1.456   4.364   9.253
 3023POPC   GL239998   1.163   4.586   9.346
 3023POPC   C1A39999   1.353   4.294   8.807
 3023POPC   D2A40000   1.109   4.293   8.452
 3023POPC   C3A40001   1.361   4.397   8.113
 3023POPC   C4A40002   1.346   4.287   7.713
 3023POPC   C1B40003   1.325   4.780   8.957
 3023POPC   C2B40004   1.372   4.734   8.528
 3023POPC   C3B40005   1.427   4.911   8.133
 3023POPC   C4B40006   1.174   4.762   7.802
 3024POPC   NC340007  34.014   0.577   9.507
 3024POPC   PO440008  33.558   0.014   9.584
 3024POPC   GL140009  33.761   0.253   9.236
 3024POPC   GL240010  33.517   0.494   9.211
 3024POPC   C1A40011  33.901   0.491   8.833
 3024POPC   D2A40012  34.060   0.359   8.433
 3024POPC   C3A40013  33.990   0.602   8.078
 3024POPC   C4A40014  33.994   0.443   7.657
 3024POPC   C1B40015  33.468   0.235   8.831
 3024POPC   C2B40016  33.539   0.440   8.430
 3024POPC   C3B40017  33.569   0.294   8.006
 3024POPC   C4B40018  33.372   0.527   7.704
 3025POPC   NC340019  25.850  42.608   9.518
 3025POPC   PO440020  26.332  42.182   9.573
 3025POPC   GL140021  26.057  42.148   9.186
 3025POPC   GL240022  25.802  42.358   9.088
 3025POPC   C1A40023  26.150  42.230   8.734
 3025POPC   D2A40024  26.180  42.014   8.332
 3025POPC   C3A40025  26.222  42.250   7.947
 3025POPC   C4A40026  26.020  42.221   7.573
 3025POPC   C1B40027  25.694  42.460   8.675
 3025POPC   C2B40028  25.858  42.448   8.251
 3025POPC   C3B40029  25.671  42.499   7.814
 3025POPC   C4B40030  25.779  42.594   7.346
 3026POPC   NC340031  18.917   6.379   9.364
 3026POPC   PO440032  19.321   6.909   9.129
 3026POPC   GL140033  19.073   6.609   8.920
 3026POPC   GL240034  19.194   6.272   8.954
 3026POPC   C1A40035  18.791   6.711   8.570
 3026POPC   D2A40036  18.869   6.994   8.232
 3026POPC   C3A40037  18.836   6.936   7.803
 3026POPC   C4A40038  18.912   7.212   7.421
 3026POPC   C1B40039  18.763   6.243   8.729
 3026POPC   C2B40040  18.558   6.266   8.325
 3026POPC   C3B40041  18.646   6.478   7.938
 3026POPC   C4B40042  19.064   6.479   7.747
 3027POPC   NC340043   4.901  30.214   9.435
 3027POPC   PO440044   4.809  30.894   9.474
 3027POPC   GL140045   4.972  30.810   9.106
 3027POPC   GL240046   5.324  30.842   9.111
 3027POPC   C1A40047   4.797  30.741   8.706
 3027POPC   D2A40048   4.737  30.498   8.330
 3027POPC   C3A40049   5.045  30.487   7.983
 3027POPC   C4A40050   4.952  30.708   7.591
 3027POPC   C1B40051   5.234  31.024   8.726
 3027POPC   C2B40052   5.110  30.888   8.324
 3027POPC   C3B40053   5.243  30.967   7.903
 3027POPC   C4B40054   5.321  31.161   7.477
 3028POPC   NC340055  26.785  35.058   9.548
 3028POPC   PO440056  27.056  35.538   9.847
 3028POPC   GL140057  26.972  35.703   9.378
 3028POPC   GL240058  26.655  35.596   9.216
 3028POPC   C1A40059  27.017  35.789   8.905
 3028POPC   D2A40060  27.177  35.525   8.567
 3028POPC   C3A40061  27.030  35.492   8.119
 3028POPC   C4A40062  27.202  35.245   7.748
 3028POPC   C1B40063  26.544  35.486   8.749
 3028POPC   C2B40064  26.362  35.396   8.305
 3028POPC   C3B40065  26.560  35.234   7.922
 3028POPC   C4B40066  26.766  35.554   7.675
 3029POPC   NC340067  41.911  33.749   9.437
 3029POPC   PO440068  41.250  33.557   9.442
 3029POPC   GL140069  41.491  33.819   9.139
 3029POPC   GL240070  41.748  33.584   8.972
 3029POPC   C1A40071  41.552  34.120   8.767
 3029POPC   D2A40072  41.623  34.282   8.353
 3029POPC   C3A40073  41.609  33.914   8.075
 3029POPC   C4A40074  41.549  33.929   7.619
 3029POPC   C1B40075  41.341  33.616   8.706
 3029POPC   C2B40076  41.145  33.624   8.278
 3029POPC   C3B40077  41.310  33.530   7.850
 3029POPC   C4B40078  41.739  33.479   7.729
 3030POPC   NC340079  28.543  28.013   9.504
 3030POPC   PO440080  28.010  27.619   9.548
 3030POPC   GL140081  28.218  27.747   9.151
 3030POPC   GL240082  28.608  27.681   9.138
 3030POPC   C1A40083  28.287  27.826   8.698
 3030POPC   D2A40084  28.471  27.949   8.296
 3030POPC   C3A40085  28.132  27.865   8.012
 3030POPC   C4A40086  28.149  27.759   7.589
 3030POPC   C1B40087  28.600  27.421   8.784
 3030POPC   C2B40088  28.414  27.430   8.367
 3030POPC   C3B40089  28.551  27.546   7.961
 3030POPC   C4B40090  28.608  27.402   7.554
 3031POPC   NC340091  12.847  37.708   9.531
 3031POPC   PO440092  13.374  37.390   9.379
 3031POPC   GL140093  12.979  37.345   9.158
 3031POPC   GL240094  12.915  37.701   9.039
 3031POPC   C1A40095  12.762  37.315   8.752
 3031POPC   D2A40096  12.877  37.604   8.403
 3031POPC   C3A40097  12.729  37.482   8.004
 3031POPC   C4A40098  12.439  37.592   7.705
 3031POPC   C1B40099  13.138  37.961   8.776
 3031POPC   C2B40100  13.293  37.907   8.379
 3031POPC   C3B40101  13.101  37.982   8.020
 3031POPC   C4B40102  12.823  37.921   7.717
 3032POPC   NC340103  26.534  39.914   9.561
 3032POPC   PO440104  25.908  39.867   9.736
 3032POPC   GL140105  26.081  39.815   9.285
 3032POPC   GL240106  26.237  40.140   9.195
 3032POPC   C1A40107  26.007  39.849   8.798
 3032POPC   D2A40108  25.918  39.635   8.375
 3032POPC   C3A40109  25.916  39.855   7.973
 3032POPC   C4A40110  25.716  39.931   7.560
 3032POPC   C1B40111  26.531  40.029   8.895
 3032POPC   C2B40112  26.636  40.132   8.484
 3032POPC   C3B40113  26.386  40.065   8.094
 3032POPC   C4B40114  26.310  39.993   7.655
 3033POPC   NC340115  23.360  29.933   9.511
 3033POPC   PO440116  22.690  29.711   9.429
 3033POPC   GL140117  22.997  29.831   9.133
 3033POPC   GL240118  23.067  30.177   9.165
 3033POPC   C1A40119  23.130  29.823   8.702
 3033POPC   D2A40120  22.998  29.589   8.337
 3033POPC   C3A40121  23.026  29.818   7.948
 3033POPC   C4A40122  23.347  30.127   7.814
 3033POPC   C1B40123  22.741  30.192   8.824
 3033POPC   C2B40124  22.564  30.289   8.393
 3033POPC   C3B40125  22.613  30.220   7.912
 3033POPC   C4B40126  22.907  30.130   7.550
 3034POPC   NC340127  19.386  14.332   9.513
 3034POPC   PO440128  19.997  14.498   9.767
 3034POPC   GL140129  19.835  14.428   9.326
 3034POPC   GL240130  19.778  14.088   9.236
 3034POPC   C1A40131  19.778  14.551   8.905
 3034POPC   D2A40132  19.930  14.718   8.530
 3034POPC   C3A40133  19.859  14.465   8.169
 3034POPC   C4A40134  20.049  14.634   7.816
 3034POPC   C1B40135  19.692  14.072   8.784
 3034POPC   C2B40136  19.463  14.234   8.466
 3034POPC   C3B40137  19.510  14.046   8.092
 3034POPC   C4B40138  19.811  14.096   7.782
 3035POPC   NC340139   9.099  22.246   9.574
 3035POPC   PO440140   9.055  21.554   9.764
 3035POPC   GL140141   9.099  21.808   9.245
 3035POPC   GL240142   9.222  22.138   9.085
 3035POPC   C1A40143   8.944  21.832   8.804
 3035POPC   D2A40144   8.922  22.061   8.397
 3035POPC   C3A40145   9.152  22.005   8.045
 3035POPC   C4A40146   8.959  22.243   7.733
 3035POPC   C1B40147   8.907  22.365   8.798
 3035POPC   C2B40148   8.702  22.563   8.448
 3035POPC   C3B40149   8.602  22.384   8.074
 3035POPC   C4B40150   8.624  22.646   7.735
 3036POPC   NC340151   7.141  31.769   9.425
 3036POPC   PO440152   7.389  31.152   9.541
 3036POPC   GL140153   7.242  31.319   9.187
 3036POPC   GL240154   7.487  31.523   9.155
 3036POPC   C1A40155   7.083  31.444   8.816
 3036POPC   D2A40156   7.203  31.378   8.438
 3036POPC   C3A40157   6.937  31.543   8.192
 3036POPC   C4A40158   7.066  31.418   7.792
 3036POPC   C1B40159   7.608  31.312   8.778
 3036POPC   C2B40160   7.699  31.444   8.378
 3036POPC   C3B40161   7.790  31.263   7.996
 3036POPC   C4B40162   7.560  31.432   7.664
 3037POPC   NC340163  40.532  42.497   9.605
 3037POPC   PO440164  41.160  42.466   9.412
 3037POPC   GL140165  40.880  42.342   9.092
 3037POPC   GL240166  40.516  42.283   9.154
 3037POPC   C1A40167  40.843  42.349   8.642
 3037POPC   D2A40168  40.652  42.139   8.335
 3037POPC   C3A40169  40.877  42.183   7.960
 3037POPC   C4A40170  41.180  42.423   7.740
 3037POPC   C1B40171  40.518  42.649   8.882
 3037POPC   C2B40172  40.399  42.614   8.440
 3037POPC   C3B40173  40.743  42.626   8.151
 3037POPC   C4B40174  40.825  42.762   7.722
 3038POPC   NC340175  24.979  41.766   9.474
 3038POPC   PO440176  24.516  41.266   9.569
 3038POPC   GL140177  24.623  41.445   9.172
 3038POPC   GL240178  24.601  41.807   9.114
 3038POPC   C1A40179  24.539  41.474   8.726
 3038POPC   D2A40180  24.578  41.700   8.355
 3038POPC   C3A40181  24.694  41.421   8.036
 3038POPC   C4A40182  24.398  41.299   7.736
 3038POPC   C1B40183  24.869  41.880   8.748
 3038POPC   C2B40184  25.027  41.954   8.299
 3038POPC   C3B40185  24.710  42.049   8.003
 3038POPC   C4B40186  24.525  41.793   7.687
 3039POPC   NC340187   9.855  34.894   9.501
 3039POPC   PO440188   9.379  34.424   9.565
 3039POPC   GL140189   9.662  34.386   9.181
 3039POPC   GL240190   9.928  34.651   9.059
 3039POPC   C1A40191   9.858  34.214   8.798
 3039POPC   D2A40192   9.724  34.303   8.368
 3039POPC   C3A40193   9.872  34.477   7.995
 3039POPC   C4A40194   9.742  34.376   7.568
 3039POPC   C1B40195   9.632  34.676   8.700
 3039POPC   C2B40196   9.417  34.902   8.371
 3039POPC   C3B40197   9.389  35.023   7.949
 3039POPC   C4B40198   9.725  34.883   7.729
 3040POPC   NC340199  12.296  14.642   9.605
 3040POPC   PO440200  11.857  14.088   9.652
 3040POPC   GL140201  12.241  14.132   9.347
 3040POPC   GL240202  12.106  14.411   9.186
 3040POPC   C1A40203  12.339  14.070   8.862
 3040POPC   D2A40204  12.093  14.113   8.456
 3040POPC   C3A40205  12.173  14.251   8.028
 3040POPC   C4A40206  11.870  14.334   7.701
 3040POPC   C1B40207  12.327  14.573   8.837
 3040POPC   C2B40208  12.327  14.580   8.408
 3040POPC   C3B40209  12.426  14.741   8.017
 3040POPC   C4B40210  12.204  14.730   7.644
 3041POPC   NC340211  33.018  15.563   9.762
 3041POPC   PO440212  33.413  15.084   9.414
 3041POPC   GL140213  33.201  15.055   9.060
 3041POPC   GL240214  33.343  14.740   9.018
 3041POPC   C1A40215  33.030  15.295   8.681
 3041POPC   D2A40216  33.233  15.515   8.366
 3041POPC   C3A40217  33.258  15.313   7.944
 3041POPC   C4A40218  32.877  15.148   7.746
 3041POPC   C1B40219  33.177  14.815   8.617
 3041POPC   C2B40220  33.015  14.995   8.255
 3041POPC   C3B40221  33.141  14.770   7.911
 3041POPC   C4B40222  33.173  14.876   7.447
 3042POPC   NC340223  35.121  15.304   9.942
 3042POPC   PO440224  34.509  15.315   9.573
 3042POPC   GL140225  34.510  15.150   9.170
 3042POPC   GL240226  34.260  14.884   9.208
 3042POPC   C1A40227  34.765  15.155   8.798
 3042POPC   D2A40228  34.715  15.329   8.406
 3042POPC   C3A40229  34.837  15.130   8.072
 3042POPC   C4A40230  34.849  15.339   7.709
 3042POPC   C1B40231  34.389  14.805   8.778
 3042POPC   C2B40232  34.649  14.798   8.429
 3042POPC   C3B40233  34.445  14.762   8.045
 3042POPC   C4B40234  34.576  14.907   7.690
 3043POPC   NC340235   2.002  27.197   9.668
 3043POPC   PO440236   1.803  26.646   9.330
 3043POPC   GL140237   2.065  26.651   9.027
 3043POPC   GL240238   2.268  26.956   9.080
 3043POPC   C1A40239   1.879  26.737   8.621
 3043POPC   D2A40240   1.599  27.031   8.419
 3043POPC   C3A40241   1.704  27.064   8.016
 3043POPC   C4A40242   1.705  26.705   7.762
 3043POPC   C1B40243   2.395  26.792   8.683
 3043POPC   C2B40244   2.283  26.637   8.304
 3043POPC   C3B40245   2.203  26.771   7.928
 3043POPC   C4B40246   2.546  27.008   7.849
 3044POPC   NC340247  34.200   8.163   9.423
 3044POPC   PO440248  33.582   8.336   9.610
 3044POPC   GL140249  33.716   8.119   9.242
 3044POPC   GL240250  33.445   8.222   9.056
 3044POPC   C1A40251  33.834   7.971   8.812
 3044POPC   D2A40252  33.723   8.189   8.420
 3044POPC   C3A40253  33.949   8.202   8.011
 3044POPC   C4A40254  33.814   7.964   7.673
 3044POPC   C1B40255  33.370   8.601   8.794
 3044POPC   C2B40256  33.486   8.696   8.412
 3044POPC   C3B40257  33.584   8.525   8.047
 3044POPC   C4B40258  33.505   8.381   7.673
 3045POPC   NC340259   9.775  20.120   9.480
 3045POPC   PO440260   9.753  19.441   9.482
 3045POPC   GL140261   9.769  19.732   9.119
 3045POPC   GL240262  10.105  19.891   9.170
 3045POPC   C1A40263   9.743  19.735   8.646
 3045POPC   D2A40264   9.493  19.837   8.269
 3045POPC   C3A40265   9.631  19.590   7.896
 3045POPC   C4A40266   9.935  19.683   7.552
 3045POPC   C1B40267  10.091  20.095   8.775
 3045POPC   C2B40268   9.956  20.176   8.334
 3045POPC   C3B40269   9.813  20.091   7.910
 3045POPC   C4B40270  10.072  20.165   7.540
 3046POPC   NC340271  18.887  22.629   9.329
 3046POPC   PO440272  19.185  23.207   9.467
 3046POPC   GL140273  18.914  23.119   9.140
 3046POPC   GL240274  18.690  23.422   9.140
 3046POPC   C1A40275  19.056  22.887   8.753
 3046POPC   D2A40276  19.364  22.989   8.454
 3046POPC   C3A40277  19.313  22.819   8.064
 3046POPC   C4A40278  19.354  22.986   7.647
 3046POPC   C1B40279  18.703  23.290   8.714
 3046POPC   C2B40280  18.874  23.148   8.335
 3046POPC   C3B40281  18.899  23.099   7.907
 3046POPC   C4B40282  18.695  23.018   7.523
 3047POPC   NC340283  28.996   2.568   9.522
 3047POPC   PO440284  28.687   3.217   9.599
 3047POPC   GL140285  28.820   2.890   9.189
 3047POPC   GL240286  28.738   2.460   9.115
 3047POPC   C1A40287  29.098   2.695   8.832
 3047POPC   D2A40288  28.978   2.801   8.415
 3047POPC   C3A40289  29.216   2.893   8.049
 3047POPC   C4A40290  29.164   2.736   7.648
 3047POPC   C1B40291  28.718   2.379   8.689
 3047POPC   C2B40292  28.665   2.436   8.277
 3047POPC   C3B40293  28.952   2.414   7.970
 3047POPC   C4B40294  28.870   2.348   7.523
 3048POPC   NC340295  11.509  40.703   9.275
 3048POPC   PO440296  10.894  40.519   9.484
 3048POPC   GL140297  11.039  40.663   9.069
 3048POPC   GL240298  11.158  41.006   9.054
 3048POPC   C1A40299  11.160  40.695   8.629
 3048POPC   D2A40300  11.427  40.453   8.375
 3048POPC   C3A40301  11.252  40.590   8.045
 3048POPC   C4A40302  11.405  40.792   7.751
 3048POPC   C1B40303  11.483  41.077   8.712
 3048POPC   C2B40304  11.461  41.002   8.262
 3048POPC   C3B40305  11.672  41.192   7.920
 3048POPC   C4B40306  11.709  41.080   7.479
 3049POPC   NC340307  42.059  26.758   9.523
 3049POPC   PO440308  42.702  27.027   9.596
 3049POPC   GL140309  42.522  26.777   9.237
 3049POPC   GL240310  42.794  26.654   9.088
 3049POPC   C1A40311  42.380  26.683   8.775
 3049POPC   D2A40312  42.165  26.950   8.461
 3049POPC   C3A40313  42.173  26.796   8.059
 3049POPC   C4A40314  42.386  26.743   7.677
 3049POPC   C1B40315  42.832  26.882   8.696
 3049POPC   C2B40316  42.639  26.882   8.290
 3049POPC   C3B40317  42.649  27.092   7.917
 3049POPC   C4B40318  42.906  26.911   7.597
 3050POPC   NC340319   8.648  32.815   9.426
 3050POPC   PO440320   8.791  33.394   9.489
 3050POPC   GL140321   9.118  33.268   9.167
 3050POPC   GL240322   9.312  32.941   9.009
 3050POPC   C1A40323   9.002  33.234   8.763
 3050POPC   D2A40324   8.772  33.129   8.419
 3050POPC   C3A40325   8.918  33.219   8.034
 3050POPC   C4A40326   8.724  33.134   7.650
 3050POPC   C1B40327   9.084  32.730   8.660
 3050POPC   C2B40328   9.024  32.705   8.211
 3050POPC   C3B40329   9.084  32.805   7.803
 3050POPC   C4B40330   9.408  32.766   7.500
 3051POPC   NC340331  23.598  27.580  10.092
 3051POPC   PO440332  23.869  27.855   9.543
 3051POPC   GL140333  23.728  27.596   9.206
 3051POPC   GL240334  24.076  27.644   9.112
 3051POPC   C1A40335  23.521  27.686   8.783
 3051POPC   D2A40336  23.431  27.892   8.355
 3051POPC   C3A40337  23.717  27.799   8.020
 3051POPC   C4A40338  23.550  27.420   7.876
 3051POPC   C1B40339  23.957  27.355   8.784
 3051POPC   C2B40340  23.828  27.410   8.360
 3051POPC   C3B40341  24.028  27.296   7.965
 3051POPC   C4B40342  23.936  27.306   7.517
 3052POPC   NC340343  28.857  22.787   9.679
 3052POPC   PO440344  28.256  22.619   9.480
 3052POPC   GL140345  28.529  22.812   9.211
 3052POPC   GL240346  28.898  22.724   9.158
 3052POPC   C1A40347  28.296  23.003   8.878
 3052POPC   D2A40348  28.136  23.221   8.546
 3052POPC   C3A40349  27.994  22.933   8.219
 3052POPC   C4A40350  28.152  22.802   7.828
 3052POPC   C1B40351  28.692  22.715   8.741
 3052POPC   C2B40352  28.515  22.744   8.314
 3052POPC   C3B40353  28.647  22.623   7.897
 3052POPC   C4B40354  28.544  22.790   7.484
 3053POPC   NC340355  21.401  32.545   9.512
 3053POPC   PO440356  21.512  31.862   9.536
 3053POPC   GL140357  21.458  32.132   9.182
 3053POPC   GL240358  21.144  32.014   9.081
 3053POPC   C1A40359  21.642  32.239   8.739
 3053POPC   D2A40360  21.625  32.484   8.322
 3053POPC   C3A40361  21.609  32.238   7.898
 3053POPC   C4A40362  21.411  32.283   7.471
 3053POPC   C1B40363  21.162  32.088   8.667
 3053POPC   C2B40364  21.281  32.090   8.252
 3053POPC   C3B40365  21.086  32.142   7.849
 3053POPC   C4B40366  21.013  31.963   7.428
 3054POPC   NC340367   2.401  44.180   9.508
 3054POPC   PO440368   3.119  43.980   9.604
 3054POPC   GL140369   2.936  43.766   9.255
 3054POPC   GL240370   2.585  43.839   9.196
 3054POPC   C1A40371   3.029  43.728   8.836
 3054POPC   D2A40372   2.855  43.909   8.479
 3054POPC   C3A40373   3.089  43.909   8.092
 3054POPC   C4A40374   2.952  43.774   7.730
 3054POPC   C1B40375   2.381  44.014   8.829
 3054POPC   C2B40376   2.313  43.849   8.436
 3054POPC   C3B40377   2.546  43.838   8.079
 3054POPC   C4B40378   2.484  43.964   7.700
 3055POPC   NC340379   7.012  14.439   9.334
 3055POPC   PO440380   7.531  14.158   9.663
 3055POPC   GL140381   7.479  14.247   9.202
 3055POPC   GL240382   7.447  14.608   9.113
 3055POPC   C1A40383   7.218  14.100   8.826
 3055POPC   D2A40384   7.144  14.193   8.397
 3055POPC   C3A40385   7.515  14.236   8.169
 3055POPC   C4A40386   7.467  14.259   7.752
 3055POPC   C1B40387   7.196  14.628   8.746
 3055POPC   C2B40388   7.299  14.698   8.346
 3055POPC   C3B40389   7.265  14.674   7.965
 3055POPC   C4B40390   7.604  14.804   7.758
 3056POPC   NC340391  42.851   1.542   9.514
 3056POPC   PO440392  43.253   0.962   9.571
 3056POPC   GL140393  43.097   1.187   9.243
 3056POPC   GL240394  42.741   1.087   9.258
 3056POPC   C1A40395  43.195   1.376   8.845
 3056POPC   D2A40396  43.484   1.318   8.483
 3056POPC   C3A40397  43.291   1.262   8.078
 3056POPC   C4A40398  43.272   1.346   7.646
 3056POPC   C1B40399  42.658   1.250   8.849
 3056POPC   C2B40400  42.854   1.285   8.455
 3056POPC   C3B40401  42.688   1.231   8.057
 3056POPC   C4B40402  42.776   1.339   7.673
 3057POPC   NC340403  16.421  11.929   9.534
 3057POPC   PO440404  17.048  11.542   9.443
 3057POPC   GL140405  16.956  11.923   9.178
 3057POPC   GL240406  16.617  12.035   9.085
 3057POPC   C1A40407  16.994  12.141   8.763
 3057POPC   D2A40408  16.695  12.046   8.430
 3057POPC   C3A40409  16.832  11.904   8.039
 3057POPC   C4A40410  17.023  12.239   7.830
 3057POPC   C1B40411  16.514  12.370   8.791
 3057POPC   C2B40412  16.508  12.535   8.397
 3057POPC   C3B40413  16.550  12.373   7.984
 3057POPC   C4B40414  16.553  12.068   7.629
 3058POPC   NC340415   4.636  19.611   9.511
 3058POPC   PO440416   5.007  20.137   9.660
 3058POPC   GL140417   5.113  19.939   9.268
 3058POPC   GL240418   4.825  20.019   9.178
 3058POPC   C1A40419   5.356  19.761   8.907
 3058POPC   D2A40420   5.268  19.511   8.510
 3058POPC   C3A40421   5.298  19.702   8.093
 3058POPC   C4A40422   5.216  19.577   7.661
 3058POPC   C1B40423   4.849  19.809   8.740
 3058POPC   C2B40424   4.714  19.698   8.295
 3058POPC   C3B40425   4.833  19.814   7.854
 3058POPC   C4B40426   5.157  20.044   7.501
 3059POPC   NC340427   1.144  22.042   9.661
 3059POPC   PO440428   1.531  22.526   9.425
 3059POPC   GL140429   1.283  22.250   9.174
 3059POPC   GL240430   1.241  21.916   9.184
 3059POPC   C1A40431   1.257  22.280   8.733
 3059POPC   D2A40432   1.075  22.434   8.327
 3059POPC   C3A40433   1.096  22.371   7.864
 3059POPC   C4A40434   1.159  22.413   7.383
 3059POPC   C1B40435   1.066  21.745   8.820
 3059POPC   C2B40436   1.206  21.901   8.403
 3059POPC   C3B40437   1.384  21.953   8.021
 3059POPC   C4B40438   1.287  21.964   7.613
 3060POPC   NC340439  11.695   6.002   9.562
 3060POPC   PO440440  12.327   5.893   9.604
 3060POPC   GL140441  12.249   6.068   9.208
 3060POPC   GL240442  11.974   5.860   9.130
 3060POPC   C1A40443  12.214   6.261   8.780
 3060POPC   D2A40444  12.091   6.067   8.397
 3060POPC   C3A40445  12.030   6.199   7.956
 3060POPC   C4A40446  12.142   6.214   7.513
 3060POPC   C1B40447  12.280   5.756   8.786
 3060POPC   C2B40448  12.493   5.739   8.416
 3060POPC   C3B40449  12.248   5.719   8.055
 3060POPC   C4B40450  12.002   5.765   7.655
 3061POPC   NC340451  13.363  31.508   9.640
 3061POPC   PO440452  13.804  31.756   9.184
 3061POPC   GL140453  13.696  31.355   9.063
 3061POPC   GL240454  13.393  31.383   9.134
 3061POPC   C1A40455  13.846  31.100   8.741
 3061POPC   D2A40456  14.092  31.117   8.358
 3061POPC   C3A40457  13.820  31.305   8.013
 3061POPC   C4A40458  13.765  31.727   7.845
 3061POPC   C1B40459  13.318  31.567   8.718
 3061POPC   C2B40460  13.391  31.589   8.269
 3061POPC   C3B40461  13.357  31.425   7.866
 3061POPC   C4B40462  13.652  31.351   7.506
 3062POPC   NC340463   3.265  43.455   9.518
 3062POPC   PO440464   3.659  42.876   9.492
 3062POPC   GL140465   3.424  42.778   9.154
 3062POPC   GL240466   3.333  43.141   9.123
 3062POPC   C1A40467   3.538  42.895   8.742
 3062POPC   D2A40468   3.359  43.014   8.382
 3062POPC   C3A40469   3.614  42.964   8.057
 3062POPC   C4A40470   3.656  43.165   7.685
 3062POPC   C1B40471   3.065  43.218   8.774
 3062POPC   C2B40472   3.094  43.457   8.389
 3062POPC   C3B40473   3.246  43.354   7.986
 3062POPC   C4B40474   3.236  43.395   7.560
 3063POPC   NC340475  42.816   6.147   9.288
 3063POPC   PO440476  43.305   5.761   9.535
 3063POPC   GL140477  43.284   5.989   9.154
 3063POPC   GL240478  43.033   5.735   9.081
 3063POPC   C1A40479  43.203   6.089   8.694
 3063POPC   D2A40480  43.189   6.290   8.283
 3063POPC   C3A40481  42.957   6.071   7.972
 3063POPC   C4A40482  42.623   5.928   7.707
 3063POPC   C1B40483  43.319   5.587   8.785
 3063POPC   C2B40484  43.286   5.395   8.379
 3063POPC   C3B40485  43.248   5.657   8.044
 3063POPC   C4B40486  43.096   5.713   7.641
 3064POPC   NC340487  29.073  20.927   9.323
 3064POPC   PO440488  28.819  21.437   9.598
 3064POPC   GL140489  29.010  21.392   9.155
 3064POPC   GL240490  28.866  21.151   8.922
 3064POPC   C1A40491  29.206  21.575   8.809
 3064POPC   D2A40492  29.094  21.891   8.494
 3064POPC   C3A40493  29.190  21.670   8.121
 3064POPC   C4A40494  29.109  21.647   7.693
 3064POPC   C1B40495  29.275  21.077   8.702
 3064POPC   C2B40496  29.194  21.102   8.268
 3064POPC   C3B40497  29.066  21.181   7.877
 3064POPC   C4B40498  29.029  21.151   7.414
 3065POPC   NC340499  40.925  33.916   9.416
 3065POPC   PO440500  40.346  33.474   9.536
 3065POPC   GL140501  40.663  33.550   9.132
 3065POPC   GL240502  40.704  33.931   8.975
 3065POPC   C1A40503  40.796  33.567   8.666
 3065POPC   D2A40504  40.627  33.922   8.438
 3065POPC   C3A40505  40.624  33.892   8.011
 3065POPC   C4A40506  40.807  33.564   7.814
 3065POPC   C1B40507  41.044  34.050   8.734
 3065POPC   C2B40508  41.123  34.131   8.317
 3065POPC   C3B40509  41.113  34.001   7.908
 3065POPC   C4B40510  41.028  34.306   7.656
 3066POPC   NC340511  24.893  40.990   9.537
 3066POPC   PO440512  24.268  40.794   9.390
 3066POPC   GL140513  24.475  40.593   9.081
 3066POPC   GL240514  24.870  40.682   9.134
 3066POPC   C1A40515  24.204  40.612   8.724
 3066POPC   D2A40516  24.197  40.988   8.478
 3066POPC   C3A40517  24.402  40.976   8.101
 3066POPC   C4A40518  24.606  40.851   7.675
 3066POPC   C1B40519  24.874  40.607   8.697
 3066POPC   C2B40520  24.558  40.565   8.361
 3066POPC   C3B40521  24.375  40.491   7.955
 3066POPC   C4B40522  24.788  40.419   7.859
 3067POPC   NC340523  35.931  35.649   9.505
 3067POPC   PO440524  36.383  35.124   9.515
 3067POPC   GL140525  36.434  35.264   9.090
 3067POPC   GL240526  36.217  35.504   9.098
 3067POPC   C1A40527  36.351  35.195   8.662
 3067POPC   D2A40528  36.260  35.380   8.291
 3067POPC   C3A40529  36.510  35.420   7.915
 3067POPC   C4A40530  36.324  35.569   7.535
 3067POPC   C1B40531  35.908  35.216   8.920
 3067POPC   C2B40532  35.837  35.113   8.480
 3067POPC   C3B40533  35.841  35.267   8.057
 3067POPC   C4B40534  35.956  35.218   7.652
 3068POPC   NC340535  32.283  27.981   9.537
 3068POPC   PO440536  32.032  27.359   9.655
 3068POPC   GL140537  32.134  27.409   9.238
 3068POPC   GL240538  31.992  27.726   9.201
 3068POPC   C1A40539  32.262  27.497   8.813
 3068POPC   D2A40540  32.097  27.325   8.431
 3068POPC   C3A40541  32.272  27.465   8.060
 3068POPC   C4A40542  32.342  27.754   7.744
 3068POPC   C1B40543  31.853  27.867   8.815
 3068POPC   C2B40544  31.754  27.729   8.406
 3068POPC   C3B40545  31.898  27.789   8.012
 3068POPC   C4B40546  31.926  27.459   7.677
 3069POPC   NC340547  38.173  14.719   9.528
 3069POPC   PO440548  38.668  15.210   9.370
 3069POPC   GL140549  38.557  14.916   9.095
 3069POPC   GL240550  38.200  15.027   9.130
 3069POPC   C1A40551  38.629  14.948   8.632
 3069POPC   D2A40552  38.713  15.299   8.334
 3069POPC   C3A40553  38.678  15.165   7.905
 3069POPC   C4A40554  38.574  15.267   7.470
 3069POPC   C1B40555  38.215  15.185   8.707
 3069POPC   C2B40556  38.271  15.061   8.241
 3069POPC   C3B40557  38.185  15.083   7.785
 3069POPC   C4B40558  38.068  15.114   7.352
 3070POPC   NC340559   3.587  18.956   9.538
 3070POPC   PO440560   3.439  19.664   9.564
 3070POPC   GL140561   3.383  19.247   9.191
 3070POPC   GL240562   3.254  18.838   9.157
 3070POPC   C1A40563   3.640  18.953   8.858
 3070POPC   D2A40564   3.896  19.045   8.491
 3070POPC   C3A40565   3.619  19.060   8.140
 3070POPC   C4A40566   3.533  19.203   7.736
 3070POPC   C1B40567   3.121  18.912   8.750
 3070POPC   C2B40568   3.238  18.750   8.342
 3070POPC   C3B40569   3.146  18.908   7.916
 3070POPC   C4B40570   3.334  18.781   7.510
 3071POPC   NC340571  39.352  30.160   9.461
 3071POPC   PO440572  39.248  29.545   9.424
 3071POPC   GL140573  38.930  29.645   9.160
 3071POPC   GL240574  38.910  29.998   9.250
 3071POPC   C1A40575  39.016  29.597   8.736
 3071POPC   D2A40576  39.284  29.876   8.512
 3071POPC   C3A40577  39.499  29.708   8.157
 3071POPC   C4A40578  39.558  29.970   7.797
 3071POPC   C1B40579  39.053  30.243   8.860
 3071POPC   C2B40580  38.991  30.321   8.419
 3071POPC   C3B40581  39.101  30.074   8.063
 3071POPC   C4B40582  39.052  30.163   7.641
 3072POPC   NC340583  34.148  40.625   9.651
 3072POPC   PO440584  34.046  41.153   9.332
 3072POPC   GL140585  33.958  40.801   9.094
 3072POPC   GL240586  33.616  40.706   9.020
 3072POPC   C1A40587  33.917  40.801   8.642
 3072POPC   D2A40588  33.766  40.692   8.261
 3072POPC   C3A40589  33.891  40.864   7.888
 3072POPC   C4A40590  34.245  40.887   7.664
 3072POPC   C1B40591  33.389  40.622   8.615
 3072POPC   C2B40592  33.453  40.308   8.272
 3072POPC   C3B40593  33.522  40.419   7.873
 3072POPC   C4B40594  33.270  40.567   7.568
 3073POPC   NC340595   6.015  44.173   9.525
 3073POPC   PO440596   5.870  43.498   9.595
 3073POPC   GL140597   5.720  43.646   9.194
 3073POPC   GL240598   5.644  44.011   9.206
 3073POPC   C1A40599   5.729  43.669   8.739
 3073POPC   D2A40600   5.578  43.914   8.364
 3073POPC   C3A40601   5.673  43.772   7.934
 3073POPC   C4A40602   6.066  43.563   7.820
 3073POPC   C1B40603   5.731  44.210   8.819
 3073POPC   C2B40604   5.789  44.374   8.409
 3073POPC   C3B40605   5.660  44.276   7.982
 3073POPC   C4B40606   5.615  44.108   7.535
 3074POPC   NC340607  31.982  22.146   9.693
 3074POPC   PO440608  32.472  21.790   9.754
 3074POPC   GL140609  32.236  21.998   9.293
 3074POPC   GL240610  31.933  22.174   9.189
 3074POPC   C1A40611  32.261  22.176   8.800
 3074POPC   D2A40612  32.097  22.292   8.381
 3074POPC   C3A40613  32.322  22.216   7.983
 3074POPC   C4A40614  32.439  22.458   7.616
 3074POPC   C1B40615  31.973  21.771   8.925
 3074POPC   C2B40616  32.042  21.674   8.470
 3074POPC   C3B40617  31.903  21.885   8.096
 3074POPC   C4B40618  31.966  22.040   7.684
 3075POPC   NC340619  33.745  17.821   9.470
 3075POPC   PO440620  33.760  17.161   9.606
 3075POPC   GL140621  33.803  17.342   9.205
 3075POPC   GL240622  34.177  17.349   9.195
 3075POPC   C1A40623  33.586  17.302   8.801
 3075POPC   D2A40624  33.735  17.422   8.396
 3075POPC   C3A40625  33.544  17.550   8.025
 3075POPC   C4A40626  33.753  17.435   7.683
 3075POPC   C1B40627  34.103  17.454   8.755
 3075POPC   C2B40628  34.057  17.799   8.469
 3075POPC   C3B40629  34.057  17.688   8.053
 3075POPC   C4B40630  34.214  17.659   7.669
 3076POPC   NC340631  19.510  42.156   9.470
 3076POPC   PO440632  18.903  42.407   9.414
 3076POPC   GL140633  19.294  42.525   9.190
 3076POPC   GL240634  19.496  42.240   8.978
 3076POPC   C1A40635  19.276  42.662   8.790
 3076POPC   D2A40636  19.224  42.376   8.511
 3076POPC   C3A40637  19.328  42.508   8.148
 3076POPC   C4A40638  19.061  42.478   7.807
 3076POPC   C1B40639  19.302  41.937   8.758
 3076POPC   C2B40640  19.030  41.898   8.433
 3076POPC   C3B40641  19.144  42.035   8.058
 3076POPC   C4B40642  18.977  41.976   7.686
 3077POPC   NC340643   6.839  12.441   9.635
 3077POPC   PO440644   6.516  13.057   9.510
 3077POPC   GL140645   6.631  12.810   9.167
 3077POPC   GL240646   6.948  12.756   9.106
 3077POPC   C1A40647   6.576  12.658   8.753
 3077POPC   D2A40648   6.484  12.844   8.348
 3077POPC   C3A40649   6.540  12.586   7.959
 3077POPC   C4A40650   6.607  12.773   7.560
 3077POPC   C1B40651   6.820  13.093   8.769
 3077POPC   C2B40652   6.880  13.202   8.353
 3077POPC   C3B40653   6.868  13.005   7.950
 3077POPC   C4B40654   7.117  12.909   7.573
 3078POPC   NC340655  41.315   1.166   9.561
 3078POPC   PO440656  41.960   1.382   9.715
 3078POPC   GL140657  41.723   1.242   9.287
 3078POPC   GL240658  41.404   1.379   9.102
 3078POPC   C1A40659  41.676   1.052   8.868
 3078POPC   D2A40660  41.657   1.368   8.510
 3078POPC   C3A40661  41.709   1.209   8.089
 3078POPC   C4A40662  41.810   1.026   7.681
 3078POPC   C1B40663  41.212   1.221   8.696
 3078POPC   C2B40664  41.055   1.187   8.268
 3078POPC   C3B40665  41.235   1.068   7.885
 3078POPC   C4B40666  41.423   1.394   7.683
 3079POPC   NC340667  23.425  38.439   9.421
 3079POPC   PO440668  24.020  38.798   9.551
 3079POPC   GL140669  23.916  38.811   9.130
 3079POPC   GL240670  23.559  38.843   9.115
 3079POPC   C1A40671  23.905  38.557   8.735
 3079POPC   D2A40672  23.872  38.219   8.401
 3079POPC   C3A40673  23.971  38.387   7.991
 3079POPC   C4A40674  23.742  38.740   7.904
 3079POPC   C1B40675  23.426  38.730   8.715
 3079POPC   C2B40676  23.391  38.507   8.327
 3079POPC   C3B40677  23.468  38.258   7.977
 3079POPC   C4B40678  23.310  38.019   7.638
 3080POPC   NC340679  40.138  31.293   9.448
 3080POPC   PO440680  39.520  31.546   9.391
 3080POPC   GL140681  39.745  31.339   9.103
 3080POPC   GL240682  39.978  31.625   9.091
 3080POPC   C1A40683  39.905  31.313   8.698
 3080POPC   D2A40684  40.188  31.210   8.418
 3080POPC   C3A40685  39.994  31.272   8.073
 3080POPC   C4A40686  40.133  31.297   7.688
 3080POPC   C1B40687  40.024  31.857   8.732
 3080POPC   C2B40688  39.927  31.712   8.320
 3080POPC   C3B40689  39.913  31.725   7.854
 3080POPC   C4B40690  40.143  31.759   7.451
 3081POPC   NC340691  19.647  30.714   9.593
 3081POPC   PO440692  20.077  31.195   9.521
 3081POPC   GL140693  19.960  30.824   9.230
 3081POPC   GL240694  20.063  30.501   9.209
 3081POPC   C1A40695  19.834  30.715   8.782
 3081POPC   D2A40696  19.625  30.640   8.384
 3081POPC   C3A40697  19.782  30.875   8.080
 3081POPC   C4A40698  19.977  30.690   7.782
 3081POPC   C1B40699  20.285  30.410   8.825
 3081POPC   C2B40700  20.146  30.488   8.396
 3081POPC   C3B40701  20.340  30.412   7.979
 3081POPC   C4B40702  20.218  30.379   7.483
 3082POPC   NC340703  37.386  29.367   9.550
 3082POPC   PO440704  37.879  28.918   9.435
 3082POPC   GL140705  37.575  29.071   9.153
 3082POPC   GL240706  37.759  29.356   9.142
 3082POPC   C1A40707  37.588  29.197   8.699
 3082POPC   D2A40708  37.406  29.301   8.345
 3082POPC   C3A40709  37.521  29.230   7.960
 3082POPC   C4A40710  37.595  28.860   7.791
 3082POPC   C1B40711  38.071  29.216   8.832
 3082POPC   C2B40712  38.040  29.367   8.420
 3082POPC   C3B40713  38.007  29.161   8.036
 3082POPC   C4B40714  37.889  29.387   7.644
 3083POPC   NC340715  24.642  29.602   9.258
 3083POPC   PO440716  24.850  30.190   9.422
 3083POPC   GL140717  24.527  30.072   9.133
 3083POPC   GL240718  24.520  30.338   8.988
 3083POPC   C1A40719  24.171  30.062   8.766
 3083POPC   D2A40720  24.291  30.014   8.291
 3083POPC   C3A40721  24.118  29.727   8.013
 3083POPC   C4A40722  24.150  29.317   7.846
 3083POPC   C1B40723  24.671  29.965   8.675
 3083POPC   C2B40724  24.906  29.895   8.308
 3083POPC   C3B40725  24.667  29.927   7.920
 3083POPC   C4B40726  24.291  30.123   7.727
 3084POPC   NC340727  41.273  44.582   9.351
 3084POPC   PO440728  41.915  44.760   9.433
 3084POPC   GL140729  41.715  44.738   9.080
 3084POPC   GL240730  41.676  44.404   8.945
 3084POPC   C1A40731  41.473  44.845   8.735
 3084POPC   D2A40732  41.556  44.751   8.319
 3084POPC   C3A40733  41.421   0.083   8.095
 3084POPC   C4A40734  41.258   0.119   7.705
 3084POPC   C1B40735  41.787  44.102   8.627
 3084POPC   C2B40736  41.792  44.106   8.185
 3084POPC   C3B40737  41.570  44.411   7.928
 3084POPC   C4B40738  41.720  44.822   7.795
 3085POPC   NC340739  10.495  31.234   9.418
 3085POPC   PO440740  10.594  30.552   9.506
 3085POPC   GL140741  10.462  30.752   9.169
 3085POPC   GL240742  10.740  30.572   8.986
 3085POPC   C1A40743  10.269  30.614   8.788
 3085POPC   D2A40744  10.545  30.527   8.441
 3085POPC   C3A40745  10.443  30.767   8.088
 3085POPC   C4A40746  10.582  30.526   7.747
 3085POPC   C1B40747  10.697  30.937   8.733
 3085POPC   C2B40748  10.838  31.012   8.316
 3085POPC   C3B40749  10.880  30.919   7.855
 3085POPC   C4B40750  10.640  30.918   7.431
 3086POPC   NC340751  37.401  17.309   9.448
 3086POPC   PO440752  37.832  17.723   9.354
 3086POPC   GL140753  37.705  17.478   9.061
 3086POPC   GL240754  37.750  17.105   9.144
 3086POPC   C1A40755  37.587  17.633   8.697
 3086POPC   D2A40756  37.287  17.574   8.418
 3086POPC   C3A40757  37.584  17.625   8.125
 3086POPC   C4A40758  37.589  17.676   7.725
 3086POPC   C1B40759  37.481  17.134   8.781
 3086POPC   C2B40760  37.620  17.173   8.389
 3086POPC   C3B40761  37.512  17.157   7.967
 3086POPC   C4B40762  37.786  17.200   7.678
 3087POPC   NC340763  29.383  20.164   9.345
 3087POPC   PO440764  29.765  19.699   9.649
 3087POPC   GL140765  29.766  19.759   9.224
 3087POPC   GL240766  29.400  19.711   9.123
 3087POPC   C1A40767  30.081  19.706   8.888
 3087POPC   D2A40768  30.160  19.880   8.489
 3087POPC   C3A40769  30.137  19.671   8.064
 3087POPC   C4A40770  30.313  19.862   7.693
 3087POPC   C1B40771  29.607  19.851   8.739
 3087POPC   C2B40772  29.717  19.616   8.387
 3087POPC   C3B40773  29.628  19.697   7.969
 3087POPC   C4B40774  29.646  19.805   7.520
 3088POPC   NC340775   7.655  30.757   9.569
 3088POPC   PO440776   6.997  30.564   9.416
 3088POPC   GL140777   7.269  30.809   9.156
 3088POPC   GL240778   7.604  30.927   9.109
 3088POPC   C1A40779   7.211  30.939   8.764
 3088POPC   D2A40780   7.104  30.665   8.403
 3088POPC   C3A40781   7.372  30.530   8.082
 3088POPC   C4A40782   7.221  30.522   7.712
 3088POPC   C1B40783   7.655  30.708   8.695
 3088POPC   C2B40784   7.506  30.964   8.341
 3088POPC   C3B40785   7.350  31.017   7.937
 3088POPC   C4B40786   7.468  30.938   7.530
 3089POPC   NC340787  20.178  19.232   9.338
 3089POPC   PO440788  19.605  18.954   9.548
 3089POPC   GL140789  19.714  19.123   9.163
 3089POPC   GL240790  19.752  18.781   9.061
 3089POPC   C1A40791  19.836  19.172   8.717
 3089POPC   D2A40792  20.114  19.020   8.350
 3089POPC   C3A40793  20.027  19.202   7.958
 3089POPC   C4A40794  19.596  19.187   7.861
 3089POPC   C1B40795  19.469  18.816   8.719
 3089POPC   C2B40796  19.608  18.920   8.300
 3089POPC   C3B40797  19.869  18.710   7.970
 3089POPC   C4B40798  20.129  18.801   7.610
 3090POPC   NC340799  15.474  33.032   9.544
 3090POPC   PO440800  14.747  33.197   9.516
 3090POPC   GL140801  14.998  33.072   9.175
 3090POPC   GL240802  15.179  32.776   9.188
 3090POPC   C1A40803  15.092  33.144   8.746
 3090POPC   D2A40804  15.294  33.291   8.337
 3090POPC   C3A40805  15.061  33.120   7.948
 3090POPC   C4A40806  15.017  33.358   7.534
 3090POPC   C1B40807  15.350  32.717   8.776
 3090POPC   C2B40808  15.157  32.803   8.360
 3090POPC   C3B40809  15.256  32.647   7.952
 3090POPC   C4B40810  14.937  32.596   7.641
 3091POPC   NC340811   3.570  10.267   9.405
 3091POPC   PO440812   3.792  10.816   9.702
 3091POPC   GL140813   3.665  10.790   9.243
 3091POPC   GL240814   3.396  10.606   9.082
 3091POPC   C1A40815   3.868  10.517   8.886
 3091POPC   D2A40816   4.037  10.489   8.465
 3091POPC   C3A40817   3.809  10.293   8.129
 3091POPC   C4A40818   3.787  10.419   7.697
 3091POPC   C1B40819   3.433  10.526   8.646
 3091POPC   C2B40820   3.322  10.396   8.269
 3091POPC   C3B40821   3.417  10.630   7.938
 3091POPC   C4B40822   3.208  10.604   7.546
 3092POPC   NC340823  21.930  16.178   9.498
 3092POPC   PO440824  22.570  15.998   9.596
 3092POPC   GL140825  22.347  15.982   9.212
 3092POPC   GL240826  22.115  15.728   9.158
 3092POPC   C1A40827  22.402  15.950   8.766
 3092POPC   D2A40828  22.318  16.112   8.334
 3092POPC   C3A40829  22.432  15.899   7.928
 3092POPC   C4A40830  22.397  15.830   7.478
 3092POPC   C1B40831  21.912  16.004   8.853
 3092POPC   C2B40832  21.764  15.984   8.437
 3092POPC   C3B40833  21.890  15.869   8.032
 3092POPC   C4B40834  21.774  16.096   7.660
 3093POPC   NC340835   3.329  23.415   9.544
 3093POPC   PO440836   3.705  22.869   9.355
 3093POPC   GL140837   3.361  23.065   9.154
 3093POPC   GL240838   3.525  23.356   9.048
 3093POPC   C1A40839   3.384  22.914   8.750
 3093POPC   D2A40840   3.586  22.877   8.369
 3093POPC   C3A40841   3.385  23.044   8.012
 3093POPC   C4A40842   3.336  22.689   7.747
 3093POPC   C1B40843   3.854  23.159   8.748
 3093POPC   C2B40844   4.026  23.168   8.307
 3093POPC   C3B40845   3.881  22.987   7.913
 3093POPC   C4B40846   3.613  23.062   7.528
 3094POPC   NC340847  38.145   3.281   9.408
 3094POPC   PO440848  38.622   3.643   9.541
 3094POPC   GL140849  38.696   3.729   9.147
 3094POPC   GL240850  38.836   3.401   9.113
 3094POPC   C1A40851  38.429   3.808   8.779
 3094POPC   D2A40852  38.309   3.538   8.417
 3094POPC   C3A40853  38.370   3.688   8.018
 3094POPC   C4A40854  38.250   3.676   7.610
 3094POPC   C1B40855  38.651   3.345   8.758
 3094POPC   C2B40856  38.769   3.215   8.370
 3094POPC   C3B40857  38.573   3.193   7.985
 3094POPC   C4B40858  38.669   3.380   7.604
 3095POPC   NC340859  23.514  24.936   9.484
 3095POPC   PO440860  23.723  25.590   9.370
 3095POPC   GL140861  23.848  25.305   9.071
 3095POPC   GL240862  23.990  25.000   9.232
 3095POPC   C1A40863  23.580  25.184   8.716
 3095POPC   D2A40864  23.468  25.256   8.283
 3095POPC   C3A40865  23.652  24.977   7.994
 3095POPC   C4A40866  23.568  25.206   7.627
 3095POPC   C1B40867  24.057  24.961   8.770
 3095POPC   C2B40868  23.996  25.228   8.399
 3095POPC   C3B40869  23.962  25.372   7.984
 3095POPC   C4B40870  24.081  25.086   7.602
 3096POPC   NC340871  21.088  29.782   9.405
 3096POPC   PO440872  21.304  30.353   9.506
 3096POPC   GL140873  21.490  30.112   9.133
 3096POPC   GL240874  21.551  29.722   9.120
 3096POPC   C1A40875  21.434  29.961   8.693
 3096POPC   D2A40876  21.216  30.102   8.352
 3096POPC   C3A40877  21.313  29.914   7.947
 3096POPC   C4A40878  21.108  29.987   7.575
 3096POPC   C1B40879  21.712  29.517   8.718
 3096POPC   C2B40880  21.662  29.633   8.257
 3096POPC   C3B40881  21.768  29.628   7.786
 3096POPC   C4B40882  21.725  29.433   7.342
 3097POPC   NC340883  12.777   5.804   9.745
 3097POPC   PO440884  12.998   6.401   9.760
 3097POPC   GL140885  12.754   6.086   9.342
 3097POPC   GL240886  12.965   5.786   9.264
 3097POPC   C1A40887  12.709   6.044   8.866
 3097POPC   D2A40888  12.748   6.286   8.472
 3097POPC   C3A40889  12.528   6.142   8.105
 3097POPC   C4A40890  12.541   5.937   7.699
 3097POPC   C1B40891  13.047   5.599   8.851
 3097POPC   C2B40892  12.907   5.449   8.440
 3097POPC   C3B40893  12.853   5.604   7.988
 3097POPC   C4B40894  13.171   5.610   7.641
 3098POPC   NC340895  10.705   4.326   9.578
 3098POPC   PO440896  10.281   4.746   9.393
 3098POPC   GL140897  10.600   4.559   9.147
 3098POPC   GL240898  10.431   4.234   9.127
 3098POPC   C1A40899  10.869   4.347   8.855
 3098POPC   D2A40900  10.809   4.365   8.417
 3098POPC   C3A40901  10.845   4.047   8.140
 3098POPC   C4A40902  10.718   4.071   7.728
 3098POPC   C1B40903  10.388   4.445   8.714
 3098POPC   C2B40904  10.331   4.573   8.309
 3098POPC   C3B40905  10.360   4.347   7.933
 3098POPC   C4B40906  10.455   4.472   7.479
 3099POPC   NC340907  11.354   1.160   9.609
 3099POPC   PO440908  11.509   1.791   9.507
 3099POPC   GL140909  11.546   1.394   9.199
 3099POPC   GL240910  11.488   0.970   9.163
 3099POPC   C1A40911  11.312   1.298   8.811
 3099POPC   D2A40912  11.436   1.092   8.420
 3099POPC   C3A40913  11.304   1.306   8.062
 3099POPC   C4A40914  11.255   1.484   7.659
 3099POPC   C1B40915  11.620   0.717   8.789
 3099POPC   C2B40916  11.484   0.572   8.347
 3099POPC   C3B40917  11.389   0.810   7.948
 3099POPC   C4B40918  11.103   1.001   7.651
 3100POPC   NC340919  16.838  25.043   9.478
 3100POPC   PO440920  16.828  24.362   9.531
 3100POPC   GL140921  16.660  24.358   9.120
 3100POPC   GL240922  16.640  24.699   9.131
 3100POPC   C1A40923  16.760  24.389   8.694
 3100POPC   D2A40924  16.954  24.653   8.402
 3100POPC   C3A40925  16.837  24.513   8.013
 3100POPC   C4A40926  17.020  24.407   7.633
 3100POPC   C1B40927  16.667  24.903   8.777
 3100POPC   C2B40928  16.448  24.784   8.413
 3100POPC   C3B40929  16.424  24.831   7.993
 3100POPC   C4B40930  16.650  24.791   7.609
 3101POPC   NC340931   8.389   9.916   9.564
 3101POPC   PO440932   7.854   9.606   9.478
 3101POPC   GL140933   8.208   9.593   9.189
 3101POPC   GL240934   8.272   9.951   9.084
 3101POPC   C1A40935   8.285   9.588   8.733
 3101POPC   D2A40936   8.067   9.894   8.449
 3101POPC   C3A40937   8.022   9.756   8.017
 3101POPC   C4A40938   8.329   9.433   7.829
 3101POPC   C1B40939   8.599  10.112   8.850
 3101POPC   C2B40940   8.572  10.095   8.415
 3101POPC   C3B40941   8.351  10.232   8.069
 3101POPC   C4B40942   8.412   9.941   7.761
 3102POPC   NC340943  42.223  14.959   9.499
 3102POPC   PO440944  41.482  14.938   9.514
 3102POPC   GL140945  41.510  15.086   9.112
 3102POPC   GL240946  41.829  15.118   9.140
 3102POPC   C1A40947  41.504  15.285   8.728
 3102POPC   D2A40948  41.764  15.253   8.359
 3102POPC   C3A40949  41.510  15.285   7.984
 3102POPC   C4A40950  41.599  15.381   7.537
 3102POPC   C1B40951  41.808  14.881   8.731
 3102POPC   C2B40952  41.815  14.655   8.355
 3102POPC   C3B40953  41.868  14.867   7.993
 3102POPC   C4B40954  41.639  14.903   7.636
 3103POPC   NC340955  16.228  31.855   9.881
 3103POPC   PO440956  15.584  31.793   9.601
 3103POPC   GL140957  15.852  31.873   9.189
 3103POPC   GL240958  16.245  31.832   9.231
 3103POPC   C1A40959  15.901  31.708   8.728
 3103POPC   D2A40960  15.765  31.574   8.305
 3103POPC   C3A40961  15.728  31.737   7.891
 3103POPC   C4A40962  15.877  31.421   7.549
 3103POPC   C1B40963  16.404  31.725   8.799
 3103POPC   C2B40964  16.287  31.552   8.372
 3103POPC   C3B40965  16.243  31.576   7.934
 3103POPC   C4B40966  16.512  31.511   7.554
 3104POPC   NC340967  33.480  21.545   9.512
 3104POPC   PO440968  33.888  21.023   9.420
 3104POPC   GL140969  33.959  21.399   9.199
 3104POPC   GL240970  33.646  21.390   9.055
 3104POPC   C1A40971  34.016  21.533   8.749
 3104POPC   D2A40972  33.848  21.448   8.284
 3104POPC   C3A40973  34.058  21.553   7.845
 3104POPC   C4A40974  33.988  21.563   7.346
 3104POPC   C1B40975  33.726  21.100   8.701
 3104POPC   C2B40976  33.586  20.910   8.308
 3104POPC   C3B40977  33.417  21.158   7.972
 3104POPC   C4B40978  33.613  21.365   7.626
 3105POPC   NC340979  34.070  26.226   9.753
 3105POPC   PO440980  33.816  25.589   9.549
 3105POPC   GL140981  33.754  25.817   9.136
 3105POPC   GL240982  33.574  26.129   9.111
 3105POPC   C1A40983  33.548  25.801   8.721
 3105POPC   D2A40984  33.531  25.986   8.292
 3105POPC   C3A40985  33.791  25.728   8.006
 3105POPC   C4A40986  34.039  25.776   7.622
 3105POPC   C1B40987  33.551  26.344   8.699
 3105POPC   C2B40988  33.775  26.482   8.328
 3105POPC   C3B40989  33.595  26.452   7.934
 3105POPC   C4B40990  33.613  26.445   7.501
 3106POPC   NC340991  35.996   2.375   9.728
 3106POPC   PO440992  36.093   3.051   9.600
 3106POPC   GL140993  36.266   2.759   9.294
 3106POPC   GL240994  35.975   2.619   9.254
 3106POPC   C1A40995  36.324   2.632   8.862
 3106POPC   D2A40996  36.290   2.831   8.452
 3106POPC   C3A40997  36.118   2.753   8.045
 3106POPC   C4A40998  36.077   3.036   7.679
 3106POPC   C1B40999  35.816   2.724   8.819
 3106POPC   C2B41000  35.734   2.640   8.391
 3106POPC   C3B41001  35.625   2.865   8.010
 3106POPC   C4B41002  35.747   2.646   7.655
 3107POPC   NC341003  20.928  23.273   9.403
 3107POPC   PO441004  21.604  23.158   9.533
 3107POPC   GL141005  21.338  22.883   9.278
 3107POPC   GL241006  21.030  22.906   9.078
 3107POPC   C1A41007  21.452  22.751   8.838
 3107POPC   D2A41008  21.344  22.586   8.424
 3107POPC   C3A41009  21.457  22.671   7.980
 3107POPC   C4A41010  21.491  22.847   7.566
 3107POPC   C1B41011  21.079  23.015   8.647
 3107POPC   C2B41012  21.181  23.036   8.228
 3107POPC   C3B41013  21.291  23.221   7.849
 3107POPC   C4B41014  21.146  23.249   7.426
 3108POPC   NC341015  18.597  36.669   9.385
 3108POPC   PO441016  19.284  36.719   9.426
 3108POPC   GL141017  19.156  36.652   9.047
 3108POPC   GL241018  18.991  36.960   9.023
 3108POPC   C1A41019  19.241  36.598   8.594
 3108POPC   D2A41020  18.996  36.813   8.273
 3108POPC   C3A41021  19.159  36.904   7.891
 3108POPC   C4A41022  19.478  37.212   7.862
 3108POPC   C1B41023  18.770  36.715   8.734
 3108POPC   C2B41024  18.740  36.409   8.394
 3108POPC   C3B41025  18.729  36.528   7.912
 3108POPC   C4B41026  18.596  36.610   7.444
 3109POPC   NC341027  33.264   0.669   9.625
 3109POPC   PO441028  32.773   1.163   9.552
 3109POPC   GL141029  33.036   1.195   9.209
 3109POPC   GL241030  33.153   0.896   9.190
 3109POPC   C1A41031  33.010   1.218   8.778
 3109POPC   D2A41032  32.738   1.198   8.441
 3109POPC   C3A41033  32.956   1.215   8.083
 3109POPC   C4A41034  32.953   1.437   7.713
 3109POPC   C1B41035  33.303   0.764   8.822
 3109POPC   C2B41036  33.443   1.020   8.504
 3109POPC   C3B41037  33.448   0.899   8.084
 3109POPC   C4B41038  33.299   1.048   7.702
 3110POPC   NC341039  15.176  44.688   9.475
 3110POPC   PO441040  14.947  44.073   9.482
 3110POPC   GL141041  14.929  44.441   9.130
 3110POPC   GL241042  14.917  44.851   9.095
 3110POPC   C1A41043  15.176  44.483   8.766
 3110POPC   D2A41044  15.171  44.174   8.440
 3110POPC   C3A41045  15.269  44.444   8.111
 3110POPC   C4A41046  15.251  44.594   7.701
 3110POPC   C1B41047  14.721  44.743   8.755
 3110POPC   C2B41048  14.831  44.579   8.366
 3110POPC   C3B41049  14.851  44.747   7.974
 3110POPC   C4B41050  14.762  44.602   7.568
 3111POPC   NC341051   3.888  14.606   9.620
 3111POPC   PO441052   4.310  14.122   9.523
 3111POPC   GL141053   4.241  14.441   9.224
 3111POPC   GL241054   4.572  14.484   9.058
 3111POPC   C1A41055   4.105  14.474   8.794
 3111POPC   D2A41056   4.162  14.274   8.390
 3111POPC   C3A41057   4.056  14.521   8.034
 3111POPC   C4A41058   4.064  14.289   7.674
 3111POPC   C1B41059   4.727  14.136   8.781
 3111POPC   C2B41060   4.830  14.095   8.361
 3111POPC   C3B41061   4.543  14.215   8.032
 3111POPC   C4B41062   4.548  13.991   7.682
 3112POPC   NC341063  35.036  11.496   9.611
 3112POPC   PO441064  35.530  11.203   9.469
 3112POPC   GL141065  35.224  11.205   9.180
 3112POPC   GL241066  35.452  11.049   8.967
 3112POPC   C1A41067  35.032  11.263   8.761
 3112POPC   D2A41068  35.020  11.046   8.369
 3112POPC   C3A41069  35.065  11.181   7.951
 3112POPC   C4A41070  35.205  11.058   7.530
 3112POPC   C1B41071  35.477  11.508   8.861
 3112POPC   C2B41072  35.621  11.606   8.444
 3112POPC   C3B41073  35.589  11.294   8.118
 3112POPC   C4B41074  35.456  11.434   7.735
 3113POPC   NC341075  24.215  29.797   9.432
 3113POPC   PO441076  23.661  29.674   9.757
 3113POPC   GL141077  23.804  29.629   9.251
 3113POPC   GL241078  23.784  29.977   9.179
 3113POPC   C1A41079  23.727  29.647   8.798
 3113POPC   D2A41080  23.814  29.871   8.445
 3113POPC   C3A41081  23.516  29.780   8.162
 3113POPC   C4A41082  23.661  29.516   7.869
 3113POPC   C1B41083  23.529  30.150   8.811
 3113POPC   C2B41084  23.569  30.290   8.336
 3113POPC   C3B41085  23.835  30.188   7.972
 3113POPC   C4B41086  23.744  30.270   7.513
 3114POPC   NC341087  13.567  19.329  10.154
 3114POPC   PO441088  13.493  18.944   9.561
 3114POPC   GL141089  13.543  19.051   9.152
 3114POPC   GL241090  13.718  18.781   9.110
 3114POPC   C1A41091  13.454  19.251   8.799
 3114POPC   D2A41092  13.396  19.244   8.379
 3114POPC   C3A41093  13.661  19.481   8.119
 3114POPC   C4A41094  13.395  19.510   7.788
 3114POPC   C1B41095  13.579  18.767   8.657
 3114POPC   C2B41096  13.562  18.797   8.190
 3114POPC   C3B41097  13.562  19.015   7.799
 3114POPC   C4B41098  13.886  18.947   7.467
 3115POPC   NC341099  10.612  38.871   5.325
 3115POPC   PO441100  10.737  38.288   5.379
 3115POPC   GL141101  10.580  38.463   5.745
 3115POPC   GL241102  10.728  38.762   5.809
 3115POPC   C1A41103  10.648  38.356   6.187
 3115POPC   D2A41104  10.438  38.386   6.582
 3115POPC   C3A41105  10.556  38.416   7.021
 3115POPC   C4A41106  10.305  38.498   7.397
 3115POPC   C1B41107  10.924  38.770   6.217
 3115POPC   C2B41108  10.850  38.698   6.657
 3115POPC   C3B41109  10.857  38.926   7.043
 3115POPC   C4B41110  10.706  38.838   7.448
 3116POPC   NC341111  35.841   3.885   5.384
 3116POPC   PO441112  36.500   3.602   5.515
 3116POPC   GL141113  36.176   3.590   5.816
 3116POPC   GL241114  36.090   3.923   5.844
 3116POPC   C1A41115  36.117   3.396   6.241
 3116POPC   D2A41116  36.359   3.312   6.618
 3116POPC   C3A41117  36.116   3.243   6.979
 3116POPC   C4A41118  36.032   3.459   7.364
 3116POPC   C1B41119  36.237   3.909   6.275
 3116POPC   C2B41120  36.089   3.748   6.656
 3116POPC   C3B41121  36.039   3.889   7.048
 3116POPC   C4B41122  36.280   3.919   7.422
 3117POPC   NC341123  20.370  39.582   5.169
 3117POPC   PO441124  20.864  39.224   5.231
 3117POPC   GL141125  20.777  39.302   5.676
 3117POPC   GL241126  20.490  39.095   5.802
 3117POPC   C1A41127  20.801  39.311   6.167
 3117POPC   D2A41128  20.881  39.015   6.583
 3117POPC   C3A41129  20.862  39.205   6.998
 3117POPC   C4A41130  20.563  39.539   7.079
 3117POPC   C1B41131  20.527  38.881   6.226
 3117POPC   C2B41132  20.399  38.814   6.677
 3117POPC   C3B41133  20.386  39.004   7.117
 3117POPC   C4B41134  20.212  39.059   7.571
 3118POPC   NC341135  28.441  41.505   5.490
 3118POPC   PO441136  27.906  41.913   5.624
 3118POPC   GL141137  28.101  41.524   5.875
 3118POPC   GL241138  28.354  41.672   5.971
 3118POPC   C1A41139  28.192  41.299   6.275
 3118POPC   D2A41140  28.248  41.581   6.622
 3118POPC   C3A41141  28.052  41.506   7.009
 3118POPC   C4A41142  28.113  41.319   7.407
 3118POPC   C1B41143  28.661  41.564   6.257
 3118POPC   C2B41144  28.745  41.686   6.651
 3118POPC   C3B41145  28.604  41.534   7.036
 3118POPC   C4B41146  28.374  41.760   7.326
 3119POPC   NC341147   0.516  28.744   5.608
 3119POPC   PO441148   0.436  29.327   5.371
 3119POPC   GL141149   0.352  29.187   5.833
 3119POPC   GL241150   0.111  28.927   5.878
 3119POPC   C1A41151   0.506  28.967   6.255
 3119POPC   D2A41152   0.776  28.978   6.657
 3119POPC   C3A41153   0.662  29.267   7.030
 3119POPC   C4A41154   0.384  29.350   7.406
 3119POPC   C1B41155   0.045  29.163   6.284
 3119POPC   C2B41156   0.210  29.176   6.731
 3119POPC   C3B41157   0.062  28.986   7.125
 3119POPC   C4B41158   0.011  29.030   7.570
 3120POPC   NC341159   6.757   8.327   5.471
 3120POPC   PO441160   6.428   7.815   5.200
 3120POPC   GL141161   6.383   8.087   5.705
 3120POPC   GL241162   6.698   8.137   5.933
 3120POPC   C1A41163   6.321   8.338   6.183
 3120POPC   D2A41164   6.540   8.492   6.586
 3120POPC   C3A41165   6.399   8.309   7.005
 3120POPC   C4A41166   6.519   8.267   7.474
 3120POPC   C1B41167   6.847   8.186   6.325
 3120POPC   C2B41168   7.037   8.057   6.725
 3120POPC   C3B41169   6.811   8.020   7.119
 3120POPC   C4B41170   6.842   7.887   7.604
 3121POPC   NC341171  34.939  19.189   5.360
 3121POPC   PO441172  34.496  18.702   5.162
 3121POPC   GL141173  34.598  18.713   5.645
 3121POPC   GL241174  34.669  19.063   5.771
 3121POPC   C1A41175  34.779  18.710   6.127
 3121POPC   D2A41176  34.870  19.008   6.512
 3121POPC   C3A41177  34.540  19.130   6.800
 3121POPC   C4A41178  34.485  18.900   7.164
 3121POPC   C1B41179  34.992  19.214   6.065
 3121POPC   C2B41180  35.071  19.483   6.430
 3121POPC   C3B41181  34.967  19.417   6.911
 3121POPC   C4B41182  34.688  19.355   7.290
 3122POPC   NC341183   1.441  38.607   5.292
 3122POPC   PO441184   0.960  38.052   5.520
 3122POPC   GL141185   1.229  38.284   5.871
 3122POPC   GL241186   1.323  38.615   5.802
 3122POPC   C1A41187   1.344  38.454   6.332
 3122POPC   D2A41188   1.052  38.668   6.676
 3122POPC   C3A41189   1.129  38.560   7.115
 3122POPC   C4A41190   1.225  38.377   7.511
 3122POPC   C1B41191   1.147  38.874   6.149
 3122POPC   C2B41192   1.401  39.002   6.523
 3122POPC   C3B41193   1.565  38.713   6.848
 3122POPC   C4B41194   1.658  38.678   7.301
 3123POPC   NC341195   8.203  28.132   5.389
 3123POPC   PO441196   7.547  28.182   5.371
 3123POPC   GL141197   7.864  28.201   5.794
 3123POPC   GL241198   8.255  28.290   5.872
 3123POPC   C1A41199   7.915  28.438   6.220
 3123POPC   D2A41200   8.207  28.457   6.596
 3123POPC   C3A41201   8.026  28.494   7.024
 3123POPC   C4A41202   8.105  28.262   7.411
 3123POPC   C1B41203   8.577  28.300   6.236
 3123POPC   C2B41204   8.611  28.073   6.629
 3123POPC   C3B41205   8.507  28.268   7.020
 3123POPC   C4B41206   8.734  28.378   7.367
 3124POPC   NC341207  37.012  44.068   5.379
 3124POPC   PO441208  36.673  43.537   5.386
 3124POPC   GL141209  36.698  43.787   5.740
 3124POPC   GL241210  37.051  43.758   5.812
 3124POPC   C1A41211  36.714  43.921   6.172
 3124POPC   D2A41212  36.924  43.784   6.556
 3124POPC   C3A41213  36.693  43.971   6.920
 3124POPC   C4A41214  36.706  44.092   7.345
 3124POPC   C1B41215  37.231  44.028   6.140
 3124POPC   C2B41216  37.401  44.000   6.568
 3124POPC   C3B41217  37.272  43.808   6.952
 3124POPC   C4B41218  37.203  43.939   7.368
 3125POPC   NC341219  19.329  27.041   5.527
 3125POPC   PO441220  18.872  26.555   5.461
 3125POPC   GL141221  19.151  26.639   5.836
 3125POPC   GL241222  18.955  26.911   5.932
 3125POPC   C1A41223  19.451  26.648   6.210
 3125POPC   D2A41224  19.501  26.620   6.674
 3125POPC   C3A41225  19.434  26.991   6.948
 3125POPC   C4A41226  19.365  27.073   7.382
 3125POPC   C1B41227  18.915  26.650   6.308
 3125POPC   C2B41228  18.977  26.697   6.745
 3125POPC   C3B41229  18.957  26.892   7.134
 3125POPC   C4B41230  18.635  26.952   7.435
 3126POPC   NC341231  22.263  38.918   5.476
 3126POPC   PO441232  21.984  39.502   5.215
 3126POPC   GL141233  22.082  39.375   5.706
 3126POPC   GL241234  22.376  39.212   5.849
 3126POPC   C1A41235  22.125  39.486   6.178
 3126POPC   D2A41236  22.349  39.266   6.492
 3126POPC   C3A41237  22.147  39.286   6.868
 3126POPC   C4A41238  22.241  39.269   7.262
 3126POPC   C1B41239  22.199  38.910   6.128
 3126POPC   C2B41240  22.441  38.723   6.416
 3126POPC   C3B41241  22.424  38.849   6.799
 3126POPC   C4B41242  22.401  38.789   7.204
 3127POPC   NC341243  29.451  28.176   5.503
 3127POPC   PO441244  29.069  28.675   5.510
 3127POPC   GL141245  29.060  28.497   5.910
 3127POPC   GL241246  29.412  28.442   5.958
 3127POPC   C1A41247  29.033  28.506   6.372
 3127POPC   D2A41248  28.890  28.456   6.813
 3127POPC   C3A41249  28.906  28.827   7.093
 3127POPC   C4A41250  29.036  28.851   7.511
 3127POPC   C1B41251  29.382  28.078   6.238
 3127POPC   C2B41252  29.249  27.949   6.641
 3127POPC   C3B41253  29.397  28.069   7.041
 3127POPC   C4B41254  29.284  28.465   7.216
 3128POPC   NC341255  12.565   9.149   5.534
 3128POPC   PO441256  12.977   8.710   5.210
 3128POPC   GL141257  12.827   8.735   5.698
 3128POPC   GL241258  12.515   8.755   5.888
 3128POPC   C1A41259  12.956   8.992   6.097
 3128POPC   D2A41260  12.773   9.142   6.496
 3128POPC   C3A41261  12.929   9.077   6.906
 3128POPC   C4A41262  12.686   9.230   7.215
 3128POPC   C1B41263  12.624   8.685   6.337
 3128POPC   C2B41264  13.021   8.693   6.552
 3128POPC   C3B41265  13.044   8.529   6.957
 3128POPC   C4B41266  12.655   8.665   7.092
 3129POPC   NC341267   5.430  37.478   5.609
 3129POPC   PO441268   6.077  37.505   5.650
 3129POPC   GL141269   6.017  37.631   6.022
 3129POPC   GL241270   5.674  37.749   5.992
 3129POPC   C1A41271   5.983  37.598   6.443
 3129POPC   D2A41272   5.672  37.806   6.683
 3129POPC   C3A41273   5.826  37.830   7.095
 3129POPC   C4A41274   6.245  37.699   7.196
 3129POPC   C1B41275   5.593  37.341   6.251
 3129POPC   C2B41276   5.563  37.200   6.709
 3129POPC   C3B41277   5.558  37.369   7.161
 3129POPC   C4B41278   5.445  37.523   7.610
 3130POPC   NC341279  18.960  41.225   5.609
 3130POPC   PO441280  18.992  41.779   5.366
 3130POPC   GL141281  19.100  41.896   5.758
 3130POPC   GL241282  19.291  41.559   5.850
 3130POPC   C1A41283  19.110  41.889   6.196
 3130POPC   D2A41284  19.311  41.752   6.569
 3130POPC   C3A41285  19.046  41.674   6.908
 3130POPC   C4A41286  18.914  41.986   7.194
 3130POPC   C1B41287  19.183  41.340   6.267
 3130POPC   C2B41288  19.341  41.242   6.715
 3130POPC   C3B41289  19.298  41.061   7.162
 3130POPC   C4B41290  19.099  41.152   7.594
 3131POPC   NC341291  31.712   9.887   5.359
 3131POPC   PO441292  31.002   9.834   5.523
 3131POPC   GL141293  31.200   9.811   5.925
 3131POPC   GL241294  31.549   9.737   5.836
 3131POPC   C1A41295  31.390   9.772   6.358
 3131POPC   D2A41296  31.460  10.005   6.741
 3131POPC   C3A41297  31.138  10.083   7.060
 3131POPC   C4A41298  31.241   9.914   7.476
 3131POPC   C1B41299  31.820   9.595   6.159
 3131POPC   C2B41300  31.829   9.532   6.592
 3131POPC   C3B41301  31.883   9.787   6.965
 3131POPC   C4B41302  31.632   9.661   7.289
 3132POPC   NC341303  32.229  41.534   5.157
 3132POPC   PO441304  32.601  41.137   5.515
 3132POPC   GL141305  32.304  41.324   5.751
 3132POPC   GL241306  32.206  41.668   5.753
 3132POPC   C1A41307  32.494  41.450   6.130
 3132POPC   D2A41308  32.690  41.421   6.485
 3132POPC   C3A41309  32.444  41.543   6.812
 3132POPC   C4A41310  32.462  41.503   7.250
 3132POPC   C1B41311  31.982  41.484   6.131
 3132POPC   C2B41312  31.998  41.400   6.573
 3132POPC   C3B41313  31.985  41.593   7.017
 3132POPC   C4B41314  31.798  41.969   7.155
 3133POPC   NC341315  27.828  26.289   5.195
 3133POPC   PO441316  28.281  26.003   5.624
 3133POPC   GL141317  28.567  26.130   5.888
 3133POPC   GL241318  28.497  26.487   5.826
 3133POPC   C1A41319  28.648  25.958   6.315
 3133POPC   D2A41320  28.725  26.093   6.758
 3133POPC   C3A41321  28.467  25.925   7.131
 3133POPC   C4A41322  28.743  25.948   7.503
 3133POPC   C1B41323  28.340  26.376   6.254
 3133POPC   C2B41324  28.228  26.179   6.647
 3133POPC   C3B41325  28.334  26.389   7.022
 3133POPC   C4B41326  28.344  26.619   7.400
 3134POPC   NC341327  43.795   0.680   5.546
 3134POPC   PO441328  44.237   0.252   5.503
 3134POPC   GL141329  44.119   0.377   5.902
 3134POPC   GL241330  43.754   0.365   5.943
 3134POPC   C1A41331  44.052   0.612   6.300
 3134POPC   D2A41332  43.792   0.545   6.651
 3134POPC   C3A41333  43.966   0.523   7.035
 3134POPC   C4A41334  43.869   0.781   7.370
 3134POPC   C1B41335  43.456   0.097   6.179
 3134POPC   C2B41336  43.296   0.128   6.586
 3134POPC   C3B41337  43.562   0.154   6.957
 3134POPC   C4B41338  43.688   0.288   7.406
 3135POPC   NC341339   1.420   9.279   5.444
 3135POPC   PO441340   1.535   8.611   5.364
 3135POPC   GL141341   1.374   8.806   5.746
 3135POPC   GL241342   1.009   8.902   5.813
 3135POPC   C1A41343   1.400   8.787   6.216
 3135POPC   D2A41344   1.284   8.626   6.647
 3135POPC   C3A41345   1.220   8.919   6.998
 3135POPC   C4A41346   1.036   8.856   7.413
 3135POPC   C1B41347   0.882   8.800   6.264
 3135POPC   C2B41348   0.795   8.820   6.728
 3135POPC   C3B41349   0.728   9.118   7.124
 3135POPC   C4B41350   0.782   9.280   7.582
 3136POPC   NC341351  14.909  30.651   5.538
 3136POPC   PO441352  14.210  30.672   5.393
 3136POPC   GL141353  14.036  30.741   5.751
 3136POPC   GL241354  14.060  30.438   5.928
 3136POPC   C1A41355  14.046  30.902   6.157
 3136POPC   D2A41356  14.286  30.882   6.530
 3136POPC   C3A41357  14.190  30.801   6.945
 3136POPC   C4A41358  14.525  30.668   7.236
 3136POPC   C1B41359  14.455  30.534   6.190
 3136POPC   C2B41360  14.561  30.463   6.663
 3136POPC   C3B41361  14.270  30.310   6.992
 3136POPC   C4B41362  14.234  30.170   7.437
 3137POPC   NC341363   3.120  39.949   5.449
 3137POPC   PO441364   3.491  40.567   5.464
 3137POPC   GL141365   3.652  40.199   5.708
 3137POPC   GL241366   3.441  39.888   5.840
 3137POPC   C1A41367   3.769  40.129   6.150
 3137POPC   D2A41368   3.585  39.986   6.540
 3137POPC   C3A41369   3.757  40.088   6.955
 3137POPC   C4A41370   3.748  39.816   7.314
 3137POPC   C1B41371   3.121  39.715   6.127
 3137POPC   C2B41372   3.126  39.734   6.583
 3137POPC   C3B41373   3.322  39.762   7.016
 3137POPC   C4B41374   3.301  39.593   7.485
 3138POPC   NC341375  37.324   6.616   5.409
 3138POPC   PO441376  37.814   7.082   5.478
 3138POPC   GL141377  37.668   6.851   5.857
 3138POPC   GL241378  37.463   6.518   5.886
 3138POPC   C1A41379  37.672   6.822   6.308
 3138POPC   D2A41380  37.520   6.870   6.722
 3138POPC   C3A41381  37.719   6.576   6.971
 3138POPC   C4A41382  37.724   6.517   7.384
 3138POPC   C1B41383  37.408   6.325   6.288
 3138POPC   C2B41384  37.259   6.429   6.696
 3138POPC   C3B41385  37.303   6.276   7.107
 3138POPC   C4B41386  37.322   6.304   7.547
 3139POPC   NC341387  33.488  24.202   5.530
 3139POPC   PO441388  33.816  24.746   5.441
 3139POPC   GL141389  33.811  24.449   5.834
 3139POPC   GL241390  34.003  24.107   5.734
 3139POPC   C1A41391  33.492  24.382   6.227
 3139POPC   D2A41392  33.436  24.260   6.690
 3139POPC   C3A41393  33.462  24.638   7.025
 3139POPC   C4A41394  33.496  24.984   7.327
 3139POPC   C1B41395  33.918  24.089   6.177
 3139POPC   C2B41396  33.936  24.358   6.561
 3139POPC   C3B41397  33.957  24.488   6.999
 3139POPC   C4B41398  34.027  24.258   7.383
 3140POPC   NC341399   8.216  13.495   5.116
 3140POPC   PO441400   7.719  13.771   5.501
 3140POPC   GL141401   8.150  13.746   5.714
 3140POPC   GL241402   8.357  14.003   5.731
 3140POPC   C1A41403   8.304  13.602   6.120
 3140POPC   D2A41404   8.351  13.446   6.558
 3140POPC   C3A41405   8.095  13.488   6.918
 3140POPC   C4A41406   8.343  13.477   7.247
 3140POPC   C1B41407   8.200  14.097   6.155
 3140POPC   C2B41408   8.121  13.917   6.548
 3140POPC   C3B41409   8.289  13.967   6.952
 3140POPC   C4B41410   8.112  13.903   7.326
 3141POPC   NC341411   2.903  42.712   5.446
 3141POPC   PO441412   2.991  43.411   5.531
 3141POPC   GL141413   3.024  43.082   5.776
 3141POPC   GL241414   2.647  43.129   5.827
 3141POPC   C1A41415   2.986  43.039   6.196
 3141POPC   D2A41416   2.765  43.288   6.485
 3141POPC   C3A41417   2.812  43.135   6.863
 3141POPC   C4A41418   2.971  43.278   7.163
 3141POPC   C1B41419   2.431  43.004   6.211
 3141POPC   C2B41420   2.365  43.011   6.661
 3141POPC   C3B41421   2.480  42.768   7.003
 3141POPC   C4B41422   2.753  42.838   7.348
 3142POPC   NC341423   0.146  17.297   5.443
 3142POPC   PO441424   0.760  17.077   5.643
 3142POPC   GL141425   0.428  17.207   5.876
 3142POPC   GL241426   0.507  17.527   5.845
 3142POPC   C1A41427   0.469  17.267   6.316
 3142POPC   D2A41428   0.685  17.368   6.679
 3142POPC   C3A41429   0.576  17.125   7.014
 3142POPC   C4A41430   0.413  17.362   7.364
 3142POPC   C1B41431   0.315  17.750   6.165
 3142POPC   C2B41432   0.243  17.687   6.575
 3142POPC   C3B41433   0.245  17.896   6.945
 3142POPC   C4B41434   0.099  17.801   7.339
 3143POPC   NC341435  41.359  10.182   5.298
 3143POPC   PO441436  41.869  10.579   5.245
 3143POPC   GL141437  41.793  10.501   5.661
 3143POPC   GL241438  41.819  10.129   5.608
 3143POPC   C1A41439  41.640  10.719   6.063
 3143POPC   D2A41440  41.383  10.791   6.434
 3143POPC   C3A41441  41.627  10.762   6.800
 3143POPC   C4A41442  41.745  10.663   7.213
 3143POPC   C1B41443  41.573  10.211   6.003
 3143POPC   C2B41444  41.584  10.328   6.435
 3143POPC   C3B41445  41.589  10.257   6.880
 3143POPC   C4B41446  41.591  10.191   7.328
 3144POPC   NC341447  35.904  11.774   5.498
 3144POPC   PO441448  36.383  12.105   5.276
 3144POPC   GL141449  36.273  12.051   5.734
 3144POPC   GL241450  36.353  11.722   5.814
 3144POPC   C1A41451  36.222  12.045   6.185
 3144POPC   D2A41452  36.036  12.152   6.559
 3144POPC   C3A41453  36.197  12.034   6.940
 3144POPC   C4A41454  36.108  12.183   7.348
 3144POPC   C1B41455  36.156  11.538   6.196
 3144POPC   C2B41456  35.966  11.639   6.613
 3144POPC   C3B41457  36.007  11.533   6.990
 3144POPC   C4B41458  36.145  11.679   7.343
 3145POPC   NC341459  29.586   4.446   5.538
 3145POPC   PO441460  29.985   4.083   5.076
 3145POPC   GL141461  30.039   4.206   5.546
 3145POPC   GL241462  30.126   4.585   5.644
 3145POPC   C1A41463  30.008   4.210   6.018
 3145POPC   D2A41464  30.098   4.100   6.462
 3145POPC   C3A41465  29.898   4.296   6.824
 3145POPC   C4A41466  29.870   4.168   7.242
 3145POPC   C1B41467  29.976   4.783   6.049
 3145POPC   C2B41468  29.868   4.697   6.477
 3145POPC   C3B41469  29.885   4.800   6.918
 3145POPC   C4B41470  29.826   4.680   7.343
 3146POPC   NC341471  17.906  34.719   5.360
 3146POPC   PO441472  18.571  34.605   5.483
 3146POPC   GL141473  18.252  34.764   5.757
 3146POPC   GL241474  18.080  34.444   5.790
 3146POPC   C1A41475  18.127  34.757   6.205
 3146POPC   D2A41476  18.159  34.550   6.613
 3146POPC   C3A41477  18.516  34.525   6.864
 3146POPC   C4A41478  18.571  34.851   7.154
 3146POPC   C1B41479  18.112  34.207   6.196
 3146POPC   C2B41480  18.281  34.058   6.626
 3146POPC   C3B41481  18.158  34.205   7.053
 3146POPC   C4B41482  18.106  34.269   7.517
 3147POPC   NC341483  11.076  23.141   5.516
 3147POPC   PO441484  11.578  22.677   5.486
 3147POPC   GL141485  11.360  22.832   5.844
 3147POPC   GL241486  11.461  23.158   5.833
 3147POPC   C1A41487  11.295  22.957   6.280
 3147POPC   D2A41488  11.060  23.082   6.667
 3147POPC   C3A41489  11.108  22.876   7.037
 3147POPC   C4A41490  11.159  22.516   7.305
 3147POPC   C1B41491  11.662  23.280   6.199
 3147POPC   C2B41492  11.696  23.002   6.576
 3147POPC   C3B41493  11.635  23.069   6.993
 3147POPC   C4B41494  11.512  22.877   7.344
 3148POPC   NC341495  15.599  20.444   5.499
 3148POPC   PO441496  16.295  20.456   5.470
 3148POPC   GL141497  16.233  20.574   5.837
 3148POPC   GL241498  15.894  20.687   5.827
 3148POPC   C1A41499  16.094  20.457   6.230
 3148POPC   D2A41500  15.936  20.718   6.579
 3148POPC   C3A41501  16.138  20.529   6.923
 3148POPC   C4A41502  16.055  20.439   7.330
 3148POPC   C1B41503  15.604  20.542   6.174
 3148POPC   C2B41504  15.441  20.537   6.588
 3148POPC   C3B41505  15.618  20.567   6.995
 3148POPC   C4B41506  15.735  20.861   7.289
 3149POPC   NC341507  19.264   7.081   5.384
 3149POPC   PO441508  19.292   6.350   5.426
 3149POPC   GL141509  19.115   6.655   5.768
 3149POPC   GL241510  19.242   6.947   5.852
 3149POPC   C1A41511  18.867   6.734   6.166
 3149POPC   D2A41512  18.661   6.782   6.577
 3149POPC   C3A41513  18.856   6.631   6.972
 3149POPC   C4A41514  18.717   6.657   7.403
 3149POPC   C1B41515  19.372   6.928   6.226
 3149POPC   C2B41516  19.167   6.882   6.602
 3149POPC   C3B41517  19.182   7.034   7.009
 3149POPC   C4B41518  19.357   6.925   7.379
 3150POPC   NC341519   1.004  42.210   5.557
 3150POPC   PO441520   1.151  41.655   5.381
 3150POPC   GL141521   1.080  41.742   5.824
 3150POPC   GL241522   0.724  41.837   5.819
 3150POPC   C1A41523   1.298  41.787   6.249
 3150POPC   D2A41524   1.504  41.945   6.627
 3150POPC   C3A41525   1.378  41.759   7.038
 3150POPC   C4A41526   1.125  41.432   7.252
 3150POPC   C1B41527   0.797  41.905   6.275
 3150POPC   C2B41528   0.982  41.991   6.686
 3150POPC   C3B41529   0.887  41.872   7.106
 3150POPC   C4B41530   1.005  41.892   7.558
 3151POPC   NC341531  42.987   2.501   5.405
 3151POPC   PO441532  43.435   3.063   5.427
 3151POPC   GL141533  43.135   2.990   5.773
 3151POPC   GL241534  43.152   2.659   5.867
 3151POPC   C1A41535  43.227   3.021   6.209
 3151POPC   D2A41536  43.132   2.895   6.602
 3151POPC   C3A41537  43.426   3.031   6.880
 3151POPC   C4A41538  43.352   2.852   7.240
 3151POPC   C1B41539  43.147   2.466   6.292
 3151POPC   C2B41540  42.897   2.445   6.699
 3151POPC   C3B41541  42.933   2.543   7.160
 3151POPC   C4B41542  42.703   2.560   7.566
 3152POPC   NC341543  42.481  23.110   5.468
 3152POPC   PO441544  41.972  22.711   5.369
 3152POPC   GL141545  42.161  22.873   5.792
 3152POPC   GL241546  42.260  23.233   5.908
 3152POPC   C1A41547  42.411  22.782   6.182
 3152POPC   D2A41548  42.543  22.982   6.563
 3152POPC   C3A41549  42.455  22.795   6.944
 3152POPC   C4A41550  42.286  22.919   7.315
 3152POPC   C1B41551  42.636  23.268   6.156
 3152POPC   C2B41552  42.769  23.445   6.566
 3152POPC   C3B41553  42.593  23.321   6.972
 3152POPC   C4B41554  42.735  23.278   7.398
 3153POPC   NC341555  34.033  10.666   5.415
 3153POPC   PO441556  33.397  10.388   5.565
 3153POPC   GL141557  33.699  10.544   5.890
 3153POPC   GL241558  33.969  10.801   5.890
 3153POPC   C1A41559  33.702  10.323   6.296
 3153POPC   D2A41560  33.595  10.036   6.637
 3153POPC   C3A41561  33.788  10.251   6.971
 3153POPC   C4A41562  33.739  10.351   7.414
 3153POPC   C1B41563  33.749  10.894   6.279
 3153POPC   C2B41564  33.760  10.708   6.694
 3153POPC   C3B41565  33.988  10.710   7.096
 3153POPC   C4B41566  34.031  10.744   7.537
 3154POPC   NC341567  42.896   5.909   5.499
 3154POPC   PO441568  43.534   5.759   5.399
 3154POPC   GL141569  43.320   5.691   5.814
 3154POPC   GL241570  43.276   5.349   5.852
 3154POPC   C1A41571  43.167   5.891   6.226
 3154POPC   D2A41572  43.202   5.865   6.694
 3154POPC   C3A41573  43.060   6.171   6.999
 3154POPC   C4A41574  42.966   6.221   7.457
 3154POPC   C1B41575  42.875   5.488   6.054
 3154POPC   C2B41576  42.777   5.608   6.483
 3154POPC   C3B41577  42.884   5.519   6.906
 3154POPC   C4B41578  42.816   5.788   7.241
 3155POPC   NC341579  20.712  16.571   5.147
 3155POPC   PO441580  20.501  17.135   5.507
 3155POPC   GL141581  20.633  16.799   5.819
 3155POPC   GL241582  20.919  17.013   5.858
 3155POPC   C1A41583  20.622  16.541   6.259
 3155POPC   D2A41584  20.515  16.411   6.712
 3155POPC   C3A41585  20.381  16.715   7.038
 3155POPC   C4A41586  20.622  16.557   7.370
 3155POPC   C1B41587  20.670  17.095   6.235
 3155POPC   C2B41588  20.648  16.916   6.636
 3155POPC   C3B41589  20.877  16.786   6.982
 3155POPC   C4B41590  21.104  16.824   7.378
 3156POPC   NC341591   3.710  31.856   5.097
 3156POPC   PO441592   3.739  31.376   5.482
 3156POPC   GL141593   3.507  31.569   5.808
 3156POPC   GL241594   3.256  31.302   5.860
 3156POPC   C1A41595   3.442  31.734   6.222
 3156POPC   D2A41596   3.361  31.926   6.602
 3156POPC   C3A41597   3.589  31.794   6.977
 3156POPC   C4A41598   3.371  31.915   7.346
 3156POPC   C1B41599   3.402  31.217   6.284
 3156POPC   C2B41600   3.354  31.388   6.700
 3156POPC   C3B41601   3.143  31.566   7.039
 3156POPC   C4B41602   3.238  31.437   7.446
 3157POPC   NC341603  16.253  19.318   5.337
 3157POPC   PO441604  16.194  18.687   5.543
 3157POPC   GL141605  16.068  19.080   5.773
 3157POPC   GL241606  16.265  19.393   5.846
 3157POPC   C1A41607  15.987  19.058   6.216
 3157POPC   D2A41608  16.188  18.780   6.537
 3157POPC   C3A41609  15.980  18.806   6.934
 3157POPC   C4A41610  15.812  18.955   7.342
 3157POPC   C1B41611  16.303  19.445   6.303
 3157POPC   C2B41612  16.146  19.266   6.688
 3157POPC   C3B41613  16.176  19.238   7.119
 3157POPC   C4B41614  16.186  19.292   7.527
 3158POPC   NC341615  10.233  20.864   5.385
 3158POPC   PO441616  10.625  20.272   5.522
 3158POPC   GL141617  10.524  20.429   5.927
 3158POPC   GL241618  10.420  20.745   5.880
 3158POPC   C1A41619  10.431  20.533   6.389
 3158POPC   D2A41620  10.226  20.548   6.805
 3158POPC   C3A41621  10.443  20.322   7.149
 3158POPC   C4A41622  10.580  20.245   7.594
 3158POPC   C1B41623  10.237  20.983   6.231
 3158POPC   C2B41624  10.374  21.041   6.676
 3158POPC   C3B41625  10.382  20.953   7.146
 3158POPC   C4B41626  10.358  21.091   7.627
 3159POPC   NC341627  10.057  21.815   5.628
 3159POPC   PO441628   9.968  22.502   5.439
 3159POPC   GL141629   9.946  22.284   5.823
 3159POPC   GL241630   9.586  22.157   5.750
 3159POPC   C1A41631  10.013  22.055   6.242
 3159POPC   D2A41632  10.185  22.007   6.675
 3159POPC   C3A41633   9.883  21.999   7.026
 3159POPC   C4A41634   9.882  22.294   7.384
 3159POPC   C1B41635   9.582  22.384   6.153
 3159POPC   C2B41636   9.662  22.240   6.576
 3159POPC   C3B41637   9.711  22.488   6.940
 3159POPC   C4B41638   9.469  22.552   7.314
 3160POPC   NC341639   3.925  40.644   5.588
 3160POPC   PO441640   4.256  41.210   5.427
 3160POPC   GL141641   4.428  41.004   5.799
 3160POPC   GL241642   4.384  40.658   5.831
 3160POPC   C1A41643   4.382  40.952   6.268
 3160POPC   D2A41644   4.473  40.861   6.676
 3160POPC   C3A41645   4.232  41.076   6.893
 3160POPC   C4A41646   4.108  40.913   7.239
 3160POPC   C1B41647   4.067  40.567   6.193
 3160POPC   C2B41648   4.017  40.360   6.592
 3160POPC   C3B41649   4.188  40.461   6.970
 3160POPC   C4B41650   4.531  40.620   7.158
 3161POPC   NC341651  35.917   4.582   5.262
 3161POPC   PO441652  36.276   4.081   5.384
 3161POPC   GL141653  36.275   4.397   5.749
 3161POPC   GL241654  35.949   4.485   5.766
 3161POPC   C1A41655  36.427   4.401   6.232
 3161POPC   D2A41656  36.532   4.315   6.684
 3161POPC   C3A41657  36.360   4.383   7.119
 3161POPC   C4A41658  36.395   4.362   7.637
 3161POPC   C1B41659  35.911   4.279   6.146
 3161POPC   C2B41660  36.005   4.269   6.566
 3161POPC   C3B41661  35.860   4.386   6.954
 3161POPC   C4B41662  35.931   4.281   7.364
 3162POPC   NC341663  15.546  37.281   5.317
 3162POPC   PO441664  16.073  37.723   5.478
 3162POPC   GL141665  15.962  37.684   5.888
 3162POPC   GL241666  15.702  37.424   5.853
 3162POPC   C1A41667  15.747  37.738   6.271
 3162POPC   D2A41668  15.589  37.526   6.606
 3162POPC   C3A41669  15.802  37.676   6.975
 3162POPC   C4A41670  16.094  37.995   7.162
 3162POPC   C1B41671  16.018  37.287   6.206
 3162POPC   C2B41672  16.191  37.248   6.650
 3162POPC   C3B41673  16.271  37.497   7.046
 3162POPC   C4B41674  16.190  37.467   7.499
 3163POPC   NC341675   8.050  44.964   5.568
 3163POPC   PO441676   8.453  44.481   5.338
 3163POPC   GL141677   8.438  44.627   5.777
 3163POPC   GL241678   8.647  44.374   5.905
 3163POPC   C1A41679   8.195  44.786   6.186
 3163POPC   D2A41680   7.861  44.835   6.528
 3163POPC   C3A41681   8.071  44.858   6.931
 3163POPC   C4A41682   8.037  44.793   7.370
 3163POPC   C1B41683   8.406  44.320   6.275
 3163POPC   C2B41684   8.293  44.493   6.673
 3163POPC   C3B41685   8.115  44.353   7.096
 3163POPC   C4B41686   8.177  44.353   7.566
 3164POPC   NC341687  13.556  28.615   5.398
 3164POPC   PO441688  13.927  27.932   5.520
 3164POPC   GL141689  13.552  28.143   5.737
 3164POPC   GL241690  13.556  28.477   5.875
 3164POPC   C1A41691  13.418  28.103   6.189
 3164POPC   D2A41692  13.727  28.001   6.543
 3164POPC   C3A41693  13.726  28.303   6.888
 3164POPC   C4A41694  13.455  28.634   7.033
 3164POPC   C1B41695  13.805  28.449   6.258
 3164POPC   C2B41696  14.029  28.650   6.623
 3164POPC   C3B41697  13.943  28.766   7.042
 3164POPC   C4B41698  13.809  28.572   7.427
 3165POPC   NC341699  43.168  14.169   5.505
 3165POPC   PO441700  43.511  14.726   5.538
 3165POPC   GL141701  43.230  14.549   5.823
 3165POPC   GL241702  43.040  14.815   5.940
 3165POPC   C1A41703  43.090  14.299   6.213
 3165POPC   D2A41704  42.705  14.316   6.537
 3165POPC   C3A41705  42.806  14.250   7.015
 3165POPC   C4A41706  43.234  14.207   7.233
 3165POPC   C1B41707  43.409  14.776   6.219
 3165POPC   C2B41708  43.419  14.655   6.629
 3165POPC   C3B41709  43.447  14.812   7.015
 3165POPC   C4B41710  43.311  14.700   7.404
 3166POPC   NC341711   6.108  34.061   5.474
 3166POPC   PO441712   5.635  33.610   5.481
 3166POPC   GL141713   5.832  33.787   5.830
 3166POPC   GL241714   5.731  34.127   5.894
 3166POPC   C1A41715   5.952  33.638   6.232
 3166POPC   D2A41716   6.256  33.619   6.532
 3166POPC   C3A41717   6.148  33.589   6.958
 3166POPC   C4A41718   5.906  33.755   7.273
 3166POPC   C1B41719   5.984  34.158   6.275
 3166POPC   C2B41720   6.015  34.393   6.673
 3166POPC   C3B41721   6.020  34.265   7.132
 3166POPC   C4B41722   5.843  34.162   7.576
 3167POPC   NC341723  25.818  23.969   5.165
 3167POPC   PO441724  26.277  23.544   5.169
 3167POPC   GL141725  26.221  23.695   5.607
 3167POPC   GL241726  25.866  23.622   5.707
 3167POPC   C1A41727  26.237  23.724   6.095
 3167POPC   D2A41728  26.269  23.889   6.568
 3167POPC   C3A41729  26.201  23.627   6.969
 3167POPC   C4A41730  26.292  23.603   7.437
 3167POPC   C1B41731  25.749  23.484   6.122
 3167POPC   C2B41732  25.871  23.539   6.548
 3167POPC   C3B41733  25.702  23.448   6.946
 3167POPC   C4B41734  25.721  23.517   7.380
 3168POPC   NC341735  34.499   9.783   5.367
 3168POPC   PO441736  35.099  10.153   5.456
 3168POPC   GL141737  34.909   9.906   5.843
 3168POPC   GL241738  34.717   9.584   5.814
 3168POPC   C1A41739  34.892   9.712   6.287
 3168POPC   D2A41740  34.896   9.631   6.753
 3168POPC   C3A41741  34.535   9.712   6.958
 3168POPC   C4A41742  34.516   9.888   7.344
 3168POPC   C1B41743  34.424   9.476   6.204
 3168POPC   C2B41744  34.249   9.322   6.638
 3168POPC   C3B41745  34.279   9.302   7.130
 3168POPC   C4B41746  34.634   9.398   7.439
 3169POPC   NC341747   7.656   9.742   5.394
 3169POPC   PO441748   6.947   9.845   5.512
 3169POPC   GL141749   7.315   9.894   5.831
 3169POPC   GL241750   7.530   9.590   5.858
 3169POPC   C1A41751   7.591   9.926   6.209
 3169POPC   D2A41752   7.613   9.727   6.606
 3169POPC   C3A41753   7.516   9.930   7.011
 3169POPC   C4A41754   7.500   9.598   7.304
 3169POPC   C1B41755   7.176   9.456   6.093
 3169POPC   C2B41756   7.159   9.381   6.531
 3169POPC   C3B41757   7.141   9.592   6.916
 3169POPC   C4B41758   6.988   9.469   7.310
 3170POPC   NC341759  44.775  30.981   5.422
 3170POPC   PO441760  44.553  30.288   5.374
 3170POPC   GL141761  44.815  30.496   5.687
 3170POPC   GL241762  44.526  30.661   5.821
 3170POPC   C1A41763  44.848  30.441   6.166
 3170POPC   D2A41764  44.612  30.573   6.567
 3170POPC   C3A41765  44.792  30.723   6.952
 3170POPC   C4A41766  44.991  30.450   7.230
 3170POPC   C1B41767  44.310  30.412   6.198
 3170POPC   C2B41768  44.088  30.574   6.581
 3170POPC   C3B41769  44.277  30.641   6.969
 3170POPC   C4B41770  44.411  30.882   7.283
 3171POPC   NC341771  24.673   8.623   5.395
 3171POPC   PO441772  24.248   9.079   5.465
 3171POPC   GL141773  24.311   8.818   5.772
 3171POPC   GL241774  24.626   8.956   5.851
 3171POPC   C1A41775  24.143   8.926   6.165
 3171POPC   D2A41776  24.326   9.036   6.554
 3171POPC   C3A41777  24.300   8.772   6.919
 3171POPC   C4A41778  24.331   8.873   7.301
 3171POPC   C1B41779  24.866   9.092   6.210
 3171POPC   C2B41780  24.986   9.091   6.635
 3171POPC   C3B41781  24.789   8.981   7.013
 3171POPC   C4B41782  24.732   9.156   7.390
 3172POPC   NC341783  12.073  41.811   5.510
 3172POPC   PO441784  12.350  42.380   5.135
 3172POPC   GL141785  12.151  42.378   5.607
 3172POPC   GL241786  11.822  42.205   5.706
 3172POPC   C1A41787  12.097  42.485   6.068
 3172POPC   D2A41788  12.014  42.312   6.506
 3172POPC   C3A41789  12.080  42.559   6.899
 3172POPC   C4A41790  12.079  42.344   7.289
 3172POPC   C1B41791  11.716  42.025   6.124
 3172POPC   C2B41792  11.535  42.097   6.535
 3172POPC   C3B41793  11.640  42.264   6.902
 3172POPC   C4B41794  11.748  41.954   7.174
 3173POPC   NC341795  42.846  11.118   5.161
 3173POPC   PO441796  42.234  11.301   5.384
 3173POPC   GL141797  42.049  11.336   5.750
 3173POPC   GL241798  42.242  11.537   5.949
 3173POPC   C1A41799  42.083  11.054   6.103
 3173POPC   D2A41800  42.332  10.979   6.487
 3173POPC   C3A41801  42.200  11.129   6.869
 3173POPC   C4A41802  42.492  11.410   7.070
 3173POPC   C1B41803  42.195  11.506   6.434
 3173POPC   C2B41804  41.933  11.571   6.820
 3173POPC   C3B41805  41.909  11.350   7.229
 3173POPC   C4B41806  41.889  11.494   7.649
 3174POPC   NC341807  25.080   3.364   5.494
 3174POPC   PO441808  25.634   3.663   5.478
 3174POPC   GL141809  25.307   3.676   5.837
 3174POPC   GL241810  24.970   3.823   5.772
 3174POPC   C1A41811  25.228   3.391   6.207
 3174POPC   D2A41812  25.478   3.389   6.622
 3174POPC   C3A41813  25.500   3.444   7.095
 3174POPC   C4A41814  25.488   3.811   7.399
 3174POPC   C1B41815  24.807   3.699   6.198
 3174POPC   C2B41816  24.979   3.583   6.601
 3174POPC   C3B41817  25.039   3.643   7.014
 3174POPC   C4B41818  24.885   3.273   7.200
 3175POPC   NC341819  15.769  18.605   5.368
 3175POPC   PO441820  16.221  18.207   5.124
 3175POPC   GL141821  16.278  18.191   5.641
 3175POPC   GL241822  15.937  18.274   5.729
 3175POPC   C1A41823  16.165  18.019   6.110
 3175POPC   D2A41824  16.043  18.271   6.507
 3175POPC   C3A41825  16.213  18.346   6.922
 3175POPC   C4A41826  15.898  18.414   7.261
 3175POPC   C1B41827  15.704  18.287   6.128
 3175POPC   C2B41828  15.544  18.155   6.551
 3175POPC   C3B41829  15.451  18.294   6.986
 3175POPC   C4B41830  15.379  18.121   7.421
 3176POPC   NC341831  13.346  36.666   5.525
 3176POPC   PO441832  12.644  36.850   5.541
 3176POPC   GL141833  12.744  37.117   5.859
 3176POPC   GL241834  13.101  37.125   5.886
 3176POPC   C1A41835  12.748  36.888   6.274
 3176POPC   D2A41836  12.429  36.746   6.582
 3176POPC   C3A41837  12.581  36.805   6.997
 3176POPC   C4A41838  12.882  36.962   7.268
 3176POPC   C1B41839  13.262  36.906   6.270
 3176POPC   C2B41840  13.083  36.942   6.707
 3176POPC   C3B41841  13.268  37.198   7.033
 3176POPC   C4B41842  13.237  37.596   7.149
 3177POPC   NC341843  37.683  44.200   5.243
 3177POPC   PO441844  37.477  44.767   5.601
 3177POPC   GL141845  37.549  44.723   5.991
 3177POPC   GL241846  37.856  44.862   6.019
 3177POPC   C1A41847  37.565  44.409   6.278
 3177POPC   D2A41848  37.691  44.537   6.627
 3177POPC   C3A41849  37.548  44.350   6.941
 3177POPC   C4A41850  37.610  44.593   7.280
 3177POPC   C1B41851  38.075  44.571   6.283
 3177POPC   C2B41852  38.308  44.436   6.621
 3177POPC   C3B41853  38.060  44.425   6.992
 3177POPC   C4B41854  38.226  44.422   7.387
 3178POPC   NC341855  20.746   8.248   5.345
 3178POPC   PO441856  20.406   7.704   5.459
 3178POPC   GL141857  20.707   7.958   5.783
 3178POPC   GL241858  20.719   8.355   5.828
 3178POPC   C1A41859  20.862   8.063   6.223
 3178POPC   D2A41860  20.708   8.224   6.647
 3178POPC   C3A41861  20.906   8.159   7.076
 3178POPC   C4A41862  20.668   8.131   7.498
 3178POPC   C1B41863  20.569   8.515   6.220
 3178POPC   C2B41864  20.331   8.611   6.590
 3178POPC   C3B41865  20.219   8.394   6.943
 3178POPC   C4B41866  20.295   8.457   7.354
 3179POPC   NC341867  35.440   0.587   5.116
 3179POPC   PO441868  35.995   0.235   5.247
 3179POPC   GL141869  35.934   0.308   5.747
 3179POPC   GL241870  36.241   0.456   5.934
 3179POPC   C1A41871  35.899   0.256   6.227
 3179POPC   D2A41872  35.875   0.504   6.627
 3179POPC   C3A41873  35.984   0.290   7.010
 3179POPC   C4A41874  35.987   0.049   7.396
 3179POPC   C1B41875  36.235   0.718   6.322
 3179POPC   C2B41876  36.419   0.523   6.688
 3179POPC   C3B41877  36.462   0.364   7.100
 3179POPC   C4B41878  36.457   0.528   7.518
 3180POPC   NC341879   6.203   6.628   5.245
 3180POPC   PO441880   5.542   6.664   5.272
 3180POPC   GL141881   5.736   6.635   5.659
 3180POPC   GL241882   5.869   6.954   5.772
 3180POPC   C1A41883   5.807   6.547   6.090
 3180POPC   D2A41884   5.862   6.798   6.462
 3180POPC   C3A41885   6.045   6.580   6.803
 3180POPC   C4A41886   6.013   6.330   7.170
 3180POPC   C1B41887   5.558   7.037   6.113
 3180POPC   C2B41888   5.397   7.057   6.531
 3180POPC   C3B41889   5.595   6.903   6.901
 3180POPC   C4B41890   5.760   6.750   7.300
 3181POPC   NC341891  21.014   3.105   5.500
 3181POPC   PO441892  20.325   3.137   5.450
 3181POPC   GL141893  20.482   2.843   5.776
 3181POPC   GL241894  20.775   2.624   5.698
 3181POPC   C1A41895  20.551   2.749   6.225
 3181POPC   D2A41896  20.362   2.636   6.629
 3181POPC   C3A41897  20.500   2.653   7.072
 3181POPC   C4A41898  20.310   2.667   7.504
 3181POPC   C1B41899  20.939   2.420   6.097
 3181POPC   C2B41900  21.085   2.562   6.511
 3181POPC   C3B41901  21.015   2.508   6.965
 3181POPC   C4B41902  20.920   2.682   7.380
 3182POPC   NC341903  14.222  20.918   5.372
 3182POPC   PO441904  14.162  20.257   5.424
 3182POPC   GL141905  14.533  20.418   5.755
 3182POPC   GL241906  14.560  20.767   5.782
 3182POPC   C1A41907  14.710  20.243   6.187
 3182POPC   D2A41908  14.451  20.338   6.627
 3182POPC   C3A41909  14.634  20.295   7.046
 3182POPC   C4A41910  14.520  20.568   7.396
 3182POPC   C1B41911  14.438  20.649   6.206
 3182POPC   C2B41912  14.653  20.798   6.567
 3182POPC   C3B41913  14.784  20.771   6.958
 3182POPC   C4B41914  14.670  21.050   7.250
 3183POPC   NC341915  35.075  13.627   5.498
 3183POPC   PO441916  35.679  13.966   5.415
 3183POPC   GL141917  35.560  13.676   5.778
 3183POPC   GL241918  35.245  13.535   5.945
 3183POPC   C1A41919  35.571  13.817   6.217
 3183POPC   D2A41920  35.350  13.834   6.594
 3183POPC   C3A41921  35.581  13.941   6.921
 3183POPC   C4A41922  35.427  13.789   7.293
 3183POPC   C1B41923  35.376  13.331   6.275
 3183POPC   C2B41924  35.267  13.243   6.676
 3183POPC   C3B41925  35.151  13.484   7.006
 3183POPC   C4B41926  35.184  13.354   7.451
 3184POPC   NC341927  30.071  30.508   5.386
 3184POPC   PO441928  30.424  31.026   5.456
 3184POPC   GL141929  30.032  30.849   5.775
 3184POPC   GL241930  29.945  30.478   5.855
 3184POPC   C1A41931  29.690  30.771   6.161
 3184POPC   D2A41932  29.770  30.634   6.598
 3184POPC   C3A41933  29.596  30.848   6.974
 3184POPC   C4A41934  29.907  31.100   7.171
 3184POPC   C1B41935  30.159  30.537   6.236
 3184POPC   C2B41936  30.225  30.416   6.658
 3184POPC   C3B41937  29.962  30.487   7.051
 3184POPC   C4B41938  29.546  30.408   7.281
 3185POPC   NC341939  35.151   0.238   5.589
 3185POPC   PO441940  35.651   0.702   5.512
 3185POPC   GL141941  35.410   0.581   5.881
 3185POPC   GL241942  35.065   0.497   6.003
 3185POPC   C1A41943  35.451   0.471   6.322
 3185POPC   D2A41944  35.301   0.358   6.713
 3185POPC   C3A41945  35.563   0.560   7.042
 3185POPC   C4A41946  35.634   0.420   7.466
 3185POPC   C1B41947  34.995   0.115   6.233
 3185POPC   C2B41948  34.850   0.009   6.628
 3185POPC   C3B41949  34.900   0.231   7.003
 3185POPC   C4B41950  35.123   0.292   7.349
 3186POPC   NC341951  34.150  27.594   5.150
 3186POPC   PO441952  34.682  27.455   5.497
 3186POPC   GL141953  34.684  27.589   5.922
 3186POPC   GL241954  35.029  27.563   5.944
 3186POPC   C1A41955  34.442  27.409   6.287
 3186POPC   D2A41956  34.581  27.236   6.638
 3186POPC   C3A41957  34.404  27.490   6.928
 3186POPC   C4A41958  34.560  27.361   7.276
 3186POPC   C1B41959  34.882  27.657   6.403
 3186POPC   C2B41960  34.533  27.889   6.602
 3186POPC   C3B41961  34.246  27.976   6.952
 3186POPC   C4B41962  34.355  27.839   7.375
 3187POPC   NC341963  19.255  25.269   5.567
 3187POPC   PO441964  18.640  25.063   5.755
 3187POPC   GL141965  18.901  25.324   5.986
 3187POPC   GL241966  19.254  25.437   6.044
 3187POPC   C1A41967  18.946  25.275   6.408
 3187POPC   D2A41968  19.304  25.246   6.623
 3187POPC   C3A41969  19.129  25.156   7.033
 3187POPC   C4A41970  18.666  25.203   7.084
 3187POPC   C1B41971  19.455  25.768   6.295
 3187POPC   C2B41972  19.633  25.635   6.684
 3187POPC   C3B41973  19.517  25.518   7.116
 3187POPC   C4B41974  19.177  25.491   7.424
 3188POPC   NC341975   5.193  23.212   5.595
 3188POPC   PO441976   4.968  22.492   5.494
 3188POPC   GL141977   5.077  22.755   5.837
 3188POPC   GL241978   4.799  22.941   5.957
 3188POPC   C1A41979   5.231  22.929   6.243
 3188POPC   D2A41980   5.420  23.165   6.581
 3188POPC   C3A41981   5.326  22.943   6.941
 3188POPC   C4A41982   5.164  23.126   7.320
 3188POPC   C1B41983   4.757  23.165   6.383
 3188POPC   C2B41984   4.791  23.176   6.856
 3188POPC   C3B41985   4.652  23.150   7.287
 3188POPC   C4B41986   4.826  22.956   7.679
 3189POPC   NC341987  11.799  38.634   5.479
 3189POPC   PO441988  12.426  38.364   5.473
 3189POPC   GL141989  12.106  38.327   5.815
 3189POPC   GL241990  11.885  38.580   5.973
 3189POPC   C1A41991  12.240  38.120   6.180
 3189POPC   D2A41992  12.343  38.260   6.582
 3189POPC   C3A41993  12.183  38.092   6.968
 3189POPC   C4A41994  12.236  38.314   7.329
 3189POPC   C1B41995  11.754  38.246   6.232
 3189POPC   C2B41996  11.799  38.253   6.658
 3189POPC   C3B41997  11.880  38.526   6.992
 3189POPC   C4B41998  11.631  38.758   7.268
 3190POPC   NC341999  41.365  24.220   5.172
 3190POPC   PO442000  41.495  23.588   5.439
 3190POPC   GL142001  41.591  23.698   5.877
 3190POPC   GL242002  41.943  23.640   5.936
 3190POPC   C1A42003  41.627  23.977   6.254
 3190POPC   D2A42004  41.634  24.226   6.649
 3190POPC   C3A42005  41.475  24.014   7.031
 3190POPC   C4A42006  41.163  23.724   7.216
 3190POPC   C1B42007  41.751  23.478   6.306
 3190POPC   C2B42008  41.528  23.632   6.666
 3190POPC   C3B42009  41.579  23.443   7.069
 3190POPC   C4B42010  41.843  23.681   7.357
 3191POPC   NC342011  14.015  21.516   5.572
 3191POPC   PO442012  14.609  21.155   5.441
 3191POPC   GL142013  14.540  21.399   5.799
 3191POPC   GL242014  14.238  21.163   5.853
 3191POPC   C1A42015  14.301  21.588   6.173
 3191POPC   D2A42016  14.382  21.694   6.607
 3191POPC   C3A42017  14.068  21.658   6.934
 3191POPC   C4A42018  14.257  21.574   7.318
 3191POPC   C1B42019  14.516  21.131   6.195
 3191POPC   C2B42020  14.334  21.198   6.525
 3191POPC   C3B42021  14.316  21.206   6.934
 3191POPC   C4B42022  14.046  21.107   7.270
 3192POPC   NC342023  29.354  25.353   5.591
 3192POPC   PO442024  29.981  25.360   5.407
 3192POPC   GL142025  29.840  25.378   5.788
 3192POPC   GL242026  29.707  25.058   5.788
 3192POPC   C1A42027  29.941  25.387   6.221
 3192POPC   D2A42028  29.699  25.446   6.588
 3192POPC   C3A42029  29.885  25.553   6.951
 3192POPC   C4A42030  29.668  25.551   7.337
 3192POPC   C1B42031  29.959  24.877   6.089
 3192POPC   C2B42032  30.100  24.849   6.502
 3192POPC   C3B42033  29.922  25.026   6.860
 3192POPC   C4B42034  29.971  25.151   7.270
 3193POPC   NC342035   0.492  28.078   5.457
 3193POPC   PO442036   0.080  28.625   5.446
 3193POPC   GL142037   0.239  28.396   5.865
 3193POPC   GL242038   0.531  28.216   5.925
 3193POPC   C1A42039   0.164  28.181   6.310
 3193POPC   D2A42040  44.942  28.224   6.729
 3193POPC   C3A42041   0.188  28.418   7.099
 3193POPC   C4A42042   0.592  28.262   7.321
 3193POPC   C1B42043   0.640  28.429   6.256
 3193POPC   C2B42044   0.743  28.262   6.648
 3193POPC   C3B42045   0.645  28.577   6.932
 3193POPC   C4B42046   0.505  28.836   7.272
 3194POPC   NC342047  33.153  15.034   5.216
 3194POPC   PO442048  33.543  15.436   5.610
 3194POPC   GL142049  33.236  15.084   5.805
 3194POPC   GL242050  32.879  15.203   5.923
 3194POPC   C1A42051  33.135  14.881   6.243
 3194POPC   D2A42052  32.879  15.124   6.561
 3194POPC   C3A42053  32.970  15.044   7.000
 3194POPC   C4A42054  32.647  14.969   7.299
 3194POPC   C1B42055  33.203  15.386   6.233
 3194POPC   C2B42056  33.365  15.376   6.648
 3194POPC   C3B42057  33.173  15.528   7.034
 3194POPC   C4B42058  33.181  15.393   7.437
 3195POPC   NC342059   6.817  24.375   5.416
 3195POPC   PO442060   6.937  24.980   5.596
 3195POPC   GL142061   6.802  24.676   5.861
 3195POPC   GL242062   6.494  24.506   5.788
 3195POPC   C1A42063   6.779  24.579   6.305
 3195POPC   D2A42064   6.773  24.181   6.528
 3195POPC   C3A42065   6.931  24.249   6.927
 3195POPC   C4A42066   6.775  24.658   7.076
 3195POPC   C1B42067   6.420  24.263   6.119
 3195POPC   C2B42068   6.304  24.435   6.495
 3195POPC   C3B42069   6.420  24.321   6.881
 3195POPC   C4B42070   6.342  24.357   7.289
 3196POPC   NC342071  40.843  17.855   5.316
 3196POPC   PO442072  41.274  17.282   5.337
 3196POPC   GL142073  40.896  17.369   5.686
 3196POPC   GL242074  40.712  17.689   5.774
 3196POPC   C1A42075  40.825  17.409   6.173
 3196POPC   D2A42076  40.565  17.411   6.547
 3196POPC   C3A42077  40.770  17.408   6.960
 3196POPC   C4A42078  40.802  17.325   7.402
 3196POPC   C1B42079  40.458  17.814   6.124
 3196POPC   C2B42080  40.248  17.832   6.509
 3196POPC   C3B42081  40.447  17.823   6.904
 3196POPC   C4B42082  40.395  17.628   7.310
 3197POPC   NC342083  43.386  44.849   5.557
 3197POPC   PO442084  42.858  44.296   5.509
 3197POPC   GL142085  43.061  44.558   5.821
 3197POPC   GL242086  42.918  44.903   5.758
 3197POPC   C1A42087  43.322  44.570   6.219
 3197POPC   D2A42088  43.553  44.697   6.622
 3197POPC   C3A42089  43.523  44.597   7.081
 3197POPC   C4A42090  43.209  44.580   7.429
 3197POPC   C1B42091  42.937  44.928   6.203
 3197POPC   C2B42092  42.976  44.724   6.606
 3197POPC   C3B42093  43.083  44.850   6.999
 3197POPC   C4B42094  43.217   0.114   7.319
 3198POPC   NC342095   1.138  26.383   5.539
 3198POPC   PO442096   1.419  27.006   5.413
 3198POPC   GL142097   1.241  27.010   5.844
 3198POPC   GL242098   1.002  26.731   5.877
 3198POPC   C1A42099   1.317  26.860   6.266
 3198POPC   D2A42100   1.444  26.923   6.671
 3198POPC   C3A42101   1.116  27.106   6.873
 3198POPC   C4A42102   0.996  26.953   7.258
 3198POPC   C1B42103   0.845  26.622   6.275
 3198POPC   C2B42104   0.969  26.631   6.713
 3198POPC   C3B42105   0.920  26.445   7.146
 3198POPC   C4B42106   1.132  26.566   7.552
 3199POPC   NC342107  30.269  11.935   5.529
 3199POPC   PO442108  29.783  12.408   5.638
 3199POPC   GL142109  29.642  12.018   5.842
 3199POPC   GL242110  29.897  11.731   5.858
 3199POPC   C1A42111  29.618  11.864   6.261
 3199POPC   D2A42112  29.815  11.880   6.658
 3199POPC   C3A42113  29.884  12.269   6.846
 3199POPC   C4A42114  29.580  12.207   7.168
 3199POPC   C1B42115  30.142  11.888   6.245
 3199POPC   C2B42116  30.306  11.895   6.740
 3199POPC   C3B42117  30.088  11.954   7.196
 3199POPC   C4B42118  30.027  11.913   7.686
 3200POPC   NC342119  22.505  41.779   5.452
 3200POPC   PO442120  23.145  42.008   5.499
 3200POPC   GL142121  23.117  41.729   5.851
 3200POPC   GL242122  22.772  41.573   5.873
 3200POPC   C1A42123  23.202  41.662   6.307
 3200POPC   D2A42124  23.189  41.720   6.773
 3200POPC   C3A42125  22.966  41.353   6.994
 3200POPC   C4A42126  22.842  41.092   7.361
 3200POPC   C1B42127  22.734  41.890   6.210
 3200POPC   C2B42128  22.584  41.987   6.618
 3200POPC   C3B42129  22.735  41.816   6.994
 3200POPC   C4B42130  22.663  41.577   7.352
 3201POPC   NC342131  11.234  36.323   5.342
 3201POPC   PO442132  11.711  36.546   5.732
 3201POPC   GL142133  11.496  36.176   5.923
 3201POPC   GL242134  11.141  36.101   5.843
 3201POPC   C1A42135  11.372  36.199   6.319
 3201POPC   D2A42136  11.037  36.189   6.544
 3201POPC   C3A42137  11.178  36.084   6.911
 3201POPC   C4A42138  11.140  36.252   7.288
 3201POPC   C1B42139  11.057  35.822   6.166
 3201POPC   C2B42140  11.233  35.682   6.547
 3201POPC   C3B42141  11.031  35.603   6.927
 3201POPC   C4B42142  11.233  35.727   7.282
 3202POPC   NC342143  21.459  10.184   5.282
 3202POPC   PO442144  21.060   9.613   5.476
 3202POPC   GL142145  21.418   9.790   5.714
 3202POPC   GL242146  21.334  10.082   5.898
 3202POPC   C1A42147  21.612   9.752   6.160
 3202POPC   D2A42148  21.442   9.622   6.570
 3202POPC   C3A42149  21.685   9.678   6.954
 3202POPC   C4A42150  21.653   9.551   7.367
 3202POPC   C1B42151  21.271  10.125   6.356
 3202POPC   C2B42152  21.411  10.093   6.788
 3202POPC   C3B42153  21.258   9.860   7.161
 3202POPC   C4B42154  21.145   9.877   7.591
 3203POPC   NC342155  27.079  42.835   5.553
 3203POPC   PO442156  26.657  42.226   5.557
 3203POPC   GL142157  26.693  42.540   5.878
 3203POPC   GL242158  27.046  42.504   5.943
 3203POPC   C1A42159  26.754  42.446   6.340
 3203POPC   D2A42160  26.920  42.359   6.740
 3203POPC   C3A42161  26.586  42.532   7.013
 3203POPC   C4A42162  26.477  42.430   7.453
 3203POPC   C1B42163  27.182  42.149   6.231
 3203POPC   C2B42164  27.277  41.911   6.643
 3203POPC   C3B42165  27.153  42.029   7.069
 3203POPC   C4B42166  26.994  42.401   7.319
 3204POPC   NC342167  23.542  31.318   5.377
 3204POPC   PO442168  23.819  31.958   5.369
 3204POPC   GL142169  23.707  31.643   5.746
 3204POPC   GL242170  23.416  31.410   5.849
 3204POPC   C1A42171  23.783  31.481   6.208
 3204POPC   D2A42172  23.906  31.407   6.670
 3204POPC   C3A42173  23.631  31.612   6.994
 3204POPC   C4A42174  23.588  31.511   7.439
 3204POPC   C1B42175  23.394  31.156   6.222
 3204POPC   C2B42176  23.394  31.320   6.645
 3204POPC   C3B42177  23.458  31.133   7.083
 3204POPC   C4B42178  23.382  31.061   7.551
 3205POPC   NC342179   6.954  30.872   5.379
 3205POPC   PO442180   6.532  30.274   5.251
 3205POPC   GL142181   6.596  30.482   5.739
 3205POPC   GL242182   6.641  30.874   5.807
 3205POPC   C1A42183   6.562  30.580   6.221
 3205POPC   D2A42184   6.385  30.755   6.631
 3205POPC   C3A42185   6.558  30.519   7.002
 3205POPC   C4A42186   6.375  30.095   7.064
 3205POPC   C1B42187   6.715  31.081   6.260
 3205POPC   C2B42188   6.888  30.926   6.662
 3205POPC   C3B42189   6.855  30.980   7.112
 3205POPC   C4B42190   6.961  30.946   7.580
 3206POPC   NC342191  31.065  27.186   5.430
 3206POPC   PO442192  30.670  27.780   5.444
 3206POPC   GL142193  30.653  27.623   5.801
 3206POPC   GL242194  30.653  27.263   5.732
 3206POPC   C1A42195  30.535  27.790   6.185
 3206POPC   D2A42196  30.755  27.827   6.542
 3206POPC   C3A42197  30.878  27.585   6.865
 3206POPC   C4A42198  30.808  27.706   7.233
 3206POPC   C1B42199  30.761  27.314   6.189
 3206POPC   C2B42200  30.613  27.254   6.600
 3206POPC   C3B42201  30.488  27.218   7.039
 3206POPC   C4B42202  30.710  27.295   7.490
 3207POPC   NC342203  33.963  13.033   5.505
 3207POPC   PO442204  33.853  12.407   5.687
 3207POPC   GL142205  33.660  12.786   5.862
 3207POPC   GL242206  33.377  13.020   5.788
 3207POPC   C1A42207  33.745  13.111   6.168
 3207POPC   D2A42208  34.061  13.148   6.485
 3207POPC   C3A42209  34.003  12.803   6.772
 3207POPC   C4A42210  33.982  12.843   7.187
 3207POPC   C1B42211  33.311  12.785   6.217
 3207POPC   C2B42212  33.500  12.847   6.659
 3207POPC   C3B42213  33.474  12.792   7.130
 3207POPC   C4B42214  33.284  13.024   7.505
 3208POPC   NC342215   1.070  15.740   5.144
 3208POPC   PO442216   1.165  15.075   5.408
 3208POPC   GL142217   1.283  15.187   5.812
 3208POPC   GL242218   1.599  14.983   5.832
 3208POPC   C1A42219   0.974  15.209   6.187
 3208POPC   D2A42220   0.727  15.105   6.586
 3208POPC   C3A42221   0.654  15.437   6.846
 3208POPC   C4A42222   0.997  15.386   7.129
 3208POPC   C1B42223   1.421  14.944   6.255
 3208POPC   C2B42224   1.252  15.152   6.649
 3208POPC   C3B42225   1.426  15.065   7.077
 3208POPC   C4B42226   1.777  15.107   7.382
 3209POPC   NC342227  42.672   3.316   4.980
 3209POPC   PO442228  42.323   3.717   5.395
 3209POPC   GL142229  42.312   3.491   5.773
 3209POPC   GL242230  42.615   3.269   5.743
 3209POPC   C1A42231  42.133   3.628   6.174
 3209POPC   D2A42232  42.071   3.951   6.488
 3209POPC   C3A42233  42.057   3.786   6.881
 3209POPC   C4A42234  42.103   3.916   7.290
 3209POPC   C1B42235  42.413   3.185   6.174
 3209POPC   C2B42236  42.431   3.403   6.549
 3209POPC   C3B42237  42.463   3.488   6.971
 3209POPC   C4B42238  42.141   3.390   7.230
 3210POPC   NC342239   6.623  15.188   5.424
 3210POPC   PO442240   6.388  15.827   5.507
 3210POPC   GL142241   6.407  15.515   5.841
 3210POPC   GL242242   6.320  15.153   5.832
 3210POPC   C1A42243   6.503  15.347   6.262
 3210POPC   D2A42244   6.752  15.483   6.590
 3210POPC   C3A42245   6.579  15.262   6.911
 3210POPC   C4A42246   6.393  15.421   7.223
 3210POPC   C1B42247   6.332  14.844   6.169
 3210POPC   C2B42248   6.553  14.695   6.507
 3210POPC   C3B42249   6.421  14.779   6.897
 3210POPC   C4B42250   6.296  14.935   7.247
 3211POPC   NC342251   9.698   8.475   5.298
 3211POPC   PO442252  10.045   7.965   5.428
 3211POPC   GL142253   9.817   8.203   5.739
 3211POPC   GL242254   9.934   8.580   5.735
 3211POPC   C1A42255   9.674   8.067   6.152
 3211POPC   D2A42256   9.473   7.973   6.544
 3211POPC   C3A42257   9.801   7.912   6.847
 3211POPC   C4A42258   9.798   8.069   7.249
 3211POPC   C1B42259   9.567   8.557   6.029
 3211POPC   C2B42260   9.533   8.475   6.482
 3211POPC   C3B42261   9.628   8.433   6.930
 3211POPC   C4B42262   9.941   8.607   7.265
 3212POPC   NC342263  23.130  28.446   5.387
 3212POPC   PO442264  22.766  27.907   5.402
 3212POPC   GL142265  22.688  28.124   5.785
 3212POPC   GL242266  22.782  28.478   5.801
 3212POPC   C1A42267  22.856  28.157   6.229
 3212POPC   D2A42268  22.708  28.117   6.652
 3212POPC   C3A42269  23.006  28.150   6.986
 3212POPC   C4A42270  23.006  28.114   7.440
 3212POPC   C1B42271  22.870  28.666   6.215
 3212POPC   C2B42272  22.948  28.555   6.623
 3212POPC   C3B42273  22.787  28.636   7.005
 3212POPC   C4B42274  23.063  28.604   7.333
 3213POPC   NC342275   8.475  30.840   5.513
 3213POPC   PO442276   7.886  30.808   5.450
 3213POPC   GL142277   8.092  30.558   5.758
 3213POPC   GL242278   7.961  30.241   5.861
 3213POPC   C1A42279   8.265  30.571   6.158
 3213POPC   D2A42280   8.274  30.901   6.457
 3213POPC   C3A42281   8.401  30.717   6.846
 3213POPC   C4A42282   8.230  30.864   7.221
 3213POPC   C1B42283   7.956  30.153   6.308
 3213POPC   C2B42284   8.122  30.291   6.694
 3213POPC   C3B42285   8.095  30.355   7.156
 3213POPC   C4B42286   8.031  30.285   7.638
 3214POPC   NC342287   9.541  36.410   5.427
 3214POPC   PO442288  10.010  35.933   5.362
 3214POPC   GL142289   9.796  36.101   5.748
 3214POPC   GL242290   9.879  36.462   5.788
 3214POPC   C1A42291   9.615  36.193   6.172
 3214POPC   D2A42292   9.800  36.048   6.557
 3214POPC   C3A42293   9.673  36.135   6.937
 3214POPC   C4A42294   9.675  36.209   7.339
 3214POPC   C1B42295   9.911  36.616   6.181
 3214POPC   C2B42296  10.036  36.519   6.577
 3214POPC   C3B42297   9.901  36.627   6.968
 3214POPC   C4B42298  10.083  36.534   7.342
 3215POPC   NC342299   5.145  39.448   5.476
 3215POPC   PO442300   4.926  38.825   5.445
 3215POPC   GL142301   4.854  39.077   5.813
 3215POPC   GL242302   4.704  39.387   5.738
 3215POPC   C1A42303   5.035  38.992   6.231
 3215POPC   D2A42304   5.423  39.142   6.429
 3215POPC   C3A42305   5.400  39.134   6.881
 3215POPC   C4A42306   5.424  39.299   7.297
 3215POPC   C1B42307   4.957  39.491   6.129
 3215POPC   C2B42308   5.012  39.418   6.564
 3215POPC   C3B42309   5.035  39.507   7.001
 3215POPC   C4B42310   5.047  39.586   7.438
 3216POPC   NC342311  24.390   6.451   5.344
 3216POPC   PO442312  24.578   7.085   5.236
 3216POPC   GL142313  24.450   6.916   5.719
 3216POPC   GL242314  24.129   6.732   5.767
 3216POPC   C1A42315  24.625   6.710   6.150
 3216POPC   D2A42316  24.588   6.403   6.542
 3216POPC   C3A42317  24.673   6.509   7.014
 3216POPC   C4A42318  24.350   6.471   7.368
 3216POPC   C1B42319  24.131   6.808   6.205
 3216POPC   C2B42320  24.339   6.875   6.586
 3216POPC   C3B42321  24.288   6.839   7.018
 3216POPC   C4B42322  24.612   7.094   7.256
 3217POPC   NC342323  28.964   2.243   5.571
 3217POPC   PO442324  29.410   1.833   5.377
 3217POPC   GL142325  29.289   1.937   5.819
 3217POPC   GL242326  29.480   2.231   5.817
 3217POPC   C1A42327  29.036   2.093   6.196
 3217POPC   D2A42328  28.840   1.923   6.565
 3217POPC   C3A42329  29.093   1.969   6.924
 3217POPC   C4A42330  29.157   1.688   7.268
 3217POPC   C1B42331  29.507   2.295   6.258
 3217POPC   C2B42332  29.338   2.385   6.699
 3217POPC   C3B42333  29.505   2.203   7.121
 3217POPC   C4B42334  29.335   2.137   7.545
 3218POPC   NC342335  20.783  38.107   5.607
 3218POPC   PO442336  20.364  37.668   5.308
 3218POPC   GL142337  20.502  37.642   5.778
 3218POPC   GL242338  20.849  37.528   5.862
 3218POPC   C1A42339  20.611  37.845   6.198
 3218POPC   D2A42340  20.809  37.705   6.584
 3218POPC   C3A42341  20.608  37.645   6.960
 3218POPC   C4A42342  20.689  37.993   7.183
 3218POPC   C1B42343  20.649  37.333   6.260
 3218POPC   C2B42344  20.696  37.207   6.698
 3218POPC   C3B42345  20.764  37.133   7.130
 3218POPC   C4B42346  20.682  37.426   7.435
 3219POPC   NC342347  37.097   7.634   5.659
 3219POPC   PO442348  36.817   7.026   5.436
 3219POPC   GL142349  36.792   7.267   5.860
 3219POPC   GL242350  36.764   7.626   6.066
 3219POPC   C1A42351  36.909   7.204   6.278
 3219POPC   D2A42352  36.956   7.412   6.635
 3219POPC   C3A42353  37.248   7.246   6.928
 3219POPC   C4A42354  37.157   7.234   7.347
 3219POPC   C1B42355  37.186   7.724   6.293
 3219POPC   C2B42356  37.373   7.707   6.714
 3219POPC   C3B42357  37.300   7.705   7.150
 3219POPC   C4B42358  37.204   7.712   7.591
 3220POPC   NC342359  11.805  44.690   5.312
 3220POPC   PO442360  12.449  44.744   5.303
 3220POPC   GL142361  12.222  44.565   5.726
 3220POPC   GL242362  11.888  44.592   5.796
 3220POPC   C1A42363  12.147  44.354   6.156
 3220POPC   D2A42364  12.303  44.461   6.536
 3220POPC   C3A42365  12.152  44.430   6.921
 3220POPC   C4A42366  12.221  44.788   7.175
 3220POPC   C1B42367  11.843  44.772   6.208
 3220POPC   C2B42368  11.770  44.635   6.598
 3220POPC   C3B42369  11.749  44.760   7.016
 3220POPC   C4B42370  11.819  44.418   7.319
 3221POPC   NC342371  27.562  18.396   5.404
 3221POPC   PO442372  27.583  17.712   5.457
 3221POPC   GL142373  27.680  18.040   5.799
 3221POPC   GL242374  27.764  18.395   5.864
 3221POPC   C1A42375  27.801  18.010   6.233
 3221POPC   D2A42376  27.501  18.054   6.579
 3221POPC   C3A42377  27.684  18.126   6.973
 3221POPC   C4A42378  27.429  18.095   7.342
 3221POPC   C1B42379  27.447  18.398   6.194
 3221POPC   C2B42380  27.440  18.554   6.614
 3221POPC   C3B42381  27.330  18.499   7.023
 3221POPC   C4B42382  27.687  18.546   7.286
 3222POPC   NC342383  18.099   6.328   5.474
 3222POPC   PO442384  17.788   6.937   5.489
 3222POPC   GL142385  18.109   6.755   5.814
 3222POPC   GL242386  18.431   6.532   5.840
 3222POPC   C1A42387  18.245   6.826   6.263
 3222POPC   D2A42388  18.154   6.640   6.682
 3222POPC   C3A42389  18.305   6.802   7.084
 3222POPC   C4A42390  17.983   6.932   7.395
 3222POPC   C1B42391  18.404   6.350   6.275
 3222POPC   C2B42392  18.544   6.297   6.724
 3222POPC   C3B42393  18.430   6.284   7.181
 3222POPC   C4B42394  18.478   6.099   7.637
 3223POPC   NC342395  18.659  36.237   5.512
 3223POPC   PO442396  18.030  35.955   5.421
 3223POPC   GL142397  18.242  36.130   5.800
 3223POPC   GL242398  18.068  36.442   5.883
 3223POPC   C1A42399  18.405  35.965   6.228
 3223POPC   D2A42400  18.334  35.644   6.584
 3223POPC   C3A42401  18.188  35.787   7.012
 3223POPC   C4A42402  18.364  36.156   7.245
 3223POPC   C1B42403  17.890  36.098   6.170
 3223POPC   C2B42404  18.018  36.051   6.601
 3223POPC   C3B42405  17.880  36.213   7.007
 3223POPC   C4B42406  17.886  36.385   7.389
 3224POPC   NC342407   9.521  20.972   5.577
 3224POPC   PO442408   9.903  20.503   5.463
 3224POPC   GL142409   9.912  20.731   5.828
 3224POPC   GL242410  10.015  20.473   6.051
 3224POPC   C1A42411   9.732  20.885   6.228
 3224POPC   D2A42412   9.872  20.961   6.646
 3224POPC   C3A42413   9.666  20.660   6.872
 3224POPC   C4A42414   9.885  20.459   7.183
 3224POPC   C1B42415   9.565  20.399   6.144
 3224POPC   C2B42416   9.360  20.337   6.565
 3224POPC   C3B42417   9.459  20.206   7.018
 3224POPC   C4B42418   9.576  20.147   7.453
 3225POPC   NC342419  16.507  37.512   5.473
 3225POPC   PO442420  17.212  37.540   5.389
 3225POPC   GL142421  16.917  37.486   5.765
 3225POPC   GL242422  16.644  37.768   5.893
 3225POPC   C1A42423  16.738  37.362   6.161
 3225POPC   D2A42424  16.663  37.423   6.612
 3225POPC   C3A42425  16.754  37.666   7.017
 3225POPC   C4A42426  16.531  37.824   7.403
 3225POPC   C1B42427  16.348  37.708   6.284
 3225POPC   C2B42428  16.364  37.883   6.727
 3225POPC   C3B42429  16.591  38.166   7.050
 3225POPC   C4B42430  16.599  38.384   7.488
 3226POPC   NC342431  17.036   1.046   5.170
 3226POPC   PO442432  16.404   1.188   5.233
 3226POPC   GL142433  16.585   1.299   5.637
 3226POPC   GL242434  16.342   1.476   5.791
 3226POPC   C1A42435  16.772   1.356   6.064
 3226POPC   D2A42436  16.949   1.268   6.481
 3226POPC   C3A42437  16.842   1.254   6.932
 3226POPC   C4A42438  16.850   0.831   7.122
 3226POPC   C1B42439  16.289   1.502   6.215
 3226POPC   C2B42440  16.461   1.432   6.616
 3226POPC   C3B42441  16.401   1.566   7.050
 3226POPC   C4B42442  16.504   1.468   7.460
 3227POPC   NC342443   9.622  26.043   5.418
 3227POPC   PO442444  10.091  26.479   5.374
 3227POPC   GL142445  10.009  26.242   5.770
 3227POPC   GL242446   9.797  25.946   5.880
 3227POPC   C1A42447  10.099  26.146   6.224
 3227POPC   D2A42448  10.255  25.967   6.581
 3227POPC   C3A42449  10.027  26.013   6.903
 3227POPC   C4A42450   9.817  26.232   7.196
 3227POPC   C1B42451   9.730  25.829   6.324
 3227POPC   C2B42452   9.487  25.889   6.694
 3227POPC   C3B42453   9.619  25.787   7.100
 3227POPC   C4B42454  10.009  25.679   7.330
 3228POPC   NC342455  15.613  25.825   5.373
 3228POPC   PO442456  16.266  25.952   5.651
 3228POPC   GL142457  16.065  25.960   6.006
 3228POPC   GL242458  15.739  26.036   5.895
 3228POPC   C1A42459  16.017  25.866   6.409
 3228POPC   D2A42460  15.744  25.967   6.722
 3228POPC   C3A42461  15.973  25.749   6.979
 3228POPC   C4A42462  16.085  25.947   7.290
 3228POPC   C1B42463  15.693  26.269   6.296
 3228POPC   C2B42464  15.730  26.469   6.706
 3228POPC   C3B42465  15.734  26.388   7.133
 3228POPC   C4B42466  15.632  26.626   7.513
 3229POPC   NC342467  15.587   9.255   5.414
 3229POPC   PO442468  14.971   9.545   5.414
 3229POPC   GL142469  15.038   9.632   5.820
 3229POPC   GL242470  15.111   9.301   5.924
 3229POPC   C1A42471  15.243   9.814   6.195
 3229POPC   D2A42472  15.237   9.608   6.640
 3229POPC   C3A42473  15.184   9.848   6.985
 3229POPC   C4A42474  14.982  10.028   7.305
 3229POPC   C1B42475  14.879   9.441   6.298
 3229POPC   C2B42476  14.763   9.397   6.739
 3229POPC   C3B42477  14.851   9.507   7.159
 3229POPC   C4B42478  14.759   9.389   7.599
 3230POPC   NC342479  16.934   5.030   5.230
 3230POPC   PO442480  16.318   4.816   5.414
 3230POPC   GL142481  16.681   4.948   5.690
 3230POPC   GL242482  16.990   5.204   5.707
 3230POPC   C1A42483  16.775   4.996   6.131
 3230POPC   D2A42484  16.893   4.751   6.485
 3230POPC   C3A42485  16.784   4.946   6.884
 3230POPC   C4A42486  16.600   4.717   7.231
 3230POPC   C1B42487  17.092   5.447   6.096
 3230POPC   C2B42488  17.048   5.293   6.515
 3230POPC   C3B42489  17.137   5.334   6.936
 3230POPC   C4B42490  16.865   5.330   7.297
 3231POPC   NC342491  31.568  37.925   5.261
 3231POPC   PO442492  31.456  37.287   5.346
 3231POPC   GL142493  31.536  37.545   5.718
 3231POPC   GL242494  31.544  37.930   5.783
 3231POPC   C1A42495  31.238  37.531   6.078
 3231POPC   D2A42496  31.325  37.456   6.526
 3231POPC   C3A42497  31.141  37.495   6.950
 3231POPC   C4A42498  31.445  37.659   7.234
 3231POPC   C1B42499  31.779  38.006   6.178
 3231POPC   C2B42500  31.768  37.813   6.586
 3231POPC   C3B42501  31.794  37.970   7.005
 3231POPC   C4B42502  31.697  38.293   7.309
 3232POPC   NC342503   9.716  44.936   5.354
 3232POPC   PO442504   9.428  44.306   5.470
 3232POPC   GL142505   9.645  44.614   5.774
 3232POPC   GL242506   9.477  44.953   5.846
 3232POPC   C1A42507   9.947  44.823   6.087
 3232POPC   D2A42508  10.148  44.971   6.512
 3232POPC   C3A42509   9.971  44.804   6.920
 3232POPC   C4A42510   9.711  44.925   7.278
 3232POPC   C1B42511   9.434  44.837   6.293
 3232POPC   C2B42512   9.281  44.729   6.733
 3232POPC   C3B42513   9.554  44.506   7.026
 3232POPC   C4B42514   9.932  44.263   7.135
 3233POPC   NC342515   0.046  19.367   5.562
 3233POPC   PO442516   0.343  18.770   5.253
 3233POPC   GL142517   0.455  19.021   5.691
 3233POPC   GL242518   0.171  19.046   5.952
 3233POPC   C1A42519   0.626  19.218   6.107
 3233POPC   D2A42520   0.423  19.091   6.480
 3233POPC   C3A42521   0.516  19.209   6.876
 3233POPC   C4A42522   0.579  19.087   7.281
 3233POPC   C1B42523  44.980  19.287   6.322
 3233POPC   C2B42524  44.978  19.285   6.779
 3233POPC   C3B42525   0.123  19.312   7.203
 3233POPC   C4B42526   0.255  19.471   7.610
 3234POPC   NC342527  41.466   1.672   5.514
 3234POPC   PO442528  41.775   2.299   5.494
 3234POPC   GL142529  41.643   2.046   5.831
 3234POPC   GL242530  41.820   1.771   5.909
 3234POPC   C1A42531  41.441   2.049   6.233
 3234POPC   D2A42532  41.532   1.915   6.626
 3234POPC   C3A42533  41.642   2.278   6.839
 3234POPC   C4A42534  41.601   2.394   7.255
 3234POPC   C1B42535  41.692   1.580   6.257
 3234POPC   C2B42536  41.866   1.521   6.631
 3234POPC   C3B42537  41.824   1.765   7.017
 3234POPC   C4B42538  41.509   1.744   7.333
 3235POPC   NC342539  14.857  21.689   5.316
 3235POPC   PO442540  15.398  21.290   5.547
 3235POPC   GL142541  15.168  21.386   5.926
 3235POPC   GL242542  15.004  21.690   5.812
 3235POPC   C1A42543  15.002  21.182   6.316
 3235POPC   D2A42544  14.802  21.277   6.722
 3235POPC   C3A42545  15.136  21.437   6.986
 3235POPC   C4A42546  15.525  21.310   7.203
 3235POPC   C1B42547  14.809  21.651   6.222
 3235POPC   C2B42548  14.911  21.778   6.638
 3235POPC   C3B42549  14.683  21.708   7.029
 3235POPC   C4B42550  14.718  21.800   7.462
 3236POPC   NC342551   2.269  23.420   5.356
 3236POPC   PO442552   2.035  22.841   5.424
 3236POPC   GL142553   1.836  22.930   5.819
 3236POPC   GL242554   2.090  23.142   5.879
 3236POPC   C1A42555   1.738  23.009   6.235
 3236POPC   D2A42556   1.891  22.856   6.603
 3236POPC   C3A42557   1.876  23.073   6.986
 3236POPC   C4A42558   1.675  23.276   7.334
 3236POPC   C1B42559   2.156  22.711   6.129
 3236POPC   C2B42560   2.363  22.622   6.514
 3236POPC   C3B42561   2.350  22.779   6.922
 3236POPC   C4B42562   2.152  22.835   7.322
 3237POPC   NC342563   4.551  30.573   5.573
 3237POPC   PO442564   3.949  30.749   5.497
 3237POPC   GL142565   4.183  30.730   5.890
 3237POPC   GL242566   4.125  30.362   5.857
 3237POPC   C1A42567   4.577  30.871   6.182
 3237POPC   D2A42568   4.783  30.911   6.622
 3237POPC   C3A42569   4.449  30.929   6.945
 3237POPC   C4A42570   4.078  30.880   7.188
 3237POPC   C1B42571   4.340  30.410   6.270
 3237POPC   C2B42572   4.441  30.457   6.724
 3237POPC   C3B42573   4.149  30.382   7.085
 3237POPC   C4B42574   4.160  30.485   7.524
 3238POPC   NC342575  19.984  40.284   5.480
 3238POPC   PO442576  20.137  40.902   5.480
 3238POPC   GL142577  19.917  41.010   5.880
 3238POPC   GL242578  19.546  41.059   5.883
 3238POPC   C1A42579  20.042  41.051   6.348
 3238POPC   D2A42580  19.826  41.069   6.771
 3238POPC   C3A42581  19.810  40.867   7.227
 3238POPC   C4A42582  19.925  40.850   7.710
 3238POPC   C1B42583  19.539  40.923   6.335
 3238POPC   C2B42584  19.444  40.718   6.746
 3238POPC   C3B42585  19.402  40.540   7.169
 3238POPC   C4B42586  19.443  40.724   7.580
 3239POPC   NC342587  17.796  36.366   5.439
 3239POPC   PO442588  17.299  35.872   5.410
 3239POPC   GL142589  17.474  36.131   5.782
 3239POPC   GL242590  17.487  36.497   5.813
 3239POPC   C1A42591  17.326  36.186   6.210
 3239POPC   D2A42592  17.311  35.838   6.512
 3239POPC   C3A42593  17.631  35.791   6.828
 3239POPC   C4A42594  17.406  35.828   7.203
 3239POPC   C1B42595  17.689  36.560   6.213
 3239POPC   C2B42596  17.618  36.371   6.593
 3239POPC   C3B42597  17.336  36.226   6.880
 3239POPC   C4B42598  17.396  36.386   7.259
 3240POPC   NC342599  37.864   7.497   5.645
 3240POPC   PO442600  38.442   7.552   5.299
 3240POPC   GL142601  38.423   7.291   5.670
 3240POPC   GL242602  38.448   7.591   5.857
 3240POPC   C1A42603  38.462   7.148   6.133
 3240POPC   D2A42604  38.514   7.335   6.575
 3240POPC   C3A42605  38.449   7.102   6.979
 3240POPC   C4A42606  38.536   7.142   7.441
 3240POPC   C1B42607  38.343   7.825   6.223
 3240POPC   C2B42608  38.183   7.746   6.617
 3240POPC   C3B42609  38.206   7.530   6.988
 3240POPC   C4B42610  38.269   7.612   7.393
 3241POPC   NC342611   7.896  14.200   5.567
 3241POPC   PO442612   8.424  14.563   5.438
 3241POPC   GL142613   8.225  14.500   5.824
 3241POPC   GL242614   7.882  14.617   5.852
 3241POPC   C1A42615   8.347  14.578   6.240
 3241POPC   D2A42616   8.328  14.396   6.634
 3241POPC   C3A42617   8.300  14.641   7.020
 3241POPC   C4A42618   8.018  14.402   7.312
 3241POPC   C1B42619   7.889  14.764   6.239
 3241POPC   C2B42620   8.035  14.836   6.623
 3241POPC   C3B42621   7.824  14.781   6.988
 3241POPC   C4B42622   7.929  14.912   7.397
 3242POPC   NC342623  17.989   8.175   5.452
 3242POPC   PO442624  17.963   7.581   5.604
 3242POPC   GL142625  18.102   7.931   5.920
 3242POPC   GL242626  18.008   8.300   5.948
 3242POPC   C1A42627  18.231   8.065   6.365
 3242POPC   D2A42628  18.041   8.020   6.787
 3242POPC   C3A42629  18.083   8.322   7.145
 3242POPC   C4A42630  18.077   8.413   7.599
 3242POPC   C1B42631  18.302   8.583   6.215
 3242POPC   C2B42632  18.597   8.580   6.601
 3242POPC   C3B42633  18.559   8.251   6.923
 3242POPC   C4B42634  18.494   8.118   7.365
 3243POPC   NC342635  39.902  15.755   5.421
 3243POPC   PO442636  39.703  16.356   5.425
 3243POPC   GL142637  39.946  16.077   5.787
 3243POPC   GL242638  40.199  15.747   5.834
 3243POPC   C1A42639  39.848  15.996   6.204
 3243POPC   D2A42640  39.825  15.859   6.634
 3243POPC   C3A42641  39.880  16.121   6.940
 3243POPC   C4A42642  39.866  16.325   7.302
 3243POPC   C1B42643  40.357  15.904   6.184
 3243POPC   C2B42644  40.473  15.781   6.563
 3243POPC   C3B42645  40.273  15.732   6.930
 3243POPC   C4B42646  40.032  15.749   7.270
 3244POPC   NC342647  24.227  17.370   5.427
 3244POPC   PO442648  23.706  17.743   5.737
 3244POPC   GL142649  24.097  17.564   5.904
 3244POPC   GL242650  24.168  17.213   5.891
 3244POPC   C1A42651  24.252  17.580   6.318
 3244POPC   D2A42652  24.121  17.549   6.764
 3244POPC   C3A42653  23.709  17.713   6.795
 3244POPC   C4A42654  23.493  17.796   7.179
 3244POPC   C1B42655  23.891  17.215   6.235
 3244POPC   C2B42656  23.894  17.099   6.667
 3244POPC   C3B42657  23.764  17.275   7.068
 3244POPC   C4B42658  23.524  17.303   7.455
 3245POPC   NC342659   2.357   0.265   5.522
 3245POPC   PO442660   1.724   0.568   5.449
 3245POPC   GL142661   1.950   0.454   5.806
 3245POPC   GL242662   2.149   0.712   5.968
 3245POPC   C1A42663   2.058   0.247   6.183
 3245POPC   D2A42664   2.072   0.349   6.638
 3245POPC   C3A42665   1.776   0.326   6.963
 3245POPC   C4A42666   1.753   0.590   7.324
 3245POPC   C1B42667   2.424   0.575   6.297
 3245POPC   C2B42668   2.450   0.670   6.731
 3245POPC   C3B42669   2.220   0.594   7.101
 3245POPC   C4B42670   2.317   0.565   7.536
 3246POPC   NC342671  40.919  32.721   5.494
 3246POPC   PO442672  40.367  33.076   5.387
 3246POPC   GL142673  40.601  33.125   5.786
 3246POPC   GL242674  40.908  32.986   5.943
 3246POPC   C1A42675  40.529  33.150   6.252
 3246POPC   D2A42676  40.699  33.031   6.688
 3246POPC   C3A42677  40.459  33.212   7.013
 3246POPC   C4A42678  40.558  33.328   7.424
 3246POPC   C1B42679  41.122  32.644   6.175
 3246POPC   C2B42680  41.179  32.446   6.582
 3246POPC   C3B42681  41.113  32.665   6.969
 3246POPC   C4B42682  40.928  33.021   7.189
 3247POPC   NC342683  32.434  33.189   5.452
 3247POPC   PO442684  32.028  32.648   5.581
 3247POPC   GL142685  32.215  32.947   5.839
 3247POPC   GL242686  32.020  33.253   5.799
 3247POPC   C1A42687  32.426  32.924   6.230
 3247POPC   D2A42688  32.633  32.876   6.617
 3247POPC   C3A42689  32.399  32.938   6.948
 3247POPC   C4A42690  32.137  32.798   7.252
 3247POPC   C1B42691  32.244  33.425   6.145
 3247POPC   C2B42692  32.392  33.349   6.550
 3247POPC   C3B42693  32.216  33.410   6.967
 3247POPC   C4B42694  31.994  33.304   7.340
 3248POPC   NC342695  23.379  44.718   5.215
 3248POPC   PO442696  24.038  44.654   5.254
 3248POPC   GL142697  23.810  44.582   5.639
 3248POPC   GL242698  23.871  44.887   5.794
 3248POPC   C1A42699  23.840  44.451   6.101
 3248POPC   D2A42700  23.849  44.584   6.556
 3248POPC   C3A42701  23.809  44.332   6.945
 3248POPC   C4A42702  23.690  44.434   7.354
 3248POPC   C1B42703  24.026   0.144   6.130
 3248POPC   C2B42704  23.972   0.236   6.535
 3248POPC   C3B42705  23.772   0.060   6.869
 3248POPC   C4B42706  23.705  44.954   7.292
 3249POPC   NC342707  39.358  35.680   5.479
 3249POPC   PO442708  39.544  35.029   5.542
 3249POPC   GL142709  39.452  35.372   5.869
 3249POPC   GL242710  39.085  35.453   5.856
 3249POPC   C1A42711  39.460  35.562   6.305
 3249POPC   D2A42712  39.412  35.265   6.677
 3249POPC   C3A42713  39.226  35.282   7.100
 3249POPC   C4A42714  39.471  35.257   7.481
 3249POPC   C1B42715  39.026  35.294   6.296
 3249POPC   C2B42716  39.011  35.608   6.632
 3249POPC   C3B42717  38.695  35.700   6.928
 3249POPC   C4B42718  38.824  35.772   7.326
 3250POPC   NC342719  28.179  35.140   5.572
 3250POPC   PO442720  28.874  35.296   5.584
 3250POPC   GL142721  28.562  35.334   5.886
 3250POPC   GL242722  28.385  35.636   5.822
 3250POPC   C1A42723  28.377  35.178   6.268
 3250POPC   D2A42724  28.433  35.019   6.674
 3250POPC   C3A42725  28.255  35.236   7.016
 3250POPC   C4A42726  28.103  35.325   7.418
 3250POPC   C1B42727  28.552  35.740   6.211
 3250POPC   C2B42728  28.397  35.595   6.595
 3250POPC   C3B42729  28.344  35.766   6.959
 3250POPC   C4B42730  28.523  35.593   7.261
 3251POPC   NC342731  37.468  28.825   5.414
 3251POPC   PO442732  37.808  29.407   5.321
 3251POPC   GL142733  37.682  29.177   5.723
 3251POPC   GL242734  37.851  28.838   5.778
 3251POPC   C1A42735  37.463  29.011   6.108
 3251POPC   D2A42736  37.359  28.799   6.518
 3251POPC   C3A42737  37.501  28.816   6.968
 3251POPC   C4A42738  37.594  29.125   7.319
 3251POPC   C1B42739  37.959  29.020   6.211
 3251POPC   C2B42740  37.798  29.081   6.653
 3251POPC   C3B42741  38.002  28.922   7.064
 3251POPC   C4B42742  38.049  28.927   7.544
 3252POPC   NC342743  13.533  41.809   5.337
 3252POPC   PO442744  13.159  41.253   5.512
 3252POPC   GL142745  13.402  41.564   5.755
 3252POPC   GL242746  13.804  41.566   5.708
 3252POPC   C1A42747  13.484  41.602   6.154
 3252POPC   D2A42748  13.280  41.516   6.536
 3252POPC   C3A42749  13.473  41.686   6.894
 3252POPC   C4A42750  13.365  41.585   7.306
 3252POPC   C1B42751  13.982  41.519   6.124
 3252POPC   C2B42752  13.846  41.659   6.519
 3252POPC   C3B42753  13.946  41.521   6.922
 3252POPC   C4B42754  13.821  41.805   7.265
 3253POPC   NC342755  32.057  35.626   5.766
 3253POPC   PO442756  32.276  36.169   5.432
 3253POPC   GL142757  32.461  36.122   5.809
 3253POPC   GL242758  32.526  35.806   5.886
 3253POPC   C1A42759  32.515  36.355   6.135
 3253POPC   D2A42760  32.280  36.437   6.473
 3253POPC   C3A42761  32.392  36.207   6.809
 3253POPC   C4A42762  32.404  36.217   7.238
 3253POPC   C1B42763  32.351  35.899   6.296
 3253POPC   C2B42764  32.409  35.706   6.672
 3253POPC   C3B42765  32.132  35.791   6.996
 3253POPC   C4B42766  32.093  35.860   7.438
 3254POPC   NC342767  10.165  20.140   5.570
 3254POPC   PO442768   9.602  19.681   5.426
 3254POPC   GL142769   9.658  19.797   5.865
 3254POPC   GL242770   9.493  19.519   5.929
 3254POPC   C1A42771   9.622  19.931   6.345
 3254POPC   D2A42772   9.847  20.161   6.698
 3254POPC   C3A42773   9.954  19.939   7.100
 3254POPC   C4A42774  10.387  19.830   7.332
 3254POPC   C1B42775   9.736  19.439   6.294
 3254POPC   C2B42776   9.879  19.601   6.695
 3254POPC   C3B42777   9.852  19.421   7.108
 3254POPC   C4B42778   9.541  19.410   7.405
 3255POPC   NC342779   8.773  24.999   5.423
 3255POPC   PO442780   9.272  25.487   5.408
 3255POPC   GL142781   9.145  25.202   5.726
 3255POPC   GL242782   9.350  24.887   5.703
 3255POPC   C1A42783   8.879  25.341   6.105
 3255POPC   D2A42784   8.877  25.631   6.482
 3255POPC   C3A42785   8.802  25.378   6.861
 3255POPC   C4A42786   8.820  25.302   7.307
 3255POPC   C1B42787   9.346  24.972   6.153
 3255POPC   C2B42788   9.080  25.080   6.524
 3255POPC   C3B42789   9.118  24.975   6.979
 3255POPC   C4B42790   9.281  25.027   7.397
 3256POPC   NC342791  23.533  40.331   5.468
 3256POPC   PO442792  23.506  39.654   5.504
 3256POPC   GL142793  23.720  39.775   5.909
 3256POPC   GL242794  23.782  40.092   5.908
 3256POPC   C1A42795  23.681  39.922   6.385
 3256POPC   D2A42796  23.391  39.815   6.728
 3256POPC   C3A42797  23.591  39.822   7.142
 3256POPC   C4A42798  24.010  40.044   7.207
 3256POPC   C1B42799  23.381  40.185   6.085
 3256POPC   C2B42800  23.293  40.273   6.501
 3256POPC   C3B42801  23.579  40.298   6.849
 3256POPC   C4B42802  23.559  40.341   7.281
 3257POPC   NC342803  20.391  23.433   5.591
 3257POPC   PO442804  20.671  22.849   5.146
 3257POPC   GL142805  20.686  22.675   5.705
 3257POPC   GL242806  20.695  23.050   5.879
 3257POPC   C1A42807  20.615  22.635   6.165
 3257POPC   D2A42808  20.687  23.008   6.476
 3257POPC   C3A42809  20.751  22.886   6.909
 3257POPC   C4A42810  20.685  23.056   7.301
 3257POPC   C1B42811  20.292  23.033   6.148
 3257POPC   C2B42812  20.170  22.983   6.568
 3257POPC   C3B42813  20.360  23.240   6.861
 3257POPC   C4B42814  20.207  23.256   7.252
 3258POPC   NC342815  15.902  40.925   5.615
 3258POPC   PO442816  16.142  41.443   5.309
 3258POPC   GL142817  15.997  41.555   5.744
 3258POPC   GL242818  15.699  41.360   5.830
 3258POPC   C1A42819  16.102  41.762   6.188
 3258POPC   D2A42820  15.922  41.899   6.634
 3258POPC   C3A42821  16.089  41.756   7.074
 3258POPC   C4A42822  16.058  41.317   7.237
 3258POPC   C1B42823  15.585  41.613   6.182
 3258POPC   C2B42824  15.431  41.629   6.604
 3258POPC   C3B42825  15.596  41.655   7.025
 3258POPC   C4B42826  15.668  41.678   7.479
 3259POPC   NC342827  24.189  41.735   5.480
 3259POPC   PO442828  24.818  41.498   5.352
 3259POPC   GL142829  24.814  41.596   5.827
 3259POPC   GL242830  24.470  41.556   5.869
 3259POPC   C1A42831  24.707  41.794   6.262
 3259POPC   D2A42832  24.574  41.599   6.648
 3259POPC   C3A42833  24.627  41.710   7.081
 3259POPC   C4A42834  24.760  41.443   7.416
 3259POPC   C1B42835  24.222  41.361   6.130
 3259POPC   C2B42836  24.138  41.380   6.557
 3259POPC   C3B42837  24.041  41.389   6.985
 3259POPC   C4B42838  24.237  41.537   7.345
 3260POPC   NC342839   8.905  44.455   5.465
 3260POPC   PO442840   9.226   0.073   5.407
 3260POPC   GL142841   8.945  44.878   5.766
 3260POPC   GL242842   9.126  44.592   5.895
 3260POPC   C1A42843   8.748  44.766   6.204
 3260POPC   D2A42844   8.795  44.526   6.601
 3260POPC   C3A42845   8.812  44.708   7.026
 3260POPC   C4A42846   9.190  44.762   7.283
 3260POPC   C1B42847   9.171  44.396   6.272
 3260POPC   C2B42848   9.180  44.186   6.665
 3260POPC   C3B42849   9.106  44.285   7.110
 3260POPC   C4B42850   9.147  44.191   7.585
 3261POPC   NC342851  34.715  21.736   5.244
 3261POPC   PO442852  34.388  22.377   5.353
 3261POPC   GL142853  34.621  22.183   5.767
 3261POPC   GL242854  34.954  22.362   5.845
 3261POPC   C1A42855  34.456  22.026   6.225
 3261POPC   D2A42856  34.298  22.196   6.650
 3261POPC   C3A42857  34.424  22.041   7.071
 3261POPC   C4A42858  34.280  21.934   7.521
 3261POPC   C1B42859  34.968  22.130   6.217
 3261POPC   C2B42860  34.821  22.057   6.631
 3261POPC   C3B42861  34.931  21.890   7.024
 3261POPC   C4B42862  34.793  21.908   7.464
 3262POPC   NC342863  37.516  22.832   5.473
 3262POPC   PO442864  38.146  22.787   5.527
 3262POPC   GL142865  37.781  22.719   5.885
 3262POPC   GL242866  37.535  23.011   5.967
 3262POPC   C1A42867  37.503  22.590   6.256
 3262POPC   D2A42868  37.648  22.634   6.681
 3262POPC   C3A42869  37.511  22.906   7.040
 3262POPC   C4A42870  37.563  22.932   7.524
 3262POPC   C1B42871  37.851  22.970   6.329
 3262POPC   C2B42872  37.915  23.080   6.771
 3262POPC   C3B42873  37.965  23.021   7.231
 3262POPC   C4B42874  38.054  23.297   7.587
 3263POPC   NC342875  34.072  37.275   5.446
 3263POPC   PO442876  33.574  36.831   5.453
 3263POPC   GL142877  33.775  36.906   5.830
 3263POPC   GL242878  33.683  37.202   5.797
 3263POPC   C1A42879  33.804  36.699   6.257
 3263POPC   D2A42880  33.769  36.637   6.703
 3263POPC   C3A42881  33.640  36.988   6.938
 3263POPC   C4A42882  33.382  37.033   7.297
 3263POPC   C1B42883  33.739  37.240   6.245
 3263POPC   C2B42884  34.028  37.095   6.580
 3263POPC   C3B42885  34.123  37.150   7.027
 3263POPC   C4B42886  33.907  37.013   7.379
 3264POPC   NC342887   7.991  24.569   5.166
 3264POPC   PO442888   8.191  24.082   5.586
 3264POPC   GL142889   8.106  24.481   5.803
 3264POPC   GL242890   7.980  24.814   5.659
 3264POPC   C1A42891   8.193  24.459   6.245
 3264POPC   D2A42892   8.327  24.103   6.531
 3264POPC   C3A42893   8.427  24.261   6.936
 3264POPC   C4A42894   8.157  24.367   7.260
 3264POPC   C1B42895   7.874  24.937   6.106
 3264POPC   C2B42896   8.016  24.953   6.555
 3264POPC   C3B42897   7.965  24.797   7.013
 3264POPC   C4B42898   7.980  24.833   7.483
 3265POPC   NC342899  28.257  30.700   5.144
 3265POPC   PO442900  28.822  30.349   5.436
 3265POPC   GL142901  28.752  30.555   5.824
 3265POPC   GL242902  28.394  30.652   5.764
 3265POPC   C1A42903  28.586  30.640   6.254
 3265POPC   D2A42904  28.584  30.908   6.623
 3265POPC   C3A42905  28.687  30.734   7.027
 3265POPC   C4A42906  28.468  30.610   7.369
 3265POPC   C1B42907  28.085  30.675   6.133
 3265POPC   C2B42908  28.167  30.579   6.568
 3265POPC   C3B42909  28.168  30.803   6.994
 3265POPC   C4B42910  28.043  30.916   7.432
 3266POPC   NC342911   5.433   0.273   5.564
 3266POPC   PO442912   4.950  44.900   5.370
 3266POPC   GL142913   4.940   0.182   5.784
 3266POPC   GL242914   5.080   0.563   5.861
 3266POPC   C1A42915   5.092   0.225   6.221
 3266POPC   D2A42916   5.042   0.473   6.587
 3266POPC   C3A42917   5.163   0.254   6.980
 3266POPC   C4A42918   5.054   0.344   7.412
 3266POPC   C1B42919   5.407   0.636   6.239
 3266POPC   C2B42920   5.537   0.508   6.692
 3266POPC   C3B42921   5.376   0.698   7.097
 3266POPC   C4B42922   5.345   0.773   7.588
 3267POPC   NC342923  36.013  30.920   5.328
 3267POPC   PO442924  36.301  30.304   5.436
 3267POPC   GL142925  36.118  30.604   5.751
 3267POPC   GL242926  35.772  30.706   5.871
 3267POPC   C1A42927  36.140  30.555   6.211
 3267POPC   D2A42928  36.340  30.583   6.626
 3267POPC   C3A42929  36.307  30.930   6.902
 3267POPC   C4A42930  36.157  30.747   7.268
 3267POPC   C1B42931  35.678  30.710   6.351
 3267POPC   C2B42932  35.834  30.736   6.823
 3267POPC   C3B42933  35.654  30.725   7.262
 3267POPC   C4B42934  35.663  30.615   7.715
 3268POPC   NC342935  43.792   7.695   5.436
 3268POPC   PO442936  43.582   7.117   5.627
 3268POPC   GL142937  43.574   7.499   5.853
 3268POPC   GL242938  43.943   7.571   5.920
 3268POPC   C1A42939  43.565   7.477   6.279
 3268POPC   D2A42940  43.419   7.229   6.600
 3268POPC   C3A42941  43.623   7.386   6.940
 3268POPC   C4A42942  43.661   7.490   7.362
 3268POPC   C1B42943  44.247   7.659   6.275
 3268POPC   C2B42944  44.348   7.453   6.703
 3268POPC   C3B42945  44.129   7.356   7.111
 3268POPC   C4B42946  44.377   7.268   7.490
 3269POPC   NC342947   1.675  43.311   5.332
 3269POPC   PO442948   2.322  42.991   5.390
 3269POPC   GL142949   2.123  43.109   5.767
 3269POPC   GL242950   1.758  43.013   5.745
 3269POPC   C1A42951   2.205  43.444   6.080
 3269POPC   D2A42952   2.003  43.549   6.460
 3269POPC   C3A42953   1.995  43.289   6.839
 3269POPC   C4A42954   2.376  43.248   7.168
 3269POPC   C1B42955   1.806  43.122   6.182
 3269POPC   C2B42956   1.922  42.873   6.495
 3269POPC   C3B42957   1.955  42.740   6.922
 3269POPC   C4B42958   1.967  42.975   7.286
 3270POPC   NC342959   7.686  18.826   5.430
 3270POPC   PO442960   7.267  19.316   5.587
 3270POPC   GL142961   7.597  19.160   5.829
 3270POPC   GL242962   7.386  18.876   5.852
 3270POPC   C1A42963   7.829  19.136   6.255
 3270POPC   D2A42964   7.632  19.058   6.683
 3270POPC   C3A42965   7.667  18.997   7.114
 3270POPC   C4A42966   7.810  19.163   7.484
 3270POPC   C1B42967   7.342  19.040   6.263
 3270POPC   C2B42968   7.255  18.744   6.559
 3270POPC   C3B42969   7.160  18.639   6.965
 3270POPC   C4B42970   7.190  18.896   7.299
 3271POPC   NC342971  37.915   9.950   5.520
 3271POPC   PO442972  37.286   9.682   5.335
 3271POPC   GL142973  37.508   9.710   5.724
 3271POPC   GL242974  37.276   9.539   5.939
 3271POPC   C1A42975  37.738   9.742   6.121
 3271POPC   D2A42976  37.577   9.660   6.531
 3271POPC   C3A42977  37.848   9.606   6.890
 3271POPC   C4A42978  37.978   9.897   7.232
 3271POPC   C1B42979  37.258   9.261   6.296
 3271POPC   C2B42980  37.123   9.424   6.678
 3271POPC   C3B42981  37.212   9.830   6.844
 3271POPC   C4B42982  37.531  10.118   7.060
 3272POPC   NC342983  36.385   9.969   5.383
 3272POPC   PO442984  35.953  10.598   5.187
 3272POPC   GL142985  36.201  10.556   5.633
 3272POPC   GL242986  36.330  10.245   5.838
 3272POPC   C1A42987  36.024  10.575   6.067
 3272POPC   D2A42988  36.169  10.662   6.473
 3272POPC   C3A42989  36.069  10.706   6.893
 3272POPC   C4A42990  35.976  10.522   7.294
 3272POPC   C1B42991  36.234  10.166   6.291
 3272POPC   C2B42992  36.119  10.220   6.740
 3272POPC   C3B42993  36.256  10.127   7.164
 3272POPC   C4B42994  36.064  10.037   7.584
 3273POPC   NC342995  14.938  44.536   5.437
 3273POPC   PO442996  15.256   0.110   5.642
 3273POPC   GL142997  15.204  44.786   5.905
 3273POPC   GL242998  15.378  44.523   5.733
 3273POPC   C1A42999  14.977  44.492   6.160
 3273POPC   D2A43000  14.955  44.214   6.527
 3273POPC   C3A43001  14.930  44.505   6.874
 3273POPC   C4A43002  15.117  44.716   7.225
 3273POPC   C1B43003  15.528  44.470   6.155
 3273POPC   C2B43004  15.345  44.580   6.538
 3273POPC   C3B43005  15.510  44.568   6.935
 3273POPC   C4B43006  15.480  44.338   7.323
 3274POPC   NC343007  37.165   5.713   5.362
 3274POPC   PO443008  36.788   6.149   5.115
 3274POPC   GL143009  36.792   6.152   5.609
 3274POPC   GL243010  36.842   5.817   5.748
 3274POPC   C1A43011  36.943   6.229   6.065
 3274POPC   D2A43012  36.796   6.415   6.465
 3274POPC   C3A43013  36.790   6.313   6.921
 3274POPC   C4A43014  36.831   6.008   7.262
 3274POPC   C1B43015  36.774   5.647   6.174
 3274POPC   C2B43016  36.906   5.823   6.606
 3274POPC   C3B43017  37.007   5.603   6.990
 3274POPC   C4B43018  36.740   5.314   7.215
 3275POPC   NC343019  24.879  39.400   5.581
 3275POPC   PO443020  24.324  39.030   5.292
 3275POPC   GL143021  24.232  39.084   5.765
 3275POPC   GL243022  24.581  39.136   5.912
 3275POPC   C1A43023  24.203  39.351   6.161
 3275POPC   D2A43024  24.466  39.148   6.459
 3275POPC   C3A43025  24.484  39.246   6.897
 3275POPC   C4A43026  24.325  38.904   7.126
 3275POPC   C1B43027  24.798  39.433   6.219
 3275POPC   C2B43028  24.949  39.400   6.663
 3275POPC   C3B43029  24.844  39.613   7.066
 3275POPC   C4B43030  24.806  39.476   7.509
 3276POPC   NC343031  26.386  35.609   5.642
 3276POPC   PO443032  26.929  35.566   5.233
 3276POPC   GL143033  26.928  35.619   5.738
 3276POPC   GL243034  27.172  35.874   5.845
 3276POPC   C1A43035  26.736  35.572   6.207
 3276POPC   D2A43036  26.615  35.355   6.642
 3276POPC   C3A43037  26.676  35.454   7.114
 3276POPC   C4A43038  26.828  35.116   7.437
 3276POPC   C1B43039  27.231  35.611   6.215
 3276POPC   C2B43040  27.120  35.550   6.624
 3276POPC   C3B43041  27.338  35.470   6.980
 3276POPC   C4B43042  27.143  35.513   7.326
 3277POPC   NC343043  11.162  27.423   5.182
 3277POPC   PO443044  11.698  27.790   5.459
 3277POPC   GL143045  11.536  27.643   5.847
 3277POPC   GL243046  11.170  27.544   5.777
 3277POPC   C1A43047  11.349  27.623   6.245
 3277POPC   D2A43048  11.285  27.383   6.581
 3277POPC   C3A43049  11.523  27.431   6.911
 3277POPC   C4A43050  11.439  27.568   7.315
 3277POPC   C1B43051  10.899  27.783   6.102
 3277POPC   C2B43052  10.931  27.764   6.560
 3277POPC   C3B43053  11.032  27.604   6.970
 3277POPC   C4B43054  10.933  27.756   7.354
 3278POPC   NC343055  19.905  30.127   5.587
 3278POPC   PO443056  19.762  29.505   5.485
 3278POPC   GL143057  19.904  29.672   5.855
 3278POPC   GL243058  19.584  29.798   5.879
 3278POPC   C1A43059  20.030  29.934   6.223
 3278POPC   D2A43060  20.233  30.144   6.587
 3278POPC   C3A43061  20.043  30.046   6.966
 3278POPC   C4A43062  20.024  29.904   7.322
 3278POPC   C1B43063  19.527  29.941   6.284
 3278POPC   C2B43064  19.690  29.877   6.671
 3278POPC   C3B43065  19.557  29.921   7.111
 3278POPC   C4B43066  19.570  29.693   7.498
 3279POPC   NC343067  11.478  37.720   5.514
 3279POPC   PO443068  10.878  37.503   5.295
 3279POPC   GL143069  11.044  37.509   5.703
 3279POPC   GL243070  11.002  37.874   5.728
 3279POPC   C1A43071  11.234  37.541   6.137
 3279POPC   D2A43072  11.027  37.540   6.556
 3279POPC   C3A43073  11.227  37.607   6.971
 3279POPC   C4A43074  11.379  37.556   7.438
 3279POPC   C1B43075  10.831  37.863   6.163
 3279POPC   C2B43076  10.898  38.077   6.560
 3279POPC   C3B43077  10.876  38.016   6.995
 3279POPC   C4B43078  10.880  37.733   7.333
 3280POPC   NC343079  27.456   1.590   5.295
 3280POPC   PO443080  27.890   2.163   5.344
 3280POPC   GL143081  27.686   2.108   5.720
 3280POPC   GL243082  27.745   1.781   5.763
 3280POPC   C1A43083  27.572   2.178   6.150
 3280POPC   D2A43084  27.703   1.968   6.530
 3280POPC   C3A43085  27.610   2.119   6.964
 3280POPC   C4A43086  27.828   2.092   7.337
 3280POPC   C1B43087  27.453   1.688   6.088
 3280POPC   C2B43088  27.381   1.549   6.498
 3280POPC   C3B43089  27.624   1.575   6.866
 3280POPC   C4B43090  27.342   1.574   7.181
 3281POPC   NC343091  35.569   1.126   5.699
 3281POPC   PO443092  35.058   1.507   5.481
 3281POPC   GL143093  35.138   1.339   5.865
 3281POPC   GL243094  35.076   0.978   5.812
 3281POPC   C1A43095  35.400   1.400   6.247
 3281POPC   D2A43096  35.516   1.566   6.633
 3281POPC   C3A43097  35.297   1.321   6.918
 3281POPC   C4A43098  35.542   1.052   7.154
 3281POPC   C1B43099  35.214   0.918   6.240
 3281POPC   C2B43100  35.319   0.871   6.662
 3281POPC   C3B43101  35.109   0.751   7.014
 3281POPC   C4B43102  35.269   0.756   7.450
 3282POPC   NC343103  26.513  16.632   5.616
 3282POPC   PO443104  26.977  17.016   5.411
 3282POPC   GL143105  27.009  16.782   5.802
 3282POPC   GL243106  26.754  16.599   6.043
 3282POPC   C1A43107  27.131  16.864   6.226
 3282POPC   D2A43108  26.838  16.745   6.537
 3282POPC   C3A43109  26.972  16.785   6.929
 3282POPC   C4A43110  26.779  16.892   7.291
 3282POPC   C1B43111  26.546  16.347   6.349
 3282POPC   C2B43112  26.270  16.492   6.666
 3282POPC   C3B43113  26.446  16.602   7.032
 3282POPC   C4B43114  26.398  16.288   7.325
 3283POPC   NC343115   6.182  30.255   5.537
 3283POPC   PO443116   5.823  29.735   5.145
 3283POPC   GL143117   5.840  29.828   5.673
 3283POPC   GL243118   5.852  30.102   5.912
 3283POPC   C1A43119   5.970  29.658   6.141
 3283POPC   D2A43120   6.141  29.760   6.599
 3283POPC   C3A43121   5.949  29.739   7.036
 3283POPC   C4A43122   5.805  29.443   7.388
 3283POPC   C1B43123   5.533  30.246   6.213
 3283POPC   C2B43124   5.440  30.200   6.664
 3283POPC   C3B43125   5.455  30.386   7.071
 3283POPC   C4B43126   5.754  30.309   7.402
 3284POPC   NC343127   9.575  32.808   5.180
 3284POPC   PO443128   9.807  33.407   5.464
 3284POPC   GL143129   9.606  33.059   5.718
 3284POPC   GL243130   9.866  32.809   5.772
 3284POPC   C1A43131   9.580  32.903   6.188
 3284POPC   D2A43132   9.745  32.784   6.628
 3284POPC   C3A43133   9.552  33.028   6.999
 3284POPC   C4A43134   9.689  33.189   7.421
 3284POPC   C1B43135  10.117  32.854   6.183
 3284POPC   C2B43136  10.238  33.069   6.581
 3284POPC   C3B43137  10.081  33.003   7.008
 3284POPC   C4B43138  10.196  32.730   7.338
 3285POPC   NC343139  25.485  36.715   5.060
 3285POPC   PO443140  25.316  36.524   5.672
 3285POPC   GL143141  25.505  36.304   5.962
 3285POPC   GL243142  25.305  36.006   5.881
 3285POPC   C1A43143  25.538  36.368   6.396
 3285POPC   D2A43144  25.386  36.112   6.697
 3285POPC   C3A43145  25.413  36.246   7.097
 3285POPC   C4A43146  25.464  35.873   7.356
 3285POPC   C1B43147  25.102  36.153   6.241
 3285POPC   C2B43148  24.889  36.002   6.558
 3285POPC   C3B43149  24.898  36.202   6.920
 3285POPC   C4B43150  24.995  36.037   7.288
 3286POPC   NC343151  40.297  29.191   5.554
 3286POPC   PO443152  40.976  29.363   5.619
 3286POPC   GL143153  40.798  29.040   5.865
 3286POPC   GL243154  40.576  28.763   5.782
 3286POPC   C1A43155  40.845  29.137   6.260
 3286POPC   D2A43156  41.100  29.268   6.542
 3286POPC   C3A43157  40.890  29.367   6.856
 3286POPC   C4A43158  40.846  29.312   7.261
 3286POPC   C1B43159  40.403  28.880   6.216
 3286POPC   C2B43160  40.588  28.972   6.661
 3286POPC   C3B43161  40.683  28.862   7.078
 3286POPC   C4B43162  40.447  28.832   7.470
 3287POPC   NC343163  10.616  42.712   5.528
 3287POPC   PO443164  10.236  42.186   5.486
 3287POPC   GL143165  10.622  42.057   5.733
 3287POPC   GL243166  10.877  42.327   5.765
 3287POPC   C1A43167  10.679  42.128   6.179
 3287POPC   D2A43168  10.501  42.320   6.541
 3287POPC   C3A43169  10.594  42.182   6.937
 3287POPC   C4A43170  10.397  42.414   7.211
 3287POPC   C1B43171  10.953  42.643   6.129
 3287POPC   C2B43172  10.798  42.729   6.552
 3287POPC   C3B43173  10.791  42.662   6.985
 3287POPC   C4B43174  10.934  42.614   7.404
 3288POPC   NC343175   3.316  36.686   5.355
 3288POPC   PO443176   3.789  37.219   5.457
 3288POPC   GL143177   3.596  36.956   5.776
 3288POPC   GL243178   3.222  36.957   5.813
 3288POPC   C1A43179   3.735  36.816   6.188
 3288POPC   D2A43180   3.814  37.046   6.591
 3288POPC   C3A43181   3.788  36.866   7.010
 3288POPC   C4A43182   3.853  36.908   7.454
 3288POPC   C1B43183   2.969  37.066   6.210
 3288POPC   C2B43184   3.002  36.983   6.684
 3288POPC   C3B43185   3.270  36.907   7.083
 3288POPC   C4B43186   3.452  36.617   7.391
 3289POPC   NC343187  12.250  12.769   5.418
 3289POPC   PO443188  11.898  13.279   5.179
 3289POPC   GL143189  11.916  13.158   5.675
 3289POPC   GL243190  11.983  12.812   5.858
 3289POPC   C1A43191  12.099  13.213   6.145
 3289POPC   D2A43192  12.175  12.958   6.557
 3289POPC   C3A43193  12.164  13.137   6.990
 3289POPC   C4A43194  12.049  12.998   7.394
 3289POPC   C1B43195  11.781  12.515   6.170
 3289POPC   C2B43196  11.953  12.434   6.590
 3289POPC   C3B43197  11.962  12.651   6.979
 3289POPC   C4B43198  11.756  12.593   7.364
 3290POPC   NC343199   9.854   3.038   4.988
 3290POPC   PO443200   9.806   2.461   5.187
 3290POPC   GL143201  10.021   2.767   5.612
 3290POPC   GL243202   9.745   2.783   5.926
 3290POPC   C1A43203  10.196   2.987   6.011
 3290POPC   D2A43204  10.111   3.065   6.462
 3290POPC   C3A43205   9.907   2.798   6.778
 3290POPC   C4A43206  10.054   2.814   7.218
 3290POPC   C1B43207   9.722   2.548   6.336
 3290POPC   C2B43208   9.660   2.341   6.754
 3290POPC   C3B43209   9.635   2.529   7.155
 3290POPC   C4B43210   9.558   2.972   7.125
 3291POPC   NC343211   9.423  27.533   5.366
 3291POPC   PO443212  10.047  27.858   5.449
 3291POPC   GL143213   9.863  27.687   5.832
 3291POPC   GL243214   9.725  27.338   5.772
 3291POPC   C1A43215   9.917  27.779   6.285
 3291POPC   D2A43216  10.104  27.868   6.704
 3291POPC   C3A43217   9.844  27.845   7.104
 3291POPC   C4A43218   9.516  28.024   7.421
 3291POPC   C1B43219  10.041  27.296   6.131
 3291POPC   C2B43220   9.981  27.319   6.567
 3291POPC   C3B43221  10.196  27.211   6.925
 3291POPC   C4B43222  10.054  27.406   7.256
 3292POPC   NC343223  37.807  15.521   5.411
 3292POPC   PO443224  37.515  14.993   5.156
 3292POPC   GL143225  37.569  15.111   5.602
 3292POPC   GL243226  37.418  14.849   5.736
 3292POPC   C1A43227  37.566  15.276   6.049
 3292POPC   D2A43228  37.435  15.424   6.466
 3292POPC   C3A43229  37.715  15.287   6.790
 3292POPC   C4A43230  37.564  15.218   7.197
 3292POPC   C1B43231  37.829  14.846   5.960
 3292POPC   C2B43232  37.797  14.915   6.397
 3292POPC   C3B43233  37.690  14.747   6.804
 3292POPC   C4B43234  37.759  14.721   7.250
 3293POPC   NC343235  37.757   3.090   5.366
 3293POPC   PO443236  37.695   2.441   5.291
 3293POPC   GL143237  37.913   2.611   5.663
 3293POPC   GL243238  37.684   2.435   5.887
 3293POPC   C1A43239  37.865   2.879   6.063
 3293POPC   D2A43240  37.578   2.768   6.412
 3293POPC   C3A43241  37.731   2.830   6.853
 3293POPC   C4A43242  37.710   2.546   7.214
 3293POPC   C1B43243  37.285   2.443   6.097
 3293POPC   C2B43244  37.160   2.328   6.503
 3293POPC   C3B43245  37.330   2.501   6.830
 3293POPC   C4B43246  37.205   2.583   7.204
 3294POPC   NC343247  43.934  33.181   4.922
 3294POPC   PO443248  43.626  32.877   5.418
 3294POPC   GL143249  43.592  33.013   5.821
 3294POPC   GL243250  43.938  33.085   5.856
 3294POPC   C1A43251  43.644  32.928   6.248
 3294POPC   D2A43252  43.464  32.967   6.629
 3294POPC   C3A43253  43.687  32.878   6.997
 3294POPC   C4A43254  44.028  32.981   7.243
 3294POPC   C1B43255  44.120  33.115   6.295
 3294POPC   C2B43256  44.085  33.126   6.755
 3294POPC   C3B43257  44.254  33.404   7.091
 3294POPC   C4B43258  44.440  33.453   7.519
 3295POPC   NC343259   7.441  13.446   5.237
 3295POPC   PO443260   7.143  13.864   5.667
 3295POPC   GL143261   7.455  13.670   5.929
 3295POPC   GL243262   7.731  13.937   5.986
 3295POPC   C1A43263   7.379  13.340   6.258
 3295POPC   D2A43264   7.115  13.227   6.621
 3295POPC   C3A43265   7.227  13.456   7.005
 3295POPC   C4A43266   7.620  13.531   7.228
 3295POPC   C1B43267   7.826  13.584   6.283
 3295POPC   C2B43268   7.650  13.564   6.680
 3295POPC   C3B43269   7.769  13.910   6.931
 3295POPC   C4B43270   7.630  14.046   7.326
 3296POPC   NC343271  16.000   0.966   5.241
 3296POPC   PO443272  16.191   0.381   5.513
 3296POPC   GL143273  15.967   0.602   5.804
 3296POPC   GL243274  16.259   0.541   6.017
 3296POPC   C1A43275  15.791   0.741   6.181
 3296POPC   D2A43276  16.076   0.772   6.535
 3296POPC   C3A43277  15.948   0.799   6.972
 3296POPC   C4A43278  15.650   0.553   7.175
 3296POPC   C1B43279  16.004   0.301   6.287
 3296POPC   C2B43280  15.857   0.335   6.742
 3296POPC   C3B43281  15.986   0.185   7.192
 3296POPC   C4B43282  16.071   0.035   7.647
 3297POPC   NC343283   3.101  26.237   5.590
 3297POPC   PO443284   3.720  26.078   5.375
 3297POPC   GL143285   3.675  25.810   5.709
 3297POPC   GL243286   3.506  26.064   5.893
 3297POPC   C1A43287   3.822  25.741   6.117
 3297POPC   D2A43288   3.630  26.043   6.425
 3297POPC   C3A43289   3.519  25.974   6.850
 3297POPC   C4A43290   3.778  25.967   7.205
 3297POPC   C1B43291   3.290  26.354   6.195
 3297POPC   C2B43292   3.082  26.181   6.545
 3297POPC   C3B43293   3.078  26.291   6.930
 3297POPC   C4B43294   3.390  26.404   7.198
 3298POPC   NC343295  29.749   6.058   5.447
 3298POPC   PO443296  30.203   5.655   5.278
 3298POPC   GL143297  30.060   5.686   5.725
 3298POPC   GL243298  29.705   5.689   5.800
 3298POPC   C1A43299  30.006   5.971   6.112
 3298POPC   D2A43300  30.193   5.995   6.535
 3298POPC   C3A43301  30.157   5.643   6.808
 3298POPC   C4A43302  29.910   5.569   7.164
 3298POPC   C1B43303  29.589   5.643   6.247
 3298POPC   C2B43304  29.699   5.797   6.661
 3298POPC   C3B43305  29.847   6.056   7.017
 3298POPC   C4B43306  29.624   6.093   7.406
 3299POPC   NC343307   9.783  31.120   5.514
 3299POPC   PO443308   9.483  30.524   5.348
 3299POPC   GL143309   9.467  30.707   5.763
 3299POPC   GL243310   9.368  30.364   5.832
 3299POPC   C1A43311   9.615  30.927   6.189
 3299POPC   D2A43312   9.871  30.991   6.625
 3299POPC   C3A43313   9.647  30.951   7.069
 3299POPC   C4A43314   9.635  30.918   7.554
 3299POPC   C1B43315   9.648  30.417   6.174
 3299POPC   C2B43316   9.555  30.575   6.577
 3299POPC   C3B43317   9.615  30.429   6.968
 3299POPC   C4B43318   9.838  30.510   7.333
 3300POPC   NC343319  25.736  10.167   5.393
 3300POPC   PO443320  26.107  10.798   5.381
 3300POPC   GL143321  26.172  10.619   5.750
 3300POPC   GL243322  26.247  10.936   5.889
 3300POPC   C1A43323  25.904  10.574   6.095
 3300POPC   D2A43324  25.807  10.645   6.504
 3300POPC   C3A43325  25.948  10.377   6.804
 3300POPC   C4A43326  26.093  10.524   7.197
 3300POPC   C1B43327  26.359  10.968   6.329
 3300POPC   C2B43328  26.267  10.825   6.773
 3300POPC   C3B43329  26.473  10.851   7.183
 3300POPC   C4B43330  26.332  10.800   7.610
 3301POPC   NC343331  43.365   9.302   5.099
 3301POPC   PO443332  43.779   8.915   5.529
 3301POPC   GL143333  43.695   8.918   5.957
 3301POPC   GL243334  44.006   8.815   6.071
 3301POPC   C1A43335  43.618   8.897   6.395
 3301POPC   D2A43336  43.656   8.719   6.775
 3301POPC   C3A43337  43.866   9.015   7.043
 3301POPC   C4A43338  43.822   9.436   7.207
 3301POPC   C1B43339  43.968   9.250   6.286
 3301POPC   C2B43340  44.056   9.395   6.734
 3301POPC   C3B43341  44.260   9.636   7.073
 3301POPC   C4B43342  44.154   9.703   7.525
 3302POPC   NC343343  44.434   3.890   5.569
 3302POPC   PO443344  44.930   4.386   5.464
 3302POPC   GL143345  44.993   4.599   5.873
 3302POPC   GL243346  44.699   4.395   5.921
 3302POPC   C1A43347  44.992   4.504   6.310
 3302POPC   D2A43348  44.933   4.233   6.638
 3302POPC   C3A43349  44.929   4.381   7.015
 3302POPC   C4A43350  44.873   4.034   7.256
 3302POPC   C1B43351  44.545   4.224   6.301
 3302POPC   C2B43352  44.450   4.381   6.752
 3302POPC   C3B43353  44.497   4.494   7.223
 3302POPC   C4B43354  44.390   4.607   7.688
 3303POPC   NC343355  31.762  14.697   5.457
 3303POPC   PO443356  31.269  14.312   5.577
 3303POPC   GL143357  31.259  14.554   5.914
 3303POPC   GL243358  31.625  14.583   5.934
 3303POPC   C1A43359  31.147  14.495   6.325
 3303POPC   D2A43360  31.077  14.121   6.565
 3303POPC   C3A43361  31.218  14.151   6.991
 3303POPC   C4A43362  31.591  14.058   7.240
 3303POPC   C1B43363  31.608  14.252   6.222
 3303POPC   C2B43364  31.565  14.323   6.633
 3303POPC   C3B43365  31.612  14.529   6.993
 3303POPC   C4B43366  31.707  14.577   7.390
 3304POPC   NC343367   5.687  33.155   5.512
 3304POPC   PO443368   6.349  32.808   5.520
 3304POPC   GL143369   6.042  32.909   5.828
 3304POPC   GL243370   6.059  33.290   5.842
 3304POPC   C1A43371   5.763  32.783   6.184
 3304POPC   D2A43372   5.609  32.732   6.613
 3304POPC   C3A43373   5.811  32.830   6.994
 3304POPC   C4A43374   5.647  32.826   7.385
 3304POPC   C1B43375   6.146  33.152   6.271
 3304POPC   C2B43376   5.904  33.215   6.635
 3304POPC   C3B43377   5.679  33.335   7.004
 3304POPC   C4B43378   5.936  33.247   7.327
 3305POPC   NC343379  21.990  37.253   5.415
 3305POPC   PO443380  22.383  36.729   5.156
 3305POPC   GL143381  22.311  36.916   5.653
 3305POPC   GL243382  21.977  37.041   5.867
 3305POPC   C1A43383  22.361  36.901   6.156
 3305POPC   D2A43384  22.445  36.739   6.588
 3305POPC   C3A43385  22.460  36.959   6.982
 3305POPC   C4A43386  22.146  36.701   7.196
 3305POPC   C1B43387  22.007  37.299   6.261
 3305POPC   C2B43388  22.150  37.253   6.680
 3305POPC   C3B43389  22.081  37.259   7.121
 3305POPC   C4B43390  22.439  37.415   7.306
 3306POPC   NC343391  40.218  32.019   5.397
 3306POPC   PO443392  39.634  32.034   5.369
 3306POPC   GL143393  39.852  32.315   5.709
 3306POPC   GL243394  40.189  32.205   5.857
 3306POPC   C1A43395  39.810  32.317   6.183
 3306POPC   D2A43396  39.868  32.039   6.552
 3306POPC   C3A43397  39.818  32.286   6.923
 3306POPC   C4A43398  39.846  32.136   7.333
 3306POPC   C1B43399  40.337  32.226   6.248
 3306POPC   C2B43400  40.208  32.418   6.599
 3306POPC   C3B43401  40.305  32.269   7.000
 3306POPC   C4B43402  40.258  32.420   7.372
 3307POPC   NC343403  39.399  43.506   5.546
 3307POPC   PO443404  38.951  44.027   5.443
 3307POPC   GL143405  39.138  43.900   5.814
 3307POPC   GL243406  38.969  43.590   5.871
 3307POPC   C1A43407  39.126  43.920   6.278
 3307POPC   D2A43408  39.004  43.723   6.661
 3307POPC   C3A43409  39.039  44.002   7.003
 3307POPC   C4A43410  39.270  43.971   7.382
 3307POPC   C1B43411  39.131  43.394   6.260
 3307POPC   C2B43412  39.463  43.496   6.574
 3307POPC   C3B43413  39.422  43.622   7.019
 3307POPC   C4B43414  39.290  43.421   7.419
 3308POPC   NC343415  10.699   3.684   5.389
 3308POPC   PO443416  10.108   3.261   5.317
 3308POPC   GL143417  10.258   3.437   5.707
 3308POPC   GL243418  10.590   3.378   5.759
 3308POPC   C1A43419  10.217   3.494   6.160
 3308POPC   D2A43420  10.021   3.559   6.575
 3308POPC   C3A43421  10.238   3.864   6.822
 3308POPC   C4A43422  10.457   3.669   7.162
 3308POPC   C1B43423  10.696   3.675   6.098
 3308POPC   C2B43424  10.611   3.605   6.547
 3308POPC   C3B43425  10.898   3.448   6.878
 3308POPC   C4B43426  10.833   3.302   7.259
 3309POPC   NC343427  39.475  16.594   5.083
 3309POPC   PO443428  38.850  16.862   5.299
 3309POPC   GL143429  39.041  16.789   5.711
 3309POPC   GL243430  39.387  16.745   5.678
 3309POPC   C1A43431  38.970  16.882   6.152
 3309POPC   D2A43432  38.948  16.732   6.581
 3309POPC   C3A43433  39.090  16.982   6.944
 3309POPC   C4A43434  39.134  16.795   7.325
 3309POPC   C1B43435  39.478  16.800   6.149
 3309POPC   C2B43436  39.486  16.895   6.619
 3309POPC   C3B43437  39.559  16.616   7.015
 3309POPC   C4B43438  39.556  16.608   7.539
 3310POPC   NC343439  26.115  27.542   5.412
 3310POPC   PO443440  25.956  28.300   5.374
 3310POPC   GL143441  26.020  27.918   5.751
 3310POPC   GL243442  26.016  27.520   5.893
 3310POPC   C1A43443  26.149  27.862   6.208
 3310POPC   D2A43444  26.082  27.531   6.545
 3310POPC   C3A43445  25.935  27.682   6.951
 3310POPC   C4A43446  26.253  27.731   7.274
 3310POPC   C1B43447  25.719  27.373   6.219
 3310POPC   C2B43448  25.575  27.338   6.650
 3310POPC   C3B43449  25.600  27.298   7.088
 3310POPC   C4B43450  25.970  27.296   7.318
 3311POPC   NC343451  44.045  39.660   5.313
 3311POPC   PO443452  43.911  40.347   5.138
 3311POPC   GL143453  44.081  40.102   5.586
 3311POPC   GL243454  44.011  40.286   5.928
 3311POPC   C1A43455  44.165  39.834   6.004
 3311POPC   D2A43456  44.263  39.819   6.472
 3311POPC   C3A43457  44.111  39.665   6.899
 3311POPC   C4A43458  43.839  39.756   7.250
 3311POPC   C1B43459  43.878  40.177   6.332
 3311POPC   C2B43460  43.781  40.016   6.702
 3311POPC   C3B43461  43.596  40.208   7.066
 3311POPC   C4B43462  43.767  40.424   7.405
 3312POPC   NC343463  11.720  27.294   5.509
 3312POPC   PO443464  12.374  27.472   5.256
 3312POPC   GL143465  12.202  27.592   5.673
 3312POPC   GL243466  12.405  27.890   5.657
 3312POPC   C1A43467  12.053  27.704   6.107
 3312POPC   D2A43468  11.808  27.607   6.466
 3312POPC   C3A43469  11.994  27.598   6.854
 3312POPC   C4A43470  11.945  27.403   7.236
 3312POPC   C1B43471  12.507  27.952   6.090
 3312POPC   C2B43472  12.373  27.811   6.505
 3312POPC   C3B43473  12.359  27.945   6.926
 3312POPC   C4B43474  12.513  27.833   7.296
 3313POPC   NC343475  30.482  35.022   5.435
 3313POPC   PO443476  30.596  35.706   5.440
 3313POPC   GL143477  30.810  35.593   5.802
 3313POPC   GL243478  30.842  35.244   5.736
 3313POPC   C1A43479  30.665  35.593   6.234
 3313POPC   D2A43480  30.820  35.784   6.614
 3313POPC   C3A43481  30.729  35.514   6.958
 3313POPC   C4A43482  30.318  35.459   7.118
 3313POPC   C1B43483  30.748  35.105   6.107
 3313POPC   C2B43484  30.815  35.128   6.540
 3313POPC   C3B43485  30.910  35.026   6.950
 3313POPC   C4B43486  30.694  35.099   7.302
 3314POPC   NC343487  19.955  34.496   5.344
 3314POPC   PO443488  19.915  33.774   5.384
 3314POPC   GL143489  19.940  33.877   5.801
 3314POPC   GL243490  20.106  33.590   5.851
 3314POPC   C1A43491  19.739  33.982   6.211
 3314POPC   D2A43492  19.869  33.872   6.641
 3314POPC   C3A43493  19.683  34.057   7.025
 3314POPC   C4A43494  19.871  34.354   7.311
 3314POPC   C1B43495  19.900  33.499   6.190
 3314POPC   C2B43496  20.011  33.369   6.582
 3314POPC   C3B43497  20.122  33.504   6.955
 3314POPC   C4B43498  19.908  33.670   7.283
 3315POPC   NC343499  19.383  17.618   5.555
 3315POPC   PO443500  18.799  17.281   5.373
 3315POPC   GL143501  19.065  17.291   5.796
 3315POPC   GL243502  18.888  17.554   5.844
 3315POPC   C1A43503  19.261  17.534   6.214
 3315POPC   D2A43504  19.486  17.518   6.637
 3315POPC   C3A43505  19.361  17.775   6.993
 3315POPC   C4A43506  18.929  17.747   7.182
 3315POPC   C1B43507  18.783  17.368   6.239
 3315POPC   C2B43508  18.931  17.525   6.650
 3315POPC   C3B43509  18.999  17.271   7.004
 3315POPC   C4B43510  18.772  16.985   7.262
 3316POPC   NC343511  13.813   3.390   5.173
 3316POPC   PO443512  13.401   3.805   5.450
 3316POPC   GL143513  13.767   3.641   5.742
 3316POPC   GL243514  13.965   3.302   5.671
 3316POPC   C1A43515  13.771   3.650   6.212
 3316POPC   D2A43516  13.764   3.828   6.630
 3316POPC   C3A43517  13.427   3.784   6.937
 3316POPC   C4A43518  13.631   3.897   7.326
 3316POPC   C1B43519  13.878   3.163   6.101
 3316POPC   C2B43520  13.934   3.232   6.575
 3316POPC   C3B43521  13.773   3.401   7.004
 3316POPC   C4B43522  13.647   3.386   7.458
 3317POPC   NC343523   0.014  13.989   5.467
 3317POPC   PO443524  44.411  14.341   5.519
 3317POPC   GL143525  44.684  14.383   5.921
 3317POPC   GL243526  44.922  14.649   5.957
 3317POPC   C1A43527  44.693  14.429   6.398
 3317POPC   D2A43528  44.426  14.335   6.750
 3317POPC   C3A43529  44.645  14.044   7.034
 3317POPC   C4A43530  44.444  13.869   7.395
 3317POPC   C1B43531  44.925  14.891   6.346
 3317POPC   C2B43532  44.825  14.862   6.759
 3317POPC   C3B43533  44.832  14.527   7.002
 3317POPC   C4B43534  44.825  14.421   7.416
 3318POPC   NC343535  14.082  15.861   5.408
 3318POPC   PO443536  13.470  15.727   5.409
 3318POPC   GL143537  13.661  15.851   5.799
 3318POPC   GL243538  13.838  15.554   5.780
 3318POPC   C1A43539  13.536  15.848   6.259
 3318POPC   D2A43540  13.379  15.711   6.695
 3318POPC   C3A43541  13.419  15.788   7.162
 3318POPC   C4A43542  13.191  15.922   7.550
 3318POPC   C1B43543  13.985  15.597   6.190
 3318POPC   C2B43544  14.093  15.731   6.591
 3318POPC   C3B43545  13.894  15.663   6.973
 3318POPC   C4B43546  13.871  15.828   7.373
 3319POPC   NC343547  34.650  32.187   5.530
 3319POPC   PO443548  34.027  32.047   5.528
 3319POPC   GL143549  34.297  32.153   5.909
 3319POPC   GL243550  34.662  32.011   6.000
 3319POPC   C1A43551  34.347  32.160   6.370
 3319POPC   D2A43552  34.172  32.377   6.696
 3319POPC   C3A43553  34.501  32.521   6.952
 3319POPC   C4A43554  34.681  32.298   7.205
 3319POPC   C1B43555  34.801  32.389   6.301
 3319POPC   C2B43556  35.000  32.400   6.742
 3319POPC   C3B43557  35.114  32.539   7.176
 3319POPC   C4B43558  34.896  32.549   7.619
 3320POPC   NC343559  31.293  18.830   5.293
 3320POPC   PO443560  30.654  19.039   5.401
 3320POPC   GL143561  30.656  19.146   5.808
 3320POPC   GL243562  30.950  19.064   5.890
 3320POPC   C1A43563  30.645  19.278   6.235
 3320POPC   D2A43564  30.956  19.200   6.557
 3320POPC   C3A43565  30.755  19.132   6.980
 3320POPC   C4A43566  30.737  19.300   7.449
 3320POPC   C1B43567  30.946  18.801   6.223
 3320POPC   C2B43568  30.728  18.737   6.593
 3320POPC   C3B43569  30.819  18.592   6.983
 3320POPC   C4B43570  30.706  18.782   7.357
 3321POPC   NC343571  39.791  41.038   5.126
 3321POPC   PO443572  40.378  40.790   5.387
 3321POPC   GL143573  40.137  41.025   5.713
 3321POPC   GL243574  39.766  40.988   5.731
 3321POPC   C1A43575  40.244  41.025   6.155
 3321POPC   D2A43576  40.162  40.846   6.561
 3321POPC   C3A43577  40.447  40.794   6.915
 3321POPC   C4A43578  40.331  40.634   7.314
 3321POPC   C1B43579  39.795  40.770   6.150
 3321POPC   C2B43580  39.658  40.684   6.592
 3321POPC   C3B43581  39.851  40.818   6.997
 3321POPC   C4B43582  39.838  40.719   7.423
 3322POPC   NC343583  44.893   7.272   5.612
 3322POPC   PO443584  44.223   7.443   5.429
 3322POPC   GL143585  44.426   7.396   5.846
 3322POPC   GL243586  44.698   7.624   5.951
 3322POPC   C1A43587  44.560   7.258   6.270
 3322POPC   D2A43588  44.824   7.177   6.639
 3322POPC   C3A43589  44.634   7.193   7.050
 3322POPC   C4A43590  44.886   7.321   7.380
 3322POPC   C1B43591  44.997   7.552   6.257
 3322POPC   C2B43592  44.970   7.695   6.631
 3322POPC   C3B43593  44.842   7.649   6.994
 3322POPC   C4B43594  44.502   7.696   7.233
 3323POPC   NC343595  31.881   5.293   5.504
 3323POPC   PO443596  32.252   4.722   5.447
 3323POPC   GL143597  32.415   4.878   5.825
 3323POPC   GL243598  32.330   5.231   5.839
 3323POPC   C1A43599  32.536   4.976   6.218
 3323POPC   D2A43600  32.300   4.962   6.576
 3323POPC   C3A43601  32.401   4.781   6.962
 3323POPC   C4A43602  32.382   5.023   7.341
 3323POPC   C1B43603  32.021   5.125   6.178
 3323POPC   C2B43604  31.918   5.310   6.582
 3323POPC   C3B43605  31.948   5.045   6.933
 3323POPC   C4B43606  31.893   5.131   7.325
 3324POPC   NC343607  23.880  35.059   5.279
 3324POPC   PO443608  23.534  35.621   5.303
 3324POPC   GL143609  23.506  35.454   5.740
 3324POPC   GL243610  23.809  35.261   5.764
 3324POPC   C1A43611  23.391  35.215   6.132
 3324POPC   D2A43612  23.637  35.219   6.525
 3324POPC   C3A43613  23.429  35.256   6.892
 3324POPC   C4A43614  23.334  35.288   7.290
 3324POPC   C1B43615  23.811  35.527   6.139
 3324POPC   C2B43616  24.043  35.562   6.496
 3324POPC   C3B43617  23.834  35.589   6.881
 3324POPC   C4B43618  23.706  35.673   7.284
 3325POPC   NC343619  37.119  33.443   5.530
 3325POPC   PO443620  36.899  32.752   5.312
 3325POPC   GL143621  37.105  32.943   5.682
 3325POPC   GL243622  36.804  33.128   5.776
 3325POPC   C1A43623  37.159  33.055   6.134
 3325POPC   D2A43624  37.104  33.065   6.566
 3325POPC   C3A43625  37.369  32.898   6.876
 3325POPC   C4A43626  37.330  33.189   7.209
 3325POPC   C1B43627  36.753  33.387   6.167
 3325POPC   C2B43628  36.789  33.469   6.623
 3325POPC   C3B43629  36.834  33.208   7.003
 3325POPC   C4B43630  36.784  33.411   7.378
 3326POPC   NC343631  25.029  37.703   5.420
 3326POPC   PO443632  25.480  38.113   5.374
 3326POPC   GL143633  25.460  37.876   5.775
 3326POPC   GL243634  25.360  37.554   5.780
 3326POPC   C1A43635  25.598  37.757   6.198
 3326POPC   D2A43636  25.652  37.581   6.600
 3326POPC   C3A43637  25.330  37.777   6.865
 3326POPC   C4A43638  25.358  37.812   7.308
 3326POPC   C1B43639  25.087  37.683   6.132
 3326POPC   C2B43640  25.012  37.483   6.543
 3326POPC   C3B43641  25.008  37.334   6.986
 3326POPC   C4B43642  24.876  37.611   7.293
 3327POPC   NC343643  13.847  11.192   5.424
 3327POPC   PO443644  13.254  11.274   5.082
 3327POPC   GL143645  13.377  11.294   5.615
 3327POPC   GL243646  13.612  11.067   5.860
 3327POPC   C1A43647  13.412  11.461   6.085
 3327POPC   D2A43648  13.689  11.611   6.435
 3327POPC   C3A43649  13.675  11.598   6.904
 3327POPC   C4A43650  13.519  11.400   7.282
 3327POPC   C1B43651  13.707  11.092   6.332
 3327POPC   C2B43652  13.563  10.973   6.777
 3327POPC   C3B43653  13.273  10.956   7.187
 3327POPC   C4B43654  13.128  11.201   7.589
 3328POPC   NC343655   2.896  16.258   5.383
 3328POPC   PO443656   2.533  15.657   5.429
 3328POPC   GL143657   2.553  15.909   5.803
 3328POPC   GL243658   2.909  15.926   5.836
 3328POPC   C1A43659   2.577  15.867   6.276
 3328POPC   D2A43660   2.406  15.789   6.702
 3328POPC   C3A43661   2.596  15.953   7.095
 3328POPC   C4A43662   2.723  16.116   7.502
 3328POPC   C1B43663   3.094  15.963   6.256
 3328POPC   C2B43664   2.962  15.929   6.681
 3328POPC   C3B43665   3.115  16.016   7.095
 3328POPC   C4B43666   3.139  15.833   7.497
 3329POPC   NC343667  36.280  15.172   5.419
 3329POPC   PO443668  35.638  15.535   5.443
 3329POPC   GL143669  35.885  15.285   5.796
 3329POPC   GL243670  36.185  15.385   5.867
 3329POPC   C1A43671  35.964  14.986   6.179
 3329POPC   D2A43672  36.165  15.015   6.624
 3329POPC   C3A43673  36.188  14.759   7.014
 3329POPC   C4A43674  35.918  14.748   7.388
 3329POPC   C1B43675  36.298  15.370   6.272
 3329POPC   C2B43676  36.602  15.259   6.562
 3329POPC   C3B43677  36.492  15.289   6.982
 3329POPC   C4B43678  36.165  15.519   7.218
 3330POPC   NC343679  25.899  23.298   5.313
 3330POPC   PO443680  26.484  23.180   5.580
 3330POPC   GL143681  26.207  23.260   5.889
 3330POPC   GL243682  25.896  23.105   5.802
 3330POPC   C1A43683  26.142  23.174   6.310
 3330POPC   D2A43684  26.050  22.826   6.582
 3330POPC   C3A43685  26.221  22.891   6.982
 3330POPC   C4A43686  26.074  23.196   7.224
 3330POPC   C1B43687  25.683  22.945   6.178
 3330POPC   C2B43688  25.568  23.073   6.591
 3330POPC   C3B43689  25.652  22.915   7.021
 3330POPC   C4B43690  25.670  22.993   7.475
 3331POPC   NC343691  15.068  14.680   5.415
 3331POPC   PO443692  14.989  14.025   5.433
 3331POPC   GL143693  14.918  14.334   5.787
 3331POPC   GL243694  15.266  14.474   5.878
 3331POPC   C1A43695  14.841  14.588   6.192
 3331POPC   D2A43696  14.975  14.754   6.634
 3331POPC   C3A43697  14.874  14.431   6.958
 3331POPC   C4A43698  15.088  14.070   7.114
 3331POPC   C1B43699  15.425  14.059   6.109
 3331POPC   C2B43700  15.426  13.974   6.577
 3331POPC   C3B43701  15.397  14.378   6.803
 3331POPC   C4B43702  15.307  14.564   7.195
 3332POPC   NC343703  27.602  39.936   5.307
 3332POPC   PO443704  27.304  40.480   5.473
 3332POPC   GL143705  27.538  40.188   5.780
 3332POPC   GL243706  27.692  39.824   5.791
 3332POPC   C1A43707  27.527  40.088   6.215
 3332POPC   D2A43708  27.285  40.067   6.577
 3332POPC   C3A43709  27.471  40.114   6.981
 3332POPC   C4A43710  27.546  39.886   7.349
 3332POPC   C1B43711  27.783  39.642   6.195
 3332POPC   C2B43712  27.694  39.753   6.611
 3332POPC   C3B43713  27.569  39.548   6.971
 3332POPC   C4B43714  27.913  39.526   7.242
 3333POPC   NC343715  41.785  25.542   5.441
 3333POPC   PO443716  42.135  24.939   5.607
 3333POPC   GL143717  41.796  25.195   5.841
 3333POPC   GL243718  41.467  25.403   5.817
 3333POPC   C1A43719  41.822  25.532   6.174
 3333POPC   D2A43720  41.938  25.381   6.597
 3333POPC   C3A43721  41.804  25.491   7.004
 3333POPC   C4A43722  41.624  25.391   7.413
 3333POPC   C1B43723  41.367  25.302   6.279
 3333POPC   C2B43724  41.459  25.185   6.725
 3333POPC   C3B43725  41.433  25.002   7.148
 3333POPC   C4B43726  41.166  25.180   7.525
 3334POPC   NC343727  28.667   7.376   5.331
 3334POPC   PO443728  29.322   7.083   5.414
 3334POPC   GL143729  29.394   7.260   5.823
 3334POPC   GL243730  29.091   7.474   5.756
 3334POPC   C1A43731  29.566   7.276   6.270
 3334POPC   D2A43732  29.756   7.640   6.498
 3334POPC   C3A43733  29.677   7.681   6.943
 3334POPC   C4A43734  29.480   7.795   7.337
 3334POPC   C1B43735  29.264   7.666   6.130
 3334POPC   C2B43736  29.245   7.574   6.565
 3334POPC   C3B43737  28.963   7.451   6.877
 3334POPC   C4B43738  29.013   7.583   7.293
 3335POPC   NC343739  23.519  13.348   5.564
 3335POPC   PO443740  24.018  13.760   5.334
 3335POPC   GL143741  23.779  13.838   5.745
 3335POPC   GL243742  23.732  13.571   5.981
 3335POPC   C1A43743  23.517  14.002   6.111
 3335POPC   D2A43744  23.496  13.751   6.506
 3335POPC   C3A43745  23.638  13.905   6.937
 3335POPC   C4A43746  23.622  14.170   7.319
 3335POPC   C1B43747  23.729  13.293   6.326
 3335POPC   C2B43748  24.015  13.203   6.634
 3335POPC   C3B43749  24.075  13.414   6.998
 3335POPC   C4B43750  23.736  13.513   7.247
 3336POPC   NC343751  35.487   7.218   5.349
 3336POPC   PO443752  34.899   7.041   5.543
 3336POPC   GL143753  35.309   7.091   5.820
 3336POPC   GL243754  35.522   7.424   5.852
 3336POPC   C1A43755  35.494   7.092   6.252
 3336POPC   D2A43756  35.295   7.161   6.660
 3336POPC   C3A43757  35.452   7.295   7.068
 3336POPC   C4A43758  35.068   7.496   7.238
 3336POPC   C1B43759  35.693   7.837   6.100
 3336POPC   C2B43760  35.631   8.021   6.547
 3336POPC   C3B43761  35.560   7.795   6.950
 3336POPC   C4B43762  35.909   7.778   7.252
 3337POPC   NC343763   5.797  41.845   5.393
 3337POPC   PO443764   6.035  41.167   5.290
 3337POPC   GL143765   5.814  41.302   5.672
 3337POPC   GL243766   5.981  41.586   5.828
 3337POPC   C1A43767   5.727  41.263   6.141
 3337POPC   D2A43768   5.826  41.229   6.620
 3337POPC   C3A43769   5.812  41.586   6.930
 3337POPC   C4A43770   5.494  41.811   7.148
 3337POPC   C1B43771   6.203  41.420   6.207
 3337POPC   C2B43772   6.321  41.402   6.651
 3337POPC   C3B43773   6.301  41.604   7.068
 3337POPC   C4B43774   6.007  41.603   7.428
 3338POPC   NC343775  11.421   3.091   5.304
 3338POPC   PO443776  11.562   2.482   5.459
 3338POPC   GL143777  11.339   2.706   5.777
 3338POPC   GL243778  11.449   3.019   5.831
 3338POPC   C1A43779  11.097   2.770   6.155
 3338POPC   D2A43780  11.259   2.770   6.532
 3338POPC   C3A43781  11.099   2.819   6.923
 3338POPC   C4A43782  11.274   2.689   7.275
 3338POPC   C1B43783  11.485   3.159   6.278
 3338POPC   C2B43784  11.358   3.222   6.733
 3338POPC   C3B43785  11.353   3.220   7.185
 3338POPC   C4B43786  11.639   3.044   7.479
 3339POPC   NC343787  42.632  29.656   5.386
 3339POPC   PO443788  42.144  30.096   5.370
 3339POPC   GL143789  42.240  29.753   5.732
 3339POPC   GL243790  42.587  29.623   5.871
 3339POPC   C1A43791  42.163  29.544   6.146
 3339POPC   D2A43792  42.165  29.715   6.574
 3339POPC   C3A43793  42.003  29.626   7.014
 3339POPC   C4A43794  41.976  29.832   7.435
 3339POPC   C1B43795  42.580  29.846   6.209
 3339POPC   C2B43796  42.671  29.724   6.575
 3339POPC   C3B43797  42.507  29.832   6.934
 3339POPC   C4B43798  42.705  29.884   7.279
 3340POPC   NC343799  19.573  31.958   5.427
 3340POPC   PO443800  20.228  32.061   5.186
 3340POPC   GL143801  20.011  32.187   5.618
 3340POPC   GL243802  19.702  32.397   5.678
 3340POPC   C1A43803  19.958  32.159   6.110
 3340POPC   D2A43804  20.029  32.061   6.581
 3340POPC   C3A43805  20.022  32.208   7.013
 3340POPC   C4A43806  19.803  32.044   7.373
 3340POPC   C1B43807  19.529  32.440   6.096
 3340POPC   C2B43808  19.545  32.231   6.498
 3340POPC   C3B43809  19.505  32.107   6.929
 3340POPC   C4B43810  19.468  32.421   7.245
 3341POPC   NC343811  17.325   5.627   5.509
 3341POPC   PO443812  17.685   6.173   5.333
 3341POPC   GL143813  17.605   5.977   5.748
 3341POPC   GL243814  17.295   5.999   5.863
 3341POPC   C1A43815  17.592   5.689   6.138
 3341POPC   D2A43816  17.700   5.831   6.544
 3341POPC   C3A43817  17.611   5.660   6.948
 3341POPC   C4A43818  17.610   5.840   7.320
 3341POPC   C1B43819  17.138   5.968   6.276
 3341POPC   C2B43820  17.181   5.788   6.690
 3341POPC   C3B43821  17.130   5.880   7.145
 3341POPC   C4B43822  17.094   5.739   7.592
 3342POPC   NC343823  43.713   3.937   5.233
 3342POPC   PO443824  44.189   3.541   5.333
 3342POPC   GL143825  43.865   3.586   5.674
 3342POPC   GL243826  44.022   3.817   5.864
 3342POPC   C1A43827  43.723   3.527   6.160
 3342POPC   D2A43828  43.756   3.345   6.614
 3342POPC   C3A43829  43.722   3.394   7.089
 3342POPC   C4A43830  44.099   3.482   7.291
 3342POPC   C1B43831  43.926   4.009   6.221
 3342POPC   C2B43832  44.075   4.011   6.624
 3342POPC   C3B43833  43.886   3.856   6.983
 3342POPC   C4B43834  43.874   3.942   7.417
 3343POPC   NC343835  13.096  10.920   5.417
 3343POPC   PO443836  12.663  10.363   5.463
 3343POPC   GL143837  12.825  10.599   5.769
 3343POPC   GL243838  12.553  10.712   5.929
 3343POPC   C1A43839  12.932  10.548   6.221
 3343POPC   D2A43840  12.773  10.346   6.615
 3343POPC   C3A43841  12.905  10.417   7.034
 3343POPC   C4A43842  13.151  10.078   7.196
 3343POPC   C1B43843  12.523  10.852   6.321
 3343POPC   C2B43844  12.786  10.859   6.661
 3343POPC   C3B43845  12.625  10.856   7.059
 3343POPC   C4B43846  12.813  10.825   7.451
 3344POPC   NC343847  41.835  18.389   5.453
 3344POPC   PO443848  41.205  18.122   5.502
 3344POPC   GL143849  41.528  18.173   5.806
 3344POPC   GL243850  41.638  18.513   5.899
 3344POPC   C1A43851  41.618  18.037   6.218
 3344POPC   D2A43852  41.434  17.885   6.615
 3344POPC   C3A43853  41.650  18.108   6.936
 3344POPC   C4A43854  41.693  18.300   7.322
 3344POPC   C1B43855  41.356  18.496   6.233
 3344POPC   C2B43856  41.475  18.520   6.639
 3344POPC   C3B43857  41.276  18.472   7.031
 3344POPC   C4B43858  41.150  18.748   7.342
 3345POPC   NC343859  12.438  36.404   5.500
 3345POPC   PO443860  12.927  35.906   5.374
 3345POPC   GL143861  12.792  36.042   5.770
 3345POPC   GL243862  13.080  36.035   5.918
 3345POPC   C1A43863  12.737  36.337   6.137
 3345POPC   D2A43864  12.894  36.455   6.543
 3345POPC   C3A43865  12.604  36.298   6.858
 3345POPC   C4A43866  12.559  36.370   7.305
 3345POPC   C1B43867  13.103  35.991   6.378
 3345POPC   C2B43868  13.105  35.804   6.810
 3345POPC   C3B43869  12.998  36.097   7.149
 3345POPC   C4B43870  13.026  36.531   7.035
 3346POPC   NC343871  14.041  37.043   5.566
 3346POPC   PO443872  13.401  37.115   5.457
 3346POPC   GL143873  13.611  36.984   5.847
 3346POPC   GL243874  13.695  36.663   5.973
 3346POPC   C1A43875  13.759  37.156   6.232
 3346POPC   D2A43876  13.597  37.121   6.647
 3346POPC   C3A43877  13.830  37.017   7.046
 3346POPC   C4A43878  13.934  36.678   7.325
 3346POPC   C1B43879  13.451  36.338   6.196
 3346POPC   C2B43880  13.411  36.303   6.648
 3346POPC   C3B43881  13.501  36.668   6.873
 3346POPC   C4B43882  13.394  36.779   7.288
 3347POPC   NC343883  40.979  22.425   5.450
 3347POPC   PO443884  41.471  22.026   5.141
 3347POPC   GL143885  41.433  21.917   5.632
 3347POPC   GL243886  41.388  22.171   5.901
 3347POPC   C1A43887  41.683  21.810   6.067
 3347POPC   D2A43888  41.903  22.038   6.446
 3347POPC   C3A43889  41.750  21.941   6.885
 3347POPC   C4A43890  41.506  22.087   7.238
 3347POPC   C1B43891  41.379  22.527   6.181
 3347POPC   C2B43892  41.621  22.637   6.529
 3347POPC   C3B43893  41.642  22.452   6.921
 3347POPC   C4B43894  41.517  22.609   7.338
 3348POPC   NC343895   6.006  18.361   5.443
 3348POPC   PO443896   6.439  18.649   5.749
 3348POPC   GL143897   6.140  18.335   5.949
 3348POPC   GL243898   6.068  17.979   5.858
 3348POPC   C1A43899   6.077  18.157   6.364
 3348POPC   D2A43900   5.737  18.320   6.576
 3348POPC   C3A43901   5.809  18.352   6.983
 3348POPC   C4A43902   5.443  18.459   7.143
 3348POPC   C1B43903   5.661  17.959   6.178
 3348POPC   C2B43904   5.668  17.819   6.601
 3348POPC   C3B43905   5.990  17.857   6.874
 3348POPC   C4B43906   5.966  17.820   7.290
 3349POPC   NC343907  10.097  40.733   4.924
 3349POPC   PO443908  10.678  40.519   5.374
 3349POPC   GL143909  10.588  40.639   5.791
 3349POPC   GL243910  10.308  40.861   5.751
 3349POPC   C1A43911  10.780  40.724   6.177
 3349POPC   D2A43912  10.916  40.756   6.596
 3349POPC   C3A43913  10.632  40.617   6.880
 3349POPC   C4A43914  10.595  40.673   7.282
 3349POPC   C1B43915  10.371  41.078   6.152
 3349POPC   C2B43916  10.440  40.958   6.572
 3349POPC   C3B43917  10.254  41.005   7.019
 3349POPC   C4B43918  10.002  41.194   7.414
 3350POPC   NC343919  29.710  42.334   5.354
 3350POPC   PO443920  30.202  41.921   5.346
 3350POPC   GL143921  30.081  42.333   5.707
 3350POPC   GL243922  29.734  42.545   5.807
 3350POPC   C1A43923  30.094  42.534   6.171
 3350POPC   D2A43924  30.167  42.426   6.643
 3350POPC   C3A43925  29.954  42.048   6.834
 3350POPC   C4A43926  29.900  41.844   7.242
 3350POPC   C1B43927  29.584  42.824   6.145
 3350POPC   C2B43928  29.728  42.739   6.558
 3350POPC   C3B43929  29.709  42.501   6.913
 3350POPC   C4B43930  29.902  42.339   7.267
 3351POPC   NC343931  32.878  17.856   5.444
 3351POPC   PO443932  33.207  18.480   5.415
 3351POPC   GL143933  33.098  18.197   5.754
 3351POPC   GL243934  32.810  18.296   5.912
 3351POPC   C1A43935  33.214  18.107   6.161
 3351POPC   D2A43936  32.923  18.287   6.462
 3351POPC   C3A43937  33.128  18.236   6.862
 3351POPC   C4A43938  32.959  18.027   7.190
 3351POPC   C1B43939  33.113  18.622   6.104
 3351POPC   C2B43940  33.150  18.729   6.561
 3351POPC   C3B43941  32.830  18.656   6.855
 3351POPC   C4B43942  32.982  18.590   7.275
 3352POPC   NC343943   3.857  43.004   5.517
 3352POPC   PO443944   4.413  43.411   5.402
 3352POPC   GL143945   4.432  43.104   5.772
 3352POPC   GL243946   4.117  43.172   5.908
 3352POPC   C1A43947   4.477  43.016   6.251
 3352POPC   D2A43948   4.513  43.261   6.668
 3352POPC   C3A43949   4.391  43.102   7.103
 3352POPC   C4A43950   4.538  43.095   7.573
 3352POPC   C1B43951   3.971  42.909   6.227
 3352POPC   C2B43952   4.031  43.088   6.623
 3352POPC   C3B43953   3.886  43.174   7.028
 3352POPC   C4B43954   3.880  42.869   7.317
 3353POPC   NC343955  26.549  10.016   5.428
 3353POPC   PO443956  26.800   9.388   5.510
 3353POPC   GL143957  26.918   9.803   5.742
 3353POPC   GL243958  26.686  10.061   5.919
 3353POPC   C1A43959  27.123   9.909   6.138
 3353POPC   D2A43960  27.142   9.687   6.552
 3353POPC   C3A43961  26.936   9.758   6.969
 3353POPC   C4A43962  26.702   9.443   7.243
 3353POPC   C1B43963  26.637   9.706   6.224
 3353POPC   C2B43964  26.512   9.662   6.677
 3353POPC   C3B43965  26.444   9.853   7.111
 3353POPC   C4B43966  26.326   9.953   7.554
 3354POPC   NC343967  35.384  32.711   5.178
 3354POPC   PO443968  34.990  33.208   5.388
 3354POPC   GL143969  35.279  33.168   5.807
 3354POPC   GL243970  35.668  33.226   5.786
 3354POPC   C1A43971  35.438  32.988   6.238
 3354POPC   D2A43972  35.270  32.832   6.647
 3354POPC   C3A43973  35.416  32.961   7.059
 3354POPC   C4A43974  35.188  32.948   7.453
 3354POPC   C1B43975  35.764  33.381   6.218
 3354POPC   C2B43976  35.854  33.336   6.649
 3354POPC   C3B43977  35.724  33.383   7.085
 3354POPC   C4B43978  35.627  33.312   7.524
 3355POPC   NC343979  11.824  11.921   5.367
 3355POPC   PO443980  12.524  11.879   5.327
 3355POPC   GL143981  12.260  12.148   5.658
 3355POPC   GL243982  11.945  12.043   5.836
 3355POPC   C1A43983  12.257  12.302   6.136
 3355POPC   D2A43984  12.502  12.275   6.527
 3355POPC   C3A43985  12.301  12.139   6.896
 3355POPC   C4A43986  12.151  12.278   7.281
 3355POPC   C1B43987  11.972  11.865   6.265
 3355POPC   C2B43988  11.840  11.938   6.700
 3355POPC   C3B43989  11.690  12.195   7.055
 3355POPC   C4B43990  11.483  12.168   7.498
 3356POPC   NC343991  40.466  11.612   5.689
 3356POPC   PO443992  40.282  11.020   5.426
 3356POPC   GL143993  40.522  11.115   5.855
 3356POPC   GL243994  40.855  11.319   5.856
 3356POPC   C1A43995  40.407  11.354   6.273
 3356POPC   D2A43996  40.664  11.408   6.669
 3356POPC   C3A43997  40.627  11.530   7.107
 3356POPC   C4A43998  40.598  11.241   7.478
 3356POPC   C1B43999  40.865  11.140   6.278
 3356POPC   C2B44000  41.050  11.071   6.701
 3356POPC   C3B44001  40.920  11.092   7.109
 3356POPC   C4B44002  41.036  10.942   7.524
 3357POPC   NC344003  38.222  12.293   5.246
 3357POPC   PO444004  38.765  11.863   5.471
 3357POPC   GL144005  38.607  12.019   5.826
 3357POPC   GL244006  38.423  12.293   5.749
 3357POPC   C1A44007  38.708  11.960   6.226
 3357POPC   D2A44008  38.541  11.658   6.519
 3357POPC   C3A44009  38.617  11.757   6.956
 3357POPC   C4A44010  38.398  11.838   7.322
 3357POPC   C1B44011  38.313  12.315   6.209
 3357POPC   C2B44012  38.437  12.136   6.632
 3357POPC   C3B44013  38.369  12.253   7.038
 3357POPC   C4B44014  38.468  12.370   7.422
 3358POPC   NC344015  36.446  43.944   5.290
 3358POPC   PO444016  35.915  43.555   5.326
 3358POPC   GL144017  36.178  43.683   5.687
 3358POPC   GL244018  35.907  43.801   5.923
 3358POPC   C1A44019  36.305  43.573   6.123
 3358POPC   D2A44020  36.422  43.685   6.537
 3358POPC   C3A44021  36.161  43.770   6.886
 3358POPC   C4A44022  36.318  43.778   7.296
 3358POPC   C1B44023  36.196  44.059   6.224
 3358POPC   C2B44024  36.286  44.222   6.654
 3358POPC   C3B44025  36.149  44.258   7.097
 3358POPC   C4B44026  35.948  44.081   7.488
 3359POPC   NC344027  20.307   4.684   5.504
 3359POPC   PO444028  20.693   5.276   5.409
 3359POPC   GL144029  20.601   5.363   5.812
 3359POPC   GL244030  20.537   5.006   5.838
 3359POPC   C1A44031  20.749   5.270   6.237
 3359POPC   D2A44032  21.003   5.176   6.575
 3359POPC   C3A44033  20.810   5.310   6.959
 3359POPC   C4A44034  20.610   5.227   7.348
 3359POPC   C1B44035  20.382   4.885   6.238
 3359POPC   C2B44036  20.565   4.896   6.681
 3359POPC   C3B44037  20.517   4.772   7.130
 3359POPC   C4B44038  20.604   4.776   7.589
 3360POPC   NC344039  43.038  29.153   5.370
 3360POPC   PO444040  43.529  28.786   5.590
 3360POPC   GL144041  43.214  29.003   5.870
 3360POPC   GL244042  43.043  29.351   5.830
 3360POPC   C1A44043  43.172  28.949   6.322
 3360POPC   D2A44044  43.364  28.802   6.727
 3360POPC   C3A44045  43.143  29.043   7.042
 3360POPC   C4A44046  42.708  29.071   7.160
 3360POPC   C1B44047  42.965  29.456   6.243
 3360POPC   C2B44048  42.884  29.267   6.634
 3360POPC   C3B44049  42.906  29.500   6.971
 3360POPC   C4B44050  43.290  29.613   7.105
 3361POPC   NC344051   3.552   6.738   5.306
 3361POPC   PO444052   4.120   6.467   5.413
 3361POPC   GL144053   3.733   6.502   5.722
 3361POPC   GL244054   3.336   6.477   5.690
 3361POPC   C1A44055   3.577   6.780   6.094
 3361POPC   D2A44056   3.402   6.641   6.507
 3361POPC   C3A44057   3.242   6.831   6.900
 3361POPC   C4A44058   3.454   6.750   7.266
 3361POPC   C1B44059   3.272   6.318   6.121
 3361POPC   C2B44060   3.359   6.126   6.534
 3361POPC   C3B44061   3.332   6.335   6.911
 3361POPC   C4B44062   3.134   6.378   7.293
 3362POPC   NC344063  35.387  26.536   5.548
 3362POPC   PO444064  35.264  27.148   5.365
 3362POPC   GL144065  35.209  27.071   5.818
 3362POPC   GL244066  35.030  26.767   5.916
 3362POPC   C1A44067  35.410  26.905   6.239
 3362POPC   D2A44068  35.643  26.977   6.644
 3362POPC   C3A44069  35.472  26.918   7.062
 3362POPC   C4A44070  35.544  27.147   7.441
 3362POPC   C1B44071  35.097  26.489   6.258
 3362POPC   C2B44072  35.328  26.558   6.649
 3362POPC   C3B44073  35.182  26.490   7.062
 3362POPC   C4B44074  35.395  26.414   7.446
 3363POPC   NC344075  26.753  30.023   5.402
 3363POPC   PO444076  26.760  29.402   5.267
 3363POPC   GL144077  26.708  29.691   5.766
 3363POPC   GL244078  26.903  29.996   5.894
 3363POPC   C1A44079  26.847  29.629   6.250
 3363POPC   D2A44080  26.607  29.638   6.651
 3363POPC   C3A44081  26.735  29.755   7.102
 3363POPC   C4A44082  27.041  29.772   7.425
 3363POPC   C1B44083  26.716  30.090   6.334
 3363POPC   C2B44084  26.830  30.102   6.753
 3363POPC   C3B44085  26.952  30.219   7.166
 3363POPC   C4B44086  27.059  30.502   7.520
 3364POPC   NC344087  14.277  28.215   5.357
 3364POPC   PO444088  13.960  28.752   5.597
 3364POPC   GL144089  14.088  28.357   5.823
 3364POPC   GL244090  14.466  28.364   5.795
 3364POPC   C1A44091  14.278  28.260   6.257
 3364POPC   D2A44092  14.478  28.393   6.645
 3364POPC   C3A44093  14.239  28.351   7.037
 3364POPC   C4A44094  14.317  28.618   7.430
 3364POPC   C1B44095  14.745  28.098   6.039
 3364POPC   C2B44096  14.677  27.951   6.430
 3364POPC   C3B44097  14.781  28.032   6.841
 3364POPC   C4B44098  14.564  27.949   7.194
 3365POPC   NC344099  13.204  31.653   5.385
 3365POPC   PO444100  13.589  31.147   5.261
 3365POPC   GL144101  13.675  31.101   5.739
 3365POPC   GL244102  13.846  31.416   5.822
 3365POPC   C1A44103  13.602  31.151   6.222
 3365POPC   D2A44104  13.524  31.269   6.684
 3365POPC   C3A44105  13.745  31.048   7.055
 3365POPC   C4A44106  14.059  31.050   7.374
 3365POPC   C1B44107  13.715  31.644   6.229
 3365POPC   C2B44108  13.474  31.764   6.614
 3365POPC   C3B44109  13.531  31.702   7.070
 3365POPC   C4B44110  13.364  31.782   7.495
 3366POPC   NC344111  22.839  34.379   5.423
 3366POPC   PO444112  23.442  34.757   5.265
 3366POPC   GL144113  23.131  34.774   5.699
 3366POPC   GL244114  22.798  34.614   5.858
 3366POPC   C1A44115  23.184  34.605   6.165
 3366POPC   D2A44116  22.933  34.669   6.565
 3366POPC   C3A44117  23.112  34.659   6.981
 3366POPC   C4A44118  23.334  34.426   7.282
 3366POPC   C1B44119  22.538  34.542   6.232
 3366POPC   C2B44120  22.509  34.397   6.683
 3366POPC   C3B44121  22.551  34.647   7.060
 3366POPC   C4B44122  22.550  34.542   7.503
 3367POPC   NC344123  30.285  26.752   5.352
 3367POPC   PO444124  29.847  27.213   5.317
 3367POPC   GL144125  29.939  27.031   5.734
 3367POPC   GL244126  29.908  26.667   5.732
 3367POPC   C1A44127  29.866  27.021   6.203
 3367POPC   D2A44128  30.014  27.068   6.678
 3367POPC   C3A44129  29.945  26.975   7.170
 3367POPC   C4A44130  30.002  27.200   7.654
 3367POPC   C1B44131  30.070  26.531   6.137
 3367POPC   C2B44132  30.095  26.417   6.550
 3367POPC   C3B44133  29.922  26.451   6.928
 3367POPC   C4B44134  30.036  26.376   7.325
 3368POPC   NC344135   4.629  13.652   5.517
 3368POPC   PO444136   5.294  13.364   5.439
 3368POPC   GL144137   5.047  13.505   5.829
 3368POPC   GL244138   4.964  13.880   5.830
 3368POPC   C1A44139   5.186  13.693   6.266
 3368POPC   D2A44140   5.370  13.857   6.666
 3368POPC   C3A44141   5.406  13.556   6.985
 3368POPC   C4A44142   5.279  13.174   7.127
 3368POPC   C1B44143   4.679  13.745   6.181
 3368POPC   C2B44144   4.623  13.668   6.635
 3368POPC   C3B44145   4.934  13.782   6.968
 3368POPC   C4B44146   5.032  13.679   7.380
 3369POPC   NC344147   7.988  21.228   5.468
 3369POPC   PO444148   8.407  21.820   5.371
 3369POPC   GL144149   8.333  21.574   5.680
 3369POPC   GL244150   8.031  21.707   5.773
 3369POPC   C1A44151   8.441  21.317   6.017
 3369POPC   D2A44152   8.474  21.391   6.455
 3369POPC   C3A44153   8.223  21.255   6.816
 3369POPC   C4A44154   8.310  21.390   7.248
 3369POPC   C1B44155   7.972  21.471   6.162
 3369POPC   C2B44156   7.883  21.587   6.591
 3369POPC   C3B44157   7.780  21.393   7.000
 3369POPC   C4B44158   7.946  21.012   7.223
 3370POPC   NC344159  29.625  17.971   5.742
 3370POPC   PO444160  29.271  18.500   5.471
 3370POPC   GL144161  29.159  18.291   5.845
 3370POPC   GL244162  28.780  18.278   5.863
 3370POPC   C1A44163  29.389  18.353   6.230
 3370POPC   D2A44164  29.395  18.733   6.454
 3370POPC   C3A44165  29.415  18.637   6.853
 3370POPC   C4A44166  29.467  18.546   7.269
 3370POPC   C1B44167  28.887  18.103   6.268
 3370POPC   C2B44168  29.069  18.291   6.629
 3370POPC   C3B44169  29.166  18.200   7.011
 3370POPC   C4B44170  28.953  17.946   7.228
 3371POPC   NC344171  33.099  15.553   5.620
 3371POPC   PO444172  33.388  16.156   5.426
 3371POPC   GL144173  33.170  16.174   5.837
 3371POPC   GL244174  33.090  15.862   6.029
 3371POPC   C1A44175  33.147  16.310   6.289
 3371POPC   D2A44176  33.432  16.204   6.658
 3371POPC   C3A44177  33.213  16.058   7.051
 3371POPC   C4A44178  33.207  15.887   7.487
 3371POPC   C1B44179  32.698  15.642   6.157
 3371POPC   C2B44180  32.524  15.540   6.560
 3371POPC   C3B44181  32.653  15.454   6.990
 3371POPC   C4B44182  32.666  15.476   7.421
 3372POPC   NC344183  33.171   2.295   5.344
 3372POPC   PO444184  32.744   1.708   5.306
 3372POPC   GL144185  32.972   1.921   5.643
 3372POPC   GL244186  32.825   2.238   5.745
 3372POPC   C1A44187  33.194   2.019   6.047
 3372POPC   D2A44188  33.147   2.080   6.505
 3372POPC   C3A44189  33.057   1.704   6.776
 3372POPC   C4A44190  33.290   1.739   7.144
 3372POPC   C1B44191  32.710   2.219   6.179
 3372POPC   C2B44192  32.681   2.279   6.623
 3372POPC   C3B44193  32.867   2.137   7.006
 3372POPC   C4B44194  33.111   2.299   7.379
 3373POPC   NC344195   2.354  14.458   5.379
 3373POPC   PO444196   1.655  14.309   5.275
 3373POPC   GL144197   1.862  14.480   5.701
 3373POPC   GL244198   2.155  14.305   5.820
 3373POPC   C1A44199   1.862  14.544   6.185
 3373POPC   D2A44200   1.876  14.532   6.661
 3373POPC   C3A44201   2.055  14.145   6.894
 3373POPC   C4A44202   1.854  13.967   7.259
 3373POPC   C1B44203   2.329  14.684   6.045
 3373POPC   C2B44204   2.330  14.769   6.505
 3373POPC   C3B44205   2.323  14.583   6.922
 3373POPC   C4B44206   2.169  14.381   7.322
 3374POPC   NC344207  19.297  12.464   5.306
 3374POPC   PO444208  19.178  13.159   5.427
 3374POPC   GL144209  19.034  13.034   5.790
 3374POPC   GL244210  19.089  12.685   5.733
 3374POPC   C1A44211  18.900  13.100   6.217
 3374POPC   D2A44212  19.192  13.041   6.596
 3374POPC   C3A44213  19.006  13.054   6.991
 3374POPC   C4A44214  19.190  13.020   7.394
 3374POPC   C1B44215  19.208  12.722   6.185
 3374POPC   C2B44216  19.210  12.553   6.627
 3374POPC   C3B44217  19.269  12.635   7.076
 3374POPC   C4B44218  18.983  12.557   7.396
 3375POPC   NC344219  24.111   3.121   5.535
 3375POPC   PO444220  23.574   3.619   5.485
 3375POPC   GL144221  23.734   3.423   5.827
 3375POPC   GL244222  24.016   3.555   5.810
 3375POPC   C1A44223  23.575   3.327   6.219
 3375POPC   D2A44224  23.619   3.569   6.567
 3375POPC   C3A44225  23.834   3.398   6.893
 3375POPC   C4A44226  23.664   3.640   7.191
 3375POPC   C1B44227  23.968   3.742   6.226
 3375POPC   C2B44228  23.960   3.963   6.636
 3375POPC   C3B44229  24.117   3.900   7.042
 3375POPC   C4B44230  24.138   3.543   7.291
 3376POPC   NC344231  23.708  37.301   5.286
 3376POPC   PO444232  23.506  37.878   5.243
 3376POPC   GL144233  23.547  37.706   5.702
 3376POPC   GL244234  23.725  37.990   5.865
 3376POPC   C1A44235  23.597  37.612   6.180
 3376POPC   D2A44236  23.636  37.839   6.592
 3376POPC   C3A44237  23.593  37.626   7.001
 3376POPC   C4A44238  23.468  37.565   7.410
 3376POPC   C1B44239  24.020  37.948   6.243
 3376POPC   C2B44240  24.195  37.977   6.668
 3376POPC   C3B44241  24.020  37.874   7.081
 3376POPC   C4B44242  23.817  37.929   7.488
 3377POPC   NC344243   7.337  43.567   5.352
 3377POPC   PO444244   7.041  44.007   5.662
 3377POPC   GL144245   7.395  43.794   5.802
 3377POPC   GL244246   7.520  44.090   5.932
 3377POPC   C1A44247   7.643  43.665   6.146
 3377POPC   D2A44248   7.528  43.940   6.480
 3377POPC   C3A44249   7.524  43.888   6.931
 3377POPC   C4A44250   7.635  44.212   7.256
 3377POPC   C1B44251   7.199  44.267   6.237
 3377POPC   C2B44252   6.888  44.204   6.536
 3377POPC   C3B44253   7.117  44.226   6.933
 3377POPC   C4B44254   7.164  43.976   7.302
 3378POPC   NC344255   9.348  35.261   5.427
 3378POPC   PO444256   8.658  35.503   5.347
 3378POPC   GL144257   8.874  35.517   5.764
 3378POPC   GL244258   8.573  35.676   5.856
 3378POPC   C1A44259   8.960  35.367   6.242
 3378POPC   D2A44260   8.979  35.131   6.689
 3378POPC   C3A44261   9.104  35.378   7.082
 3378POPC   C4A44262   9.335  35.790   7.166
 3378POPC   C1B44263   8.465  35.571   6.286
 3378POPC   C2B44264   8.693  35.555   6.654
 3378POPC   C3B44265   8.582  35.423   7.052
 3378POPC   C4B44266   8.753  35.473   7.488
 3379POPC   NC344267   2.514  43.457   5.469
 3379POPC   PO444268   2.488  44.161   5.437
 3379POPC   GL144269   2.760  43.867   5.679
 3379POPC   GL244270   2.878  44.083   5.899
 3379POPC   C1A44271   2.739  43.639   6.105
 3379POPC   D2A44272   2.743  43.835   6.515
 3379POPC   C3A44273   2.542  43.626   6.864
 3379POPC   C4A44274   2.674  43.675   7.306
 3379POPC   C1B44275   2.845  44.278   6.268
 3379POPC   C2B44276   2.923  44.309   6.681
 3379POPC   C3B44277   2.679  44.128   6.998
 3379POPC   C4B44278   2.816  44.181   7.407
 3380POPC   NC344279   2.242   9.630   5.181
 3380POPC   PO444280   1.830   9.956   5.670
 3380POPC   GL144281   2.058   9.978   6.036
 3380POPC   GL244282   2.385  10.085   5.936
 3380POPC   C1A44283   1.945   9.711   6.380
 3380POPC   D2A44284   1.883   9.749   6.842
 3380POPC   C3A44285   1.793   9.426   7.149
 3380POPC   C4A44286   1.438   9.210   7.381
 3380POPC   C1B44287   2.469   9.813   6.327
 3380POPC   C2B44288   2.311   9.500   6.651
 3380POPC   C3B44289   2.295   9.594   7.117
 3380POPC   C4B44290   2.214   9.401   7.499
 3381POPC   NC344291  34.623  14.726   5.578
 3381POPC   PO444292  34.905  14.060   5.370
 3381POPC   GL144293  34.789  14.308   5.800
 3381POPC   GL244294  34.417  14.353   5.856
 3381POPC   C1A44295  34.663  14.234   6.271
 3381POPC   D2A44296  34.250  14.109   6.493
 3381POPC   C3A44297  34.329  14.058   6.937
 3381POPC   C4A44298  34.661  14.344   7.039
 3381POPC   C1B44299  34.458  14.707   6.184
 3381POPC   C2B44300  34.289  14.834   6.534
 3381POPC   C3B44301  34.268  14.651   6.873
 3381POPC   C4B44302  34.449  14.757   7.233
 3382POPC   NC344303   8.057  39.749   5.468
 3382POPC   PO444304   8.210  40.389   5.428
 3382POPC   GL144305   8.240  40.132   5.767
 3382POPC   GL244306   8.539  39.910   5.741
 3382POPC   C1A44307   8.117  39.931   6.150
 3382POPC   D2A44308   7.954  39.869   6.577
 3382POPC   C3A44309   8.251  39.896   6.926
 3382POPC   C4A44310   8.103  39.853   7.346
 3382POPC   C1B44311   8.577  40.174   6.142
 3382POPC   C2B44312   8.325  40.238   6.522
 3382POPC   C3B44313   8.287  40.453   6.921
 3382POPC   C4B44314   8.504  40.220   7.241
 3383POPC   NC344315   2.923  17.787   5.437
 3383POPC   PO444316   2.382  17.362   5.299
 3383POPC   GL144317   2.694  17.463   5.722
 3383POPC   GL244318   2.591  17.759   5.833
 3383POPC   C1A44319   2.741  17.362   6.213
 3383POPC   D2A44320   2.627  17.181   6.650
 3383POPC   C3A44321   2.796  17.443   6.989
 3383POPC   C4A44322   2.879  17.496   7.425
 3383POPC   C1B44323   2.436  17.779   6.206
 3383POPC   C2B44324   2.575  17.705   6.604
 3383POPC   C3B44325   2.577  17.911   6.992
 3383POPC   C4B44326   2.275  18.093   7.248
 3384POPC   NC344327  35.293   2.638   5.404
 3384POPC   PO444328  35.926   2.818   5.414
 3384POPC   GL144329  35.635   2.768   5.759
 3384POPC   GL244330  35.372   3.026   5.751
 3384POPC   C1A44331  35.415   2.617   6.135
 3384POPC   D2A44332  35.572   2.535   6.537
 3384POPC   C3A44333  35.301   2.554   6.879
 3384POPC   C4A44334  35.444   2.561   7.266
 3384POPC   C1B44335  35.160   3.053   6.151
 3384POPC   C2B44336  35.385   3.007   6.536
 3384POPC   C3B44337  35.275   3.111   6.927
 3384POPC   C4B44338  35.066   2.934   7.247
 3385POPC   NC344339   9.329   9.912   5.533
 3385POPC   PO444340   9.989   9.708   5.484
 3385POPC   GL144341   9.786   9.881   5.790
 3385POPC   GL244342   9.590   9.615   5.886
 3385POPC   C1A44343   9.767  10.010   6.193
 3385POPC   D2A44344   9.710   9.757   6.550
 3385POPC   C3A44345   9.741   9.946   6.928
 3385POPC   C4A44346   9.720   9.787   7.341
 3385POPC   C1B44347   9.940   9.463   6.163
 3385POPC   C2B44348  10.133   9.431   6.584
 3385POPC   C3B44349   9.975   9.477   7.013
 3385POPC   C4B44350   9.664   9.300   7.292
 3386POPC   NC344351  41.684  34.411   5.547
 3386POPC   PO444352  41.090  34.728   5.389
 3386POPC   GL144353  41.308  34.675   5.817
 3386POPC   GL244354  41.265  34.302   5.888
 3386POPC   C1A44355  41.492  34.841   6.240
 3386POPC   D2A44356  41.446  34.936   6.715
 3386POPC   C3A44357  41.708  34.832   7.106
 3386POPC   C4A44358  41.615  34.841   7.541
 3386POPC   C1B44359  41.618  34.325   6.193
 3386POPC   C2B44360  41.695  34.484   6.599
 3386POPC   C3B44361  41.442  34.442   6.954
 3386POPC   C4B44362  41.625  34.369   7.377
 3387POPC   NC344363  32.510  39.096   5.313
 3387POPC   PO444364  32.029  39.510   5.434
 3387POPC   GL144365  32.283  39.284   5.777
 3387POPC   GL244366  32.541  38.996   5.817
 3387POPC   C1A44367  32.438  39.352   6.200
 3387POPC   D2A44368  32.227  39.468   6.563
 3387POPC   C3A44369  32.181  39.211   6.899
 3387POPC   C4A44370  32.203  39.335   7.318
 3387POPC   C1B44371  32.454  38.838   6.251
 3387POPC   C2B44372  32.584  38.971   6.696
 3387POPC   C3B44373  32.493  38.921   7.178
 3387POPC   C4B44374  32.667  38.723   7.523
 3388POPC   NC344375  41.822  30.308   5.623
 3388POPC   PO444376  42.003  30.884   5.332
 3388POPC   GL144377  41.661  30.810   5.672
 3388POPC   GL244378  41.280  30.883   5.645
 3388POPC   C1A44379  41.599  30.682   6.114
 3388POPC   D2A44380  41.843  30.673   6.485
 3388POPC   C3A44381  41.670  30.579   6.887
 3388POPC   C4A44382  41.835  30.859   7.198
 3388POPC   C1B44383  41.173  30.966   6.086
 3388POPC   C2B44384  41.272  30.829   6.522
 3388POPC   C3B44385  41.274  30.914   6.968
 3388POPC   C4B44386  41.355  31.046   7.372
 3389POPC   NC344387   9.136  28.491   5.359
 3389POPC   PO444388   8.625  28.148   5.535
 3389POPC   GL144389   8.843  28.345   5.811
 3389POPC   GL244390   9.109  28.183   5.772
 3389POPC   C1A44391   9.123  28.504   6.172
 3389POPC   D2A44392   8.955  28.465   6.579
 3389POPC   C3A44393   9.133  28.723   6.884
 3389POPC   C4A44394   9.085  28.754   7.329
 3389POPC   C1B44395   9.004  28.017   6.173
 3389POPC   C2B44396   9.141  27.972   6.590
 3389POPC   C3B44397   9.024  28.143   6.993
 3389POPC   C4B44398   9.005  27.954   7.386
 3390POPC   NC344399  42.511  34.806   5.422
 3390POPC   PO444400  41.890  34.836   5.588
 3390POPC   GL144401  42.270  34.862   5.898
 3390POPC   GL244402  42.457  34.541   5.869
 3390POPC   C1A44403  42.434  34.807   6.364
 3390POPC   D2A44404  42.136  34.740   6.716
 3390POPC   C3A44405  42.036  34.460   7.052
 3390POPC   C4A44406  42.067  34.582   7.516
 3390POPC   C1B44407  42.120  34.452   6.189
 3390POPC   C2B44408  42.135  34.207   6.583
 3390POPC   C3B44409  42.368  34.084   6.951
 3390POPC   C4B44410  42.232  34.118   7.374
 3391POPC   NC344411   4.153  25.897   5.462
 3391POPC   PO444412   4.566  26.420   5.634
 3391POPC   GL144413   4.399  26.083   5.856
 3391POPC   GL244414   4.027  26.195   5.851
 3391POPC   C1A44415   4.574  25.881   6.203
 3391POPC   D2A44416   4.587  26.132   6.581
 3391POPC   C3A44417   4.206  26.092   6.830
 3391POPC   C4A44418   4.326  26.098   7.238
 3391POPC   C1B44419   4.126  26.115   6.292
 3391POPC   C2B44420   4.169  25.696   6.502
 3391POPC   C3B44421   4.025  25.592   6.914
 3391POPC   C4B44422   4.177  25.626   7.322
 3392POPC   NC344423  17.951   3.862   5.170
 3392POPC   PO444424  17.549   3.375   5.473
 3392POPC   GL144425  17.636   3.647   5.815
 3392POPC   GL244426  17.795   3.973   5.726
 3392POPC   C1A44427  17.602   3.518   6.233
 3392POPC   D2A44428  17.427   3.360   6.604
 3392POPC   C3A44429  17.562   3.524   6.987
 3392POPC   C4A44430  17.471   3.487   7.396
 3392POPC   C1B44431  17.556   4.050   6.146
 3392POPC   C2B44432  17.523   3.882   6.588
 3392POPC   C3B44433  17.687   4.022   6.986
 3392POPC   C4B44434  17.828   3.876   7.375
 3393POPC   NC344435   2.263  42.504   5.302
 3393POPC   PO444436   1.702  42.162   5.513
 3393POPC   GL144437   1.952  42.250   5.828
 3393POPC   GL244438   2.024  42.585   5.747
 3393POPC   C1A44439   1.914  42.123   6.261
 3393POPC   D2A44440   2.008  42.020   6.691
 3393POPC   C3A44441   1.728  42.196   7.018
 3393POPC   C4A44442   1.818  42.311   7.439
 3393POPC   C1B44443   2.181  42.568   6.169
 3393POPC   C2B44444   2.258  42.471   6.614
 3393POPC   C3B44445   2.235  42.312   7.060
 3393POPC   C4B44446   2.243  42.575   7.407
 3394POPC   NC344447  33.091  44.836   5.373
 3394POPC   PO444448  32.427   0.046   5.411
 3394POPC   GL144449  32.722  44.866   5.767
 3394POPC   GL244450  33.120  44.760   5.871
 3394POPC   C1A44451  32.751  44.795   6.210
 3394POPC   D2A44452  33.072  44.704   6.525
 3394POPC   C3A44453  32.843  44.654   6.885
 3394POPC   C4A44454  32.769  44.525   7.277
 3394POPC   C1B44455  33.463  44.695   6.199
 3394POPC   C2B44456  33.568  44.552   6.626
 3394POPC   C3B44457  33.320  44.466   6.991
 3394POPC   C4B44458  33.253  44.732   7.320
 3395POPC   NC344459  30.120  12.745   5.550
 3395POPC   PO444460  29.618  13.275   5.472
 3395POPC   GL144461  29.833  13.211   5.853
 3395POPC   GL244462  30.112  13.070   5.927
 3395POPC   C1A44463  29.774  12.947   6.260
 3395POPC   D2A44464  29.538  12.600   6.499
 3395POPC   C3A44465  29.586  12.690   6.937
 3395POPC   C4A44466  29.702  13.103   7.120
 3395POPC   C1B44467  30.241  12.728   6.199
 3395POPC   C2B44468  30.079  12.709   6.603
 3395POPC   C3B44469  30.186  12.881   6.965
 3395POPC   C4B44470  29.995  12.619   7.243
 3396POPC   NC344471   5.313  35.524   5.417
 3396POPC   PO444472   4.931  34.973   5.406
 3396POPC   GL144473   5.093  35.189   5.784
 3396POPC   GL244474   5.033  35.522   5.837
 3396POPC   C1A44475   4.870  35.213   6.210
 3396POPC   D2A44476   4.744  35.341   6.647
 3396POPC   C3A44477   4.854  35.059   6.993
 3396POPC   C4A44478   4.795  35.008   7.454
 3396POPC   C1B44479   5.256  35.542   6.208
 3396POPC   C2B44480   5.137  35.676   6.620
 3396POPC   C3B44481   5.174  35.472   7.001
 3396POPC   C4B44482   5.506  35.466   7.238
 3397POPC   NC344483  16.497  25.579   5.459
 3397POPC   PO444484  17.061  25.127   5.472
 3397POPC   GL144485  17.184  25.288   5.886
 3397POPC   GL244486  16.923  25.569   6.004
 3397POPC   C1A44487  17.076  25.156   6.314
 3397POPC   D2A44488  16.774  25.331   6.647
 3397POPC   C3A44489  16.727  25.096   7.052
 3397POPC   C4A44490  17.026  25.071   7.408
 3397POPC   C1B44491  16.480  25.550   6.245
 3397POPC   C2B44492  16.262  25.450   6.669
 3397POPC   C3B44493  16.449  25.574   7.113
 3397POPC   C4B44494  16.339  25.635   7.578
 3398POPC   NC344495  42.917  20.612   5.391
 3398POPC   PO444496  43.552  20.733   5.487
 3398POPC   GL144497  43.256  20.797   5.829
 3398POPC   GL244498  43.024  20.490   5.880
 3398POPC   C1A44499  43.130  20.806   6.287
 3398POPC   D2A44500  42.928  20.765   6.706
 3398POPC   C3A44501  43.123  20.745   7.112
 3398POPC   C4A44502  42.975  20.910   7.531
 3398POPC   C1B44503  43.229  20.133   6.146
 3398POPC   C2B44504  43.393  20.015   6.580
 3398POPC   C3B44505  43.221  20.200   6.982
 3398POPC   C4B44506  42.780  20.232   7.145
 3399POPC   NC344507  34.768  13.172   5.283
 3399POPC   PO444508  34.303  12.754   5.351
 3399POPC   GL144509  34.463  13.066   5.724
 3399POPC   GL244510  34.834  13.209   5.799
 3399POPC   C1A44511  34.458  12.971   6.197
 3399POPC   D2A44512  34.437  12.623   6.534
 3399POPC   C3A44513  34.474  12.756   6.960
 3399POPC   C4A44514  34.662  12.682   7.344
 3399POPC   C1B44515  34.868  13.263   6.255
 3399POPC   C2B44516  34.817  12.987   6.630
 3399POPC   C3B44517  34.846  13.079   7.071
 3399POPC   C4B44518  34.714  13.406   7.270
 3400POPC   NC344519  10.003  10.587   5.234
 3400POPC   PO444520   9.459  10.321   5.411
 3400POPC   GL144521   9.723  10.529   5.706
 3400POPC   GL244522   9.982  10.329   5.687
 3400POPC   C1A44523   9.781  10.584   6.157
 3400POPC   D2A44524   9.602  10.763   6.537
 3400POPC   C3A44525   9.755  10.553   6.887
 3400POPC   C4A44526   9.571  10.609   7.242
 3400POPC   C1B44527  10.199  10.306   6.086
 3400POPC   C2B44528  10.059  10.309   6.511
 3400POPC   C3B44529  10.169  10.237   6.915
 3400POPC   C4B44530   9.922  10.232   7.300
 3401POPC   NC344531  24.074  18.005   5.646
 3401POPC   PO444532  24.600  17.667   5.327
 3401POPC   GL144533  24.606  17.591   5.771
 3401POPC   GL244534  24.690  17.247   5.787
 3401POPC   C1A44535  24.773  17.586   6.202
 3401POPC   D2A44536  24.611  17.782   6.599
 3401POPC   C3A44537  24.597  17.571   6.972
 3401POPC   C4A44538  24.469  17.841   7.275
 3401POPC   C1B44539  24.521  17.149   6.214
 3401POPC   C2B44540  24.398  17.160   6.602
 3401POPC   C3B44541  24.287  17.125   7.003
 3401POPC   C4B44542  24.201  17.420   7.306
 3402POPC   NC344543   9.877   5.969   5.167
 3402POPC   PO444544   9.392   5.629   5.538
 3402POPC   GL144545   9.611   5.806   5.880
 3402POPC   GL244546   9.645   6.173   5.905
 3402POPC   C1A44547   9.657   5.635   6.287
 3402POPC   D2A44548   9.846   5.699   6.680
 3402POPC   C3A44549   9.623   5.629   7.045
 3402POPC   C4A44550   9.469   5.982   7.269
 3402POPC   C1B44551   9.996   6.127   6.196
 3402POPC   C2B44552  10.132   6.114   6.614
 3402POPC   C3B44553   9.930   6.065   7.043
 3402POPC   C4B44554   9.962   6.139   7.488
 3403POPC   NC344555  14.559  35.199   5.342
 3403POPC   PO444556  14.025  35.592   5.278
 3403POPC   GL144557  14.202  35.375   5.658
 3403POPC   GL244558  14.528  35.500   5.734
 3403POPC   C1A44559  14.225  35.349   6.132
 3403POPC   D2A44560  14.248  35.602   6.537
 3403POPC   C3A44561  14.267  35.309   6.878
 3403POPC   C4A44562  14.302  35.350   7.342
 3403POPC   C1B44563  14.702  35.214   6.033
 3403POPC   C2B44564  14.661  35.255   6.454
 3403POPC   C3B44565  14.827  35.273   6.831
 3403POPC   C4B44566  14.775  35.247   7.257
 3404POPC   NC344567  20.957  28.833   5.563
 3404POPC   PO444568  20.685  29.410   5.410
 3404POPC   GL144569  20.652  29.162   5.790
 3404POPC   GL244570  20.369  29.024   5.891
 3404POPC   C1A44571  20.753  29.205   6.218
 3404POPC   D2A44572  20.609  29.421   6.575
 3404POPC   C3A44573  20.724  29.264   6.970
 3404POPC   C4A44574  20.761  29.284   7.401
 3404POPC   C1B44575  20.462  28.787   6.252
 3404POPC   C2B44576  20.601  28.852   6.667
 3404POPC   C3B44577  20.460  28.803   7.075
 3404POPC   C4B44578  20.694  28.756   7.464
 3405POPC   NC344579  23.638  34.244   5.342
 3405POPC   PO444580  23.959  34.774   5.622
 3405POPC   GL144581  23.650  34.794   5.948
 3405POPC   GL244582  23.541  34.501   5.798
 3405POPC   C1A44583  23.601  34.693   6.419
 3405POPC   D2A44584  23.599  34.483   6.828
 3405POPC   C3A44585  23.587  34.837   7.131
 3405POPC   C4A44586  23.846  35.191   7.211
 3405POPC   C1B44587  23.870  34.361   6.131
 3405POPC   C2B44588  24.052  34.375   6.546
 3405POPC   C3B44589  24.109  34.331   6.989
 3405POPC   C4B44590  23.840  34.437   7.318
 3406POPC   NC344591  17.722  35.596   5.408
 3406POPC   PO444592  17.357  35.084   5.183
 3406POPC   GL144593  17.502  34.971   5.643
 3406POPC   GL244594  17.669  35.262   5.843
 3406POPC   C1A44595  17.314  34.965   6.092
 3406POPC   D2A44596  17.536  34.988   6.499
 3406POPC   C3A44597  17.408  35.331   6.764
 3406POPC   C4A44598  17.326  35.306   7.215
 3406POPC   C1B44599  17.685  35.484   6.275
 3406POPC   C2B44600  17.907  35.359   6.651
 3406POPC   C3B44601  17.815  35.175   7.035
 3406POPC   C4B44602  17.815  35.526   7.304
 3407POPC   NC344603   5.287  36.173   5.226
 3407POPC   PO444604   4.805  35.797   5.464
 3407POPC   GL144605   5.079  36.117   5.701
 3407POPC   GL244606   5.329  35.926   5.804
 3407POPC   C1A44607   5.147  36.490   6.031
 3407POPC   D2A44608   5.010  36.437   6.500
 3407POPC   C3A44609   5.148  36.414   6.931
 3407POPC   C4A44610   4.958  36.256   7.324
 3407POPC   C1B44611   5.238  36.041   6.243
 3407POPC   C2B44612   5.461  36.080   6.645
 3407POPC   C3B44613   5.362  35.965   7.076
 3407POPC   C4B44614   5.222  35.816   7.471
 3408POPC   NC344615  12.036  33.088   5.158
 3408POPC   PO444616  11.609  32.870   5.658
 3408POPC   GL144617  11.940  32.945   5.886
 3408POPC   GL244618  12.168  32.730   5.724
 3408POPC   C1A44619  11.843  33.122   6.273
 3408POPC   D2A44620  12.037  32.966   6.607
 3408POPC   C3A44621  11.891  32.927   6.988
 3408POPC   C4A44622  11.948  33.230   7.238
 3408POPC   C1B44623  12.358  32.499   6.052
 3408POPC   C2B44624  12.342  32.517   6.508
 3408POPC   C3B44625  12.374  32.720   6.906
 3408POPC   C4B44626  12.284  32.836   7.307
 3409POPC   NC344627   7.829  22.804   5.474
 3409POPC   PO444628   7.412  23.299   5.169
 3409POPC   GL144629   7.393  23.042   5.596
 3409POPC   GL244630   7.102  22.816   5.646
 3409POPC   C1A44631   7.350  23.069   6.052
 3409POPC   D2A44632   7.276  23.120   6.493
 3409POPC   C3A44633   7.557  22.928   6.791
 3409POPC   C4A44634   7.496  23.097   7.185
 3409POPC   C1B44635   7.067  22.636   6.070
 3409POPC   C2B44636   7.162  22.633   6.515
 3409POPC   C3B44637   7.271  22.505   6.927
 3409POPC   C4B44638   7.225  22.667   7.330
 3410POPC   NC344639  37.332   1.457   5.485
 3410POPC   PO444640  37.858   1.313   5.251
 3410POPC   GL144641  37.743   1.309   5.734
 3410POPC   GL244642  37.446   1.227   5.926
 3410POPC   C1A44643  37.773   1.514   6.170
 3410POPC   D2A44644  37.596   1.345   6.553
 3410POPC   C3A44645  37.664   1.522   6.965
 3410POPC   C4A44646  37.563   1.289   7.361
 3410POPC   C1B44647  37.822   1.014   6.141
 3410POPC   C2B44648  37.905   0.910   6.567
 3410POPC   C3B44649  37.838   1.054   6.984
 3410POPC   C4B44650  37.939   0.933   7.413
 3411POPC   NC344651   5.340  17.673   5.503
 3411POPC   PO444652   4.905  17.170   5.449
 3411POPC   GL144653   4.918  17.471   5.761
 3411POPC   GL244654   5.226  17.410   5.925
 3411POPC   C1A44655   4.865  17.738   6.136
 3411POPC   D2A44656   5.197  17.794   6.409
 3411POPC   C3A44657   5.157  17.667   6.837
 3411POPC   C4A44658   5.107  17.675   7.286
 3411POPC   C1B44659   4.891  17.240   6.223
 3411POPC   C2B44660   4.777  17.387   6.636
 3411POPC   C3B44661   4.956  17.211   7.035
 3411POPC   C4B44662   4.818  17.130   7.454
 3412POPC   NC344663  17.863  32.791   5.311
 3412POPC   PO444664  17.443  33.326   5.313
 3412POPC   GL144665  17.321  33.131   5.755
 3412POPC   GL244666  17.606  32.885   5.825
 3412POPC   C1A44667  17.296  33.087   6.236
 3412POPC   D2A44668  17.308  32.972   6.689
 3412POPC   C3A44669  17.559  33.118   7.042
 3412POPC   C4A44670  17.624  32.944   7.494
 3412POPC   C1B44671  17.738  32.766   6.257
 3412POPC   C2B44672  17.792  32.665   6.686
 3412POPC   C3B44673  17.508  32.576   7.008
 3412POPC   C4B44674  17.453  32.464   7.423
 3413POPC   NC344675  20.247  19.029   5.366
 3413POPC   PO444676  20.822  18.721   5.456
 3413POPC   GL144677  20.574  18.823   5.862
 3413POPC   GL244678  20.362  19.146   5.865
 3413POPC   C1A44679  20.511  18.977   6.323
 3413POPC   D2A44680  20.336  18.809   6.701
 3413POPC   C3A44681  20.621  18.804   7.044
 3413POPC   C4A44682  20.925  19.128   7.117
 3413POPC   C1B44683  20.285  19.438   6.245
 3413POPC   C2B44684  20.472  19.537   6.636
 3413POPC   C3B44685  20.412  19.362   7.036
 3413POPC   C4B44686  20.163  19.005   7.151
 3414POPC   NC344687  28.782  34.577   5.373
 3414POPC   PO444688  28.210  34.693   5.463
 3414POPC   GL144689  28.503  34.672   5.816
 3414POPC   GL244690  28.797  34.437   5.853
 3414POPC   C1A44691  28.399  34.632   6.254
 3414POPC   D2A44692  28.055  34.709   6.500
 3414POPC   C3A44693  28.073  34.730   6.948
 3414POPC   C4A44694  28.462  34.764   7.117
 3414POPC   C1B44695  28.813  34.350   6.292
 3414POPC   C2B44696  28.616  34.482   6.705
 3414POPC   C3B44697  28.540  34.263   7.112
 3414POPC   C4B44698  28.800  34.160   7.480
 3415POPC   NC344699  40.971  16.186   5.466
 3415POPC   PO444700  40.323  15.979   5.420
 3415POPC   GL144701  40.663  15.983   5.798
 3415POPC   GL244702  40.874  16.294   5.946
 3415POPC   C1A44703  40.880  15.862   6.205
 3415POPC   D2A44704  40.906  16.039   6.644
 3415POPC   C3A44705  40.854  15.703   6.970
 3415POPC   C4A44706  41.131  15.525   7.301
 3415POPC   C1B44707  41.201  16.346   6.263
 3415POPC   C2B44708  41.299  16.471   6.690
 3415POPC   C3B44709  41.006  16.452   7.010
 3415POPC   C4B44710  40.815  16.156   7.214
 3416POPC   NC344711  21.238  18.906   5.413
 3416POPC   PO444712  21.197  19.517   5.485
 3416POPC   GL144713  21.205  19.133   5.870
 3416POPC   GL244714  21.135  18.733   5.871
 3416POPC   C1A44715  21.331  18.928   6.303
 3416POPC   D2A44716  21.314  19.115   6.729
 3416POPC   C3A44717  21.580  19.027   7.073
 3416POPC   C4A44718  21.695  19.091   7.515
 3416POPC   C1B44719  20.892  18.662   6.249
 3416POPC   C2B44720  20.949  18.746   6.661
 3416POPC   C3B44721  21.191  18.677   7.025
 3416POPC   C4B44722  21.233  18.840   7.452
 3417POPC   NC344723   6.308   9.894   5.123
 3417POPC   PO444724   6.268   9.650   5.728
 3417POPC   GL144725   6.672   9.545   5.902
 3417POPC   GL244726   6.824   9.810   6.042
 3417POPC   C1A44727   6.691   9.373   6.315
 3417POPC   D2A44728   6.720   9.676   6.634
 3417POPC   C3A44729   6.536   9.634   7.011
 3417POPC   C4A44730   6.539   9.732   7.411
 3417POPC   C1B44731   7.099   9.903   6.370
 3417POPC   C2B44732   6.989  10.131   6.747
 3417POPC   C3B44733   6.873   9.990   7.122
 3417POPC   C4B44734   7.143   9.957   7.424
 3418POPC   NC344735  35.632  11.104   5.086
 3418POPC   PO444736  36.148  11.353   5.515
 3418POPC   GL144737  36.206  11.066   5.823
 3418POPC   GL244738  36.483  11.219   5.907
 3418POPC   C1A44739  35.960  11.057   6.185
 3418POPC   D2A44740  36.061  11.153   6.563
 3418POPC   C3A44741  35.769  11.109   6.864
 3418POPC   C4A44742  35.916  11.034   7.266
 3418POPC   C1B44743  36.566  11.210   6.309
 3418POPC   C2B44744  36.535  10.962   6.656
 3418POPC   C3B44745  36.334  11.146   6.985
 3418POPC   C4B44746  36.383  11.240   7.401
 3419POPC   NC344747   7.917  27.067   5.437
 3419POPC   PO444748   8.407  26.701   5.270
 3419POPC   GL144749   8.355  26.786   5.727
 3419POPC   GL244750   8.077  26.641   5.895
 3419POPC   C1A44751   8.341  27.035   6.142
 3419POPC   D2A44752   8.231  27.078   6.595
 3419POPC   C3A44753   8.418  26.870   6.980
 3419POPC   C4A44754   8.244  26.941   7.410
 3419POPC   C1B44755   7.929  26.733   6.331
 3419POPC   C2B44756   7.970  26.668   6.797
 3419POPC   C3B44757   8.125  26.490   7.194
 3419POPC   C4B44758   7.925  26.330   7.591
 3420POPC   NC344759  17.055  42.581   5.518
 3420POPC   PO444760  17.556  42.402   5.156
 3420POPC   GL144761  17.540  42.387   5.665
 3420POPC   GL244762  17.803  42.629   5.862
 3420POPC   C1A44763  17.406  42.411   6.128
 3420POPC   D2A44764  17.613  42.328   6.545
 3420POPC   C3A44765  17.353  42.288   6.886
 3420POPC   C4A44766  17.135  42.556   7.117
 3420POPC   C1B44767  17.712  42.775   6.293
 3420POPC   C2B44768  17.903  42.727   6.716
 3420POPC   C3B44769  17.815  42.417   7.055
 3420POPC   C4B44770  17.894  42.323   7.501
 3421POPC   NC344771  21.067  30.945   5.480
 3421POPC   PO444772  21.256  30.391   5.285
 3421POPC   GL144773  21.427  30.675   5.702
 3421POPC   GL244774  21.116  30.743   5.931
 3421POPC   C1A44775  21.558  30.878   6.138
 3421POPC   D2A44776  21.486  30.749   6.581
 3421POPC   C3A44777  21.509  30.995   6.958
 3421POPC   C4A44778  21.457  30.783   7.351
 3421POPC   C1B44779  21.303  30.443   6.203
 3421POPC   C2B44780  21.152  30.320   6.602
 3421POPC   C3B44781  20.955  30.412   6.954
 3421POPC   C4B44782  21.078  30.428   7.348
 3422POPC   NC344783  30.030   9.999   5.096
 3422POPC   PO444784  29.540   9.836   5.478
 3422POPC   GL144785  29.722   9.634   5.819
 3422POPC   GL244786  30.038   9.650   5.654
 3422POPC   C1A44787  29.776   9.846   6.238
 3422POPC   D2A44788  29.748  10.106   6.611
 3422POPC   C3A44789  29.755   9.877   7.006
 3422POPC   C4A44790  29.868  10.004   7.426
 3422POPC   C1B44791  30.176   9.558   6.086
 3422POPC   C2B44792  30.174   9.675   6.518
 3422POPC   C3B44793  30.176   9.559   6.951
 3422POPC   C4B44794  30.306   9.704   7.354
 3423POPC   NC344795   2.873   6.375   5.348
 3423POPC   PO444796   2.457   6.836   5.555
 3423POPC   GL144797   2.480   6.576   5.910
 3423POPC   GL244798   2.808   6.406   5.869
 3423POPC   C1A44799   2.574   6.639   6.350
 3423POPC   D2A44800   2.528   6.917   6.710
 3423POPC   C3A44801   2.480   6.672   7.073
 3423POPC   C4A44802   2.767   6.744   7.380
 3423POPC   C1B44803   2.603   6.143   6.183
 3423POPC   C2B44804   2.834   6.084   6.530
 3423POPC   C3B44805   2.822   6.335   6.881
 3423POPC   C4B44806   2.693   6.179   7.271
 3424POPC   NC344807  40.401  28.467   5.371
 3424POPC   PO444808  40.938  28.189   5.350
 3424POPC   GL144809  40.926  28.279   5.803
 3424POPC   GL244810  41.111  28.585   5.888
 3424POPC   C1A44811  40.575  28.337   6.111
 3424POPC   D2A44812  40.518  28.481   6.538
 3424POPC   C3A44813  40.768  28.367   6.902
 3424POPC   C4A44814  40.705  28.394   7.363
 3424POPC   C1B44815  41.043  28.369   6.305
 3424POPC   C2B44816  41.111  28.069   6.625
 3424POPC   C3B44817  41.251  28.155   7.036
 3424POPC   C4B44818  41.168  28.539   7.192
 3425POPC   NC344819  35.050   5.702   5.529
 3425POPC   PO444820  35.438   6.199   5.518
 3425POPC   GL144821  35.494   5.920   5.852
 3425POPC   GL244822  35.439   5.559   5.850
 3425POPC   C1A44823  35.209   5.871   6.191
 3425POPC   D2A44824  35.087   5.549   6.455
 3425POPC   C3A44825  35.160   5.742   6.830
 3425POPC   C4A44826  35.269   6.072   7.096
 3425POPC   C1B44827  35.609   5.566   6.289
 3425POPC   C2B44828  35.592   5.434   6.731
 3425POPC   C3B44829  35.502   5.549   7.159
 3425POPC   C4B44830  35.082   5.643   7.325
 3426POPC   NC344831  19.444  41.909   5.363
 3426POPC   PO444832  19.835  42.434   5.547
 3426POPC   GL144833  19.832  42.181   5.875
 3426POPC   GL244834  19.598  41.966   5.866
 3426POPC   C1A44835  19.812  42.408   6.264
 3426POPC   D2A44836  20.083  42.420   6.605
 3426POPC   C3A44837  19.896  42.567   6.949
 3426POPC   C4A44838  19.736  42.362   7.264
 3426POPC   C1B44839  19.730  41.913   6.311
 3426POPC   C2B44840  19.702  42.095   6.738
 3426POPC   C3B44841  19.412  42.003   7.078
 3426POPC   C4B44842  19.456  42.028   7.561
 3427POPC   NC344843   6.751  23.553   5.379
 3427POPC   PO444844   6.391  24.169   5.386
 3427POPC   GL144845   6.643  23.951   5.764
 3427POPC   GL244846   6.890  23.650   5.833
 3427POPC   C1A44847   6.645  23.792   6.230
 3427POPC   D2A44848   6.428  23.630   6.588
 3427POPC   C3A44849   6.577  23.847   6.947
 3427POPC   C4A44850   6.442  23.679   7.338
 3427POPC   C1B44851   7.095  23.517   6.198
 3427POPC   C2B44852   6.899  23.451   6.587
 3427POPC   C3B44853   6.788  23.401   6.999
 3427POPC   C4B44854   6.960  23.620   7.331
 3428POPC   NC344855  13.624  20.256   5.428
 3428POPC   PO444856  13.778  20.927   5.476
 3428POPC   GL144857  13.730  20.592   5.781
 3428POPC   GL244858  14.046  20.509   5.854
 3428POPC   C1A44859  13.676  20.387   6.196
 3428POPC   D2A44860  13.443  20.524   6.558
 3428POPC   C3A44861  13.667  20.674   6.939
 3428POPC   C4A44862  13.462  20.741   7.345
 3428POPC   C1B44863  13.972  20.818   6.177
 3428POPC   C2B44864  14.093  20.759   6.602
 3428POPC   C3B44865  14.227  20.683   7.007
 3428POPC   C4B44866  14.005  20.612   7.414
 3429POPC   NC344867  38.495   6.119   5.276
 3429POPC   PO444868  38.137   5.554   5.547
 3429POPC   GL144869  38.495   5.807   5.757
 3429POPC   GL244870  38.848   5.661   5.752
 3429POPC   C1A44871  38.390   5.972   6.199
 3429POPC   D2A44872  38.116   5.901   6.590
 3429POPC   C3A44873  38.293   5.936   7.013
 3429POPC   C4A44874  38.329   5.965   7.524
 3429POPC   C1B44875  38.847   5.724   6.237
 3429POPC   C2B44876  38.688   5.752   6.715
 3429POPC   C3B44877  38.652   5.677   7.221
 3429POPC   C4B44878  38.836   5.424   7.563
 3430POPC   NC344879  40.858   9.692   5.216
 3430POPC   PO444880  40.558   9.449   5.761
 3430POPC   GL144881  40.849   9.623   5.990
 3430POPC   GL244882  40.896   9.912   5.813
 3430POPC   C1A44883  40.965   9.484   6.371
 3430POPC   D2A44884  41.058   9.741   6.730
 3430POPC   C3A44885  40.722   9.718   7.029
 3430POPC   C4A44886  40.422   9.603   7.349
 3430POPC   C1B44887  40.606  10.088   6.142
 3430POPC   C2B44888  40.514  10.283   6.544
 3430POPC   C3B44889  40.707  10.222   6.923
 3430POPC   C4B44890  41.120  10.115   7.083
 3431POPC   NC344891  23.993  35.900   5.438
 3431POPC   PO444892  23.476  36.370   5.497
 3431POPC   GL144893  23.417  36.165   5.863
 3431POPC   GL244894  23.676  35.921   5.839
 3431POPC   C1A44895  23.567  36.206   6.252
 3431POPC   D2A44896  23.714  35.937   6.533
 3431POPC   C3A44897  23.685  36.092   6.951
 3431POPC   C4A44898  23.464  36.138   7.320
 3431POPC   C1B44899  24.058  35.980   6.120
 3431POPC   C2B44900  24.217  36.096   6.526
 3431POPC   C3B44901  24.204  36.011   6.967
 3431POPC   C4B44902  24.010  36.063   7.370
 3432POPC   NC344903  29.768   3.732   5.300
 3432POPC   PO444904  29.778   3.050   5.311
 3432POPC   GL144905  29.956   3.345   5.674
 3432POPC   GL244906  29.708   3.560   5.877
 3432POPC   C1A44907  30.137   3.477   6.114
 3432POPC   D2A44908  29.926   3.519   6.525
 3432POPC   C3A44909  30.018   3.391   6.933
 3432POPC   C4A44910  30.308   3.609   7.186
 3432POPC   C1B44911  29.687   3.865   6.239
 3432POPC   C2B44912  29.611   3.893   6.713
 3432POPC   C3B44913  29.694   3.708   7.146
 3432POPC   C4B44914  29.720   3.838   7.606
 3433POPC   NC344915  35.240  41.845   5.332
 3433POPC   PO444916  35.388  41.157   5.255
 3433POPC   GL144917  35.380  41.444   5.656
 3433POPC   GL244918  35.646  41.731   5.634
 3433POPC   C1A44919  35.179  41.597   6.087
 3433POPC   D2A44920  34.913  41.783   6.451
 3433POPC   C3A44921  35.080  41.778   6.887
 3433POPC   C4A44922  34.954  41.580   7.264
 3433POPC   C1B44923  35.667  41.862   6.051
 3433POPC   C2B44924  35.568  41.719   6.458
 3433POPC   C3B44925  35.729  41.858   6.841
 3433POPC   C4B44926  35.756  41.658   7.236
 3434POPC   NC344927  23.356   8.922   5.449
 3434POPC   PO444928  22.664   8.695   5.489
 3434POPC   GL144929  22.828   8.897   5.850
 3434POPC   GL244930  23.119   9.108   5.862
 3434POPC   C1A44931  22.891   8.895   6.285
 3434POPC   D2A44932  23.186   8.753   6.594
 3434POPC   C3A44933  23.025   8.908   6.987
 3434POPC   C4A44934  22.717   8.842   7.307
 3434POPC   C1B44935  23.319   9.179   6.285
 3434POPC   C2B44936  23.444   9.161   6.748
 3434POPC   C3B44937  23.422   9.143   7.208
 3434POPC   C4B44938  23.148   8.982   7.567
 3435POPC   NC344939  17.813  17.160   5.097
 3435POPC   PO444940  17.488  17.671   5.485
 3435POPC   GL144941  17.360  17.628   5.891
 3435POPC   GL244942  17.294  17.288   5.950
 3435POPC   C1A44943  17.529  17.699   6.300
 3435POPC   D2A44944  17.838  17.875   6.542
 3435POPC   C3A44945  17.648  17.817   6.931
 3435POPC   C4A44946  17.727  17.890   7.342
 3435POPC   C1B44947  17.528  17.191   6.313
 3435POPC   C2B44948  17.525  17.318   6.747
 3435POPC   C3B44949  17.455  17.394   7.175
 3435POPC   C4B44950  17.244  17.648   7.462
 3436POPC   NC344951  39.772   7.036   5.574
 3436POPC   PO444952  40.253   6.725   5.350
 3436POPC   GL144953  40.207   6.700   5.838
 3436POPC   GL244954  39.880   6.706   6.056
 3436POPC   C1A44955  40.258   6.363   6.194
 3436POPC   D2A44956  40.176   6.159   6.632
 3436POPC   C3A44957  40.192   6.465   6.995
 3436POPC   C4A44958  40.231   6.594   7.427
 3436POPC   C1B44959  39.628   7.047   6.265
 3436POPC   C2B44960  39.671   7.084   6.722
 3436POPC   C3B44961  39.729   6.741   7.062
 3436POPC   C4B44962  39.803   6.828   7.516
 3437POPC   NC344963   2.986  24.795   5.414
 3437POPC   PO444964   2.359  24.475   5.321
 3437POPC   GL144965   2.711  24.440   5.680
 3437POPC   GL244966   2.827  24.095   5.747
 3437POPC   C1A44967   2.829  24.666   6.113
 3437POPC   D2A44968   2.703  24.557   6.557
 3437POPC   C3A44969   2.897  24.687   6.963
 3437POPC   C4A44970   2.696  24.868   7.356
 3437POPC   C1B44971   2.609  24.212   6.169
 3437POPC   C2B44972   2.445  24.129   6.597
 3437POPC   C3B44973   2.310  24.274   6.997
 3437POPC   C4B44974   2.486  24.409   7.384
 3438POPC   NC344975  12.155  37.963   5.467
 3438POPC   PO444976  11.844  37.393   5.508
 3438POPC   GL144977  12.096  37.581   5.835
 3438POPC   GL244978  11.864  37.871   5.875
 3438POPC   C1A44979  12.285  37.613   6.268
 3438POPC   D2A44980  12.459  37.748   6.679
 3438POPC   C3A44981  12.239  37.581   7.024
 3438POPC   C4A44982  12.063  37.753   7.420
 3438POPC   C1B44983  11.767  37.694   6.247
 3438POPC   C2B44984  11.911  37.759   6.655
 3438POPC   C3B44985  11.729  37.671   7.050
 3438POPC   C4B44986  11.838  37.304   7.327
 3439POPC   NC344987  28.197  16.909   5.329
 3439POPC   PO444988  28.632  16.381   5.500
 3439POPC   GL144989  28.700  16.674   5.800
 3439POPC   GL244990  28.339  16.725   5.832
 3439POPC   C1A44991  28.707  16.729   6.239
 3439POPC   D2A44992  28.714  16.461   6.609
 3439POPC   C3A44993  28.452  16.561   6.978
 3439POPC   C4A44994  28.621  16.488   7.400
 3439POPC   C1B44995  28.175  16.633   6.259
 3439POPC   C2B44996  27.945  16.784   6.619
 3439POPC   C3B44997  27.933  16.678   7.037
 3439POPC   C4B44998  28.198  16.770   7.392
 3440POPC   NC344999  25.885  43.891   5.245
 3440POPC   PO445000  25.273  44.034   5.497
 3440POPC   GL145001  25.286  43.693   5.786
 3440POPC   GL245002  25.052  43.910   5.955
 3440POPC   C1A45003  25.107  43.471   6.180
 3440POPC   D2A45004  24.934  43.590   6.602
 3440POPC   C3A45005  25.148  43.718   6.964
 3440POPC   C4A45006  25.221  43.617   7.405
 3440POPC   C1B45007  25.032  44.030   6.376
 3440POPC   C2B45008  25.358  44.081   6.688
 3440POPC   C3B45009  25.491  44.034   7.104
 3440POPC   C4B45010  25.094  44.148   7.276
 3441POPC   NC345011   7.666  39.430   5.040
 3441POPC   PO445012   7.933  39.248   5.567
 3441POPC   GL145013   7.803  39.204   5.950
 3441POPC   GL245014   8.010  38.898   5.972
 3441POPC   C1A45015   7.463  39.286   6.290
 3441POPC   D2A45016   7.266  39.378   6.717
 3441POPC   C3A45017   7.242  39.034   7.028
 3441POPC   C4A45018   6.980  38.758   7.199
 3441POPC   C1B45019   7.941  39.113   6.410
 3441POPC   C2B45020   7.666  39.015   6.738
 3441POPC   C3B45021   7.726  39.048   7.189
 3441POPC   C4B45022   7.888  39.346   7.498
 3442POPC   NC345023  21.757  17.896   5.440
 3442POPC   PO445024  21.400  18.479   5.419
 3442POPC   GL145025  21.327  18.243   5.819
 3442POPC   GL245026  21.682  18.137   5.891
 3442POPC   C1A45027  21.240  18.296   6.290
 3442POPC   D2A45028  21.516  18.058   6.606
 3442POPC   C3A45029  21.426  18.187   6.983
 3442POPC   C4A45030  21.321  18.321   7.378
 3442POPC   C1B45031  21.736  18.391   6.268
 3442POPC   C2B45032  21.582  18.580   6.677
 3442POPC   C3B45033  21.738  18.543   7.129
 3442POPC   C4B45034  21.828  18.198   7.437
 3443POPC   NC345035  44.013  38.904   5.520
 3443POPC   PO445036  43.594  39.416   5.317
 3443POPC   GL145037  43.869  39.353   5.751
 3443POPC   GL245038  44.000  39.051   5.986
 3443POPC   C1A45039  43.900  39.471   6.227
 3443POPC   D2A45040  43.733  39.453   6.625
 3443POPC   C3A45041  43.669  39.107   6.850
 3443POPC   C4A45042  43.922  39.235   7.150
 3443POPC   C1B45043  43.907  38.896   6.406
 3443POPC   C2B45044  44.135  38.871   6.796
 3443POPC   C3B45045  44.270  38.874   7.186
 3443POPC   C4B45046  44.424  39.278   7.365
 3444POPC   NC345047  35.814  10.888   5.538
 3444POPC   PO445048  35.557  11.507   5.321
 3444POPC   GL145049  35.474  11.241   5.738
 3444POPC   GL245050  35.123  11.305   5.844
 3444POPC   C1A45051  35.430  11.035   6.199
 3444POPC   D2A45052  35.156  11.049   6.606
 3444POPC   C3A45053  35.298  11.160   7.031
 3444POPC   C4A45054  35.601  11.423   7.261
 3444POPC   C1B45055  35.243  11.493   6.248
 3444POPC   C2B45056  35.450  11.498   6.661
 3444POPC   C3B45057  35.279  11.727   7.030
 3444POPC   C4B45058  35.099  11.519   7.368
 3445POPC   NC345059  13.888  12.707   5.281
 3445POPC   PO445060  13.391  13.193   5.186
 3445POPC   GL145061  13.635  13.076   5.609
 3445POPC   GL245062  13.645  12.731   5.785
 3445POPC   C1A45063  13.714  13.134   6.090
 3445POPC   D2A45064  13.887  12.975   6.493
 3445POPC   C3A45065  13.648  13.029   6.857
 3445POPC   C4A45066  13.458  12.787   7.132
 3445POPC   C1B45067  13.920  12.597   6.125
 3445POPC   C2B45068  14.104  12.491   6.540
 3445POPC   C3B45069  13.988  12.632   6.965
 3445POPC   C4B45070  13.791  12.479   7.355
 3446POPC   NC345071  38.636  44.372   5.488
 3446POPC   PO445072  38.136  44.803   5.606
 3446POPC   GL145073  38.417  44.640   5.866
 3446POPC   GL245074  38.323  44.303   5.905
 3446POPC   C1A45075  38.558  44.719   6.256
 3446POPC   D2A45076  38.343  44.970   6.566
 3446POPC   C3A45077  38.391  44.808   6.988
 3446POPC   C4A45078  38.051  44.883   7.266
 3446POPC   C1B45079  38.719  44.244   6.175
 3446POPC   C2B45080  38.861  44.344   6.619
 3446POPC   C3B45081  38.636  44.334   7.039
 3446POPC   C4B45082  38.693  44.159   7.485
 3447POPC   NC345083  29.713  27.579   5.045
 3447POPC   PO445084  29.106  27.608   5.250
 3447POPC   GL145085  29.309  27.715   5.687
 3447POPC   GL245086  29.082  27.971   5.841
 3447POPC   C1A45087  29.309  27.558   6.138
 3447POPC   D2A45088  29.109  27.444   6.553
 3447POPC   C3A45089  29.346  27.528   6.940
 3447POPC   C4A45090  29.320  27.286   7.305
 3447POPC   C1B45091  28.895  27.824   6.249
 3447POPC   C2B45092  28.737  27.966   6.633
 3447POPC   C3B45093  28.895  27.988   7.042
 3447POPC   C4B45094  28.966  27.650   7.280
 3448POPC   NC345095  28.744   3.914   5.631
 3448POPC   PO445096  29.364   3.714   5.529
 3448POPC   GL145097  29.089   3.519   5.832
 3448POPC   GL245098  29.226   3.728   6.062
 3448POPC   C1A45099  28.916   3.382   6.262
 3448POPC   D2A45100  29.035   3.597   6.648
 3448POPC   C3A45101  28.791   3.748   7.024
 3448POPC   C4A45102  28.841   3.670   7.468
 3448POPC   C1B45103  29.447   3.415   6.311
 3448POPC   C2B45104  29.486   3.416   6.774
 3448POPC   C3B45105  29.202   3.441   7.113
 3448POPC   C4B45106  29.350   3.533   7.481
 3449POPC   NC345107  15.108  33.922   5.274
 3449POPC   PO445108  15.671  33.706   5.401
 3449POPC   GL145109  15.413  33.669   5.762
 3449POPC   GL245110  15.065  33.760   5.752
 3449POPC   C1A45111  15.540  33.780   6.181
 3449POPC   D2A45112  15.534  33.563   6.568
 3449POPC   C3A45113  15.604  33.737   6.946
 3449POPC   C4A45114  15.475  33.538   7.324
 3449POPC   C1B45115  15.054  34.018   6.111
 3449POPC   C2B45116  15.118  33.864   6.525
 3449POPC   C3B45117  15.099  33.765   6.955
 3449POPC   C4B45118  15.276  33.989   7.270
 3450POPC   NC345119  19.818  34.861   5.878
 3450POPC   PO445120  20.362  34.663   5.488
 3450POPC   GL145121  20.145  34.392   5.829
 3450POPC   GL245122  19.755  34.348   5.852
 3450POPC   C1A45123  20.109  34.377   6.297
 3450POPC   D2A45124  20.032  34.403   6.753
 3450POPC   C3A45125  19.902  34.794   6.933
 3450POPC   C4A45126  19.762  34.849   7.347
 3450POPC   C1B45127  19.435  34.432   6.207
 3450POPC   C2B45128  19.422  34.670   6.626
 3450POPC   C3B45129  19.466  34.539   7.061
 3450POPC   C4B45130  19.400  34.261   7.447
 3451POPC   NC345131  14.093  44.919   5.381
 3451POPC   PO445132  14.405  44.330   5.393
 3451POPC   GL145133  14.284  44.552   5.795
 3451POPC   GL245134  14.438  44.859   5.801
 3451POPC   C1A45135  14.331  44.580   6.277
 3451POPC   D2A45136  14.106  44.441   6.684
 3451POPC   C3A45137  14.375  44.449   7.053
 3451POPC   C4A45138  14.603  44.829   7.133
 3451POPC   C1B45139  14.057  44.965   6.048
 3451POPC   C2B45140  13.942  44.919   6.472
 3451POPC   C3B45141  14.142  44.914   6.878
 3451POPC   C4B45142  13.924   0.006   7.223
 3452POPC   NC345143  26.754  39.410   5.383
 3452POPC   PO445144  26.982  38.824   5.250
 3452POPC   GL145145  27.037  39.048   5.695
 3452POPC   GL245146  26.977  39.413   5.830
 3452POPC   C1A45147  26.975  39.025   6.171
 3452POPC   D2A45148  26.918  39.223   6.575
 3452POPC   C3A45149  26.746  39.057   6.962
 3452POPC   C4A45150  26.805  39.175   7.386
 3452POPC   C1B45151  27.096  39.715   6.165
 3452POPC   C2B45152  26.878  39.754   6.563
 3452POPC   C3B45153  26.917  39.552   6.975
 3452POPC   C4B45154  27.147  39.558   7.353
 3453POPC   NC345155  10.834  14.811   5.309
 3453POPC   PO445156  10.367  15.290   5.332
 3453POPC   GL145157  10.566  15.056   5.748
 3453POPC   GL245158  10.910  14.928   5.795
 3453POPC   C1A45159  10.344  14.935   6.151
 3453POPC   D2A45160  10.355  15.159   6.532
 3453POPC   C3A45161  10.366  14.958   6.901
 3453POPC   C4A45162  10.195  15.201   7.212
 3453POPC   C1B45163  10.810  15.138   6.220
 3453POPC   C2B45164  10.946  15.146   6.663
 3453POPC   C3B45165  10.933  15.057   7.107
 3453POPC   C4B45166  10.648  15.205   7.442
 3454POPC   NC345167  14.708  40.232   5.255
 3454POPC   PO445168  14.265  39.761   5.347
 3454POPC   GL145169  14.348  39.966   5.740
 3454POPC   GL245170  14.507  40.323   5.735
 3454POPC   C1A45171  14.196  39.838   6.160
 3454POPC   D2A45172  14.222  40.122   6.522
 3454POPC   C3A45173  14.052  40.111   6.916
 3454POPC   C4A45174  14.145  39.780   7.203
 3454POPC   C1B45175  14.618  40.160   6.164
 3454POPC   C2B45176  14.733  40.214   6.596
 3454POPC   C3B45177  14.569  40.177   7.013
 3454POPC   C4B45178  14.299  40.259   7.347
 3455POPC   NC345179  17.672  11.969   5.548
 3455POPC   PO445180  17.994  12.439   5.222
 3455POPC   GL145181  17.848  12.442   5.712
 3455POPC   GL245182  17.503  12.413   5.806
 3455POPC   C1A45183  17.838  12.289   6.205
 3455POPC   D2A45184  17.651  12.412   6.655
 3455POPC   C3A45185  17.639  12.135   7.022
 3455POPC   C4A45186  17.790  12.129   7.435
 3455POPC   C1B45187  17.383  12.531   6.226
 3455POPC   C2B45188  17.123  12.354   6.583
 3455POPC   C3B45189  17.101  12.451   7.020
 3455POPC   C4B45190  17.295  12.317   7.418
 3456POPC   NC345191  14.105  16.851   5.548
 3456POPC   PO445192  13.608  16.370   5.623
 3456POPC   GL145193  13.673  16.743   5.908
 3456POPC   GL245194  14.007  16.776   6.039
 3456POPC   C1A45195  13.643  16.824   6.378
 3456POPC   D2A45196  13.842  16.595   6.732
 3456POPC   C3A45197  13.741  16.733   7.137
 3456POPC   C4A45198  13.314  16.918   7.167
 3456POPC   C1B45199  13.865  16.358   6.251
 3456POPC   C2B45200  13.763  16.103   6.631
 3456POPC   C3B45201  13.620  16.226   7.032
 3456POPC   C4B45202  13.403  16.404   7.383
 3457POPC   NC345203  43.468  30.090   5.527
 3457POPC   PO445204  43.090  29.605   5.359
 3457POPC   GL145205  43.043  29.872   5.755
 3457POPC   GL245206  42.753  30.096   5.767
 3457POPC   C1A45207  43.074  29.973   6.200
 3457POPC   D2A45208  43.186  29.788   6.587
 3457POPC   C3A45209  42.994  30.006   6.887
 3457POPC   C4A45210  43.154  30.131   7.273
 3457POPC   C1B45211  42.701  30.354   6.148
 3457POPC   C2B45212  42.620  30.225   6.592
 3457POPC   C3B45213  42.600  30.335   7.027
 3457POPC   C4B45214  42.795  30.440   7.411
 3458POPC   NC345215  36.539  40.706   5.453
 3458POPC   PO445216  37.113  40.935   5.185
 3458POPC   GL145217  37.022  40.819   5.687
 3458POPC   GL245218  36.733  40.989   5.845
 3458POPC   C1A45219  36.799  40.586   6.130
 3458POPC   D2A45220  36.666  40.406   6.573
 3458POPC   C3A45221  36.818  40.581   7.006
 3458POPC   C4A45222  36.705  40.995   7.236
 3458POPC   C1B45223  37.117  40.971   6.158
 3458POPC   C2B45224  37.263  41.096   6.528
 3458POPC   C3B45225  37.032  41.206   6.875
 3458POPC   C4B45226  37.150  41.273   7.293
 3459POPC   NC345227  28.747  36.506   5.399
 3459POPC   PO445228  28.659  35.829   5.419
 3459POPC   GL145229  28.507  36.145   5.719
 3459POPC   GL245230  28.197  36.283   5.673
 3459POPC   C1A45231  28.560  36.285   6.168
 3459POPC   D2A45232  28.462  36.120   6.581
 3459POPC   C3A45233  28.648  36.226   6.966
 3459POPC   C4A45234  28.416  36.186   7.304
 3459POPC   C1B45235  28.123  36.050   6.104
 3459POPC   C2B45236  27.978  35.992   6.577
 3459POPC   C3B45237  27.982  36.107   7.029
 3459POPC   C4B45238  28.039  35.842   7.423
 3460POPC   NC345239  41.264  26.406   5.542
 3460POPC   PO445240  41.367  25.794   5.267
 3460POPC   GL145241  41.542  25.966   5.692
 3460POPC   GL245242  41.764  26.293   5.643
 3460POPC   C1A45243  41.471  25.919   6.173
 3460POPC   D2A45244  41.530  25.703   6.592
 3460POPC   C3A45245  41.363  25.755   7.032
 3460POPC   C4A45246  41.643  25.885   7.313
 3460POPC   C1B45247  41.670  26.377   6.066
 3460POPC   C2B45248  41.633  26.376   6.491
 3460POPC   C3B45249  41.605  26.199   6.872
 3460POPC   C4B45250  41.703  26.375   7.247
 3461POPC   NC345251  16.253  32.609   5.540
 3461POPC   PO445252  15.878  33.085   5.193
 3461POPC   GL145253  16.110  33.137   5.638
 3461POPC   GL245254  15.884  33.101   5.929
 3461POPC   C1A45255  16.363  33.065   6.062
 3461POPC   D2A45256  16.363  33.212   6.480
 3461POPC   C3A45257  16.094  33.012   6.776
 3461POPC   C4A45258  16.189  32.968   7.191
 3461POPC   C1B45259  15.573  33.190   6.223
 3461POPC   C2B45260  15.498  33.053   6.624
 3461POPC   C3B45261  15.670  33.219   6.972
 3461POPC   C4B45262  15.746  33.103   7.375
 3462POPC   NC345263  33.324  16.632   5.368
 3462POPC   PO445264  32.796  16.964   5.513
 3462POPC   GL145265  33.037  16.794   5.811
 3462POPC   GL245266  32.801  16.533   5.858
 3462POPC   C1A45267  33.186  16.828   6.229
 3462POPC   D2A45268  33.019  16.780   6.657
 3462POPC   C3A45269  33.292  16.594   6.962
 3462POPC   C4A45270  33.504  16.653   7.379
 3462POPC   C1B45271  32.700  16.613   6.276
 3462POPC   C2B45272  32.632  16.440   6.686
 3462POPC   C3B45273  32.732  16.445   7.118
 3462POPC   C4B45274  33.063  16.406   7.382
 3463POPC   NC345275  44.049  44.875   5.339
 3463POPC   PO445276  43.627  44.456   5.519
 3463POPC   GL145277  43.979  44.561   5.764
 3463POPC   GL245278  43.883  44.887   5.849
 3463POPC   C1A45279  43.963  44.473   6.198
 3463POPC   D2A45280  44.045  44.616   6.603
 3463POPC   C3A45281  44.001  44.401   7.027
 3463POPC   C4A45282  43.909  44.498   7.483
 3463POPC   C1B45283  43.993   0.047   6.292
 3463POPC   C2B45284  44.045   0.091   6.765
 3463POPC   C3B45285  43.964  44.913   7.190
 3463POPC   C4B45286  44.058  44.951   7.678
 3464POPC   NC345287  17.990   1.220   5.496
 3464POPC   PO445288  17.482   0.929   5.098
 3464POPC   GL145289  17.366   1.111   5.549
 3464POPC   GL245290  17.544   1.424   5.626
 3464POPC   C1A45291  17.287   1.217   6.022
 3464POPC   D2A45292  17.298   1.599   6.314
 3464POPC   C3A45293  17.296   1.518   6.785
 3464POPC   C4A45294  17.380   1.177   7.109
 3464POPC   C1B45295  17.744   1.463   6.054
 3464POPC   C2B45296  17.752   1.430   6.508
 3464POPC   C3B45297  17.808   1.429   6.935
 3464POPC   C4B45298  17.886   1.254   7.329
 3465POPC   NC345299  32.030  27.233   5.171
 3465POPC   PO445300  32.136  26.603   5.501
 3465POPC   GL145301  32.265  26.657   5.924
 3465POPC   GL245302  32.549  26.427   5.977
 3465POPC   C1A45303  32.230  26.988   6.257
 3465POPC   D2A45304  32.109  27.229   6.613
 3465POPC   C3A45305  32.304  27.142   6.977
 3465POPC   C4A45306  32.720  27.234   7.168
 3465POPC   C1B45307  32.397  26.429   6.377
 3465POPC   C2B45308  32.259  26.680   6.695
 3465POPC   C3B45309  32.154  26.690   7.135
 3465POPC   C4B45310  32.126  27.004   7.460
 3466POPC   NC345311  34.153   2.581   5.387
 3466POPC   PO445312  34.864   2.776   5.291
 3466POPC   GL145313  34.842   2.858   5.741
 3466POPC   GL245314  34.488   2.977   5.822
 3466POPC   C1A45315  34.876   2.630   6.172
 3466POPC   D2A45316  34.921   2.815   6.614
 3466POPC   C3A45317  34.774   2.588   6.988
 3466POPC   C4A45318  34.938   2.436   7.386
 3466POPC   C1B45319  34.559   3.024   6.299
 3466POPC   C2B45320  34.392   2.854   6.727
 3466POPC   C3B45321  34.237   3.089   7.123
 3466POPC   C4B45322  34.280   3.124   7.580
 3467POPC   NC345323  27.761  41.445   5.533
 3467POPC   PO445324  27.214  41.768   5.266
 3467POPC   GL145325  27.308  41.584   5.719
 3467POPC   GL245326  27.513  41.811   5.927
 3467POPC   C1A45327  27.500  41.363   6.155
 3467POPC   D2A45328  27.768  41.315   6.570
 3467POPC   C3A45329  27.589  41.275   6.985
 3467POPC   C4A45330  27.265  41.527   7.137
 3467POPC   C1B45331  27.852  41.729   6.259
 3467POPC   C2B45332  27.797  41.835   6.668
 3467POPC   C3B45333  27.646  41.839   7.041
 3467POPC   C4B45334  27.892  41.882   7.369
 3468POPC   NC345335  16.691   7.103   5.567
 3468POPC   PO445336  16.346   7.698   5.599
 3468POPC   GL145337  16.701   7.611   5.886
 3468POPC   GL245338  16.713   7.266   6.041
 3468POPC   C1A45339  16.933   7.634   6.297
 3468POPC   D2A45340  17.071   7.532   6.706
 3468POPC   C3A45341  16.744   7.640   6.991
 3468POPC   C4A45342  16.647   7.534   7.388
 3468POPC   C1B45343  17.002   7.106   6.366
 3468POPC   C2B45344  16.987   6.897   6.734
 3468POPC   C3B45345  16.850   7.131   7.049
 3468POPC   C4B45346  17.062   7.217   7.393
 3469POPC   NC345347  44.519   7.801   5.525
 3469POPC   PO445348  44.678   8.481   5.582
 3469POPC   GL145349  44.526   8.174   5.891
 3469POPC   GL245350  44.202   8.347   5.948
 3469POPC   C1A45351  44.715   8.007   6.297
 3469POPC   D2A45352  44.935   8.194   6.686
 3469POPC   C3A45353  44.792   8.149   7.126
 3469POPC   C4A45354  44.927   8.383   7.553
 3469POPC   C1B45355  44.234   8.165   6.347
 3469POPC   C2B45356  44.391   7.968   6.737
 3469POPC   C3B45357  44.290   8.159   7.131
 3469POPC   C4B45358  44.427   8.554   7.390
 3470POPC   NC345359  27.187  17.469   5.408
 3470POPC   PO445360  27.814  17.199   5.223
 3470POPC   GL145361  27.703  17.272   5.667
 3470POPC   GL245362  28.018  17.152   5.765
 3470POPC   C1A45363  27.437  17.446   6.055
 3470POPC   D2A45364  27.607  17.563   6.482
 3470POPC   C3A45365  27.425  17.655   6.896
 3470POPC   C4A45366  27.515  17.555   7.325
 3470POPC   C1B45367  27.958  17.404   6.136
 3470POPC   C2B45368  28.072  17.336   6.554
 3470POPC   C3B45369  27.869  17.401   6.942
 3470POPC   C4B45370  27.801  17.123   7.270
 3471POPC   NC345371  32.132  18.518   5.379
 3471POPC   PO445372  32.434  17.955   5.577
 3471POPC   GL145373  32.311  18.336   5.817
 3471POPC   GL245374  31.971  18.473   5.872
 3471POPC   C1A45375  32.401  18.375   6.220
 3471POPC   D2A45376  32.226  18.192   6.564
 3471POPC   C3A45377  32.349  18.454   6.888
 3471POPC   C4A45378  32.558  18.342   7.232
 3471POPC   C1B45379  31.933  18.536   6.322
 3471POPC   C2B45380  31.841  18.500   6.756
 3471POPC   C3B45381  31.933  18.312   7.147
 3471POPC   C4B45382  32.168  18.630   7.396
 3472POPC   NC345383  21.326  27.425   5.722
 3472POPC   PO445384  21.770  27.845   5.467
 3472POPC   GL145385  21.598  27.844   5.896
 3472POPC   GL245386  21.267  27.950   5.861
 3472POPC   C1A45387  21.486  27.701   6.363
 3472POPC   D2A45388  21.114  27.483   6.609
 3472POPC   C3A45389  21.140  27.335   7.050
 3472POPC   C4A45390  21.523  27.364   7.274
 3472POPC   C1B45391  21.385  28.190   6.248
 3472POPC   C2B45392  21.464  28.148   6.671
 3472POPC   C3B45393  21.428  27.771   6.933
 3472POPC   C4B45394  21.213  27.771   7.352
 3473POPC   NC345395  38.121   8.972   5.505
 3473POPC   PO445396  38.836   9.195   5.448
 3473POPC   GL145397  38.673   8.904   5.728
 3473POPC   GL245398  38.921   8.988   5.956
 3473POPC   C1A45399  38.428   8.833   6.101
 3473POPC   D2A45400  38.088   8.891   6.393
 3473POPC   C3A45401  38.157   8.883   6.831
 3473POPC   C4A45402  38.265   8.828   7.253
 3473POPC   C1B45403  38.762   9.120   6.366
 3473POPC   C2B45404  38.700   8.888   6.754
 3473POPC   C3B45405  38.721   9.027   7.171
 3473POPC   C4B45406  38.477   9.223   7.523
 3474POPC   NC345407   2.155  17.767   5.434
 3474POPC   PO445408   2.338  17.144   5.772
 3474POPC   GL145409   2.134  17.499   5.866
 3474POPC   GL245410   1.867  17.309   5.955
 3474POPC   C1A45411   1.927  17.762   6.201
 3474POPC   D2A45412   2.131  17.997   6.564
 3474POPC   C3A45413   2.074  17.743   6.930
 3474POPC   C4A45414   1.748  17.493   7.123
 3474POPC   C1B45415   2.169  17.339   6.353
 3474POPC   C2B45416   2.047  17.220   6.731
 3474POPC   C3B45417   2.224  17.249   7.094
 3474POPC   C4B45418   2.385  17.524   7.273
 3475POPC   NC345419  31.354  29.386   5.442
 3475POPC   PO445420  31.466  30.075   5.566
 3475POPC   GL145421  31.401  29.719   5.839
 3475POPC   GL245422  31.080  29.738   5.790
 3475POPC   C1A45423  31.556  29.713   6.254
 3475POPC   D2A45424  31.598  29.980   6.589
 3475POPC   C3A45425  31.536  29.817   6.987
 3475POPC   C4A45426  31.735  29.970   7.390
 3475POPC   C1B45427  31.096  30.007   6.147
 3475POPC   C2B45428  31.055  29.953   6.577
 3475POPC   C3B45429  31.185  30.178   6.928
 3475POPC   C4B45430  31.249  30.061   7.321
 3476POPC   NC345431  14.986  16.281   5.332
 3476POPC   PO445432  15.104  15.534   5.269
 3476POPC   GL145433  15.247  15.773   5.672
 3476POPC   GL245434  14.993  16.011   5.752
 3476POPC   C1A45435  15.263  15.933   6.156
 3476POPC   D2A45436  15.095  15.787   6.550
 3476POPC   C3A45437  15.162  16.029   6.912
 3476POPC   C4A45438  15.339  15.901   7.316
 3476POPC   C1B45439  14.776  16.094   6.132
 3476POPC   C2B45440  14.787  16.235   6.526
 3476POPC   C3B45441  14.639  16.098   6.912
 3476POPC   C4B45442  14.810  15.914   7.279
 3477POPC   NC345443   5.271  19.416   5.586
 3477POPC   PO445444   5.053  20.093   5.627
 3477POPC   GL145445   4.939  19.733   5.803
 3477POPC   GL245446   4.629  19.617   5.719
 3477POPC   C1A45447   5.125  19.652   6.175
 3477POPC   D2A45448   5.268  19.870   6.489
 3477POPC   C3A45449   5.272  19.632   6.847
 3477POPC   C4A45450   5.466  19.721   7.236
 3477POPC   C1B45451   4.612  19.762   6.180
 3477POPC   C2B45452   4.783  19.758   6.598
 3477POPC   C3B45453   4.885  19.937   6.993
 3477POPC   C4B45454   4.833  19.716   7.348
 3478POPC   NC345455  18.959  34.532   5.257
 3478POPC   PO445456  19.565  34.699   5.532
 3478POPC   GL145457  19.230  34.462   5.713
 3478POPC   GL245458  18.976  34.716   5.771
 3478POPC   C1A45459  18.942  34.275   6.023
 3478POPC   D2A45460  18.736  34.256   6.451
 3478POPC   C3A45461  19.022  34.365   6.799
 3478POPC   C4A45462  19.005  34.475   7.233
 3478POPC   C1B45463  18.653  34.687   6.144
 3478POPC   C2B45464  18.789  34.818   6.565
 3478POPC   C3B45465  19.033  34.871   6.929
 3478POPC   C4B45466  19.238  34.947   7.324
 3479POPC   NC345467  11.415  26.499   5.395
 3479POPC   PO445468  11.531  27.124   5.124
 3479POPC   GL145469  11.285  27.042   5.590
 3479POPC   GL245470  11.268  26.707   5.823
 3479POPC   C1A45471  11.321  27.136   6.073
 3479POPC   D2A45472  11.158  26.911   6.460
 3479POPC   C3A45473  11.386  26.913   6.847
 3479POPC   C4A45474  11.455  27.061   7.267
 3479POPC   C1B45475  11.070  26.486   6.190
 3479POPC   C2B45476  10.826  26.517   6.589
 3479POPC   C3B45477  10.912  26.562   7.032
 3479POPC   C4B45478  11.291  26.562   7.205
 3480POPC   NC345479  31.894  39.037   5.491
 3480POPC   PO445480  31.249  39.197   5.416
 3480POPC   GL145481  31.343  39.379   5.804
 3480POPC   GL245482  31.715  39.388   5.831
 3480POPC   C1A45483  31.331  39.193   6.206
 3480POPC   D2A45484  31.144  39.216   6.588
 3480POPC   C3A45485  31.359  39.036   6.887
 3480POPC   C4A45486  31.314  39.198   7.273
 3480POPC   C1B45487  31.866  39.207   6.219
 3480POPC   C2B45488  31.712  39.328   6.620
 3480POPC   C3B45489  31.728  39.358   7.057
 3480POPC   C4B45490  31.760  39.585   7.429
 3481POPC   NC345491  31.995   6.457   5.468
 3481POPC   PO445492  32.483   6.934   5.414
 3481POPC   GL145493  32.291   6.750   5.780
 3481POPC   GL245494  32.004   6.902   5.889
 3481POPC   C1A45495  32.265   6.480   6.146
 3481POPC   D2A45496  32.310   6.575   6.573
 3481POPC   C3A45497  32.473   6.384   6.938
 3481POPC   C4A45498  32.412   6.598   7.335
 3481POPC   C1B45499  32.144   6.964   6.287
 3481POPC   C2B45500  31.957   6.944   6.669
 3481POPC   C3B45501  31.905   7.006   7.085
 3481POPC   C4B45502  32.043   6.964   7.496
 3482POPC   NC345503  32.061   7.161   5.435
 3482POPC   PO445504  32.459   7.768   5.316
 3482POPC   GL145505  32.282   7.562   5.693
 3482POPC   GL245506  32.447   7.260   5.780
 3482POPC   C1A45507  32.145   7.450   6.128
 3482POPC   D2A45508  31.958   7.527   6.544
 3482POPC   C3A45509  32.205   7.408   6.888
 3482POPC   C4A45510  32.066   7.444   7.299
 3482POPC   C1B45511  32.610   7.038   6.127
 3482POPC   C2B45512  32.546   7.131   6.558
 3482POPC   C3B45513  32.422   6.928   6.922
 3482POPC   C4B45514  32.453   7.113   7.278
 3483POPC   NC345515  34.479   0.329   5.211
 3483POPC   PO445516  35.058   0.655   5.372
 3483POPC   GL145517  34.710   0.516   5.638
 3483POPC   GL245518  34.464   0.748   5.708
 3483POPC   C1A45519  34.547   0.296   6.013
 3483POPC   D2A45520  34.366   0.254   6.455
 3483POPC   C3A45521  34.408   0.149   6.899
 3483POPC   C4A45522  34.392   0.382   7.303
 3483POPC   C1B45523  34.667   0.773   6.123
 3483POPC   C2B45524  34.821   0.551   6.509
 3483POPC   C3B45525  34.611   0.642   6.915
 3483POPC   C4B45526  34.749   0.715   7.360
 3484POPC   NC345527   1.773  21.524   5.303
 3484POPC   PO445528   2.420  21.261   5.357
 3484POPC   GL145529   2.066  21.275   5.647
 3484POPC   GL245530   1.880  20.972   5.631
 3484POPC   C1A45531   1.898  21.583   5.973
 3484POPC   D2A45532   1.851  21.794   6.404
 3484POPC   C3A45533   1.752  21.601   6.798
 3484POPC   C4A45534   1.867  21.713   7.217
 3484POPC   C1B45535   1.956  20.998   6.071
 3484POPC   C2B45536   1.896  21.228   6.454
 3484POPC   C3B45537   1.963  21.161   6.904
 3484POPC   C4B45538   1.723  21.244   7.252
 3485POPC   NC345539  26.346  36.546   5.346
 3485POPC   PO445540  26.637  35.985   5.529
 3485POPC   GL145541  26.755  36.181   5.847
 3485POPC   GL245542  26.646  36.523   5.784
 3485POPC   C1A45543  26.907  36.088   6.250
 3485POPC   D2A45544  26.980  36.261   6.667
 3485POPC   C3A45545  27.030  35.932   6.978
 3485POPC   C4A45546  26.906  35.944   7.380
 3485POPC   C1B45547  26.479  36.403   6.202
 3485POPC   C2B45548  26.416  36.307   6.659
 3485POPC   C3B45549  26.670  36.430   7.037
 3485POPC   C4B45550  26.652  36.381   7.473
 3486POPC   NC345551  33.504   2.948   5.448
 3486POPC   PO445552  34.179   3.111   5.398
 3486POPC   GL145553  33.928   3.041   5.763
 3486POPC   GL245554  33.855   2.690   5.794
 3486POPC   C1A45555  34.053   2.933   6.199
 3486POPC   D2A45556  33.929   2.625   6.523
 3486POPC   C3A45557  33.975   2.678   6.990
 3486POPC   C4A45558  33.717   3.023   7.187
 3486POPC   C1B45559  33.541   2.782   6.105
 3486POPC   C2B45560  33.406   2.573   6.471
 3486POPC   C3B45561  33.495   2.690   6.860
 3486POPC   C4B45562  33.576   2.517   7.284
 3487POPC   NC345563  19.226  30.516   5.385
 3487POPC   PO445564  19.012  31.067   5.335
 3487POPC   GL145565  19.236  30.917   5.726
 3487POPC   GL245566  19.418  31.202   5.860
 3487POPC   C1A45567  19.202  30.791   6.212
 3487POPC   D2A45568  18.907  30.705   6.629
 3487POPC   C3A45569  19.004  30.454   7.057
 3487POPC   C4A45570  19.249  30.231   7.415
 3487POPC   C1B45571  19.406  31.258   6.344
 3487POPC   C2B45572  19.321  31.007   6.698
 3487POPC   C3B45573  19.242  31.034   7.141
 3487POPC   C4B45574  19.135  30.738   7.461
 3488POPC   NC345575  24.555   4.701   5.484
 3488POPC   PO445576  24.252   5.231   5.528
 3488POPC   GL145577  24.455   5.037   5.835
 3488POPC   GL245578  24.153   4.822   5.848
 3488POPC   C1A45579  24.681   4.800   6.179
 3488POPC   D2A45580  24.682   4.657   6.634
 3488POPC   C3A45581  24.625   5.008   6.969
 3488POPC   C4A45582  24.380   5.106   7.358
 3488POPC   C1B45583  24.230   5.052   6.260
 3488POPC   C2B45584  24.248   4.943   6.621
 3488POPC   C3B45585  24.116   5.172   6.924
 3488POPC   C4B45586  23.899   4.966   7.164
 3489POPC   NC345587  36.264  18.563   5.363
 3489POPC   PO445588  36.337  19.217   5.326
 3489POPC   GL145589  36.331  18.980   5.720
 3489POPC   GL245590  36.526  19.270   5.811
 3489POPC   C1A45591  36.163  18.999   6.157
 3489POPC   D2A45592  35.853  19.030   6.531
 3489POPC   C3A45593  36.013  19.063   6.992
 3489POPC   C4A45594  35.996  19.407   7.315
 3489POPC   C1B45595  36.498  19.386   6.232
 3489POPC   C2B45596  36.329  19.241   6.598
 3489POPC   C3B45597  36.365  19.453   6.964
 3489POPC   C4B45598  36.562  19.244   7.239
 3490POPC   NC345599   8.867  39.505   5.238
 3490POPC   PO445600   8.795  38.773   5.390
 3490POPC   GL145601   8.967  39.111   5.692
 3490POPC   GL245602   8.874  39.459   5.745
 3490POPC   C1A45603   9.040  39.192   6.153
 3490POPC   D2A45604   9.280  39.224   6.548
 3490POPC   C3A45605   9.109  39.051   6.951
 3490POPC   C4A45606   8.995  39.053   7.408
 3490POPC   C1B45607   8.748  39.632   6.178
 3490POPC   C2B45608   8.901  39.569   6.629
 3490POPC   C3B45609   8.773  39.443   7.050
 3490POPC   C4B45610   8.607  39.728   7.329
 3491POPC   NC345611   4.740  41.334   5.392
 3491POPC   PO445612   5.325  41.727   5.406
 3491POPC   GL145613   5.159  41.458   5.749
 3491POPC   GL245614   5.318  41.112   5.772
 3491POPC   C1A45615   4.994  41.655   6.158
 3491POPC   D2A45616   4.828  41.833   6.550
 3491POPC   C3A45617   5.044  41.762   6.932
 3491POPC   C4A45618   5.047  41.433   7.231
 3491POPC   C1B45619   5.233  41.224   6.230
 3491POPC   C2B45620   5.238  41.378   6.642
 3491POPC   C3B45621   5.454  41.241   6.999
 3491POPC   C4B45622   5.545  41.395   7.411
 3492POPC   NC345623   5.206   4.749   5.512
 3492POPC   PO445624   4.950   4.101   5.469
 3492POPC   GL145625   5.098   4.368   5.813
 3492POPC   GL245626   4.877   4.621   5.882
 3492POPC   C1A45627   5.235   4.319   6.230
 3492POPC   D2A45628   5.100   4.009   6.531
 3492POPC   C3A45629   5.008   4.158   6.926
 3492POPC   C4A45630   5.049   4.103   7.347
 3492POPC   C1B45631   5.042   4.807   6.212
 3492POPC   C2B45632   5.292   4.800   6.568
 3492POPC   C3B45633   5.063   4.710   6.917
 3492POPC   C4B45634   5.009   4.592   7.276
 3493POPC   NC345635  12.151  34.865   5.484
 3493POPC   PO445636  12.425  34.283   5.268
 3493POPC   GL145637  12.290  34.335   5.744
 3493POPC   GL245638  11.970  34.352   5.826
 3493POPC   C1A45639  12.339  34.288   6.217
 3493POPC   D2A45640  12.423  34.496   6.637
 3493POPC   C3A45641  12.177  34.524   6.999
 3493POPC   C4A45642  12.022  34.124   7.099
 3493POPC   C1B45643  12.014  34.690   6.159
 3493POPC   C2B45644  12.042  34.859   6.589
 3493POPC   C3B45645  11.847  35.003   6.954
 3493POPC   C4B45646  11.823  34.775   7.336
 3494POPC   NC345647  20.241  29.224   5.446
 3494POPC   PO445648  19.755  28.828   5.370
 3494POPC   GL145649  19.862  29.076   5.758
 3494POPC   GL245650  19.610  29.245   5.923
 3494POPC   C1A45651  19.979  28.981   6.192
 3494POPC   D2A45652  20.163  29.114   6.550
 3494POPC   C3A45653  20.016  29.017   6.937
 3494POPC   C4A45654  20.258  29.229   7.232
 3494POPC   C1B45655  19.747  29.448   6.292
 3494POPC   C2B45656  19.704  29.363   6.702
 3494POPC   C3B45657  19.853  29.502   7.063
 3494POPC   C4B45658  19.782  29.215   7.374
 3495POPC   NC345659   6.872  20.573   5.671
 3495POPC   PO445660   6.241  20.402   5.401
 3495POPC   GL145661   6.416  20.382   5.800
 3495POPC   GL245662   6.412  20.713   5.871
 3495POPC   C1A45663   6.477  20.258   6.237
 3495POPC   D2A45664   6.745  20.298   6.610
 3495POPC   C3A45665   6.767  20.464   7.074
 3495POPC   C4A45666   7.102  20.763   7.237
 3495POPC   C1B45667   6.661  20.745   6.268
 3495POPC   C2B45668   6.614  20.779   6.705
 3495POPC   C3B45669   6.665  20.998   7.091
 3495POPC   C4B45670   6.535  21.079   7.505
 3496POPC   NC345671  23.653  36.822   5.505
 3496POPC   PO445672  23.979  37.426   5.631
 3496POPC   GL145673  23.778  37.173   5.915
 3496POPC   GL245674  23.442  37.188   5.910
 3496POPC   C1A45675  23.697  37.121   6.367
 3496POPC   D2A45676  23.586  37.148   6.791
 3496POPC   C3A45677  23.775  36.911   7.096
 3496POPC   C4A45678  23.797  37.009   7.522
 3496POPC   C1B45679  23.486  36.735   6.118
 3496POPC   C2B45680  23.420  36.623   6.549
 3496POPC   C3B45681  23.373  36.571   6.989
 3496POPC   C4B45682  23.495  36.618   7.433
 3497POPC   NC345683  30.429  34.320   5.551
 3497POPC   PO445684  30.903  34.794   5.494
 3497POPC   GL145685  30.954  34.647   5.897
 3497POPC   GL245686  30.841  34.318   5.882
 3497POPC   C1A45687  30.830  34.634   6.295
 3497POPC   D2A45688  31.002  34.599   6.654
 3497POPC   C3A45689  30.646  34.602   6.893
 3497POPC   C4A45690  30.728  34.588   7.291
 3497POPC   C1B45691  30.723  34.116   6.296
 3497POPC   C2B45692  30.742  34.133   6.716
 3497POPC   C3B45693  30.485  34.152   7.062
 3497POPC   C4B45694  30.539  34.186   7.516
 3498POPC   NC345695  39.394  18.173   5.343
 3498POPC   PO445696  38.776  18.307   5.603
 3498POPC   GL145697  39.183  18.336   5.791
 3498POPC   GL245698  39.388  18.629   5.691
 3498POPC   C1A45699  39.382  18.072   6.133
 3498POPC   D2A45700  39.208  17.858   6.520
 3498POPC   C3A45701  39.362  17.944   6.947
 3498POPC   C4A45702  39.147  18.239   7.223
 3498POPC   C1B45703  39.455  18.605   6.120
 3498POPC   C2B45704  39.490  18.410   6.533
 3498POPC   C3B45705  39.404  18.601   6.932
 3498POPC   C4B45706  39.358  18.700   7.336
 3499POPC   NC345707  40.278  18.153   5.325
 3499POPC   PO445708  39.715  18.511   5.326
 3499POPC   GL145709  39.800  18.272   5.726
 3499POPC   GL245710  40.167  18.132   5.816
 3499POPC   C1A45711  39.854  18.284   6.179
 3499POPC   D2A45712  40.041  18.310   6.569
 3499POPC   C3A45713  39.795  18.261   6.918
 3499POPC   C4A45714  39.640  18.270   7.316
 3499POPC   C1B45715  40.384  18.310   6.176
 3499POPC   C2B45716  40.569  18.234   6.574
 3499POPC   C3B45717  40.356  18.330   6.973
 3499POPC   C4B45718  40.134  18.063   7.240
 3500POPC   NC345719  36.788  14.162   5.265
 3500POPC   PO445720  37.026  14.721   5.407
 3500POPC   GL145721  36.982  14.604   5.870
 3500POPC   GL245722  37.071  14.275   5.979
 3500POPC   C1A45723  36.757  14.529   6.284
 3500POPC   D2A45724  36.607  14.730   6.642
 3500POPC   C3A45725  36.848  14.528   6.932
 3500POPC   C4A45726  36.971  14.395   7.349
 3500POPC   C1B45727  36.931  14.040   6.353
 3500POPC   C2B45728  36.949  14.043   6.795
 3500POPC   C3B45729  37.139  13.941   7.160
 3500POPC   C4B45730  36.848  13.900   7.457
 3501POPC   NC345731  34.270  12.314   5.494
 3501POPC   PO445732  34.755  11.863   5.404
 3501POPC   GL145733  34.542  11.889   5.798
 3501POPC   GL245734  34.886  11.776   5.899
 3501POPC   C1A45735  34.437  12.077   6.218
 3501POPC   D2A45736  34.519  11.916   6.648
 3501POPC   C3A45737  34.552  12.229   6.966
 3501POPC   C4A45738  34.219  12.392   7.190
 3501POPC   C1B45739  34.898  11.847   6.312
 3501POPC   C2B45740  34.933  11.602   6.678
 3501POPC   C3B45741  34.764  11.755   7.069
 3501POPC   C4B45742  34.957  12.121   7.286
 3502POPC   NC345743  14.689  22.943   5.249
 3502POPC   PO445744  14.203  22.618   5.573
 3502POPC   GL145745  14.367  22.929   5.834
 3502POPC   GL245746  14.628  22.733   5.886
 3502POPC   C1A45747  14.532  23.064   6.240
 3502POPC   D2A45748  14.293  23.018   6.581
 3502POPC   C3A45749  14.454  23.009   6.963
 3502POPC   C4A45750  14.555  23.232   7.300
 3502POPC   C1B45751  14.282  22.615   6.241
 3502POPC   C2B45752  14.193  22.503   6.687
 3502POPC   C3B45753  14.108  22.682   7.095
 3502POPC   C4B45754  14.397  22.797   7.481
 3503POPC   NC345755  21.192  36.695   5.644
 3503POPC   PO445756  21.430  36.052   5.354
 3503POPC   GL145757  21.426  35.979   5.787
 3503POPC   GL245758  21.229  36.251   5.925
 3503POPC   C1A45759  21.525  35.910   6.236
 3503POPC   D2A45760  21.421  36.156   6.627
 3503POPC   C3A45761  21.177  35.939   6.951
 3503POPC   C4A45762  21.537  35.762   7.152
 3503POPC   C1B45763  20.970  36.501   6.206
 3503POPC   C2B45764  20.968  36.389   6.595
 3503POPC   C3B45765  21.138  36.467   6.959
 3503POPC   C4B45766  21.380  36.283   7.268
 3504POPC   NC345767  27.084  21.776   5.483
 3504POPC   PO445768  26.928  22.430   5.557
 3504POPC   GL145769  26.824  22.065   5.856
 3504POPC   GL245770  26.466  21.927   5.907
 3504POPC   C1A45771  26.744  22.144   6.293
 3504POPC   D2A45772  27.049  22.183   6.626
 3504POPC   C3A45773  26.970  22.229   7.068
 3504POPC   C4A45774  27.213  22.522   7.325
 3504POPC   C1B45775  26.336  21.821   6.282
 3504POPC   C2B45776  26.470  21.882   6.656
 3504POPC   C3B45777  26.377  21.699   7.000
 3504POPC   C4B45778  26.634  21.851   7.267
 3505POPC   NC345779  32.748  38.614   5.497
 3505POPC   PO445780  32.968  38.035   5.270
 3505POPC   GL145781  33.075  38.297   5.745
 3505POPC   GL245782  32.899  38.629   5.958
 3505POPC   C1A45783  33.230  38.354   6.206
 3505POPC   D2A45784  33.047  38.531   6.592
 3505POPC   C3A45785  33.189  38.497   7.018
 3505POPC   C4A45786  33.123  38.344   7.429
 3505POPC   C1B45787  32.701  38.369   6.213
 3505POPC   C2B45788  32.540  38.453   6.594
 3505POPC   C3B45789  32.663  38.496   7.002
 3505POPC   C4B45790  32.628  38.256   7.380
 3506POPC   NC345791  34.983  24.031   5.587
 3506POPC   PO445792  35.480  23.676   5.389
 3506POPC   GL145793  35.319  23.701   5.808
 3506POPC   GL245794  35.191  23.384   5.856
 3506POPC   C1A45795  35.389  23.932   6.194
 3506POPC   D2A45796  35.321  24.168   6.543
 3506POPC   C3A45797  35.351  23.977   6.941
 3506POPC   C4A45798  35.364  23.889   7.375
 3506POPC   C1B45799  35.225  23.462   6.304
 3506POPC   C2B45800  35.172  23.535   6.744
 3506POPC   C3B45801  35.079  23.497   7.166
 3506POPC   C4B45802  35.263  23.455   7.587
 3507POPC   NC345803  22.294  27.897   5.358
 3507POPC   PO445804  21.994  28.475   5.292
 3507POPC   GL145805  22.186  28.361   5.718
 3507POPC   GL245806  22.124  28.021   5.813
 3507POPC   C1A45807  22.384  28.344   6.144
 3507POPC   D2A45808  22.451  28.568   6.520
 3507POPC   C3A45809  22.333  28.379   6.887
 3507POPC   C4A45810  22.558  28.188   7.218
 3507POPC   C1B45811  21.905  28.155   6.162
 3507POPC   C2B45812  21.943  28.329   6.552
 3507POPC   C3B45813  21.901  28.097   6.931
 3507POPC   C4B45814  22.049  28.231   7.307
 3508POPC   NC345815   7.952   7.471   5.338
 3508POPC   PO445816   8.502   7.782   5.421
 3508POPC   GL145817   8.333   7.485   5.806
 3508POPC   GL245818   8.049   7.233   5.787
 3508POPC   C1A45819   8.172   7.393   6.249
 3508POPC   D2A45820   8.080   7.574   6.626
 3508POPC   C3A45821   8.256   7.515   7.041
 3508POPC   C4A45822   8.169   7.658   7.482
 3508POPC   C1B45823   7.804   7.028   6.142
 3508POPC   C2B45824   7.711   7.160   6.588
 3508POPC   C3B45825   7.942   7.110   6.968
 3508POPC   C4B45826   7.905   7.230   7.368
 3509POPC   NC345827  30.331  28.097   5.586
 3509POPC   PO445828  29.784  28.342   5.238
 3509POPC   GL145829  29.890  28.339   5.707
 3509POPC   GL245830  29.777  28.041   5.907
 3509POPC   C1A45831  29.899  28.504   6.151
 3509POPC   D2A45832  29.669  28.700   6.520
 3509POPC   C3A45833  29.721  28.458   6.916
 3509POPC   C4A45834  30.091  28.404   7.158
 3509POPC   C1B45835  30.045  28.008   6.292
 3509POPC   C2B45836  30.035  28.042   6.757
 3509POPC   C3B45837  29.893  27.942   7.183
 3509POPC   C4B45838  29.723  28.201   7.520
 3510POPC   NC345839  14.020  39.340   5.445
 3510POPC   PO445840  14.685  38.978   5.411
 3510POPC   GL145841  14.372  39.106   5.745
 3510POPC   GL245842  14.439  39.455   5.747
 3510POPC   C1A45843  14.062  39.249   6.111
 3510POPC   D2A45844  14.100  39.465   6.540
 3510POPC   C3A45845  14.429  39.248   6.781
 3510POPC   C4A45846  14.514  38.900   7.083
 3510POPC   C1B45847  14.525  39.431   6.189
 3510POPC   C2B45848  14.549  39.725   6.528
 3510POPC   C3B45849  14.619  39.682   6.952
 3510POPC   C4B45850  14.470  39.399   7.261
 3511POPC   NC345851  35.659  12.741   5.430
 3511POPC   PO445852  35.205  13.178   5.426
 3511POPC   GL145853  35.366  13.018   5.851
 3511POPC   GL245854  35.564  12.675   5.913
 3511POPC   C1A45855  35.201  12.854   6.266
 3511POPC   D2A45856  35.162  12.603   6.638
 3511POPC   C3A45857  35.269  12.808   7.029
 3511POPC   C4A45858  35.123  12.845   7.469
 3511POPC   C1B45859  35.721  12.913   6.238
 3511POPC   C2B45860  35.615  12.865   6.631
 3511POPC   C3B45861  35.782  12.949   6.996
 3511POPC   C4B45862  35.575  13.066   7.352
 3512POPC   NC345863   2.386  20.812   5.473
 3512POPC   PO445864   1.796  20.502   5.443
 3512POPC   GL145865   1.788  20.511   5.868
 3512POPC   GL245866   2.149  20.520   5.937
 3512POPC   C1A45867   1.796  20.510   6.311
 3512POPC   D2A45868   2.040  20.752   6.607
 3512POPC   C3A45869   1.897  20.681   7.041
 3512POPC   C4A45870   1.692  20.607   7.454
 3512POPC   C1B45871   2.278  20.362   6.379
 3512POPC   C2B45872   1.966  20.263   6.735
 3512POPC   C3B45873   1.958  20.199   7.161
 3512POPC   C4B45874   2.190  20.440   7.445
 3513POPC   NC345875  41.239  11.832   5.304
 3513POPC   PO445876  41.808  12.204   5.435
 3513POPC   GL145877  41.579  11.993   5.695
 3513POPC   GL245878  41.848  11.861   5.856
 3513POPC   C1A45879  41.333  11.823   6.044
 3513POPC   D2A45880  41.219  12.009   6.445
 3513POPC   C3A45881  41.500  11.920   6.809
 3513POPC   C4A45882  41.418  12.117   7.211
 3513POPC   C1B45883  41.728  12.148   6.195
 3513POPC   C2B45884  41.935  12.260   6.572
 3513POPC   C3B45885  41.898  12.228   7.007
 3513POPC   C4B45886  41.858  11.869   7.274
 3514POPC   NC345887  37.179   4.789   5.560
 3514POPC   PO445888  36.815   5.387   5.388
 3514POPC   GL145889  36.966   5.212   5.751
 3514POPC   GL245890  36.683   5.224   5.881
 3514POPC   C1A45891  37.106   5.122   6.174
 3514POPC   D2A45892  36.951   5.274   6.570
 3514POPC   C3A45893  37.174   5.104   6.913
 3514POPC   C4A45894  37.054   4.898   7.258
 3514POPC   C1B45895  36.639   4.889   6.186
 3514POPC   C2B45896  36.707   4.805   6.611
 3514POPC   C3B45897  36.556   4.894   7.005
 3514POPC   C4B45898  36.545   4.784   7.411
 3515POPC   NC345899  41.773  42.356   5.324
 3515POPC   PO445900  41.174  42.071   5.523
 3515POPC   GL145901  41.494  42.280   5.764
 3515POPC   GL245902  41.544  42.625   5.716
 3515POPC   C1A45903  41.703  42.201   6.179
 3515POPC   D2A45904  41.678  41.878   6.512
 3515POPC   C3A45905  41.592  42.026   6.955
 3515POPC   C4A45906  41.939  42.062   7.256
 3515POPC   C1B45907  41.377  42.619   6.138
 3515POPC   C2B45908  41.467  42.503   6.567
 3515POPC   C3B45909  41.278  42.474   6.962
 3515POPC   C4B45910  41.264  42.788   7.290
 3516POPC   NC345911  38.428  16.966   5.481
 3516POPC   PO445912  38.053  16.343   5.561
 3516POPC   GL145913  38.390  16.371   5.893
 3516POPC   GL245914  38.572  16.693   5.897
 3516POPC   C1A45915  38.586  16.427   6.340
 3516POPC   D2A45916  38.648  16.340   6.798
 3516POPC   C3A45917  38.346  16.462   7.137
 3516POPC   C4A45918  38.649  16.767   7.229
 3516POPC   C1B45919  38.446  16.919   6.290
 3516POPC   C2B45920  38.310  16.738   6.701
 3516POPC   C3B45921  38.235  16.998   7.099
 3516POPC   C4B45922  38.247  16.966   7.572
 3517POPC   NC345923  30.946   8.466   5.419
 3517POPC   PO445924  30.399   8.146   5.217
 3517POPC   GL145925  30.344   8.236   5.680
 3517POPC   GL245926  30.610   8.466   5.818
 3517POPC   C1A45927  30.450   8.076   6.103
 3517POPC   D2A45928  30.606   8.243   6.466
 3517POPC   C3A45929  30.447   8.174   6.853
 3517POPC   C4A45930  30.412   8.248   7.287
 3517POPC   C1B45931  30.979   8.481   6.137
 3517POPC   C2B45932  30.992   8.526   6.596
 3517POPC   C3B45933  30.952   8.255   6.959
 3517POPC   C4B45934  30.889   8.433   7.366
 3518POPC   NC345935  23.598  43.221   5.207
 3518POPC   PO445936  24.125  42.911   5.473
 3518POPC   GL145937  23.894  43.051   5.816
 3518POPC   GL245938  23.720  43.338   5.714
 3518POPC   C1A45939  23.840  43.179   6.238
 3518POPC   D2A45940  23.744  43.055   6.671
 3518POPC   C3A45941  23.990  43.040   7.083
 3518POPC   C4A45942  23.542  43.072   7.244
 3518POPC   C1B45943  23.505  43.543   6.061
 3518POPC   C2B45944  23.538  43.540   6.511
 3518POPC   C3B45945  23.348  43.331   6.853
 3518POPC   C4B45946  23.374  43.549   7.249
 3519POPC   NC345947  13.825  10.569   5.727
 3519POPC   PO445948  14.419  10.290   5.447
 3519POPC   GL145949  14.311  10.441   5.871
 3519POPC   GL245950  14.619  10.444   5.999
 3519POPC   C1A45951  14.263  10.711   6.281
 3519POPC   D2A45952  14.124  10.962   6.656
 3519POPC   C3A45953  14.297  10.816   7.043
 3519POPC   C4A45954  14.177  10.494   7.330
 3519POPC   C1B45955  14.461  10.247   6.383
 3519POPC   C2B45956  14.379  10.335   6.804
 3519POPC   C3B45957  14.619  10.342   7.166
 3519POPC   C4B45958  14.618  10.275   7.592
 3520POPC   NC345959  11.186  44.953   5.625
 3520POPC   PO445960  11.059  44.311   5.424
 3520POPC   GL145961  11.421  44.380   5.746
 3520POPC   GL245962  11.410  44.674   5.959
 3520POPC   C1A45963  11.622  44.286   6.171
 3520POPC   D2A45964  11.333  44.385   6.500
 3520POPC   C3A45965  11.471  44.331   6.917
 3520POPC   C4A45966  11.303  44.394   7.308
 3520POPC   C1B45967  11.320  44.894   6.324
 3520POPC   C2B45968  11.307  44.838   6.766
 3520POPC   C3B45969  11.283  44.892   7.186
 3520POPC   C4B45970  11.338   0.195   7.489
 3521POPC   NC345971  10.341  29.552   5.482
 3521POPC   PO445972  10.524  30.232   5.307
 3521POPC   GL145973  10.373  30.042   5.703
 3521POPC   GL245974  10.644  29.819   5.804
 3521POPC   C1A45975  10.277  30.091   6.179
 3521POPC   D2A45976  10.537  30.295   6.539
 3521POPC   C3A45977  10.438  30.166   6.975
 3521POPC   C4A45978  10.493  30.068   7.458
 3521POPC   C1B45979  10.526  29.634   6.193
 3521POPC   C2B45980  10.562  29.787   6.617
 3521POPC   C3B45981  10.764  29.780   7.029
 3521POPC   C4B45982  10.864  29.711   7.452
 3522POPC   NC345983  40.875  44.903   5.476
 3522POPC   PO445984  40.425  44.511   5.638
 3522POPC   GL145985  40.694  44.677   5.937
 3522POPC   GL245986  41.047  44.590   5.821
 3522POPC   C1A45987  40.584  44.684   6.374
 3522POPC   D2A45988  40.387  44.554   6.775
 3522POPC   C3A45989  40.673  44.661   7.132
 3522POPC   C4A45990  41.024  44.919   7.266
 3522POPC   C1B45991  41.055  44.389   6.186
 3522POPC   C2B45992  41.029  44.548   6.571
 3522POPC   C3B45993  40.820  44.282   6.847
 3522POPC   C4B45994  40.911  44.182   7.279
 3523POPC   NC345995  38.528   4.387   5.472
 3523POPC   PO445996  37.796   4.466   5.514
 3523POPC   GL145997  38.080   4.499   5.880
 3523POPC   GL245998  38.308   4.235   5.891
 3523POPC   C1A45999  38.318   4.524   6.320
 3523POPC   D2A46000  38.438   4.606   6.767
 3523POPC   C3A46001  38.190   4.408   7.088
 3523POPC   C4A46002  38.327   4.213   7.485
 3523POPC   C1B46003  38.645   4.159   6.179
 3523POPC   C2B46004  38.579   4.129   6.631
 3523POPC   C3B46005  38.671   4.175   7.065
 3523POPC   C4B46006  38.660   3.844   7.371
 3524POPC   NC346007   0.083  27.533   5.244
 3524POPC   PO446008  44.443  27.777   5.160
 3524POPC   GL146009  44.403  27.545   5.657
 3524POPC   GL246010  44.700  27.645   5.877
 3524POPC   C1A46011  44.247  27.682   6.109
 3524POPC   D2A46012  44.190  27.494   6.538
 3524POPC   C3A46013  44.329  27.683   6.947
 3524POPC   C4A46014  44.682  27.658   7.271
 3524POPC   C1B46015  44.733  27.783   6.338
 3524POPC   C2B46016  44.842  27.704   6.789
 3524POPC   C3B46017   0.115  27.414   7.091
 3524POPC   C4B46018   0.006  27.171   7.473
 3525POPC   NC346019  26.960  24.972   5.523
 3525POPC   PO446020  26.772  25.633   5.481
 3525POPC   GL146021  26.651  25.302   5.789
 3525POPC   GL246022  26.974  25.210   5.960
 3525POPC   C1A46023  26.539  25.258   6.231
 3525POPC   D2A46024  26.710  25.149   6.641
 3525POPC   C3A46025  26.456  25.259   6.997
 3525POPC   C4A46026  26.540  25.110   7.419
 3525POPC   C1B46027  27.266  25.069   6.284
 3525POPC   C2B46028  27.207  25.021   6.777
 3525POPC   C3B46029  27.039  25.068   7.215
 3525POPC   C4B46030  27.274  25.196   7.614
 3526POPC   NC346031   7.098  41.169   5.437
 3526POPC   PO446032   7.570  40.703   5.450
 3526POPC   GL146033   7.466  40.737   5.892
 3526POPC   GL246034   7.676  41.020   5.840
 3526POPC   C1A46035   7.443  40.632   6.367
 3526POPC   D2A46036   7.179  40.868   6.681
 3526POPC   C3A46037   7.356  40.883   7.064
 3526POPC   C4A46038   7.781  40.696   7.099
 3526POPC   C1B46039   7.849  40.906   6.206
 3526POPC   C2B46040   7.779  40.940   6.632
 3526POPC   C3B46041   7.710  41.215   6.956
 3526POPC   C4B46042   7.712  41.109   7.381
 3527POPC   NC346043  22.780  27.417   5.369
 3527POPC   PO446044  23.429  27.397   5.491
 3527POPC   GL146045  23.090  27.593   5.749
 3527POPC   GL246046  22.971  27.287   5.843
 3527POPC   C1A46047  22.947  27.634   6.207
 3527POPC   D2A46048  22.655  27.612   6.550
 3527POPC   C3A46049  22.817  27.681   6.915
 3527POPC   C4A46050  22.759  27.675   7.310
 3527POPC   C1B46051  22.966  27.110   6.270
 3527POPC   C2B46052  23.040  27.273   6.670
 3527POPC   C3B46053  23.014  27.259   7.108
 3527POPC   C4B46054  22.810  26.998   7.372
 3528POPC   NC346055  35.896  31.599   5.478
 3528POPC   PO446056  36.433  31.139   5.362
 3528POPC   GL146057  36.273  31.367   5.732
 3528POPC   GL246058  35.967  31.192   5.814
 3528POPC   C1A46059  36.241  31.554   6.174
 3528POPC   D2A46060  36.374  31.372   6.592
 3528POPC   C3A46061  36.186  31.564   6.988
 3528POPC   C4A46062  36.002  31.585   7.419
 3528POPC   C1B46063  36.044  31.078   6.268
 3528POPC   C2B46064  35.907  31.223   6.690
 3528POPC   C3B46065  35.894  31.170   7.127
 3528POPC   C4B46066  35.915  31.088   7.577
 3529POPC   NC346067  27.132  11.402   5.567
 3529POPC   PO446068  27.647  11.024   5.222
 3529POPC   GL146069  27.587  11.268   5.721
 3529POPC   GL246070  27.535  11.677   5.746
 3529POPC   C1A46071  27.445  11.139   6.188
 3529POPC   D2A46072  27.600  11.025   6.639
 3529POPC   C3A46073  27.414  11.142   7.067
 3529POPC   C4A46074  27.587  11.291   7.493
 3529POPC   C1B46075  27.375  11.662   6.173
 3529POPC   C2B46076  27.335  11.469   6.608
 3529POPC   C3B46077  27.477  11.626   7.034
 3529POPC   C4B46078  27.291  11.678   7.488
 3530POPC   NC346079  26.287  26.559   5.345
 3530POPC   PO446080  25.920  27.154   5.192
 3530POPC   GL146081  26.101  27.034   5.651
 3530POPC   GL246082  26.324  26.734   5.822
 3530POPC   C1A46083  26.166  27.089   6.133
 3530POPC   D2A46084  25.908  26.932   6.455
 3530POPC   C3A46085  25.990  27.007   6.871
 3530POPC   C4A46086  25.727  26.809   7.174
 3530POPC   C1B46087  26.147  26.519   6.161
 3530POPC   C2B46088  26.036  26.431   6.577
 3530POPC   C3B46089  26.239  26.553   6.964
 3530POPC   C4B46090  26.514  26.608   7.328
 3531POPC   NC346091  15.006  24.924   5.578
 3531POPC   PO446092  15.276  25.574   5.602
 3531POPC   GL146093  15.190  25.269   5.931
 3531POPC   GL246094  15.325  24.915   6.009
 3531POPC   C1A46095  15.196  25.307   6.366
 3531POPC   D2A46096  15.055  25.117   6.739
 3531POPC   C3A46097  15.071  25.391   7.106
 3531POPC   C4A46098  15.395  25.256   7.367
 3531POPC   C1B46099  14.900  24.898   6.224
 3531POPC   C2B46100  14.597  25.109   6.505
 3531POPC   C3B46101  14.607  25.112   6.984
 3531POPC   C4B46102  14.980  24.895   7.217
 3532POPC   NC346103  30.815  23.259   5.380
 3532POPC   PO446104  30.291  22.748   5.400
 3532POPC   GL146105  30.348  23.001   5.796
 3532POPC   GL246106  30.704  23.019   5.834
 3532POPC   C1A46107  30.428  22.968   6.266
 3532POPC   D2A46108  30.694  22.732   6.573
 3532POPC   C3A46109  30.527  22.750   7.006
 3532POPC   C4A46110  30.539  22.509   7.394
 3532POPC   C1B46111  30.919  23.166   6.223
 3532POPC   C2B46112  30.791  23.245   6.659
 3532POPC   C3B46113  30.864  23.150   7.108
 3532POPC   C4B46114  31.010  23.235   7.545
 3533POPC   NC346115   6.745  34.807   5.211
 3533POPC   PO446116   6.320  34.473   5.517
 3533POPC   GL146117   6.278  34.679   5.868
 3533POPC   GL246118   6.537  34.925   5.691
 3533POPC   C1A46119   6.318  34.558   6.285
 3533POPC   D2A46120   6.605  34.669   6.590
 3533POPC   C3A46121   6.455  34.540   6.965
 3533POPC   C4A46122   6.792  34.389   7.204
 3533POPC   C1B46123   6.630  34.938   6.119
 3533POPC   C2B46124   6.577  35.178   6.487
 3533POPC   C3B46125   6.649  35.142   6.905
 3533POPC   C4B46126   6.684  34.907   7.285
 3534POPC   NC346127  35.739  39.118   5.517
 3534POPC   PO446128  36.326  39.560   5.459
 3534POPC   GL146129  36.131  39.328   5.773
 3534POPC   GL246130  35.817  39.537   5.792
 3534POPC   C1A46131  36.110  39.015   6.125
 3534POPC   D2A46132  36.171  38.771   6.515
 3534POPC   C3A46133  36.122  38.975   6.918
 3534POPC   C4A46134  35.893  39.021   7.312
 3534POPC   C1B46135  36.008  39.576   6.197
 3534POPC   C2B46136  36.065  39.333   6.549
 3534POPC   C3B46137  36.123  39.473   6.956
 3534POPC   C4B46138  35.766  39.511   7.169
 3535POPC   NC346139   4.984  23.768   4.972
 3535POPC   PO446140   4.967  23.622   5.624
 3535POPC   GL146141   5.187  23.899   5.919
 3535POPC   GL246142   4.876  24.127   5.878
 3535POPC   C1A46143   5.346  23.797   6.339
 3535POPC   D2A46144   5.073  23.532   6.594
 3535POPC   C3A46145   5.196  23.565   7.005
 3535POPC   C4A46146   5.352  23.999   7.129
 3535POPC   C1B46147   4.848  23.929   6.278
 3535POPC   C2B46148   4.977  24.034   6.653
 3535POPC   C3B46149   4.844  23.945   7.004
 3535POPC   C4B46150   4.749  23.665   7.266
 3536POPC   NC346151  28.216   1.811   5.446
 3536POPC   PO446152  28.545   2.337   5.412
 3536POPC   GL146153  28.503   2.081   5.780
 3536POPC   GL246154  28.185   2.240   5.788
 3536POPC   C1A46155  28.537   1.793   6.171
 3536POPC   D2A46156  28.297   1.613   6.541
 3536POPC   C3A46157  28.544   1.696   6.922
 3536POPC   C4A46158  28.682   2.007   7.214
 3536POPC   C1B46159  28.070   1.985   6.121
 3536POPC   C2B46160  28.217   2.101   6.530
 3536POPC   C3B46161  28.081   1.924   6.921
 3536POPC   C4B46162  28.237   1.792   7.329
 3537POPC   NC346163   4.784  43.143   5.378
 3537POPC   PO446164   5.395  43.255   5.299
 3537POPC   GL146165   5.127  43.315   5.720
 3537POPC   GL246166   5.020  42.963   5.865
 3537POPC   C1A46167   4.860  43.348   6.125
 3537POPC   D2A46168   4.978  43.066   6.462
 3537POPC   C3A46169   4.951  43.146   6.894
 3537POPC   C4A46170   4.962  43.158   7.300
 3537POPC   C1B46171   5.375  43.112   6.126
 3537POPC   C2B46172   5.494  43.250   6.538
 3537POPC   C3B46173   5.473  43.042   6.919
 3537POPC   C4B46174   5.511  43.085   7.331
 3538POPC   NC346175  30.002  44.927   5.491
 3538POPC   PO446176  29.707  44.264   5.601
 3538POPC   GL146177  29.917  44.547   5.831
 3538POPC   GL246178  30.269  44.564   5.795
 3538POPC   C1A46179  29.957  44.839   6.152
 3538POPC   D2A46180  29.912  44.649   6.534
 3538POPC   C3A46181  30.033  44.895   6.859
 3538POPC   C4A46182  29.955  44.764   7.265
 3538POPC   C1B46183  30.306  44.458   6.203
 3538POPC   C2B46184  30.414  44.559   6.616
 3538POPC   C3B46185  30.202  44.416   6.990
 3538POPC   C4B46186  30.319  44.181   7.331
 3539POPC   NC346187  42.339   6.345   5.468
 3539POPC   PO446188  42.117   7.009   5.538
 3539POPC   GL146189  42.232   6.763   5.926
 3539POPC   GL246190  42.266   6.379   5.961
 3539POPC   C1A46191  42.530   6.886   6.240
 3539POPC   D2A46192  42.665   6.774   6.629
 3539POPC   C3A46193  42.410   6.546   6.879
 3539POPC   C4A46194  42.547   6.263   7.187
 3539POPC   C1B46195  42.315   6.448   6.380
 3539POPC   C2B46196  42.101   6.817   6.561
 3539POPC   C3B46197  42.017   6.875   6.996
 3539POPC   C4B46198  42.167   6.612   7.336
 3540POPC   NC346199   7.128  30.017   5.430
 3540POPC   PO446200   7.813  29.836   5.373
 3540POPC   GL146201   7.590  29.904   5.798
 3540POPC   GL246202   7.329  30.159   5.901
 3540POPC   C1A46203   7.528  29.859   6.267
 3540POPC   D2A46204   7.370  29.891   6.722
 3540POPC   C3A46205   7.499  29.612   7.084
 3540POPC   C4A46206   7.349  29.668   7.513
 3540POPC   C1B46207   7.393  30.332   6.371
 3540POPC   C2B46208   7.610  30.314   6.823
 3540POPC   C3B46209   7.392  30.111   7.207
 3540POPC   C4B46210   7.526  30.131   7.684
 3541POPC   NC346211   1.271  15.736   5.717
 3541POPC   PO446212   0.883  16.159   5.289
 3541POPC   GL146213   1.035  16.187   5.742
 3541POPC   GL246214   1.422  16.196   5.836
 3541POPC   C1A46215   1.095  16.114   6.217
 3541POPC   D2A46216   0.897  15.981   6.590
 3541POPC   C3A46217   1.056  16.155   6.955
 3541POPC   C4A46218   1.170  15.831   7.239
 3541POPC   C1B46219   1.591  15.998   6.211
 3541POPC   C2B46220   1.467  16.176   6.588
 3541POPC   C3B46221   1.565  16.009   6.973
 3541POPC   C4B46222   1.422  16.246   7.314
 3542POPC   NC346223  23.657  23.118   5.394
 3542POPC   PO446224  24.109  22.664   5.617
 3542POPC   GL146225  23.913  23.028   5.818
 3542POPC   GL246226  23.569  22.915   5.866
 3542POPC   C1A46227  23.788  23.353   6.122
 3542POPC   D2A46228  23.919  23.285   6.557
 3542POPC   C3A46229  23.706  23.439   6.934
 3542POPC   C4A46230  23.774  23.241   7.353
 3542POPC   C1B46231  23.761  22.853   6.282
 3542POPC   C2B46232  23.739  22.635   6.681
 3542POPC   C3B46233  23.774  22.800   7.089
 3542POPC   C4B46234  23.578  22.751   7.492
 3543POPC   NC346235  41.387  37.032   5.423
 3543POPC   PO446236  41.469  36.371   5.551
 3543POPC   GL146237  41.421  36.762   5.840
 3543POPC   GL246238  41.746  36.980   5.795
 3543POPC   C1A46239  41.459  37.027   6.217
 3543POPC   D2A46240  41.755  37.047   6.562
 3543POPC   C3A46241  41.542  36.954   6.922
 3543POPC   C4A46242  41.640  36.889   7.314
 3543POPC   C1B46243  41.860  36.626   6.074
 3543POPC   C2B46244  41.940  36.521   6.496
 3543POPC   C3B46245  41.772  36.489   6.899
 3543POPC   C4B46246  41.862  36.428   7.325
 3544POPC   NC346247  43.561  20.210   5.565
 3544POPC   PO446248  43.918  19.755   5.183
 3544POPC   GL146249  43.799  19.655   5.697
 3544POPC   GL246250  43.788  19.354   5.823
 3544POPC   C1A46251  43.731  19.868   6.148
 3544POPC   D2A46252  43.952  19.870   6.540
 3544POPC   C3A46253  43.790  19.968   6.929
 3544POPC   C4A46254  44.028  20.036   7.309
 3544POPC   C1B46255  43.986  19.423   6.193
 3544POPC   C2B46256  44.056  19.357   6.602
 3544POPC   C3B46257  43.945  19.485   6.986
 3544POPC   C4B46258  43.804  19.558   7.393
 3545POPC   NC346259  40.978  14.616   5.034
 3545POPC   PO446260  40.461  14.309   5.314
 3545POPC   GL146261  40.673  14.397   5.695
 3545POPC   GL246262  40.899  14.680   5.589
 3545POPC   C1A46263  40.643  14.317   6.161
 3545POPC   D2A46264  40.455  14.395   6.573
 3545POPC   C3A46265  40.761  14.281   6.867
 3545POPC   C4A46266  40.754  14.111   7.272
 3545POPC   C1B46267  40.744  14.807   6.015
 3545POPC   C2B46268  40.715  14.953   6.441
 3545POPC   C3B46269  40.635  14.803   6.877
 3545POPC   C4B46270  40.785  14.599   7.263
 3546POPC   NC346271   1.882  39.572   5.486
 3546POPC   PO446272   2.039  39.018   5.548
 3546POPC   GL146273   2.040  39.324   5.897
 3546POPC   GL246274   2.255  39.648   5.813
 3546POPC   C1A46275   1.901  39.159   6.281
 3546POPC   D2A46276   2.013  38.906   6.612
 3546POPC   C3A46277   1.882  39.122   6.942
 3546POPC   C4A46278   1.968  39.096   7.345
 3546POPC   C1B46279   2.353  39.550   6.235
 3546POPC   C2B46280   2.132  39.475   6.624
 3546POPC   C3B46281   2.226  39.494   7.041
 3546POPC   C4B46282   2.003  39.631   7.365
 3547POPC   NC346283  26.721   1.287   5.290
 3547POPC   PO446284  27.310   1.170   5.062
 3547POPC   GL146285  27.115   1.310   5.631
 3547POPC   GL246286  26.748   1.182   5.778
 3547POPC   C1A46287  27.030   1.389   6.135
 3547POPC   D2A46288  26.854   1.576   6.558
 3547POPC   C3A46289  26.904   1.342   6.965
 3547POPC   C4A46290  26.723   1.115   7.343
 3547POPC   C1B46291  26.498   1.411   6.126
 3547POPC   C2B46292  26.316   1.597   6.527
 3547POPC   C3B46293  26.443   1.594   6.986
 3547POPC   C4B46294  26.507   1.560   7.435
 3548POPC   NC346295   7.698   5.131   5.407
 3548POPC   PO446296   7.196   5.428   5.331
 3548POPC   GL146297   7.253   5.133   5.702
 3548POPC   GL246298   7.583   5.066   5.895
 3548POPC   C1A46299   7.165   5.071   6.166
 3548POPC   D2A46300   7.210   4.934   6.584
 3548POPC   C3A46301   7.260   5.167   6.939
 3548POPC   C4A46302   7.063   5.179   7.302
 3548POPC   C1B46303   7.660   4.966   6.354
 3548POPC   C2B46304   7.708   4.918   6.830
 3548POPC   C3B46305   7.595   4.976   7.286
 3548POPC   C4B46306   7.771   4.936   7.717
 3549POPC   NC346307  21.408  15.738   5.443
 3549POPC   PO446308  21.073  16.409   5.421
 3549POPC   GL146309  21.125  16.112   5.742
 3549POPC   GL246310  21.481  16.124   5.825
 3549POPC   C1A46311  21.094  16.199   6.187
 3549POPC   D2A46312  21.366  15.998   6.513
 3549POPC   C3A46313  21.282  16.037   6.947
 3549POPC   C4A46314  21.052  16.346   7.178
 3549POPC   C1B46315  21.380  15.743   6.076
 3549POPC   C2B46316  21.502  15.511   6.429
 3549POPC   C3B46317  21.632  15.667   6.832
 3549POPC   C4B46318  21.593  15.784   7.263
 3550POPC   NC346319  34.081   3.578   5.392
 3550POPC   PO446320  33.425   3.419   5.476
 3550POPC   GL146321  33.729   3.570   5.815
 3550POPC   GL246322  34.007   3.882   5.783
 3550POPC   C1A46323  33.722   3.334   6.220
 3550POPC   D2A46324  33.845   3.126   6.630
 3550POPC   C3A46325  33.885   3.424   6.925
 3550POPC   C4A46326  33.929   3.633   7.267
 3550POPC   C1B46327  33.928   3.822   6.218
 3550POPC   C2B46328  34.099   3.797   6.633
 3550POPC   C3B46329  34.248   4.035   6.975
 3550POPC   C4B46330  34.162   4.095   7.363
 3551POPC   NC346331   2.460  37.263   5.322
 3551POPC   PO446332   2.879  36.845   5.395
 3551POPC   GL146333   2.583  36.954   5.685
 3551POPC   GL246334   2.765  37.218   5.754
 3551POPC   C1A46335   2.425  36.911   6.098
 3551POPC   D2A46336   2.269  36.800   6.512
 3551POPC   C3A46337   2.579  36.705   6.849
 3551POPC   C4A46338   2.771  36.924   7.178
 3551POPC   C1B46339   2.592  37.391   6.101
 3551POPC   C2B46340   2.540  37.247   6.501
 3551POPC   C3B46341   2.451  37.215   6.911
 3551POPC   C4B46342   2.449  37.298   7.320
 3552POPC   NC346343  17.672  37.540   5.308
 3552POPC   PO446344  17.560  36.838   5.401
 3552POPC   GL146345  17.520  37.005   5.818
 3552POPC   GL246346  17.394  37.327   5.860
 3552POPC   C1A46347  17.688  37.057   6.217
 3552POPC   D2A46348  17.534  36.892   6.596
 3552POPC   C3A46349  17.713  36.726   6.996
 3552POPC   C4A46350  17.498  36.881   7.389
 3552POPC   C1B46351  17.214  37.221   6.297
 3552POPC   C2B46352  17.105  37.180   6.743
 3552POPC   C3B46353  17.138  37.361   7.160
 3552POPC   C4B46354  17.475  37.546   7.465
 3553POPC   NC346355  31.676   8.742   5.291
 3553POPC   PO446356  31.648   9.422   5.422
 3553POPC   GL146357  31.713   9.219   5.820
 3553POPC   GL246358  31.821   8.856   5.773
 3553POPC   C1A46359  31.480   9.223   6.236
 3553POPC   D2A46360  31.128   8.981   6.430
 3553POPC   C3A46361  31.085   8.962   6.898
 3553POPC   C4A46362  31.182   8.865   7.324
 3553POPC   C1B46363  31.612   8.726   6.158
 3553POPC   C2B46364  31.602   8.847   6.592
 3553POPC   C3B46365  31.604   8.848   7.023
 3553POPC   C4B46366  31.633   9.158   7.353
 3554POPC   NC346367   7.823  11.804   5.380
 3554POPC   PO446368   8.027  11.072   5.422
 3554POPC   GL146369   8.150  11.344   5.811
 3554POPC   GL246370   8.009  11.695   5.845
 3554POPC   C1A46371   8.261  11.220   6.254
 3554POPC   D2A46372   8.120  10.976   6.616
 3554POPC   C3A46373   8.084  11.155   7.040
 3554POPC   C4A46374   8.420  11.145   7.358
 3554POPC   C1B46375   8.155  11.723   6.274
 3554POPC   C2B46376   8.186  11.559   6.706
 3554POPC   C3B46377   8.107  11.727   7.131
 3554POPC   C4B46378   8.044  11.460   7.493
 3555POPC   NC346379   0.969   3.341   5.392
 3555POPC   PO446380   1.367   3.820   5.452
 3555POPC   GL146381   1.086   3.713   5.820
 3555POPC   GL246382   1.058   3.333   5.878
 3555POPC   C1A46383   1.242   3.783   6.262
 3555POPC   D2A46384   1.587   3.693   6.572
 3555POPC   C3A46385   1.473   3.443   6.929
 3555POPC   C4A46386   1.363   3.455   7.336
 3555POPC   C1B46387   0.852   3.446   6.221
 3555POPC   C2B46388   1.065   3.449   6.622
 3555POPC   C3B46389   0.970   3.350   7.041
 3555POPC   C4B46390   0.832   3.403   7.454
 3556POPC   NC346391   8.363  19.418   5.389
 3556POPC   PO446392   7.979  19.974   5.473
 3556POPC   GL146393   8.209  19.756   5.800
 3556POPC   GL246394   7.974  19.530   5.889
 3556POPC   C1A46395   8.453  19.865   6.196
 3556POPC   D2A46396   8.541  19.926   6.638
 3556POPC   C3A46397   8.430  19.635   6.922
 3556POPC   C4A46398   8.322  19.888   7.237
 3556POPC   C1B46399   7.951  19.825   6.268
 3556POPC   C2B46400   7.988  19.860   6.723
 3556POPC   C3B46401   7.817  19.978   7.127
 3556POPC   C4B46402   7.912  19.652   7.400
 3557POPC   NC346403  34.441   4.196   5.332
 3557POPC   PO446404  34.969   4.288   5.775
 3557POPC   GL146405  34.584   4.036   5.801
 3557POPC   GL246406  34.313   4.300   5.808
 3557POPC   C1A46407  34.403   3.946   6.189
 3557POPC   D2A46408  34.321   4.242   6.517
 3557POPC   C3A46409  34.688   4.241   6.799
 3557POPC   C4A46410  34.743   4.335   7.226
 3557POPC   C1B46411  34.479   4.572   6.130
 3557POPC   C2B46412  34.448   4.740   6.559
 3557POPC   C3B46413  34.361   4.584   6.999
 3557POPC   C4B46414  34.364   4.552   7.493
 3558POPC   NC346415  36.833  20.394   5.406
 3558POPC   PO446416  36.829  21.040   5.507
 3558POPC   GL146417  36.797  20.724   5.843
 3558POPC   GL246418  36.966  20.388   5.889
 3558POPC   C1A46419  36.754  20.809   6.296
 3558POPC   D2A46420  37.059  20.867   6.666
 3558POPC   C3A46421  36.872  20.678   7.033
 3558POPC   C4A46422  36.554  20.367   7.184
 3558POPC   C1B46423  37.163  20.491   6.287
 3558POPC   C2B46424  37.160  20.345   6.715
 3558POPC   C3B46425  37.076  20.184   7.136
 3558POPC   C4B46426  37.312  20.269   7.504
 3559POPC   NC346427  29.183  21.205   5.217
 3559POPC   PO446428  28.795  21.459   5.648
 3559POPC   GL146429  29.161  21.494   5.867
 3559POPC   GL246430  29.291  21.162   5.790
 3559POPC   C1A46431  29.058  21.565   6.303
 3559POPC   D2A46432  28.760  21.376   6.581
 3559POPC   C3A46433  28.937  21.334   6.956
 3559POPC   C4A46434  29.208  21.593   7.184
 3559POPC   C1B46435  29.484  21.267   6.218
 3559POPC   C2B46436  29.407  21.371   6.677
 3559POPC   C3B46437  29.434  21.143   7.082
 3559POPC   C4B46438  29.501  21.235   7.559
 3560POPC   NC346439  42.703  19.003   5.432
 3560POPC   PO446440  42.263  18.539   5.472
 3560POPC   GL146441  42.128  18.915   5.673
 3560POPC   GL246442  42.447  18.892   5.849
 3560POPC   C1A46443  42.075  19.186   6.042
 3560POPC   D2A46444  42.202  19.094   6.427
 3560POPC   C3A46445  42.193  19.303   6.808
 3560POPC   C4A46446  42.057  19.094   7.171
 3560POPC   C1B46447  42.621  19.169   6.125
 3560POPC   C2B46448  42.688  19.050   6.537
 3560POPC   C3B46449  42.678  19.204   6.919
 3560POPC   C4B46450  42.548  18.962   7.234
 3561POPC   NC346451  39.193  11.047   5.396
 3561POPC   PO446452  39.270  11.627   5.167
 3561POPC   GL146453  39.112  11.471   5.645
 3561POPC   GL246454  39.338  11.504   5.911
 3561POPC   C1A46455  39.128  11.086   6.040
 3561POPC   D2A46456  39.159  10.945   6.524
 3561POPC   C3A46457  39.272  11.081   6.959
 3561POPC   C4A46458  39.446  10.935   7.352
 3561POPC   C1B46459  39.129  11.594   6.276
 3561POPC   C2B46460  39.360  11.432   6.589
 3561POPC   C3B46461  39.495  11.530   6.988
 3561POPC   C4B46462  39.105  11.559   7.201
 3562POPC   NC346463  36.018  42.341   5.416
 3562POPC   PO446464  36.620  42.068   5.180
 3562POPC   GL146465  36.468  42.221   5.682
 3562POPC   GL246466  36.106  42.201   5.892
 3562POPC   C1A46467  36.491  42.277   6.175
 3562POPC   D2A46468  36.354  42.131   6.600
 3562POPC   C3A46469  36.482  42.396   6.911
 3562POPC   C4A46470  36.486  42.374   7.349
 3562POPC   C1B46471  35.962  42.308   6.281
 3562POPC   C2B46472  36.109  42.597   6.596
 3562POPC   C3B46473  35.986  42.405   6.973
 3562POPC   C4B46474  35.927  42.504   7.454
 3563POPC   NC346475  21.253  36.480   5.193
 3563POPC   PO446476  21.543  37.018   5.585
 3563POPC   GL146477  21.509  36.834   6.009
 3563POPC   GL246478  21.164  36.972   6.106
 3563POPC   C1A46479  21.400  36.654   6.429
 3563POPC   D2A46480  21.084  36.893   6.639
 3563POPC   C3A46481  21.236  36.956   7.040
 3563POPC   C4A46482  21.630  36.715   7.095
 3563POPC   C1B46483  21.517  37.153   6.398
 3563POPC   C2B46484  21.656  37.161   6.821
 3563POPC   C3B46485  21.594  37.249   7.256
 3563POPC   C4B46486  21.732  37.191   7.665
 3564POPC   NC346487  25.310  24.343   5.432
 3564POPC   PO446488  25.024  24.965   5.592
 3564POPC   GL146489  25.252  24.637   5.841
 3564POPC   GL246490  25.034  24.346   5.856
 3564POPC   C1A46491  25.411  24.381   6.196
 3564POPC   D2A46492  25.265  24.505   6.593
 3564POPC   C3A46493  25.429  24.321   6.921
 3564POPC   C4A46494  25.324  24.528   7.232
 3564POPC   C1B46495  24.958  24.141   6.232
 3564POPC   C2B46496  24.824  24.218   6.645
 3564POPC   C3B46497  24.938  24.168   7.068
 3564POPC   C4B46498  25.129  24.124   7.455
 3565POPC   NC346499  13.866  29.126   5.324
 3565POPC   PO446500  13.282  29.464   5.416
 3565POPC   GL146501  13.484  29.106   5.669
 3565POPC   GL246502  13.765  29.192   5.884
 3565POPC   C1A46503  13.393  28.897   6.088
 3565POPC   D2A46504  13.538  28.785   6.528
 3565POPC   C3A46505  13.648  29.119   6.798
 3565POPC   C4A46506  13.586  29.083   7.240
 3565POPC   C1B46507  13.562  29.329   6.305
 3565POPC   C2B46508  13.288  29.484   6.655
 3565POPC   C3B46509  13.488  29.593   7.054
 3565POPC   C4B46510  13.928  29.479   7.057
 3566POPC   NC346511   6.658  20.203   5.305
 3566POPC   PO446512   6.415  19.630   5.517
 3566POPC   GL146513   6.529  19.814   5.892
 3566POPC   GL246514   6.773  20.026   5.804
 3566POPC   C1A46515   6.614  19.743   6.334
 3566POPC   D2A46516   6.703  19.492   6.676
 3566POPC   C3A46517   6.458  19.563   7.010
 3566POPC   C4A46518   6.437  19.857   7.319
 3566POPC   C1B46519   6.962  20.072   6.177
 3566POPC   C2B46520   7.051  19.897   6.585
 3566POPC   C3B46521   6.810  19.925   6.950
 3566POPC   C4B46522   6.922  20.047   7.332
 3567POPC   NC346523   0.490   1.678   5.598
 3567POPC   PO446524   0.147   1.271   5.194
 3567POPC   GL146525   0.276   1.156   5.679
 3567POPC   GL246526   0.264   1.398   5.933
 3567POPC   C1A46527   0.393   0.973   6.159
 3567POPC   D2A46528   0.505   1.010   6.634
 3567POPC   C3A46529   0.217   0.958   6.971
 3567POPC   C4A46530   0.103   1.215   7.314
 3567POPC   C1B46531   0.613   1.447   6.231
 3567POPC   C2B46532   0.508   1.543   6.635
 3567POPC   C3B46533   0.524   1.391   7.042
 3567POPC   C4B46534   0.838   1.552   7.279
 3568POPC   NC346535   0.144   5.733   5.660
 3568POPC   PO446536  44.592   5.975   5.374
 3568POPC   GL146537  44.742   6.027   5.830
 3568POPC   GL246538   0.085   6.070   6.016
 3568POPC   C1A46539  44.531   5.834   6.204
 3568POPC   D2A46540  44.260   5.869   6.570
 3568POPC   C3A46541  44.351   5.578   6.901
 3568POPC   C4A46542  44.456   5.689   7.300
 3568POPC   C1B46543   0.022   5.708   6.310
 3568POPC   C2B46544  44.863   5.590   6.717
 3568POPC   C3B46545  44.933   5.820   7.077
 3568POPC   C4B46546   0.254   6.011   7.324
 3569POPC   NC346547  14.673  19.220   5.383
 3569POPC   PO446548  15.425  19.137   5.284
 3569POPC   GL146549  15.190  19.152   5.747
 3569POPC   GL246550  14.869  18.907   5.787
 3569POPC   C1A46551  15.376  19.171   6.226
 3569POPC   D2A46552  15.652  19.062   6.617
 3569POPC   C3A46553  15.465  18.841   6.982
 3569POPC   C4A46554  15.144  18.928   7.253
 3569POPC   C1B46555  14.915  18.926   6.264
 3569POPC   C2B46556  15.021  19.118   6.684
 3569POPC   C3B46557  14.750  19.172   7.071
 3569POPC   C4B46558  14.654  18.780   7.313
 3570POPC   NC346559   2.816  13.918   5.405
 3570POPC   PO446560   2.717  13.287   5.638
 3570POPC   GL146561   2.563  13.396   5.974
 3570POPC   GL246562   2.586  13.724   5.866
 3570POPC   C1A46563   2.627  13.350   6.397
 3570POPC   D2A46564   2.905  13.518   6.680
 3570POPC   C3A46565   2.735  13.345   7.024
 3570POPC   C4A46566   2.619  13.459   7.412
 3570POPC   C1B46567   2.739  13.827   6.264
 3570POPC   C2B46568   2.469  13.843   6.634
 3570POPC   C3B46569   2.368  13.752   7.068
 3570POPC   C4B46570   2.284  13.862   7.497
 3571POPC   NC346571  43.156  41.270   5.360
 3571POPC   PO446572  43.221  41.892   5.237
 3571POPC   GL146573  43.189  41.677   5.675
 3571POPC   GL246574  43.374  41.347   5.809
 3571POPC   C1A46575  43.062  41.620   6.113
 3571POPC   D2A46576  42.811  41.423   6.464
 3571POPC   C3A46577  42.883  41.247   6.904
 3571POPC   C4A46578  42.949  41.484   7.292
 3571POPC   C1B46579  43.227  41.160   6.219
 3571POPC   C2B46580  43.320  41.390   6.604
 3571POPC   C3B46581  43.390  41.299   7.033
 3571POPC   C4B46582  43.182  41.026   7.318
 3572POPC   NC346583   2.864  23.136   5.590
 3572POPC   PO446584   2.570  22.664   5.223
 3572POPC   GL146585   2.474  22.825   5.718
 3572POPC   GL246586   2.732  22.705   5.946
 3572POPC   C1A46587   2.489  23.106   6.177
 3572POPC   D2A46588   2.255  23.201   6.593
 3572POPC   C3A46589   2.502  23.270   6.975
 3572POPC   C4A46590   2.703  22.985   7.251
 3572POPC   C1B46591   2.962  22.926   6.287
 3572POPC   C2B46592   2.879  23.038   6.717
 3572POPC   C3B46593   3.019  22.708   6.984
 3572POPC   C4B46594   2.985  22.577   7.400
 3573POPC   NC346595  23.910  39.406   5.513
 3573POPC   PO446596  23.357  38.840   5.460
 3573POPC   GL146597  23.651  39.004   5.747
 3573POPC   GL246598  23.541  39.296   5.877
 3573POPC   C1A46599  23.882  38.954   6.141
 3573POPC   D2A46600  23.974  39.096   6.568
 3573POPC   C3A46601  23.729  39.021   6.918
 3573POPC   C4A46602  23.843  38.695   7.171
 3573POPC   C1B46603  23.694  39.428   6.292
 3573POPC   C2B46604  23.881  39.570   6.712
 3573POPC   C3B46605  24.017  39.401   7.123
 3573POPC   C4B46606  23.952  39.542   7.550
 3574POPC   NC346607  17.905  12.875   5.194
 3574POPC   PO446608  17.407  13.246   5.283
 3574POPC   GL146609  17.448  13.060   5.702
 3574POPC   GL246610  17.730  12.931   5.686
 3574POPC   C1A46611  17.411  13.059   6.160
 3574POPC   D2A46612  17.460  13.217   6.594
 3574POPC   C3A46613  17.467  12.932   6.926
 3574POPC   C4A46614  17.597  12.623   7.167
 3574POPC   C1B46615  17.856  12.797   6.101
 3574POPC   C2B46616  17.826  12.868   6.561
 3574POPC   C3B46617  17.986  12.949   6.987
 3574POPC   C4B46618  17.974  12.865   7.414
 3575POPC   NC346619  33.161  17.265   5.518
 3575POPC   PO446620  32.641  17.514   5.242
 3575POPC   GL146621  32.663  17.459   5.733
 3575POPC   GL246622  32.619  17.129   5.938
 3575POPC   C1A46623  32.942  17.546   6.117
 3575POPC   D2A46624  33.029  17.790   6.507
 3575POPC   C3A46625  33.189  17.691   6.909
 3575POPC   C4A46626  32.939  17.495   7.249
 3575POPC   C1B46627  32.771  17.113   6.331
 3575POPC   C2B46628  32.824  17.339   6.685
 3575POPC   C3B46629  33.168  17.197   6.898
 3575POPC   C4B46630  33.161  16.991   7.258
 3576POPC   NC346631  29.562  15.777   5.532
 3576POPC   PO446632  30.117  15.788   5.443
 3576POPC   GL146633  29.914  15.941   5.837
 3576POPC   GL246634  30.140  16.101   5.973
 3576POPC   C1A46635  29.732  15.891   6.242
 3576POPC   D2A46636  29.930  15.805   6.637
 3576POPC   C3A46637  29.705  15.721   6.990
 3576POPC   C4A46638  29.562  16.091   7.206
 3576POPC   C1B46639  30.340  15.970   6.346
 3576POPC   C2B46640  30.401  15.910   6.777
 3576POPC   C3B46641  30.098  16.019   7.105
 3576POPC   C4B46642  30.163  16.079   7.549
 3577POPC   NC346643   2.914  30.263   5.270
 3577POPC   PO446644   2.400  30.606   5.601
 3577POPC   GL146645   2.544  30.858   5.960
 3577POPC   GL246646   2.667  31.182   5.852
 3577POPC   C1A46647   2.512  30.850   6.421
 3577POPC   D2A46648   2.608  30.481   6.636
 3577POPC   C3A46649   2.574  30.399   7.060
 3577POPC   C4A46650   2.975  30.289   7.250
 3577POPC   C1B46651   2.883  31.172   6.228
 3577POPC   C2B46652   2.993  31.005   6.620
 3577POPC   C3B46653   2.888  30.797   7.021
 3577POPC   C4B46654   2.796  30.714   7.447
 3578POPC   NC346655  18.578  35.453   5.336
 3578POPC   PO446656  17.956  35.179   5.403
 3578POPC   GL146657  18.185  35.317   5.756
 3578POPC   GL246658  18.412  35.608   5.811
 3578POPC   C1A46659  18.165  35.283   6.203
 3578POPC   D2A46660  18.338  35.067   6.568
 3578POPC   C3A46661  18.338  35.281   6.963
 3578POPC   C4A46662  18.215  35.194   7.362
 3578POPC   C1B46663  18.643  35.461   6.202
 3578POPC   C2B46664  18.756  35.363   6.648
 3578POPC   C3B46665  18.691  35.650   7.020
 3578POPC   C4B46666  18.457  35.635   7.434
 3579POPC   NC346667  22.699  12.778   5.543
 3579POPC   PO446668  23.390  12.883   5.568
 3579POPC   GL146669  23.072  13.067   5.849
 3579POPC   GL246670  22.717  13.221   5.829
 3579POPC   C1A46671  22.898  12.839   6.178
 3579POPC   D2A46672  22.939  12.638   6.560
 3579POPC   C3A46673  22.963  12.933   6.878
 3579POPC   C4A46674  22.922  12.873   7.273
 3579POPC   C1B46675  22.461  13.137   6.176
 3579POPC   C2B46676  22.594  13.042   6.547
 3579POPC   C3B46677  22.493  13.241   6.893
 3579POPC   C4B46678  22.478  13.148   7.284
 3580POPC   NC346679  25.002  31.726   5.435
 3580POPC   PO446680  25.620  31.659   5.450
 3580POPC   GL146681  25.349  31.443   5.752
 3580POPC   GL246682  25.427  31.069   5.795
 3580POPC   C1A46683  25.231  31.424   6.194
 3580POPC   D2A46684  25.468  31.393   6.604
 3580POPC   C3A46685  25.396  31.692   6.963
 3580POPC   C4A46686  25.255  31.559   7.374
 3580POPC   C1B46687  25.437  30.966   6.249
 3580POPC   C2B46688  25.158  30.970   6.618
 3580POPC   C3B46689  25.185  31.213   6.986
 3580POPC   C4B46690  25.615  31.244   7.141
 3581POPC   NC346691  21.317  13.510   5.230
 3581POPC   PO446692  20.997  13.037   5.400
 3581POPC   GL146693  21.245  13.174   5.784
 3581POPC   GL246694  21.499  13.447   5.744
 3581POPC   C1A46695  21.298  13.343   6.201
 3581POPC   D2A46696  21.078  13.426   6.580
 3581POPC   C3A46697  21.303  13.419   6.958
 3581POPC   C4A46698  21.300  13.712   7.253
 3581POPC   C1B46699  21.592  13.751   6.122
 3581POPC   C2B46700  21.627  13.781   6.572
 3581POPC   C3B46701  21.612  13.985   6.964
 3581POPC   C4B46702  21.879  14.122   7.278
 3582POPC   NC346703  13.229   4.970   5.615
 3582POPC   PO446704  12.609   4.790   5.425
 3582POPC   GL146705  12.536   4.952   5.840
 3582POPC   GL246706  12.609   5.320   5.883
 3582POPC   C1A46707  12.782   4.845   6.200
 3582POPC   D2A46708  12.976   4.963   6.569
 3582POPC   C3A46709  12.707   5.105   6.891
 3582POPC   C4A46710  12.860   4.920   7.281
 3582POPC   C1B46711  12.710   5.353   6.350
 3582POPC   C2B46712  13.052   5.474   6.666
 3582POPC   C3B46713  13.049   5.394   7.129
 3582POPC   C4B46714  12.664   5.386   7.375
 3583POPC   NC346715  44.296  17.810   5.327
 3583POPC   PO446716  44.679  17.238   5.446
 3583POPC   GL146717  44.666  17.496   5.782
 3583POPC   GL246718  44.989  17.630   5.808
 3583POPC   C1A46719  44.564  17.611   6.200
 3583POPC   D2A46720  44.728  17.626   6.608
 3583POPC   C3A46721  44.378  17.535   6.860
 3583POPC   C4A46722  44.195  17.306   7.202
 3583POPC   C1B46723  44.988  17.314   6.153
 3583POPC   C2B46724   0.016  17.185   6.587
 3583POPC   C3B46725   0.030  17.413   6.990
 3583POPC   C4B46726  44.903  17.341   7.426
 3584POPC   NC346727  23.146  26.447   5.528
 3584POPC   PO446728  22.820  26.948   5.415
 3584POPC   GL146729  22.778  26.810   5.812
 3584POPC   GL246730  22.515  27.076   5.811
 3584POPC   C1A46731  22.986  26.607   6.156
 3584POPC   D2A46732  22.797  26.632   6.548
 3584POPC   C3A46733  22.986  26.794   6.888
 3584POPC   C4A46734  22.967  26.518   7.239
 3584POPC   C1B46735  22.510  27.298   6.187
 3584POPC   C2B46736  22.541  27.120   6.621
 3584POPC   C3B46737  22.484  27.266   7.054
 3584POPC   C4B46738  22.308  26.966   7.375
 3585POPC   NC346739  27.425  16.961   5.339
 3585POPC   PO446740  27.907  16.515   5.454
 3585POPC   GL146741  27.826  16.664   5.872
 3585POPC   GL246742  27.526  16.845   5.879
 3585POPC   C1A46743  27.631  16.541   6.279
 3585POPC   D2A46744  27.384  16.674   6.638
 3585POPC   C3A46745  27.431  16.502   7.055
 3585POPC   C4A46746  27.779  16.257   7.251
 3585POPC   C1B46747  27.611  17.046   6.309
 3585POPC   C2B46748  27.282  17.183   6.620
 3585POPC   C3B46749  27.192  17.231   7.052
 3585POPC   C4B46750  27.289  16.921   7.339
 3586POPC   NC346751  18.079  32.284   5.507
 3586POPC   PO446752  17.441  32.206   5.276
 3586POPC   GL146753  17.427  32.298   5.710
 3586POPC   GL246754  17.741  32.371   5.887
 3586POPC   C1A46755  17.333  32.126   6.119
 3586POPC   D2A46756  17.229  32.002   6.509
 3586POPC   C3A46757  17.254  32.106   6.936
 3586POPC   C4A46758  17.248  32.002   7.367
 3586POPC   C1B46759  17.788  32.250   6.318
 3586POPC   C2B46760  17.729  32.160   6.760
 3586POPC   C3B46761  17.914  32.272   7.179
 3586POPC   C4B46762  17.934  32.522   7.604
 3587POPC   NC346763   2.690  19.860   5.425
 3587POPC   PO446764   3.225  19.466   5.652
 3587POPC   GL146765   2.939  19.737   5.885
 3587POPC   GL246766   2.903  20.078   5.863
 3587POPC   C1A46767   2.767  19.612   6.265
 3587POPC   D2A46768   2.878  19.472   6.663
 3587POPC   C3A46769   2.624  19.638   6.975
 3587POPC   C4A46770   2.729  19.626   7.404
 3587POPC   C1B46771   2.791  20.246   6.263
 3587POPC   C2B46772   2.882  20.182   6.712
 3587POPC   C3B46773   2.929  20.014   7.134
 3587POPC   C4B46774   2.847  20.080   7.605
 3588POPC   NC346775  23.625  33.494   5.201
 3588POPC   PO446776  23.627  32.847   5.382
 3588POPC   GL146777  23.659  32.832   5.876
 3588POPC   GL246778  23.625  33.175   5.900
 3588POPC   C1A46779  23.420  32.932   6.286
 3588POPC   D2A46780  23.300  33.152   6.676
 3588POPC   C3A46781  23.520  33.017   7.055
 3588POPC   C4A46782  23.261  32.841   7.379
 3588POPC   C1B46783  23.710  33.363   6.317
 3588POPC   C2B46784  23.720  33.471   6.764
 3588POPC   C3B46785  24.045  33.424   7.114
 3588POPC   C4B46786  24.053  33.173   7.509
 3589POPC   NC346787  21.477   8.518   5.459
 3589POPC   PO446788  21.093   7.932   5.439
 3589POPC   GL146789  21.234   8.024   5.846
 3589POPC   GL246790  21.222   8.368   5.866
 3589POPC   C1A46791  21.377   8.132   6.272
 3589POPC   D2A46792  21.193   8.030   6.630
 3589POPC   C3A46793  21.496   8.074   6.886
 3589POPC   C4A46794  21.437   8.158   7.276
 3589POPC   C1B46795  21.546   8.591   6.141
 3589POPC   C2B46796  21.559   8.506   6.602
 3589POPC   C3B46797  21.459   8.613   7.047
 3589POPC   C4B46798  21.707   8.673   7.422
 3590POPC   NC346799  21.895  39.835   5.631
 3590POPC   PO446800  21.388  40.226   5.347
 3590POPC   GL146801  21.487  40.295   5.811
 3590POPC   GL246802  21.784  40.170   5.984
 3590POPC   C1A46803  21.347  40.198   6.256
 3590POPC   D2A46804  21.370  40.298   6.697
 3590POPC   C3A46805  21.379  39.944   6.994
 3590POPC   C4A46806  21.193  40.107   7.339
 3590POPC   C1B46807  21.750  39.835   6.304
 3590POPC   C2B46808  21.752  39.544   6.654
 3590POPC   C3B46809  21.831  39.666   7.078
 3590POPC   C4B46810  21.804  40.079   7.259
 3591POPC   NC346811  35.234  17.342   5.209
 3591POPC   PO446812  35.596  17.735   5.585
 3591POPC   GL146813  35.484  17.516   5.937
 3591POPC   GL246814  35.269  17.289   5.794
 3591POPC   C1A46815  35.378  17.624   6.354
 3591POPC   D2A46816  35.123  17.710   6.694
 3591POPC   C3A46817  35.393  17.516   6.990
 3591POPC   C4A46818  35.570  17.670   7.331
 3591POPC   C1B46819  35.006  17.330   6.201
 3591POPC   C2B46820  35.137  17.209   6.632
 3591POPC   C3B46821  34.949  17.299   7.030
 3591POPC   C4B46822  35.060  17.448   7.439
 3592POPC   NC346823  15.701   0.253   5.562
 3592POPC   PO446824  16.116  44.631   5.465
 3592POPC   GL146825  16.085  44.887   5.824
 3592POPC   GL246826  15.734  44.876   5.921
 3592POPC   C1A46827  16.088  44.588   6.171
 3592POPC   D2A46828  15.902  44.431   6.543
 3592POPC   C3A46829  16.231  44.367   6.884
 3592POPC   C4A46830  16.407  44.518   7.279
 3592POPC   C1B46831  15.744  44.891   6.393
 3592POPC   C2B46832  15.966  44.849   6.802
 3592POPC   C3B46833  15.935  44.676   7.197
 3592POPC   C4B46834  15.621  44.821   7.441
 3593POPC   NC346835  14.670  41.318   5.498
 3593POPC   PO446836  14.643  40.687   5.360
 3593POPC   GL146837  14.471  40.929   5.778
 3593POPC   GL246838  14.135  41.102   5.830
 3593POPC   C1A46839  14.463  40.963   6.253
 3593POPC   D2A46840  14.358  40.609   6.550
 3593POPC   C3A46841  14.345  40.660   6.992
 3593POPC   C4A46842  14.609  40.958   7.220
 3593POPC   C1B46843  13.957  41.012   6.254
 3593POPC   C2B46844  14.162  41.090   6.675
 3593POPC   C3B46845  14.093  41.079   7.128
 3593POPC   C4B46846  13.879  41.335   7.405
 3594POPC   NC346847  15.893  24.754   5.148
 3594POPC   PO446848  16.068  25.132   5.587
 3594POPC   GL146849  15.870  24.762   5.808
 3594POPC   GL246850  15.884  24.373   5.751
 3594POPC   C1A46851  15.966  24.619   6.207
 3594POPC   D2A46852  15.754  24.519   6.547
 3594POPC   C3A46853  15.918  24.677   6.915
 3594POPC   C4A46854  15.792  24.466   7.249
 3594POPC   C1B46855  16.017  24.113   6.138
 3594POPC   C2B46856  16.085  24.110   6.579
 3594POPC   C3B46857  16.207  24.230   6.986
 3594POPC   C4B46858  16.112  24.121   7.406
 3595POPC   NC346859  40.036  33.073   5.065
 3595POPC   PO446860  39.886  33.623   5.366
 3595POPC   GL146861  39.932  33.705   5.805
 3595POPC   GL246862  39.666  33.501   5.883
 3595POPC   C1A46863  40.094  33.732   6.224
 3595POPC   D2A46864  40.219  33.475   6.599
 3595POPC   C3A46865  40.187  33.712   6.983
 3595POPC   C4A46866  40.342  33.785   7.401
 3595POPC   C1B46867  39.570  33.702   6.261
 3595POPC   C2B46868  39.761  33.786   6.619
 3595POPC   C3B46869  39.657  33.659   6.990
 3595POPC   C4B46870  39.814  33.816   7.326
 3596POPC   NC346871  30.164  41.443   5.323
 3596POPC   PO446872  29.735  41.873   5.670
 3596POPC   GL146873  29.855  41.433   5.813
 3596POPC   GL246874  29.540  41.229   5.908
 3596POPC   C1A46875  30.035  41.234   6.163
 3596POPC   D2A46876  30.272  41.443   6.488
 3596POPC   C3A46877  30.044  41.522   6.860
 3596POPC   C4A46878  30.013  41.341   7.264
 3596POPC   C1B46879  29.596  41.534   6.235
 3596POPC   C2B46880  29.521  41.384   6.614
 3596POPC   C3B46881  29.612  41.223   6.983
 3596POPC   C4B46882  29.526  41.502   7.305
 3597POPC   NC346883  27.949  26.305   5.704
 3597POPC   PO446884  27.745  25.786   5.326
 3597POPC   GL146885  27.793  25.822   5.843
 3597POPC   GL246886  28.074  25.967   6.082
 3597POPC   C1A46887  27.633  25.862   6.310
 3597POPC   D2A46888  27.243  25.958   6.556
 3597POPC   C3A46889  27.314  26.000   6.997
 3597POPC   C4A46890  27.464  26.124   7.391
 3597POPC   C1B46891  27.843  26.321   6.331
 3597POPC   C2B46892  27.653  26.248   6.679
 3597POPC   C3B46893  27.837  26.093   7.021
 3597POPC   C4B46894  27.911  26.403   7.305
 3598POPC   NC346895   9.599  43.079   5.377
 3598POPC   PO446896  10.209  42.919   5.587
 3598POPC   GL146897   9.845  43.104   5.824
 3598POPC   GL246898   9.556  42.902   5.838
 3598POPC   C1A46899   9.724  43.203   6.267
 3598POPC   D2A46900   9.967  43.206   6.666
 3598POPC   C3A46901   9.726  43.201   7.022
 3598POPC   C4A46902   9.526  43.533   7.214
 3598POPC   C1B46903   9.457  42.742   6.203
 3598POPC   C2B46904   9.487  42.842   6.637
 3598POPC   C3B46905   9.556  42.712   7.048
 3598POPC   C4B46906   9.927  42.597   7.237
 3599POPC   NC346907   5.127  24.021   5.440
 3599POPC   PO446908   4.874  24.685   5.556
 3599POPC   GL146909   5.093  24.598   5.903
 3599POPC   GL246910   5.312  24.380   5.773
 3599POPC   C1A46911   4.907  24.447   6.292
 3599POPC   D2A46912   4.770  24.599   6.666
 3599POPC   C3A46913   4.950  24.434   7.021
 3599POPC   C4A46914   5.046  24.549   7.405
 3599POPC   C1B46915   5.395  24.310   6.217
 3599POPC   C2B46916   5.312  24.400   6.667
 3599POPC   C3B46917   5.453  24.505   7.091
 3599POPC   C4B46918   5.514  24.352   7.525
 3600POPC   NC346919  24.031  16.650   5.438
 3600POPC   PO446920  23.783  17.286   5.380
 3600POPC   GL146921  23.744  16.973   5.779
 3600POPC   GL246922  23.965  16.720   5.924
 3600POPC   C1A46923  23.556  16.810   6.200
 3600POPC   D2A46924  23.704  16.632   6.568
 3600POPC   C3A46925  23.511  16.849   6.890
 3600POPC   C4A46926  23.545  16.751   7.294
 3600POPC   C1B46927  24.151  16.790   6.307
 3600POPC   C2B46928  24.262  16.676   6.712
 3600POPC   C3B46929  23.983  16.710   7.040
 3600POPC   C4B46930  23.989  16.960   7.388
 3601POPC   NC346931  14.549  11.411   5.576
 3601POPC   PO446932  14.113  10.927   5.687
 3601POPC   GL146933  14.333  11.200   6.033
 3601POPC   GL246934  14.362  11.591   6.017
 3601POPC   C1A46935  14.383  11.388   6.481
 3601POPC   D2A46936  14.212  11.594   6.855
 3601POPC   C3A46937  14.044  11.263   7.140
 3601POPC   C4A46938  14.133  10.990   7.535
 3601POPC   C1B46939  14.795  11.417   6.180
 3601POPC   C2B46940  14.901  11.260   6.602
 3601POPC   C3B46941  14.598  11.240   6.936
 3601POPC   C4B46942  14.541  11.537   7.258
 3602POPC   NC346943  24.385  18.681   5.472
 3602POPC   PO446944  24.923  19.055   5.538
 3602POPC   GL146945  24.660  18.813   5.884
 3602POPC   GL246946  24.276  18.884   5.928
 3602POPC   C1A46947  24.656  18.798   6.346
 3602POPC   D2A46948  24.987  18.690   6.691
 3602POPC   C3A46949  24.828  18.691   7.141
 3602POPC   C4A46950  24.736  18.744   7.624
 3602POPC   C1B46951  24.150  19.022   6.335
 3602POPC   C2B46952  24.357  19.066   6.695
 3602POPC   C3B46953  24.246  19.203   7.084
 3602POPC   C4B46954  24.303  18.873   7.393
 3603POPC   NC346955  31.876  18.944   5.650
 3603POPC   PO446956  31.392  19.279   5.288
 3603POPC   GL146957  31.411  19.158   5.723
 3603POPC   GL246958  31.400  18.830   5.805
 3603POPC   C1A46959  31.363  19.163   6.197
 3603POPC   D2A46960  31.475  19.452   6.544
 3603POPC   C3A46961  31.234  19.385   6.930
 3603POPC   C4A46962  31.165  19.065   7.268
 3603POPC   C1B46963  31.460  18.664   6.209
 3603POPC   C2B46964  31.224  18.560   6.580
 3603POPC   C3B46965  31.332  18.692   6.976
 3603POPC   C4B46966  31.704  18.770   7.201
 3604POPC   NC346967   1.885  41.738   5.543
 3604POPC   PO446968   1.780  41.082   5.609
 3604POPC   GL146969   1.804  41.372   5.889
 3604POPC   GL246970   2.116  41.356   5.981
 3604POPC   C1A46971   1.789  41.614   6.268
 3604POPC   D2A46972   2.003  41.482   6.605
 3604POPC   C3A46973   1.862  41.628   6.984
 3604POPC   C4A46974   2.020  41.878   7.288
 3604POPC   C1B46975   2.410  41.185   6.219
 3604POPC   C2B46976   2.399  41.162   6.628
 3604POPC   C3B46977   2.199  41.239   7.020
 3604POPC   C4B46978   2.238  41.270   7.470
 3605POPC   NC346979   9.385   0.804   5.475
 3605POPC   PO446980   9.872   0.381   5.359
 3605POPC   GL146981   9.890   0.240   5.767
 3605POPC   GL246982   9.596   0.465   5.853
 3605POPC   C1A46983   9.965   0.349   6.195
 3605POPC   D2A46984   9.633   0.479   6.493
 3605POPC   C3A46985   9.635   0.229   6.861
 3605POPC   C4A46986   9.833   0.471   7.181
 3605POPC   C1B46987   9.282   0.647   6.151
 3605POPC   C2B46988   9.115   0.557   6.539
 3605POPC   C3B46989   9.299   0.611   6.921
 3605POPC   C4B46990   9.348   0.809   7.293
 3606POPC   NC346991  33.918   1.804   5.510
 3606POPC   PO446992  33.611   2.484   5.395
 3606POPC   GL146993  33.608   2.223   5.795
 3606POPC   GL246994  33.957   2.157   5.891
 3606POPC   C1A46995  33.652   2.159   6.289
 3606POPC   D2A46996  33.971   2.143   6.645
 3606POPC   C3A46997  33.805   2.129   7.032
 3606POPC   C4A46998  33.638   1.992   7.403
 3606POPC   C1B46999  34.106   1.879   6.229
 3606POPC   C2B47000  34.066   1.649   6.616
 3606POPC   C3B47001  34.303   1.761   6.963
 3606POPC   C4B47002  34.131   1.876   7.347
 3607POPC   NC347003  23.974  26.172   5.334
 3607POPC   PO447004  23.551  25.702   5.565
 3607POPC   GL147005  23.876  25.913   5.815
 3607POPC   GL247006  23.742  26.211   5.792
 3607POPC   C1A47007  23.906  25.931   6.274
 3607POPC   D2A47008  23.778  25.749   6.683
 3607POPC   C3A47009  23.743  25.890   7.129
 3607POPC   C4A47010  24.115  25.964   7.382
 3607POPC   C1B47011  23.576  26.411   6.137
 3607POPC   C2B47012  23.647  26.339   6.557
 3607POPC   C3B47013  23.390  26.471   6.890
 3607POPC   C4B47014  23.593  26.434   7.238
 3608POPC   NC347015  12.039  22.897   5.373
 3608POPC   PO447016  12.189  23.553   5.302
 3608POPC   GL147017  12.170  23.296   5.760
 3608POPC   GL247018  11.951  22.992   5.848
 3608POPC   C1A47019  12.152  23.204   6.261
 3608POPC   D2A47020  12.081  23.279   6.726
 3608POPC   C3A47021  12.312  23.090   7.086
 3608POPC   C4A47022  12.175  23.252   7.511
 3608POPC   C1B47023  11.773  22.740   6.147
 3608POPC   C2B47024  11.883  22.528   6.532
 3608POPC   C3B47025  12.014  22.707   6.894
 3608POPC   C4B47026  11.998  22.774   7.310
 3609POPC   NC347027   4.128   8.395   5.469
 3609POPC   PO447028   4.623   8.251   5.005
 3609POPC   GL147029   4.615   8.233   5.499
 3609POPC   GL247030   4.363   7.974   5.660
 3609POPC   C1A47031   4.612   8.409   5.960
 3609POPC   D2A47032   4.493   8.598   6.389
 3609POPC   C3A47033   4.497   8.302   6.737
 3609POPC   C4A47034   4.530   8.309   7.183
 3609POPC   C1B47035   4.296   8.011   6.125
 3609POPC   C2B47036   4.097   8.033   6.537
 3609POPC   C3B47037   4.180   7.960   6.975
 3609POPC   C4B47038   4.115   8.093   7.407
 3610POPC   NC347039  33.192  23.692   5.264
 3610POPC   PO447040  32.745  23.396   5.717
 3610POPC   GL147041  32.716  23.694   6.019
 3610POPC   GL247042  33.054  23.786   5.904
 3610POPC   C1A47043  32.738  23.726   6.466
 3610POPC   D2A47044  33.124  23.830   6.672
 3610POPC   C3A47045  32.936  23.850   7.015
 3610POPC   C4A47046  32.819  23.722   7.385
 3610POPC   C1B47047  33.134  23.462   6.274
 3610POPC   C2B47048  33.226  23.334   6.728
 3610POPC   C3B47049  33.191  23.431   7.158
 3610POPC   C4B47050  33.305  23.796   7.367
 3611POPC   NC347051  13.838  35.109   5.319
 3611POPC   PO447052  13.413  35.479   5.635
 3611POPC   GL147053  13.756  35.403   5.898
 3611POPC   GL247054  13.868  35.037   5.879
 3611POPC   C1A47055  13.781  35.459   6.348
 3611POPC   D2A47056  13.823  35.088   6.624
 3611POPC   C3A47057  13.826  35.132   7.071
 3611POPC   C4A47058  13.818  35.463   7.391
 3611POPC   C1B47059  13.480  35.047   6.163
 3611POPC   C2B47060  13.222  34.900   6.489
 3611POPC   C3B47061  13.378  34.932   6.914
 3611POPC   C4B47062  13.331  35.279   7.211
 3612POPC   NC347063  12.902  11.597   5.179
 3612POPC   PO447064  12.630  11.059   5.518
 3612POPC   GL147065  12.884  11.112   5.851
 3612POPC   GL247066  12.926  11.439   5.831
 3612POPC   C1A47067  13.073  11.078   6.242
 3612POPC   D2A47068  13.217  11.336   6.588
 3612POPC   C3A47069  12.931  11.297   6.964
 3612POPC   C4A47070  12.680  11.317   7.347
 3612POPC   C1B47071  12.973  11.671   6.194
 3612POPC   C2B47072  13.227  11.883   6.469
 3612POPC   C3B47073  13.183  11.761   6.884
 3612POPC   C4B47074  12.950  11.734   7.260
 3613POPC   NC347075  43.076  27.212   5.432
 3613POPC   PO447076  43.351  26.518   5.558
 3613POPC   GL147077  43.117  26.675   5.898
 3613POPC   GL247078  43.140  27.015   5.877
 3613POPC   C1A47079  42.833  26.817   6.242
 3613POPC   D2A47080  42.611  26.761   6.646
 3613POPC   C3A47081  42.862  26.888   7.036
 3613POPC   C4A47082  43.210  26.650   7.251
 3613POPC   C1B47083  43.279  27.095   6.272
 3613POPC   C2B47084  43.218  26.854   6.636
 3613POPC   C3B47085  43.313  27.142   6.936
 3613POPC   C4B47086  43.370  27.149   7.350
 3614POPC   NC347087  19.385  31.340   5.327
 3614POPC   PO447088  18.839  31.751   5.331
 3614POPC   GL147089  19.026  31.508   5.673
 3614POPC   GL247090  18.863  31.228   5.857
 3614POPC   C1A47091  19.189  31.615   6.072
 3614POPC   D2A47092  19.050  31.617   6.527
 3614POPC   C3A47093  19.323  31.497   6.876
 3614POPC   C4A47094  19.385  31.728   7.276
 3614POPC   C1B47095  18.881  31.170   6.342
 3614POPC   C2B47096  18.859  31.193   6.814
 3614POPC   C3B47097  18.736  31.007   7.247
 3614POPC   C4B47098  18.834  31.074   7.711
 3615POPC   NC347099  20.091   2.733   5.377
 3615POPC   PO447100  19.718   3.225   5.618
 3615POPC   GL147101  19.970   2.940   5.833
 3615POPC   GL247102  19.899   2.575   5.811
 3615POPC   C1A47103  20.063   2.952   6.251
 3615POPC   D2A47104  19.869   3.065   6.609
 3615POPC   C3A47105  20.067   2.949   6.954
 3615POPC   C4A47106  19.916   2.957   7.338
 3615POPC   C1B47107  20.050   2.461   6.192
 3615POPC   C2B47108  19.880   2.539   6.593
 3615POPC   C3B47109  20.026   2.447   7.035
 3615POPC   C4B47110  19.819   2.477   7.435
 3616POPC   NC347111   9.527  40.299   5.248
 3616POPC   PO447112   9.955  39.867   5.604
 3616POPC   GL147113   9.817  40.044   5.959
 3616POPC   GL247114   9.489  40.236   5.891
 3616POPC   C1A47115   9.834  39.908   6.384
 3616POPC   D2A47116   9.967  40.015   6.802
 3616POPC   C3A47117   9.753  39.768   7.100
 3616POPC   C4A47118   9.512  39.925   7.448
 3616POPC   C1B47119   9.693  40.409   6.293
 3616POPC   C2B47120   9.697  40.470   6.720
 3616POPC   C3B47121   9.622  40.295   7.105
 3616POPC   C4B47122   9.830  40.322   7.524
 3617POPC   NC347123  22.613   4.606   5.690
 3617POPC   PO447124  23.113   4.277   5.313
 3617POPC   GL147125  23.027   4.268   5.782
 3617POPC   GL247126  23.176   4.552   6.005
 3617POPC   C1A47127  22.791   4.262   6.208
 3617POPC   D2A47128  22.961   4.287   6.605
 3617POPC   C3A47129  22.864   4.045   6.928
 3617POPC   C4A47130  22.916   4.253   7.297
 3617POPC   C1B47131  22.857   4.780   6.260
 3617POPC   C2B47132  22.574   4.633   6.565
 3617POPC   C3B47133  22.655   4.549   6.980
 3617POPC   C4B47134  22.741   4.720   7.393
 3618POPC   NC347135   8.194  16.382   5.273
 3618POPC   PO447136   8.188  17.038   5.239
 3618POPC   GL147137   8.101  16.878   5.681
 3618POPC   GL247138   7.953  16.542   5.712
 3618POPC   C1A47139   8.061  16.835   6.149
 3618POPC   D2A47140   7.859  16.820   6.549
 3618POPC   C3A47141   8.175  16.805   6.852
 3618POPC   C4A47142   8.154  16.703   7.286
 3618POPC   C1B47143   7.731  16.435   6.107
 3618POPC   C2B47144   7.847  16.324   6.528
 3618POPC   C3B47145   7.832  16.453   6.961
 3618POPC   C4B47146   7.890  16.162   7.322
 3619POPC   NC347147  40.639   3.874   5.406
 3619POPC   PO447148  40.808   4.569   5.304
 3619POPC   GL147149  40.817   4.353   5.705
 3619POPC   GL247150  41.156   4.313   5.872
 3619POPC   C1A47151  40.704   4.251   6.129
 3619POPC   D2A47152  40.629   4.145   6.529
 3619POPC   C3A47153  40.672   4.459   6.839
 3619POPC   C4A47154  40.688   4.098   7.089
 3619POPC   C1B47155  41.210   4.379   6.315
 3619POPC   C2B47156  41.129   4.231   6.709
 3619POPC   C3B47157  41.163   4.237   7.134
 3619POPC   C4B47158  40.942   4.227   7.540
 3620POPC   NC347159  31.260   7.113   5.638
 3620POPC   PO447160  31.813   7.552   5.438
 3620POPC   GL147161  31.727   7.339   5.798
 3620POPC   GL247162  31.472   7.534   5.936
 3620POPC   C1A47163  31.704   7.193   6.228
 3620POPC   D2A47164  31.527   7.226   6.635
 3620POPC   C3A47165  31.612   7.418   7.023
 3620POPC   C4A47166  31.533   7.187   7.408
 3620POPC   C1B47167  31.206   7.477   6.319
 3620POPC   C2B47168  31.024   7.243   6.675
 3620POPC   C3B47169  31.058   7.092   7.083
 3620POPC   C4B47170  31.112   7.480   7.253
 3621POPC   NC347171  22.553  13.591   5.471
 3621POPC   PO447172  23.193  13.714   5.415
 3621POPC   GL147173  23.079  13.590   5.853
 3621POPC   GL247174  22.737  13.755   5.938
 3621POPC   C1A47175  22.901  13.425   6.283
 3621POPC   D2A47176  22.618  13.689   6.582
 3621POPC   C3A47177  22.702  13.698   7.035
 3621POPC   C4A47178  22.944  13.370   7.194
 3621POPC   C1B47179  23.005  13.943   6.312
 3621POPC   C2B47180  23.102  13.948   6.788
 3621POPC   C3B47181  23.143  13.917   7.270
 3621POPC   C4B47182  23.213  13.938   7.783
 3622POPC   NC347183   8.535  11.143   5.495
 3622POPC   PO447184   9.173  11.018   5.245
 3622POPC   GL147185   9.103  11.263   5.702
 3622POPC   GL247186   8.898  11.581   5.792
 3622POPC   C1A47187   8.873  11.198   6.151
 3622POPC   D2A47188   8.667  10.921   6.511
 3622POPC   C3A47189   8.919  10.831   6.917
 3622POPC   C4A47190   8.907  10.977   7.359
 3622POPC   C1B47191   9.205  11.635   6.165
 3622POPC   C2B47192   9.285  11.419   6.575
 3622POPC   C3B47193   9.021  11.391   6.973
 3622POPC   C4B47194   8.905  11.472   7.403
 3623POPC   NC347195  13.493  27.710   5.455
 3623POPC   PO447196  13.882  27.264   5.214
 3623POPC   GL147197  13.698  27.345   5.750
 3623POPC   GL247198  13.465  27.153   5.885
 3623POPC   C1A47199  13.460  27.595   6.134
 3623POPC   D2A47200  13.267  27.760   6.561
 3623POPC   C3A47201  13.511  27.721   6.960
 3623POPC   C4A47202  13.479  27.566   7.385
 3623POPC   C1B47203  13.725  27.184   6.246
 3623POPC   C2B47204  13.729  27.299   6.666
 3623POPC   C3B47205  13.626  27.184   7.062
 3623POPC   C4B47206  13.915  27.346   7.323
 3624POPC   NC347207  20.018  16.008   5.244
 3624POPC   PO447208  19.452  15.937   5.517
 3624POPC   GL147209  19.763  15.758   5.816
 3624POPC   GL247210  20.025  16.009   5.752
 3624POPC   C1A47211  19.692  15.635   6.274
 3624POPC   D2A47212  19.503  15.873   6.634
 3624POPC   C3A47213  19.463  15.639   7.001
 3624POPC   C4A47214  19.857  15.427   7.099
 3624POPC   C1B47215  19.988  16.046   6.199
 3624POPC   C2B47216  20.043  15.898   6.638
 3624POPC   C3B47217  19.887  15.941   7.052
 3624POPC   C4B47218  19.618  16.151   7.306
 3625POPC   NC347219  12.648  30.527   5.260
 3625POPC   PO447220  12.716  29.894   5.477
 3625POPC   GL147221  12.892  29.762   5.847
 3625POPC   GL247222  12.646  29.497   5.923
 3625POPC   C1A47223  12.787  29.981   6.212
 3625POPC   D2A47224  12.914  29.859   6.602
 3625POPC   C3A47225  12.735  30.060   6.911
 3625POPC   C4A47226  12.974  29.997   7.255
 3625POPC   C1B47227  12.602  29.513   6.342
 3625POPC   C2B47228  12.799  29.351   6.660
 3625POPC   C3B47229  12.815  29.531   7.014
 3625POPC   C4B47230  12.409  29.712   7.067
 3626POPC   NC347231  40.917  31.898   5.091
 3626POPC   PO447232  40.576  32.307   5.530
 3626POPC   GL147233  40.770  32.392   5.882
 3626POPC   GL247234  40.547  32.628   5.969
 3626POPC   C1A47235  40.856  32.194   6.270
 3626POPC   D2A47236  41.090  31.902   6.516
 3626POPC   C3A47237  41.052  32.034   6.917
 3626POPC   C4A47238  40.837  32.303   7.213
 3626POPC   C1B47239  40.628  32.648   6.359
 3626POPC   C2B47240  40.695  32.472   6.733
 3626POPC   C3B47241  40.576  32.699   7.084
 3626POPC   C4B47242  40.660  32.663   7.552
 3627POPC   NC347243  25.024  38.448   5.509
 3627POPC   PO447244  25.702  38.600   5.677
 3627POPC   GL147245  25.403  38.393   5.867
 3627POPC   GL247246  25.164  38.639   5.955
 3627POPC   C1A47247  25.379  38.264   6.291
 3627POPC   D2A47248  25.456  38.478   6.684
 3627POPC   C3A47249  25.422  38.286   7.081
 3627POPC   C4A47250  25.549  38.446   7.483
 3627POPC   C1B47251  24.961  38.948   6.248
 3627POPC   C2B47252  24.831  38.886   6.670
 3627POPC   C3B47253  25.047  38.642   6.920
 3627POPC   C4B47254  25.099  38.610   7.316
 3628POPC   NC347255  25.028  34.268   5.024
 3628POPC   PO447256  25.284  34.777   5.467
 3628POPC   GL147257  25.180  34.632   5.973
 3628POPC   GL247258  25.065  34.243   6.044
 3628POPC   C1A47259  25.258  34.550   6.420
 3628POPC   D2A47260  25.579  34.627   6.737
 3628POPC   C3A47261  25.326  34.661   7.071
 3628POPC   C4A47262  24.939  34.813   7.273
 3628POPC   C1B47263  24.979  34.093   6.475
 3628POPC   C2B47264  24.984  34.338   6.836
 3628POPC   C3B47265  25.037  34.290   7.269
 3628POPC   C4B47266  25.197  34.149   7.692
 3629POPC   NC347267   1.408  38.011   5.410
 3629POPC   PO447268   1.658  37.346   5.399
 3629POPC   GL147269   1.332  37.426   5.789
 3629POPC   GL247270   1.293  37.773   5.863
 3629POPC   C1A47271   1.118  37.473   6.246
 3629POPC   D2A47272   1.203  37.646   6.707
 3629POPC   C3A47273   1.263  37.483   7.156
 3629POPC   C4A47274   1.576  37.285   7.448
 3629POPC   C1B47275   1.227  37.967   6.280
 3629POPC   C2B47276   1.106  38.159   6.691
 3629POPC   C3B47277   1.232  38.027   7.099
 3629POPC   C4B47278   1.250  37.873   7.499
 3630POPC   NC347279  10.391  22.552   5.647
 3630POPC   PO447280  10.509  21.902   5.702
 3630POPC   GL147281  10.511  22.224   6.019
 3630POPC   GL247282  10.823  22.427   5.945
 3630POPC   C1A47283  10.395  22.444   6.407
 3630POPC   D2A47284  10.232  22.575   6.819
 3630POPC   C3A47285  10.323  22.273   7.106
 3630POPC   C4A47286  10.392  21.841   7.202
 3630POPC   C1B47287  10.912  22.229   6.349
 3630POPC   C2B47288  10.882  21.875   6.601
 3630POPC   C3B47289  10.888  21.785   7.031
 3630POPC   C4B47290  10.806  22.154   7.255
 3631POPC   NC347291  23.092   8.470   5.555
 3631POPC   PO447292  22.799   7.894   5.638
 3631POPC   GL147293  22.647   8.303   5.832
 3631POPC   GL247294  22.950   8.429   6.037
 3631POPC   C1A47295  22.487   8.578   6.181
 3631POPC   D2A47296  22.733   8.488   6.571
 3631POPC   C3A47297  22.569   8.464   6.984
 3631POPC   C4A47298  22.432   8.103   7.231
 3631POPC   C1B47299  23.072   8.097   6.317
 3631POPC   C2B47300  23.002   8.058   6.757
 3631POPC   C3B47301  22.950   8.168   7.185
 3631POPC   C4B47302  23.031   8.491   7.493
 3632POPC   NC347303  21.943  13.311   5.476
 3632POPC   PO447304  21.599  13.847   5.434
 3632POPC   GL147305  21.960  13.732   5.769
 3632POPC   GL247306  22.232  13.462   5.856
 3632POPC   C1A47307  22.127  13.769   6.223
 3632POPC   D2A47308  22.115  13.548   6.610
 3632POPC   C3A47309  22.187  13.707   7.032
 3632POPC   C4A47310  22.253  13.542   7.478
 3632POPC   C1B47311  21.865  13.317   6.146
 3632POPC   C2B47312  21.642  13.271   6.563
 3632POPC   C3B47313  21.812  13.349   6.982
 3632POPC   C4B47314  21.777  13.609   7.327
 3633POPC   NC347315   6.785  39.418   5.515
 3633POPC   PO447316   7.154  38.871   5.651
 3633POPC   GL147317   6.789  39.058   5.920
 3633POPC   GL247318   6.534  39.362   5.943
 3633POPC   C1A47319   6.864  39.274   6.318
 3633POPC   D2A47320   6.845  39.058   6.670
 3633POPC   C3A47321   6.769  39.229   7.019
 3633POPC   C4A47322   6.484  39.018   7.244
 3633POPC   C1B47323   6.402  39.519   6.335
 3633POPC   C2B47324   6.348  39.320   6.725
 3633POPC   C3B47325   6.332  39.464   7.098
 3633POPC   C4B47326   6.691  39.720   7.290
 3634POPC   NC347327   5.250  30.616   5.526
 3634POPC   PO447328   4.663  30.995   5.451
 3634POPC   GL147329   4.935  30.893   5.817
 3634POPC   GL247330   4.932  30.560   5.931
 3634POPC   C1A47331   5.169  30.898   6.239
 3634POPC   D2A47332   5.312  30.712   6.636
 3634POPC   C3A47333   5.250  30.939   7.013
 3634POPC   C4A47334   4.866  31.038   7.216
 3634POPC   C1B47335   4.849  30.447   6.340
 3634POPC   C2B47336   4.960  30.351   6.738
 3634POPC   C3B47337   4.960  30.523   7.110
 3634POPC   C4B47338   4.587  30.557   7.263
 3635POPC   NC347339  35.906  16.641   5.446
 3635POPC   PO447340  36.280  17.084   5.777
 3635POPC   GL147341  36.005  16.826   5.972
 3635POPC   GL247342  35.927  16.479   5.922
 3635POPC   C1A47343  35.844  16.763   6.361
 3635POPC   D2A47344  36.054  16.650   6.725
 3635POPC   C3A47345  36.007  16.890   7.101
 3635POPC   C4A47346  36.337  17.123   7.307
 3635POPC   C1B47347  36.111  16.337   6.270
 3635POPC   C2B47348  36.180  16.164   6.646
 3635POPC   C3B47349  36.313  16.316   7.027
 3635POPC   C4B47350  36.153  16.460   7.377
 3636POPC   NC347351  30.292  27.482   5.099
 3636POPC   PO447352  29.773  27.838   5.441
 3636POPC   GL147353  29.847  27.548   5.715
 3636POPC   GL247354  30.188  27.487   5.613
 3636POPC   C1A47355  29.810  27.550   6.146
 3636POPC   D2A47356  29.678  27.701   6.535
 3636POPC   C3A47357  29.878  27.524   6.884
 3636POPC   C4A47358  29.791  27.442   7.278
 3636POPC   C1B47359  30.260  27.362   6.048
 3636POPC   C2B47360  30.208  27.540   6.487
 3636POPC   C3B47361  30.371  27.687   6.898
 3636POPC   C4B47362  30.283  27.551   7.351
 3637POPC   NC347363   8.565  33.182   5.077
 3637POPC   PO447364   9.136  32.940   5.287
 3637POPC   GL147365   8.963  33.055   5.682
 3637POPC   GL247366   8.738  32.773   5.827
 3637POPC   C1A47367   8.967  33.129   6.133
 3637POPC   D2A47368   9.155  32.956   6.496
 3637POPC   C3A47369   9.077  33.193   6.847
 3637POPC   C4A47370   9.093  33.032   7.241
 3637POPC   C1B47371   8.499  32.887   6.228
 3637POPC   C2B47372   8.647  32.970   6.644
 3637POPC   C3B47373   8.780  32.706   6.969
 3637POPC   C4B47374   8.757  32.684   7.417
 3638POPC   NC347375  22.898  38.752   5.423
 3638POPC   PO447376  22.966  38.099   5.497
 3638POPC   GL147377  23.178  38.182   5.861
 3638POPC   GL247378  23.098  38.532   5.832
 3638POPC   C1A47379  23.170  38.294   6.281
 3638POPC   D2A47380  23.305  38.238   6.667
 3638POPC   C3A47381  23.045  38.264   6.979
 3638POPC   C4A47382  23.139  38.412   7.393
 3638POPC   C1B47383  22.925  38.740   6.215
 3638POPC   C2B47384  22.889  38.587   6.631
 3638POPC   C3B47385  22.886  38.766   7.057
 3638POPC   C4B47386  22.801  38.745   7.529
 3639POPC   NC347387  34.234  34.065   5.558
 3639POPC   PO447388  34.924  34.010   5.399
 3639POPC   GL147389  34.780  33.912   5.847
 3639POPC   GL247390  34.434  33.725   5.881
 3639POPC   C1A47391  34.662  34.084   6.277
 3639POPC   D2A47392  34.510  33.902   6.688
 3639POPC   C3A47393  34.713  34.093   7.041
 3639POPC   C4A47394  34.864  33.842   7.384
 3639POPC   C1B47395  34.631  33.578   6.258
 3639POPC   C2B47396  34.771  33.342   6.595
 3639POPC   C3B47397  34.794  33.546   6.971
 3639POPC   C4B47398  34.430  33.689   7.185
 3640POPC   NC347399  33.658  44.015   5.447
 3640POPC   PO447400  34.293  44.279   5.623
 3640POPC   GL147401  33.922  44.184   5.902
 3640POPC   GL247402  33.796  43.836   5.924
 3640POPC   C1A47403  33.625  44.162   6.278
 3640POPC   D2A47404  33.607  43.967   6.704
 3640POPC   C3A47405  33.748  44.195   7.095
 3640POPC   C4A47406  33.526  44.203   7.532
 3640POPC   C1B47407  33.695  43.585   6.322
 3640POPC   C2B47408  33.743  43.465   6.787
 3640POPC   C3B47409  33.731  43.702   7.162
 3640POPC   C4B47410  33.811  43.734   7.617
 3641POPC   NC347411   3.667  28.519   5.338
 3641POPC   PO447412   3.676  27.969   5.574
 3641POPC   GL147413   3.530  28.290   5.800
 3641POPC   GL247414   3.167  28.233   5.819
 3641POPC   C1A47415   3.592  28.384   6.226
 3641POPC   D2A47416   3.652  28.148   6.600
 3641POPC   C3A47417   3.888  28.228   6.952
 3641POPC   C4A47418   3.708  28.312   7.324
 3641POPC   C1B47419   3.117  27.966   6.190
 3641POPC   C2B47420   3.259  27.836   6.627
 3641POPC   C3B47421   3.325  28.107   7.028
 3641POPC   C4B47422   3.272  28.165   7.516
 3642POPC   NC347423  26.040  19.150   5.455
 3642POPC   PO447424  26.373  18.576   5.356
 3642POPC   GL147425  26.284  18.804   5.751
 3642POPC   GL247426  25.921  18.830   5.867
 3642POPC   C1A47427  26.345  18.950   6.164
 3642POPC   D2A47428  26.200  19.105   6.538
 3642POPC   C3A47429  26.020  18.826   6.802
 3642POPC   C4A47430  25.982  18.892   7.254
 3642POPC   C1B47431  25.957  19.266   6.116
 3642POPC   C2B47432  25.774  19.370   6.552
 3642POPC   C3B47433  25.990  19.351   6.960
 3642POPC   C4B47434  25.921  19.505   7.372
 3643POPC   NC347435   0.203  29.768   5.306
 3643POPC   PO447436   0.551  30.238   5.336
 3643POPC   GL147437   0.267  30.087   5.717
 3643POPC   GL247438   0.250  29.702   5.796
 3643POPC   C1A47439   0.282  30.138   6.189
 3643POPC   D2A47440   0.488  30.295   6.580
 3643POPC   C3A47441   0.431  30.133   7.030
 3643POPC   C4A47442   0.702  29.771   7.225
 3643POPC   C1B47443   0.304  29.601   6.214
 3643POPC   C2B47444   0.063  29.670   6.597
 3643POPC   C3B47445   0.252  29.650   7.011
 3643POPC   C4B47446   0.238  29.843   7.471
 3644POPC   NC347447  39.475  12.744   5.498
 3644POPC   PO447448  40.148  12.875   5.412
 3644POPC   GL147449  40.119  13.053   5.843
 3644POPC   GL247450  39.853  12.783   5.928
 3644POPC   C1A47451  40.086  13.062   6.302
 3644POPC   D2A47452  39.986  12.674   6.540
 3644POPC   C3A47453  40.111  12.616   6.971
 3644POPC   C4A47454  40.159  13.028   7.138
 3644POPC   C1B47455  39.586  13.024   6.220
 3644POPC   C2B47456  39.438  13.070   6.661
 3644POPC   C3B47457  39.642  12.840   6.990
 3644POPC   C4B47458  39.794  12.725   7.385
 3645POPC   NC347459  19.250  17.117   5.348
 3645POPC   PO447460  19.403  16.498   5.222
 3645POPC   GL147461  19.142  16.641   5.611
 3645POPC   GL247462  19.377  16.842   5.775
 3645POPC   C1A47463  18.906  16.841   6.023
 3645POPC   D2A47464  18.703  16.906   6.471
 3645POPC   C3A47465  18.889  16.716   6.832
 3645POPC   C4A47466  18.995  16.505   7.217
 3645POPC   C1B47467  19.381  17.049   6.157
 3645POPC   C2B47468  19.199  17.087   6.552
 3645POPC   C3B47469  19.351  16.917   6.942
 3645POPC   C4B47470  19.257  16.916   7.394
 3646POPC   NC347471   3.811  17.867   5.464
 3646POPC   PO447472   3.260  17.430   5.510
 3646POPC   GL147473   3.577  17.543   5.794
 3646POPC   GL247474   3.424  17.827   5.921
 3646POPC   C1A47475   3.795  17.501   6.190
 3646POPC   D2A47476   3.580  17.657   6.556
 3646POPC   C3A47477   3.781  17.632   6.948
 3646POPC   C4A47478   3.824  17.341   7.286
 3646POPC   C1B47479   3.271  17.427   6.178
 3646POPC   C2B47480   3.098  17.439   6.581
 3646POPC   C3B47481   3.308  17.455   6.974
 3646POPC   C4B47482   3.319  17.233   7.342
 3647POPC   NC347483  11.624  34.091   5.535
 3647POPC   PO447484  11.659  34.740   5.542
 3647POPC   GL147485  11.476  34.477   5.868
 3647POPC   GL247486  11.186  34.290   5.738
 3647POPC   C1A47487  11.672  34.264   6.232
 3647POPC   D2A47488  11.929  34.329   6.594
 3647POPC   C3A47489  11.673  34.494   6.930
 3647POPC   C4A47490  11.367  34.785   7.085
 3647POPC   C1B47491  11.168  34.184   6.164
 3647POPC   C2B47492  11.062  34.371   6.526
 3647POPC   C3B47493  11.168  34.353   6.925
 3647POPC   C4B47494  11.141  34.268   7.357
 3648POPC   NC347495  30.949   4.978   5.681
 3648POPC   PO447496  31.561   5.006   5.321
 3648POPC   GL147497  31.431   5.118   5.761
 3648POPC   GL247498  31.218   5.422   5.841
 3648POPC   C1A47499  31.326   4.926   6.195
 3648POPC   D2A47500  31.586   4.909   6.560
 3648POPC   C3A47501  31.409   4.738   6.931
 3648POPC   C4A47502  31.697   4.674   7.238
 3648POPC   C1B47503  31.521   5.387   6.199
 3648POPC   C2B47504  31.425   5.433   6.635
 3648POPC   C3B47505  31.488   5.245   7.012
 3648POPC   C4B47506  31.331   5.064   7.373
 3649POPC   NC347507  24.331  40.777   5.230
 3649POPC   PO447508  24.151  40.383   5.733
 3649POPC   GL147509  24.496  40.642   5.884
 3649POPC   GL247510  24.527  41.022   5.819
 3649POPC   C1A47511  24.791  40.699   6.229
 3649POPC   D2A47512  24.832  40.531   6.647
 3649POPC   C3A47513  24.664  40.710   7.017
 3649POPC   C4A47514  24.883  40.979   7.274
 3649POPC   C1B47515  24.730  41.231   6.206
 3649POPC   C2B47516  24.731  41.101   6.648
 3649POPC   C3B47517  24.525  41.219   7.002
 3649POPC   C4B47518  24.292  41.015   7.287
 3650POPC   NC347519   3.633  18.724   5.502
 3650POPC   PO447520   3.277  18.127   5.396
 3650POPC   GL147521   3.417  18.339   5.775
 3650POPC   GL247522   3.779  18.277   5.787
 3650POPC   C1A47523   3.298  18.236   6.225
 3650POPC   D2A47524   3.522  18.168   6.624
 3650POPC   C3A47525   3.471  18.488   6.953
 3650POPC   C4A47526   3.253  18.338   7.294
 3650POPC   C1B47527   3.761  18.434   6.222
 3650POPC   C2B47528   3.900  18.502   6.658
 3650POPC   C3B47529   3.981  18.564   7.091
 3650POPC   C4B47530   3.763  18.518   7.466
 3651POPC   NC347531  18.724  22.946   5.551
 3651POPC   PO447532  19.277  22.644   5.253
 3651POPC   GL147533  19.297  22.810   5.715
 3651POPC   GL247534  19.101  23.085   5.872
 3651POPC   C1A47535  19.355  22.814   6.201
 3651POPC   D2A47536  19.176  23.047   6.575
 3651POPC   C3A47537  19.404  22.909   6.882
 3651POPC   C4A47538  19.425  22.673   7.233
 3651POPC   C1B47539  18.794  23.026   6.239
 3651POPC   C2B47540  18.685  22.807   6.661
 3651POPC   C3B47541  18.869  22.792   7.080
 3651POPC   C4B47542  19.079  23.144   7.178
 3652POPC   NC347543  29.738  22.466   5.454
 3652POPC   PO447544  30.120  22.010   5.436
 3652POPC   GL147545  30.146  22.182   5.821
 3652POPC   GL247546  29.798  22.160   5.887
 3652POPC   C1A47547  30.314  22.445   6.146
 3652POPC   D2A47548  30.186  22.610   6.558
 3652POPC   C3A47549  30.037  22.347   6.894
 3652POPC   C4A47550  30.163  22.179   7.298
 3652POPC   C1B47551  29.599  22.441   6.215
 3652POPC   C2B47552  29.514  22.494   6.664
 3652POPC   C3B47553  29.588  22.539   7.122
 3652POPC   C4B47554  29.673  22.262   7.463
 3653POPC   NC347555  37.392  18.859   4.986
 3653POPC   PO447556  37.971  18.821   5.304
 3653POPC   GL147557  37.684  18.961   5.772
 3653POPC   GL247558  37.846  19.290   5.878
 3653POPC   C1A47559  37.589  18.809   6.208
 3653POPC   D2A47560  37.685  18.987   6.624
 3653POPC   C3A47561  37.648  18.814   7.047
 3653POPC   C4A47562  37.408  18.991   7.430
 3653POPC   C1B47563  37.943  19.295   6.286
 3653POPC   C2B47564  38.159  19.240   6.645
 3653POPC   C3B47565  37.956  19.404   6.965
 3653POPC   C4B47566  37.832  19.217   7.304
 3654POPC   NC347567  21.487   3.757   5.427
 3654POPC   PO447568  21.437   3.111   5.669
 3654POPC   GL147569  21.303   3.490   5.859
 3654POPC   GL247570  21.163   3.847   5.837
 3654POPC   C1A47571  21.264   3.491   6.283
 3654POPC   D2A47572  21.091   3.360   6.642
 3654POPC   C3A47573  21.323   3.488   6.993
 3654POPC   C4A47574  21.212   3.674   7.375
 3654POPC   C1B47575  21.500   3.915   6.151
 3654POPC   C2B47576  21.559   3.769   6.606
 3654POPC   C3B47577  21.639   3.887   7.050
 3654POPC   C4B47578  21.664   3.883   7.511
 3655POPC   NC347579  25.098   7.109   5.084
 3655POPC   PO447580  24.967   7.574   5.586
 3655POPC   GL147581  24.577   7.456   5.773
 3655POPC   GL247582  24.463   7.772   5.840
 3655POPC   C1A47583  24.444   7.231   6.154
 3655POPC   D2A47584  24.131   7.331   6.476
 3655POPC   C3A47585  24.266   7.335   6.896
 3655POPC   C4A47586  24.132   7.234   7.291
 3655POPC   C1B47587  24.664   7.691   6.232
 3655POPC   C2B47588  24.559   7.670   6.651
 3655POPC   C3B47589  24.691   7.605   7.082
 3655POPC   C4B47590  24.628   7.567   7.535
 3656POPC   NC347591  41.406  12.443   5.444
 3656POPC   PO447592  41.872  12.932   5.391
 3656POPC   GL147593  41.539  13.028   5.735
 3656POPC   GL247594  41.478  12.699   5.878
 3656POPC   C1A47595  41.413  13.107   6.177
 3656POPC   D2A47596  41.361  12.926   6.590
 3656POPC   C3A47597  41.530  13.119   6.962
 3656POPC   C4A47598  41.699  13.002   7.352
 3656POPC   C1B47599  41.338  12.499   6.249
 3656POPC   C2B47600  41.459  12.418   6.666
 3656POPC   C3B47601  41.537  12.599   7.041
 3656POPC   C4B47602  41.386  12.594   7.422
 3657POPC   NC347603  27.093  40.853   5.279
 3657POPC   PO447604  26.458  40.516   5.309
 3657POPC   GL147605  26.608  40.746   5.709
 3657POPC   GL247606  26.951  40.740   5.757
 3657POPC   C1A47607  26.661  40.669   6.198
 3657POPC   D2A47608  26.489  40.677   6.649
 3657POPC   C3A47609  26.784  40.700   6.967
 3657POPC   C4A47610  26.877  40.658   7.384
 3657POPC   C1B47611  27.110  40.996   6.086
 3657POPC   C2B47612  27.284  41.042   6.508
 3657POPC   C3B47613  27.101  41.096   6.914
 3657POPC   C4B47614  27.236  41.055   7.348
 3658POPC   NC347615  31.801   4.594   5.301
 3658POPC   PO447616  31.138   4.450   5.485
 3658POPC   GL147617  31.419   4.323   5.847
 3658POPC   GL247618  31.619   3.985   5.801
 3658POPC   C1A47619  31.333   4.414   6.306
 3658POPC   D2A47620  31.109   4.232   6.667
 3658POPC   C3A47621  31.259   4.272   7.096
 3658POPC   C4A47622  31.319   4.489   7.519
 3658POPC   C1B47623  31.755   4.131   6.230
 3658POPC   C2B47624  31.638   4.230   6.691
 3658POPC   C3B47625  31.751   4.175   7.129
 3658POPC   C4B47626  31.930   3.925   7.444
 3659POPC   NC347627   3.080   7.487   5.528
 3659POPC   PO447628   2.458   7.510   5.339
 3659POPC   GL147629   2.633   7.625   5.744
 3659POPC   GL247630   2.732   7.272   5.826
 3659POPC   C1A47631   2.822   7.713   6.147
 3659POPC   D2A47632   2.685   7.578   6.547
 3659POPC   C3A47633   2.935   7.616   6.909
 3659POPC   C4A47634   2.723   7.734   7.259
 3659POPC   C1B47635   2.694   7.159   6.252
 3659POPC   C2B47636   2.973   7.170   6.626
 3659POPC   C3B47637   2.839   7.150   7.079
 3659POPC   C4B47638   2.932   7.237   7.521
 3660POPC   NC347639  37.269  37.777   5.425
 3660POPC   PO447640  36.881  37.234   5.411
 3660POPC   GL147641  36.926  37.551   5.709
 3660POPC   GL247642  37.250  37.446   5.822
 3660POPC   C1A47643  36.894  37.827   6.095
 3660POPC   D2A47644  36.741  37.932   6.554
 3660POPC   C3A47645  36.826  37.740   6.966
 3660POPC   C4A47646  36.990  37.711   7.373
 3660POPC   C1B47647  37.008  37.343   6.172
 3660POPC   C2B47648  36.952  37.421   6.578
 3660POPC   C3B47649  37.273  37.448   6.855
 3660POPC   C4B47650  37.386  37.323   7.244
 3661POPC   NC347651   3.368  25.801   5.265
 3661POPC   PO447652   3.273  25.159   5.352
 3661POPC   GL147653   3.341  25.342   5.747
 3661POPC   GL247654   3.581  25.083   5.815
 3661POPC   C1A47655   3.436  25.410   6.198
 3661POPC   D2A47656   3.666  25.532   6.559
 3661POPC   C3A47657   3.493  25.437   6.956
 3661POPC   C4A47658   3.708  25.457   7.326
 3661POPC   C1B47659   3.408  24.898   6.148
 3661POPC   C2B47660   3.491  25.045   6.561
 3661POPC   C3B47661   3.417  24.879   6.935
 3661POPC   C4B47662   3.214  24.963   7.286
 3662POPC   NC347663  30.147  20.066   5.393
 3662POPC   PO447664  29.777  19.467   5.433
 3662POPC   GL147665  30.065  19.663   5.711
 3662POPC   GL247666  29.931  19.981   5.840
 3662POPC   C1A47667  30.208  19.615   6.119
 3662POPC   D2A47668  30.165  19.435   6.496
 3662POPC   C3A47669  30.129  19.745   6.820
 3662POPC   C4A47670  30.068  19.691   7.250
 3662POPC   C1B47671  29.766  20.193   6.212
 3662POPC   C2B47672  29.608  20.094   6.613
 3662POPC   C3B47673  29.816  20.114   7.009
 3662POPC   C4B47674  29.998  20.170   7.416
 3663POPC   NC347675  43.745   2.332   5.493
 3663POPC   PO447676  43.592   1.744   5.500
 3663POPC   GL147677  43.802   1.870   5.833
 3663POPC   GL247678  44.158   1.961   5.806
 3663POPC   C1A47679  43.890   1.663   6.204
 3663POPC   D2A47680  44.097   1.808   6.568
 3663POPC   C3A47681  43.927   1.647   6.940
 3663POPC   C4A47682  44.053   1.776   7.317
 3663POPC   C1B47683  44.027   2.177   6.188
 3663POPC   C2B47684  44.122   2.355   6.579
 3663POPC   C3B47685  44.112   2.153   6.979
 3663POPC   C4B47686  44.101   2.313   7.411
 3664POPC   NC347687  21.295  43.440   5.148
 3664POPC   PO447688  21.318  42.845   5.509
 3664POPC   GL147689  21.390  43.025   5.875
 3664POPC   GL247690  21.717  42.876   5.900
 3664POPC   C1A47691  21.192  43.139   6.269
 3664POPC   D2A47692  21.158  42.921   6.660
 3664POPC   C3A47693  21.087  43.244   6.943
 3664POPC   C4A47694  21.312  43.339   7.271
 3664POPC   C1B47695  21.512  42.731   6.275
 3664POPC   C2B47696  21.612  42.633   6.684
 3664POPC   C3B47697  21.596  42.692   7.121
 3664POPC   C4B47698  21.827  42.525   7.503
 3665POPC   NC347699  32.941  29.239   5.152
 3665POPC   PO447700  33.488  29.035   5.322
 3665POPC   GL147701  33.171  29.187   5.659
 3665POPC   GL247702  33.017  28.924   5.872
 3665POPC   C1A47703  32.979  29.380   6.094
 3665POPC   D2A47704  32.844  29.206   6.506
 3665POPC   C3A47705  33.078  29.255   6.928
 3665POPC   C4A47706  33.106  29.207   7.411
 3665POPC   C1B47707  33.129  28.757   6.264
 3665POPC   C2B47708  33.017  28.768   6.693
 3665POPC   C3B47709  33.174  28.783   7.088
 3665POPC   C4B47710  33.070  28.696   7.507
 3666POPC   NC347711   6.037  37.087   5.432
 3666POPC   PO447712   5.413  36.587   5.388
 3666POPC   GL147713   5.673  36.708   5.797
 3666POPC   GL247714   6.054  36.743   5.798
 3666POPC   C1A47715   5.746  36.726   6.242
 3666POPC   D2A47716   5.598  36.676   6.658
 3666POPC   C3A47717   5.864  36.837   6.996
 3666POPC   C4A47718   5.745  36.834   7.433
 3666POPC   C1B47719   6.116  37.058   6.124
 3666POPC   C2B47720   6.047  37.071   6.551
 3666POPC   C3B47721   6.019  37.343   6.896
 3666POPC   C4B47722   6.067  37.226   7.289
 3667POPC   NC347723   3.168  32.538   5.588
 3667POPC   PO447724   2.615  32.193   5.507
 3667POPC   GL147725   2.854  32.220   5.860
 3667POPC   GL247726   2.704  32.532   5.879
 3667POPC   C1A47727   2.950  32.122   6.273
 3667POPC   D2A47728   2.788  32.078   6.663
 3667POPC   C3A47729   3.055  32.094   6.991
 3667POPC   C4A47730   3.005  32.246   7.394
 3667POPC   C1B47731   2.528  32.408   6.243
 3667POPC   C2B47732   2.654  32.625   6.602
 3667POPC   C3B47733   2.690  32.483   7.005
 3667POPC   C4B47734   2.584  32.545   7.414
 3668POPC   NC347735  36.481  21.325   5.498
 3668POPC   PO447736  37.113  21.634   5.554
 3668POPC   GL147737  36.890  21.555   5.926
 3668POPC   GL247738  36.700  21.231   5.957
 3668POPC   C1A47739  36.874  21.786   6.313
 3668POPC   D2A47740  36.584  21.793   6.635
 3668POPC   C3A47741  36.799  21.738   6.997
 3668POPC   C4A47742  36.733  21.665   7.388
 3668POPC   C1B47743  36.653  21.322   6.377
 3668POPC   C2B47744  36.936  21.371   6.687
 3668POPC   C3B47745  36.913  21.216   7.114
 3668POPC   C4B47746  36.797  21.177   7.539
 3669POPC   NC347747  42.000  20.772   5.241
 3669POPC   PO447748  42.502  20.423   5.321
 3669POPC   GL147749  42.503  20.563   5.734
 3669POPC   GL247750  42.529  20.258   5.906
 3669POPC   C1A47751  42.359  20.693   6.161
 3669POPC   D2A47752  42.434  20.815   6.608
 3669POPC   C3A47753  42.454  20.644   7.065
 3669POPC   C4A47754  42.612  20.567   7.506
 3669POPC   C1B47755  42.140  20.225   6.217
 3669POPC   C2B47756  42.105  20.378   6.681
 3669POPC   C3B47757  42.268  20.161   7.073
 3669POPC   C4B47758  42.248  20.199   7.530
 3670POPC   NC347759   2.072  16.991   5.440
 3670POPC   PO447760   1.803  16.331   5.542
 3670POPC   GL147761   1.746  16.712   5.830
 3670POPC   GL247762   2.095  16.658   5.895
 3670POPC   C1A47763   1.886  16.918   6.274
 3670POPC   D2A47764   2.285  16.801   6.511
 3670POPC   C3A47765   2.191  16.777   6.961
 3670POPC   C4A47766   1.787  16.960   7.113
 3670POPC   C1B47767   1.830  16.431   6.239
 3670POPC   C2B47768   1.878  16.504   6.652
 3670POPC   C3B47769   1.842  16.422   7.047
 3670POPC   C4B47770   1.875  16.571   7.438
 3671POPC   NC347771  16.278  42.691   5.313
 3671POPC   PO447772  16.503  42.083   5.469
 3671POPC   GL147773  16.706  42.327   5.795
 3671POPC   GL247774  17.044  42.188   5.845
 3671POPC   C1A47775  16.602  42.694   6.065
 3671POPC   D2A47776  16.365  42.756   6.463
 3671POPC   C3A47777  16.456  42.636   6.905
 3671POPC   C4A47778  16.657  42.532   7.307
 3671POPC   C1B47779  16.905  42.347   6.284
 3671POPC   C2B47780  16.848  42.344   6.745
 3671POPC   C3B47781  16.945  42.093   7.145
 3671POPC   C4B47782  17.046  41.787   7.462
 3672POPC   NC347783   1.325  12.961   5.473
 3672POPC   PO447784   1.563  12.428   5.409
 3672POPC   GL147785   1.478  12.635   5.847
 3672POPC   GL247786   1.143  12.816   5.922
 3672POPC   C1A47787   1.558  12.869   6.257
 3672POPC   D2A47788   1.526  12.668   6.685
 3672POPC   C3A47789   1.452  12.925   7.046
 3672POPC   C4A47790   1.144  13.060   7.298
 3672POPC   C1B47791   1.076  13.016   6.353
 3672POPC   C2B47792   0.987  12.959   6.809
 3672POPC   C3B47793   0.715  12.816   7.173
 3672POPC   C4B47794   0.826  12.756   7.624
 3673POPC   NC347795  24.418  27.376   5.049
 3673POPC   PO447796  24.773  27.845   5.434
 3673POPC   GL147797  24.650  27.699   5.875
 3673POPC   GL247798  24.302  27.577   5.862
 3673POPC   C1A47799  24.551  27.541   6.286
 3673POPC   D2A47800  24.290  27.567   6.642
 3673POPC   C3A47801  24.596  27.477   6.947
 3673POPC   C4A47802  24.752  27.635   7.324
 3673POPC   C1B47803  24.118  27.258   6.218
 3673POPC   C2B47804  23.920  27.204   6.629
 3673POPC   C3B47805  24.123  27.251   7.016
 3673POPC   C4B47806  24.228  27.635   7.246
 3674POPC   NC347807   6.193  23.010   5.469
 3674POPC   PO447808   5.531  22.899   5.621
 3674POPC   GL147809   5.867  23.068   5.859
 3674POPC   GL247810   6.154  22.853   5.953
 3674POPC   C1A47811   5.801  23.016   6.275
 3674POPC   D2A47812   5.853  22.895   6.673
 3674POPC   C3A47813   5.781  23.187   6.965
 3674POPC   C4A47814   5.661  22.988   7.321
 3674POPC   C1B47815   6.146  22.580   6.314
 3674POPC   C2B47816   6.283  22.643   6.744
 3674POPC   C3B47817   6.091  22.781   7.121
 3674POPC   C4B47818   6.214  22.798   7.543
 3675POPC   NC347819  24.195  15.729   5.519
 3675POPC   PO447820  24.893  15.812   5.616
 3675POPC   GL147821  24.536  15.952   5.844
 3675POPC   GL247822  24.459  16.284   5.682
 3675POPC   C1A47823  24.295  15.855   6.236
 3675POPC   D2A47824  24.029  15.800   6.615
 3675POPC   C3A47825  24.320  15.833   6.939
 3675POPC   C4A47826  24.487  15.625   7.250
 3675POPC   C1B47827  24.282  16.343   6.080
 3675POPC   C2B47828  24.056  16.282   6.445
 3675POPC   C3B47829  24.020  16.231   6.902
 3675POPC   C4B47830  24.165  16.137   7.338
 3676POPC   NC347831  35.403  30.730   5.502
 3676POPC   PO447832  34.716  30.731   5.586
 3676POPC   GL147833  35.065  30.712   5.903
 3676POPC   GL247834  35.327  30.436   5.909
 3676POPC   C1A47835  35.113  30.929   6.309
 3676POPC   D2A47836  34.948  30.740   6.693
 3676POPC   C3A47837  35.121  30.734   7.119
 3676POPC   C4A47838  35.211  30.794   7.562
 3676POPC   C1B47839  35.191  30.437   6.340
 3676POPC   C2B47840  35.392  30.527   6.718
 3676POPC   C3B47841  35.543  30.302   7.015
 3676POPC   C4B47842  35.328  30.333   7.345
 3677POPC   NC347843  32.906  34.100   5.561
 3677POPC   PO447844  33.180  33.522   5.406
 3677POPC   GL147845  33.134  33.686   5.827
 3677POPC   GL247846  33.228  34.023   5.968
 3677POPC   C1A47847  33.147  33.647   6.271
 3677POPC   D2A47848  33.255  33.937   6.600
 3677POPC   C3A47849  33.099  33.745   6.964
 3677POPC   C4A47850  32.936  33.576   7.322
 3677POPC   C1B47851  32.926  34.215   6.265
 3677POPC   C2B47852  32.730  34.275   6.686
 3677POPC   C3B47853  32.935  34.223   7.089
 3677POPC   C4B47854  32.760  34.060   7.499
 3678POPC   NC347855   5.372  40.299   5.450
 3678POPC   PO447856   4.899  39.820   5.349
 3678POPC   GL147857   4.961  39.857   5.764
 3678POPC   GL247858   5.285  39.916   5.799
 3678POPC   C1A47859   4.904  40.008   6.176
 3678POPC   D2A47860   5.074  39.927   6.550
 3678POPC   C3A47861   4.801  39.951   6.862
 3678POPC   C4A47862   5.006  40.027   7.217
 3678POPC   C1B47863   5.373  40.210   6.129
 3678POPC   C2B47864   5.286  40.390   6.530
 3678POPC   C3B47865   5.379  40.235   6.921
 3678POPC   C4B47866   5.536  40.391   7.294
 3679POPC   NC347867   7.582  24.130   5.484
 3679POPC   PO447868   7.566  24.807   5.212
 3679POPC   GL147869   7.294  24.586   5.579
 3679POPC   GL247870   7.577  24.544   5.780
 3679POPC   C1A47871   7.187  24.393   6.054
 3679POPC   D2A47872   7.295  24.378   6.543
 3679POPC   C3A47873   7.291  24.625   6.953
 3679POPC   C4A47874   7.164  24.427   7.365
 3679POPC   C1B47875   7.676  24.473   6.203
 3679POPC   C2B47876   7.834  24.443   6.613
 3679POPC   C3B47877   7.691  24.303   6.970
 3679POPC   C4B47878   7.658  24.480   7.315
 3680POPC   NC347879   4.491  24.962   5.571
 3680POPC   PO447880   4.526  25.622   5.544
 3680POPC   GL147881   4.257  25.485   5.889
 3680POPC   GL247882   4.089  25.149   5.820
 3680POPC   C1A47883   4.418  25.281   6.273
 3680POPC   D2A47884   4.562  25.067   6.648
 3680POPC   C3A47885   4.420  25.275   7.031
 3680POPC   C4A47886   4.673  25.520   7.333
 3680POPC   C1B47887   3.905  25.203   6.215
 3680POPC   C2B47888   4.028  25.113   6.616
 3680POPC   C3B47889   3.883  25.101   7.010
 3680POPC   C4B47890   4.077  25.130   7.425
 3681POPC   NC347891  16.595  41.629   5.402
 3681POPC   PO447892  17.121  41.297   5.450
 3681POPC   GL147893  16.941  41.561   5.775
 3681POPC   GL247894  16.704  41.316   5.903
 3681POPC   C1A47895  16.768  41.864   6.107
 3681POPC   D2A47896  17.007  41.904   6.531
 3681POPC   C3A47897  16.901  41.662   6.890
 3681POPC   C4A47898  16.602  41.640   7.213
 3681POPC   C1B47899  16.741  41.445   6.369
 3681POPC   C2B47900  16.490  41.401   6.754
 3681POPC   C3B47901  16.762  41.175   7.055
 3681POPC   C4B47902  16.999  41.288   7.417
 3682POPC   NC347903   4.510  42.215   5.576
 3682POPC   PO447904   3.960  42.542   5.602
 3682POPC   GL147905   4.264  42.628   5.922
 3682POPC   GL247906   4.631  42.629   5.863
 3682POPC   C1A47907   4.281  42.518   6.359
 3682POPC   D2A47908   4.456  42.198   6.623
 3682POPC   C3A47909   4.419  42.274   7.077
 3682POPC   C4A47910   4.058  42.212   7.336
 3682POPC   C1B47911   4.806  42.610   6.288
 3682POPC   C2B47912   4.641  42.732   6.686
 3682POPC   C3B47913   4.694  42.706   7.111
 3682POPC   C4B47914   4.342  42.656   7.409
 3683POPC   NC347915  38.639  43.586   5.459
 3683POPC   PO447916  38.066  44.037   5.491
 3683POPC   GL147917  38.144  43.807   5.877
 3683POPC   GL247918  38.408  43.559   5.918
 3683POPC   C1A47919  38.306  43.935   6.255
 3683POPC   D2A47920  38.546  43.948   6.589
 3683POPC   C3A47921  38.293  43.993   6.900
 3683POPC   C4A47922  38.300  43.924   7.292
 3683POPC   C1B47923  38.626  43.503   6.279
 3683POPC   C2B47924  38.575  43.437   6.684
 3683POPC   C3B47925  38.637  43.659   7.031
 3683POPC   C4B47926  38.866  43.676   7.373
 3684POPC   NC347927   7.203  27.823   5.187
 3684POPC   PO447928   7.467  27.211   5.391
 3684POPC   GL147929   7.533  27.316   5.838
 3684POPC   GL247930   7.238  27.513   5.907
 3684POPC   C1A47931   7.567  27.501   6.286
 3684POPC   D2A47932   7.654  27.683   6.693
 3684POPC   C3A47933   7.439  27.515   7.052
 3684POPC   C4A47934   7.508  27.613   7.480
 3684POPC   C1B47935   7.080  27.803   6.233
 3684POPC   C2B47936   7.208  28.113   6.511
 3684POPC   C3B47937   7.285  27.996   6.905
 3684POPC   C4B47938   7.122  27.961   7.290
 3685POPC   NC347939  22.480   3.691   5.530
 3685POPC   PO447940  21.841   3.442   5.379
 3685POPC   GL147941  21.815   3.623   5.800
 3685POPC   GL247942  22.148   3.652   5.910
 3685POPC   C1A47943  21.785   3.482   6.225
 3685POPC   D2A47944  22.070   3.489   6.558
 3685POPC   C3A47945  21.935   3.446   6.988
 3685POPC   C4A47946  22.069   3.769   7.271
 3685POPC   C1B47947  22.490   3.722   6.191
 3685POPC   C2B47948  22.599   3.745   6.593
 3685POPC   C3B47949  22.402   3.647   6.921
 3685POPC   C4B47950  22.474   3.463   7.293
 3686POPC   NC347951  36.561  29.902   5.430
 3686POPC   PO447952  37.122  29.596   5.405
 3686POPC   GL147953  37.090  29.858   5.786
 3686POPC   GL247954  37.281  30.188   5.762
 3686POPC   C1A47955  36.970  29.850   6.245
 3686POPC   D2A47956  37.141  29.777   6.668
 3686POPC   C3A47957  36.799  29.698   6.948
 3686POPC   C4A47958  36.665  29.976   7.244
 3686POPC   C1B47959  37.371  30.165   6.220
 3686POPC   C2B47960  37.312  30.388   6.641
 3686POPC   C3B47961  37.104  30.271   7.016
 3686POPC   C4B47962  37.190  29.876   7.213
 3687POPC   NC347963  42.702  40.570   5.252
 3687POPC   PO447964  42.044  40.705   5.541
 3687POPC   GL147965  42.235  40.851   5.898
 3687POPC   GL247966  42.497  40.983   5.722
 3687POPC   C1A47967  42.312  40.738   6.344
 3687POPC   D2A47968  42.002  40.791   6.671
 3687POPC   C3A47969  42.071  40.539   6.962
 3687POPC   C4A47970  42.258  40.679   7.280
 3687POPC   C1B47971  42.744  41.028   6.086
 3687POPC   C2B47972  42.808  40.929   6.506
 3687POPC   C3B47973  42.566  40.780   6.868
 3687POPC   C4B47974  42.747  40.801   7.282
 3688POPC   NC347975   5.584   2.994   5.550
 3688POPC   PO447976   6.232   2.739   5.327
 3688POPC   GL147977   6.127   2.511   5.710
 3688POPC   GL247978   5.799   2.628   5.885
 3688POPC   C1A47979   6.182   2.383   6.145
 3688POPC   D2A47980   5.995   2.436   6.560
 3688POPC   C3A47981   6.252   2.571   6.877
 3688POPC   C4A47982   5.997   2.829   7.104
 3688POPC   C1B47983   5.712   2.957   6.218
 3688POPC   C2B47984   5.454   3.086   6.592
 3688POPC   C3B47985   5.511   2.862   6.980
 3688POPC   C4B47986   5.614   2.566   7.314
 3689POPC   NC347987  15.214  11.504   5.124
 3689POPC   PO447988  14.949  11.074   5.532
 3689POPC   GL147989  15.172  11.260   5.843
 3689POPC   GL247990  15.232  11.598   5.701
 3689POPC   C1A47991  15.248  11.090   6.260
 3689POPC   D2A47992  15.190  10.803   6.620
 3689POPC   C3A47993  15.257  11.038   7.011
 3689POPC   C4A47994  14.939  11.180   7.321
 3689POPC   C1B47995  15.270  11.625   6.159
 3689POPC   C2B47996  15.438  11.478   6.531
 3689POPC   C3B47997  15.559  11.511   6.925
 3689POPC   C4B47998  15.232  11.553   7.184
 3690POPC   NC347999  18.721  42.164   5.359
 3690POPC   PO448000  19.177  42.636   5.041
 3690POPC   GL148001  19.180  42.395   5.524
 3690POPC   GL248002  18.867  42.411   5.786
 3690POPC   C1A48003  19.314  42.366   6.018
 3690POPC   D2A48004  19.242  42.275   6.492
 3690POPC   C3A48005  19.370  42.477   6.880
 3690POPC   C4A48006  19.216  42.425   7.327
 3690POPC   C1B48007  18.698  42.532   6.216
 3690POPC   C2B48008  18.821  42.577   6.647
 3690POPC   C3B48009  18.775  42.464   7.069
 3690POPC   C4B48010  18.685  42.339   7.509
 3691POPC   NC348011  18.489  28.595   5.416
 3691POPC   PO448012  17.957  28.893   5.329
 3691POPC   GL148013  17.999  28.935   5.812
 3691POPC   GL248014  17.971  29.298   5.959
 3691POPC   C1A48015  18.245  28.947   6.230
 3691POPC   D2A48016  18.173  28.954   6.714
 3691POPC   C3A48017  18.460  28.871   7.075
 3691POPC   C4A48018  18.503  28.741   7.515
 3691POPC   C1B48019  17.871  29.248   6.419
 3691POPC   C2B48020  17.823  29.382   6.816
 3691POPC   C3B48021  18.085  29.243   7.135
 3691POPC   C4B48022  18.411  29.261   7.448
 3692POPC   NC348023  13.239  16.102   5.550
 3692POPC   PO448024  12.575  16.012   5.566
 3692POPC   GL148025  12.848  15.829   5.875
 3692POPC   GL248026  13.181  15.666   5.857
 3692POPC   C1A48027  13.071  16.069   6.217
 3692POPC   D2A48028  13.270  16.217   6.628
 3692POPC   C3A48029  13.076  16.150   7.063
 3692POPC   C4A48030  12.910  16.357   7.459
 3692POPC   C1B48031  13.048  15.571   6.289
 3692POPC   C2B48032  12.893  15.855   6.659
 3692POPC   C3B48033  12.605  15.937   7.054
 3692POPC   C4B48034  12.662  15.918   7.480
 3693POPC   NC348035  16.153   2.995   5.318
 3693POPC   PO448036  15.698   2.670   5.677
 3693POPC   GL148037  16.038   2.745   5.957
 3693POPC   GL248038  16.268   2.463   5.890
 3693POPC   C1A48039  15.860   2.735   6.376
 3693POPC   D2A48040  15.571   2.875   6.702
 3693POPC   C3A48041  15.658   2.869   7.145
 3693POPC   C4A48042  15.847   2.723   7.516
 3693POPC   C1B48043  16.348   2.515   6.345
 3693POPC   C2B48044  16.219   2.671   6.729
 3693POPC   C3B48045  16.193   2.812   7.121
 3693POPC   C4B48046  16.054   3.215   7.242
 3694POPC   NC348047   4.655  37.785   5.537
 3694POPC   PO448048   5.324  37.937   5.587
 3694POPC   GL148049   5.122  37.798   5.922
 3694POPC   GL248050   4.955  37.505   5.842
 3694POPC   C1A48051   5.263  37.747   6.317
 3694POPC   D2A48052   5.207  37.557   6.686
 3694POPC   C3A48053   5.304  37.820   7.045
 3694POPC   C4A48054   5.108  37.986   7.411
 3694POPC   C1B48055   4.827  37.420   6.268
 3694POPC   C2B48056   4.760  37.255   6.678
 3694POPC   C3B48057   4.998  37.244   7.039
 3694POPC   C4B48058   5.037  37.511   7.321
 3695POPC   NC348059   1.355  44.121   5.513
 3695POPC   PO448060   0.913  43.631   5.687
 3695POPC   GL148061   1.032  44.030   5.923
 3695POPC   GL248062   1.408  44.083   6.019
 3695POPC   C1A48063   1.044  44.162   6.354
 3695POPC   D2A48064   1.187  43.919   6.704
 3695POPC   C3A48065   0.896  43.857   7.014
 3695POPC   C4A48066   0.864  44.098   7.382
 3695POPC   C1B48067   1.326  43.680   6.235
 3695POPC   C2B48068   1.523  43.423   6.552
 3695POPC   C3B48069   1.562  43.641   6.932
 3695POPC   C4B48070   1.336  43.790   7.269
 3696POPC   NC348071   0.106  22.374   5.127
 3696POPC   PO448072   0.641  22.042   5.407
 3696POPC   GL148073   0.539  22.224   5.815
 3696POPC   GL248074   0.217  22.090   5.738
 3696POPC   C1A48075   0.659  22.493   6.229
 3696POPC   D2A48076   0.887  22.552   6.667
 3696POPC   C3A48077   0.626  22.316   7.023
 3696POPC   C4A48078   0.385  22.104   7.387
 3696POPC   C1B48079   0.199  22.302   6.165
 3696POPC   C2B48080   0.319  22.251   6.588
 3696POPC   C3B48081   0.109  22.129   6.964
 3696POPC   C4B48082  44.904  22.263   7.335
 3697POPC   NC348083  41.058  35.364   5.377
 3697POPC   PO448084  40.400  35.432   5.220
 3697POPC   GL148085  40.624  35.423   5.643
 3697POPC   GL248086  40.859  35.138   5.796
 3697POPC   C1A48087  40.636  35.494   6.101
 3697POPC   D2A48088  40.615  35.346   6.543
 3697POPC   C3A48089  40.403  35.617   6.848
 3697POPC   C4A48090  40.311  35.532   7.267
 3697POPC   C1B48091  41.051  35.180   6.255
 3697POPC   C2B48092  41.103  35.321   6.723
 3697POPC   C3B48093  40.825  35.379   7.106
 3697POPC   C4B48094  40.574  35.134   7.404
 3698POPC   NC348095  20.296  41.335   5.580
 3698POPC   PO448096  19.877  41.774   5.393
 3698POPC   GL148097  19.820  41.512   5.807
 3698POPC   GL248098  20.110  41.474   6.012
 3698POPC   C1A48099  19.677  41.413   6.284
 3698POPC   D2A48100  19.755  41.589   6.741
 3698POPC   C3A48101  19.693  41.383   7.143
 3698POPC   C4A48102  19.606  41.230   7.565
 3698POPC   C1B48103  20.142  41.569   6.395
 3698POPC   C2B48104  20.227  41.406   6.762
 3698POPC   C3B48105  20.156  41.635   7.103
 3698POPC   C4B48106  19.840  41.848   7.280
 3699POPC   NC348107  25.556  42.611   5.069
 3699POPC   PO448108  25.023  42.475   5.407
 3699POPC   GL148109  25.160  42.240   5.793
 3699POPC   GL248110  25.443  42.039   5.686
 3699POPC   C1A48111  25.015  42.234   6.241
 3699POPC   D2A48112  25.322  42.294   6.577
 3699POPC   C3A48113  25.194  42.244   6.976
 3699POPC   C4A48114  24.769  42.178   7.061
 3699POPC   C1B48115  25.459  42.015   6.153
 3699POPC   C2B48116  25.555  41.841   6.569
 3699POPC   C3B48117  25.440  41.779   7.022
 3699POPC   C4B48118  25.102  41.823   7.267
 3700POPC   NC348119   5.616  13.736   5.377
 3700POPC   PO448120   6.101  13.265   5.369
 3700POPC   GL148121   5.933  13.465   5.724
 3700POPC   GL248122   6.139  13.741   5.713
 3700POPC   C1A48123   5.642  13.534   6.067
 3700POPC   D2A48124   5.584  13.393   6.503
 3700POPC   C3A48125   5.886  13.579   6.788
 3700POPC   C4A48126   5.854  13.681   7.215
 3700POPC   C1B48127   6.115  13.739   6.180
 3700POPC   C2B48128   6.324  13.852   6.571
 3700POPC   C3B48129   6.236  13.928   6.983
 3700POPC   C4B48130   6.226  13.936   7.409
 3701POPC   NC348131  29.290  40.115   5.248
 3701POPC   PO448132  29.078  39.617   5.588
 3701POPC   GL148133  29.271  40.013   5.757
 3701POPC   GL248134  28.950  40.127   5.782
 3701POPC   C1A48135  29.447  40.118   6.166
 3701POPC   D2A48136  29.480  40.384   6.513
 3701POPC   C3A48137  29.332  40.205   6.920
 3701POPC   C4A48138  29.051  40.384   7.198
 3701POPC   C1B48139  28.970  39.914   6.184
 3701POPC   C2B48140  28.939  40.026   6.626
 3701POPC   C3B48141  28.939  39.849   7.033
 3701POPC   C4B48142  29.265  39.591   7.238
 3702POPC   NC348143  11.660   1.415   5.530
 3702POPC   PO448144  11.111   1.046   5.290
 3702POPC   GL148145  11.252   1.090   5.723
 3702POPC   GL248146  11.576   0.933   5.778
 3702POPC   C1A48147  11.389   1.257   6.146
 3702POPC   D2A48148  11.597   1.280   6.544
 3702POPC   C3A48149  11.286   1.441   6.817
 3702POPC   C4A48150  11.089   1.291   7.205
 3702POPC   C1B48151  11.656   0.821   6.241
 3702POPC   C2B48152  11.518   0.771   6.701
 3702POPC   C3B48153  11.537   1.058   7.060
 3702POPC   C4B48154  11.561   1.094   7.510
 3703POPC   NC348155   8.215   8.243   5.505
 3703POPC   PO448156   7.836   7.715   5.701
 3703POPC   GL148157   8.179   7.964   5.919
 3703POPC   GL248158   8.565   7.955   5.888
 3703POPC   C1A48159   8.297   8.305   6.234
 3703POPC   D2A48160   8.469   8.526   6.617
 3703POPC   C3A48161   8.257   8.410   7.004
 3703POPC   C4A48162   8.243   8.375   7.494
 3703POPC   C1B48163   8.465   7.824   6.307
 3703POPC   C2B48164   8.438   7.980   6.734
 3703POPC   C3B48165   8.440   7.967   7.194
 3703POPC   C4B48166   8.560   7.974   7.638
 3704POPC   NC348167  26.011   9.235   5.110
 3704POPC   PO448168  26.109   9.799   5.427
 3704POPC   GL148169  26.258   9.785   5.848
 3704POPC   GL248170  26.158  10.111   5.947
 3704POPC   C1A48171  26.113   9.698   6.272
 3704POPC   D2A48172  25.792   9.600   6.571
 3704POPC   C3A48173  26.065   9.546   6.912
 3704POPC   C4A48174  26.082   9.548   7.345
 3704POPC   C1B48175  25.743  10.084   6.175
 3704POPC   C2B48176  25.535  10.115   6.576
 3704POPC   C3B48177  25.621   9.896   6.972
 3704POPC   C4B48178  25.975  10.028   7.193
 3705POPC   NC348179  32.123   9.664   5.607
 3705POPC   PO448180  32.291  10.172   5.267
 3705POPC   GL148181  32.455  10.029   5.782
 3705POPC   GL248182  32.522   9.665   5.945
 3705POPC   C1A48183  32.367  10.068   6.227
 3705POPC   D2A48184  32.567  10.184   6.593
 3705POPC   C3A48185  32.500   9.954   6.971
 3705POPC   C4A48186  32.306   9.755   7.353
 3705POPC   C1B48187  32.291   9.572   6.349
 3705POPC   C2B48188  32.309   9.522   6.803
 3705POPC   C3B48189  32.069   9.348   7.157
 3705POPC   C4B48190  31.973   9.461   7.603
 3706POPC   NC348191  10.782  23.699   5.410
 3706POPC   PO448192  10.375  23.272   5.491
 3706POPC   GL148193  10.490  23.604   5.823
 3706POPC   GL248194  10.470  23.369   6.008
 3706POPC   C1A48195  10.415  23.786   6.262
 3706POPC   D2A48196  10.109  23.965   6.523
 3706POPC   C3A48197  10.180  23.841   6.949
 3706POPC   C4A48198  10.486  23.675   7.226
 3706POPC   C1B48199  10.669  23.356   6.390
 3706POPC   C2B48200  10.750  23.484   6.793
 3706POPC   C3B48201  10.757  23.241   7.158
 3706POPC   C4B48202  10.772  23.396   7.582
 3707POPC   NC348203  20.203  27.499   5.687
 3707POPC   PO448204  20.882  27.419   5.638
 3707POPC   GL148205  20.703  27.411   6.001
 3707POPC   GL248206  20.956  27.632   6.135
 3707POPC   C1A48207  20.658  27.285   6.416
 3707POPC   D2A48208  20.435  27.116   6.729
 3707POPC   C3A48209  20.578  27.374   7.044
 3707POPC   C4A48210  20.344  27.487   7.396
 3707POPC   C1B48211  20.546  27.798   6.317
 3707POPC   C2B48212  20.467  27.792   6.757
 3707POPC   C3B48213  20.597  27.880   7.192
 3707POPC   C4B48214  20.430  27.974   7.633
 3708POPC   NC348215   7.293  40.371   5.298
 3708POPC   PO448216   7.403  39.741   5.237
 3708POPC   GL148217   7.600  39.904   5.658
 3708POPC   GL248218   7.566  40.255   5.751
 3708POPC   C1A48219   7.601  39.891   6.131
 3708POPC   D2A48220   7.480  40.099   6.513
 3708POPC   C3A48221   7.375  39.875   6.905
 3708POPC   C4A48222   7.618  39.700   7.247
 3708POPC   C1B48223   7.204  40.285   6.077
 3708POPC   C2B48224   7.045  40.350   6.538
 3708POPC   C3B48225   7.323  40.392   6.924
 3708POPC   C4B48226   7.258  40.501   7.371
 3709POPC   NC348227  11.812  23.871   5.364
 3709POPC   PO448228  11.220  23.637   5.537
 3709POPC   GL148229  11.393  23.640   5.941
 3709POPC   GL248230  10.993  23.684   6.012
 3709POPC   C1A48231  11.444  23.856   6.338
 3709POPC   D2A48232  11.123  23.852   6.655
 3709POPC   C3A48233  11.250  23.953   7.057
 3709POPC   C4A48234  11.067  23.780   7.436
 3709POPC   C1B48235  11.162  23.436   6.322
 3709POPC   C2B48236  11.442  23.432   6.647
 3709POPC   C3B48237  11.264  23.445   7.017
 3709POPC   C4B48238  11.207  23.278   7.372
 3710POPC   NC348239   2.375  40.175   5.666
 3710POPC   PO448240   2.956  40.368   5.281
 3710POPC   GL148241   3.149  40.322   5.769
 3710POPC   GL248242   2.838  40.280   5.896
 3710POPC   C1A48243   3.201  40.206   6.252
 3710POPC   D2A48244   2.922  40.203   6.650
 3710POPC   C3A48245   2.760  39.920   6.946
 3710POPC   C4A48246   2.961  39.917   7.334
 3710POPC   C1B48247   2.681  39.998   6.227
 3710POPC   C2B48248   2.367  40.130   6.531
 3710POPC   C3B48249   2.435  40.370   6.890
 3710POPC   C4B48250   2.746  40.403   7.223
 3711POPC   NC348251  41.868  14.272   5.447
 3711POPC   PO448252  41.317  14.492   5.301
 3711POPC   GL148253  41.375  14.519   5.728
 3711POPC   GL248254  41.409  14.155   5.791
 3711POPC   C1A48255  41.246  14.762   6.113
 3711POPC   D2A48256  41.032  14.568   6.482
 3711POPC   C3A48257  41.148  14.678   6.904
 3711POPC   C4A48258  41.232  14.295   7.127
 3711POPC   C1B48259  41.710  14.207   6.135
 3711POPC   C2B48260  41.938  14.202   6.534
 3711POPC   C3B48261  41.746  14.164   6.934
 3711POPC   C4B48262  41.614  14.021   7.321
 3712POPC   NC348263  22.988  15.516   5.610
 3712POPC   PO448264  22.804  14.850   5.578
 3712POPC   GL148265  22.827  15.164   5.930
 3712POPC   GL248266  22.503  15.272   6.085
 3712POPC   C1A48267  23.162  15.286   6.230
 3712POPC   D2A48268  23.130  15.439   6.646
 3712POPC   C3A48269  22.942  15.183   6.922
 3712POPC   C4A48270  23.135  14.934   7.221
 3712POPC   C1B48271  22.711  15.136   6.433
 3712POPC   C2B48272  22.824  14.750   6.569
 3712POPC   C3B48273  22.741  14.700   6.973
 3712POPC   C4B48274  22.617  14.973   7.279
 3713POPC   NC348275  21.964   1.767   5.393
 3713POPC   PO448276  22.554   1.774   5.514
 3713POPC   GL148277  22.243   1.835   5.819
 3713POPC   GL248278  22.216   2.188   5.788
 3713POPC   C1A48279  21.958   1.889   6.178
 3713POPC   D2A48280  22.165   1.845   6.578
 3713POPC   C3A48281  22.109   1.696   6.990
 3713POPC   C4A48282  21.971   1.799   7.370
 3713POPC   C1B48283  22.288   2.285   6.207
 3713POPC   C2B48284  21.984   2.332   6.551
 3713POPC   C3B48285  22.032   2.185   6.961
 3713POPC   C4B48286  22.364   2.115   7.297
 3714POPC   NC348287  23.857   9.809   5.367
 3714POPC   PO448288  23.400   9.371   5.460
 3714POPC   GL148289  23.451   9.495   5.887
 3714POPC   GL248290  23.648   9.803   5.854
 3714POPC   C1A48291  23.393   9.673   6.285
 3714POPC   D2A48292  23.735   9.780   6.505
 3714POPC   C3A48293  23.625   9.642   6.896
 3714POPC   C4A48294  23.906   9.717   7.190
 3714POPC   C1B48295  23.551  10.145   6.184
 3714POPC   C2B48296  23.425  10.156   6.656
 3714POPC   C3B48297  23.475  10.088   7.113
 3714POPC   C4B48298  23.592   9.904   7.560
 3715POPC   NC348299  32.341  16.867   5.559
 3715POPC   PO448300  31.772  16.757   5.265
 3715POPC   GL148301  31.978  16.573   5.778
 3715POPC   GL248302  32.290  16.410   5.850
 3715POPC   C1A48303  32.237  16.812   6.202
 3715POPC   D2A48304  32.342  17.051   6.606
 3715POPC   C3A48305  32.558  16.903   6.938
 3715POPC   C4A48306  32.324  16.717   7.272
 3715POPC   C1B48307  32.078  16.335   6.260
 3715POPC   C2B48308  32.124  16.509   6.699
 3715POPC   C3B48309  32.222  16.257   7.075
 3715POPC   C4B48310  32.345  16.265   7.538
 3716POPC   NC348311  11.659  15.249   5.327
 3716POPC   PO448312  11.933  15.735   5.637
 3716POPC   GL148313  11.563  15.485   5.816
 3716POPC   GL248314  11.448  15.108   5.790
 3716POPC   C1A48315  11.322  15.388   6.212
 3716POPC   D2A48316  11.460  15.134   6.575
 3716POPC   C3A48317  11.387  15.335   6.989
 3716POPC   C4A48318  11.393  15.788   7.123
 3716POPC   C1B48319  11.237  14.885   6.168
 3716POPC   C2B48320  11.171  14.688   6.579
 3716POPC   C3B48321  11.379  14.828   6.971
 3716POPC   C4B48322  11.342  15.046   7.419
 3717POPC   NC348323  17.640  18.114   5.453
 3717POPC   PO448324  18.026  18.631   5.751
 3717POPC   GL148325  17.618  18.481   5.898
 3717POPC   GL248326  17.338  18.203   5.864
 3717POPC   C1A48327  17.438  18.403   6.304
 3717POPC   D2A48328  17.435  18.203   6.657
 3717POPC   C3A48329  17.450  18.476   6.976
 3717POPC   C4A48330  17.542  18.395   7.388
 3717POPC   C1B48331  17.112  17.974   6.212
 3717POPC   C2B48332  17.109  17.823   6.677
 3717POPC   C3B48333  17.195  18.018   7.116
 3717POPC   C4B48334  16.970  18.065   7.554
 3718POPC   NC348335   5.307   6.348   5.538
 3718POPC   PO448336   4.875   5.813   5.456
 3718POPC   GL148337   5.145   5.920   5.786
 3718POPC   GL248338   5.043   5.636   5.941
 3718POPC   C1A48339   5.354   6.067   6.170
 3718POPC   D2A48340   5.517   5.902   6.541
 3718POPC   C3A48341   5.207   5.894   6.837
 3718POPC   C4A48342   5.081   6.105   7.202
 3718POPC   C1B48343   5.080   5.655   6.382
 3718POPC   C2B48344   4.759   5.633   6.697
 3718POPC   C3B48345   4.824   5.659   7.113
 3718POPC   C4B48346   5.261   5.566   7.236
 3719POPC   NC348347  21.093   2.255   5.455
 3719POPC   PO448348  21.544   1.787   5.550
 3719POPC   GL148349  21.302   1.948   5.853
 3719POPC   GL248350  21.028   1.749   5.821
 3719POPC   C1A48351  21.451   2.015   6.261
 3719POPC   D2A48352  21.397   2.167   6.666
 3719POPC   C3A48353  21.586   1.951   7.041
 3719POPC   C4A48354  21.621   2.160   7.458
 3719POPC   C1B48355  20.949   1.923   6.246
 3719POPC   C2B48356  20.933   1.798   6.688
 3719POPC   C3B48357  21.082   2.006   7.036
 3719POPC   C4B48358  21.131   2.216   7.398
 3720POPC   NC348359  38.855   7.609   5.520
 3720POPC   PO448360  39.373   7.201   5.394
 3720POPC   GL148361  39.254   7.324   5.805
 3720POPC   GL248362  38.902   7.333   5.933
 3720POPC   C1A48363  39.273   7.641   6.136
 3720POPC   D2A48364  39.396   7.549   6.553
 3720POPC   C3A48365  39.145   7.668   6.912
 3720POPC   C4A48366  39.409   7.534   7.228
 3720POPC   C1B48367  39.119   7.161   6.276
 3720POPC   C2B48368  39.013   7.215   6.676
 3720POPC   C3B48369  38.943   7.175   7.070
 3720POPC   C4B48370  38.724   7.533   7.182
 3721POPC   NC348371   2.721  21.564   5.531
 3721POPC   PO448372   3.068  20.996   5.480
 3721POPC   GL148373   2.857  21.136   5.856
 3721POPC   GL248374   2.529  21.150   5.838
 3721POPC   C1A48375   2.804  21.250   6.307
 3721POPC   D2A48376   2.987  21.086   6.687
 3721POPC   C3A48377   2.774  21.164   7.066
 3721POPC   C4A48378   2.821  21.285   7.509
 3721POPC   C1B48379   2.325  21.374   6.160
 3721POPC   C2B48380   2.414  21.602   6.528
 3721POPC   C3B48381   2.279  21.569   6.928
 3721POPC   C4B48382   2.326  21.307   7.262
 3722POPC   NC348383  14.267  24.651   5.045
 3722POPC   PO448384  14.665  24.236   5.362
 3722POPC   GL148385  14.508  24.544   5.723
 3722POPC   GL248386  14.283  24.305   5.814
 3722POPC   C1A48387  14.345  24.642   6.200
 3722POPC   D2A48388  14.253  24.749   6.648
 3722POPC   C3A48389  14.370  24.485   6.981
 3722POPC   C4A48390  14.557  24.632   7.343
 3722POPC   C1B48391  14.086  24.194   6.213
 3722POPC   C2B48392  14.032  24.293   6.610
 3722POPC   C3B48393  14.001  24.129   7.033
 3722POPC   C4B48394  14.272  24.145   7.404
 3723POPC   NC348395   6.954  17.295   5.548
 3723POPC   PO448396   6.665  16.642   5.390
 3723POPC   GL148397   6.677  16.900   5.750
 3723POPC   GL248398   6.338  17.017   5.866
 3723POPC   C1A48399   6.737  16.803   6.168
 3723POPC   D2A48400   6.752  16.516   6.511
 3723POPC   C3A48401   6.853  16.685   6.894
 3723POPC   C4A48402   6.667  16.643   7.283
 3723POPC   C1B48403   6.398  17.214   6.234
 3723POPC   C2B48404   6.611  17.080   6.593
 3723POPC   C3B48405   6.545  17.096   7.010
 3723POPC   C4B48406   6.585  17.135   7.429
 3724POPC   NC348407  13.189  30.770   4.917
 3724POPC   PO448408  12.871  30.887   5.456
 3724POPC   GL148409  12.778  30.622   5.775
 3724POPC   GL248410  12.964  30.311   5.675
 3724POPC   C1A48411  12.696  30.763   6.203
 3724POPC   D2A48412  12.636  31.069   6.549
 3724POPC   C3A48413  12.769  30.850   6.857
 3724POPC   C4A48414  12.933  30.907   7.219
 3724POPC   C1B48415  13.120  30.387   6.103
 3724POPC   C2B48416  13.030  30.485   6.547
 3724POPC   C3B48417  13.045  30.442   7.001
 3724POPC   C4B48418  12.702  30.466   7.269
 3725POPC   NC348419   5.441   7.064   5.477
 3725POPC   PO448420   5.256   7.622   5.298
 3725POPC   GL148421   5.382   7.472   5.769
 3725POPC   GL248422   5.129   7.214   5.875
 3725POPC   C1A48423   5.326   7.502   6.252
 3725POPC   D2A48424   5.023   7.443   6.637
 3725POPC   C3A48425   5.165   7.455   7.083
 3725POPC   C4A48426   5.292   7.447   7.538
 3725POPC   C1B48427   4.792   7.268   6.190
 3725POPC   C2B48428   4.586   7.154   6.591
 3725POPC   C3B48429   4.728   7.108   7.030
 3725POPC   C4B48430   4.819   7.325   7.435
 3726POPC   NC348431  16.714  34.088   5.562
 3726POPC   PO448432  16.815  34.647   5.157
 3726POPC   GL148433  16.664  34.605   5.633
 3726POPC   GL248434  16.398  34.364   5.825
 3726POPC   C1A48435  16.759  34.762   6.080
 3726POPC   D2A48436  16.673  34.630   6.529
 3726POPC   C3A48437  16.653  34.833   6.920
 3726POPC   C4A48438  16.834  34.658   7.308
 3726POPC   C1B48439  16.550  34.214   6.258
 3726POPC   C2B48440  16.529  34.152   6.752
 3726POPC   C3B48441  16.444  34.253   7.225
 3726POPC   C4B48442  16.530  34.387   7.652
 3727POPC   NC348443  36.968   9.911   5.091
 3727POPC   PO448444  36.515   9.472   5.382
 3727POPC   GL148445  36.788   9.698   5.757
 3727POPC   GL248446  37.062   9.977   5.743
 3727POPC   C1A48447  36.735   9.939   6.191
 3727POPC   D2A48448  36.572   9.985   6.646
 3727POPC   C3A48449  36.731   9.811   7.026
 3727POPC   C4A48450  36.980   9.483   7.175
 3727POPC   C1B48451  37.258  10.004   6.190
 3727POPC   C2B48452  37.090  10.238   6.558
 3727POPC   C3B48453  37.037  10.271   7.010
 3727POPC   C4B48454  36.725  10.249   7.302
 3728POPC   NC348455  11.154  22.466   5.547
 3728POPC   PO448456  11.364  21.828   5.494
 3728POPC   GL148457  11.334  22.074   5.837
 3728POPC   GL248458  11.616  22.306   5.890
 3728POPC   C1A48459  11.365  21.967   6.246
 3728POPC   D2A48460  11.544  22.152   6.596
 3728POPC   C3A48461  11.223  22.162   6.892
 3728POPC   C4A48462  11.304  22.014   7.269
 3728POPC   C1B48463  11.333  22.466   6.197
 3728POPC   C2B48464  11.275  22.593   6.614
 3728POPC   C3B48465  11.529  22.570   6.936
 3728POPC   C4B48466  11.686  22.370   7.274
 3729POPC   NC348467  12.329  37.195   5.520
 3729POPC   PO448468  12.042  36.579   5.309
 3729POPC   GL148469  12.154  36.801   5.781
 3729POPC   GL248470  11.882  37.062   5.913
 3729POPC   C1A48471  12.291  37.090   6.185
 3729POPC   D2A48472  12.055  37.260   6.561
 3729POPC   C3A48473  12.148  37.074   6.966
 3729POPC   C4A48474  12.417  37.210   7.315
 3729POPC   C1B48475  11.833  36.838   6.319
 3729POPC   C2B48476  11.513  36.635   6.570
 3729POPC   C3B48477  11.520  36.462   6.973
 3729POPC   C4B48478  11.793  36.516   7.307
 3730POPC   NC348479   6.106  20.872   5.473
 3730POPC   PO448480   5.527  20.567   5.245
 3730POPC   GL148481   5.603  20.524   5.721
 3730POPC   GL248482   5.923  20.475   5.811
 3730POPC   C1A48483   5.562  20.564   6.194
 3730POPC   D2A48484   5.478  20.696   6.640
 3730POPC   C3A48485   5.752  20.548   6.956
 3730POPC   C4A48486   5.825  20.625   7.400
 3730POPC   C1B48487   6.082  20.608   6.235
 3730POPC   C2B48488   6.073  20.823   6.631
 3730POPC   C3B48489   6.228  20.717   7.044
 3730POPC   C4B48490   6.243  20.302   7.165
 3731POPC   NC348491  22.591  40.493   5.641
 3731POPC   PO448492  21.937  40.490   5.377
 3731POPC   GL148493  22.094  40.529   5.777
 3731POPC   GL248494  22.157  40.882   5.732
 3731POPC   C1A48495  22.262  40.642   6.200
 3731POPC   D2A48496  22.195  40.887   6.580
 3731POPC   C3A48497  22.133  40.725   7.014
 3731POPC   C4A48498  21.977  40.986   7.365
 3731POPC   C1B48499  22.020  41.100   6.108
 3731POPC   C2B48500  21.965  41.341   6.484
 3731POPC   C3B48501  22.002  41.234   6.908
 3731POPC   C4B48502  22.397  41.180   7.125
 3732POPC   NC348503  24.673   2.971   5.118
 3732POPC   PO448504  24.642   3.565   5.410
 3732POPC   GL148505  24.509   3.613   5.799
 3732POPC   GL248506  24.379   3.919   5.922
 3732POPC   C1A48507  24.378   3.393   6.151
 3732POPC   D2A48508  24.584   3.260   6.512
 3732POPC   C3A48509  24.366   3.260   6.933
 3732POPC   C4A48510  24.433   3.108   7.351
 3732POPC   C1B48511  24.406   3.980   6.374
 3732POPC   C2B48512  24.496   3.721   6.739
 3732POPC   C3B48513  24.581   3.727   7.200
 3732POPC   C4B48514  24.349   3.908   7.596
 3733POPC   NC348515  22.029  17.021   5.556
 3733POPC   PO448516  21.969  16.242   5.469
 3733POPC   GL148517  22.159  16.552   5.774
 3733POPC   GL248518  21.821  16.647   5.878
 3733POPC   C1A48519  22.346  16.854   6.123
 3733POPC   D2A48520  22.531  16.816   6.579
 3733POPC   C3A48521  22.368  17.013   6.979
 3733POPC   C4A48522  22.308  16.926   7.416
 3733POPC   C1B48523  22.017  16.493   6.278
 3733POPC   C2B48524  22.056  16.679   6.705
 3733POPC   C3B48525  22.057  16.565   7.142
 3733POPC   C4B48526  21.946  16.591   7.608
 3734POPC   NC348527  44.039  14.087   5.616
 3734POPC   PO448528  44.001  13.420   5.463
 3734POPC   GL148529  43.714  13.360   5.811
 3734POPC   GL248530  43.802  13.698   5.862
 3734POPC   C1A48531  43.664  13.395   6.253
 3734POPC   D2A48532  43.919  13.496   6.592
 3734POPC   C3A48533  43.838  13.419   6.991
 3734POPC   C4A48534  44.056  13.515   7.388
 3734POPC   C1B48535  43.931  13.874   6.243
 3734POPC   C2B48536  43.839  13.986   6.667
 3734POPC   C3B48537  44.023  13.917   7.050
 3734POPC   C4B48538  43.745  14.001   7.369
 3735POPC   NC348539  41.807   5.643   5.475
 3735POPC   PO448540  42.455   5.894   5.397
 3735POPC   GL148541  42.422   5.880   5.829
 3735POPC   GL248542  42.177   5.611   5.889
 3735POPC   C1A48543  42.625   6.038   6.199
 3735POPC   D2A48544  42.686   6.151   6.636
 3735POPC   C3A48545  42.476   5.877   6.889
 3735POPC   C4A48546  42.304   5.834   7.302
 3735POPC   C1B48547  42.353   5.419   6.228
 3735POPC   C2B48548  42.217   5.602   6.586
 3735POPC   C3B48549  41.970   5.653   6.971
 3735POPC   C4B48550  41.968   5.355   7.320
 3736POPC   NC348551  37.831  36.443   5.364
 3736POPC   PO448552  37.590  35.767   5.478
 3736POPC   GL148553  37.781  35.959   5.849
 3736POPC   GL248554  37.700  36.311   5.827
 3736POPC   C1A48555  37.771  36.091   6.304
 3736POPC   D2A48556  37.507  36.217   6.681
 3736POPC   C3A48557  37.596  35.962   7.058
 3736POPC   C4A48558  37.734  35.998   7.477
 3736POPC   C1B48559  38.010  36.536   6.089
 3736POPC   C2B48560  38.165  36.394   6.475
 3736POPC   C3B48561  38.007  36.329   6.901
 3736POPC   C4B48562  37.936  36.517   7.304
 3737POPC   NC348563   6.546  10.030   5.670
 3737POPC   PO448564   6.920  10.604   5.457
 3737POPC   GL148565   6.706  10.515   5.787
 3737POPC   GL248566   6.947  10.281   5.912
 3737POPC   C1A48567   6.489  10.673   6.139
 3737POPC   D2A48568   6.437  10.487   6.550
 3737POPC   C3A48569   6.365  10.702   6.939
 3737POPC   C4A48570   6.517  10.377   7.230
 3737POPC   C1B48571   6.900  10.409   6.305
 3737POPC   C2B48572   6.855  10.783   6.548
 3737POPC   C3B48573   7.022  10.768   6.958
 3737POPC   C4B48574   7.019  10.446   7.256
 3738POPC   NC348575  34.571  42.577   5.416
 3738POPC   PO448576  34.793  41.912   5.474
 3738POPC   GL148577  34.597  42.227   5.804
 3738POPC   GL248578  34.272  42.401   5.787
 3738POPC   C1A48579  34.728  42.560   6.125
 3738POPC   D2A48580  34.911  42.572   6.563
 3738POPC   C3A48581  34.763  42.199   6.766
 3738POPC   C4A48582  34.683  42.063   7.153
 3738POPC   C1B48583  34.190  42.545   6.205
 3738POPC   C2B48584  34.397  42.585   6.625
 3738POPC   C3B48585  34.381  42.519   7.083
 3738POPC   C4B48586  34.472  42.688   7.509
 3739POPC   NC348587  41.854  36.172   5.411
 3739POPC   PO448588  41.421  35.664   5.277
 3739POPC   GL148589  41.646  35.858   5.738
 3739POPC   GL248590  41.387  35.961   6.018
 3739POPC   C1A48591  41.837  36.098   6.144
 3739POPC   D2A48592  41.573  36.124   6.556
 3739POPC   C3A48593  41.651  36.012   6.999
 3739POPC   C4A48594  41.405  36.205   7.323
 3739POPC   C1B48595  41.381  36.386   6.171
 3739POPC   C2B48596  41.432  36.610   6.517
 3739POPC   C3B48597  41.261  36.484   6.899
 3739POPC   C4B48598  41.160  36.666   7.261
 3740POPC   NC348599   0.934  13.851   5.263
 3740POPC   PO448600   0.876  13.152   5.466
 3740POPC   GL148601   1.143  13.347   5.825
 3740POPC   GL248602   1.172  13.719   5.919
 3740POPC   C1A48603   1.434  13.366   6.198
 3740POPC   D2A48604   1.483  13.224   6.637
 3740POPC   C3A48605   1.208  13.417   6.934
 3740POPC   C4A48606   1.128  13.840   7.055
 3740POPC   C1B48607   0.941  13.538   6.311
 3740POPC   C2B48608   0.733  13.419   6.733
 3740POPC   C3B48609   0.739  13.335   7.207
 3740POPC   C4B48610   0.848  13.278   7.684
 3741POPC   NC348611  19.794  43.549   5.654
 3741POPC   PO448612  19.912  44.081   5.283
 3741POPC   GL148613  19.804  44.063   5.766
 3741POPC   GL248614  20.098  44.012   5.979
 3741POPC   C1A48615  19.620  43.875   6.208
 3741POPC   D2A48616  19.899  43.710   6.577
 3741POPC   C3A48617  19.735  43.504   6.958
 3741POPC   C4A48618  19.653  43.626   7.370
 3741POPC   C1B48619  19.925  44.246   6.354
 3741POPC   C2B48620  19.640  44.158   6.690
 3741POPC   C3B48621  19.825  44.015   7.061
 3741POPC   C4B48622  20.161  43.704   7.155
 3742POPC   NC348623  16.409  13.984   5.487
 3742POPC   PO448624  16.892  14.435   5.460
 3742POPC   GL148625  16.564  14.509   5.746
 3742POPC   GL248626  16.616  14.207   5.905
 3742POPC   C1A48627  16.544  14.637   6.202
 3742POPC   D2A48628  16.828  14.629   6.591
 3742POPC   C3A48629  16.627  14.648   6.989
 3742POPC   C4A48630  16.297  14.363   7.191
 3742POPC   C1B48631  16.968  14.299   6.192
 3742POPC   C2B48632  17.002  14.100   6.611
 3742POPC   C3B48633  16.706  14.147   6.962
 3742POPC   C4B48634  16.807  14.128   7.409
 3743POPC   NC348635  15.641  37.927   5.552
 3743POPC   PO448636  15.204  37.591   5.222
 3743POPC   GL148637  15.225  37.585   5.717
 3743POPC   GL248638  15.363  37.845   5.952
 3743POPC   C1A48639  15.226  37.440   6.202
 3743POPC   D2A48640  15.078  37.636   6.621
 3743POPC   C3A48641  15.271  37.589   7.028
 3743POPC   C4A48642  15.271  37.672   7.481
 3743POPC   C1B48643  15.286  38.020   6.350
 3743POPC   C2B48644  15.539  38.061   6.726
 3743POPC   C3B48645  15.495  38.027   7.180
 3743POPC   C4B48646  15.458  38.128   7.653
 3744POPC   NC348647   4.193  11.480   5.473
 3744POPC   PO448648   4.096  10.775   5.530
 3744POPC   GL148649   4.115  11.113   5.822
 3744POPC   GL248650   4.406  11.104   5.979
 3744POPC   C1A48651   4.116  11.456   6.174
 3744POPC   D2A48652   4.125  11.200   6.564
 3744POPC   C3A48653   4.250  11.337   6.965
 3744POPC   C4A48654   4.227  11.680   7.228
 3744POPC   C1B48655   4.697  10.933   6.226
 3744POPC   C2B48656   4.859  11.145   6.575
 3744POPC   C3B48657   4.707  11.068   6.994
 3744POPC   C4B48658   4.581  11.325   7.352
 3745POPC   NC348659  21.953  28.882   5.493
 3745POPC   PO448660  22.384  29.392   5.385
 3745POPC   GL148661  22.295  29.200   5.796
 3745POPC   GL248662  22.420  28.850   5.770
 3745POPC   C1A48663  22.124  29.307   6.232
 3745POPC   D2A48664  22.339  29.367   6.632
 3745POPC   C3A48665  22.187  29.412   7.070
 3745POPC   C4A48666  22.248  29.383   7.538
 3745POPC   C1B48667  22.170  28.804   6.144
 3745POPC   C2B48668  22.088  28.916   6.574
 3745POPC   C3B48669  22.318  28.916   6.947
 3745POPC   C4B48670  22.374  28.668   7.302
 3746POPC   NC348671  34.149  23.518   5.496
 3746POPC   PO448672  34.572  24.093   5.405
 3746POPC   GL148673  34.479  23.823   5.764
 3746POPC   GL248674  34.651  23.485   5.807
 3746POPC   C1A48675  34.651  23.890   6.155
 3746POPC   D2A48676  34.932  23.861   6.443
 3746POPC   C3A48677  34.843  23.938   6.846
 3746POPC   C4A48678  34.652  23.764   7.200
 3746POPC   C1B48679  34.710  23.393   6.254
 3746POPC   C2B48680  34.679  23.453   6.714
 3746POPC   C3B48681  34.496  23.305   7.093
 3746POPC   C4B48682  34.712  23.334   7.529
 3747POPC   NC348683  37.523  17.339   5.279
 3747POPC   PO448684  37.379  17.994   5.213
 3747POPC   GL148685  37.590  17.764   5.582
 3747POPC   GL248686  37.656  17.988   5.830
 3747POPC   C1A48687  37.595  17.475   5.972
 3747POPC   D2A48688  37.455  17.424   6.424
 3747POPC   C3A48689  37.727  17.403   6.782
 3747POPC   C4A48690  37.722  17.420   7.236
 3747POPC   C1B48691  37.775  17.860   6.240
 3747POPC   C2B48692  37.642  17.911   6.613
 3747POPC   C3B48693  37.749  17.875   7.008
 3747POPC   C4B48694  37.898  17.883   7.402
 3748POPC   NC348695  39.039   6.598   5.440
 3748POPC   PO448696  39.722   6.564   5.607
 3748POPC   GL148697  39.386   6.696   5.882
 3748POPC   GL248698  39.145   6.434   5.913
 3748POPC   C1A48699  39.399   6.577   6.328
 3748POPC   D2A48700  39.268   6.786   6.686
 3748POPC   C3A48701  39.196   6.553   7.016
 3748POPC   C4A48702  39.363   6.154   7.148
 3748POPC   C1B48703  38.826   6.237   6.160
 3748POPC   C2B48704  38.629   6.267   6.573
 3748POPC   C3B48705  38.784   6.191   6.995
 3748POPC   C4B48706  38.943   6.303   7.391
 3749POPC   NC348707  14.859  31.688   5.506
 3749POPC   PO448708  15.116  31.075   5.515
 3749POPC   GL148709  14.961  31.304   5.842
 3749POPC   GL248710  15.268  31.518   5.852
 3749POPC   C1A48711  14.923  31.493   6.238
 3749POPC   D2A48712  15.145  31.567   6.603
 3749POPC   C3A48713  15.024  31.361   6.949
 3749POPC   C4A48714  14.749  31.561   7.215
 3749POPC   C1B48715  15.412  31.802   6.201
 3749POPC   C2B48716  15.368  32.011   6.651
 3749POPC   C3B48717  15.298  31.789   7.050
 3749POPC   C4B48718  15.579  31.801   7.397
 3750POPC   NC348719   9.650  38.099   5.247
 3750POPC   PO448720   9.785  38.714   5.379
 3750POPC   GL148721   9.886  38.387   5.673
 3750POPC   GL248722   9.558  38.209   5.744
 3750POPC   C1A48723  10.132  38.425   6.063
 3750POPC   D2A48724   9.985  38.583   6.456
 3750POPC   C3A48725   9.994  38.537   6.901
 3750POPC   C4A48726   9.856  38.878   7.182
 3750POPC   C1B48727   9.664  38.204   6.192
 3750POPC   C2B48728   9.504  38.472   6.555
 3750POPC   C3B48729   9.448  38.652   6.978
 3750POPC   C4B48730   9.397  38.720   7.441
 3751POPC   NC348731  42.116  40.279   5.356
 3751POPC   PO448732  42.751  40.095   5.355
 3751POPC   GL148733  42.443  40.023   5.721
 3751POPC   GL248734  42.127  39.821   5.644
 3751POPC   C1A48735  42.522  40.062   6.195
 3751POPC   D2A48736  42.378  40.212   6.619
 3751POPC   C3A48737  42.530  40.032   7.017
 3751POPC   C4A48738  42.156  40.140   7.256
 3751POPC   C1B48739  42.177  39.681   6.077
 3751POPC   C2B48740  42.329  39.693   6.500
 3751POPC   C3B48741  42.088  39.832   6.852
 3751POPC   C4B48742  42.066  39.646   7.274
 3752POPC   NC348743  22.692  33.682   5.401
 3752POPC   PO448744  23.248  34.060   5.529
 3752POPC   GL148745  22.883  33.973   5.782
 3752POPC   GL248746  23.026  34.166   5.989
 3752POPC   C1A48747  22.774  33.724   6.187
 3752POPC   D2A48748  22.943  33.576   6.632
 3752POPC   C3A48749  22.839  33.752   7.072
 3752POPC   C4A48750  22.791  33.585   7.523
 3752POPC   C1B48751  22.890  34.188   6.379
 3752POPC   C2B48752  22.973  34.188   6.794
 3752POPC   C3B48753  22.862  34.254   7.195
 3752POPC   C4B48754  23.046  34.050   7.547
 3753POPC   NC348755  14.780   2.303   5.715
 3753POPC   PO448756  14.382   1.868   5.303
 3753POPC   GL148757  14.361   1.772   5.758
 3753POPC   GL248758  14.415   1.980   6.089
 3753POPC   C1A48759  14.529   1.510   6.069
 3753POPC   D2A48760  14.368   1.513   6.482
 3753POPC   C3A48761  14.405   1.862   6.784
 3753POPC   C4A48762  14.440   1.795   7.235
 3753POPC   C1B48763  14.185   2.208   6.382
 3753POPC   C2B48764  13.875   2.164   6.675
 3753POPC   C3B48765  13.961   2.390   7.008
 3753POPC   C4B48766  14.375   2.289   7.155
 3754POPC   NC348767  28.466  20.131   5.573
 3754POPC   PO448768  28.119  19.536   5.358
 3754POPC   GL148769  28.287  19.644   5.759
 3754POPC   GL248770  28.655  19.728   5.822
 3754POPC   C1A48771  28.196  19.667   6.191
 3754POPC   D2A48772  28.194  19.946   6.543
 3754POPC   C3A48773  28.282  19.660   6.857
 3754POPC   C4A48774  28.118  19.598   7.248
 3754POPC   C1B48775  28.607  19.989   6.203
 3754POPC   C2B48776  28.769  19.980   6.615
 3754POPC   C3B48777  28.793  19.717   6.966
 3754POPC   C4B48778  28.521  19.922   7.225
 3755POPC   NC348779   1.547   2.631   5.272
 3755POPC   PO448780   2.077   2.993   5.250
 3755POPC   GL148781   2.044   2.873   5.691
 3755POPC   GL248782   1.701   2.730   5.764
 3755POPC   C1A48783   2.071   2.725   6.128
 3755POPC   D2A48784   1.979   2.834   6.563
 3755POPC   C3A48785   2.182   2.719   6.955
 3755POPC   C4A48786   2.184   2.975   7.330
 3755POPC   C1B48787   1.587   2.489   6.135
 3755POPC   C2B48788   1.706   2.398   6.570
 3755POPC   C3B48789   1.631   2.574   6.958
 3755POPC   C4B48790   1.879   2.501   7.313
 3756POPC   NC348791  27.620  42.039   5.285
 3756POPC   PO448792  27.566  42.664   5.534
 3756POPC   GL148793  27.525  42.342   5.859
 3756POPC   GL248794  27.528  42.634   6.069
 3756POPC   C1A48795  27.686  42.208   6.277
 3756POPC   D2A48796  27.565  42.328   6.684
 3756POPC   C3A48797  27.824  42.317   7.029
 3756POPC   C4A48798  27.509  42.342   7.296
 3756POPC   C1B48799  27.239  42.662   6.422
 3756POPC   C2B48800  27.103  42.816   6.842
 3756POPC   C3B48801  27.286  42.836   7.291
 3756POPC   C4B48802  27.618  42.720   7.619
 3757POPC   NC348803  12.712  28.527   5.526
 3757POPC   PO448804  13.123  27.992   5.448
 3757POPC   GL148805  12.962  28.186   5.873
 3757POPC   GL248806  12.967  28.576   5.972
 3757POPC   C1A48807  12.926  28.192   6.349
 3757POPC   D2A48808  13.095  28.474   6.682
 3757POPC   C3A48809  13.131  28.239   7.080
 3757POPC   C4A48810  12.855  28.235   7.455
 3757POPC   C1B48811  12.546  28.502   6.199
 3757POPC   C2B48812  12.462  28.368   6.641
 3757POPC   C3B48813  12.684  28.506   7.029
 3757POPC   C4B48814  12.600  28.695   7.471
 3758POPC   NC348815  36.712   3.959   5.256
 3758POPC   PO448816  36.775   4.547   5.627
 3758POPC   GL148817  36.898   4.360   5.950
 3758POPC   GL248818  37.062   4.053   5.781
 3758POPC   C1A48819  37.055   4.573   6.312
 3758POPC   D2A48820  37.253   4.584   6.730
 3758POPC   C3A48821  36.901   4.507   6.986
 3758POPC   C4A48822  36.804   4.340   7.349
 3758POPC   C1B48823  37.224   4.065   6.187
 3758POPC   C2B48824  37.039   4.117   6.576
 3758POPC   C3B48825  37.151   4.076   6.971
 3758POPC   C4B48826  37.064   3.913   7.339
 3759POPC   NC348827  17.173  11.217   5.440
 3759POPC   PO448828  16.578  11.310   5.202
 3759POPC   GL148829  16.562  11.371   5.695
 3759POPC   GL248830  16.586  11.719   5.883
 3759POPC   C1A48831  16.568  11.107   6.103
 3759POPC   D2A48832  16.795  11.055   6.544
 3759POPC   C3A48833  16.700  11.039   7.024
 3759POPC   C4A48834  16.918  11.054   7.451
 3759POPC   C1B48835  16.690  11.544   6.332
 3759POPC   C2B48836  16.500  11.438   6.760
 3759POPC   C3B48837  16.565  11.499   7.248
 3759POPC   C4B48838  16.452  11.556   7.714
 3760POPC   NC348839  26.098  39.953   5.115
 3760POPC   PO448840  25.626  39.588   5.548
 3760POPC   GL148841  25.960  39.879   5.728
 3760POPC   GL248842  26.226  40.139   5.615
 3760POPC   C1A48843  26.037  39.970   6.156
 3760POPC   D2A48844  26.179  39.835   6.534
 3760POPC   C3A48845  25.957  39.678   6.871
 3760POPC   C4A48846  26.099  39.908   7.204
 3760POPC   C1B48847  26.279  40.399   6.001
 3760POPC   C2B48848  26.099  40.427   6.424
 3760POPC   C3B48849  26.172  40.299   6.846
 3760POPC   C4B48850  26.480  40.305   7.207
 3761POPC   NC348851   6.314  12.222   5.490
 3761POPC   PO448852   5.820  11.790   5.513
 3761POPC   GL148853   5.920  12.069   5.806
 3761POPC   GL248854   6.215  11.871   5.848
 3761POPC   C1A48855   5.778  12.063   6.215
 3761POPC   D2A48856   5.904  12.258   6.607
 3761POPC   C3A48857   5.735  12.009   6.921
 3761POPC   C4A48858   5.822  11.840   7.313
 3761POPC   C1B48859   6.289  12.087   6.214
 3761POPC   C2B48860   6.374  11.920   6.600
 3761POPC   C3B48861   6.240  11.956   7.001
 3761POPC   C4B48862   6.040  12.306   7.186
 3762POPC   NC348863  38.252   3.462   5.404
 3762POPC   PO448864  38.638   3.932   5.474
 3762POPC   GL148865  38.420   3.740   5.841
 3762POPC   GL248866  38.401   3.363   5.898
 3762POPC   C1A48867  38.410   3.718   6.297
 3762POPC   D2A48868  38.603   3.331   6.405
 3762POPC   C3A48869  38.597   3.264   6.827
 3762POPC   C4A48870  38.421   3.442   7.174
 3762POPC   C1B48871  38.025   3.401   6.187
 3762POPC   C2B48872  37.969   3.630   6.617
 3762POPC   C3B48873  37.926   3.454   7.055
 3762POPC   C4B48874  38.029   3.233   7.467
 3763POPC   NC348875  15.512   1.233   5.502
 3763POPC   PO448876  14.989   1.646   5.365
 3763POPC   GL148877  14.919   1.325   5.738
 3763POPC   GL248878  15.069   0.989   5.767
 3763POPC   C1A48879  15.010   1.383   6.189
 3763POPC   D2A48880  15.172   1.571   6.594
 3763POPC   C3A48881  15.127   1.354   6.968
 3763POPC   C4A48882  15.201   1.486   7.386
 3763POPC   C1B48883  15.381   1.041   6.110
 3763POPC   C2B48884  15.350   1.058   6.558
 3763POPC   C3B48885  15.477   1.006   6.998
 3763POPC   C4B48886  15.151   1.002   7.351
 3764POPC   NC348887  21.105  33.195   5.521
 3764POPC   PO448888  21.606  32.674   5.555
 3764POPC   GL148889  21.461  33.022   5.809
 3764POPC   GL248890  21.672  33.290   5.907
 3764POPC   C1A48891  21.219  33.172   6.180
 3764POPC   D2A48892  21.065  33.381   6.557
 3764POPC   C3A48893  21.158  33.178   6.962
 3764POPC   C4A48894  21.079  33.174   7.398
 3764POPC   C1B48895  21.642  32.906   6.238
 3764POPC   C2B48896  21.407  32.889   6.604
 3764POPC   C3B48897  21.436  32.680   6.983
 3764POPC   C4B48898  21.435  32.793   7.365
 3765POPC   NC348899  41.104  33.616   5.370
 3765POPC   PO448900  41.717  33.950   5.430
 3765POPC   GL148901  41.664  33.898   5.863
 3765POPC   GL248902  41.324  33.774   5.832
 3765POPC   C1A48903  41.674  33.523   6.161
 3765POPC   D2A48904  41.658  33.336   6.580
 3765POPC   C3A48905  41.425  33.580   6.864
 3765POPC   C4A48906  41.506  33.573   7.272
 3765POPC   C1B48907  41.349  33.893   6.273
 3765POPC   C2B48908  41.687  33.933   6.581
 3765POPC   C3B48909  41.676  34.004   7.033
 3765POPC   C4B48910  41.242  34.047   7.232
 3766POPC   NC348911   3.541  42.437   5.464
 3766POPC   PO448912   2.991  42.316   5.700
 3766POPC   GL148913   3.401  42.268   5.916
 3766POPC   GL248914   3.662  42.008   5.783
 3766POPC   C1A48915   3.709  42.425   6.252
 3766POPC   D2A48916   3.796  42.621   6.689
 3766POPC   C3A48917   3.601  42.479   7.121
 3766POPC   C4A48918   3.537  42.188   7.483
 3766POPC   C1B48919   3.581  41.923   6.225
 3766POPC   C2B48920   3.778  42.020   6.596
 3766POPC   C3B48921   3.720  41.989   7.006
 3766POPC   C4B48922   3.907  41.733   7.263
 3767POPC   NC348923  31.103   4.903   5.221
 3767POPC   PO448924  30.663   5.327   5.622
 3767POPC   GL148925  30.652   5.257   6.017
 3767POPC   GL248926  30.461   4.941   5.932
 3767POPC   C1A48927  30.986   5.328   6.323
 3767POPC   D2A48928  31.099   5.046   6.655
 3767POPC   C3A48929  30.950   5.177   7.024
 3767POPC   C4A48930  30.639   5.477   7.143
 3767POPC   C1B48931  30.774   4.828   6.267
 3767POPC   C2B48932  30.793   4.642   6.631
 3767POPC   C3B48933  30.655   4.785   7.008
 3767POPC   C4B48934  30.971   4.710   7.254
 3768POPC   NC348935  30.900  41.184   5.566
 3768POPC   PO448936  30.542  40.603   5.514
 3768POPC   GL148937  30.707  40.767   5.877
 3768POPC   GL248938  31.043  40.708   5.840
 3768POPC   C1A48939  30.821  40.649   6.309
 3768POPC   D2A48940  30.648  40.483   6.670
 3768POPC   C3A48941  30.664  40.766   6.989
 3768POPC   C4A48942  30.871  40.826   7.352
 3768POPC   C1B48943  31.092  41.046   6.172
 3768POPC   C2B48944  31.098  41.052   6.586
 3768POPC   C3B48945  30.958  41.183   6.969
 3768POPC   C4B48946  30.846  41.338   7.346
 3769POPC   NC348947  33.926  34.896   5.427
 3769POPC   PO448948  33.315  34.909   5.233
 3769POPC   GL148949  33.538  34.700   5.662
 3769POPC   GL248950  33.787  34.424   5.687
 3769POPC   C1A48951  33.835  34.768   6.072
 3769POPC   D2A48952  33.986  34.779   6.527
 3769POPC   C3A48953  33.694  34.844   6.870
 3769POPC   C4A48954  33.620  34.827   7.313
 3769POPC   C1B48955  33.605  34.325   6.126
 3769POPC   C2B48956  33.704  34.293   6.571
 3769POPC   C3B48957  33.516  34.211   6.983
 3769POPC   C4B48958  33.702  34.123   7.362
 3770POPC   NC348959   9.521   7.014   5.345
 3770POPC   PO448960   9.951   6.384   5.362
 3770POPC   GL148961  10.042   6.481   5.799
 3770POPC   GL248962   9.747   6.706   5.738
 3770POPC   C1A48963   9.919   6.660   6.221
 3770POPC   D2A48964   9.725   6.511   6.611
 3770POPC   C3A48965   9.884   6.571   7.030
 3770POPC   C4A48966   9.619   6.487   7.368
 3770POPC   C1B48967   9.449   6.855   6.045
 3770POPC   C2B48968   9.566   7.026   6.430
 3770POPC   C3B48969   9.740   7.030   6.834
 3770POPC   C4B48970   9.655   6.985   7.273
 3771POPC   NC348971  19.374  36.059   5.338
 3771POPC   PO448972  18.838  35.788   5.525
 3771POPC   GL148973  19.145  35.952   5.825
 3771POPC   GL248974  19.315  36.262   5.870
 3771POPC   C1A48975  19.102  36.030   6.272
 3771POPC   D2A48976  18.830  35.857   6.556
 3771POPC   C3A48977  18.730  36.143   6.868
 3771POPC   C4A48978  18.892  36.201   7.276
 3771POPC   C1B48979  19.507  36.337   6.303
 3771POPC   C2B48980  19.307  36.284   6.734
 3771POPC   C3B48981  19.389  36.356   7.194
 3771POPC   C4B48982  19.587  36.455   7.636
 3772POPC   NC348983  24.507   4.027   5.430
 3772POPC   PO448984  24.960   4.512   5.468
 3772POPC   GL148985  24.758   4.297   5.803
 3772POPC   GL248986  24.466   4.418   5.898
 3772POPC   C1A48987  24.807   4.272   6.250
 3772POPC   D2A48988  24.860   4.081   6.642
 3772POPC   C3A48989  24.566   4.178   6.959
 3772POPC   C4A48990  24.701   4.195   7.379
 3772POPC   C1B48991  24.273   4.518   6.255
 3772POPC   C2B48992  24.245   4.405   6.643
 3772POPC   C3B48993  24.276   4.622   7.024
 3772POPC   C4B48994  24.228   4.337   7.317
 3773POPC   NC348995  34.753  43.298   5.459
 3773POPC   PO448996  34.227  42.859   5.504
 3773POPC   GL148997  34.545  42.967   5.827
 3773POPC   GL248998  34.599  43.347   5.941
 3773POPC   C1A48999  34.456  42.970   6.281
 3773POPC   D2A49000  34.590  43.041   6.714
 3773POPC   C3A49001  34.378  43.354   6.948
 3773POPC   C4A49002  34.130  43.415   7.302
 3773POPC   C1B49003  34.894  43.196   6.261
 3773POPC   C2B49004  35.001  43.321   6.679
 3773POPC   C3B49005  34.852  43.314   7.117
 3773POPC   C4B49006  34.575  43.655   7.313
 3774POPC   NC349007  40.753  34.414   5.302
 3774POPC   PO449008  40.383  33.970   5.662
 3774POPC   GL149009  40.460  34.425   5.728
 3774POPC   GL249010  40.778  34.614   5.784
 3774POPC   C1A49011  40.468  34.478   6.162
 3774POPC   D2A49012  40.663  34.321   6.509
 3774POPC   C3A49013  40.553  34.490   6.877
 3774POPC   C4A49014  40.772  34.369   7.226
 3774POPC   C1B49015  40.958  34.666   6.212
 3774POPC   C2B49016  40.852  34.864   6.625
 3774POPC   C3B49017  40.875  34.862   7.081
 3774POPC   C4B49018  41.190  34.662   7.337
 3775POPC   NC349019  20.337  32.592   5.305
 3775POPC   PO449020  20.726  32.031   5.491
 3775POPC   GL149021  20.550  32.334   5.705
 3775POPC   GL249022  20.412  32.078   5.912
 3775POPC   C1A49023  20.643  32.511   6.100
 3775POPC   D2A49024  20.416  32.360   6.431
 3775POPC   C3A49025  20.464  32.478   6.850
 3775POPC   C4A49026  20.547  32.183   7.182
 3775POPC   C1B49027  20.718  31.981   6.211
 3775POPC   C2B49028  20.845  32.060   6.647
 3775POPC   C3B49029  20.829  31.787   6.999
 3775POPC   C4B49030  20.635  31.631   7.381
 3776POPC   NC349031  38.680  29.476   5.603
 3776POPC   PO449032  39.392  29.364   5.504
 3776POPC   GL149033  39.141  29.212   5.818
 3776POPC   GL249034  39.477  29.237   6.013
 3776POPC   C1A49035  39.120  28.948   6.197
 3776POPC   D2A49036  39.385  29.109   6.554
 3776POPC   C3A49037  39.216  29.033   6.976
 3776POPC   C4A49038  39.038  28.876   7.409
 3776POPC   C1B49039  39.115  29.459   6.246
 3776POPC   C2B49040  38.955  29.574   6.646
 3776POPC   C3B49041  39.049  29.501   7.061
 3776POPC   C4B49042  39.301  29.315   7.390
 3777POPC   NC349043  13.347   8.128   5.252
 3777POPC   PO449044  12.666   7.964   5.314
 3777POPC   GL149045  12.956   8.211   5.626
 3777POPC   GL249046  13.103   7.935   5.853
 3777POPC   C1A49047  12.974   8.387   6.072
 3777POPC   D2A49048  13.005   8.185   6.486
 3777POPC   C3A49049  12.645   8.262   6.729
 3777POPC   C4A49050  12.491   8.178   7.134
 3777POPC   C1B49051  13.243   7.741   6.270
 3777POPC   C2B49052  13.312   7.810   6.728
 3777POPC   C3B49053  13.129   7.641   7.116
 3777POPC   C4B49054  12.868   7.840   7.430
 3778POPC   NC349055  30.234  19.278   5.390
 3778POPC   PO449056  29.861  18.682   5.451
 3778POPC   GL149057  29.889  19.071   5.746
 3778POPC   GL249058  30.171  19.164   5.890
 3778POPC   C1A49059  29.761  19.214   6.173
 3778POPC   D2A49060  29.788  19.048   6.590
 3778POPC   C3A49061  29.919  19.282   6.934
 3778POPC   C4A49062  29.818  19.257   7.358
 3778POPC   C1B49063  30.231  18.981   6.302
 3778POPC   C2B49064  30.288  18.954   6.768
 3778POPC   C3B49065  30.293  19.078   7.234
 3778POPC   C4B49066  30.255  19.372   7.608
 3779POPC   NC349067  35.144  38.123   5.526
 3779POPC   PO449068  35.610  38.666   5.527
 3779POPC   GL149069  35.322  38.507   5.840
 3779POPC   GL249070  35.432  38.183   5.973
 3779POPC   C1A49071  35.302  38.622   6.282
 3779POPC   D2A49072  35.273  38.520   6.729
 3779POPC   C3A49073  35.561  38.600   7.038
 3779POPC   C4A49074  35.699  38.196   7.114
 3779POPC   C1B49075  35.094  38.109   6.292
 3779POPC   C2B49076  34.968  38.094   6.735
 3779POPC   C3B49077  35.129  38.233   7.163
 3779POPC   C4B49078  35.073  38.417   7.581
 3780POPC   NC349079   7.264  21.918   5.438
 3780POPC   PO449080   7.449  22.523   5.375
 3780POPC   GL149081   7.384  22.364   5.786
 3780POPC   GL249082   7.593  22.644   5.896
 3780POPC   C1A49083   7.203  22.156   6.188
 3780POPC   D2A49084   7.005  22.153   6.609
 3780POPC   C3A49085   7.214  21.999   6.971
 3780POPC   C4A49086   7.446  22.186   7.314
 3780POPC   C1B49087   7.766  22.790   6.272
 3780POPC   C2B49088   7.669  22.477   6.544
 3780POPC   C3B49089   7.769  22.401   6.935
 3780POPC   C4B49090   7.737  22.662   7.229
 3781POPC   NC349091  31.953  15.671   5.560
 3781POPC   PO449092  31.329  15.897   5.519
 3781POPC   GL149093  31.565  15.829   5.901
 3781POPC   GL249094  31.827  16.071   5.889
 3781POPC   C1A49095  31.383  15.838   6.340
 3781POPC   D2A49096  31.191  16.172   6.617
 3781POPC   C3A49097  31.311  16.016   7.011
 3781POPC   C4A49098  31.713  15.821   7.143
 3781POPC   C1B49099  31.564  16.281   6.169
 3781POPC   C2B49100  31.685  16.264   6.599
 3781POPC   C3B49101  31.679  16.378   7.024
 3781POPC   C4B49102  31.895  16.475   7.404
 3782POPC   NC349103   9.400  21.538   5.162
 3782POPC   PO449104   9.900  21.216   5.474
 3782POPC   GL149105   9.890  21.240   5.896
 3782POPC   GL249106   9.620  21.434   5.870
 3782POPC   C1A49107   9.838  21.378   6.329
 3782POPC   D2A49108   9.802  21.659   6.642
 3782POPC   C3A49109   9.710  21.413   7.024
 3782POPC   C4A49110   9.846  20.992   7.215
 3782POPC   C1B49111   9.348  21.245   6.192
 3782POPC   C2B49112   9.426  21.195   6.620
 3782POPC   C3B49113   9.259  21.129   7.013
 3782POPC   C4B49114   9.379  21.256   7.402
 3783POPC   NC349115  17.699   0.518   5.086
 3783POPC   PO449116  17.760   0.430   5.763
 3783POPC   GL149117  17.468   0.711   5.884
 3783POPC   GL249118  17.737   0.962   5.859
 3783POPC   C1A49119  17.325   0.562   6.288
 3783POPC   D2A49120  17.540   0.208   6.496
 3783POPC   C3A49121  17.607   0.363   6.902
 3783POPC   C4A49122  17.425   0.270   7.264
 3783POPC   C1B49123  17.682   0.956   6.289
 3783POPC   C2B49124  17.681   0.950   6.737
 3783POPC   C3B49125  17.838   0.792   7.128
 3783POPC   C4B49126  17.706   0.828   7.558
 3784POPC   NC349127  41.877  22.301   5.577
 3784POPC   PO449128  42.527  22.000   5.538
 3784POPC   GL149129  42.322  22.071   5.883
 3784POPC   GL249130  42.305  22.401   5.833
 3784POPC   C1A49131  42.411  22.196   6.294
 3784POPC   D2A49132  42.430  22.004   6.665
 3784POPC   C3A49133  42.563  22.275   6.950
 3784POPC   C4A49134  42.368  22.024   7.290
 3784POPC   C1B49135  41.996  22.485   6.193
 3784POPC   C2B49136  42.110  22.479   6.651
 3784POPC   C3B49137  42.120  22.438   7.106
 3784POPC   C4B49138  42.505  22.493   7.394
 3785POPC   NC349139  24.775  10.102   5.334
 3785POPC   PO449140  24.305  10.593   5.450
 3785POPC   GL149141  24.459  10.710   5.854
 3785POPC   GL249142  24.798  10.769   5.716
 3785POPC   C1A49143  24.405  10.579   6.317
 3785POPC   D2A49144  24.516  10.341   6.724
 3785POPC   C3A49145  24.379  10.394   7.168
 3785POPC   C4A49146  24.517  10.583   7.582
 3785POPC   C1B49147  24.890  10.796   6.156
 3785POPC   C2B49148  24.796  10.751   6.596
 3785POPC   C3B49149  24.563  10.803   6.953
 3785POPC   C4B49150  24.752  10.955   7.296
 3786POPC   NC349151  26.308   9.364   5.560
 3786POPC   PO449152  25.715   9.051   5.420
 3786POPC   GL149153  26.017   8.956   5.798
 3786POPC   GL249154  26.234   9.231   6.031
 3786POPC   C1A49155  25.886   8.954   6.252
 3786POPC   D2A49156  26.137   9.122   6.590
 3786POPC   C3A49157  26.035   9.006   7.023
 3786POPC   C4A49158  26.304   9.098   7.360
 3786POPC   C1B49159  26.368   8.819   6.175
 3786POPC   C2B49160  26.305   8.619   6.530
 3786POPC   C3B49161  26.440   8.747   6.911
 3786POPC   C4B49162  26.255   8.600   7.280
 3787POPC   NC349163   5.400  21.085   5.206
 3787POPC   PO449164   5.981  21.366   5.460
 3787POPC   GL149165   5.900  21.320   5.927
 3787POPC   GL249166   5.892  20.970   5.935
 3787POPC   C1A49167   6.016  21.490   6.340
 3787POPC   D2A49168   6.238  21.671   6.693
 3787POPC   C3A49169   5.894  21.604   6.954
 3787POPC   C4A49170   5.809  21.484   7.346
 3787POPC   C1B49171   5.651  21.072   6.302
 3787POPC   C2B49172   5.725  21.192   6.698
 3787POPC   C3B49173   5.769  21.043   7.082
 3787POPC   C4B49174   6.064  21.058   7.390
 3788POPC   NC349175  18.372  16.953   5.357
 3788POPC   PO449176  18.535  16.309   5.375
 3788POPC   GL149177  18.267  16.596   5.710
 3788POPC   GL249178  18.107  16.959   5.789
 3788POPC   C1A49179  18.397  16.659   6.145
 3788POPC   D2A49180  18.230  16.643   6.583
 3788POPC   C3A49181  18.393  16.793   6.961
 3788POPC   C4A49182  18.501  16.569   7.360
 3788POPC   C1B49183  17.968  16.940   6.215
 3788POPC   C2B49184  17.786  16.874   6.628
 3788POPC   C3B49185  17.914  17.060   7.007
 3788POPC   C4B49186  17.745  17.040   7.413
 3789POPC   NC349187   6.105  17.607   5.442
 3789POPC   PO449188   5.649  18.059   5.541
 3789POPC   GL149189   5.714  17.617   5.828
 3789POPC   GL249190   6.012  17.429   5.903
 3789POPC   C1A49191   5.613  17.440   6.251
 3789POPC   D2A49192   5.742  17.288   6.667
 3789POPC   C3A49193   5.606  17.534   7.035
 3789POPC   C4A49194   5.502  17.957   7.102
 3789POPC   C1B49195   6.091  17.636   6.288
 3789POPC   C2B49196   6.251  17.460   6.673
 3789POPC   C3B49197   6.086  17.340   7.063
 3789POPC   C4B49198   5.868  17.332   7.431
 3790POPC   NC349199   8.665  14.172   5.360
 3790POPC   PO449200   9.137  14.538   5.288
 3790POPC   GL149201   9.079  14.336   5.686
 3790POPC   GL249202   8.722  14.351   5.829
 3790POPC   C1A49203   9.105  14.428   6.134
 3790POPC   D2A49204   9.074  14.172   6.481
 3790POPC   C3A49205   9.221  14.309   6.886
 3790POPC   C4A49206   9.132  14.232   7.316
 3790POPC   C1B49207   8.732  13.967   6.094
 3790POPC   C2B49208   8.637  13.900   6.532
 3790POPC   C3B49209   8.728  14.201   6.865
 3790POPC   C4B49210   8.641  14.367   7.244
 3791POPC   NC349211  25.215  40.315   5.360
 3791POPC   PO449212  24.823  39.781   5.302
 3791POPC   GL149213  25.155  39.840   5.653
 3791POPC   GL249214  25.460  40.071   5.750
 3791POPC   C1A49215  25.153  39.804   6.109
 3791POPC   D2A49216  24.886  39.868   6.478
 3791POPC   C3A49217  25.116  40.010   6.806
 3791POPC   C4A49218  25.146  40.001   7.239
 3791POPC   C1B49219  25.615  40.270   6.155
 3791POPC   C2B49220  25.721  40.107   6.594
 3791POPC   C3B49221  25.614  40.086   7.037
 3791POPC   C4B49222  25.479  40.357   7.400
 3792POPC   NC349223  10.420  12.671   5.408
 3792POPC   PO449224  11.067  12.991   5.317
 3792POPC   GL149225  10.930  12.884   5.772
 3792POPC   GL249226  10.636  12.726   5.864
 3792POPC   C1A49227  10.785  13.051   6.234
 3792POPC   D2A49228  10.711  13.232   6.681
 3792POPC   C3A49229  10.695  12.981   7.090
 3792POPC   C4A49230  10.602  12.563   7.331
 3792POPC   C1B49231  10.773  12.551   6.265
 3792POPC   C2B49232  10.714  12.647   6.701
 3792POPC   C3B49233  10.301  12.661   6.937
 3792POPC   C4B49234  10.088  12.715   7.351
 3793POPC   NC349235  27.319  35.814   5.348
 3793POPC   PO449236  27.901  35.485   5.452
 3793POPC   GL149237  27.890  35.522   5.859
 3793POPC   GL249238  27.541  35.503   5.844
 3793POPC   C1A49239  28.003  35.568   6.275
 3793POPC   D2A49240  27.663  35.600   6.594
 3793POPC   C3A49241  27.835  35.594   7.026
 3793POPC   C4A49242  27.631  35.503   7.459
 3793POPC   C1B49243  27.630  35.232   6.241
 3793POPC   C2B49244  27.911  35.172   6.649
 3793POPC   C3B49245  27.755  35.102   7.104
 3793POPC   C4B49246  27.352  35.045   7.301
 3794POPC   NC349247  15.251  40.505   5.458
 3794POPC   PO449248  15.549  41.117   5.372
 3794POPC   GL149249  15.276  41.076   5.723
 3794POPC   GL249250  14.980  40.880   5.692
 3794POPC   C1A49251  15.165  40.985   6.155
 3794POPC   D2A49252  15.253  41.147   6.550
 3794POPC   C3A49253  15.247  40.881   6.885
 3794POPC   C4A49254  15.123  40.880   7.299
 3794POPC   C1B49255  14.802  40.644   6.059
 3794POPC   C2B49256  14.867  40.732   6.517
 3794POPC   C3B49257  14.844  40.594   6.935
 3794POPC   C4B49258  15.026  40.350   7.239
 3795POPC   NC349259  13.298   8.785   5.545
 3795POPC   PO449260  13.866   9.079   5.480
 3795POPC   GL149261  13.609   9.075   5.868
 3795POPC   GL249262  13.354   9.340   5.938
 3795POPC   C1A49263  13.647   8.892   6.289
 3795POPC   D2A49264  13.968   8.882   6.603
 3795POPC   C3A49265  13.834   8.990   7.024
 3795POPC   C4A49266  13.744   8.825   7.431
 3795POPC   C1B49267  13.508   9.365   6.330
 3795POPC   C2B49268  13.402   9.182   6.734
 3795POPC   C3B49269  13.466   9.290   7.181
 3795POPC   C4B49270  13.483   9.210   7.628
 3796POPC   NC349271  37.199  32.420   5.145
 3796POPC   PO449272  37.004  31.870   5.500
 3796POPC   GL149273  37.151  32.101   5.809
 3796POPC   GL249274  37.237  32.420   5.656
 3796POPC   C1A49275  36.944  32.094   6.237
 3796POPC   D2A49276  36.738  32.190   6.626
 3796POPC   C3A49277  36.894  32.148   7.038
 3796POPC   C4A49278  36.682  32.374   7.325
 3796POPC   C1B49279  37.060  32.566   6.041
 3796POPC   C2B49280  37.102  32.557   6.482
 3796POPC   C3B49281  36.897  32.651   6.866
 3796POPC   C4B49282  37.080  32.664   7.246
 3797POPC   NC349283  14.460  32.833   5.417
 3797POPC   PO449284  13.938  33.295   5.545
 3797POPC   GL149285  14.213  33.151   5.842
 3797POPC   GL249286  14.538  33.246   5.753
 3797POPC   C1A49287  14.409  32.824   6.090
 3797POPC   D2A49288  14.606  32.758   6.480
 3797POPC   C3A49289  14.507  32.976   6.868
 3797POPC   C4A49290  14.321  32.845   7.258
 3797POPC   C1B49291  14.660  33.265   6.179
 3797POPC   C2B49292  14.544  33.398   6.576
 3797POPC   C3B49293  14.708  33.438   6.998
 3797POPC   C4B49294  14.562  33.271   7.363
 3798POPC   NC349295   4.245  14.564   5.372
 3798POPC   PO449296   4.806  14.089   5.369
 3798POPC   GL149297   4.415  14.112   5.620
 3798POPC   GL249298   4.462  14.429   5.806
 3798POPC   C1A49299   4.269  14.012   6.038
 3798POPC   D2A49300   4.423  14.128   6.453
 3798POPC   C3A49301   4.193  14.217   6.842
 3798POPC   C4A49302   4.352  14.196   7.267
 3798POPC   C1B49303   4.254  14.531   6.197
 3798POPC   C2B49304   4.466  14.632   6.588
 3798POPC   C3B49305   4.432  14.627   7.023
 3798POPC   C4B49306   4.002  14.610   7.232
 3799POPC   NC349307   5.851  31.675   5.399
 3799POPC   PO449308   6.331  31.221   5.485
 3799POPC   GL149309   5.991  31.374   5.813
 3799POPC   GL249310   5.659  31.592   5.853
 3799POPC   C1A49311   5.990  31.562   6.234
 3799POPC   D2A49312   5.737  31.707   6.581
 3799POPC   C3A49313   5.902  31.709   6.993
 3799POPC   C4A49314   6.052  31.847   7.392
 3799POPC   C1B49315   5.494  31.332   6.184
 3799POPC   C2B49316   5.419  31.249   6.613
 3799POPC   C3B49317   5.464  31.459   7.022
 3799POPC   C4B49318   5.740  31.443   7.399
 3800POPC   NC349319  29.960  13.546   5.306
 3800POPC   PO449320  30.252  14.041   5.579
 3800POPC   GL149321  30.140  13.646   5.806
 3800POPC   GL249322  29.866  13.756   5.920
 3800POPC   C1A49323  30.134  13.451   6.254
 3800POPC   D2A49324  29.948  13.261   6.649
 3800POPC   C3A49325  30.069  13.457   7.052
 3800POPC   C4A49326  29.921  13.826   7.303
 3800POPC   C1B49327  30.080  13.960   6.280
 3800POPC   C2B49328  30.146  13.889   6.739
 3800POPC   C3B49329  30.393  13.850   7.121
 3800POPC   C4B49330  30.345  14.065   7.538
 3801POPC   NC349331  17.306  23.702   5.354
 3801POPC   PO449332  18.016  23.803   5.278
 3801POPC   GL149333  17.774  23.680   5.679
 3801POPC   GL249334  17.541  23.966   5.758
 3801POPC   C1A49335  17.768  23.782   6.170
 3801POPC   D2A49336  17.739  24.022   6.565
 3801POPC   C3A49337  17.521  23.857   6.936
 3801POPC   C4A49338  17.610  23.888   7.369
 3801POPC   C1B49339  17.329  23.593   6.005
 3801POPC   C2B49340  17.346  23.392   6.434
 3801POPC   C3B49341  17.270  23.337   6.883
 3801POPC   C4B49342  17.226  23.572   7.281
 3802POPC   NC349343  38.264  15.970   5.398
 3802POPC   PO449344  38.900  15.864   5.274
 3802POPC   GL149345  38.653  15.803   5.720
 3802POPC   GL249346  38.287  15.742   5.842
 3802POPC   C1A49347  38.604  15.935   6.195
 3802POPC   D2A49348  38.678  15.833   6.650
 3802POPC   C3A49349  38.482  15.957   7.086
 3802POPC   C4A49350  38.757  16.226   7.351
 3802POPC   C1B49351  38.220  15.574   6.271
 3802POPC   C2B49352  38.229  15.619   6.732
 3802POPC   C3B49353  38.008  15.578   7.112
 3802POPC   C4B49354  38.194  15.595   7.520
 3803POPC   NC349355  39.829   4.401   5.631
 3803POPC   PO449356  39.195   4.393   5.438
 3803POPC   GL149357  39.045   4.333   5.837
 3803POPC   GL249358  39.399   4.437   5.907
 3803POPC   C1A49359  39.148   4.189   6.259
 3803POPC   D2A49360  39.036   4.330   6.624
 3803POPC   C3A49361  39.173   4.109   6.936
 3803POPC   C4A49362  39.320   4.208   7.333
 3803POPC   C1B49363  39.427   4.744   6.195
 3803POPC   C2B49364  39.379   4.724   6.614
 3803POPC   C3B49365  39.495   4.569   6.994
 3803POPC   C4B49366  39.573   4.811   7.350
 3804POPC   NC349367  18.419  34.173   5.423
 3804POPC   PO449368  18.334  33.528   5.291
 3804POPC   GL149369  18.415  33.721   5.696
 3804POPC   GL249370  18.082  33.910   5.725
 3804POPC   C1A49371  18.380  33.753   6.166
 3804POPC   D2A49372  18.229  33.544   6.558
 3804POPC   C3A49373  18.414  33.678   6.975
 3804POPC   C4A49374  18.681  34.047   7.006
 3804POPC   C1B49375  17.875  33.715   6.081
 3804POPC   C2B49376  17.817  33.881   6.482
 3804POPC   C3B49377  17.907  33.770   6.891
 3804POPC   C4B49378  18.023  33.783   7.298
 3805POPC   NC349379  13.569   9.460   5.485
 3805POPC   PO449380  13.504  10.147   5.547
 3805POPC   GL149381  13.579   9.817   5.872
 3805POPC   GL249382  13.860   9.567   5.888
 3805POPC   C1A49383  13.449   9.869   6.307
 3805POPC   D2A49384  13.360   9.700   6.715
 3805POPC   C3A49385  13.562   9.801   7.088
 3805POPC   C4A49386  13.763   9.834   7.495
 3805POPC   C1B49387  13.970   9.588   6.318
 3805POPC   C2B49388  13.826   9.462   6.724
 3805POPC   C3B49389  13.941   9.496   7.151
 3805POPC   C4B49390  13.968   9.275   7.486
 3806POPC   NC349391   1.023  27.256   5.443
 3806POPC   PO449392   1.480  27.676   5.623
 3806POPC   GL149393   1.108  27.588   5.863
 3806POPC   GL249394   0.858  27.842   5.742
 3806POPC   C1A49395   1.167  27.415   6.277
 3806POPC   D2A49396   1.493  27.480   6.594
 3806POPC   C3A49397   1.293  27.587   6.958
 3806POPC   C4A49398   1.312  27.344   7.301
 3806POPC   C1B49399   0.881  27.939   6.194
 3806POPC   C2B49400   0.864  27.731   6.597
 3806POPC   C3B49401   0.830  27.901   7.012
 3806POPC   C4B49402   1.043  27.838   7.400
 3807POPC   NC349403  40.202  14.696   5.286
 3807POPC   PO449404  40.144  15.360   5.430
 3807POPC   GL149405  40.027  15.237   5.835
 3807POPC   GL249406  39.792  15.480   5.903
 3807POPC   C1A49407  40.129  15.020   6.226
 3807POPC   D2A49408  39.913  14.836   6.591
 3807POPC   C3A49409  40.150  14.954   6.941
 3807POPC   C4A49410  40.023  15.245   7.222
 3807POPC   C1B49411  40.021  15.515   6.309
 3807POPC   C2B49412  39.903  15.377   6.738
 3807POPC   C3B49413  39.611  15.536   7.099
 3807POPC   C4B49414  39.739  15.496   7.606
 3808POPC   NC349415  42.059  28.796   5.421
 3808POPC   PO449416  42.588  29.200   5.347
 3808POPC   GL149417  42.354  29.199   5.716
 3808POPC   GL249418  42.277  28.865   5.861
 3808POPC   C1A49419  42.547  29.186   6.137
 3808POPC   D2A49420  42.475  29.006   6.521
 3808POPC   C3A49421  42.400  29.327   6.825
 3808POPC   C4A49422  42.405  29.456   7.257
 3808POPC   C1B49423  42.055  28.985   6.238
 3808POPC   C2B49424  42.013  28.884   6.671
 3808POPC   C3B49425  42.209  28.915   7.081
 3808POPC   C4B49426  42.017  28.888   7.477
 3809POPC   NC349427  44.117  22.645   5.542
 3809POPC   PO449428  43.889  23.240   5.423
 3809POPC   GL149429  43.914  23.015   5.834
 3809POPC   GL249430  43.663  22.747   5.799
 3809POPC   C1A49431  44.078  22.980   6.281
 3809POPC   D2A49432  44.304  22.912   6.663
 3809POPC   C3A49433  44.008  22.886   6.947
 3809POPC   C4A49434  43.891  23.122   7.249
 3809POPC   C1B49435  43.775  22.544   6.157
 3809POPC   C2B49436  43.811  22.639   6.560
 3809POPC   C3B49437  43.749  22.456   6.960
 3809POPC   C4B49438  43.822  22.633   7.379
 3810POPC   NC349439  33.222  35.355   5.423
 3810POPC   PO449440  32.600  35.575   5.443
 3810POPC   GL149441  32.896  35.446   5.840
 3810POPC   GL249442  33.282  35.515   5.887
 3810POPC   C1A49443  33.005  35.495   6.317
 3810POPC   D2A49444  33.171  35.213   6.635
 3810POPC   C3A49445  32.951  35.137   7.010
 3810POPC   C4A49446  33.125  34.970   7.411
 3810POPC   C1B49447  33.354  35.852   6.171
 3810POPC   C2B49448  33.370  35.773   6.604
 3810POPC   C3B49449  33.145  35.637   6.976
 3810POPC   C4B49450  32.980  35.487   7.387
 3811POPC   NC349451  10.329   7.602   5.374
 3811POPC   PO449452  10.616   7.026   5.648
 3811POPC   GL149453  10.528   7.423   5.844
 3811POPC   GL249454  10.185   7.628   5.859
 3811POPC   C1A49455  10.781   7.504   6.202
 3811POPC   D2A49456  10.770   7.747   6.575
 3811POPC   C3A49457  10.646   7.579   6.934
 3811POPC   C4A49458  10.735   7.272   7.184
 3811POPC   C1B49459  10.125   7.811   6.268
 3811POPC   C2B49460  10.293   7.872   6.686
 3811POPC   C3B49461  10.230   7.801   7.150
 3811POPC   C4B49462  10.233   7.433   7.417
 3812POPC   NC349463  34.432   7.042   5.446
 3812POPC   PO449464  34.097   7.637   5.581
 3812POPC   GL149465  34.370   7.404   5.807
 3812POPC   GL249466  34.692   7.532   5.884
 3812POPC   C1A49467  34.439   7.175   6.153
 3812POPC   D2A49468  34.759   7.165   6.476
 3812POPC   C3A49469  34.670   7.396   6.844
 3812POPC   C4A49470  34.567   7.394   7.265
 3812POPC   C1B49471  34.406   7.700   6.239
 3812POPC   C2B49472  34.420   7.829   6.687
 3812POPC   C3B49473  34.710   7.865   7.060
 3812POPC   C4B49474  34.585   7.843   7.507
 3813POPC   NC349475  37.302  27.565   5.392
 3813POPC   PO449476  36.874  27.941   5.186
 3813POPC   GL149477  36.989  27.811   5.715
 3813POPC   GL249478  37.010  27.439   5.773
 3813POPC   C1A49479  36.714  27.570   6.148
 3813POPC   D2A49480  36.457  27.543   6.542
 3813POPC   C3A49481  36.628  27.371   6.906
 3813POPC   C4A49482  36.707  27.636   7.268
 3813POPC   C1B49483  37.203  27.661   6.165
 3813POPC   C2B49484  37.003  27.525   6.591
 3813POPC   C3B49485  37.140  27.535   7.025
 3813POPC   C4B49486  37.153  27.464   7.491
 3814POPC   NC349487  10.517  25.607   5.509
 3814POPC   PO449488  10.687  24.958   5.387
 3814POPC   GL149489  10.672  25.162   5.806
 3814POPC   GL249490  10.744  25.508   5.963
 3814POPC   C1A49491  10.384  25.153   6.144
 3814POPC   D2A49492  10.240  25.010   6.526
 3814POPC   C3A49493  10.450  25.158   6.890
 3814POPC   C4A49494  10.264  25.077   7.259
 3814POPC   C1B49495  10.930  25.225   6.276
 3814POPC   C2B49496  11.054  25.183   6.706
 3814POPC   C3B49497  10.899  25.390   7.061
 3814POPC   C4B49498  10.729  25.165   7.414
 3815POPC   NC349499  41.287  20.323   5.164
 3815POPC   PO449500  41.695  19.858   5.492
 3815POPC   GL149501  41.530  19.765   5.857
 3815POPC   GL249502  41.340  19.477   5.801
 3815POPC   C1A49503  41.605  19.958   6.246
 3815POPC   D2A49504  41.490  19.937   6.645
 3815POPC   C3A49505  41.678  20.214   6.914
 3815POPC   C4A49506  41.816  20.046   7.287
 3815POPC   C1B49507  41.581  19.384   6.179
 3815POPC   C2B49508  41.492  19.410   6.598
 3815POPC   C3B49509  41.573  19.536   6.994
 3815POPC   C4B49510  41.334  19.882   7.132
 3816POPC   NC349511  27.417  10.378   5.450
 3816POPC   PO449512  27.848  10.780   5.727
 3816POPC   GL149513  27.497  10.632   5.920
 3816POPC   GL249514  27.471  10.262   5.940
 3816POPC   C1A49515  27.411  10.621   6.346
 3816POPC   D2A49516  27.238  10.415   6.683
 3816POPC   C3A49517  27.407  10.614   7.017
 3816POPC   C4A49518  27.703  10.794   7.268
 3816POPC   C1B49519  27.803  10.271   6.233
 3816POPC   C2B49520  27.743  10.280   6.681
 3816POPC   C3B49521  27.850  10.296   7.118
 3816POPC   C4B49522  28.113   9.999   7.339
 3817POPC   NC349523  27.585  38.230   5.437
 3817POPC   PO449524  27.882  38.857   5.529
 3817POPC   GL149525  27.678  38.563   5.839
 3817POPC   GL249526  27.759  38.225   5.932
 3817POPC   C1A49527  27.639  38.671   6.281
 3817POPC   D2A49528  27.848  38.596   6.675
 3817POPC   C3A49529  27.588  38.580   7.013
 3817POPC   C4A49530  27.612  38.696   7.454
 3817POPC   C1B49531  27.394  38.234   6.198
 3817POPC   C2B49532  27.309  38.385   6.601
 3817POPC   C3B49533  27.166  38.214   6.961
 3817POPC   C4B49534  27.383  38.214   7.308
 3818POPC   NC349535   3.012  32.744   4.992
 3818POPC   PO449536   2.628  33.181   5.353
 3818POPC   GL149537   2.832  33.237   5.800
 3818POPC   GL249538   2.984  32.944   5.836
 3818POPC   C1A49539   2.747  33.091   6.262
 3818POPC   D2A49540   2.523  33.121   6.675
 3818POPC   C3A49541   2.757  33.281   7.017
 3818POPC   C4A49542   2.830  32.972   7.261
 3818POPC   C1B49543   3.052  32.669   6.232
 3818POPC   C2B49544   3.129  32.464   6.633
 3818POPC   C3B49545   3.181  32.636   7.071
 3818POPC   C4B49546   3.139  32.700   7.531
 3819POPC   NC349547   4.509  18.584   5.479
 3819POPC   PO449548   4.252  18.003   5.393
 3819POPC   GL149549   4.513  18.065   5.780
 3819POPC   GL249550   4.361  18.350   5.906
 3819POPC   C1A49551   4.436  18.003   6.251
 3819POPC   D2A49552   4.013  17.999   6.466
 3819POPC   C3A49553   4.015  18.076   6.908
 3819POPC   C4A49554   4.340  18.171   7.177
 3819POPC   C1B49555   4.258  18.486   6.303
 3819POPC   C2B49556   4.399  18.419   6.727
 3819POPC   C3B49557   4.472  18.657   7.127
 3819POPC   C4B49558   4.301  18.525   7.559
 3820POPC   NC349559  38.154  37.387   5.428
 3820POPC   PO449560  38.682  37.962   5.478
 3820POPC   GL149561  38.694  37.833   5.883
 3820POPC   GL249562  38.702  37.475   5.780
 3820POPC   C1A49563  38.561  38.026   6.295
 3820POPC   D2A49564  38.207  38.033   6.567
 3820POPC   C3A49565  38.216  37.770   6.885
 3820POPC   C4A49566  38.387  37.781   7.260
 3820POPC   C1B49567  38.590  37.415   6.226
 3820POPC   C2B49568  38.659  37.640   6.638
 3820POPC   C3B49569  38.838  37.597   7.066
 3820POPC   C4B49570  38.763  37.538   7.533
 3821POPC   NC349571  17.794  42.737   5.362
 3821POPC   PO449572  18.497  42.568   5.449
 3821POPC   GL149573  18.365  42.693   5.827
 3821POPC   GL249574  18.351  42.316   5.901
 3821POPC   C1A49575  18.187  42.648   6.234
 3821POPC   D2A49576  18.133  42.298   6.471
 3821POPC   C3A49577  18.325  42.408   6.817
 3821POPC   C4A49578  18.289  42.416   7.225
 3821POPC   C1B49579  18.592  42.047   6.221
 3821POPC   C2B49580  18.713  42.061   6.681
 3821POPC   C3B49581  18.430  41.951   7.046
 3821POPC   C4B49582  18.348  41.953   7.502
 3822POPC   NC349583   8.308  38.923   5.491
 3822POPC   PO449584   8.378  39.521   5.213
 3822POPC   GL149585   8.375  39.417   5.714
 3822POPC   GL249586   8.506  39.125   5.897
 3822POPC   C1A49587   8.246  39.444   6.172
 3822POPC   D2A49588   8.344  39.451   6.624
 3822POPC   C3A49589   8.058  39.416   6.983
 3822POPC   C4A49590   8.343  39.314   7.312
 3822POPC   C1B49591   8.423  38.914   6.259
 3822POPC   C2B49592   8.157  38.683   6.508
 3822POPC   C3B49593   8.135  38.899   6.893
 3822POPC   C4B49594   8.175  38.848   7.319
 3823POPC   NC349595   2.103  26.033   5.534
 3823POPC   PO449596   1.447  26.031   5.603
 3823POPC   GL149597   1.776  26.142   5.909
 3823POPC   GL249598   1.980  25.820   5.963
 3823POPC   C1A49599   1.802  26.064   6.353
 3823POPC   D2A49600   2.122  26.113   6.610
 3823POPC   C3A49601   1.988  26.194   7.014
 3823POPC   C4A49602   1.884  26.382   7.402
 3823POPC   C1B49603   2.259  25.601   6.214
 3823POPC   C2B49604   2.225  25.407   6.582
 3823POPC   C3B49605   2.156  25.688   6.903
 3823POPC   C4B49606   2.024  25.771   7.277
 3824POPC   NC349607  33.369   5.970   5.542
 3824POPC   PO449608  32.830   5.537   5.474
 3824POPC   GL149609  33.005   5.712   5.807
 3824POPC   GL249610  32.868   6.030   5.717
 3824POPC   C1A49611  32.980   5.899   6.211
 3824POPC   D2A49612  32.824   5.762   6.602
 3824POPC   C3A49613  33.171   5.768   6.881
 3824POPC   C4A49614  33.211   5.963   7.280
 3824POPC   C1B49615  32.731   6.317   6.028
 3824POPC   C2B49616  32.722   6.268   6.485
 3824POPC   C3B49617  32.960   6.229   6.877
 3824POPC   C4B49618  32.809   6.287   7.305
 3825POPC   NC349619  30.127  37.956   5.519
 3825POPC   PO449620  29.816  37.378   5.546
 3825POPC   GL149621  29.937  37.575   5.912
 3825POPC   GL249622  29.786  37.885   5.923
 3825POPC   C1A49623  29.809  37.584   6.362
 3825POPC   D2A49624  29.917  37.784   6.741
 3825POPC   C3A49625  30.138  37.699   7.119
 3825POPC   C4A49626  30.166  37.464   7.514
 3825POPC   C1B49627  29.839  38.111   6.343
 3825POPC   C2B49628  29.835  38.295   6.766
 3825POPC   C3B49629  29.778  38.071   7.158
 3825POPC   C4B49630  29.986  37.978   7.526
 3826POPC   NC349631   7.703   6.971   5.396
 3826POPC   PO449632   7.341   6.413   5.240
 3826POPC   GL149633   7.386   6.506   5.689
 3826POPC   GL249634   7.366   6.818   5.798
 3826POPC   C1A49635   7.656   6.434   6.053
 3826POPC   D2A49636   7.654   6.354   6.496
 3826POPC   C3A49637   7.719   6.679   6.796
 3826POPC   C4A49638   7.615   6.755   7.222
 3826POPC   C1B49639   7.251   6.697   6.225
 3826POPC   C2B49640   7.256   6.895   6.639
 3826POPC   C3B49641   7.126   6.759   7.023
 3826POPC   C4B49642   6.979   6.412   7.257
 3827POPC   NC349643  34.561  37.580   5.426
 3827POPC   PO449644  34.265  37.101   5.821
 3827POPC   GL149645  34.424  37.565   5.930
 3827POPC   GL249646  34.752  37.772   5.871
 3827POPC   C1A49647  34.433  37.834   6.321
 3827POPC   D2A49648  34.202  37.605   6.662
 3827POPC   C3A49649  34.335  37.622   7.070
 3827POPC   C4A49650  34.597  37.319   7.202
 3827POPC   C1B49651  34.877  37.606   6.256
 3827POPC   C2B49652  34.731  37.635   6.697
 3827POPC   C3B49653  34.970  37.649   7.040
 3827POPC   C4B49654  35.099  37.445   7.342
 3828POPC   NC349655  14.751  15.615   5.569
 3828POPC   PO449656  14.512  16.176   5.286
 3828POPC   GL149657  14.453  16.030   5.742
 3828POPC   GL249658  14.326  15.697   5.818
 3828POPC   C1A49659  14.272  16.033   6.196
 3828POPC   D2A49660  14.264  16.275   6.581
 3828POPC   C3A49661  14.131  16.139   6.986
 3828POPC   C4A49662  14.323  16.025   7.356
 3828POPC   C1B49663  14.508  15.562   6.183
 3828POPC   C2B49664  14.593  15.741   6.549
 3828POPC   C3B49665  14.496  15.629   6.962
 3828POPC   C4B49666  14.282  15.503   7.297
 3829POPC   NC349667  21.754  12.604   5.367
 3829POPC   PO449668  22.375  13.137   5.465
 3829POPC   GL149669  22.199  12.930   5.795
 3829POPC   GL249670  22.174  12.587   5.745
 3829POPC   C1A49671  22.025  12.838   6.209
 3829POPC   D2A49672  22.091  13.048   6.602
 3829POPC   C3A49673  22.059  12.898   7.018
 3829POPC   C4A49674  21.955  13.048   7.424
 3829POPC   C1B49675  22.447  12.601   6.139
 3829POPC   C2B49676  22.335  12.602   6.585
 3829POPC   C3B49677  22.512  12.683   7.012
 3829POPC   C4B49678  22.368  12.712   7.490
 3830POPC   NC349679  32.518  38.116   5.110
 3830POPC   PO449680  32.255  38.712   5.454
 3830POPC   GL149681  32.384  38.493   5.836
 3830POPC   GL249682  32.542  38.187   5.705
 3830POPC   C1A49683  32.173  38.375   6.226
 3830POPC   D2A49684  32.043  38.332   6.628
 3830POPC   C3A49685  32.171  38.680   6.860
 3830POPC   C4A49686  32.017  38.747   7.261
 3830POPC   C1B49687  32.417  37.960   6.070
 3830POPC   C2B49688  32.274  37.898   6.486
 3830POPC   C3B49689  32.369  38.058   6.883
 3830POPC   C4B49690  32.177  38.273   7.172
 3831POPC   NC349691  42.981  12.609   5.456
 3831POPC   PO449692  43.408  13.086   5.275
 3831POPC   GL149693  43.213  13.214   5.675
 3831POPC   GL249694  43.074  12.923   5.854
 3831POPC   C1A49695  43.152  13.385   6.115
 3831POPC   D2A49696  43.110  13.227   6.548
 3831POPC   C3A49697  43.310  13.216   6.961
 3831POPC   C4A49698  42.921  13.127   7.188
 3831POPC   C1B49699  42.984  12.591   6.174
 3831POPC   C2B49700  42.805  12.439   6.564
 3831POPC   C3B49701  42.904  12.646   6.944
 3831POPC   C4B49702  42.777  12.530   7.346
 3832POPC   NC349703  16.027  42.014   5.485
 3832POPC   PO449704  15.784  42.629   5.314
 3832POPC   GL149705  15.832  42.442   5.747
 3832POPC   GL249706  16.192  42.419   5.804
 3832POPC   C1A49707  15.872  42.249   6.193
 3832POPC   D2A49708  16.068  42.389   6.628
 3832POPC   C3A49709  15.795  42.501   6.995
 3832POPC   C4A49710  15.691  42.122   7.220
 3832POPC   C1B49711  16.387  42.235   6.196
 3832POPC   C2B49712  16.483  41.965   6.552
 3832POPC   C3B49713  16.468  42.083   6.970
 3832POPC   C4B49714  16.195  42.301   7.214
 3833POPC   NC349715  10.244   2.243   5.561
 3833POPC   PO449716  10.265   1.574   5.357
 3833POPC   GL149717  10.508   1.728   5.768
 3833POPC   GL249718  10.810   1.978   5.806
 3833POPC   C1A49719  10.643   1.770   6.231
 3833POPC   D2A49720  10.499   2.092   6.507
 3833POPC   C3A49721  10.528   2.027   6.938
 3833POPC   C4A49722  10.641   1.911   7.340
 3833POPC   C1B49723  10.856   2.289   6.195
 3833POPC   C2B49724  10.827   2.475   6.632
 3833POPC   C3B49725  10.931   2.337   7.033
 3833POPC   C4B49726  10.871   2.342   7.463
 3834POPC   NC349727  24.608  24.687   5.560
 3834POPC   PO449728  24.021  24.255   5.475
 3834POPC   GL149729  24.195  24.301   5.898
 3834POPC   GL249730  24.548  24.461   6.009
 3834POPC   C1A49731  24.155  24.471   6.316
 3834POPC   D2A49732  24.490  24.624   6.590
 3834POPC   C3A49733  24.512  24.444   6.995
 3834POPC   C4A49734  24.485  24.241   7.393
 3834POPC   C1B49735  24.904  24.661   6.240
 3834POPC   C2B49736  24.923  24.939   6.590
 3834POPC   C3B49737  24.917  24.727   6.978
 3834POPC   C4B49738  24.846  24.596   7.400
 3835POPC   NC349739  18.635   5.476   5.416
 3835POPC   PO449740  18.542   4.854   5.467
 3835POPC   GL149741  18.368   5.103   5.783
 3835POPC   GL249742  18.145   5.335   5.632
 3835POPC   C1A49743  18.525   5.282   6.163
 3835POPC   D2A49744  18.590   5.093   6.555
 3835POPC   C3A49745  18.281   5.064   6.855
 3835POPC   C4A49746  18.424   5.190   7.259
 3835POPC   C1B49747  18.082   5.506   6.056
 3835POPC   C2B49748  18.092   5.448   6.514
 3835POPC   C3B49749  18.123   5.531   6.969
 3835POPC   C4B49750  17.934   5.420   7.371
 3836POPC   NC349751  27.201  44.506   5.446
 3836POPC   PO449752  26.547  44.845   5.361
 3836POPC   GL149753  26.821  44.765   5.763
 3836POPC   GL249754  26.896  44.416   5.854
 3836POPC   C1A49755  27.098  44.831   6.156
 3836POPC   D2A49756  27.226  44.741   6.617
 3836POPC   C3A49757  26.918  44.841   6.954
 3836POPC   C4A49758  26.650  44.699   7.312
 3836POPC   C1B49759  27.214  44.258   6.098
 3836POPC   C2B49760  27.256  44.191   6.529
 3836POPC   C3B49761  27.018  44.171   6.888
 3836POPC   C4B49762  26.926  44.263   7.297
 3837POPC   NC349763  36.783  18.882   5.446
 3837POPC   PO449764  37.321  19.267   5.209
 3837POPC   GL149765  37.319  19.330   5.682
 3837POPC   GL249766  37.052  19.082   5.844
 3837POPC   C1A49767  37.408  19.278   6.142
 3837POPC   D2A49768  37.176  19.021   6.470
 3837POPC   C3A49769  37.227  19.063   6.911
 3837POPC   C4A49770  36.958  18.927   7.241
 3837POPC   C1B49771  36.711  18.931   6.130
 3837POPC   C2B49772  36.695  18.733   6.504
 3837POPC   C3B49773  36.596  18.881   6.884
 3837POPC   C4B49774  36.393  18.715   7.227
 3838POPC   NC349775  24.269  32.005   5.489
 3838POPC   PO449776  24.651  31.412   5.474
 3838POPC   GL149777  24.404  31.586   5.810
 3838POPC   GL249778  24.663  31.809   5.846
 3838POPC   C1A49779  24.303  31.438   6.254
 3838POPC   D2A49780  24.553  31.340   6.642
 3838POPC   C3A49781  24.381  31.416   7.054
 3838POPC   C4A49782  23.980  31.301   7.211
 3838POPC   C1B49783  24.765  31.683   6.259
 3838POPC   C2B49784  25.003  31.576   6.625
 3838POPC   C3B49785  24.877  31.619   7.021
 3838POPC   C4B49786  24.812  31.318   7.331
 3839POPC   NC349787   1.548  18.197   5.426
 3839POPC   PO449788   0.946  18.520   5.414
 3839POPC   GL149789   1.090  18.617   5.826
 3839POPC   GL249790   1.448  18.558   5.800
 3839POPC   C1A49791   1.117  18.483   6.255
 3839POPC   D2A49792   1.394  18.295   6.559
 3839POPC   C3A49793   1.134  18.191   6.918
 3839POPC   C4A49794   1.125  18.015   7.312
 3839POPC   C1B49795   1.562  18.755   6.180
 3839POPC   C2B49796   1.384  18.807   6.595
 3839POPC   C3B49797   1.486  18.575   6.991
 3839POPC   C4B49798   1.199  18.554   7.362
 3840POPC   NC349799  26.099  21.771   5.318
 3840POPC   PO449800  26.125  21.205   5.315
 3840POPC   GL149801  26.277  21.428   5.677
 3840POPC   GL249802  26.032  21.651   5.816
 3840POPC   C1A49803  26.400  21.352   6.106
 3840POPC   D2A49804  26.577  21.383   6.528
 3840POPC   C3A49805  26.429  21.146   6.903
 3840POPC   C4A49806  26.255  21.233   7.319
 3840POPC   C1B49807  25.929  21.503   6.232
 3840POPC   C2B49808  26.090  21.460   6.646
 3840POPC   C3B49809  25.906  21.510   7.055
 3840POPC   C4B49810  25.544  21.630   7.266
 3841POPC   NC349811  34.475  18.244   5.317
 3841POPC   PO449812  35.033  17.881   5.355
 3841POPC   GL149813  34.868  17.999   5.801
 3841POPC   GL249814  34.559  18.209   5.843
 3841POPC   C1A49815  34.864  18.185   6.254
 3841POPC   D2A49816  34.649  18.474   6.584
 3841POPC   C3A49817  34.599  18.313   7.018
 3841POPC   C4A49818  34.755  18.149   7.399
 3841POPC   C1B49819  34.326  18.197   6.265
 3841POPC   C2B49820  34.147  18.256   6.719
 3841POPC   C3B49821  34.142  18.529   7.109
 3841POPC   C4B49822  34.388  18.553   7.519
 3842POPC   NC349823   4.103  29.019   5.233
 3842POPC   PO449824   4.626  29.396   5.335
 3842POPC   GL149825   4.387  29.198   5.659
 3842POPC   GL249826   4.075  29.381   5.633
 3842POPC   C1A49827   4.350  29.170   6.133
 3842POPC   D2A49828   4.545  29.115   6.558
 3842POPC   C3A49829   4.341  29.007   6.946
 3842POPC   C4A49830   4.458  28.921   7.356
 3842POPC   C1B49831   3.938  29.464   6.067
 3842POPC   C2B49832   4.121  29.540   6.487
 3842POPC   C3B49833   4.022  29.405   6.917
 3842POPC   C4B49834   4.265  29.394   7.305
 3843POPC   NC349835  35.046   6.608   5.427
 3843POPC   PO449836  34.362   6.554   5.377
 3843POPC   GL149837  34.601   6.618   5.748
 3843POPC   GL249838  34.546   6.282   5.882
 3843POPC   C1A49839  34.644   6.726   6.191
 3843POPC   D2A49840  34.358   6.847   6.546
 3843POPC   C3A49841  34.563   6.902   6.945
 3843POPC   C4A49842  34.458   6.917   7.364
 3843POPC   C1B49843  34.403   6.308   6.327
 3843POPC   C2B49844  34.574   6.426   6.735
 3843POPC   C3B49845  34.562   6.428   7.187
 3843POPC   C4B49846  34.401   6.160   7.514
 3844POPC   NC349847  37.859  27.275   5.438
 3844POPC   PO449848  37.518  27.932   5.540
 3844POPC   GL149849  37.615  27.722   5.859
 3844POPC   GL249850  37.517  27.391   5.823
 3844POPC   C1A49851  37.748  27.810   6.255
 3844POPC   D2A49852  37.497  27.677   6.589
 3844POPC   C3A49853  37.485  27.902   6.918
 3844POPC   C4A49854  37.523  27.758   7.295
 3844POPC   C1B49855  37.611  27.317   6.222
 3844POPC   C2B49856  37.925  27.379   6.540
 3844POPC   C3B49857  37.864  27.499   6.971
 3844POPC   C4B49858  37.633  27.256   7.265
 3845POPC   NC349859  24.603  42.671   5.477
 3845POPC   PO449860  24.531  42.016   5.656
 3845POPC   GL149861  24.633  42.380   5.925
 3845POPC   GL249862  24.908  42.661   5.882
 3845POPC   C1A49863  24.405  42.372   6.330
 3845POPC   D2A49864  24.108  42.531   6.665
 3845POPC   C3A49865  24.336  42.439   7.040
 3845POPC   C4A49866  24.394  42.204   7.428
 3845POPC   C1B49867  24.792  42.716   6.290
 3845POPC   C2B49868  24.800  42.501   6.654
 3845POPC   C3B49869  24.883  42.668   7.020
 3845POPC   C4B49870  24.718  42.595   7.400
 3846POPC   NC349871   6.503  40.405   5.616
 3846POPC   PO449872   6.460  39.730   5.587
 3846POPC   GL149873   6.546  39.897   5.971
 3846POPC   GL249874   6.263  40.103   5.967
 3846POPC   C1A49875   6.842  39.810   6.321
 3846POPC   D2A49876   6.845  39.684   6.762
 3846POPC   C3A49877   6.880  40.081   6.979
 3846POPC   C4A49878   6.559  40.272   7.231
 3846POPC   C1B49879   6.367  40.417   6.297
 3846POPC   C2B49880   6.324  40.345   6.730
 3846POPC   C3B49881   6.366  39.934   6.900
 3846POPC   C4B49882   6.214  39.885   7.311
 3847POPC   NC349883  43.435  21.195   5.442
 3847POPC   PO449884  43.971  21.569   5.352
 3847POPC   GL149885  43.866  21.400   5.791
 3847POPC   GL249886  43.512  21.412   5.882
 3847POPC   C1A49887  44.062  21.205   6.210
 3847POPC   D2A49888  44.034  20.991   6.638
 3847POPC   C3A49889  44.068  21.214   7.026
 3847POPC   C4A49890  44.291  21.175   7.413
 3847POPC   C1B49891  43.685  21.554   6.261
 3847POPC   C2B49892  43.682  21.415   6.696
 3847POPC   C3B49893  43.670  21.590   7.108
 3847POPC   C4B49894  43.688  21.772   7.536
 3848POPC   NC349895  43.261   6.848   5.410
 3848POPC   PO449896  42.792   6.349   5.571
 3848POPC   GL149897  42.742   6.543   5.914
 3848POPC   GL249898  43.035   6.768   5.883
 3848POPC   C1A49899  42.892   6.481   6.300
 3848POPC   D2A49900  43.173   6.790   6.450
 3848POPC   C3A49901  43.097   6.916   6.866
 3848POPC   C4A49902  42.816   6.702   7.128
 3848POPC   C1B49903  43.317   6.416   6.033
 3848POPC   C2B49904  43.366   6.307   6.474
 3848POPC   C3B49905  43.473   6.574   6.821
 3848POPC   C4B49906  43.286   6.560   7.229
 3849POPC   NC349907   7.377  44.233   5.449
 3849POPC   PO449908   7.576  44.900   5.576
 3849POPC   GL149909   7.632  44.570   5.820
 3849POPC   GL249910   7.264  44.549   5.838
 3849POPC   C1A49911   7.770  44.407   6.239
 3849POPC   D2A49912   7.515  44.435   6.618
 3849POPC   C3A49913   7.609  44.642   6.986
 3849POPC   C4A49914   7.272  44.559   7.286
 3849POPC   C1B49915   7.411  44.785   6.222
 3849POPC   C2B49916   7.327   0.045   6.560
 3849POPC   C3B49917   7.220  44.973   6.998
 3849POPC   C4B49918   7.516  44.993   7.364
 3850POPC   NC349919  24.291  43.330   5.576
 3850POPC   PO449920  24.892  43.061   5.555
 3850POPC   GL149921  24.516  42.993   5.875
 3850POPC   GL249922  24.324  43.283   6.074
 3850POPC   C1A49923  24.220  42.805   6.156
 3850POPC   D2A49924  24.226  43.019   6.530
 3850POPC   C3A49925  24.446  42.883   6.836
 3850POPC   C4A49926  24.523  43.018   7.220
 3850POPC   C1B49927  24.680  43.204   6.339
 3850POPC   C2B49928  24.875  43.119   6.748
 3850POPC   C3B49929  24.798  43.405   7.080
 3850POPC   C4B49930  24.722  43.464   7.527
 3851POPC   NC349931   6.694  28.059   5.539
 3851POPC   PO449932   6.715  28.736   5.405
 3851POPC   GL149933   6.615  28.494   5.791
 3851POPC   GL249934   6.307  28.323   5.748
 3851POPC   C1A49935   6.728  28.194   6.194
 3851POPC   D2A49936   6.732  28.004   6.636
 3851POPC   C3A49937   6.892  28.318   6.944
 3851POPC   C4A49938   6.904  28.705   7.195
 3851POPC   C1B49939   6.300  28.455   6.192
 3851POPC   C2B49940   6.271  28.260   6.590
 3851POPC   C3B49941   6.407  28.183   6.994
 3851POPC   C4B49942   6.200  28.223   7.338
 3852POPC   NC349943  14.134  37.623   5.369
 3852POPC   PO449944  13.385  37.922   5.397
 3852POPC   GL149945  13.443  37.813   5.823
 3852POPC   GL249946  13.483  37.472   5.855
 3852POPC   C1A49947  13.683  37.796   6.217
 3852POPC   D2A49948  13.845  38.030   6.555
 3852POPC   C3A49949  13.898  37.982   6.986
 3852POPC   C4A49950  13.652  37.862   7.342
 3852POPC   C1B49951  13.300  37.444   6.273
 3852POPC   C2B49952  13.472  37.615   6.650
 3852POPC   C3B49953  13.714  37.509   6.977
 3852POPC   C4B49954  13.655  37.357   7.400
 3853POPC   NC349955  22.128  15.849   5.224
 3853POPC   PO449956  22.534  15.595   5.690
 3853POPC   GL149957  22.225  15.675   6.041
 3853POPC   GL249958  21.887  15.821   5.910
 3853POPC   C1A49959  22.387  15.935   6.362
 3853POPC   D2A49960  22.221  16.199   6.654
 3853POPC   C3A49961  22.377  16.067   7.019
 3853POPC   C4A49962  22.014  16.062   7.224
 3853POPC   C1B49963  21.868  15.894   6.373
 3853POPC   C2B49964  22.127  15.695   6.715
 3853POPC   C3B49965  22.085  15.581   7.127
 3853POPC   C4B49966  21.957  15.612   7.571
 3854POPC   NC349967   2.238  31.820   5.475
 3854POPC   PO449968   1.703  31.407   5.458
 3854POPC   GL149969   1.837  31.613   5.817
 3854POPC   GL249970   2.163  31.440   5.829
 3854POPC   C1A49971   1.910  31.593   6.284
 3854POPC   D2A49972   1.903  31.789   6.706
 3854POPC   C3A49973   1.835  31.566   7.092
 3854POPC   C4A49974   1.670  31.703   7.510
 3854POPC   C1B49975   2.322  31.284   6.218
 3854POPC   C2B49976   2.236  31.282   6.665
 3854POPC   C3B49977   2.320  31.415   7.108
 3854POPC   C4B49978   2.099  31.376   7.484
 3855POPC   NC349979  44.221  18.557   5.441
 3855POPC   PO449980  43.627  18.294   5.662
 3855POPC   GL149981  43.979  18.353   5.874
 3855POPC   GL249982  44.118  18.069   5.725
 3855POPC   C1A49983  43.970  18.434   6.318
 3855POPC   D2A49984  44.072  18.391   6.759
 3855POPC   C3A49985  43.805  18.269   7.101
 3855POPC   C4A49986  43.842  18.279   7.564
 3855POPC   C1B49987  44.256  18.035   6.162
 3855POPC   C2B49988  44.423  18.042   6.588
 3855POPC   C3B49989  44.243  17.992   6.996
 3855POPC   C4B49990  44.070  17.884   7.354
 3856POPC   NC349991  32.707   9.982   5.369
 3856POPC   PO449992  33.324   9.566   5.322
 3856POPC   GL149993  33.069   9.597   5.698
 3856POPC   GL249994  33.133   9.930   5.712
 3856POPC   C1A49995  32.982   9.486   6.138
 3856POPC   D2A49996  32.762   9.665   6.506
 3856POPC   C3A49997  32.919   9.462   6.867
 3856POPC   C4A49998  32.772   9.584   7.222
 3856POPC   C1B49999  32.889   9.977   6.104
 3856POPC   C2B50000  33.064  10.136   6.505
 3856POPC   C3B50001  33.060   9.988   6.947
 3856POPC   C4B50002  33.027   9.964   7.430
 3857POPC   NC350003  44.309  26.944   5.478
 3857POPC   PO450004  44.989  26.955   5.322
 3857POPC   GL150005  44.816  26.809   5.716
 3857POPC   GL250006  44.669  27.126   5.790
 3857POPC   C1A50007  44.754  26.833   6.188
 3857POPC   D2A50008  44.498  26.608   6.515
 3857POPC   C3A50009  44.624  26.658   6.956
 3857POPC   C4A50010  44.606  26.904   7.351
 3857POPC   C1B50011  44.558  27.294   6.196
 3857POPC   C2B50012  44.701  27.249   6.573
 3857POPC   C3B50013  44.648  27.239   6.988
 3857POPC   C4B50014  44.296  27.314   7.273
 3858POPC   NC350015   3.032   3.652   5.512
 3858POPC   PO450016   2.502   3.320   5.555
 3858POPC   GL150017   2.709   3.443   5.889
 3858POPC   GL250018   3.009   3.248   5.837
 3858POPC   C1A50019   2.543   3.397   6.303
 3858POPC   D2A50020   2.468   3.665   6.629
 3858POPC   C3A50021   2.490   3.488   7.035
 3858POPC   C4A50022   2.834   3.435   7.273
 3858POPC   C1B50023   3.052   3.403   6.264
 3858POPC   C2B50024   2.966   3.512   6.683
 3858POPC   C3B50025   3.229   3.345   6.978
 3858POPC   C4B50026   3.128   3.000   7.227
 3859POPC   NC350027  40.748  13.195   5.493
 3859POPC   PO450028  40.950  12.543   5.418
 3859POPC   GL150029  40.961  12.783   5.802
 3859POPC   GL250030  40.606  12.842   5.833
 3859POPC   C1A50031  40.952  12.844   6.271
 3859POPC   D2A50032  40.959  12.607   6.690
 3859POPC   C3A50033  41.094  12.878   7.041
 3859POPC   C4A50034  41.074  13.334   7.126
 3859POPC   C1B50035  40.454  12.726   6.236
 3859POPC   C2B50036  40.466  12.932   6.643
 3859POPC   C3B50037  40.596  12.811   7.044
 3859POPC   C4B50038  40.379  12.665   7.436
 3860POPC   NC350039  11.825   0.620   5.374
 3860POPC   PO450040  12.454   0.541   5.323
 3860POPC   GL150041  12.281   0.442   5.762
 3860POPC   GL250042  11.959   0.589   5.862
 3860POPC   C1A50043  12.146   0.181   6.150
 3860POPC   D2A50044  12.174  44.953   6.569
 3860POPC   C3A50045  12.066   0.199   6.941
 3860POPC   C4A50046  11.952   0.309   7.371
 3860POPC   C1B50047  12.172   0.691   6.223
 3860POPC   C2B50048  11.988   0.577   6.606
 3860POPC   C3B50049  12.007   0.712   7.038
 3860POPC   C4B50050  12.417   0.882   7.186
 3861POPC   NC350051  27.732   7.568   5.449
 3861POPC   PO450052  27.268   7.160   5.455
 3861POPC   GL150053  27.386   7.420   5.859
 3861POPC   GL250054  27.692   7.632   5.958
 3861POPC   C1A50055  27.268   7.640   6.268
 3861POPC   D2A50056  27.379   7.847   6.668
 3861POPC   C3A50057  27.587   7.607   7.006
 3861POPC   C4A50058  27.350   7.388   7.380
 3861POPC   C1B50059  27.746   7.537   6.409
 3861POPC   C2B50060  27.768   7.197   6.702
 3861POPC   C3B50061  27.704   7.112   7.135
 3861POPC   C4B50062  27.846   7.431   7.415
 3862POPC   NC350063  10.911  21.566   5.602
 3862POPC   PO450064  10.648  21.028   5.237
 3862POPC   GL150065  10.602  21.161   5.685
 3862POPC   GL250066  10.348  21.377   5.698
 3862POPC   C1A50067  10.713  21.205   6.171
 3862POPC   D2A50068  10.921  21.375   6.593
 3862POPC   C3A50069  10.706  21.312   6.970
 3862POPC   C4A50070  10.648  21.435   7.383
 3862POPC   C1B50071  10.291  21.486   6.139
 3862POPC   C2B50072  10.437  21.553   6.536
 3862POPC   C3B50073  10.215  21.487   6.883
 3862POPC   C4B50074  10.155  21.398   7.276
 3863POPC   NC350075   9.414  29.316   5.361
 3863POPC   PO450076   9.485  28.672   5.599
 3863POPC   GL150077   9.516  28.998   5.871
 3863POPC   GL250078   9.844  28.947   5.927
 3863POPC   C1A50079   9.577  29.232   6.269
 3863POPC   D2A50080   9.437  29.142   6.691
 3863POPC   C3A50081   9.519  29.447   7.039
 3863POPC   C4A50082   9.880  29.511   7.282
 3863POPC   C1B50083   9.693  28.709   6.319
 3863POPC   C2B50084   9.656  28.676   6.785
 3863POPC   C3B50085   9.542  28.939   7.150
 3863POPC   C4B50086   9.725  29.057   7.543
 3864POPC   NC350087  16.419   0.814   5.544
 3864POPC   PO450088  15.949   1.378   5.450
 3864POPC   GL150089  15.895   1.152   5.836
 3864POPC   GL250090  16.187   1.036   5.949
 3864POPC   C1A50091  15.855   1.224   6.299
 3864POPC   D2A50092  15.699   1.412   6.667
 3864POPC   C3A50093  15.941   1.317   6.996
 3864POPC   C4A50094  15.693   1.333   7.322
 3864POPC   C1B50095  16.478   0.986   6.274
 3864POPC   C2B50096  16.533   0.906   6.714
 3864POPC   C3B50097  16.383   1.047   7.128
 3864POPC   C4B50098  16.120   1.029   7.491
 3865POPC   NC350099  44.020  20.747   5.447
 3865POPC   PO450100  44.003  20.085   5.615
 3865POPC   GL150101  43.853  20.493   5.885
 3865POPC   GL250102  43.779  20.891   5.905
 3865POPC   C1A50103  43.913  20.603   6.333
 3865POPC   D2A50104  44.026  20.390   6.742
 3865POPC   C3A50105  44.100  20.545   7.172
 3865POPC   C4A50106  44.245  20.404   7.608
 3865POPC   C1B50107  43.593  21.027   6.303
 3865POPC   C2B50108  43.545  20.807   6.703
 3865POPC   C3B50109  43.660  20.834   7.141
 3865POPC   C4B50110  43.466  20.821   7.548
 3866POPC   NC350111   1.596   7.473   5.471
 3866POPC   PO450112   0.998   7.773   5.344
 3866POPC   GL150113   1.142   7.629   5.771
 3866POPC   GL250114   1.055   7.289   5.813
 3866POPC   C1A50115   1.166   7.741   6.245
 3866POPC   D2A50116   0.894   7.720   6.650
 3866POPC   C3A50117   1.099   7.552   7.041
 3866POPC   C4A50118   1.530   7.667   7.202
 3866POPC   C1B50119   0.917   7.309   6.264
 3866POPC   C2B50120   1.188   7.259   6.617
 3866POPC   C3B50121   1.385   7.105   6.979
 3866POPC   C4B50122   1.278   7.203   7.395
 3867POPC   NC350123  41.537  32.631   5.368
 3867POPC   PO450124  41.115  33.147   5.478
 3867POPC   GL150125  41.387  32.909   5.792
 3867POPC   GL250126  41.761  32.838   5.804
 3867POPC   C1A50127  41.433  33.053   6.219
 3867POPC   D2A50128  41.461  32.867   6.647
 3867POPC   C3A50129  41.419  33.093   7.057
 3867POPC   C4A50130  41.408  33.129   7.533
 3867POPC   C1B50131  41.692  32.618   6.213
 3867POPC   C2B50132  41.919  32.647   6.594
 3867POPC   C3B50133  41.878  32.815   6.983
 3867POPC   C4B50134  41.674  32.708   7.361
 3868POPC   NC350135  41.838   3.431   5.520
 3868POPC   PO450136  41.364   3.847   5.648
 3868POPC   GL150137  41.555   3.582   5.919
 3868POPC   GL250138  41.377   3.308   5.745
 3868POPC   C1A50139  41.743   3.260   6.208
 3868POPC   D2A50140  41.942   3.322   6.620
 3868POPC   C3A50141  41.711   3.236   6.998
 3868POPC   C4A50142  41.673   3.625   7.228
 3868POPC   C1B50143  41.218   3.333   6.185
 3868POPC   C2B50144  41.379   3.236   6.594
 3868POPC   C3B50145  41.176   3.250   6.975
 3868POPC   C4B50146  41.320   3.292   7.370
 3869POPC   NC350147  36.762   3.199   5.387
 3869POPC   PO450148  36.861   2.523   5.474
 3869POPC   GL150149  36.850   2.810   5.809
 3869POPC   GL250150  37.118   3.087   5.769
 3869POPC   C1A50151  36.785   2.594   6.210
 3869POPC   D2A50152  36.631   2.350   6.551
 3869POPC   C3A50153  36.810   2.590   6.874
 3869POPC   C4A50154  36.664   2.769   7.253
 3869POPC   C1B50155  37.042   3.048   6.227
 3869POPC   C2B50156  37.161   2.947   6.653
 3869POPC   C3B50157  37.033   3.042   7.074
 3869POPC   C4B50158  37.057   2.945   7.546
 3870POPC   NC350159   4.498  22.496   5.585
 3870POPC   PO450160   4.171  23.023   5.534
 3870POPC   GL150161   4.287  22.902   5.897
 3870POPC   GL250162   4.379  23.252   5.961
 3870POPC   C1A50163   4.419  22.796   6.304
 3870POPC   D2A50164   4.278  22.945   6.714
 3870POPC   C3A50165   4.444  22.757   7.029
 3870POPC   C4A50166   4.425  22.712   7.464
 3870POPC   C1B50167   4.203  23.276   6.353
 3870POPC   C2B50168   3.821  23.210   6.602
 3870POPC   C3B50169   3.744  23.031   6.995
 3870POPC   C4B50170   4.032  22.934   7.260
 3871POPC   NC350171  15.397  36.497   5.313
 3871POPC   PO450172  15.232  37.085   5.579
 3871POPC   GL150173  15.015  36.972   5.915
 3871POPC   GL250174  14.819  37.290   5.865
 3871POPC   C1A50175  15.110  36.961   6.359
 3871POPC   D2A50176  15.239  37.161   6.741
 3871POPC   C3A50177  15.363  36.865   7.036
 3871POPC   C4A50178  15.142  36.493   7.133
 3871POPC   C1B50179  14.639  37.109   6.241
 3871POPC   C2B50180  14.723  36.950   6.680
 3871POPC   C3B50181  14.832  36.889   7.111
 3871POPC   C4B50182  15.097  37.193   7.341
 3872POPC   NC350183  11.440   3.935   5.440
 3872POPC   PO450184  11.040   3.363   5.345
 3872POPC   GL150185  11.116   3.623   5.730
 3872POPC   GL250186  11.112   3.369   5.949
 3872POPC   C1A50187  11.314   3.820   6.129
 3872POPC   D2A50188  11.567   3.631   6.502
 3872POPC   C3A50189  11.429   3.685   6.940
 3872POPC   C4A50190  11.429   3.794   7.368
 3872POPC   C1B50191  11.073   3.445   6.377
 3872POPC   C2B50192  11.076   3.836   6.593
 3872POPC   C3B50193  10.811   3.963   6.918
 3872POPC   C4B50194  10.925   3.842   7.316
 3873POPC   NC350195  25.690  29.590   5.163
 3873POPC   PO450196  26.255  29.832   5.531
 3873POPC   GL150197  26.013  29.943   5.890
 3873POPC   GL250198  25.669  30.077   5.850
 3873POPC   C1A50199  26.216  29.858   6.277
 3873POPC   D2A50200  26.295  30.063   6.634
 3873POPC   C3A50201  26.236  29.832   6.973
 3873POPC   C4A50202  26.347  29.962   7.364
 3873POPC   C1B50203  25.657  29.918   6.312
 3873POPC   C2B50204  25.789  29.974   6.761
 3873POPC   C3B50205  25.786  29.901   7.249
 3873POPC   C4B50206  25.643  30.009   7.692
 3874POPC   NC350207  41.173   7.569   5.255
 3874POPC   PO450208  41.831   7.524   5.333
 3874POPC   GL150209  41.617   7.399   5.775
 3874POPC   GL250210  41.268   7.190   5.724
 3874POPC   C1A50211  41.652   7.596   6.233
 3874POPC   D2A50212  41.536   7.793   6.643
 3874POPC   C3A50213  41.532   7.577   7.029
 3874POPC   C4A50214  41.619   7.172   7.161
 3874POPC   C1B50215  41.209   7.380   6.116
 3874POPC   C2B50216  41.347   7.315   6.536
 3874POPC   C3B50217  41.164   7.240   6.908
 3874POPC   C4B50218  41.145   7.261   7.333
 3875POPC   NC350219  24.630  36.952   5.334
 3875POPC   PO450220  24.001  36.959   5.215
 3875POPC   GL150221  24.191  36.964   5.674
 3875POPC   GL250222  24.500  36.813   5.817
 3875POPC   C1A50223  24.153  36.923   6.171
 3875POPC   D2A50224  24.113  36.994   6.649
 3875POPC   C3A50225  24.301  36.906   7.062
 3875POPC   C4A50226  24.558  37.195   7.234
 3875POPC   C1B50227  24.659  37.030   6.207
 3875POPC   C2B50228  24.831  36.999   6.630
 3875POPC   C3B50229  24.811  36.789   7.022
 3875POPC   C4B50230  24.997  36.534   7.321
 3876POPC   NC350231  43.326  36.412   5.559
 3876POPC   PO450232  43.944  36.140   5.350
 3876POPC   GL150233  43.737  36.153   5.743
 3876POPC   GL250234  43.805  36.513   5.732
 3876POPC   C1A50235  43.743  36.294   6.182
 3876POPC   D2A50236  43.911  36.129   6.545
 3876POPC   C3A50237  43.636  36.170   6.865
 3876POPC   C4A50238  43.626  36.123   7.274
 3876POPC   C1B50239  43.941  36.763   6.082
 3876POPC   C2B50240  44.069  36.613   6.492
 3876POPC   C3B50241  44.064  36.776   6.927
 3876POPC   C4B50242  43.998  36.541   7.318
 3877POPC   NC350243   0.443   0.680   5.544
 3877POPC   PO450244   0.212   0.045   5.585
 3877POPC   GL150245   0.419   0.087   5.951
 3877POPC   GL250246   0.669   0.328   5.839
 3877POPC   C1A50247   0.248   0.204   6.352
 3877POPC   D2A50248   0.277   0.538   6.656
 3877POPC   C3A50249   0.228   0.431   7.084
 3877POPC   C4A50250   0.107   0.687   7.425
 3877POPC   C1B50251   0.659   0.509   6.259
 3877POPC   C2B50252   0.717   0.259   6.642
 3877POPC   C3B50253   0.769   0.373   7.070
 3877POPC   C4B50254   0.918   0.444   7.486
 3878POPC   NC350255  11.245  32.562   5.469
 3878POPC   PO450256  11.700  32.022   5.488
 3878POPC   GL150257  11.390  32.194   5.825
 3878POPC   GL250258  11.462  32.510   5.951
 3878POPC   C1A50259  11.045  32.341   6.171
 3878POPC   D2A50260  10.930  32.168   6.578
 3878POPC   C3A50261  10.991  32.364   6.979
 3878POPC   C4A50262  11.127  32.345   7.403
 3878POPC   C1B50263  11.540  32.265   6.305
 3878POPC   C2B50264  11.412  32.285   6.678
 3878POPC   C3B50265  11.517  32.278   7.055
 3878POPC   C4B50266  11.506  32.631   7.189
 3879POPC   NC350267  25.762   6.850   5.483
 3879POPC   PO450268  25.142   6.680   5.256
 3879POPC   GL150269  25.286   6.791   5.691
 3879POPC   GL250270  25.506   6.550   5.861
 3879POPC   C1A50271  25.134   6.868   6.134
 3879POPC   D2A50272  25.018   6.698   6.546
 3879POPC   C3A50273  25.310   6.769   6.890
 3879POPC   C4A50274  25.053   6.827   7.277
 3879POPC   C1B50275  25.222   6.370   6.204
 3879POPC   C2B50276  25.324   6.297   6.664
 3879POPC   C3B50277  25.170   6.346   7.098
 3879POPC   C4B50278  25.395   6.524   7.492
 3880POPC   NC350279  42.306  31.257   5.369
 3880POPC   PO450280  42.669  31.817   5.158
 3880POPC   GL150281  42.486  31.729   5.633
 3880POPC   GL250282  42.593  31.389   5.779
 3880POPC   C1A50283  42.464  31.748   6.109
 3880POPC   D2A50284  42.512  31.505   6.509
 3880POPC   C3A50285  42.297  31.631   6.879
 3880POPC   C4A50286  42.328  31.728   7.315
 3880POPC   C1B50287  42.334  31.229   6.081
 3880POPC   C2B50288  42.139  31.119   6.453
 3880POPC   C3B50289  42.249  31.125   6.856
 3880POPC   C4B50290  42.256  31.192   7.273
 3881POPC   NC350291  27.648  20.586   5.484
 3881POPC   PO450292  27.101  21.052   5.473
 3881POPC   GL150293  27.362  20.854   5.806
 3881POPC   GL250294  27.770  20.815   5.901
 3881POPC   C1A50295  27.339  20.786   6.212
 3881POPC   D2A50296  27.142  20.648   6.530
 3881POPC   C3A50297  27.340  20.654   6.863
 3881POPC   C4A50298  27.603  20.925   7.078
 3881POPC   C1B50299  27.727  20.488   6.161
 3881POPC   C2B50300  27.744  20.649   6.560
 3881POPC   C3B50301  27.810  20.450   6.938
 3881POPC   C4B50302  27.579  20.261   7.227
 3882POPC   NC350303  31.444   5.804   5.411
 3882POPC   PO450304  31.995   5.627   5.787
 3882POPC   GL150305  31.593   5.847   5.916
 3882POPC   GL250306  31.335   6.116   5.834
 3882POPC   C1A50307  31.410   5.858   6.330
 3882POPC   D2A50308  31.699   5.865   6.683
 3882POPC   C3A50309  31.483   5.762   7.060
 3882POPC   C4A50310  31.150   5.567   7.236
 3882POPC   C1B50311  31.344   6.342   6.257
 3882POPC   C2B50312  31.333   6.229   6.709
 3882POPC   C3B50313  31.581   6.245   7.121
 3882POPC   C4B50314  31.810   5.954   7.432
 3883POPC   NC350315  23.354   3.207   5.570
 3883POPC   PO450316  23.094   2.578   5.266
 3883POPC   GL150317  22.971   2.624   5.715
 3883POPC   GL250318  22.626   2.592   5.761
 3883POPC   C1A50319  23.041   2.669   6.167
 3883POPC   D2A50320  22.935   2.506   6.579
 3883POPC   C3A50321  22.792   2.822   6.852
 3883POPC   C4A50322  22.880   3.055   7.211
 3883POPC   C1B50323  22.526   2.764   6.160
 3883POPC   C2B50324  22.407   2.641   6.559
 3883POPC   C3B50325  22.508   2.374   6.873
 3883POPC   C4B50326  22.518   2.598   7.234
 3884POPC   NC350327  31.197   9.421   5.583
 3884POPC   PO450328  30.793   8.907   5.485
 3884POPC   GL150329  30.578   8.972   5.845
 3884POPC   GL250330  30.889   9.026   5.991
 3884POPC   C1A50331  30.568   8.746   6.251
 3884POPC   D2A50332  30.647   8.905   6.628
 3884POPC   C3A50333  30.619   8.652   6.968
 3884POPC   C4A50334  30.633   8.872   7.327
 3884POPC   C1B50335  30.561   9.261   6.259
 3884POPC   C2B50336  30.588   9.406   6.663
 3884POPC   C3B50337  30.699   9.312   7.099
 3884POPC   C4B50338  30.650   9.328   7.587
 3885POPC   NC350339  35.216  11.845   5.397
 3885POPC   PO450340  35.750  12.284   5.507
 3885POPC   GL150341  35.575  12.126   5.886
 3885POPC   GL250342  35.463  11.762   5.843
 3885POPC   C1A50343  35.299  12.169   6.288
 3885POPC   D2A50344  35.077  12.103   6.720
 3885POPC   C3A50345  35.353  12.298   7.021
 3885POPC   C4A50346  35.481  12.270   7.432
 3885POPC   C1B50347  35.664  11.802   6.258
 3885POPC   C2B50348  35.586  11.983   6.690
 3885POPC   C3B50349  35.725  11.939   7.121
 3885POPC   C4B50350  35.723  11.839   7.573
 3886POPC   NC350351  42.606  36.484   5.441
 3886POPC   PO450352  42.159  37.004   5.337
 3886POPC   GL150353  42.271  36.960   5.771
 3886POPC   GL250354  42.503  37.219   5.837
 3886POPC   C1A50355  42.130  37.048   6.199
 3886POPC   D2A50356  42.315  36.888   6.577
 3886POPC   C3A50357  42.098  36.863   6.952
 3886POPC   C4A50358  42.144  36.824   7.385
 3886POPC   C1B50359  42.646  37.070   6.208
 3886POPC   C2B50360  42.753  37.191   6.606
 3886POPC   C3B50361  42.632  37.012   6.964
 3886POPC   C4B50362  42.424  37.209   7.239
 3887POPC   NC350363  40.208  30.185   5.493
 3887POPC   PO450364  40.248  30.907   5.377
 3887POPC   GL150365  40.013  30.787   5.731
 3887POPC   GL250366  40.321  30.590   5.783
 3887POPC   C1A50367  39.836  30.631   6.124
 3887POPC   D2A50368  40.065  30.439   6.462
 3887POPC   C3A50369  39.974  30.629   6.824
 3887POPC   C4A50370  39.852  30.618   7.219
 3887POPC   C1B50371  40.321  30.790   6.152
 3887POPC   C2B50372  40.167  30.994   6.485
 3887POPC   C3B50373  40.346  30.997   6.853
 3887POPC   C4B50374  40.379  30.698   7.183
 3888POPC   NC350375  43.665  26.146   5.536
 3888POPC   PO450376  44.066  26.571   5.330
 3888POPC   GL150377  43.992  26.275   5.870
 3888POPC   GL250378  44.274  26.028   5.941
 3888POPC   C1A50379  44.111  26.276   6.352
 3888POPC   D2A50380  44.043  26.551   6.711
 3888POPC   C3A50381  44.013  26.376   7.105
 3888POPC   C4A50382  43.642  26.298   7.302
 3888POPC   C1B50383  44.087  25.776   6.200
 3888POPC   C2B50384  43.859  25.800   6.551
 3888POPC   C3B50385  43.827  25.943   6.939
 3888POPC   C4B50386  44.204  25.814   7.150
 3889POPC   NC350387  32.399   1.716   4.994
 3889POPC   PO450388  32.050   2.038   5.507
 3889POPC   GL150389  32.230   2.130   5.937
 3889POPC   GL250390  32.479   1.862   5.888
 3889POPC   C1A50391  32.281   2.002   6.398
 3889POPC   D2A50392  32.509   1.802   6.760
 3889POPC   C3A50393  32.364   1.886   7.193
 3889POPC   C4A50394  32.500   2.129   7.538
 3889POPC   C1B50395  32.091   1.627   6.055
 3889POPC   C2B50396  31.921   1.571   6.467
 3889POPC   C3B50397  31.994   1.777   6.845
 3889POPC   C4B50398  31.776   1.904   7.185
 3890POPC   NC350399   4.716  16.002   5.647
 3890POPC   PO450400   4.070  15.863   5.508
 3890POPC   GL150401   4.241  15.942   5.870
 3890POPC   GL250402   3.970  16.090   5.983
 3890POPC   C1A50403   4.361  16.056   6.291
 3890POPC   D2A50404   4.436  15.928   6.685
 3890POPC   C3A50405   4.296  16.182   6.994
 3890POPC   C4A50406   4.071  16.039   7.346
 3890POPC   C1B50407   3.954  15.714   6.244
 3890POPC   C2B50408   4.012  15.604   6.674
 3890POPC   C3B50409   3.916  15.600   7.110
 3890POPC   C4B50410   4.065  15.556   7.533
 3891POPC   NC350411  35.426  24.156   5.288
 3891POPC   PO450412  35.983  23.635   5.353
 3891POPC   GL150413  36.037  23.755   5.776
 3891POPC   GL250414  35.759  23.947   5.821
 3891POPC   C1A50415  36.172  24.041   6.107
 3891POPC   D2A50416  36.344  24.038   6.528
 3891POPC   C3A50417  36.078  23.867   6.830
 3891POPC   C4A50418  36.124  23.584   7.129
 3891POPC   C1B50419  35.818  23.670   6.230
 3891POPC   C2B50420  35.635  23.679   6.630
 3891POPC   C3B50421  35.610  23.551   7.060
 3891POPC   C4B50422  35.808  23.222   7.249
 3892POPC   NC350423  22.049  30.781   5.382
 3892POPC   PO450424  22.622  30.352   5.527
 3892POPC   GL150425  22.320  30.634   5.786
 3892POPC   GL250426  21.927  30.608   5.824
 3892POPC   C1A50427  22.232  30.917   6.154
 3892POPC   D2A50428  22.465  30.896   6.567
 3892POPC   C3A50429  22.391  30.554   6.863
 3892POPC   C4A50430  22.310  30.744   7.230
 3892POPC   C1B50431  21.876  30.492   6.214
 3892POPC   C2B50432  21.986  30.701   6.565
 3892POPC   C3B50433  21.870  30.627   6.959
 3892POPC   C4B50434  21.874  30.487   7.354
 3893POPC   NC350435  29.370  30.291   5.456
 3893POPC   PO450436  29.070  29.628   5.462
 3893POPC   GL150437  29.258  29.878   5.767
 3893POPC   GL250438  28.975  30.058   5.839
 3893POPC   C1A50439  29.307  29.886   6.211
 3893POPC   D2A50440  29.092  29.957   6.592
 3893POPC   C3A50441  29.162  29.739   6.953
 3893POPC   C4A50442  29.236  30.001   7.283
 3893POPC   C1B50443  28.744  29.838   6.209
 3893POPC   C2B50444  28.658  29.744   6.674
 3893POPC   C3B50445  28.788  30.084   7.000
 3893POPC   C4B50446  28.706  30.053   7.447
 3894POPC   NC350447  40.163  21.962   5.324
 3894POPC   PO450448  39.622  22.298   5.296
 3894POPC   GL150449  39.858  22.161   5.687
 3894POPC   GL250450  40.134  22.376   5.640
 3894POPC   C1A50451  40.086  21.932   6.069
 3894POPC   D2A50452  40.205  21.856   6.556
 3894POPC   C3A50453  40.071  22.053   6.971
 3894POPC   C4A50454  39.849  22.222   7.353
 3894POPC   C1B50455  40.251  22.419   6.054
 3894POPC   C2B50456  40.211  22.511   6.483
 3894POPC   C3B50457  40.364  22.507   6.890
 3894POPC   C4B50458  40.292  22.415   7.292
 3895POPC   NC350459   8.032  40.817   5.440
 3895POPC   PO450460   8.584  40.945   5.744
 3895POPC   GL150461   8.291  40.664   5.976
 3895POPC   GL250462   7.963  40.565   5.854
 3895POPC   C1A50463   8.253  40.724   6.438
 3895POPC   D2A50464   8.433  41.007   6.748
 3895POPC   C3A50465   8.174  41.088   7.116
 3895POPC   C4A50466   8.150  40.874   7.501
 3895POPC   C1B50467   7.865  40.371   6.218
 3895POPC   C2B50468   7.842  40.419   6.650
 3895POPC   C3B50469   7.829  40.185   7.025
 3895POPC   C4B50470   8.051  40.377   7.388
 3896POPC   NC350471   6.226  12.825   5.268
 3896POPC   PO450472   6.831  12.949   5.410
 3896POPC   GL150473   6.615  12.980   5.815
 3896POPC   GL250474   6.265  13.069   5.823
 3896POPC   C1A50475   6.751  12.823   6.214
 3896POPC   D2A50476   6.980  12.698   6.567
 3896POPC   C3A50477   6.741  12.932   6.827
 3896POPC   C4A50478   6.824  13.162   7.177
 3896POPC   C1B50479   6.225  12.748   6.170
 3896POPC   C2B50480   6.330  12.676   6.617
 3896POPC   C3B50481   6.358  12.711   7.085
 3896POPC   C4B50482   6.186  13.005   7.386
 3897POPC   NC350483  16.415  15.796   5.631
 3897POPC   PO450484  16.897  16.225   5.453
 3897POPC   GL150485  16.773  16.122   5.861
 3897POPC   GL250486  16.719  16.479   5.900
 3897POPC   C1A50487  16.701  15.951   6.292
 3897POPC   D2A50488  16.578  15.962   6.718
 3897POPC   C3A50489  16.691  15.757   7.083
 3897POPC   C4A50490  16.870  15.938   7.465
 3897POPC   C1B50491  16.948  16.419   6.259
 3897POPC   C2B50492  17.026  16.251   6.635
 3897POPC   C3B50493  16.878  16.252   7.038
 3897POPC   C4B50494  17.028  16.469   7.374
 3898POPC   NC350495  13.486  38.381   5.295
 3898POPC   PO450496  13.894  38.870   5.445
 3898POPC   GL150497  13.556  38.623   5.753
 3898POPC   GL250498  13.286  38.328   5.752
 3898POPC   C1A50499  13.643  38.363   6.136
 3898POPC   D2A50500  13.861  38.522   6.484
 3898POPC   C3A50501  13.667  38.436   6.838
 3898POPC   C4A50502  13.600  38.350   7.236
 3898POPC   C1B50503  13.175  38.112   6.136
 3898POPC   C2B50504  13.351  38.126   6.527
 3898POPC   C3B50505  13.371  38.020   6.938
 3898POPC   C4B50506  13.186  38.075   7.380
 3899POPC   NC350507   8.125   9.197   5.450
 3899POPC   PO450508   7.866   8.551   5.481
 3899POPC   GL150509   8.140   8.788   5.770
 3899POPC   GL250510   7.940   9.084   5.913
 3899POPC   C1A50511   8.282   8.825   6.207
 3899POPC   D2A50512   8.010   9.072   6.500
 3899POPC   C3A50513   8.146   9.133   6.944
 3899POPC   C4A50514   8.353   9.353   7.299
 3899POPC   C1B50515   7.801   8.692   6.154
 3899POPC   C2B50516   7.929   8.538   6.538
 3899POPC   C3B50517   7.745   8.543   6.939
 3899POPC   C4B50518   7.951   8.734   7.261
 3900POPC   NC350519  21.940   4.527   5.429
 3900POPC   PO450520  22.506   4.145   5.626
 3900POPC   GL150521  22.294   4.165   5.983
 3900POPC   GL250522  22.024   4.375   5.911
 3900POPC   C1A50523  21.996   3.987   6.275
 3900POPC   D2A50524  22.007   3.982   6.699
 3900POPC   C3A50525  22.360   4.166   6.818
 3900POPC   C4A50526  22.455   4.074   7.221
 3900POPC   C1B50527  22.126   4.536   6.314
 3900POPC   C2B50528  21.949   4.509   6.723
 3900POPC   C3B50529  21.946   4.314   7.109
 3900POPC   C4B50530  22.259   4.537   7.295
 3901POPC   NC350531  11.768  40.173   5.398
 3901POPC   PO450532  11.812  39.686   5.806
 3901POPC   GL150533  12.019  40.047   5.912
 3901POPC   GL250534  11.863  40.368   5.887
 3901POPC   C1A50535  12.273  40.097   6.270
 3901POPC   D2A50536  12.368  39.982   6.696
 3901POPC   C3A50537  12.050  39.820   6.914
 3901POPC   C4A50538  12.024  39.660   7.308
 3901POPC   C1B50539  11.727  40.296   6.285
 3901POPC   C2B50540  11.924  40.251   6.647
 3901POPC   C3B50541  12.094  40.381   7.019
 3901POPC   C4B50542  11.888  40.144   7.304
 3902POPC   NC350543   9.923  37.188   5.656
 3902POPC   PO450544   9.907  37.733   5.233
 3902POPC   GL150545   9.697  37.716   5.641
 3902POPC   GL250546   9.970  37.890   5.799
 3902POPC   C1A50547   9.457  37.660   6.063
 3902POPC   D2A50548   9.539  37.497   6.509
 3902POPC   C3A50549   9.750  37.745   6.799
 3902POPC   C4A50550   9.808  37.932   7.196
 3902POPC   C1B50551   9.948  37.621   6.172
 3902POPC   C2B50552  10.064  37.425   6.541
 3902POPC   C3B50553  10.159  37.480   6.980
 3902POPC   C4B50554  10.064  37.552   7.437
 3903POPC   NC350555   5.050  10.013   5.666
 3903POPC   PO450556   5.165  10.669   5.454
 3903POPC   GL150557   5.154  10.491   5.841
 3903POPC   GL250558   4.795  10.429   5.766
 3903POPC   C1A50559   5.139  10.681   6.264
 3903POPC   D2A50560   4.900  10.644   6.662
 3903POPC   C3A50561   5.032  10.269   6.853
 3903POPC   C4A50562   5.375  10.204   7.172
 3903POPC   C1B50563   4.709  10.381   6.213
 3903POPC   C2B50564   4.525  10.251   6.602
 3903POPC   C3B50565   4.555  10.423   7.019
 3903POPC   C4B50566   4.892  10.540   7.245
 3904POPC   NC350567  41.725  13.391   5.423
 3904POPC   PO450568  41.077  13.535   5.459
 3904POPC   GL150569  41.398  13.562   5.818
 3904POPC   GL250570  41.725  13.731   5.846
 3904POPC   C1A50571  41.467  13.613   6.270
 3904POPC   D2A50572  41.277  13.466   6.641
 3904POPC   C3A50573  41.499  13.628   6.997
 3904POPC   C4A50574  41.532  13.468   7.422
 3904POPC   C1B50575  41.966  13.759   6.249
 3904POPC   C2B50576  41.934  13.711   6.710
 3904POPC   C3B50577  41.997  13.725   7.150
 3904POPC   C4B50578  41.929  13.735   7.627
 3905POPC   NC350579  33.407  36.337   5.412
 3905POPC   PO450580  34.011  36.078   5.264
 3905POPC   GL150581  33.724  36.078   5.728
 3905POPC   GL250582  33.736  36.406   5.811
 3905POPC   C1A50583  33.783  36.104   6.259
 3905POPC   D2A50584  33.735  36.121   6.720
 3905POPC   C3A50585  33.915  36.103   7.153
 3905POPC   C4A50586  33.930  35.700   7.442
 3905POPC   C1B50587  33.394  36.383   6.092
 3905POPC   C2B50588  33.308  36.389   6.536
 3905POPC   C3B50589  33.387  36.390   6.971
 3905POPC   C4B50590  33.675  36.575   7.237
 3906POPC   NC350591  24.972  36.232   5.605
 3906POPC   PO450592  24.424  36.068   5.399
 3906POPC   GL150593  24.509  36.017   5.805
 3906POPC   GL250594  24.776  35.824   5.858
 3906POPC   C1A50595  24.593  36.220   6.184
 3906POPC   D2A50596  24.739  36.506   6.488
 3906POPC   C3A50597  24.459  36.467   6.830
 3906POPC   C4A50598  24.510  36.329   7.249
 3906POPC   C1B50599  24.519  35.706   6.230
 3906POPC   C2B50600  24.499  35.701   6.674
 3906POPC   C3B50601  24.655  35.736   7.049
 3906POPC   C4B50602  24.551  35.871   7.453
 3907POPC   NC350603  27.087  14.448   5.593
 3907POPC   PO450604  26.484  14.555   5.306
 3907POPC   GL150605  26.641  14.612   5.758
 3907POPC   GL250606  26.343  14.629   5.873
 3907POPC   C1A50607  26.852  14.446   6.204
 3907POPC   D2A50608  27.048  14.228   6.522
 3907POPC   C3A50609  26.974  14.352   6.914
 3907POPC   C4A50610  27.015  14.033   7.178
 3907POPC   C1B50611  26.345  14.428   6.234
 3907POPC   C2B50612  26.527  14.245   6.608
 3907POPC   C3B50613  26.500  14.141   7.042
 3907POPC   C4B50614  26.562  14.528   7.228
 3908POPC   NC350615  26.626  15.135   5.243
 3908POPC   PO450616  27.253  14.807   5.321
 3908POPC   GL150617  26.932  15.093   5.665
 3908POPC   GL250618  26.555  15.117   5.762
 3908POPC   C1A50619  26.887  15.342   6.114
 3908POPC   D2A50620  26.597  15.273   6.522
 3908POPC   C3A50621  26.728  15.324   6.965
 3908POPC   C4A50622  27.050  15.280   7.258
 3908POPC   C1B50623  26.657  14.899   6.181
 3908POPC   C2B50624  26.803  14.765   6.623
 3908POPC   C3B50625  26.938  14.836   7.068
 3908POPC   C4B50626  26.810  14.887   7.538
 3909POPC   NC350627  17.173  23.065   5.597
 3909POPC   PO450628  16.544  22.798   5.438
 3909POPC   GL150629  16.690  22.966   5.802
 3909POPC   GL250630  16.931  22.667   5.817
 3909POPC   C1A50631  16.471  23.056   6.222
 3909POPC   D2A50632  16.266  22.742   6.519
 3909POPC   C3A50633  16.415  22.693   6.961
 3909POPC   C4A50634  16.541  22.855   7.366
 3909POPC   C1B50635  16.964  22.890   6.225
 3909POPC   C2B50636  16.769  22.857   6.621
 3909POPC   C3B50637  16.789  23.085   6.989
 3909POPC   C4B50638  17.065  23.081   7.322
 3910POPC   NC350639   6.208   5.906   5.568
 3910POPC   PO450640   5.559   5.959   5.414
 3910POPC   GL150641   5.725   5.910   5.849
 3910POPC   GL250642   5.552   5.634   5.994
 3910POPC   C1A50643   5.928   6.065   6.262
 3910POPC   D2A50644   5.974   6.063   6.737
 3910POPC   C3A50645   6.155   5.852   7.140
 3910POPC   C4A50646   6.066   6.018   7.586
 3910POPC   C1B50647   5.858   5.563   6.341
 3910POPC   C2B50648   5.840   5.581   6.783
 3910POPC   C3B50649   5.654   5.860   7.100
 3910POPC   C4B50650   5.625   5.742   7.535
 3911POPC   NC350651  17.073  24.659   5.410
 3911POPC   PO450652  16.550  24.327   5.243
 3911POPC   GL150653  16.760  24.230   5.638
 3911POPC   GL250654  16.462  24.199   5.872
 3911POPC   C1A50655  16.929  24.381   6.056
 3911POPC   D2A50656  16.910  24.647   6.447
 3911POPC   C3A50657  16.784  24.434   6.839
 3911POPC   C4A50658  16.922  24.626   7.198
 3911POPC   C1B50659  16.445  24.398   6.320
 3911POPC   C2B50660  16.374  24.702   6.688
 3911POPC   C3B50661  16.408  24.665   7.156
 3911POPC   C4B50662  16.569  24.315   7.415
 3912POPC   NC350663   6.455  26.187   5.209
 3912POPC   PO450664   6.944  26.218   5.682
 3912POPC   GL150665   6.785  25.942   5.978
 3912POPC   GL250666   6.425  25.825   5.991
 3912POPC   C1A50667   6.689  26.204   6.323
 3912POPC   D2A50668   6.357  26.183   6.554
 3912POPC   C3A50669   6.510  26.166   6.941
 3912POPC   C4A50670   6.282  26.165   7.278
 3912POPC   C1B50671   6.566  25.718   6.388
 3912POPC   C2B50672   6.923  25.674   6.624
 3912POPC   C3B50673   6.828  25.759   7.036
 3912POPC   C4B50674   6.445  25.677   7.225
 3913POPC   NC350675   6.903  14.234   5.536
 3913POPC   PO450676   6.498  14.735   5.577
 3913POPC   GL150677   6.692  14.545   5.927
 3913POPC   GL250678   6.471  14.263   5.864
 3913POPC   C1A50679   7.014  14.632   6.272
 3913POPC   D2A50680   7.030  14.489   6.721
 3913POPC   C3A50681   6.856  14.670   7.140
 3913POPC   C4A50682   7.035  14.511   7.546
 3913POPC   C1B50683   6.255  14.312   6.269
 3913POPC   C2B50684   6.192  14.372   6.692
 3913POPC   C3B50685   6.580  14.289   6.896
 3913POPC   C4B50686   6.667  14.224   7.325
 3914POPC   NC350687  31.232  34.454   5.522
 3914POPC   PO450688  31.851  34.477   5.469
 3914POPC   GL150689  31.720  34.718   5.819
 3914POPC   GL250690  31.455  34.522   5.980
 3914POPC   C1A50691  31.721  34.870   6.232
 3914POPC   D2A50692  31.625  34.538   6.518
 3914POPC   C3A50693  31.591  34.697   6.912
 3914POPC   C4A50694  31.644  34.593   7.295
 3914POPC   C1B50695  31.212  34.274   6.263
 3914POPC   C2B50696  31.248  34.136   6.702
 3914POPC   C3B50697  31.186  34.385   7.101
 3914POPC   C4B50698  31.091  34.332   7.563
 3915POPC   NC350699  23.399  18.023   5.545
 3915POPC   PO450700  23.986  18.434   5.512
 3915POPC   GL150701  23.720  18.285   5.865
 3915POPC   GL250702  23.529  18.546   5.980
 3915POPC   C1A50703  23.627  18.119   6.302
 3915POPC   D2A50704  23.698  18.257   6.748
 3915POPC   C3A50705  23.581  18.320   7.165
 3915POPC   C4A50706  23.597  18.144   7.578
 3915POPC   C1B50707  23.921  18.560   6.245
 3915POPC   C2B50708  24.095  18.585   6.676
 3915POPC   C3B50709  24.099  18.457   7.109
 3915POPC   C4B50710  23.879  18.575   7.493
 3916POPC   NC350711   3.204  40.921   5.350
 3916POPC   PO450712   2.673  41.327   5.302
 3916POPC   GL150713   2.685  40.947   5.671
 3916POPC   GL250714   3.001  40.792   5.781
 3916POPC   C1A50715   2.626  40.738   6.117
 3916POPC   D2A50716   2.769  40.660   6.572
 3916POPC   C3A50717   2.596  40.844   6.944
 3916POPC   C4A50718   2.386  40.793   7.297
 3916POPC   C1B50719   3.143  40.723   6.215
 3916POPC   C2B50720   3.286  40.886   6.635
 3916POPC   C3B50721   3.084  40.742   6.985
 3916POPC   C4B50722   2.942  40.886   7.361
 3917POPC   NC350723  10.795  33.958   5.574
 3917POPC   PO450724  10.489  33.444   5.381
 3917POPC   GL150725  10.352  33.603   5.798
 3917POPC   GL250726  10.325  33.964   5.840
 3917POPC   C1A50727  10.383  33.450   6.231
 3917POPC   D2A50728  10.574  33.667   6.580
 3917POPC   C3A50729  10.647  33.600   7.010
 3917POPC   C4A50730  10.925  33.831   7.269
 3917POPC   C1B50731  10.253  33.951   6.271
 3917POPC   C2B50732  10.092  33.788   6.646
 3917POPC   C3B50733  10.260  33.954   6.992
 3917POPC   C4B50734  10.421  33.908   7.368
 3918POPC   NC350735  10.832  11.912   5.496
 3918POPC   PO450736  11.425  12.078   5.206
 3918POPC   GL150737  11.383  12.000   5.646
 3918POPC   GL250738  11.178  12.252   5.774
 3918POPC   C1A50739  11.513  12.022   6.099
 3918POPC   D2A50740  11.445  12.220   6.508
 3918POPC   C3A50741  11.300  11.938   6.857
 3918POPC   C4A50742  11.492  11.738   7.213
 3918POPC   C1B50743  11.029  12.127   6.177
 3918POPC   C2B50744  10.931  12.182   6.604
 3918POPC   C3B50745  10.916  12.264   7.036
 3918POPC   C4B50746  11.029  11.936   7.304
 3919POPC   NC350747   2.974  18.452   5.303
 3919POPC   PO450748   2.509  18.076   5.453
 3919POPC   GL150749   2.671  18.294   5.792
 3919POPC   GL250750   2.970  18.112   5.842
 3919POPC   C1A50751   2.661  18.248   6.238
 3919POPC   D2A50752   2.552  18.298   6.651
 3919POPC   C3A50753   2.874  18.410   6.940
 3919POPC   C4A50754   2.752  18.257   7.337
 3919POPC   C1B50755   2.965  17.839   6.232
 3919POPC   C2B50756   3.034  17.941   6.692
 3919POPC   C3B50757   3.067  17.883   7.153
 3919POPC   C4B50758   3.030  17.938   7.634
 3920POPC   NC350759  21.073  29.266   5.214
 3920POPC   PO450760  21.471  28.799   5.504
 3920POPC   GL150761  21.305  29.010   5.889
 3920POPC   GL250762  21.133  29.325   5.747
 3920POPC   C1A50763  21.450  29.073   6.328
 3920POPC   D2A50764  21.687  29.247   6.687
 3920POPC   C3A50765  21.535  29.029   7.043
 3920POPC   C4A50766  21.093  28.969   7.187
 3920POPC   C1B50767  21.186  29.477   6.181
 3920POPC   C2B50768  21.130  29.350   6.638
 3920POPC   C3B50769  21.249  29.444   7.078
 3920POPC   C4B50770  21.234  29.493   7.538
 3921POPC   NC350771  34.496  16.472   5.426
 3921POPC   PO450772  34.869  17.060   5.456
 3921POPC   GL150773  34.684  16.808   5.793
 3921POPC   GL250774  34.981  16.885   5.942
 3921POPC   C1A50775  34.495  16.656   6.205
 3921POPC   D2A50776  34.271  16.842   6.593
 3921POPC   C3A50777  34.488  16.824   7.001
 3921POPC   C4A50778  34.708  16.508   7.239
 3921POPC   C1B50779  34.956  16.840   6.310
 3921POPC   C2B50780  34.803  16.692   6.621
 3921POPC   C3B50781  35.003  16.791   6.937
 3921POPC   C4B50782  35.059  16.898   7.328
 3922POPC   NC350783  42.082  11.751   5.414
 3922POPC   PO450784  42.579  12.234   5.282
 3922POPC   GL150785  42.336  12.104   5.718
 3922POPC   GL250786  42.079  12.315   5.853
 3922POPC   C1A50787  42.226  11.972   6.193
 3922POPC   D2A50788  42.420  12.073   6.601
 3922POPC   C3A50789  42.289  11.892   6.995
 3922POPC   C4A50790  42.304  11.714   7.425
 3922POPC   C1B50791  42.343  12.457   6.205
 3922POPC   C2B50792  42.316  12.590   6.623
 3922POPC   C3B50793  42.432  12.402   7.000
 3922POPC   C4B50794  42.259  12.261   7.394
 3923POPC   NC350795   1.877  27.044   5.410
 3923POPC   PO450796   2.310  26.522   5.486
 3923POPC   GL150797   2.035  26.627   5.836
 3923POPC   GL250798   2.108  26.951   5.948
 3923POPC   C1A50799   1.800  26.626   6.253
 3923POPC   D2A50800   1.693  26.450   6.661
 3923POPC   C3A50801   1.789  26.677   6.999
 3923POPC   C4A50802   1.505  26.795   7.299
 3923POPC   C1B50803   2.312  26.742   6.284
 3923POPC   C2B50804   2.209  26.619   6.709
 3923POPC   C3B50805   2.293  26.584   7.144
 3923POPC   C4B50806   2.076  26.860   7.435
 3924POPC   NC350807  13.819  22.000   5.126
 3924POPC   PO450808  13.671  21.788   5.736
 3924POPC   GL150809  13.637  22.209   5.886
 3924POPC   GL250810  14.001  22.294   5.933
 3924POPC   C1A50811  13.346  22.394   6.203
 3924POPC   D2A50812  13.389  22.443   6.652
 3924POPC   C3A50813  13.336  22.096   6.932
 3924POPC   C4A50814  13.620  21.884   7.248
 3924POPC   C1B50815  13.835  22.286   6.367
 3924POPC   C2B50816  13.829  22.146   6.803
 3924POPC   C3B50817  13.713  22.384   7.172
 3924POPC   C4B50818  13.985  22.506   7.549
 3925POPC   NC350819   7.180  10.234   5.476
 3925POPC   PO450820   7.629  10.522   5.135
 3925POPC   GL150821   7.605  10.486   5.639
 3925POPC   GL250822   7.307  10.663   5.779
 3925POPC   C1A50823   7.658  10.428   6.115
 3925POPC   D2A50824   7.391  10.308   6.478
 3925POPC   C3A50825   7.412  10.426   6.900
 3925POPC   C4A50826   7.645  10.450   7.262
 3925POPC   C1B50827   7.287  10.755   6.223
 3925POPC   C2B50828   7.634  10.765   6.561
 3925POPC   C3B50829   7.593  10.906   6.996
 3925POPC   C4B50830   7.297  10.844   7.386
 3926POPC   NC350831   6.438   9.222   5.593
 3926POPC   PO450832   6.896   8.795   5.501
 3926POPC   GL150833   6.872   8.666   5.886
 3926POPC   GL250834   6.504   8.622   5.822
 3926POPC   C1A50835   7.013   8.963   6.219
 3926POPC   D2A50836   6.834   8.958   6.616
 3926POPC   C3A50837   6.780   9.213   6.927
 3926POPC   C4A50838   6.512   9.214   7.327
 3926POPC   C1B50839   6.485   8.873   6.204
 3926POPC   C2B50840   6.330   9.016   6.608
 3926POPC   C3B50841   6.468   8.817   6.978
 3926POPC   C4B50842   6.342   8.721   7.364
 3927POPC   NC350843  21.673  43.122   5.456
 3927POPC   PO450844  22.316  42.898   5.542
 3927POPC   GL150845  22.156  43.176   5.883
 3927POPC   GL250846  21.923  43.436   5.795
 3927POPC   C1A50847  22.197  43.406   6.288
 3927POPC   D2A50848  22.465  43.510   6.630
 3927POPC   C3A50849  22.322  43.236   6.957
 3927POPC   C4A50850  22.382  43.016   7.315
 3927POPC   C1B50851  21.709  43.282   6.185
 3927POPC   C2B50852  21.602  43.160   6.600
 3927POPC   C3B50853  21.767  43.198   7.009
 3927POPC   C4B50854  21.896  43.019   7.387
 3928POPC   NC350855   4.561  24.333   5.503
 3928POPC   PO450856   4.089  24.735   5.486
 3928POPC   GL150857   4.265  24.606   5.847
 3928POPC   GL250858   4.091  24.302   5.870
 3928POPC   C1A50859   4.454  24.751   6.225
 3928POPC   D2A50860   4.257  24.612   6.579
 3928POPC   C3A50861   4.268  24.787   6.978
 3928POPC   C4A50862   4.204  24.630   7.391
 3928POPC   C1B50863   4.435  24.235   6.159
 3928POPC   C2B50864   4.482  24.140   6.583
 3928POPC   C3B50865   4.464  24.329   6.975
 3928POPC   C4B50866   4.612  24.219   7.366
 3929POPC   NC350867   8.788  13.093   5.492
 3929POPC   PO450868   9.139  12.469   5.541
 3929POPC   GL150869   9.050  12.750   5.906
 3929POPC   GL250870   8.819  13.020   5.993
 3929POPC   C1A50871   9.026  12.674   6.337
 3929POPC   D2A50872   8.873  12.962   6.651
 3929POPC   C3A50873   8.914  12.821   7.078
 3929POPC   C4A50874   9.125  12.721   7.468
 3929POPC   C1B50875   9.217  13.158   6.230
 3929POPC   C2B50876   9.385  13.320   6.631
 3929POPC   C3B50877   9.214  13.242   7.014
 3929POPC   C4B50878   8.835  13.351   7.190
 3930POPC   NC350879  12.465  33.839   5.056
 3930POPC   PO450880  11.980  33.793   5.555
 3930POPC   GL150881  12.132  33.850   5.945
 3930POPC   GL250882  12.104  33.477   5.992
 3930POPC   C1A50883  12.019  33.867   6.354
 3930POPC   D2A50884  11.953  33.499   6.602
 3930POPC   C3A50885  11.805  33.637   6.968
 3930POPC   C4A50886  11.952  33.697   7.375
 3930POPC   C1B50887  12.404  33.518   6.287
 3930POPC   C2B50888  12.405  33.725   6.687
 3930POPC   C3B50889  12.399  33.766   7.109
 3930POPC   C4B50890  12.561  34.089   7.370
 3931POPC   NC350891   1.035  41.212   5.514
 3931POPC   PO450892   1.196  40.573   5.299
 3931POPC   GL150893   1.313  40.824   5.749
 3931POPC   GL250894   1.585  40.772   6.005
 3931POPC   C1A50895   1.099  40.881   6.203
 3931POPC   D2A50896   1.102  40.749   6.634
 3931POPC   C3A50897   1.064  40.948   7.041
 3931POPC   C4A50898   1.076  40.693   7.402
 3931POPC   C1B50899   1.468  41.209   6.219
 3931POPC   C2B50900   1.473  41.409   6.638
 3931POPC   C3B50901   1.545  41.231   7.048
 3931POPC   C4B50902   1.432  41.050   7.479
 3932POPC   NC350903  43.458  17.947   5.409
 3932POPC   PO450904  42.950  18.536   5.428
 3932POPC   GL150905  43.047  18.179   5.697
 3932POPC   GL250906  43.196  18.380   5.921
 3932POPC   C1A50907  42.953  17.995   6.130
 3932POPC   D2A50908  43.083  18.250   6.505
 3932POPC   C3A50909  43.066  18.219   6.980
 3932POPC   C4A50910  42.909  18.169   7.409
 3932POPC   C1B50911  43.403  18.605   6.237
 3932POPC   C2B50912  43.568  18.521   6.645
 3932POPC   C3B50913  43.394  18.624   7.019
 3932POPC   C4B50914  43.382  18.409   7.395
 3933POPC   NC350915  28.211  16.260   5.685
 3933POPC   PO450916  28.213  15.777   5.157
 3933POPC   GL150917  28.272  15.761   5.635
 3933POPC   GL250918  28.568  15.871   5.780
 3933POPC   C1A50919  28.226  15.796   6.149
 3933POPC   D2A50920  28.272  16.165   6.489
 3933POPC   C3A50921  28.172  16.124   6.940
 3933POPC   C4A50922  28.222  15.807   7.262
 3933POPC   C1B50923  28.697  16.031   6.208
 3933POPC   C2B50924  28.823  15.946   6.643
 3933POPC   C3B50925  28.694  16.098   7.042
 3933POPC   C4B50926  28.701  15.973   7.468
 3934POPC   NC350927  19.614  42.859   5.504
 3934POPC   PO450928  20.169  43.296   5.562
 3934POPC   GL150929  20.042  42.977   5.815
 3934POPC   GL250930  20.373  42.870   5.861
 3934POPC   C1A50931  19.807  43.048   6.192
 3934POPC   D2A50932  19.914  43.158   6.611
 3934POPC   C3A50933  19.608  42.995   6.872
 3934POPC   C4A50934  19.564  43.110   7.273
 3934POPC   C1B50935  20.261  42.788   6.298
 3934POPC   C2B50936  20.293  42.851   6.770
 3934POPC   C3B50937  20.066  43.029   7.142
 3934POPC   C4B50938  19.906  42.828   7.534
 3935POPC   NC350939   2.058  44.315   5.436
 3935POPC   PO450940   1.716  43.763   5.412
 3935POPC   GL150941   1.888  43.953   5.759
 3935POPC   GL250942   2.233  43.838   5.743
 3935POPC   C1A50943   1.895  44.002   6.181
 3935POPC   D2A50944   1.664  43.937   6.526
 3935POPC   C3A50945   1.619  44.185   6.879
 3935POPC   C4A50946   1.801  44.165   7.253
 3935POPC   C1B50947   2.404  44.022   6.123
 3935POPC   C2B50948   2.271  43.978   6.549
 3935POPC   C3B50949   2.042  43.829   6.896
 3935POPC   C4B50950   2.203  43.865   7.290
 3936POPC   NC350951  13.708  43.418   5.437
 3936POPC   PO450952  14.069  42.819   5.427
 3936POPC   GL150953  13.799  42.864   5.817
 3936POPC   GL250954  13.567  43.157   5.913
 3936POPC   C1A50955  13.907  42.993   6.239
 3936POPC   D2A50956  13.700  43.181   6.575
 3936POPC   C3A50957  13.801  43.062   6.985
 3936POPC   C4A50958  13.503  42.753   7.165
 3936POPC   C1B50959  13.302  43.365   6.290
 3936POPC   C2B50960  13.275  43.404   6.768
 3936POPC   C3B50961  13.411  43.330   7.194
 3936POPC   C4B50962  13.455  43.500   7.619
 3937POPC   NC350963  20.074  35.654   5.766
 3937POPC   PO450964  19.845  36.138   5.355
 3937POPC   GL150965  19.670  35.938   5.734
 3937POPC   GL250966  19.846  36.169   5.927
 3937POPC   C1A50967  19.593  35.813   6.189
 3937POPC   D2A50968  19.849  35.773   6.584
 3937POPC   C3A50969  19.826  36.131   6.855
 3937POPC   C4A50970  19.856  36.162   7.293
 3937POPC   C1B50971  20.071  36.388   6.257
 3937POPC   C2B50972  20.105  36.603   6.675
 3937POPC   C3B50973  20.229  36.406   7.060
 3937POPC   C4B50974  20.143  36.532   7.531
 3938POPC   NC350975  16.414  26.376   5.540
 3938POPC   PO450976  16.772  25.932   5.300
 3938POPC   GL150977  16.766  26.028   5.764
 3938POPC   GL250978  17.057  26.225   5.821
 3938POPC   C1A50979  16.686  26.020   6.234
 3938POPC   D2A50980  16.511  25.891   6.665
 3938POPC   C3A50981  16.669  26.073   7.054
 3938POPC   C4A50982  17.108  26.019   7.195
 3938POPC   C1B50983  17.135  26.276   6.254
 3938POPC   C2B50984  16.933  26.301   6.648
 3938POPC   C3B50985  17.036  26.494   7.029
 3938POPC   C4B50986  17.267  26.456   7.385
 3939POPC   NC350987  36.865  29.221   5.493
 3939POPC   PO450988  36.643  28.616   5.346
 3939POPC   GL150989  36.635  28.909   5.836
 3939POPC   GL250990  36.642  29.292   5.954
 3939POPC   C1A50991  36.892  28.977   6.252
 3939POPC   D2A50992  36.828  29.357   6.506
 3939POPC   C3A50993  36.716  29.211   6.893
 3939POPC   C4A50994  36.783  29.010   7.270
 3939POPC   C1B50995  37.119  29.397   6.070
 3939POPC   C2B50996  37.348  29.345   6.463
 3939POPC   C3B50997  37.219  29.196   6.816
 3939POPC   C4B50998  37.173  29.366   7.167
 3940POPC   NC350999   3.188  23.816   5.448
 3940POPC   PO451000   3.765  23.457   5.402
 3940POPC   GL151001   3.551  23.636   5.779
 3940POPC   GL251002   3.567  24.001   5.802
 3940POPC   C1A51003   3.391  23.622   6.205
 3940POPC   D2A51004   3.354  23.439   6.642
 3940POPC   C3A51005   3.611  23.536   6.987
 3940POPC   C4A51006   3.430  23.565   7.423
 3940POPC   C1B51007   3.655  24.109   6.238
 3940POPC   C2B51008   3.447  23.937   6.609
 3940POPC   C3B51009   3.257  23.901   7.019
 3940POPC   C4B51010   3.612  24.028   7.202
 3941POPC   NC351011  34.722  21.649   5.739
 3941POPC   PO451012  34.348  21.045   5.467
 3941POPC   GL151013  34.432  21.239   5.875
 3941POPC   GL251014  34.726  21.099   5.867
 3941POPC   C1A51015  34.452  21.435   6.314
 3941POPC   D2A51016  34.455  21.701   6.688
 3941POPC   C3A51017  34.477  21.542   7.118
 3941POPC   C4A51018  34.498  21.482   7.558
 3941POPC   C1B51019  34.921  21.283   6.215
 3941POPC   C2B51020  34.929  21.541   6.577
 3941POPC   C3B51021  34.953  21.375   6.977
 3941POPC   C4B51022  34.914  21.182   7.361
 3942POPC   NC351023  29.758  10.847   5.414
 3942POPC   PO451024  30.131  11.484   5.475
 3942POPC   GL151025  29.987  11.161   5.779
 3942POPC   GL251026  29.649  11.189   5.762
 3942POPC   C1A51027  30.143  11.084   6.210
 3942POPC   D2A51028  30.106  11.454   6.512
 3942POPC   C3A51029  29.923  11.429   6.919
 3942POPC   C4A51030  29.882  11.505   7.370
 3942POPC   C1B51031  29.714  11.362   6.165
 3942POPC   C2B51032  29.735  11.116   6.528
 3942POPC   C3B51033  29.561  11.064   6.913
 3942POPC   C4B51034  29.859  10.943   7.206
 3943POPC   NC351035  44.999   3.235   5.521
 3943POPC   PO451036   0.619   3.662   5.431
 3943POPC   GL151037   0.504   3.378   5.768
 3943POPC   GL251038   0.234   3.601   5.860
 3943POPC   C1A51039   0.360   3.265   6.222
 3943POPC   D2A51040   0.568   3.319   6.629
 3943POPC   C3A51041   0.457   3.335   7.041
 3943POPC   C4A51042   0.355   3.599   7.362
 3943POPC   C1B51043   0.557   3.878   6.089
 3943POPC   C2B51044   0.792   3.892   6.481
 3943POPC   C3B51045   0.715   3.760   6.869
 3943POPC   C4B51046   0.786   3.871   7.269
 3944POPC   NC351047   3.612   2.125   5.392
 3944POPC   PO451048   3.117   1.619   5.480
 3944POPC   GL151049   3.360   1.908   5.770
 3944POPC   GL251050   3.754   1.855   5.786
 3944POPC   C1A51051   3.502   2.141   6.134
 3944POPC   D2A51052   3.435   2.092   6.572
 3944POPC   C3A51053   3.570   2.036   7.029
 3944POPC   C4A51054   3.540   2.002   7.494
 3944POPC   C1B51055   3.969   1.821   6.154
 3944POPC   C2B51056   3.839   1.802   6.560
 3944POPC   C3B51057   3.740   1.583   6.898
 3944POPC   C4B51058   3.859   1.658   7.311
 3945POPC   NC351059   2.113  24.923   5.491
 3945POPC   PO451060   1.885  25.619   5.439
 3945POPC   GL151061   1.938  25.338   5.788
 3945POPC   GL251062   2.232  25.196   5.902
 3945POPC   C1A51063   1.805  25.355   6.223
 3945POPC   D2A51064   1.747  25.567   6.627
 3945POPC   C3A51065   1.781  25.366   7.069
 3945POPC   C4A51066   1.724  25.469   7.540
 3945POPC   C1B51067   2.479  25.033   6.262
 3945POPC   C2B51068   2.491  24.986   6.719
 3945POPC   C3B51069   2.361  25.222   7.049
 3945POPC   C4B51070   2.190  25.305   7.411
 3946POPC   NC351071  30.849  20.202   5.521
 3946POPC   PO451072  30.344  20.473   5.492
 3946POPC   GL151073  30.617  20.504   5.885
 3946POPC   GL251074  30.974  20.554   5.927
 3946POPC   C1A51075  30.722  20.339   6.324
 3946POPC   D2A51076  30.820  20.584   6.683
 3946POPC   C3A51077  30.504  20.825   6.954
 3946POPC   C4A51078  30.632  20.517   7.236
 3946POPC   C1B51079  30.747  20.862   6.242
 3946POPC   C2B51080  30.805  21.111   6.620
 3946POPC   C3B51081  30.994  20.938   6.992
 3946POPC   C4B51082  30.922  20.899   7.436
 3947POPC   NC351083   1.119  21.699   5.369
 3947POPC   PO451084   1.499  21.160   5.347
 3947POPC   GL151085   1.373  21.381   5.733
 3947POPC   GL251086   1.070  21.230   5.938
 3947POPC   C1A51087   1.464  21.444   6.186
 3947POPC   D2A51088   1.246  21.231   6.485
 3947POPC   C3A51089   1.354  21.271   6.871
 3947POPC   C4A51090   1.000  21.098   7.094
 3947POPC   C1B51091   0.965  21.580   6.187
 3947POPC   C2B51092   1.135  21.708   6.570
 3947POPC   C3B51093   1.000  21.613   6.968
 3947POPC   C4B51094   1.372  21.690   7.174
 3948POPC   NC351095  11.749  36.151   5.494
 3948POPC   PO451096  12.342  35.955   5.568
 3948POPC   GL151097  12.036  36.060   5.888
 3948POPC   GL251098  11.848  35.748   5.835
 3948POPC   C1A51099  11.900  36.248   6.302
 3948POPC   D2A51100  11.986  36.443   6.712
 3948POPC   C3A51101  12.133  36.158   7.035
 3948POPC   C4A51102  12.094  36.160   7.483
 3948POPC   C1B51103  11.675  35.785   6.257
 3948POPC   C2B51104  11.665  35.970   6.703
 3948POPC   C3B51105  11.656  36.012   7.167
 3948POPC   C4B51106  11.568  36.133   7.595
 3949POPC   NC351107  17.361  20.928   5.482
 3949POPC   PO451108  17.375  21.559   5.414
 3949POPC   GL151109  17.649  21.367   5.753
 3949POPC   GL251110  17.594  21.056   5.921
 3949POPC   C1A51111  17.789  21.647   6.097
 3949POPC   D2A51112  17.745  21.506   6.526
 3949POPC   C3A51113  17.747  21.753   6.903
 3949POPC   C4A51114  17.628  21.524   7.316
 3949POPC   C1B51115  17.360  21.392   6.156
 3949POPC   C2B51116  17.178  21.390   6.523
 3949POPC   C3B51117  17.328  21.470   6.907
 3949POPC   C4B51118  17.132  21.672   7.258
 3950POPC   NC351119  25.231  28.008   5.451
 3950POPC   PO451120  25.622  27.452   5.571
 3950POPC   GL151121  25.517  27.753   5.889
 3950POPC   GL251122  25.161  27.665   5.823
 3950POPC   C1A51123  25.619  27.869   6.339
 3950POPC   D2A51124  25.358  27.803   6.702
 3950POPC   C3A51125  25.434  27.784   7.151
 3950POPC   C4A51126  25.616  27.598   7.540
 3950POPC   C1B51127  25.057  27.718   6.252
 3950POPC   C2B51128  24.967  27.442   6.587
 3950POPC   C3B51129  25.105  27.397   6.991
 3950POPC   C4B51130  25.193  27.399   7.421
 3951POPC   NC351131  26.551  10.801   5.452
 3951POPC   PO451132  26.956  10.274   5.440
 3951POPC   GL151133  27.000  10.459   5.842
 3951POPC   GL251134  26.728  10.706   5.924
 3951POPC   C1A51135  26.919  10.382   6.277
 3951POPC   D2A51136  26.712  10.646   6.579
 3951POPC   C3A51137  26.879  10.599   6.995
 3951POPC   C4A51138  27.072  10.238   7.194
 3951POPC   C1B51139  26.425  10.480   6.162
 3951POPC   C2B51140  26.365  10.171   6.471
 3951POPC   C3B51141  26.455  10.310   6.886
 3951POPC   C4B51142  26.568  10.330   7.306
 3952POPC   NC351143  22.312   0.834   5.491
 3952POPC   PO451144  21.919   1.314   5.302
 3952POPC   GL151145  21.927   1.405   5.776
 3952POPC   GL251146  22.243   1.230   5.816
 3952POPC   C1A51147  22.068   1.405   6.258
 3952POPC   D2A51148  21.848   1.408   6.678
 3952POPC   C3A51149  21.835   1.046   6.992
 3952POPC   C4A51150  21.797   1.013   7.452
 3952POPC   C1B51151  22.109   0.896   6.133
 3952POPC   C2B51152  22.133   0.988   6.572
 3952POPC   C3B51153  22.359   1.270   6.832
 3952POPC   C4B51154  22.214   1.286   7.255
 3953POPC   NC351155   8.314   4.745   5.164
 3953POPC   PO451156   8.545   5.235   5.565
 3953POPC   GL151157   8.144   5.071   5.798
 3953POPC   GL251158   7.964   5.397   5.774
 3953POPC   C1A51159   8.114   4.763   6.188
 3953POPC   D2A51160   8.416   4.674   6.573
 3953POPC   C3A51161   8.182   4.703   6.956
 3953POPC   C4A51162   8.081   5.065   7.199
 3953POPC   C1B51163   7.813   5.452   6.194
 3953POPC   C2B51164   7.924   5.367   6.630
 3953POPC   C3B51165   7.732   5.403   7.031
 3953POPC   C4B51166   7.832   5.412   7.506
 3954POPC   NC351167  25.238  10.928   5.431
 3954POPC   PO451168  25.253  10.279   5.406
 3954POPC   GL151169  25.074  10.344   5.811
 3954POPC   GL251170  24.711  10.243   5.834
 3954POPC   C1A51171  25.319  10.455   6.186
 3954POPC   D2A51172  25.301  10.704   6.519
 3954POPC   C3A51173  25.447  10.526   6.878
 3954POPC   C4A51174  25.415  10.691   7.249
 3954POPC   C1B51175  24.829  10.284   6.276
 3954POPC   C2B51176  25.035  10.305   6.643
 3954POPC   C3B51177  24.943  10.467   7.054
 3954POPC   C4B51178  24.794  10.191   7.387
 3955POPC   NC351179  42.017  44.485   5.833
 3955POPC   PO451180  41.388  44.680   5.430
 3955POPC   GL151181  41.559  44.688   5.830
 3955POPC   GL251182  41.507  44.336   5.879
 3955POPC   C1A51183  41.710  44.898   6.236
 3955POPC   D2A51184  41.539  44.805   6.630
 3955POPC   C3A51185  41.688  44.784   7.016
 3955POPC   C4A51186  41.615   0.059   7.347
 3955POPC   C1B51187  41.550  44.406   6.319
 3955POPC   C2B51188  41.456  44.323   6.743
 3955POPC   C3B51189  41.237  44.545   7.040
 3955POPC   C4B51190  41.376  44.602   7.481
 3956POPC   NC351191   1.410  42.416   5.227
 3956POPC   PO451192   0.845  42.649   5.621
 3956POPC   GL151193   1.186  42.498   5.922
 3956POPC   GL251194   1.483  42.565   5.719
 3956POPC   C1A51195   1.175  42.354   6.346
 3956POPC   D2A51196   0.843  42.511   6.617
 3956POPC   C3A51197   0.862  42.388   7.046
 3956POPC   C4A51198   1.236  42.223   7.247
 3956POPC   C1B51199   1.667  42.590   6.126
 3956POPC   C2B51200   1.649  42.451   6.550
 3956POPC   C3B51201   1.344  42.491   6.841
 3956POPC   C4B51202   1.546  42.663   7.228
 3957POPC   NC351203  38.630   9.660   5.501
 3957POPC   PO451204  38.011   9.464   5.558
 3957POPC   GL151205  38.270   9.646   5.863
 3957POPC   GL251206  38.518   9.365   5.919
 3957POPC   C1A51207  38.363   9.902   6.226
 3957POPC   D2A51208  38.168   9.923   6.652
 3957POPC   C3A51209  38.448   9.956   7.024
 3957POPC   C4A51210  38.538   9.782   7.478
 3957POPC   C1B51211  38.304   9.381   6.318
 3957POPC   C2B51212  38.391   9.335   6.752
 3957POPC   C3B51213  38.284   9.486   7.146
 3957POPC   C4B51214  38.071   9.515   7.567
 3958POPC   NC351215   6.323  44.929   5.560
 3958POPC   PO451216   6.818  44.556   5.247
 3958POPC   GL151217   6.797  44.746   5.717
 3958POPC   GL251218   6.502  44.652   5.929
 3958POPC   C1A51219   6.898  44.774   6.205
 3958POPC   D2A51220   7.024  44.663   6.647
 3958POPC   C3A51221   6.765  44.607   7.028
 3958POPC   C4A51222   6.714  44.842   7.411
 3958POPC   C1B51223   6.347  44.364   6.229
 3958POPC   C2B51224   6.396  44.340   6.657
 3958POPC   C3B51225   6.186  44.365   7.050
 3958POPC   C4B51226   6.413  44.424   7.417
 3959POPC   NC351227   8.745  12.120   5.463
 3959POPC   PO451228   9.273  11.771   5.500
 3959POPC   GL151229   9.091  12.064   5.875
 3959POPC   GL251230   8.804  12.307   5.915
 3959POPC   C1A51231   8.990  12.124   6.351
 3959POPC   D2A51232   9.111  11.880   6.748
 3959POPC   C3A51233   8.791  11.875   7.081
 3959POPC   C4A51234   8.830  12.062   7.479
 3959POPC   C1B51235   8.564  12.576   6.162
 3959POPC   C2B51236   8.599  12.512   6.618
 3959POPC   C3B51237   8.644  12.377   7.042
 3959POPC   C4B51238   8.643  12.559   7.436
 3960POPC   NC351239  14.039  31.928   5.472
 3960POPC   PO451240  14.083  32.562   5.366
 3960POPC   GL151241  14.408  32.386   5.699
 3960POPC   GL251242  14.494  32.022   5.754
 3960POPC   C1A51243  14.629  32.341   6.129
 3960POPC   D2A51244  14.424  32.196   6.525
 3960POPC   C3A51245  14.474  32.462   6.894
 3960POPC   C4A51246  14.593  32.425   7.309
 3960POPC   C1B51247  14.521  31.808   6.174
 3960POPC   C2B51248  14.672  31.765   6.629
 3960POPC   C3B51249  14.684  32.002   6.966
 3960POPC   C4B51250  14.421  31.947   7.322
 3961POPC   NC351251  41.171  18.635   5.615
 3961POPC   PO451252  40.693  18.325   5.233
 3961POPC   GL151253  40.695  18.208   5.685
 3961POPC   GL251254  40.618  18.543   5.771
 3961POPC   C1A51255  40.900  18.065   6.110
 3961POPC   D2A51256  40.888  17.822   6.526
 3961POPC   C3A51257  40.913  18.084   6.933
 3961POPC   C4A51258  40.717  18.259   7.331
 3961POPC   C1B51259  40.828  18.573   6.184
 3961POPC   C2B51260  40.948  18.590   6.612
 3961POPC   C3B51261  40.776  18.639   7.001
 3961POPC   C4B51262  40.631  18.753   7.422
 3962POPC   NC351263   1.264   0.700   5.344
 3962POPC   PO451264   0.934   0.096   5.253
 3962POPC   GL151265   1.154   0.266   5.665
 3962POPC   GL251266   1.344   0.571   5.834
 3962POPC   C1A51267   1.088   0.228   6.130
 3962POPC   D2A51268   1.173   0.504   6.495
 3962POPC   C3A51269   1.249   0.260   6.878
 3962POPC   C4A51270   1.371   0.258   7.294
 3962POPC   C1B51271   1.598   0.871   6.098
 3962POPC   C2B51272   1.507   1.075   6.507
 3962POPC   C3B51273   1.526   0.833   6.905
 3962POPC   C4B51274   1.267   0.756   7.261
 3963POPC   NC351275  38.374  36.587   5.390
 3963POPC   PO451276  38.591  37.262   5.297
 3963POPC   GL151277  38.469  37.015   5.665
 3963POPC   GL251278  38.224  37.167   5.877
 3963POPC   C1A51279  38.475  36.775   6.063
 3963POPC   D2A51280  38.571  36.939   6.469
 3963POPC   C3A51281  38.254  36.828   6.734
 3963POPC   C4A51282  38.269  36.830   7.134
 3963POPC   C1B51283  38.060  37.048   6.284
 3963POPC   C2B51284  38.217  37.332   6.588
 3963POPC   C3B51285  38.424  37.294   6.962
 3963POPC   C4B51286  38.167  37.306   7.305
 3964POPC   NC351287  11.307  10.196   5.515
 3964POPC   PO451288  11.090  10.844   5.643
 3964POPC   GL151289  11.333  10.547   5.877
 3964POPC   GL251290  11.074  10.280   5.939
 3964POPC   C1A51291  11.397  10.554   6.299
 3964POPC   D2A51292  11.056  10.615   6.596
 3964POPC   C3A51293  11.232  10.573   7.001
 3964POPC   C4A51294  11.509  10.584   7.334
 3964POPC   C1B51295  11.071  10.146   6.332
 3964POPC   C2B51296  11.357  10.205   6.678
 3964POPC   C3B51297  11.594  10.178   7.028
 3964POPC   C4B51298  11.471  10.070   7.436
 3965POPC   NC351299  20.890  41.448   5.323
 3965POPC   PO451300  21.497  41.193   5.469
 3965POPC   GL151301  21.451  41.444   5.881
 3965POPC   GL251302  21.422  41.814   5.937
 3965POPC   C1A51303  21.498  41.483   6.343
 3965POPC   D2A51304  21.512  41.206   6.700
 3965POPC   C3A51305  21.455  41.344   7.110
 3965POPC   C4A51306  21.576  41.366   7.536
 3965POPC   C1B51307  21.111  41.806   6.308
 3965POPC   C2B51308  21.198  41.733   6.743
 3965POPC   C3B51309  21.148  41.846   7.169
 3965POPC   C4B51310  21.261  41.767   7.624
 3966POPC   NC351311  36.061  13.489   5.402
 3966POPC   PO451312  36.490  14.011   5.594
 3966POPC   GL151313  36.446  13.696   5.912
 3966POPC   GL251314  36.263  13.373   5.848
 3966POPC   C1A51315  36.233  13.632   6.306
 3966POPC   D2A51316  35.965  13.885   6.560
 3966POPC   C3A51317  36.074  13.792   6.981
 3966POPC   C4A51318  36.357  13.725   7.301
 3966POPC   C1B51319  35.857  13.379   6.076
 3966POPC   C2B51320  35.792  13.384   6.546
 3966POPC   C3B51321  35.687  13.442   6.982
 3966POPC   C4B51322  36.021  13.318   7.269
 3967POPC   NC351323  15.994  17.876   5.361
 3967POPC   PO451324  15.452  17.359   5.424
 3967POPC   GL151325  15.734  17.488   5.760
 3967POPC   GL251326  15.684  17.836   5.783
 3967POPC   C1A51327  16.078  17.450   6.086
 3967POPC   D2A51328  16.239  17.178   6.432
 3967POPC   C3A51329  15.950  17.256   6.765
 3967POPC   C4A51330  15.926  17.469   7.159
 3967POPC   C1B51331  15.703  17.780   6.213
 3967POPC   C2B51332  15.979  17.752   6.566
 3967POPC   C3B51333  15.884  17.949   6.962
 3967POPC   C4B51334  16.135  17.969   7.316
 3968POPC   NC351335   4.963  25.776   5.572
 3968POPC   PO451336   5.263  26.293   5.326
 3968POPC   GL151337   5.109  26.271   5.744
 3968POPC   GL251338   5.345  26.018   5.839
 3968POPC   C1A51339   4.986  26.262   6.194
 3968POPC   D2A51340   5.149  26.264   6.628
 3968POPC   C3A51341   4.884  26.316   7.014
 3968POPC   C4A51342   4.780  26.190   7.461
 3968POPC   C1B51343   5.333  25.836   6.253
 3968POPC   C2B51344   5.614  25.858   6.614
 3968POPC   C3B51345   5.444  26.018   6.986
 3968POPC   C4B51346   5.051  25.832   7.123
 3969POPC   NC351347  33.351  20.230   5.466
 3969POPC   PO451348  32.919  19.713   5.250
 3969POPC   GL151349  32.945  19.991   5.722
 3969POPC   GL251350  33.280  19.951   5.899
 3969POPC   C1A51351  32.892  20.016   6.230
 3969POPC   D2A51352  32.961  19.864   6.674
 3969POPC   C3A51353  32.830  20.070   7.066
 3969POPC   C4A51354  32.929  19.892   7.471
 3969POPC   C1B51355  33.319  19.720   6.314
 3969POPC   C2B51356  33.456  19.680   6.735
 3969POPC   C3B51357  33.173  19.604   7.110
 3969POPC   C4B51358  33.254  19.482   7.555
 3970POPC   NC351359  39.976   8.974   5.399
 3970POPC   PO451360  40.581   9.196   5.281
 3970POPC   GL151361  40.370   8.992   5.731
 3970POPC   GL251362  40.080   9.260   5.812
 3970POPC   C1A51363  40.172   8.936   6.187
 3970POPC   D2A51364  39.869   8.870   6.547
 3970POPC   C3A51365  40.077   8.923   6.939
 3970POPC   C4A51366  40.327   9.315   6.958
 3970POPC   C1B51367  39.764   9.270   6.161
 3970POPC   C2B51368  39.635   9.439   6.557
 3970POPC   C3B51369  39.757   9.322   6.964
 3970POPC   C4B51370  39.629   8.993   7.213
 3971POPC   NC351371  42.546  42.707   5.664
 3971POPC   PO451372  42.398  43.387   5.462
 3971POPC   GL151373  42.291  43.158   5.879
 3971POPC   GL251374  42.149  42.794   5.953
 3971POPC   C1A51375  42.292  43.158   6.346
 3971POPC   D2A51376  42.508  43.181   6.755
 3971POPC   C3A51377  42.285  43.044   7.163
 3971POPC   C4A51378  42.121  43.297   7.525
 3971POPC   C1B51379  42.440  42.659   6.284
 3971POPC   C2B51380  42.349  42.698   6.679
 3971POPC   C3B51381  42.521  42.608   7.020
 3971POPC   C4B51382  42.569  42.646   7.443
 3972POPC   NC351383  24.103  11.927   5.322
 3972POPC   PO451384  23.511  11.988   5.373
 3972POPC   GL151385  23.805  12.063   5.769
 3972POPC   GL251386  23.837  11.755   6.037
 3972POPC   C1A51387  23.623  12.206   6.162
 3972POPC   D2A51388  23.457  11.928   6.487
 3972POPC   C3A51389  23.484  12.041   6.913
 3972POPC   C4A51390  23.767  12.337   6.992
 3972POPC   C1B51391  24.022  11.977   6.375
 3972POPC   C2B51392  23.974  11.921   6.788
 3972POPC   C3B51393  23.909  11.895   7.210
 3972POPC   C4B51394  23.933  11.846   7.664
 3973POPC   NC351395  21.161  13.923   5.595
 3973POPC   PO451396  21.444  14.552   5.379
 3973POPC   GL151397  21.253  14.470   5.785
 3973POPC   GL251398  21.036  14.236   5.987
 3973POPC   C1A51399  21.366  14.552   6.204
 3973POPC   D2A51400  21.429  14.286   6.521
 3973POPC   C3A51401  21.369  14.509   6.839
 3973POPC   C4A51402  21.471  14.439   7.229
 3973POPC   C1B51403  21.133  13.913   6.311
 3973POPC   C2B51404  21.146  13.896   6.761
 3973POPC   C3B51405  21.083  14.156   7.097
 3973POPC   C4B51406  21.099  14.064   7.549
 3974POPC   NC351407  10.457  34.771   5.428
 3974POPC   PO451408   9.790  35.011   5.462
 3974POPC   GL151409  10.158  34.871   5.836
 3974POPC   GL251410  10.344  34.522   5.862
 3974POPC   C1A51411  10.287  34.724   6.312
 3974POPC   D2A51412  10.590  34.695   6.684
 3974POPC   C3A51413  10.408  34.755   7.104
 3974POPC   C4A51414  10.543  34.982   7.499
 3974POPC   C1B51415  10.621  34.303   6.179
 3974POPC   C2B51416  10.595  34.170   6.618
 3974POPC   C3B51417  10.687  34.284   7.038
 3974POPC   C4B51418  10.896  34.687   7.255
 3975POPC   NC351419  23.817   5.111   5.442
 3975POPC   PO451420  23.316   4.702   5.538
 3975POPC   GL151421  23.619   4.796   5.827
 3975POPC   GL251422  23.594   5.168   5.880
 3975POPC   C1A51423  23.790   4.826   6.221
 3975POPC   D2A51424  23.753   5.090   6.562
 3975POPC   C3A51425  23.479   5.047   6.891
 3975POPC   C4A51426  23.541   5.362   7.207
 3975POPC   C1B51427  23.847   5.371   6.149
 3975POPC   C2B51428  23.922   5.566   6.553
 3975POPC   C3B51429  24.012   5.700   6.963
 3975POPC   C4B51430  24.020   5.456   7.346
 3976POPC   NC351431  12.635  20.848   5.541
 3976POPC   PO451432  13.189  20.476   5.350
 3976POPC   GL151433  12.979  20.417   5.707
 3976POPC   GL251434  13.244  20.470   5.928
 3976POPC   C1A51435  12.734  20.424   6.066
 3976POPC   D2A51436  12.860  20.522   6.477
 3976POPC   C3A51437  12.662  20.401   6.833
 3976POPC   C4A51438  12.706  20.479   7.241
 3976POPC   C1B51439  13.121  20.156   6.230
 3976POPC   C2B51440  13.130  20.148   6.684
 3976POPC   C3B51441  13.186  20.406   7.033
 3976POPC   C4B51442  13.188  20.300   7.462
 3977POPC   NC351443  39.420  27.012   5.378
 3977POPC   PO451444  38.754  27.045   5.243
 3977POPC   GL151445  39.016  27.058   5.717
 3977POPC   GL251446  39.291  26.812   5.838
 3977POPC   C1A51447  39.153  27.116   6.224
 3977POPC   D2A51448  39.071  26.966   6.699
 3977POPC   C3A51449  39.196  27.104   7.134
 3977POPC   C4A51450  39.048  27.021   7.594
 3977POPC   C1B51451  39.431  26.659   6.272
 3977POPC   C2B51452  39.294  26.491   6.677
 3977POPC   C3B51453  39.335  26.597   7.107
 3977POPC   C4B51454  39.473  26.771   7.512
 3978POPC   NC351455  24.156   7.355   4.972
 3978POPC   PO451456  23.659   7.446   5.394
 3978POPC   GL151457  23.648   7.440   5.854
 3978POPC   GL251458  23.969   7.256   5.962
 3978POPC   C1A51459  23.413   7.456   6.228
 3978POPC   D2A51460  23.639   7.508   6.561
 3978POPC   C3A51461  23.412   7.457   6.916
 3978POPC   C4A51462  23.624   7.338   7.267
 3978POPC   C1B51463  24.040   7.688   6.130
 3978POPC   C2B51464  24.048   7.865   6.549
 3978POPC   C3B51465  23.915   7.707   6.945
 3978POPC   C4B51466  23.966   7.692   7.371
 3979POPC   NC351467  38.587  18.719   5.570
 3979POPC   PO451468  38.140  18.185   5.600
 3979POPC   GL151469  38.376  18.431   5.947
 3979POPC   GL251470  38.719  18.599   6.023
 3979POPC   C1A51471  38.487  18.382   6.404
 3979POPC   D2A51472  38.565  18.042   6.694
 3979POPC   C3A51473  38.658  18.187   7.072
 3979POPC   C4A51474  38.493  18.417   7.361
 3979POPC   C1B51475  39.004  18.421   6.301
 3979POPC   C2B51476  38.967  18.423   6.733
 3979POPC   C3B51477  38.862  18.656   7.105
 3979POPC   C4B51478  38.914  18.618   7.560
 3980POPC   NC351479  29.427  27.236   5.519
 3980POPC   PO451480  28.991  26.697   5.506
 3980POPC   GL151481  29.217  26.844   5.828
 3980POPC   GL251482  29.141  26.535   6.011
 3980POPC   C1A51483  29.280  27.007   6.240
 3980POPC   D2A51484  29.115  26.793   6.579
 3980POPC   C3A51485  29.059  27.039   6.931
 3980POPC   C4A51486  29.146  26.809   7.289
 3980POPC   C1B51487  29.551  26.574   6.133
 3980POPC   C2B51488  29.657  26.694   6.537
 3980POPC   C3B51489  29.522  26.782   6.948
 3980POPC   C4B51490  29.521  26.470   7.279
 3981POPC   NC351491  34.642   3.171   5.305
 3981POPC   PO451492  34.515   3.730   5.317
 3981POPC   GL151493  34.539   3.507   5.724
 3981POPC   GL251494  34.238   3.431   5.861
 3981POPC   C1A51495  34.718   3.529   6.174
 3981POPC   D2A51496  34.681   3.700   6.630
 3981POPC   C3A51497  34.801   3.336   6.929
 3981POPC   C4A51498  34.701   3.280   7.361
 3981POPC   C1B51499  34.225   3.419   6.288
 3981POPC   C2B51500  34.329   3.343   6.683
 3981POPC   C3B51501  34.376   3.563   7.058
 3981POPC   C4B51502  34.673   3.813   7.206
 3982POPC   NC351503  35.884  18.063   5.448
 3982POPC   PO451504  36.479  18.158   5.233
 3982POPC   GL151505  36.306  18.111   5.716
 3982POPC   GL251506  36.111  18.399   5.835
 3982POPC   C1A51507  36.266  18.033   6.198
 3982POPC   D2A51508  36.080  18.166   6.604
 3982POPC   C3A51509  36.365  18.197   6.970
 3982POPC   C4A51510  36.203  18.196   7.388
 3982POPC   C1B51511  36.299  18.528   6.253
 3982POPC   C2B51512  36.177  18.662   6.682
 3982POPC   C3B51513  35.964  18.501   7.062
 3982POPC   C4B51514  36.001  18.612   7.537
 3983POPC   NC351515  36.344  19.780   5.405
 3983POPC   PO451516  35.654  19.666   5.542
 3983POPC   GL151517  36.024  19.503   5.803
 3983POPC   GL251518  36.312  19.747   5.921
 3983POPC   C1A51519  35.979  19.461   6.256
 3983POPC   D2A51520  35.895  19.526   6.691
 3983POPC   C3A51521  36.128  19.879   6.783
 3983POPC   C4A51522  36.183  19.898   7.199
 3983POPC   C1B51523  36.020  19.983   6.222
 3983POPC   C2B51524  35.752  20.184   6.550
 3983POPC   C3B51525  35.737  20.145   6.979
 3983POPC   C4B51526  35.811  20.227   7.425
 3984POPC   NC351527  15.012  27.617   5.567
 3984POPC   PO451528  14.708  27.120   5.618
 3984POPC   GL151529  15.049  27.254   5.938
 3984POPC   GL251530  15.329  27.531   5.940
 3984POPC   C1A51531  15.231  27.286   6.372
 3984POPC   D2A51532  15.014  27.201   6.746
 3984POPC   C3A51533  15.160  27.361   7.110
 3984POPC   C4A51534  15.040  27.759   7.192
 3984POPC   C1B51535  15.106  27.763   6.262
 3984POPC   C2B51536  15.216  27.791   6.714
 3984POPC   C3B51537  15.499  27.942   7.100
 3984POPC   C4B51538  15.738  28.204   7.462
 3985POPC   NC351539  34.716  41.452   5.533
 3985POPC   PO451540  34.315  41.877   5.127
 3985POPC   GL151541  34.328  41.795   5.660
 3985POPC   GL251542  34.294  41.436   5.818
 3985POPC   C1A51543  34.534  41.797   6.091
 3985POPC   D2A51544  34.376  41.615   6.472
 3985POPC   C3A51545  34.559  41.679   6.858
 3985POPC   C4A51546  34.441  41.620   7.294
 3985POPC   C1B51547  34.599  41.293   6.143
 3985POPC   C2B51548  34.773  41.307   6.533
 3985POPC   C3B51549  34.788  41.224   6.957
 3985POPC   C4B51550  34.544  41.100   7.310
 3986POPC   NC351551  27.411  38.780   5.438
 3986POPC   PO451552  27.470  39.495   5.433
 3986POPC   GL151553  27.472  39.371   5.884
 3986POPC   GL251554  27.528  39.042   5.884
 3986POPC   C1A51555  27.383  39.288   6.328
 3986POPC   D2A51556  27.359  38.937   6.662
 3986POPC   C3A51557  27.275  39.118   7.080
 3986POPC   C4A51558  27.539  39.240   7.431
 3986POPC   C1B51559  27.864  39.126   6.192
 3986POPC   C2B51560  27.795  39.237   6.614
 3986POPC   C3B51561  27.804  39.051   7.011
 3986POPC   C4B51562  28.012  39.041   7.401
 3987POPC   NC351563   0.821  22.486   5.499
 3987POPC   PO451564   1.446  22.622   5.287
 3987POPC   GL151565   1.317  22.206   5.552
 3987POPC   GL251566   1.038  22.066   5.720
 3987POPC   C1A51567   1.460  22.038   6.005
 3987POPC   D2A51568   1.349  22.172   6.447
 3987POPC   C3A51569   1.577  22.068   6.816
 3987POPC   C4A51570   1.574  22.151   7.228
 3987POPC   C1B51571   0.945  22.088   6.136
 3987POPC   C2B51572   0.805  22.075   6.557
 3987POPC   C3B51573   1.079  22.120   6.922
 3987POPC   C4B51574   0.902  21.983   7.293
 3988POPC   NC351575  14.504  12.167   5.240
 3988POPC   PO451576  14.107  11.610   5.481
 3988POPC   GL151577  14.217  12.015   5.657
 3988POPC   GL251578  14.560  11.916   5.679
 3988POPC   C1A51579  14.327  12.204   6.072
 3988POPC   D2A51580  14.438  11.973   6.463
 3988POPC   C3A51581  14.369  12.153   6.878
 3988POPC   C4A51582  14.247  11.940   7.255
 3988POPC   C1B51583  14.795  11.928   6.073
 3988POPC   C2B51584  14.931  11.808   6.498
 3988POPC   C3B51585  14.765  11.835   6.919
 3988POPC   C4B51586  14.733  12.085   7.312
 3989POPC   NC351587  31.885  12.416   5.066
 3989POPC   PO451588  32.276  11.892   5.416
 3989POPC   GL151589  32.469  12.090   5.765
 3989POPC   GL251590  32.157  12.046   5.973
 3989POPC   C1A51591  32.577  12.110   6.210
 3989POPC   D2A51592  32.235  12.175   6.492
 3989POPC   C3A51593  32.316  12.187   6.920
 3989POPC   C4A51594  32.418  12.230   7.342
 3989POPC   C1B51595  31.881  11.736   6.155
 3989POPC   C2B51596  31.719  11.708   6.557
 3989POPC   C3B51597  31.893  11.903   6.890
 3989POPC   C4B51598  32.130  11.788   7.232
 3990POPC   NC351599  19.420  26.168   5.536
 3990POPC   PO451600  20.188  26.078   5.399
 3990POPC   GL151601  19.904  26.153   5.716
 3990POPC   GL251602  19.847  25.826   5.837
 3990POPC   C1A51603  19.717  26.224   6.120
 3990POPC   D2A51604  19.810  26.155   6.527
 3990POPC   C3A51605  19.487  26.114   6.801
 3990POPC   C4A51606  19.483  26.032   7.227
 3990POPC   C1B51607  19.927  25.620   6.218
 3990POPC   C2B51608  20.108  25.747   6.597
 3990POPC   C3B51609  19.942  25.906   6.979
 3990POPC   C4B51610  19.982  25.705   7.359
 3991POPC   NC351611  44.858  44.137   5.281
 3991POPC   PO451612  44.411  44.606   5.444
 3991POPC   GL151613  44.651  44.661   5.819
 3991POPC   GL251614  44.387  44.891   5.969
 3991POPC   C1A51615  44.826  44.863   6.214
 3991POPC   D2A51616  44.475  44.940   6.515
 3991POPC   C3A51617  44.431  44.702   6.903
 3991POPC   C4A51618  44.725  44.596   7.190
 3991POPC   C1B51619  44.468  44.495   6.242
 3991POPC   C2B51620  44.405  44.270   6.588
 3991POPC   C3B51621  44.467  44.176   6.987
 3991POPC   C4B51622  44.375  44.262   7.402
 3992POPC   NC351623   5.021  36.858   5.450
 3992POPC   PO451624   5.583  37.074   5.471
 3992POPC   GL151625   5.290  37.055   5.863
 3992POPC   GL251626   4.910  37.005   5.922
 3992POPC   C1A51627   5.276  36.935   6.298
 3992POPC   D2A51628   5.132  36.892   6.702
 3992POPC   C3A51629   5.354  36.875   7.091
 3992POPC   C4A51630   5.258  37.089   7.476
 3992POPC   C1B51631   4.749  36.851   6.314
 3992POPC   C2B51632   4.657  36.741   6.750
 3992POPC   C3B51633   4.837  36.765   7.154
 3992POPC   C4B51634   4.678  36.740   7.548
 3993POPC   NC351635  39.721   1.440   5.468
 3993POPC   PO451636  40.254   1.007   5.455
 3993POPC   GL151637  40.007   0.953   5.790
 3993POPC   GL251638  39.901   1.306   5.921
 3993POPC   C1A51639  39.827   0.865   6.166
 3993POPC   D2A51640  39.762   1.181   6.482
 3993POPC   C3A51641  39.946   1.098   6.896
 3993POPC   C4A51642  40.074   1.209   7.331
 3993POPC   C1B51643  40.145   1.554   6.211
 3993POPC   C2B51644  40.191   1.462   6.620
 3993POPC   C3B51645  40.085   1.609   7.007
 3993POPC   C4B51646  40.380   1.748   7.307
 3994POPC   NC351647   3.551  30.980   5.555
 3994POPC   PO451648   3.334  30.476   5.311
 3994POPC   GL151649   3.459  30.523   5.738
 3994POPC   GL251650   3.218  30.760   5.907
 3994POPC   C1A51651   3.675  30.439   6.103
 3994POPC   D2A51652   3.544  30.256   6.463
 3994POPC   C3A51653   3.685  30.465   6.844
 3994POPC   C4A51654   3.611  30.554   7.258
 3994POPC   C1B51655   2.992  30.605   6.283
 3994POPC   C2B51656   3.178  30.543   6.697
 3994POPC   C3B51657   3.387  30.893   6.940
 3994POPC   C4B51658   3.638  31.147   7.216
 3995POPC   NC351659  40.779  40.971   5.260
 3995POPC   PO451660  40.824  40.449   5.704
 3995POPC   GL151661  40.611  40.801   5.861
 3995POPC   GL251662  40.628  41.161   5.716
 3995POPC   C1A51663  40.620  40.730   6.312
 3995POPC   D2A51664  40.759  40.463   6.633
 3995POPC   C3A51665  40.996  40.664   6.922
 3995POPC   C4A51666  40.838  40.765   7.283
 3995POPC   C1B51667  40.747  41.219   6.158
 3995POPC   C2B51668  40.739  41.123   6.620
 3995POPC   C3B51669  41.019  41.195   6.937
 3995POPC   C4B51670  41.111  41.164   7.366
 3996POPC   NC351671  40.418  12.393   5.407
 3996POPC   PO451672  40.815  11.821   5.473
 3996POPC   GL151673  40.823  11.955   5.884
 3996POPC   GL251674  40.720  12.312   5.860
 3996POPC   C1A51675  40.778  11.754   6.286
 3996POPC   D2A51676  40.666  11.926   6.686
 3996POPC   C3A51677  41.002  12.095   6.908
 3996POPC   C4A51678  40.957  11.921   7.310
 3996POPC   C1B51679  40.497  12.210   6.261
 3996POPC   C2B51680  40.480  12.408   6.687
 3996POPC   C3B51681  40.611  12.314   7.139
 3996POPC   C4B51682  40.649  12.244   7.590
 3997POPC   NC351683  21.485  44.857   5.382
 3997POPC   PO451684  21.012  44.407   5.341
 3997POPC   GL151685  21.241  44.530   5.710
 3997POPC   GL251686  21.601  44.624   5.849
 3997POPC   C1A51687  21.191  44.530   6.157
 3997POPC   D2A51688  21.409  44.514   6.548
 3997POPC   C3A51689  21.250  44.511   6.912
 3997POPC   C4A51690  21.298  44.648   7.294
 3997POPC   C1B51691  21.528  44.903   6.268
 3997POPC   C2B51692  21.565  44.954   6.741
 3997POPC   C3B51693  21.610   0.044   7.199
 3997POPC   C4B51694  21.631  44.849   7.625
 3998POPC   NC351695  27.974  42.395   5.645
 3998POPC   PO451696  28.391  41.954   5.342
 3998POPC   GL151697  28.475  42.130   5.780
 3998POPC   GL251698  28.412  42.480   5.879
 3998POPC   C1A51699  28.400  42.100   6.241
 3998POPC   D2A51700  28.114  42.218   6.560
 3998POPC   C3A51701  28.236  42.035   6.929
 3998POPC   C4A51702  28.314  42.286   7.305
 3998POPC   C1B51703  28.487  42.714   6.245
 3998POPC   C2B51704  28.448  42.599   6.683
 3998POPC   C3B51705  28.520  42.813   7.075
 3998POPC   C4B51706  28.677  42.686   7.457
 3999POPC   NC351707  14.114   8.642   5.485
 3999POPC   PO451708  14.410   7.991   5.341
 3999POPC   GL151709  14.404   8.263   5.677
 3999POPC   GL251710  14.056   8.251   5.817
 3999POPC   C1A51711  14.486   8.195   6.090
 3999POPC   D2A51712  14.204   8.034   6.390
 3999POPC   C3A51713  14.305   8.152   6.809
 3999POPC   C4A51714  14.359   8.094   7.226
 3999POPC   C1B51715  13.922   8.455   6.198
 3999POPC   C2B51716  13.884   8.370   6.638
 3999POPC   C3B51717  14.068   8.542   7.022
 3999POPC   C4B51718  14.038   8.410   7.453
 4000POPC   NC351719  10.761  37.045   5.338
 4000POPC   PO451720  10.068  36.805   5.455
 4000POPC   GL151721  10.309  36.779   5.833
 4000POPC   GL251722  10.661  36.635   5.734
 4000POPC   C1A51723  10.255  36.986   6.268
 4000POPC   D2A51724  10.248  36.997   6.732
 4000POPC   C3A51725  10.404  36.685   6.951
 4000POPC   C4A51726  10.489  36.855   7.322
 4000POPC   C1B51727  10.750  36.992   6.050
 4000POPC   C2B51728  10.699  37.138   6.498
 4000POPC   C3B51729  10.773  37.039   6.920
 4000POPC   C4B51730  11.011  37.238   7.245
 4001POPC   NC351731  29.783   0.898   5.588
 4001POPC   PO451732  29.651   0.248   5.435
 4001POPC   GL151733  29.730   0.459   5.860
 4001POPC   GL251734  29.888   0.812   6.059
 4001POPC   C1A51735  29.963   0.349   6.230
 4001POPC   D2A51736  30.005   0.607   6.580
 4001POPC   C3A51737  30.135   0.428   6.928
 4001POPC   C4A51738  29.920   0.256   7.233
 4001POPC   C1B51739  29.550   0.679   6.296
 4001POPC   C2B51740  29.506   0.756   6.701
 4001POPC   C3B51741  29.696   0.665   7.049
 4001POPC   C4B51742  29.587   0.556   7.477
 4002POPC   NC351743  10.186  33.157   5.574
 4002POPC   PO451744  10.656  32.709   5.402
 4002POPC   GL151745  10.562  32.850   5.796
 4002POPC   GL251746  10.649  33.182   5.785
 4002POPC   C1A51747  10.631  32.829   6.223
 4002POPC   D2A51748  10.794  32.666   6.596
 4002POPC   C3A51749  10.577  32.809   6.965
 4002POPC   C4A51750  10.528  33.140   7.256
 4002POPC   C1B51751  10.860  33.279   6.124
 4002POPC   C2B51752  10.750  33.197   6.545
 4002POPC   C3B51753  10.943  33.198   6.897
 4002POPC   C4B51754  11.010  33.327   7.276
 4003POPC   NC351755  13.443   5.727   5.367
 4003POPC   PO451756  13.819   6.248   5.581
 4003POPC   GL151757  13.451   6.092   5.800
 4003POPC   GL251758  13.453   5.732   5.866
 4003POPC   C1A51759  13.396   6.084   6.248
 4003POPC   D2A51760  13.503   5.825   6.647
 4003POPC   C3A51761  13.660   6.045   7.031
 4003POPC   C4A51762  13.962   6.387   7.080
 4003POPC   C1B51763  13.537   5.533   6.229
 4003POPC   C2B51764  13.873   5.453   6.523
 4003POPC   C3B51765  13.827   5.538   6.940
 4003POPC   C4B51766  13.494   5.606   7.209
 4004POPC   NC351767   5.279   5.603   5.353
 4004POPC   PO451768   5.551   4.971   5.257
 4004POPC   GL151769   5.335   5.231   5.695
 4004POPC   GL251770   4.998   5.141   5.810
 4004POPC   C1A51771   5.323   5.234   6.206
 4004POPC   D2A51772   5.389   5.346   6.673
 4004POPC   C3A51773   5.405   5.054   7.041
 4004POPC   C4A51774   5.308   5.102   7.489
 4004POPC   C1B51775   4.794   5.252   6.234
 4004POPC   C2B51776   4.885   5.129   6.684
 4004POPC   C3B51777   4.932   5.174   7.159
 4004POPC   C4B51778   4.922   5.423   7.578
 4005POPC   NC351779  36.190  26.440   5.452
 4005POPC   PO451780  36.202  27.044   5.337
 4005POPC   GL151781  36.187  26.896   5.759
 4005POPC   GL251782  36.477  26.779   5.736
 4005POPC   C1A51783  35.997  26.888   6.192
 4005POPC   D2A51784  35.827  26.549   6.440
 4005POPC   C3A51785  35.833  26.559   6.897
 4005POPC   C4A51786  36.110  26.464   7.231
 4005POPC   C1B51787  36.577  27.023   6.118
 4005POPC   C2B51788  36.388  27.021   6.550
 4005POPC   C3B51789  36.423  26.870   7.000
 4005POPC   C4B51790  36.452  26.819   7.473
 4006POPC   NC351791  40.715  30.957   5.357
 4006POPC   PO451792  40.664  30.306   5.501
 4006POPC   GL151793  40.844  30.616   5.797
 4006POPC   GL251794  40.705  30.955   5.860
 4006POPC   C1A51795  40.815  30.638   6.247
 4006POPC   D2A51796  40.564  30.623   6.589
 4006POPC   C3A51797  40.842  30.555   6.903
 4006POPC   C4A51798  40.723  30.317   7.227
 4006POPC   C1B51799  40.680  31.146   6.292
 4006POPC   C2B51800  40.840  31.063   6.712
 4006POPC   C3B51801  40.795  30.980   7.166
 4006POPC   C4B51802  40.566  31.047   7.578
 4007POPC   NC351803   6.633   2.463   5.347
 4007POPC   PO451804   7.120   2.781   5.124
 4007POPC   GL151805   6.829   2.823   5.628
 4007POPC   GL251806   6.485   2.946   5.714
 4007POPC   C1A51807   6.732   2.776   6.110
 4007POPC   D2A51808   6.635   2.814   6.529
 4007POPC   C3A51809   6.826   2.737   6.923
 4007POPC   C4A51810   6.656   2.418   7.177
 4007POPC   C1B51811   6.217   2.895   6.082
 4007POPC   C2B51812   6.142   2.928   6.537
 4007POPC   C3B51813   6.399   3.066   6.907
 4007POPC   C4B51814   6.445   2.851   7.314
 4008POPC   NC351815  30.522  31.487   5.494
 4008POPC   PO451816  31.075  30.986   5.755
 4008POPC   GL151817  30.877  31.378   5.878
 4008POPC   GL251818  30.935  31.711   5.712
 4008POPC   C1A51819  30.510  31.425   6.169
 4008POPC   D2A51820  30.412  31.328   6.611
 4008POPC   C3A51821  30.776  31.167   6.842
 4008POPC   C4A51822  30.955  31.201   7.214
 4008POPC   C1B51823  30.856  31.809   6.166
 4008POPC   C2B51824  30.851  31.609   6.583
 4008POPC   C3B51825  30.796  31.670   7.032
 4008POPC   C4B51826  31.063  31.696   7.391
 4009POPC   NC351827  33.570  38.060   5.635
 4009POPC   PO451828  34.105  37.742   5.361
 4009POPC   GL151829  33.926  37.667   5.771
 4009POPC   GL251830  33.571  37.662   5.918
 4009POPC   C1A51831  33.963  37.715   6.211
 4009POPC   D2A51832  33.887  38.004   6.550
 4009POPC   C3A51833  33.857  37.845   6.964
 4009POPC   C4A51834  33.846  37.517   7.262
 4009POPC   C1B51835  33.472  37.909   6.264
 4009POPC   C2B51836  33.273  37.987   6.628
 4009POPC   C3B51837  33.403  38.053   7.038
 4009POPC   C4B51838  33.430  37.790   7.338
 4010POPC   NC351839  42.253   7.312   5.231
 4010POPC   PO451840  42.543   7.886   5.317
 4010POPC   GL151841  42.474   7.546   5.635
 4010POPC   GL251842  42.133   7.484   5.761
 4010POPC   C1A51843  42.514   7.373   6.089
 4010POPC   D2A51844  42.343   7.316   6.518
 4010POPC   C3A51845  42.465   7.142   6.892
 4010POPC   C4A51846  42.611   7.412   7.168
 4010POPC   C1B51847  41.993   7.227   6.162
 4010POPC   C2B51848  41.852   7.269   6.639
 4010POPC   C3B51849  42.049   7.417   7.047
 4010POPC   C4B51850  41.897   7.573   7.448
 4011POPC   NC351851  15.309   5.156   5.067
 4011POPC   PO451852  14.931   5.100   5.605
 4011POPC   GL151853  15.224   5.062   5.904
 4011POPC   GL251854  15.458   4.764   5.920
 4011POPC   C1A51855  15.095   4.928   6.283
 4011POPC   D2A51856  14.964   4.719   6.595
 4011POPC   C3A51857  15.026   4.818   6.995
 4011POPC   C4A51858  14.808   5.007   7.325
 4011POPC   C1B51859  15.590   4.960   6.259
 4011POPC   C2B51860  15.477   4.845   6.654
 4011POPC   C3B51861  15.518   4.900   7.078
 4011POPC   C4B51862  15.311   4.994   7.424
 4012POPC   NC351863   8.533   5.681   5.441
 4012POPC   PO451864   8.108   6.166   5.500
 4012POPC   GL151865   8.251   5.842   5.835
 4012POPC   GL251866   8.416   6.051   6.069
 4012POPC   C1A51867   8.292   5.619   6.278
 4012POPC   D2A51868   8.195   5.816   6.685
 4012POPC   C3A51869   8.184   5.613   7.118
 4012POPC   C4A51870   8.392   5.814   7.473
 4012POPC   C1B51871   7.938   5.994   6.207
 4012POPC   C2B51872   7.699   5.836   6.555
 4012POPC   C3B51873   7.775   5.923   6.978
 4012POPC   C4B51874   7.899   6.318   7.160
 4013POPC   NC351875  22.192  18.653   5.250
 4013POPC   PO451876  22.180  18.072   5.376
 4013POPC   GL151877  22.226  18.154   5.819
 4013POPC   GL251878  22.557  18.003   5.927
 4013POPC   C1A51879  22.232  18.246   6.277
 4013POPC   D2A51880  22.012  18.204   6.682
 4013POPC   C3A51881  22.215  18.299   7.101
 4013POPC   C4A51882  22.550  18.583   7.305
 4013POPC   C1B51883  22.442  17.792   6.356
 4013POPC   C2B51884  22.518  17.986   6.796
 4013POPC   C3B51885  22.682  18.098   7.232
 4013POPC   C4B51886  22.800  18.294   7.668
 4014POPC   NC351887  32.420  23.241   5.425
 4014POPC   PO451888  31.940  22.835   5.462
 4014POPC   GL151889  32.316  22.776   5.714
 4014POPC   GL251890  32.388  23.093   5.924
 4014POPC   C1A51891  32.321  22.630   6.148
 4014POPC   D2A51892  32.461  22.793   6.541
 4014POPC   C3A51893  32.191  22.937   6.869
 4014POPC   C4A51894  32.157  22.780   7.274
 4014POPC   C1B51895  32.631  23.232   6.313
 4014POPC   C2B51896  32.497  23.317   6.672
 4014POPC   C3B51897  32.646  23.414   7.035
 4014POPC   C4B51898  32.753  23.227   7.435
 4015POPC   NC351899  18.949  19.550   5.467
 4015POPC   PO451900  19.382  20.137   5.331
 4015POPC   GL151901  19.157  20.077   5.754
 4015POPC   GL251902  19.066  19.721   5.934
 4015POPC   C1A51903  19.256  20.121   6.203
 4015POPC   D2A51904  19.157  19.880   6.565
 4015POPC   C3A51905  18.810  19.943   6.878
 4015POPC   C4A51906  18.696  20.048   7.301
 4015POPC   C1B51907  19.322  19.471   6.241
 4015POPC   C2B51908  19.446  19.436   6.660
 4015POPC   C3B51909  19.125  19.475   6.868
 4015POPC   C4B51910  19.061  19.635   7.242
 4016POPC   NC351911  42.515   4.162   5.436
 4016POPC   PO451912  42.219   4.705   5.503
 4016POPC   GL151913  42.147   4.412   5.826
 4016POPC   GL251914  42.225   4.040   5.845
 4016POPC   C1A51915  42.166   4.428   6.256
 4016POPC   D2A51916  42.397   4.360   6.626
 4016POPC   C3A51917  42.093   4.308   6.947
 4016POPC   C4A51918  42.148   4.474   7.348
 4016POPC   C1B51919  42.497   4.021   6.213
 4016POPC   C2B51920  42.582   3.871   6.636
 4016POPC   C3B51921  42.552   4.036   7.042
 4016POPC   C4B51922  42.586   3.885   7.450
 4017POPC   NC351923  39.498  11.805   5.529
 4017POPC   PO451924  40.204  11.878   5.422
 4017POPC   GL151925  40.125  11.997   5.832
 4017POPC   GL251926  39.791  12.181   5.854
 4017POPC   C1A51927  40.069  11.887   6.256
 4017POPC   D2A51928  40.010  12.167   6.594
 4017POPC   C3A51929  40.198  12.077   6.976
 4017POPC   C4A51930  40.150  12.202   7.416
 4017POPC   C1B51931  39.634  12.398   6.249
 4017POPC   C2B51932  39.560  12.408   6.716
 4017POPC   C3B51933  39.738  12.281   7.137
 4017POPC   C4B51934  39.601  12.295   7.615
 4018POPC   NC351935  32.091  39.987   5.482
 4018POPC   PO451936  32.744  40.188   5.454
 4018POPC   GL151937  32.431  40.167   5.827
 4018POPC   GL251938  32.402  39.792   5.875
 4018POPC   C1A51939  32.233  40.111   6.265
 4018POPC   D2A51940  32.384  39.965   6.670
 4018POPC   C3A51941  32.233  40.218   7.013
 4018POPC   C4A51942  31.939  40.311   7.291
 4018POPC   C1B51943  32.023  39.680   6.135
 4018POPC   C2B51944  31.872  39.834   6.570
 4018POPC   C3B51945  32.074  39.728   6.997
 4018POPC   C4B51946  32.475  39.791   7.178
 4019POPC   NC351947  20.004  44.506   5.454
 4019POPC   PO451948  19.561  44.948   5.637
 4019POPC   GL151949  19.754  44.871   5.988
 4019POPC   GL251950  19.846  44.543   5.947
 4019POPC   C1A51951  19.779  44.770   6.433
 4019POPC   D2A51952  19.803  44.617   6.842
 4019POPC   C3A51953  19.749  44.943   7.135
 4019POPC   C4A51954  20.013   0.272   7.265
 4019POPC   C1B51955  20.213  44.644   6.217
 4019POPC   C2B51956  20.366  44.681   6.678
 4019POPC   C3B51957  20.258  44.528   7.120
 4019POPC   C4B51958  19.856  44.465   7.348
 4020POPC   NC351959  21.642  38.190   5.469
 4020POPC   PO451960  21.156  38.697   5.458
 4020POPC   GL151961  21.370  38.505   5.830
 4020POPC   GL251962  21.760  38.524   5.841
 4020POPC   C1A51963  21.501  38.670   6.246
 4020POPC   D2A51964  21.344  38.619   6.671
 4020POPC   C3A51965  21.262  38.868   7.039
 4020POPC   C4A51966  21.448  38.787   7.458
 4020POPC   C1B51967  21.659  38.191   6.179
 4020POPC   C2B51968  21.626  38.178   6.664
 4020POPC   C3B51969  21.570  38.402   7.101
 4020POPC   C4B51970  21.713  38.363   7.557
 4021POPC   NC351971  17.472   4.699   5.267
 4021POPC   PO451972  17.699   5.379   5.344
 4021POPC   GL151973  17.618   5.224   5.768
 4021POPC   GL251974  17.416   4.914   5.748
 4021POPC   C1A51975  17.765   5.130   6.199
 4021POPC   D2A51976  17.568   5.316   6.563
 4021POPC   C3A51977  17.625   5.144   6.992
 4021POPC   C4A51978  17.408   5.324   7.361
 4021POPC   C1B51979  17.288   4.975   6.177
 4021POPC   C2B51980  17.383   4.819   6.599
 4021POPC   C3B51981  17.240   4.765   7.035
 4021POPC   C4B51982  17.484   4.809   7.402
 4022POPC   NC351983   7.958  21.924   5.311
 4022POPC   PO451984   8.297  22.511   5.429
 4022POPC   GL151985   8.222  22.230   5.754
 4022POPC   GL251986   7.877  22.236   5.716
 4022POPC   C1A51987   8.047  22.319   6.201
 4022POPC   D2A51988   8.051  22.107   6.612
 4022POPC   C3A51989   8.225  22.182   7.048
 4022POPC   C4A51990   8.493  21.869   7.311
 4022POPC   C1B51991   7.686  21.977   6.080
 4022POPC   C2B51992   7.546  21.980   6.544
 4022POPC   C3B51993   7.721  21.901   6.963
 4022POPC   C4B51994   7.906  21.930   7.370
 4023POPC   NC351995  33.087  31.664   5.408
 4023POPC   PO451996  32.468  31.400   5.219
 4023POPC   GL151997  32.844  31.271   5.603
 4023POPC   GL251998  32.784  31.496   5.895
 4023POPC   C1A51999  33.150  31.216   6.056
 4023POPC   D2A52000  33.123  31.349   6.556
 4023POPC   C3A52001  33.298  31.411   7.019
 4023POPC   C4A52002  33.358  31.480   7.532
 4023POPC   C1B52003  32.696  31.193   6.287
 4023POPC   C2B52004  32.681  31.164   6.766
 4023POPC   C3B52005  32.885  31.166   7.188
 4023POPC   C4B52006  32.912  31.241   7.659
 4024POPC   NC352007  40.863  13.953   5.458
 4024POPC   PO452008  40.410  13.494   5.567
 4024POPC   GL152009  40.758  13.578   5.845
 4024POPC   GL252010  40.982  13.279   5.929
 4024POPC   C1A52011  40.956  13.695   6.230
 4024POPC   D2A52012  41.106  13.979   6.544
 4024POPC   C3A52013  40.982  13.805   6.924
 4024POPC   C4A52014  41.156  13.815   7.322
 4024POPC   C1B52015  40.628  13.248   6.210
 4024POPC   C2B52016  40.759  13.364   6.609
 4024POPC   C3B52017  40.569  13.366   6.977
 4024POPC   C4B52018  40.681  13.623   7.312
 4025POPC   NC352019   6.223  24.622   5.381
 4025POPC   PO452020   5.582  24.330   5.348
 4025POPC   GL152021   5.839  24.440   5.717
 4025POPC   GL252022   5.668  24.705   5.933
 4025POPC   C1A52023   5.911  24.290   6.146
 4025POPC   D2A52024   5.790  24.463   6.540
 4025POPC   C3A52025   5.929  24.394   6.951
 4025POPC   C4A52026   5.890  24.635   7.330
 4025POPC   C1B52027   6.007  24.793   6.205
 4025POPC   C2B52028   6.073  24.891   6.646
 4025POPC   C3B52029   6.281  24.800   7.034
 4025POPC   C4B52030   6.321  24.835   7.498
 4026POPC   NC352031  41.277  29.005   5.626
 4026POPC   PO452032  41.907  29.241   5.393
 4026POPC   GL152033  41.857  29.238   5.856
 4026POPC   GL252034  41.591  29.007   6.036
 4026POPC   C1A52035  41.694  29.403   6.293
 4026POPC   D2A52036  41.565  29.122   6.629
 4026POPC   C3A52037  41.748  29.162   7.023
 4026POPC   C4A52038  41.667  29.395   7.353
 4026POPC   C1B52039  41.275  28.831   6.305
 4026POPC   C2B52040  41.077  28.786   6.715
 4026POPC   C3B52041  41.225  29.034   7.066
 4026POPC   C4B52042  41.484  28.892   7.395
 4027POPC   NC352043   8.876  26.700   5.290
 4027POPC   PO452044   9.345  27.109   5.145
 4027POPC   GL152045   9.234  26.792   5.612
 4027POPC   GL252046   8.873  26.840   5.784
 4027POPC   C1A52047   9.248  26.725   6.101
 4027POPC   D2A52048   9.011  26.964   6.440
 4027POPC   C3A52049   9.167  26.945   6.871
 4027POPC   C4A52050   9.268  26.891   7.294
 4027POPC   C1B52051   8.672  26.642   6.191
 4027POPC   C2B52052   8.735  26.590   6.670
 4027POPC   C3B52053   8.881  26.592   7.118
 4027POPC   C4B52054   8.863  26.728   7.560
 4028POPC   NC352055   4.410   3.057   5.558
 4028POPC   PO452056   3.912   2.549   5.350
 4028POPC   GL152057   3.980   2.824   5.755
 4028POPC   GL252058   4.302   2.743   5.934
 4028POPC   C1A52059   3.978   2.993   6.215
 4028POPC   D2A52060   3.883   2.768   6.630
 4028POPC   C3A52061   4.084   2.799   7.059
 4028POPC   C4A52062   3.947   2.974   7.466
 4028POPC   C1B52063   4.309   2.640   6.367
 4028POPC   C2B52064   4.340   3.012   6.643
 4028POPC   C3B52065   4.528   3.065   7.020
 4028POPC   C4B52066   4.609   2.667   7.180
 4029POPC   NC352067  15.567  23.420   5.209
 4029POPC   PO452068  16.118  23.590   5.459
 4029POPC   GL152069  15.938  23.747   5.804
 4029POPC   GL252070  15.688  23.913   5.591
 4029POPC   C1A52071  15.790  23.628   6.242
 4029POPC   D2A52072  15.567  23.506   6.634
 4029POPC   C3A52073  15.875  23.451   6.952
 4029POPC   C4A52074  15.957  23.621   7.373
 4029POPC   C1B52075  15.531  23.995   6.016
 4029POPC   C2B52076  15.579  24.039   6.488
 4029POPC   C3B52077  15.734  23.975   6.963
 4029POPC   C4B52078  15.622  24.005   7.423
 4030POPC   NC352079  44.728  37.367   5.432
 4030POPC   PO452080  44.286  37.872   5.475
 4030POPC   GL152081  44.589  37.861   5.804
 4030POPC   GL252082  44.652  37.557   5.899
 4030POPC   C1A52083  44.574  37.926   6.250
 4030POPC   D2A52084  44.539  37.666   6.652
 4030POPC   C3A52085  44.473  37.951   6.980
 4030POPC   C4A52086  44.381  37.994   7.369
 4030POPC   C1B52087  44.862  37.484   6.300
 4030POPC   C2B52088  44.998  37.475   6.760
 4030POPC   C3B52089  44.830  37.619   7.172
 4030POPC   C4B52090  44.997  37.542   7.626
 4031POPC   NC352091  16.816  14.903   5.426
 4031POPC   PO452092  16.813  15.581   5.735
 4031POPC   GL152093  16.867  15.164   5.873
 4031POPC   GL252094  16.535  15.021   5.840
 4031POPC   C1A52095  16.837  15.065   6.295
 4031POPC   D2A52096  16.676  15.362   6.588
 4031POPC   C3A52097  16.685  15.183   6.989
 4031POPC   C4A52098  16.941  15.364   7.290
 4031POPC   C1B52099  16.326  15.151   6.219
 4031POPC   C2B52100  16.370  14.942   6.600
 4031POPC   C3B52101  16.212  14.969   6.983
 4031POPC   C4B52102  16.373  14.893   7.353
 4032POPC   NC352103  19.085  43.070   5.143
 4032POPC   PO452104  18.616  43.438   5.248
 4032POPC   GL152105  18.900  43.225   5.721
 4032POPC   GL252106  19.034  42.887   5.656
 4032POPC   C1A52107  19.221  43.327   6.131
 4032POPC   D2A52108  19.447  43.428   6.536
 4032POPC   C3A52109  19.232  43.366   6.954
 4032POPC   C4A52110  18.847  43.257   7.181
 4032POPC   C1B52111  19.073  42.847   6.131
 4032POPC   C2B52112  19.156  42.973   6.599
 4032POPC   C3B52113  19.125  42.866   7.077
 4032POPC   C4B52114  18.810  42.823   7.440
 4033POPC   NC352115   4.698  35.356   5.477
 4033POPC   PO452116   4.091  35.400   5.427
 4033POPC   GL152117   4.256  35.393   5.867
 4033POPC   GL252118   4.535  35.619   5.895
 4033POPC   C1A52119   4.356  35.195   6.305
 4033POPC   D2A52120   4.477  34.879   6.661
 4033POPC   C3A52121   4.331  35.046   7.057
 4033POPC   C4A52122   4.127  35.429   7.200
 4033POPC   C1B52123   4.776  35.772   6.231
 4033POPC   C2B52124   4.662  35.857   6.656
 4033POPC   C3B52125   4.833  35.825   7.057
 4033POPC   C4B52126   4.663  35.456   7.260
 4034POPC   NC352127  35.256  19.904   5.448
 4034POPC   PO452128  35.308  19.330   5.131
 4034POPC   GL152129  35.258  19.392   5.682
 4034POPC   GL252130  35.134  19.691   5.912
 4034POPC   C1A52131  35.485  19.390   6.109
 4034POPC   D2A52132  35.521  19.740   6.406
 4034POPC   C3A52133  35.411  19.681   6.848
 4034POPC   C4A52134  35.620  19.739   7.233
 4034POPC   C1B52135  35.061  19.998   6.284
 4034POPC   C2B52136  35.098  20.089   6.745
 4034POPC   C3B52137  34.935  19.882   7.121
 4034POPC   C4B52138  34.938  19.920   7.605
 4035POPC   NC352139   3.871  32.726   5.484
 4035POPC   PO452140   3.351  32.184   5.361
 4035POPC   GL152141   3.384  32.100   5.803
 4035POPC   GL252142   3.705  32.310   5.807
 4035POPC   C1A52143   3.419  32.281   6.220
 4035POPC   D2A52144   3.711  32.406   6.522
 4035POPC   C3A52145   3.519  32.305   6.901
 4035POPC   C4A52146   3.565  32.378   7.315
 4035POPC   C1B52147   3.869  32.040   6.159
 4035POPC   C2B52148   3.900  31.949   6.603
 4035POPC   C3B52149   3.971  32.154   7.003
 4035POPC   C4B52150   4.129  32.226   7.409
 4036POPC   NC352151  42.621  13.368   5.549
 4036POPC   PO452152  42.037  13.815   5.453
 4036POPC   GL152153  42.222  13.600   5.793
 4036POPC   GL252154  42.136  13.270   5.720
 4036POPC   C1A52155  42.405  13.492   6.191
 4036POPC   D2A52156  42.617  13.414   6.569
 4036POPC   C3A52157  42.451  13.496   6.976
 4036POPC   C4A52158  42.504  13.831   7.237
 4036POPC   C1B52159  41.918  13.260   6.115
 4036POPC   C2B52160  42.092  13.252   6.550
 4036POPC   C3B52161  42.023  13.221   6.984
 4036POPC   C4B52162  42.129  13.309   7.398
 4037POPC   NC352163  18.567  43.018   5.437
 4037POPC   PO452164  17.933  43.321   5.273
 4037POPC   GL152165  18.059  43.109   5.679
 4037POPC   GL252166  18.381  43.285   5.822
 4037POPC   C1A52167  18.016  43.155   6.144
 4037POPC   D2A52168  18.243  43.389   6.475
 4037POPC   C3A52169  18.103  43.292   6.906
 4037POPC   C4A52170  18.385  43.437   7.201
 4037POPC   C1B52171  18.531  43.025   6.197
 4037POPC   C2B52172  18.406  42.899   6.640
 4037POPC   C3B52173  18.416  42.900   7.109
 4037POPC   C4B52174  18.349  43.069   7.548
 4038POPC   NC352175  27.433  22.607   5.531
 4038POPC   PO452176  27.548  21.927   5.288
 4038POPC   GL152177  27.471  21.979   5.770
 4038POPC   GL252178  27.668  22.249   5.795
 4038POPC   C1A52179  27.504  21.875   6.271
 4038POPC   D2A52180  27.560  22.064   6.728
 4038POPC   C3A52181  27.514  21.858   7.138
 4038POPC   C4A52182  27.119  21.741   7.310
 4038POPC   C1B52183  27.810  22.289   6.162
 4038POPC   C2B52184  27.809  22.471   6.546
 4038POPC   C3B52185  27.955  22.394   6.915
 4038POPC   C4B52186  27.794  22.294   7.271
 4039POPC   NC352187  28.199  15.289   5.445
 4039POPC   PO452188  28.788  14.986   5.366
 4039POPC   GL152189  28.525  15.014   5.777
 4039POPC   GL252190  28.397  15.350   5.902
 4039POPC   C1A52191  28.610  15.070   6.246
 4039POPC   D2A52192  28.421  14.924   6.613
 4039POPC   C3A52193  28.354  15.081   7.034
 4039POPC   C4A52194  28.320  14.902   7.441
 4039POPC   C1B52195  28.147  15.295   6.283
 4039POPC   C2B52196  28.056  15.514   6.669
 4039POPC   C3B52197  27.941  15.394   7.079
 4039POPC   C4B52198  28.042  15.354   7.507
 4040POPC   NC352199  37.869  43.573   5.523
 4040POPC   PO452200  37.447  42.916   5.505
 4040POPC   GL152201  37.481  43.116   5.868
 4040POPC   GL252202  37.837  43.187   5.847
 4040POPC   C1A52203  37.627  43.009   6.266
 4040POPC   D2A52204  37.877  42.744   6.501
 4040POPC   C3A52205  37.745  42.914   6.856
 4040POPC   C4A52206  37.623  42.903   7.260
 4040POPC   C1B52207  37.985  43.424   6.211
 4040POPC   C2B52208  38.101  43.615   6.599
 4040POPC   C3B52209  38.137  43.514   7.027
 4040POPC   C4B52210  38.037  43.165   7.244
 4041POPC   NC352211  35.945  39.874   5.384
 4041POPC   PO452212  36.047  40.523   5.397
 4041POPC   GL152213  36.146  40.242   5.750
 4041POPC   GL252214  35.861  40.048   5.868
 4041POPC   C1A52215  36.231  40.177   6.208
 4041POPC   D2A52216  36.158  40.306   6.649
 4041POPC   C3A52217  36.396  40.264   7.004
 4041POPC   C4A52218  36.460  40.398   7.416
 4041POPC   C1B52219  35.760  40.006   6.308
 4041POPC   C2B52220  35.798  39.788   6.689
 4041POPC   C3B52221  35.993  39.966   7.045
 4041POPC   C4B52222  36.274  39.907   7.407
 4042POPC   NC352223  23.632  29.642   5.272
 4042POPC   PO452224  23.422  30.160   5.523
 4042POPC   GL152225  23.717  29.902   5.800
 4042POPC   GL252226  23.602  29.571   5.785
 4042POPC   C1A52227  23.895  29.870   6.243
 4042POPC   D2A52228  24.064  30.003   6.689
 4042POPC   C3A52229  23.825  29.850   7.093
 4042POPC   C4A52230  23.921  29.812   7.542
 4042POPC   C1B52231  23.519  29.490   6.216
 4042POPC   C2B52232  23.281  29.614   6.603
 4042POPC   C3B52233  23.433  29.495   7.034
 4042POPC   C4B52234  23.391  29.633   7.465
 4043POPC   NC352235  12.929   4.452   5.300
 4043POPC   PO452236  12.579   3.952   5.438
 4043POPC   GL152237  12.767   4.086   5.790
 4043POPC   GL252238  12.720   4.449   5.800
 4043POPC   C1A52239  12.984   4.207   6.169
 4043POPC   D2A52240  12.916   4.437   6.536
 4043POPC   C3A52241  12.960   4.196   6.905
 4043POPC   C4A52242  13.041   4.396   7.278
 4043POPC   C1B52243  12.408   4.505   6.135
 4043POPC   C2B52244  12.396   4.531   6.574
 4043POPC   C3B52245  12.644   4.601   6.960
 4043POPC   C4B52246  12.569   4.514   7.423
 4044POPC   NC352247  20.576  21.705   5.358
 4044POPC   PO452248  20.704  21.100   5.449
 4044POPC   GL152249  20.558  21.235   5.869
 4044POPC   GL252250  20.364  21.557   5.809
 4044POPC   C1A52251  20.791  21.223   6.299
 4044POPC   D2A52252  20.839  21.113   6.756
 4044POPC   C3A52253  20.815  21.461   7.048
 4044POPC   C4A52254  20.838  21.647   7.461
 4044POPC   C1B52255  20.472  21.603   6.246
 4044POPC   C2B52256  20.392  21.351   6.632
 4044POPC   C3B52257  20.292  21.458   7.030
 4044POPC   C4B52258  20.476  21.851   7.150
 4045POPC   NC352259  26.450  17.180   5.354
 4045POPC   PO452260  26.828  17.692   5.246
 4045POPC   GL152261  26.667  17.593   5.667
 4045POPC   GL252262  26.730  17.240   5.804
 4045POPC   C1A52263  26.870  17.684   6.075
 4045POPC   D2A52264  27.078  17.637   6.491
 4045POPC   C3A52265  26.984  17.905   6.863
 4045POPC   C4A52266  27.059  17.764   7.273
 4045POPC   C1B52267  26.747  17.217   6.278
 4045POPC   C2B52268  26.751  17.228   6.744
 4045POPC   C3B52269  26.711  17.387   7.169
 4045POPC   C4B52270  26.560  17.247   7.579
 4046POPC   NC352271   1.436  31.795   5.480
 4046POPC   PO452272   0.990  31.330   5.375
 4046POPC   GL152273   1.273  31.392   5.756
 4046POPC   GL252274   1.048  31.666   5.799
 4046POPC   C1A52275   1.491  31.289   6.192
 4046POPC   D2A52276   1.703  31.246   6.632
 4046POPC   C3A52277   1.424  31.300   6.995
 4046POPC   C4A52278   1.325  31.724   7.108
 4046POPC   C1B52279   0.999  31.432   6.176
 4046POPC   C2B52280   1.109  31.540   6.603
 4046POPC   C3B52281   0.926  31.882   6.832
 4046POPC   C4B52282   0.778  31.745   7.245
 4047POPC   NC352283  20.066  28.497   5.320
 4047POPC   PO452284  20.168  27.936   5.554
 4047POPC   GL152285  19.950  28.248   5.831
 4047POPC   GL252286  19.869  28.575   5.791
 4047POPC   C1A52287  19.907  28.441   6.271
 4047POPC   D2A52288  20.141  28.601   6.614
 4047POPC   C3A52289  19.964  28.493   7.009
 4047POPC   C4A52290  19.596  28.395   7.231
 4047POPC   C1B52291  19.548  28.755   6.091
 4047POPC   C2B52292  19.635  28.867   6.577
 4047POPC   C3B52293  19.517  28.903   7.068
 4047POPC   C4B52294  19.563  28.792   7.556
 4048POPC   NC352295  23.648  11.613   5.601
 4048POPC   PO452296  24.012  11.128   5.272
 4048POPC   GL152297  23.842  11.143   5.727
 4048POPC   GL252298  23.478  11.143   5.766
 4048POPC   C1A52299  23.910  11.253   6.183
 4048POPC   D2A52300  23.769  11.526   6.528
 4048POPC   C3A52301  23.778  11.440   6.986
 4048POPC   C4A52302  23.584  11.560   7.416
 4048POPC   C1B52303  23.549  10.862   6.111
 4048POPC   C2B52304  23.601  11.015   6.529
 4048POPC   C3B52305  23.415  10.975   6.911
 4048POPC   C4B52306  23.600  11.055   7.288
 4049POPC   NC352307  41.365   2.440   5.701
 4049POPC   PO452308  40.900   2.757   5.334
 4049POPC   GL152309  40.928   2.679   5.812
 4049POPC   GL252310  40.654   2.488   5.803
 4049POPC   C1A52311  40.901   2.438   6.260
 4049POPC   D2A52312  40.665   2.402   6.668
 4049POPC   C3A52313  40.903   2.567   7.022
 4049POPC   C4A52314  40.901   2.945   7.308
 4049POPC   C1B52315  40.523   2.796   6.143
 4049POPC   C2B52316  40.334   2.834   6.559
 4049POPC   C3B52317  40.510   2.876   6.943
 4049POPC   C4B52318  40.457   2.655   7.295
 4050POPC   NC352319  20.757  11.554   5.063
 4050POPC   PO452320  20.502  11.773   5.695
 4050POPC   GL152321  20.755  11.449   5.857
 4050POPC   GL252322  20.459  11.269   5.941
 4050POPC   C1A52323  20.892  11.121   6.130
 4050POPC   D2A52324  21.010  11.049   6.525
 4050POPC   C3A52325  20.772  11.283   6.817
 4050POPC   C4A52326  20.544  11.113   7.178
 4050POPC   C1B52327  20.523  11.489   6.368
 4050POPC   C2B52328  20.274  11.428   6.787
 4050POPC   C3B52329  20.240  11.532   7.242
 4050POPC   C4B52330  20.618  11.550   7.480
 4051POPC   NC352331   4.884  29.050   5.482
 4051POPC   PO452332   5.301  29.479   5.535
 4051POPC   GL152333   5.196  29.242   5.886
 4051POPC   GL252334   4.824  29.263   5.952
 4051POPC   C1A52335   5.186  29.207   6.325
 4051POPC   D2A52336   5.049  28.867   6.607
 4051POPC   C3A52337   5.289  28.977   6.941
 4051POPC   C4A52338   5.302  28.984   7.372
 4051POPC   C1B52339   4.782  29.526   6.351
 4051POPC   C2B52340   4.952  29.350   6.763
 4051POPC   C3B52341   4.846  29.112   7.116
 4051POPC   C4B52342   4.897  29.246   7.547
 4052POPC   NC352343  43.694  12.728   5.315
 4052POPC   PO452344  44.319  12.742   5.502
 4052POPC   GL152345  43.964  12.909   5.756
 4052POPC   GL252346  43.589  12.816   5.809
 4052POPC   C1A52347  43.918  12.952   6.219
 4052POPC   D2A52348  43.896  12.989   6.670
 4052POPC   C3A52349  43.955  12.718   7.055
 4052POPC   C4A52350  43.873  13.042   7.381
 4052POPC   C1B52351  43.406  12.957   6.223
 4052POPC   C2B52352  43.414  12.812   6.660
 4052POPC   C3B52353  43.455  12.656   7.089
 4052POPC   C4B52354  43.683  12.604   7.513
 4053POPC   NC352355  36.451  35.840   5.644
 4053POPC   PO452356  35.925  36.109   5.309
 4053POPC   GL152357  36.065  36.160   5.733
 4053POPC   GL252358  36.284  36.451   5.826
 4053POPC   C1A52359  36.031  35.953   6.145
 4053POPC   D2A52360  36.316  35.820   6.473
 4053POPC   C3A52361  36.259  36.087   6.829
 4053POPC   C4A52362  36.171  36.015   7.300
 4053POPC   C1B52363  36.354  36.326   6.295
 4053POPC   C2B52364  36.568  36.493   6.676
 4053POPC   C3B52365  36.601  36.289   7.126
 4053POPC   C4B52366  36.475  36.305   7.596
 4054POPC   NC352367  26.893  40.376   5.241
 4054POPC   PO452368  26.538  39.777   5.207
 4054POPC   GL152369  26.683  39.875   5.658
 4054POPC   GL252370  26.741  40.245   5.732
 4054POPC   C1A52371  26.568  39.924   6.119
 4054POPC   D2A52372  26.558  40.174   6.504
 4054POPC   C3A52373  26.526  39.913   6.899
 4054POPC   C4A52374  26.719  39.878   7.310
 4054POPC   C1B52375  26.981  40.260   6.140
 4054POPC   C2B52376  26.975  40.462   6.562
 4054POPC   C3B52377  26.944  40.215   6.950
 4054POPC   C4B52378  27.126  40.193   7.358
 4055POPC   NC352379  29.472   9.245   5.443
 4055POPC   PO452380  29.042   8.757   5.317
 4055POPC   GL152381  29.178   8.924   5.775
 4055POPC   GL252382  29.379   9.237   5.937
 4055POPC   C1A52383  29.005   9.067   6.205
 4055POPC   D2A52384  29.222   9.266   6.570
 4055POPC   C3A52385  29.077   9.104   6.965
 4055POPC   C4A52386  28.966   8.969   7.366
 4055POPC   C1B52387  29.711   9.324   6.244
 4055POPC   C2B52388  29.714   9.456   6.684
 4055POPC   C3B52389  29.522   9.330   7.088
 4055POPC   C4B52390  29.336   9.281   7.521
 4056POPC   NC352391   0.815  42.822   5.191
 4056POPC   PO452392   0.407  43.222   5.404
 4056POPC   GL152393   0.247  43.073   5.753
 4056POPC   GL252394   0.410  42.773   5.858
 4056POPC   C1A52395   0.197  43.128   6.189
 4056POPC   D2A52396   0.024  43.117   6.599
 4056POPC   C3A52397   0.215  43.090   7.007
 4056POPC   C4A52398   0.608  42.938   7.171
 4056POPC   C1B52399   0.625  42.836   6.258
 4056POPC   C2B52400   0.542  43.099   6.606
 4056POPC   C3B52401   0.634  43.390   6.941
 4056POPC   C4B52402   1.033  43.367   7.178
 4057POPC   NC352403  28.512  13.833   5.492
 4057POPC   PO452404  28.082  13.250   5.509
 4057POPC   GL152405  28.162  13.601   5.788
 4057POPC   GL252406  28.479  13.474   5.893
 4057POPC   C1A52407  28.201  13.771   6.217
 4057POPC   D2A52408  28.384  13.645   6.614
 4057POPC   C3A52409  28.163  13.571   7.008
 4057POPC   C4A52410  28.346  13.508   7.394
 4057POPC   C1B52411  28.652  13.333   6.285
 4057POPC   C2B52412  28.873  13.515   6.641
 4057POPC   C3B52413  28.718  13.552   7.029
 4057POPC   C4B52414  28.846  13.389   7.416
 4058POPC   NC352415  42.965  11.976   5.072
 4058POPC   PO452416  43.395  12.381   5.382
 4058POPC   GL152417  43.235  12.307   5.805
 4058POPC   GL252418  42.873  12.208   5.753
 4058POPC   C1A52419  43.235  12.144   6.250
 4058POPC   D2A52420  43.277  12.326   6.694
 4058POPC   C3A52421  43.167  12.249   7.174
 4058POPC   C4A52422  43.503  12.139   7.515
 4058POPC   C1B52423  42.732  12.109   6.172
 4058POPC   C2B52424  42.912  11.928   6.569
 4058POPC   C3B52425  42.805  11.827   6.967
 4058POPC   C4B52426  42.689  12.022   7.287
 4059POPC   NC352427  32.957   9.264   5.299
 4059POPC   PO452428  33.369   8.902   5.512
 4059POPC   GL152429  33.130   9.080   5.829
 4059POPC   GL252430  32.787   9.160   5.791
 4059POPC   C1A52431  33.029   8.969   6.258
 4059POPC   D2A52432  32.943   8.764   6.640
 4059POPC   C3A52433  33.027   8.958   7.035
 4059POPC   C4A52434  33.385   9.146   7.206
 4059POPC   C1B52435  32.567   9.185   6.174
 4059POPC   C2B52436  32.610   9.155   6.590
 4059POPC   C3B52437  32.538   9.116   7.016
 4059POPC   C4B52438  32.600   8.815   7.325
 4060POPC   NC352439  18.847  15.009   5.210
 4060POPC   PO452440  19.510  14.952   5.465
 4060POPC   GL152441  19.150  15.115   5.704
 4060POPC   GL252442  18.897  14.873   5.709
 4060POPC   C1A52443  19.135  15.237   6.162
 4060POPC   D2A52444  19.281  15.385   6.586
 4060POPC   C3A52445  19.140  15.221   6.965
 4060POPC   C4A52446  19.144  15.400   7.384
 4060POPC   C1B52447  18.710  14.973   6.111
 4060POPC   C2B52448  18.744  14.876   6.517
 4060POPC   C3B52449  18.654  15.014   6.912
 4060POPC   C4B52450  18.844  14.956   7.291
 4061POPC   NC352451  31.791  27.893   5.432
 4061POPC   PO452452  31.616  27.233   5.384
 4061POPC   GL152453  31.399  27.396   5.769
 4061POPC   GL252454  31.341  27.768   5.742
 4061POPC   C1A52455  31.281  27.279   6.201
 4061POPC   D2A52456  31.435  27.186   6.627
 4061POPC   C3A52457  31.340  27.422   7.002
 4061POPC   C4A52458  31.480  27.450   7.438
 4061POPC   C1B52459  31.075  27.753   6.117
 4061POPC   C2B52460  31.266  27.686   6.543
 4061POPC   C3B52461  31.477  27.919   6.894
 4061POPC   C4B52462  31.292  27.897   7.263
 4062POPC   NC352463  14.020  25.084   5.619
 4062POPC   PO452464  14.670  25.224   5.516
 4062POPC   GL152465  14.664  25.357   5.937
 4062POPC   GL252466  14.431  25.091   5.996
 4062POPC   C1A52467  14.370  25.549   6.237
 4062POPC   D2A52468  14.269  25.475   6.660
 4062POPC   C3A52469  13.980  25.674   6.920
 4062POPC   C4A52470  14.222  25.439   7.209
 4062POPC   C1B52471  14.097  25.110   6.327
 4062POPC   C2B52472  13.937  25.119   6.793
 4062POPC   C3B52473  14.170  24.938   7.198
 4062POPC   C4B52474  14.412  25.036   7.624
 4063POPC   NC352475   1.599  40.390   5.433
 4063POPC   PO452476   1.085  39.859   5.468
 4063POPC   GL152477   1.183  40.000   5.853
 4063POPC   GL252478   1.288  40.325   5.822
 4063POPC   C1A52479   1.219  39.877   6.268
 4063POPC   D2A52480   1.416  39.929   6.658
 4063POPC   C3A52481   1.157  39.865   6.995
 4063POPC   C4A52482   1.266  39.815   7.412
 4063POPC   C1B52483   1.074  40.382   6.186
 4063POPC   C2B52484   1.032  40.250   6.586
 4063POPC   C3B52485   1.109  40.377   6.996
 4063POPC   C4B52486   0.911  40.200   7.345
 4064POPC   NC352487  18.550  33.166   5.482
 4064POPC   PO452488  18.096  32.704   5.691
 4064POPC   GL152489  18.383  32.910   5.980
 4064POPC   GL252490  18.393  33.271   5.974
 4064POPC   C1A52491  18.433  32.975   6.432
 4064POPC   D2A52492  18.578  33.231   6.775
 4064POPC   C3A52493  18.422  33.003   7.139
 4064POPC   C4A52494  17.973  32.806   7.161
 4064POPC   C1B52495  18.004  33.212   6.236
 4064POPC   C2B52496  17.943  33.150   6.698
 4064POPC   C3B52497  18.018  33.315   7.128
 4064POPC   C4B52498  17.891  33.376   7.587
 4065POPC   NC352499  20.171  33.370   5.402
 4065POPC   PO452500  19.887  32.781   5.370
 4065POPC   GL152501  19.807  33.009   5.772
 4065POPC   GL252502  20.160  33.080   5.867
 4065POPC   C1A52503  19.837  33.004   6.244
 4065POPC   D2A52504  20.258  32.936   6.470
 4065POPC   C3A52505  20.198  32.984   6.925
 4065POPC   C4A52506  19.810  33.152   7.165
 4065POPC   C1B52507  20.133  32.645   6.036
 4065POPC   C2B52508  19.933  32.546   6.448
 4065POPC   C3B52509  19.767  32.637   6.854
 4065POPC   C4B52510  19.934  32.672   7.255
 4066POPC   NC352511   7.256  42.580   5.492
 4066POPC   PO452512   7.765  42.896   5.384
 4066POPC   GL152513   7.519  42.955   5.744
 4066POPC   GL252514   7.171  43.104   5.687
 4066POPC   C1A52515   7.400  42.784   6.143
 4066POPC   D2A52516   7.263  42.944   6.522
 4066POPC   C3A52517   7.482  42.880   6.895
 4066POPC   C4A52518   7.274  42.979   7.251
 4066POPC   C1B52519   7.315  43.289   6.096
 4066POPC   C2B52520   7.434  43.419   6.525
 4066POPC   C3B52521   7.297  43.362   6.905
 4066POPC   C4B52522   7.455  43.464   7.257
 4067POPC   NC352523   7.927  12.590   5.415
 4067POPC   PO452524   8.292  11.950   5.433
 4067POPC   GL152525   8.199  12.228   5.774
 4067POPC   GL252526   7.855  12.192   5.806
 4067POPC   C1A52527   8.175  12.244   6.233
 4067POPC   D2A52528   8.278  12.078   6.641
 4067POPC   C3A52529   8.149  12.244   7.020
 4067POPC   C4A52530   8.326  12.168   7.425
 4067POPC   C1B52531   7.720  12.001   6.198
 4067POPC   C2B52532   7.772  11.843   6.619
 4067POPC   C3B52533   7.672  12.034   7.003
 4067POPC   C4B52534   7.789  12.226   7.393
 4068POPC   NC352535  44.793  38.165   5.440
 4068POPC   PO452536  44.417  38.685   5.562
 4068POPC   GL152537  44.579  38.390   5.874
 4068POPC   GL252538  44.925  38.237   5.911
 4068POPC   C1A52539  44.684  38.431   6.299
 4068POPC   D2A52540  44.475  38.514   6.650
 4068POPC   C3A52541  44.657  38.463   6.996
 4068POPC   C4A52542  44.658  38.417   7.395
 4068POPC   C1B52543   0.056  38.044   6.289
 4068POPC   C2B52544  44.857  38.084   6.677
 4068POPC   C3B52545   0.001  38.115   7.105
 4068POPC   C4B52546  44.879  38.000   7.522
 4069POPC   NC352547  37.076  43.220   5.515
 4069POPC   PO452548  36.558  42.802   5.465
 4069POPC   GL152549  36.736  43.018   5.841
 4069POPC   GL252550  36.538  43.278   5.810
 4069POPC   C1A52551  37.093  43.020   6.200
 4069POPC   D2A52552  37.271  43.097   6.620
 4069POPC   C3A52553  37.032  43.130   6.985
 4069POPC   C4A52554  37.221  43.278   7.315
 4069POPC   C1B52555  36.793  43.422   6.155
 4069POPC   C2B52556  36.777  43.283   6.569
 4069POPC   C3B52557  36.623  43.467   6.966
 4069POPC   C4B52558  36.797  43.588   7.393
 4070POPC   NC352559   9.374  24.312   5.336
 4070POPC   PO452560   9.868  24.775   5.371
 4070POPC   GL152561   9.947  24.585   5.768
 4070POPC   GL252562   9.916  24.928   5.900
 4070POPC   C1A52563   9.886  24.311   6.146
 4070POPC   D2A52564   9.729  24.314   6.581
 4070POPC   C3A52565   9.969  24.307   6.949
 4070POPC   C4A52566   9.787  24.305   7.337
 4070POPC   C1B52567   9.810  24.785   6.313
 4070POPC   C2B52568   9.758  24.895   6.743
 4070POPC   C3B52569   9.860  24.775   7.164
 4070POPC   C4B52570  10.065  24.649   7.566
 4071POPC   NC352571  31.269  35.455   5.548
 4071POPC   PO452572  31.923  35.241   5.547
 4071POPC   GL152573  31.600  35.226   5.873
 4071POPC   GL252574  31.307  35.001   5.771
 4071POPC   C1A52575  31.529  35.380   6.299
 4071POPC   D2A52576  31.292  35.553   6.661
 4071POPC   C3A52577  31.576  35.788   6.936
 4071POPC   C4A52578  31.767  35.517   7.219
 4071POPC   C1B52579  31.222  34.964   6.205
 4071POPC   C2B52580  31.333  35.015   6.625
 4071POPC   C3B52581  31.377  35.198   7.043
 4071POPC   C4B52582  31.203  35.577   7.224
 4072POPC   NC352583  39.385  28.885   5.522
 4072POPC   PO452584  39.390  28.298   5.163
 4072POPC   GL152585  39.362  28.240   5.618
 4072POPC   GL252586  39.119  28.470   5.736
 4072POPC   C1A52587  39.607  28.169   6.025
 4072POPC   D2A52588  39.639  28.195   6.468
 4072POPC   C3A52589  39.350  28.084   6.788
 4072POPC   C4A52590  39.486  28.162   7.198
 4072POPC   C1B52591  39.184  28.431   6.196
 4072POPC   C2B52592  39.285  28.597   6.592
 4072POPC   C3B52593  39.190  28.533   7.007
 4072POPC   C4B52594  39.487  28.700   7.258
 4073POPC   NC352595  14.475   5.196   5.589
 4073POPC   PO452596  14.938   4.836   5.133
 4073POPC   GL152597  14.609   4.707   5.607
 4073POPC   GL252598  14.230   4.761   5.770
 4073POPC   C1A52599  14.605   4.822   6.122
 4073POPC   D2A52600  14.421   4.858   6.552
 4073POPC   C3A52601  14.637   5.148   6.852
 4073POPC   C4A52602  14.478   5.396   7.227
 4073POPC   C1B52603  13.994   4.693   6.215
 4073POPC   C2B52604  13.892   4.864   6.654
 4073POPC   C3B52605  14.104   5.110   6.931
 4073POPC   C4B52606  14.345   4.882   7.179
 4074POPC   NC352607  43.244   4.498   5.216
 4074POPC   PO452608  43.112   5.139   5.405
 4074POPC   GL152609  43.208   4.833   5.716
 4074POPC   GL252610  42.921   4.969   5.897
 4074POPC   C1A52611  43.370   4.953   6.154
 4074POPC   D2A52612  43.310   5.385   6.380
 4074POPC   C3A52613  43.456   5.434   6.814
 4074POPC   C4A52614  43.348   5.686   7.180
 4074POPC   C1B52615  42.909   5.050   6.341
 4074POPC   C2B52616  43.114   5.068   6.740
 4074POPC   C3B52617  43.169   5.182   7.169
 4074POPC   C4B52618  42.827   5.322   7.431
 4075POPC   NC352619  30.383  18.549   5.440
 4075POPC   PO452620  30.889  18.114   5.593
 4075POPC   GL152621  30.670  18.241   5.941
 4075POPC   GL252622  30.634  18.603   5.888
 4075POPC   C1A52623  30.801  18.259   6.374
 4075POPC   D2A52624  31.057  18.028   6.602
 4075POPC   C3A52625  30.993  18.096   7.011
 4075POPC   C4A52626  30.594  18.142   7.149
 4075POPC   C1B52627  30.387  18.511   6.277
 4075POPC   C2B52628  30.378  18.365   6.707
 4075POPC   C3B52629  30.313  18.560   7.114
 4075POPC   C4B52630  30.370  18.413   7.545
 4076POPC   NC352631  29.248   5.194   5.485
 4076POPC   PO452632  28.743   5.385   5.681
 4076POPC   GL152633  29.014   5.127   5.939
 4076POPC   GL252634  29.191   4.813   5.822
 4076POPC   C1A52635  29.214   5.236   6.332
 4076POPC   D2A52636  29.315   5.409   6.727
 4076POPC   C3A52637  29.107   5.203   7.086
 4076POPC   C4A52638  29.267   5.143   7.502
 4076POPC   C1B52639  29.421   4.775   6.221
 4076POPC   C2B52640  29.428   4.898   6.697
 4076POPC   C3B52641  29.358   4.743   7.153
 4076POPC   C4B52642  29.070   4.677   7.523
 4077POPC   NC352643  35.890  17.332   5.653
 4077POPC   PO452644  36.505  17.510   5.437
 4077POPC   GL152645  36.342  17.608   5.853
 4077POPC   GL252646  35.984  17.762   5.903
 4077POPC   C1A52647  36.434  17.564   6.298
 4077POPC   D2A52648  36.230  17.682   6.685
 4077POPC   C3A52649  36.410  17.626   7.097
 4077POPC   C4A52650  36.389  17.582   7.533
 4077POPC   C1B52651  35.884  17.548   6.292
 4077POPC   C2B52652  35.715  17.269   6.631
 4077POPC   C3B52653  35.900  17.406   7.030
 4077POPC   C4B52654  35.959  17.876   7.081
 4078POPC   NC352655  28.475  25.607   5.533
 4078POPC   PO452656  28.238  25.019   5.451
 4078POPC   GL152657  28.422  25.208   5.827
 4078POPC   GL252658  28.139  25.442   5.909
 4078POPC   C1A52659  28.555  25.378   6.238
 4078POPC   D2A52660  28.465  25.197   6.649
 4078POPC   C3A52661  28.489  25.372   7.074
 4078POPC   C4A52662  28.510  25.148   7.472
 4078POPC   C1B52663  28.108  25.087   6.202
 4078POPC   C2B52664  28.144  24.814   6.545
 4078POPC   C3B52665  28.026  25.010   6.934
 4078POPC   C4B52666  28.027  25.275   7.337
 4079POPC   NC352667  23.549   4.307   5.501
 4079POPC   PO452668  24.211   4.389   5.464
 4079POPC   GL152669  23.948   4.308   5.859
 4079POPC   GL252670  23.729   3.987   5.850
 4079POPC   C1A52671  23.811   4.336   6.305
 4079POPC   D2A52672  23.796   4.609   6.691
 4079POPC   C3A52673  23.842   4.344   6.979
 4079POPC   C4A52674  23.762   4.126   7.320
 4079POPC   C1B52675  23.397   4.100   6.140
 4079POPC   C2B52676  23.447   4.114   6.588
 4079POPC   C3B52677  23.355   4.176   6.999
 4079POPC   C4B52678  23.296   3.939   7.347
 4080POPC   NC352679  12.160  29.842   5.451
 4080POPC   PO452680  12.204  30.452   5.142
 4080POPC   GL152681  12.368  30.263   5.663
 4080POPC   GL252682  12.400  29.943   5.871
 4080POPC   C1A52683  12.212  30.269   6.186
 4080POPC   D2A52684  12.230  30.024   6.624
 4080POPC   C3A52685  12.261  30.217   7.069
 4080POPC   C4A52686  12.495  30.061   7.454
 4080POPC   C1B52687  12.149  29.696   6.174
 4080POPC   C2B52688  11.930  29.596   6.591
 4080POPC   C3B52689  11.890  29.696   7.059
 4080POPC   C4B52690  11.761  29.721   7.514
 4081POPC   NC352691  35.856   8.521   5.369
 4081POPC   PO452692  36.017   9.128   5.457
 4081POPC   GL152693  35.952   8.817   5.778
 4081POPC   GL252694  36.251   8.722   5.828
 4081POPC   C1A52695  35.975   8.847   6.241
 4081POPC   D2A52696  36.056   9.245   6.439
 4081POPC   C3A52697  36.115   9.188   6.884
 4081POPC   C4A52698  35.848   9.407   7.177
 4081POPC   C1B52699  36.450   9.003   6.115
 4081POPC   C2B52700  36.416   8.914   6.537
 4081POPC   C3B52701  36.481   8.801   6.936
 4081POPC   C4B52702  36.273   8.507   7.144
 4082POPC   NC352703  20.275  13.888   5.567
 4082POPC   PO452704  20.894  13.729   5.236
 4082POPC   GL152705  20.876  13.484   5.668
 4082POPC   GL252706  20.510  13.394   5.772
 4082POPC   C1A52707  20.841  13.530   6.132
 4082POPC   D2A52708  20.592  13.606   6.465
 4082POPC   C3A52709  20.640  13.450   6.875
 4082POPC   C4A52710  20.799  13.738   7.172
 4082POPC   C1B52711  20.206  13.401   6.133
 4082POPC   C2B52712  20.095  13.550   6.550
 4082POPC   C3B52713  20.296  13.870   6.807
 4082POPC   C4B52714  20.296  13.927   7.252
 4083POPC   NC352715   0.787  16.689   5.378
 4083POPC   PO452716   0.151  16.842   5.296
 4083POPC   GL152717   0.391  16.717   5.688
 4083POPC   GL252718   0.508  16.373   5.792
 4083POPC   C1A52719   0.412  16.772   6.142
 4083POPC   D2A52720   0.539  16.802   6.575
 4083POPC   C3A52721   0.173  16.746   6.827
 4083POPC   C4A52722   0.123  16.947   7.220
 4083POPC   C1B52723   0.843  16.522   6.069
 4083POPC   C2B52724   0.983  16.509   6.536
 4083POPC   C3B52725   0.856  16.639   6.958
 4083POPC   C4B52726   0.493  16.595   7.195
 4084POPC   NC352727  15.164  35.903   5.462
 4084POPC   PO452728  14.939  36.454   5.228
 4084POPC   GL152729  15.084  36.436   5.713
 4084POPC   GL252730  15.151  36.111   5.903
 4084POPC   C1A52731  15.240  36.506   6.175
 4084POPC   D2A52732  15.366  36.137   6.464
 4084POPC   C3A52733  15.291  36.063   6.916
 4084POPC   C4A52734  15.443  35.840   7.290
 4084POPC   C1B52735  14.883  36.131   6.244
 4084POPC   C2B52736  14.849  36.277   6.660
 4084POPC   C3B52737  14.754  36.161   7.077
 4084POPC   C4B52738  14.729  36.426   7.427
 4085POPC   NC352739  28.528  12.997   5.564
 4085POPC   PO452740  28.114  12.454   5.404
 4085POPC   GL152741  28.247  12.609   5.809
 4085POPC   GL252742  28.047  12.900   5.865
 4085POPC   C1A52743  28.317  12.783   6.262
 4085POPC   D2A52744  28.527  12.729   6.664
 4085POPC   C3A52745  28.588  13.050   6.991
 4085POPC   C4A52746  28.432  12.782   7.280
 4085POPC   C1B52747  28.054  13.261   6.152
 4085POPC   C2B52748  28.003  13.310   6.564
 4085POPC   C3B52749  28.088  13.069   6.909
 4085POPC   C4B52750  28.049  13.103   7.341
 4086POPC   NC352751  22.561   5.594   5.579
 4086POPC   PO452752  23.014   6.100   5.510
 4086POPC   GL152753  22.973   5.840   5.838
 4086POPC   GL252754  23.290   5.959   5.961
 4086POPC   C1A52755  22.743   5.789   6.209
 4086POPC   D2A52756  22.901   5.751   6.618
 4086POPC   C3A52757  22.626   5.603   6.926
 4086POPC   C4A52758  22.666   5.811   7.307
 4086POPC   C1B52759  23.326   5.545   6.136
 4086POPC   C2B52760  23.372   5.446   6.573
 4086POPC   C3B52761  23.131   5.468   6.961
 4086POPC   C4B52762  23.171   5.707   7.365
 4087POPC   NC352763   5.542  21.461   5.621
 4087POPC   PO452764   4.981  21.252   5.328
 4087POPC   GL152765   5.010  21.361   5.815
 4087POPC   GL252766   5.309  21.378   6.047
 4087POPC   C1A52767   4.856  21.585   6.224
 4087POPC   D2A52768   4.987  21.612   6.690
 4087POPC   C3A52769   4.844  21.338   7.041
 4087POPC   C4A52770   4.924  21.379   7.505
 4087POPC   C1B52771   5.113  21.155   6.364
 4087POPC   C2B52772   5.211  21.117   6.765
 4087POPC   C3B52773   5.376  21.393   7.046
 4087POPC   C4B52774   5.402  21.218   7.417
 4088POPC   NC352775  11.859  20.436   5.370
 4088POPC   PO452776  12.191  20.985   5.506
 4088POPC   GL152777  11.979  20.699   5.808
 4088POPC   GL252778  12.263  20.476   5.852
 4088POPC   C1A52779  12.030  20.764   6.265
 4088POPC   D2A52780  12.398  20.777   6.584
 4088POPC   C3A52781  12.294  20.708   7.034
 4088POPC   C4A52782  12.106  20.993   7.344
 4088POPC   C1B52783  12.303  20.345   6.304
 4088POPC   C2B52784  12.066  20.217   6.647
 4088POPC   C3B52785  12.082  20.127   7.071
 4088POPC   C4B52786  12.306  20.243   7.444
 4089POPC   NC352787  39.923   3.606   5.445
 4089POPC   PO452788  40.516   3.358   5.442
 4089POPC   GL152789  40.255   3.511   5.829
 4089POPC   GL252790  39.848   3.409   5.901
 4089POPC   C1A52791  40.329   3.780   6.218
 4089POPC   D2A52792  40.137   3.954   6.618
 4089POPC   C3A52793  40.267   3.751   7.027
 4089POPC   C4A52794  40.267   3.491   7.414
 4089POPC   C1B52795  39.856   3.592   6.322
 4089POPC   C2B52796  39.828   3.568   6.780
 4089POPC   C3B52797  39.788   3.523   7.214
 4089POPC   C4B52798  39.805   3.426   7.643
 4090POPC   NC352799  37.814  20.290   5.571
 4090POPC   PO452800  37.289  20.654   5.458
 4090POPC   GL152801  37.479  20.528   5.864
 4090POPC   GL252802  37.826  20.713   5.869
 4090POPC   C1A52803  37.632  20.268   6.258
 4090POPC   D2A52804  37.597  20.046   6.689
 4090POPC   C3A52805  37.569  20.370   7.047
 4090POPC   C4A52806  37.433  20.827   7.118
 4090POPC   C1B52807  37.579  20.809   6.257
 4090POPC   C2B52808  37.578  20.658   6.628
 4090POPC   C3B52809  37.900  20.737   6.898
 4090POPC   C4B52810  37.989  20.775   7.290
 4091POPC   NC352811  19.760  16.701   5.424
 4091POPC   PO452812  20.327  16.368   5.298
 4091POPC   GL152813  20.189  16.554   5.684
 4091POPC   GL252814  20.102  16.925   5.750
 4091POPC   C1A52815  20.138  16.545   6.127
 4091POPC   D2A52816  20.155  16.739   6.549
 4091POPC   C3A52817  19.982  16.447   6.862
 4091POPC   C4A52818  20.069  16.394   7.291
 4091POPC   C1B52819  19.903  16.999   6.170
 4091POPC   C2B52820  19.751  17.069   6.622
 4091POPC   C3B52821  19.875  16.966   7.046
 4091POPC   C4B52822  19.643  16.636   7.240
 4092POPC   NC352823  10.847   1.387   5.458
 4092POPC   PO452824  10.533   0.786   5.404
 4092POPC   GL152825  10.732   0.969   5.755
 4092POPC   GL252826  10.470   1.212   5.749
 4092POPC   C1A52827  10.815   1.065   6.230
 4092POPC   D2A52828  10.955   1.041   6.712
 4092POPC   C3A52829  10.624   1.066   7.054
 4092POPC   C4A52830  10.237   0.796   7.072
 4092POPC   C1B52831  10.318   1.380   6.126
 4092POPC   C2B52832  10.421   1.264   6.541
 4092POPC   C3B52833  10.185   1.270   6.896
 4092POPC   C4B52834  10.289   1.602   7.142
 4093POPC   NC352835   0.922  29.360   5.289
 4093POPC   PO452836   1.369  28.926   5.480
 4093POPC   GL152837   1.245  29.240   5.744
 4093POPC   GL252838   0.883  29.092   5.720
 4093POPC   C1A52839   1.478  29.256   6.165
 4093POPC   D2A52840   1.408  28.901   6.460
 4093POPC   C3A52841   1.496  28.909   6.899
 4093POPC   C4A52842   1.648  29.251   7.076
 4093POPC   C1B52843   1.005  28.991   6.135
 4093POPC   C2B52844   1.049  29.337   6.419
 4093POPC   C3B52845   1.174  29.291   6.824
 4093POPC   C4B52846   1.140  29.106   7.238
 4094POPC   NC352847  42.727  35.628   5.104
 4094POPC   PO452848  42.312  36.050   5.428
 4094POPC   GL152849  42.243  36.306   5.802
 4094POPC   GL252850  42.511  36.149   5.961
 4094POPC   C1A52851  42.382  36.558   6.201
 4094POPC   D2A52852  42.418  36.385   6.647
 4094POPC   C3A52853  42.484  36.526   7.099
 4094POPC   C4A52854  42.405  36.391   7.555
 4094POPC   C1B52855  42.314  35.972   6.284
 4094POPC   C2B52856  42.056  36.024   6.626
 4094POPC   C3B52857  42.149  36.148   7.018
 4094POPC   C4B52858  42.114  35.979   7.410
 4095POPC   NC352859  39.749   8.058   5.523
 4095POPC   PO452860  40.195   8.566   5.462
 4095POPC   GL152861  40.063   8.341   5.841
 4095POPC   GL252862  40.167   7.966   5.837
 4095POPC   C1A52863  39.845   8.460   6.227
 4095POPC   D2A52864  39.512   8.449   6.547
 4095POPC   C3A52865  39.677   8.541   6.923
 4095POPC   C4A52866  39.991   8.510   7.236
 4095POPC   C1B52867  40.245   8.124   6.281
 4095POPC   C2B52868  39.994   8.183   6.671
 4095POPC   C3B52869  39.979   8.018   7.090
 4095POPC   C4B52870  40.284   8.073   7.408
 4096POPC   NC352871  29.815  24.858   5.318
 4096POPC   PO452872  30.253  24.419   5.207
 4096POPC   GL152873  30.143  24.477   5.670
 4096POPC   GL252874  29.769  24.539   5.750
 4096POPC   C1A52875  30.266  24.459   6.137
 4096POPC   D2A52876  30.118  24.316   6.546
 4096POPC   C3A52877  30.162  24.543   6.933
 4096POPC   C4A52878  30.253  24.375   7.350
 4096POPC   C1B52879  29.733  24.406   6.203
 4096POPC   C2B52880  29.661  24.489   6.644
 4096POPC   C3B52881  29.714  24.318   7.054
 4096POPC   C4B52882  29.759  24.679   7.267
 4097POPC   NC352883  24.517  40.219   5.519
 4097POPC   PO452884  24.391  39.513   5.546
 4097POPC   GL152885  24.309  39.840   5.823
 4097POPC   GL252886  24.669  39.860   5.883
 4097POPC   C1A52887  24.185  39.871   6.239
 4097POPC   D2A52888  24.422  39.647   6.538
 4097POPC   C3A52889  24.348  39.761   6.927
 4097POPC   C4A52890  24.387  39.698   7.329
 4097POPC   C1B52891  24.596  40.191   6.206
 4097POPC   C2B52892  24.476  40.166   6.636
 4097POPC   C3B52893  24.649  40.187   7.061
 4097POPC   C4B52894  24.459  40.419   7.432
 4098POPC   NC352895   2.225  38.587   5.516
 4098POPC   PO452896   1.737  38.246   5.151
 4098POPC   GL152897   1.763  38.356   5.609
 4098POPC   GL252898   1.720  38.076   5.803
 4098POPC   C1A52899   1.822  38.510   6.057
 4098POPC   D2A52900   1.826  38.432   6.508
 4098POPC   C3A52901   2.133  38.297   6.789
 4098POPC   C4A52902   2.156  38.587   7.116
 4098POPC   C1B52903   1.765  37.999   6.241
 4098POPC   C2B52904   1.590  38.007   6.668
 4098POPC   C3B52905   1.684  38.238   7.038
 4098POPC   C4B52906   1.693  38.174   7.486
 4099POPC   NC352907   1.404  31.059   5.371
 4099POPC   PO452908   1.024  30.561   5.589
 4099POPC   GL152909   1.158  30.889   5.817
 4099POPC   GL252910   1.524  30.924   5.839
 4099POPC   C1A52911   1.085  30.928   6.234
 4099POPC   D2A52912   1.234  31.041   6.605
 4099POPC   C3A52913   1.107  30.896   7.029
 4099POPC   C4A52914   1.122  31.048   7.445
 4099POPC   C1B52915   1.470  30.566   6.111
 4099POPC   C2B52916   1.363  30.542   6.534
 4099POPC   C3B52917   1.565  30.756   6.858
 4099POPC   C4B52918   1.543  30.756   7.268
 4100POPC   NC352919  26.819  43.591   5.435
 4100POPC   PO452920  26.604  42.944   5.457
 4100POPC   GL152921  26.569  43.245   5.782
 4100POPC   GL252922  26.893  43.319   5.887
 4100POPC   C1A52923  26.487  43.172   6.226
 4100POPC   D2A52924  26.573  42.863   6.563
 4100POPC   C3A52925  26.555  43.022   6.971
 4100POPC   C4A52926  26.769  42.871   7.379
 4100POPC   C1B52927  26.998  43.123   6.271
 4100POPC   C2B52928  26.873  43.263   6.664
 4100POPC   C3B52929  26.994  43.242   7.081
 4100POPC   C4B52930  27.337  43.350   7.253
 4101POPC   NC352931  24.244   5.637   5.321
 4101POPC   PO452932  24.627   6.088   5.173
 4101POPC   GL152933  24.516   6.007   5.633
 4101POPC   GL252934  24.452   5.657   5.784
 4101POPC   C1A52935  24.467   6.073   6.115
 4101POPC   D2A52936  24.251   5.972   6.540
 4101POPC   C3A52937  24.455   6.038   6.962
 4101POPC   C4A52938  24.512   6.003   7.436
 4101POPC   C1B52939  24.321   5.568   6.212
 4101POPC   C2B52940  24.425   5.478   6.668
 4101POPC   C3B52941  24.485   5.550   7.133
 4101POPC   C4B52942  24.509   5.529   7.615
 4102POPC   NC352943  40.820  38.326   5.234
 4102POPC   PO452944  41.066  38.961   5.281
 4102POPC   GL152945  41.065  38.679   5.661
 4102POPC   GL252946  41.050  38.319   5.693
 4102POPC   C1A52947  40.801  38.571   6.077
 4102POPC   D2A52948  40.612  38.401   6.484
 4102POPC   C3A52949  40.796  38.452   6.915
 4102POPC   C4A52950  40.751  38.562   7.371
 4102POPC   C1B52951  41.185  38.037   6.038
 4102POPC   C2B52952  41.390  37.970   6.453
 4102POPC   C3B52953  41.258  38.066   6.874
 4102POPC   C4B52954  41.079  38.201   7.262
 4103POPC   NC352955  33.244  32.383   5.453
 4103POPC   PO452956  32.735  31.942   5.542
 4103POPC   GL152957  33.014  32.101   5.802
 4103POPC   GL252958  33.157  31.845   5.916
 4103POPC   C1A52959  32.982  32.365   6.157
 4103POPC   D2A52960  32.738  32.380   6.548
 4103POPC   C3A52961  32.928  32.587   6.937
 4103POPC   C4A52962  32.997  32.276   7.243
 4103POPC   C1B52963  32.770  31.890   6.207
 4103POPC   C2B52964  32.646  31.649   6.553
 4103POPC   C3B52965  32.866  31.744   6.909
 4103POPC   C4B52966  32.952  31.663   7.303
 4104POPC   NC352967  43.045   0.796   5.403
 4104POPC   PO452968  43.498   0.292   5.494
 4104POPC   GL152969  43.213   0.390   5.820
 4104POPC   GL252970  43.354   0.703   5.835
 4104POPC   C1A52971  42.992   0.443   6.232
 4104POPC   D2A52972  42.789   0.259   6.609
 4104POPC   C3A52973  42.935   0.445   7.016
 4104POPC   C4A52974  42.934   0.512   7.472
 4104POPC   C1B52975  43.461   0.618   6.260
 4104POPC   C2B52976  43.282   0.622   6.658
 4104POPC   C3B52977  43.436   0.645   7.078
 4104POPC   C4B52978  43.391   0.708   7.516
 4105POPC   NC352979  35.021  24.928   5.481
 4105POPC   PO452980  35.630  24.571   5.347
 4105POPC   GL152981  35.453  24.638   5.768
 4105POPC   GL252982  35.361  24.292   5.845
 4105POPC   C1A52983  35.345  24.681   6.216
 4105POPC   D2A52984  35.568  24.610   6.594
 4105POPC   C3A52985  35.546  24.827   6.982
 4105POPC   C4A52986  35.199  24.790   7.233
 4105POPC   C1B52987  34.998  24.297   6.156
 4105POPC   C2B52988  34.837  24.382   6.554
 4105POPC   C3B52989  35.097  24.434   6.897
 4105POPC   C4B52990  34.979  24.211   7.244
 4106POPC   NC352991  42.516  25.690   5.296
 4106POPC   PO452992  42.420  26.322   5.431
 4106POPC   GL152993  42.422  26.001   5.718
 4106POPC   GL252994  42.081  25.887   5.736
 4106POPC   C1A52995  42.534  25.899   6.136
 4106POPC   D2A52996  42.505  26.173   6.488
 4106POPC   C3A52997  42.536  26.003   6.848
 4106POPC   C4A52998  42.523  26.043   7.254
 4106POPC   C1B52999  42.078  26.107   6.154
 4106POPC   C2B53000  42.013  25.992   6.594
 4106POPC   C3B53001  42.056  26.009   7.042
 4106POPC   C4B53002  42.114  25.923   7.491
 4107POPC   NC353003  31.565  21.784   5.491
 4107POPC   PO453004  31.266  21.210   5.437
 4107POPC   GL153005  31.436  21.324   5.817
 4107POPC   GL253006  31.692  21.082   5.857
 4107POPC   C1A53007  31.517  21.301   6.276
 4107POPC   D2A53008  31.290  21.318   6.660
 4107POPC   C3A53009  31.578  21.500   6.931
 4107POPC   C4A53010  31.489  21.714   7.287
 4107POPC   C1B53011  31.869  20.845   6.216
 4107POPC   C2B53012  32.083  20.879   6.623
 4107POPC   C3B53013  31.984  21.133   7.017
 4107POPC   C4B53014  31.681  21.215   7.348
 4108POPC   NC353015  10.160  14.919   5.501
 4108POPC   PO453016   9.612  15.095   5.177
 4108POPC   GL153017   9.649  15.076   5.610
 4108POPC   GL253018   9.708  14.747   5.706
 4108POPC   C1A53019   9.704  15.292   6.018
 4108POPC   D2A53020   9.594  15.162   6.445
 4108POPC   C3A53021   9.844  15.278   6.800
 4108POPC   C4A53022   9.690  15.254   7.216
 4108POPC   C1B53023   9.846  14.825   6.144
 4108POPC   C2B53024   9.990  14.777   6.582
 4108POPC   C3B53025   9.882  14.822   7.036
 4108POPC   C4B53026   9.775  14.838   7.496
 4109POPC   NC353027  41.852  23.888   5.484
 4109POPC   PO453028  42.463  23.573   5.496
 4109POPC   GL153029  42.350  23.922   5.763
 4109POPC   GL253030  42.441  23.731   6.058
 4109POPC   C1A53031  42.109  24.109   6.117
 4109POPC   D2A53032  42.080  23.984   6.545
 4109POPC   C3A53033  42.455  23.841   6.769
 4109POPC   C4A53034  42.352  23.732   7.180
 4109POPC   C1B53035  42.253  23.486   6.400
 4109POPC   C2B53036  42.023  23.510   6.764
 4109POPC   C3B53037  42.085  23.318   7.109
 4109POPC   C4B53038  42.250  23.377   7.523
 4110POPC   NC353039   0.780  24.233   5.398
 4110POPC   PO453040   0.253  24.498   5.449
 4110POPC   GL153041   0.251  24.531   5.853
 4110POPC   GL253042   0.585  24.366   5.868
 4110POPC   C1A53043   0.031  24.703   6.198
 4110POPC   D2A53044   0.211  24.616   6.595
 4110POPC   C3A53045   0.044  24.755   6.956
 4110POPC   C4A53046   0.353  24.598   7.240
 4110POPC   C1B53047   0.715  24.172   6.256
 4110POPC   C2B53048   0.548  24.173   6.677
 4110POPC   C3B53049   0.709  24.264   7.085
 4110POPC   C4B53050   0.565  24.138   7.502
 4111POPC   NC353051  31.452  42.106   5.419
 4111POPC   PO453052  31.566  42.732   5.341
 4111POPC   GL153053  31.651  42.574   5.767
 4111POPC   GL253054  31.336  42.477   5.916
 4111POPC   C1A53055  31.749  42.356   6.187
 4111POPC   D2A53056  31.491  42.239   6.539
 4111POPC   C3A53057  31.544  42.396   6.958
 4111POPC   C4A53058  31.301  42.722   7.101
 4111POPC   C1B53059  31.185  42.072   6.088
 4111POPC   C2B53060  31.137  41.863   6.489
 4111POPC   C3B53061  31.221  41.973   6.901
 4111POPC   C4B53062  31.315  42.038   7.283
 4112POPC   NC353063   5.903   5.263   5.404
 4112POPC   PO453064   5.594   4.813   5.747
 4112POPC   GL153065   5.786   5.168   5.960
 4112POPC   GL253066   6.017   5.463   5.868
 4112POPC   C1A53067   5.788   5.066   6.392
 4112POPC   D2A53068   5.851   5.065   6.800
 4112POPC   C3A53069   5.814   4.729   7.056
 4112POPC   C4A53070   5.745   4.833   7.476
 4112POPC   C1B53071   6.278   5.259   6.178
 4112POPC   C2B53072   6.319   5.183   6.624
 4112POPC   C3B53073   6.191   5.334   7.059
 4112POPC   C4B53074   5.767   5.339   7.247
 4113POPC   NC353075   4.604   5.440   5.588
 4113POPC   PO453076   4.156   5.814   5.393
 4113POPC   GL153077   4.186   6.060   5.801
 4113POPC   GL253078   4.581   6.016   5.876
 4113POPC   C1A53079   4.225   6.089   6.260
 4113POPC   D2A53080   4.352   5.929   6.627
 4113POPC   C3A53081   4.137   5.912   6.994
 4113POPC   C4A53082   4.327   5.650   7.299
 4113POPC   C1B53083   4.772   6.058   6.308
 4113POPC   C2B53084   4.776   6.193   6.759
 4113POPC   C3B53085   4.574   6.104   7.166
 4113POPC   C4B53086   4.704   5.882   7.566
 4114POPC   NC353087  17.062  19.440   5.334
 4114POPC   PO453088  16.586  19.002   5.164
 4114POPC   GL153089  16.579  19.039   5.634
 4114POPC   GL253090  16.798  19.283   5.794
 4114POPC   C1A53091  16.492  18.968   6.099
 4114POPC   D2A53092  16.714  18.877   6.504
 4114POPC   C3A53093  16.528  18.924   6.926
 4114POPC   C4A53094  16.742  18.930   7.354
 4114POPC   C1B53095  16.802  19.353   6.245
 4114POPC   C2B53096  16.658  19.404   6.684
 4114POPC   C3B53097  16.902  19.276   7.028
 4114POPC   C4B53098  17.090  19.392   7.413
 4115POPC   NC353099   4.599  28.191   5.496
 4115POPC   PO453100   4.109  28.563   5.199
 4115POPC   GL153101   4.065  28.393   5.648
 4115POPC   GL253102   4.180  28.055   5.787
 4115POPC   C1A53103   4.089  28.454   6.106
 4115POPC   D2A53104   4.155  28.226   6.504
 4115POPC   C3A53105   4.319  28.492   6.841
 4115POPC   C4A53106   4.116  28.589   7.241
 4115POPC   C1B53107   4.515  28.150   6.137
 4115POPC   C2B53108   4.657  28.112   6.589
 4115POPC   C3B53109   4.426  28.001   6.973
 4115POPC   C4B53110   4.535  28.313   7.290
 4116POPC   NC353111  13.997  42.536   5.057
 4116POPC   PO453112  14.666  42.407   5.203
 4116POPC   GL153113  14.455  42.462   5.659
 4116POPC   GL253114  14.082  42.382   5.713
 4116POPC   C1A53115  14.409  42.384   6.127
 4116POPC   D2A53116  14.270  42.595   6.518
 4116POPC   C3A53117  14.387  42.409   6.918
 4116POPC   C4A53118  14.327  42.570   7.305
 4116POPC   C1B53119  14.055  42.028   6.029
 4116POPC   C2B53120  14.136  42.082   6.468
 4116POPC   C3B53121  14.152  41.973   6.919
 4116POPC   C4B53122  14.260  42.067   7.380
 4117POPC   NC353123   1.115  23.693   5.541
 4117POPC   PO453124   1.794  23.581   5.375
 4117POPC   GL153125   1.668  23.426   5.825
 4117POPC   GL253126   1.347  23.519   5.943
 4117POPC   C1A53127   1.670  23.513   6.313
 4117POPC   D2A53128   1.452  23.789   6.622
 4117POPC   C3A53129   1.385  23.560   7.001
 4117POPC   C4A53130   1.378  23.736   7.380
 4117POPC   C1B53131   1.120  23.833   6.207
 4117POPC   C2B53132   0.878  23.770   6.596
 4117POPC   C3B53133   0.968  23.831   7.029
 4117POPC   C4B53134   0.886  23.731   7.446
 4118POPC   NC353135  21.659  35.579   5.372
 4118POPC   PO453136  21.009  35.319   5.401
 4118POPC   GL153137  21.277  35.488   5.756
 4118POPC   GL253138  21.655  35.508   5.880
 4118POPC   C1A53139  21.218  35.483   6.191
 4118POPC   D2A53140  21.266  35.111   6.428
 4118POPC   C3A53141  21.371  35.159   6.857
 4118POPC   C4A53142  21.289  35.303   7.274
 4118POPC   C1B53143  21.733  35.389   6.320
 4118POPC   C2B53144  21.762  35.488   6.768
 4118POPC   C3B53145  21.807  35.321   7.197
 4118POPC   C4B53146  21.631  35.479   7.609
 4119POPC   NC353147   5.054  31.493   5.085
 4119POPC   PO453148   5.624  31.259   5.448
 4119POPC   GL153149   5.254  31.297   5.712
 4119POPC   GL253150   5.154  31.645   5.688
 4119POPC   C1A53151   4.959  31.337   6.072
 4119POPC   D2A53152   4.796  31.500   6.450
 4119POPC   C3A53153   4.986  31.378   6.848
 4119POPC   C4A53154   5.030  31.527   7.272
 4119POPC   C1B53155   5.243  31.774   6.139
 4119POPC   C2B53156   5.231  31.758   6.592
 4119POPC   C3B53157   5.240  31.942   7.002
 4119POPC   C4B53158   5.558  31.938   7.317
 4120POPC   NC353159  33.465   8.648   5.134
 4120POPC   PO453160  33.648   8.036   5.445
 4120POPC   GL153161  33.788   8.096   5.851
 4120POPC   GL253162  33.817   8.452   6.000
 4120POPC   C1A53163  33.559   8.057   6.230
 4120POPC   D2A53164  33.742   8.231   6.573
 4120POPC   C3A53165  33.843   7.907   6.837
 4120POPC   C4A53166  33.680   7.754   7.226
 4120POPC   C1B53167  33.460   8.592   6.299
 4120POPC   C2B53168  33.260   8.363   6.644
 4120POPC   C3B53169  33.443   8.174   7.005
 4120POPC   C4B53170  33.811   8.259   7.261
 4121POPC   NC353171   2.204  22.410   5.468
 4121POPC   PO453172   1.620  21.953   5.224
 4121POPC   GL153173   1.819  22.093   5.636
 4121POPC   GL253174   1.743  22.451   5.684
 4121POPC   C1A53175   2.026  22.147   6.075
 4121POPC   D2A53176   2.297  22.103   6.493
 4121POPC   C3A53177   2.110  22.052   6.928
 4121POPC   C4A53178   2.279  21.933   7.385
 4121POPC   C1B53179   1.663  22.509   6.122
 4121POPC   C2B53180   1.848  22.368   6.518
 4121POPC   C3B53181   1.902  22.506   6.967
 4121POPC   C4B53182   2.004  22.356   7.377
 4122POPC   NC353183  31.124  13.891   5.392
 4122POPC   PO453184  31.269  13.225   5.623
 4122POPC   GL153185  31.505  13.517   5.870
 4122POPC   GL253186  31.634  13.848   5.769
 4122POPC   C1A53187  31.349  13.806   6.232
 4122POPC   D2A53188  31.533  13.821   6.638
 4122POPC   C3A53189  31.472  13.500   6.925
 4122POPC   C4A53190  31.318  13.582   7.325
 4122POPC   C1B53191  31.843  13.773   6.191
 4122POPC   C2B53192  32.045  13.858   6.590
 4122POPC   C3B53193  31.935  13.764   6.995
 4122POPC   C4B53194  31.813  13.508   7.314
 4123POPC   NC353195  43.872  23.688   5.244
 4123POPC   PO453196  43.838  24.353   5.411
 4123POPC   GL153197  43.873  24.010   5.756
 4123POPC   GL253198  44.035  23.646   5.782
 4123POPC   C1A53199  43.873  23.978   6.228
 4123POPC   D2A53200  43.967  23.781   6.642
 4123POPC   C3A53201  43.818  23.954   7.043
 4123POPC   C4A53202  44.016  23.967   7.474
 4123POPC   C1B53203  43.904  23.449   6.197
 4123POPC   C2B53204  43.802  23.276   6.644
 4123POPC   C3B53205  43.608  23.473   7.047
 4123POPC   C4B53206  43.709  23.522   7.524
 4124POPC   NC353207  37.414  41.678   5.546
 4124POPC   PO453208  37.898  41.287   5.411
 4124POPC   GL153209  37.723  41.359   5.803
 4124POPC   GL253210  37.804  41.705   5.916
 4124POPC   C1A53211  37.503  41.371   6.172
 4124POPC   D2A53212  37.699  41.523   6.524
 4124POPC   C3A53213  37.517  41.383   6.891
 4124POPC   C4A53214  37.598  41.511   7.268
 4124POPC   C1B53215  37.490  41.906   6.195
 4124POPC   C2B53216  37.402  42.076   6.584
 4124POPC   C3B53217  37.604  41.902   6.904
 4124POPC   C4B53218  37.481  42.005   7.304
 4125POPC   NC353219   2.242  41.152   5.498
 4125POPC   PO453220   2.188  40.454   5.341
 4125POPC   GL153221   1.987  40.515   5.772
 4125POPC   GL253222   2.133  40.849   5.915
 4125POPC   C1A53223   2.008  40.492   6.235
 4125POPC   D2A53224   2.271  40.683   6.501
 4125POPC   C3A53225   2.069  40.770   6.853
 4125POPC   C4A53226   1.992  40.462   7.144
 4125POPC   C1B53227   1.929  41.018   6.322
 4125POPC   C2B53228   1.599  40.882   6.623
 4125POPC   C3B53229   1.555  40.723   7.064
 4125POPC   C4B53230   1.893  40.950   7.308
 4126POPC   NC353231  25.302  13.067   5.397
 4126POPC   PO453232  25.583  12.406   5.474
 4126POPC   GL153233  25.474  12.740   5.762
 4126POPC   GL253234  25.095  12.796   5.811
 4126POPC   C1A53235  25.429  12.925   6.173
 4126POPC   D2A53236  25.317  12.803   6.576
 4126POPC   C3A53237  25.627  12.969   6.847
 4126POPC   C4A53238  25.484  13.024   7.243
 4126POPC   C1B53239  24.921  12.947   6.231
 4126POPC   C2B53240  24.847  13.098   6.628
 4126POPC   C3B53241  25.036  12.977   6.994
 4126POPC   C4B53242  25.137  12.679   7.329
 4127POPC   NC353243   5.769   4.572   5.400
 4127POPC   PO453244   6.183   4.123   5.326
 4127POPC   GL153245   6.126   4.051   5.779
 4127POPC   GL253246   5.741   3.996   5.747
 4127POPC   C1A53247   6.251   4.244   6.205
 4127POPC   D2A53248   6.028   4.424   6.592
 4127POPC   C3A53249   6.005   4.247   7.026
 4127POPC   C4A53250   6.040   4.435   7.464
 4127POPC   C1B53251   5.736   4.211   6.150
 4127POPC   C2B53252   5.588   4.170   6.586
 4127POPC   C3B53253   5.462   4.379   6.953
 4127POPC   C4B53254   5.547   4.281   7.369
 4128POPC   NC353255  27.700  13.558   5.555
 4128POPC   PO453256  27.377  14.117   5.407
 4128POPC   GL153257  27.498  13.935   5.853
 4128POPC   GL253258  27.396  13.578   5.964
 4128POPC   C1A53259  27.698  13.848   6.285
 4128POPC   D2A53260  27.948  13.921   6.675
 4128POPC   C3A53261  27.715  13.831   7.072
 4128POPC   C4A53262  27.364  13.682   7.361
 4128POPC   C1B53263  27.540  13.339   6.313
 4128POPC   C2B53264  27.555  13.473   6.741
 4128POPC   C3B53265  27.612  13.272   7.127
 4128POPC   C4B53266  27.489  13.198   7.572
 4129POPC   NC353267  37.162  34.383   5.627
 4129POPC   PO453268  36.531  34.486   5.361
 4129POPC   GL153269  36.643  34.350   5.776
 4129POPC   GL253270  36.799  34.686   5.848
 4129POPC   C1A53271  36.628  34.405   6.243
 4129POPC   D2A53272  36.692  34.658   6.640
 4129POPC   C3A53273  36.654  34.431   7.028
 4129POPC   C4A53274  36.463  34.554   7.423
 4129POPC   C1B53275  37.039  34.699   6.253
 4129POPC   C2B53276  37.159  34.478   6.668
 4129POPC   C3B53277  37.124  34.628   7.020
 4129POPC   C4B53278  37.333  34.680   7.338
 4130POPC   NC353279  20.717  44.816   5.352
 4130POPC   PO453280  20.359  44.275   5.624
 4130POPC   GL153281  20.718  44.444   5.853
 4130POPC   GL253282  20.821  44.784   5.843
 4130POPC   C1A53283  20.710  44.527   6.299
 4130POPC   D2A53284  20.914  44.764   6.603
 4130POPC   C3A53285  20.777  44.656   7.013
 4130POPC   C4A53286  20.830  44.504   7.415
 4130POPC   C1B53287  20.544  44.999   6.116
 4130POPC   C2B53288  20.488   0.175   6.500
 4130POPC   C3B53289  20.657   0.142   6.878
 4130POPC   C4B53290  20.454  44.999   7.220
 4131POPC   NC353291  25.903  16.696   5.050
 4131POPC   PO453292  26.167  16.918   5.635
 4131POPC   GL153293  25.970  16.781   5.960
 4131POPC   GL253294  26.231  16.588   6.036
 4131POPC   C1A53295  25.873  16.676   6.380
 4131POPC   D2A53296  25.743  16.821   6.744
 4131POPC   C3A53297  25.947  16.691   7.081
 4131POPC   C4A53298  25.892  16.497   7.463
 4131POPC   C1B53299  26.362  16.871   6.332
 4131POPC   C2B53300  26.213  17.051   6.718
 4131POPC   C3B53301  26.303  17.080   7.160
 4131POPC   C4B53302  26.318  16.788   7.514
 4132POPC   NC353303   9.339  41.271   5.391
 4132POPC   PO453304   9.781  41.726   5.480
 4132POPC   GL153305   9.772  41.716   5.919
 4132POPC   GL253306   9.401  41.787   5.941
 4132POPC   C1A53307   9.992  41.439   6.247
 4132POPC   D2A53308  10.233  41.421   6.649
 4132POPC   C3A53309   9.918  41.439   6.970
 4132POPC   C4A53310   9.664  41.741   7.176
 4132POPC   C1B53311   9.453  41.353   6.122
 4132POPC   C2B53312   9.587  41.265   6.545
 4132POPC   C3B53313   9.393  41.339   6.936
 4132POPC   C4B53314   9.491  41.274   7.327
 4133POPC   NC353315   8.350  23.658   5.467
 4133POPC   PO453316   7.889  24.044   5.166
 4133POPC   GL153317   7.848  23.774   5.709
 4133POPC   GL253318   7.809  24.065   5.926
 4133POPC   C1A53319   8.108  23.620   6.098
 4133POPC   D2A53320   8.136  23.623   6.580
 4133POPC   C3A53321   8.348  23.513   6.971
 4133POPC   C4A53322   8.454  23.846   7.226
 4133POPC   C1B53323   7.873  24.007   6.329
 4133POPC   C2B53324   7.704  23.869   6.696
 4133POPC   C3B53325   7.973  23.889   7.058
 4133POPC   C4B53326   7.868  24.001   7.473
 4134POPC   NC353327  38.512  17.944   5.709
 4134POPC   PO453328  38.708  17.310   5.648
 4134POPC   GL153329  38.273  17.352   5.845
 4134POPC   GL253330  38.091  17.701   5.861
 4134POPC   C1A53331  38.062  17.380   6.259
 4134POPC   D2A53332  38.189  17.225   6.651
 4134POPC   C3A53333  38.614  17.149   6.792
 4134POPC   C4A53334  38.647  17.288   7.215
 4134POPC   C1B53335  38.266  17.875   6.287
 4134POPC   C2B53336  38.130  17.725   6.681
 4134POPC   C3B53337  38.259  17.650   7.090
 4134POPC   C4B53338  38.402  17.919   7.436
 4135POPC   NC353339  15.697  43.268   5.181
 4135POPC   PO453340  15.119  42.910   5.479
 4135POPC   GL153341  15.175  43.113   5.859
 4135POPC   GL253342  14.886  43.226   5.888
 4135POPC   C1A53343  15.142  42.992   6.289
 4135POPC   D2A53344  15.242  42.723   6.630
 4135POPC   C3A53345  15.280  42.862   7.065
 4135POPC   C4A53346  15.519  42.926   7.503
 4135POPC   C1B53347  14.746  43.319   6.289
 4135POPC   C2B53348  14.812  43.335   6.702
 4135POPC   C3B53349  14.790  43.320   7.110
 4135POPC   C4B53350  15.117  43.216   7.394
 4136POPC   NC353351   2.035  37.613   5.439
 4136POPC   PO453352   2.170  36.898   5.268
 4136POPC   GL153353   2.053  36.995   5.697
 4136POPC   GL253354   2.214  37.288   5.790
 4136POPC   C1A53355   1.891  36.750   6.083
 4136POPC   D2A53356   1.718  36.847   6.525
 4136POPC   C3A53357   1.938  36.739   6.900
 4136POPC   C4A53358   2.261  36.809   7.231
 4136POPC   C1B53359   2.018  37.210   6.205
 4136POPC   C2B53360   2.024  37.248   6.650
 4136POPC   C3B53361   1.966  37.218   7.120
 4136POPC   C4B53362   2.051  37.138   7.575
 4137POPC   NC353363  22.277  36.302   5.306
 4137POPC   PO453364  22.101  35.657   5.229
 4137POPC   GL153365  22.055  35.821   5.688
 4137POPC   GL253366  22.375  36.026   5.758
 4137POPC   C1A53367  22.009  36.095   6.107
 4137POPC   D2A53368  22.187  36.268   6.526
 4137POPC   C3A53369  21.960  36.091   6.913
 4137POPC   C4A53370  21.875  36.267   7.307
 4137POPC   C1B53371  22.540  36.010   6.199
 4137POPC   C2B53372  22.665  36.045   6.635
 4137POPC   C3B53373  22.471  36.035   7.042
 4137POPC   C4B53374  22.374  36.254   7.404
 4138POPC   NC353375  32.423  21.381   5.327
 4138POPC   PO453376  31.997  21.858   5.651
 4138POPC   GL153377  32.134  21.389   5.784
 4138POPC   GL253378  32.500  21.236   5.812
 4138POPC   C1A53379  32.169  21.264   6.229
 4138POPC   D2A53380  32.346  21.315   6.662
 4138POPC   C3A53381  32.096  21.638   6.847
 4138POPC   C4A53382  31.990  21.771   7.252
 4138POPC   C1B53383  32.689  21.322   6.215
 4138POPC   C2B53384  32.876  21.336   6.612
 4138POPC   C3B53385  32.738  21.296   7.031
 4138POPC   C4B53386  32.375  21.424   7.215
 4139POPC   NC353387  34.059   5.685   5.618
 4139POPC   PO453388  34.635   5.781   5.349
 4139POPC   GL153389  34.575   5.755   5.805
 4139POPC   GL253390  34.815   5.501   5.951
 4139POPC   C1A53391  34.697   5.900   6.243
 4139POPC   D2A53392  34.661   5.764   6.671
 4139POPC   C3A53393  34.749   5.975   7.061
 4139POPC   C4A53394  34.908   6.137   7.462
 4139POPC   C1B53395  34.385   5.492   6.234
 4139POPC   C2B53396  34.184   5.567   6.658
 4139POPC   C3B53397  34.354   5.626   7.070
 4139POPC   C4B53398  34.683   5.358   7.176
 4140POPC   NC353399  35.873   6.245   5.694
 4140POPC   PO453400  35.477   6.725   5.260
 4140POPC   GL153401  35.567   6.660   5.721
 4140POPC   GL253402  35.258   6.533   5.887
 4140POPC   C1A53403  35.658   6.614   6.197
 4140POPC   D2A53404  35.421   6.662   6.604
 4140POPC   C3A53405  35.574   6.601   7.042
 4140POPC   C4A53406  35.468   6.872   7.375
 4140POPC   C1B53407  34.977   6.335   6.194
 4140POPC   C2B53408  35.005   6.185   6.619
 4140POPC   C3B53409  35.036   6.492   6.960
 4140POPC   C4B53410  34.973   6.772   7.276
 4141POPC   NC353411  38.165  30.158   5.599
 4141POPC   PO453412  38.698  29.863   5.327
 4141POPC   GL153413  38.686  29.933   5.826
 4141POPC   GL253414  38.351  29.999   6.026
 4141POPC   C1A53415  38.652  29.696   6.252
 4141POPC   D2A53416  38.345  29.787   6.595
 4141POPC   C3A53417  38.555  29.610   6.984
 4141POPC   C4A53418  38.789  29.815   7.356
 4141POPC   C1B53419  38.635  30.205   6.328
 4141POPC   C2B53420  38.736  30.070   6.752
 4141POPC   C3B53421  38.435  30.073   7.117
 4141POPC   C4B53422  38.516  30.187   7.566
 4142POPC   NC353423   9.280   6.095   5.553
 4142POPC   PO453424   8.974   6.599   5.248
 4142POPC   GL153425   8.935   6.474   5.715
 4142POPC   GL253426   8.891   6.819   5.848
 4142POPC   C1A53427   8.812   6.382   6.171
 4142POPC   D2A53428   8.594   6.593   6.547
 4142POPC   C3A53429   8.832   6.677   6.957
 4142POPC   C4A53430   9.072   6.396   7.271
 4142POPC   C1B53431   8.947   6.882   6.283
 4142POPC   C2B53432   9.200   6.624   6.555
 4142POPC   C3B53433   9.358   6.700   6.967
 4142POPC   C4B53434   9.131   6.889   7.329
 4143POPC   NC353435  30.248   5.191   5.455
 4143POPC   PO453436  29.599   4.896   5.512
 4143POPC   GL153437  29.818   5.188   5.766
 4143POPC   GL253438  29.526   5.224   5.935
 4143POPC   C1A53439  30.131   5.318   6.093
 4143POPC   D2A53440  30.300   5.033   6.416
 4143POPC   C3A53441  30.327   5.157   6.841
 4143POPC   C4A53442  30.230   5.005   7.230
 4143POPC   C1B53443  29.726   5.162   6.332
 4143POPC   C2B53444  29.810   5.271   6.727
 4143POPC   C3B53445  29.611   5.184   7.114
 4143POPC   C4B53446  29.810   5.167   7.496
 4144POPC   NC353447  36.174  22.491   5.461
 4144POPC   PO453448  35.863  21.983   5.217
 4144POPC   GL153449  36.019  22.059   5.717
 4144POPC   GL253450  36.173  22.354   5.939
 4144POPC   C1A53451  36.100  21.889   6.166
 4144POPC   D2A53452  35.894  21.906   6.615
 4144POPC   C3A53453  36.163  21.814   6.968
 4144POPC   C4A53454  36.102  21.933   7.382
 4144POPC   C1B53455  36.006  22.341   6.357
 4144POPC   C2B53456  35.783  22.412   6.708
 4144POPC   C3B53457  35.911  22.278   7.077
 4144POPC   C4B53458  35.774  22.342   7.477
 4145POPC   NC353459  30.900  12.988   5.469
 4145POPC   PO453460  30.280  13.238   5.477
 4145POPC   GL153461  30.582  13.198   5.886
 4145POPC   GL253462  30.925  13.085   5.962
 4145POPC   C1A53463  30.550  13.134   6.347
 4145POPC   D2A53464  30.597  12.743   6.605
 4145POPC   C3A53465  30.715  12.780   7.040
 4145POPC   C4A53466  30.479  12.758   7.410
 4145POPC   C1B53467  31.052  12.956   6.366
 4145POPC   C2B53468  30.928  13.127   6.728
 4145POPC   C3B53469  31.030  13.231   7.115
 4145POPC   C4B53470  31.106  13.180   7.547
 4146POPC   NC353471  35.167  16.628   5.561
 4146POPC   PO453472  35.605  17.062   5.369
 4146POPC   GL153473  35.545  16.877   5.800
 4146POPC   GL253474  35.417  16.594   6.021
 4146POPC   C1A53475  35.440  17.050   6.223
 4146POPC   D2A53476  35.393  16.775   6.597
 4146POPC   C3A53477  35.482  16.969   7.001
 4146POPC   C4A53478  35.537  16.714   7.377
 4146POPC   C1B53479  35.183  16.377   6.341
 4146POPC   C2B53480  35.044  16.259   6.775
 4146POPC   C3B53481  35.195  16.390   7.190
 4146POPC   C4B53482  35.183  16.391   7.628
 4147POPC   NC353483  30.988  26.305   5.583
 4147POPC   PO453484  30.803  25.690   5.651
 4147POPC   GL153485  30.614  25.914   5.943
 4147POPC   GL253486  30.535  26.274   5.900
 4147POPC   C1A53487  30.779  25.978   6.346
 4147POPC   D2A53488  31.040  26.162   6.662
 4147POPC   C3A53489  30.813  25.937   6.996
 4147POPC   C4A53490  30.891  25.787   7.403
 4147POPC   C1B53491  30.551  26.436   6.310
 4147POPC   C2B53492  30.566  26.319   6.742
 4147POPC   C3B53493  30.852  26.445   7.047
 4147POPC   C4B53494  30.924  26.303   7.431
 4148POPC   NC353495  25.499  36.991   5.637
 4148POPC   PO453496  25.043  36.821   5.176
 4148POPC   GL153497  24.993  36.898   5.720
 4148POPC   GL253498  25.051  37.188   5.923
 4148POPC   C1A53499  25.129  36.791   6.239
 4148POPC   D2A53500  25.200  36.617   6.704
 4148POPC   C3A53501  25.326  36.864   7.097
 4148POPC   C4A53502  25.423  36.824   7.550
 4148POPC   C1B53503  25.375  37.269   6.234
 4148POPC   C2B53504  25.380  37.142   6.664
 4148POPC   C3B53505  25.529  37.348   7.047
 4148POPC   C4B53506  25.341  37.316   7.433
 4149POPC   NC353507  25.541  35.202   5.466
 4149POPC   PO453508  25.176  35.857   5.403
 4149POPC   GL153509  25.173  35.532   5.746
 4149POPC   GL253510  25.470  35.451   5.918
 4149POPC   C1A53511  25.101  35.641   6.204
 4149POPC   D2A53512  24.955  35.469   6.573
 4149POPC   C3A53513  25.150  35.687   6.923
 4149POPC   C4A53514  25.050  35.541   7.330
 4149POPC   C1B53515  25.270  35.147   6.204
 4149POPC   C2B53516  25.251  35.030   6.647
 4149POPC   C3B53517  25.243  35.177   7.043
 4149POPC   C4B53518  25.495  35.041   7.364
 4150POPC   NC353519  40.271   9.801   5.648
 4150POPC   PO453520  39.681   9.669   5.403
 4150POPC   GL153521  39.776   9.689   5.839
 4150POPC   GL253522  39.818  10.028   5.878
 4150POPC   C1A53523  39.993   9.735   6.271
 4150POPC   D2A53524  40.391   9.761   6.552
 4150POPC   C3A53525  40.255   9.933   6.951
 4150POPC   C4A53526  39.949   9.757   7.237
 4150POPC   C1B53527  39.684  10.182   6.267
 4150POPC   C2B53528  39.785  10.059   6.682
 4150POPC   C3B53529  39.669  10.158   7.095
 4150POPC   C4B53530  39.824  10.153   7.532
 4151POPC   NC353531   0.970   4.890   5.467
 4151POPC   PO453532   1.518   5.315   5.537
 4151POPC   GL153533   1.381   5.143   5.876
 4151POPC   GL253534   1.007   5.125   5.900
 4151POPC   C1A53535   1.296   5.213   6.304
 4151POPC   D2A53536   1.068   5.136   6.661
 4151POPC   C3A53537   1.272   5.193   7.037
 4151POPC   C4A53538   1.401   5.595   7.236
 4151POPC   C1B53539   1.206   4.745   6.105
 4151POPC   C2B53540   1.288   4.687   6.499
 4151POPC   C3B53541   1.217   4.655   6.925
 4151POPC   C4B53542   1.334   4.735   7.325
 4152POPC   NC353543  18.725  15.417   5.505
 4152POPC   PO453544  18.165  15.407   5.113
 4152POPC   GL153545  18.149  15.436   5.655
 4152POPC   GL253546  18.414  15.323   5.893
 4152POPC   C1A53547  18.002  15.404   6.153
 4152POPC   D2A53548  18.248  15.347   6.575
 4152POPC   C3A53549  18.052  15.196   6.982
 4152POPC   C4A53550  17.785  14.892   7.212
 4152POPC   C1B53551  18.676  15.508   6.205
 4152POPC   C2B53552  18.774  15.412   6.611
 4152POPC   C3B53553  18.757  15.547   7.043
 4152POPC   C4B53554  18.520  15.322   7.325
 4153POPC   NC353555  42.203  26.721   5.404
 4153POPC   PO453556  42.825  26.839   5.479
 4153POPC   GL153557  42.590  26.678   5.804
 4153POPC   GL253558  42.386  26.950   5.830
 4153POPC   C1A53559  42.378  26.566   6.182
 4153POPC   D2A53560  42.129  26.520   6.547
 4153POPC   C3A53561  42.326  26.469   6.957
 4153POPC   C4A53562  42.184  26.415   7.363
 4153POPC   C1B53563  42.384  27.101   6.229
 4153POPC   C2B53564  42.191  27.056   6.602
 4153POPC   C3B53565  42.418  27.163   6.952
 4153POPC   C4B53566  42.532  27.156   7.372
 4154POPC   NC353567   8.267  32.257   5.311
 4154POPC   PO453568   7.799  31.832   5.637
 4154POPC   GL153569   8.131  32.087   5.786
 4154POPC   GL253570   8.409  31.863   5.640
 4154POPC   C1A53571   8.316  32.380   6.132
 4154POPC   D2A53572   8.331  32.543   6.579
 4154POPC   C3A53573   7.944  32.548   6.824
 4154POPC   C4A53574   8.062  32.449   7.254
 4154POPC   C1B53575   8.460  31.859   6.111
 4154POPC   C2B53576   8.528  32.055   6.522
 4154POPC   C3B53577   8.382  32.169   6.950
 4154POPC   C4B53578   8.323  31.964   7.360
 4155POPC   NC353579  17.827  18.737   5.358
 4155POPC   PO453580  17.539  19.377   5.296
 4155POPC   GL153581  17.437  19.307   5.752
 4155POPC   GL253582  17.712  19.050   5.835
 4155POPC   C1A53583  17.228  19.049   6.120
 4155POPC   D2A53584  17.233  18.800   6.545
 4155POPC   C3A53585  17.324  18.978   6.963
 4155POPC   C4A53586  17.257  18.907   7.406
 4155POPC   C1B53587  17.700  18.860   6.260
 4155POPC   C2B53588  17.897  18.912   6.635
 4155POPC   C3B53589  17.824  18.846   7.060
 4155POPC   C4B53590  17.698  19.154   7.335
 4156POPC   NC353591   1.385  36.997   5.508
 4156POPC   PO453592   0.715  37.057   5.564
 4156POPC   GL153593   1.071  36.958   5.900
 4156POPC   GL253594   1.319  36.671   5.913
 4156POPC   C1A53595   1.441  37.089   6.176
 4156POPC   D2A53596   1.296  37.152   6.612
 4156POPC   C3A53597   1.471  37.038   6.992
 4156POPC   C4A53598   1.255  36.917   7.384
 4156POPC   C1B53599   1.241  36.664   6.383
 4156POPC   C2B53600   1.344  36.571   6.826
 4156POPC   C3B53601   1.256  36.427   7.260
 4156POPC   C4B53602   1.309  36.501   7.722
 4157POPC   NC353603   3.937   7.611   5.606
 4157POPC   PO453604   3.398   7.158   5.449
 4157POPC   GL153605   3.531   7.336   5.820
 4157POPC   GL253606   3.212   7.356   6.021
 4157POPC   C1A53607   3.725   7.346   6.239
 4157POPC   D2A53608   3.533   7.125   6.575
 4157POPC   C3A53609   3.649   7.142   7.003
 4157POPC   C4A53610   3.453   7.223   7.446
 4157POPC   C1B53611   3.277   7.583   6.402
 4157POPC   C2B53612   3.633   7.613   6.695
 4157POPC   C3B53613   3.469   7.607   7.066
 4157POPC   C4B53614   3.204   7.660   7.385
 4158POPC   NC353615  38.388  18.955   5.151
 4158POPC   PO453616  38.140  19.485   5.461
 4158POPC   GL153617  38.368  19.201   5.746
 4158POPC   GL253618  38.182  18.913   5.759
 4158POPC   C1A53619  38.526  19.089   6.184
 4158POPC   D2A53620  38.673  18.874   6.566
 4158POPC   C3A53621  38.568  19.090   6.990
 4158POPC   C4A53622  38.613  19.027   7.456
 4158POPC   C1B53623  38.089  18.826   6.146
 4158POPC   C2B53624  38.129  18.725   6.553
 4158POPC   C3B53625  38.365  18.611   6.896
 4158POPC   C4B53626  38.179  18.801   7.257
 4159POPC   NC353627  11.653  21.460   5.484
 4159POPC   PO453628  11.109  21.140   5.638
 4159POPC   GL153629  11.387  21.181   5.920
 4159POPC   GL253630  11.351  21.534   5.919
 4159POPC   C1A53631  11.209  21.073   6.313
 4159POPC   D2A53632  10.841  20.879   6.550
 4159POPC   C3A53633  10.954  20.849   6.986
 4159POPC   C4A53634  11.066  21.125   7.330
 4159POPC   C1B53635  11.555  21.503   6.313
 4159POPC   C2B53636  11.367  21.682   6.694
 4159POPC   C3B53637  11.322  21.488   7.062
 4159POPC   C4B53638  11.602  21.162   7.237
 4160POPC   NC353639  14.869  25.826   5.565
 4160POPC   PO453640  15.368  26.337   5.441
 4160POPC   GL153641  15.238  26.108   5.799
 4160POPC   GL253642  14.909  26.230   5.872
 4160POPC   C1A53643  15.233  26.054   6.251
 4160POPC   D2A53644  15.264  26.326   6.614
 4160POPC   C3A53645  15.285  26.125   7.021
 4160POPC   C4A53646  15.491  25.723   7.133
 4160POPC   C1B53647  14.747  25.890   6.205
 4160POPC   C2B53648  14.768  25.634   6.618
 4160POPC   C3B53649  14.723  25.796   7.066
 4160POPC   C4B53650  15.027  25.874   7.430
 4161POPC   NC353651   5.005  10.048   5.181
 4161POPC   PO453652   5.269   9.612   5.703
 4161POPC   GL153653   5.152   9.690   6.050
 4161POPC   GL253654   4.840   9.611   5.992
 4161POPC   C1A53655   4.978   9.913   6.385
 4161POPC   D2A53656   5.274   9.864   6.663
 4161POPC   C3A53657   5.136   9.792   7.014
 4161POPC   C4A53658   5.348   9.696   7.303
 4161POPC   C1B53659   4.934   9.366   6.351
 4161POPC   C2B53660   4.892   9.441   6.748
 4161POPC   C3B53661   4.939   9.362   7.175
 4161POPC   C4B53662   4.612   9.561   7.373
 4162POPC   NC353663   2.750  12.211   5.559
 4162POPC   PO453664   2.752  11.607   5.296
 4162POPC   GL153665   2.807  11.728   5.742
 4162POPC   GL253666   2.476  11.810   5.812
 4162POPC   C1A53667   3.065  11.862   6.156
 4162POPC   D2A53668   3.119  12.243   6.437
 4162POPC   C3A53669   2.993  12.197   6.884
 4162POPC   C4A53670   2.865  11.999   7.279
 4162POPC   C1B53671   2.563  11.993   6.226
 4162POPC   C2B53672   2.494  12.176   6.632
 4162POPC   C3B53673   2.424  12.047   7.039
 4162POPC   C4B53674   2.426  12.206   7.463
 4163POPC   NC353675  26.858  13.226   5.383
 4163POPC   PO453676  26.474  12.602   5.431
 4163POPC   GL153677  26.709  12.836   5.702
 4163POPC   GL253678  26.547  13.126   5.804
 4163POPC   C1A53679  26.797  12.741   6.110
 4163POPC   D2A53680  26.737  12.896   6.515
 4163POPC   C3A53681  26.649  12.664   6.881
 4163POPC   C4A53682  26.728  12.789   7.310
 4163POPC   C1B53683  26.369  13.030   6.179
 4163POPC   C2B53684  26.363  13.223   6.611
 4163POPC   C3B53685  26.621  13.178   6.971
 4163POPC   C4B53686  26.476  13.306   7.376
 4164POPC   NC353687   4.815   3.617   5.406
 4164POPC   PO453688   4.193   3.448   5.434
 4164POPC   GL153689   4.356   3.502   5.829
 4164POPC   GL253690   4.167   3.802   5.852
 4164POPC   C1A53691   4.411   3.297   6.223
 4164POPC   D2A53692   4.368   3.538   6.595
 4164POPC   C3A53693   4.251   3.504   6.988
 4164POPC   C4A53694   4.478   3.496   7.355
 4164POPC   C1B53695   4.358   3.890   6.246
 4164POPC   C2B53696   4.600   3.986   6.631
 4164POPC   C3B53697   4.574   3.925   7.055
 4164POPC   C4B53698   4.241   3.938   7.309
 4165POPC   NC353699   4.699  33.133   5.667
 4165POPC   PO453700   5.295  32.858   5.464
 4165POPC   GL153701   5.171  33.003   5.854
 4165POPC   GL253702   5.200  33.353   5.760
 4165POPC   C1A53703   5.237  32.938   6.300
 4165POPC   D2A53704   5.113  32.766   6.710
 4165POPC   C3A53705   5.251  32.942   7.096
 4165POPC   C4A53706   5.154  32.799   7.534
 4165POPC   C1B53707   4.990  33.447   6.169
 4165POPC   C2B53708   4.797  33.178   6.482
 4165POPC   C3B53709   4.837  33.229   6.913
 4165POPC   C4B53710   4.949  33.255   7.361
 4166POPC   NC353711   8.708  20.840   5.346
 4166POPC   PO453712   8.922  20.306   5.467
 4166POPC   GL153713   8.724  20.501   5.836
 4166POPC   GL253714   8.550  20.837   5.867
 4166POPC   C1A53715   8.710  20.558   6.285
 4166POPC   D2A53716   8.653  20.433   6.703
 4166POPC   C3A53717   8.999  20.393   6.933
 4166POPC   C4A53718   9.089  20.304   7.354
 4166POPC   C1B53719   8.832  21.043   6.222
 4166POPC   C2B53720   8.970  20.883   6.650
 4166POPC   C3B53721   8.830  20.821   7.100
 4166POPC   C4B53722   8.955  20.819   7.530
 4167POPC   NC353723  15.488  22.430   5.091
 4167POPC   PO453724  15.047  22.773   5.490
 4167POPC   GL153725  15.134  22.731   5.926
 4167POPC   GL253726  15.391  22.969   5.949
 4167POPC   C1A53727  15.020  22.891   6.316
 4167POPC   D2A53728  14.848  23.127   6.645
 4167POPC   C3A53729  14.948  22.937   7.014
 4167POPC   C4A53730  15.038  23.132   7.367
 4167POPC   C1B53731  15.517  23.049   6.350
 4167POPC   C2B53732  15.373  22.919   6.731
 4167POPC   C3B53733  15.474  23.042   7.121
 4167POPC   C4B53734  15.769  23.153   7.429
 4168POPC   NC353735  32.182  34.218   5.299
 4168POPC   PO453736  32.150  33.574   5.422
 4168POPC   GL153737  32.271  33.806   5.766
 4168POPC   GL253738  32.609  33.655   5.735
 4168POPC   C1A53739  32.099  33.934   6.193
 4168POPC   D2A53740  32.254  33.829   6.595
 4168POPC   C3A53741  32.094  33.897   6.996
 4168POPC   C4A53742  31.946  33.860   7.389
 4168POPC   C1B53743  32.616  33.814   6.163
 4168POPC   C2B53744  32.755  33.774   6.578
 4168POPC   C3B53745  32.605  33.845   6.979
 4168POPC   C4B53746  32.428  33.718   7.330
 4169POPC   NC353747  31.000  28.110   5.442
 4169POPC   PO453748  30.493  28.531   5.447
 4169POPC   GL153749  30.739  28.379   5.792
 4169POPC   GL253750  30.871  28.683   5.888
 4169POPC   C1A53751  30.797  28.253   6.225
 4169POPC   D2A53752  30.487  28.266   6.548
 4169POPC   C3A53753  30.631  28.160   6.951
 4169POPC   C4A53754  30.403  28.031   7.276
 4169POPC   C1B53755  30.452  28.668   6.140
 4169POPC   C2B53756  30.207  28.702   6.536
 4169POPC   C3B53757  30.450  28.667   6.913
 4169POPC   C4B53758  30.548  28.524   7.335
 4170POPC   NC353759  26.590  21.100   5.365
 4170POPC   PO453760  26.567  21.796   5.432
 4170POPC   GL153761  26.761  21.540   5.784
 4170POPC   GL253762  26.815  21.211   5.857
 4170POPC   C1A53763  26.857  21.650   6.199
 4170POPC   D2A53764  27.088  21.571   6.588
 4170POPC   C3A53765  26.835  21.476   6.972
 4170POPC   C4A53766  26.757  21.320   7.394
 4170POPC   C1B53767  26.980  21.146   6.274
 4170POPC   C2B53768  26.918  21.052   6.708
 4170POPC   C3B53769  27.012  20.965   7.127
 4170POPC   C4B53770  27.007  20.902   7.579
 4171POPC   NC353771  25.741  17.678   5.435
 4171POPC   PO453772  26.011  17.122   5.175
 4171POPC   GL153773  26.102  17.409   5.663
 4171POPC   GL253774  26.256  17.243   5.993
 4171POPC   C1A53775  26.088  17.699   6.081
 4171POPC   D2A53776  26.101  17.885   6.526
 4171POPC   C3A53777  26.073  17.649   6.924
 4171POPC   C4A53778  25.728  17.684   7.226
 4171POPC   C1B53779  25.861  17.201   6.249
 4171POPC   C2B53780  25.738  17.369   6.653
 4171POPC   C3B53781  25.827  17.217   7.060
 4171POPC   C4B53782  25.888  17.032   7.476
 4172POPC   NC353783  36.076  24.094   5.397
 4172POPC   PO453784  36.635  24.505   5.432
 4172POPC   GL153785  36.271  24.537   5.729
 4172POPC   GL253786  35.929  24.438   5.745
 4172POPC   C1A53787  36.249  24.541   6.168
 4172POPC   D2A53788  36.125  24.494   6.593
 4172POPC   C3A53789  36.062  24.771   6.947
 4172POPC   C4A53790  36.309  24.753   7.333
 4172POPC   C1B53791  35.761  24.377   6.143
 4172POPC   C2B53792  35.812  24.130   6.481
 4172POPC   C3B53793  35.770  24.286   6.905
 4172POPC   C4B53794  35.482  24.366   7.250
 4173POPC   NC353795  28.583  43.359   5.496
 4173POPC   PO453796  28.265  42.723   5.455
 4173POPC   GL153797  28.307  43.027   5.777
 4173POPC   GL253798  28.648  42.941   5.799
 4173POPC   C1A53799  28.295  43.254   6.186
 4173POPC   D2A53800  28.341  43.085   6.597
 4173POPC   C3A53801  28.217  43.272   6.979
 4173POPC   C4A53802  28.188  43.379   7.397
 4173POPC   C1B53803  28.794  43.240   6.098
 4173POPC   C2B53804  28.806  43.399   6.502
 4173POPC   C3B53805  28.743  43.242   6.892
 4173POPC   C4B53806  28.663  43.297   7.296
 4174POPC   NC353807  18.100   2.213   5.543
 4174POPC   PO453808  18.708   1.932   5.357
 4174POPC   GL153809  18.490   1.888   5.777
 4174POPC   GL253810  18.158   1.737   5.869
 4174POPC   C1A53811  18.376   2.083   6.195
 4174POPC   D2A53812  18.497   2.219   6.617
 4174POPC   C3A53813  18.222   2.244   6.959
 4174POPC   C4A53814  18.493   2.078   7.247
 4174POPC   C1B53815  18.182   1.618   6.312
 4174POPC   C2B53816  18.182   1.783   6.743
 4174POPC   C3B53817  18.178   1.667   7.198
 4174POPC   C4B53818  18.324   1.759   7.622
 4175POPC   NC353819  32.721  12.490   5.339
 4175POPC   PO453820  32.909  13.150   5.306
 4175POPC   GL153821  32.884  12.876   5.689
 4175POPC   GL253822  33.130  12.577   5.703
 4175POPC   C1A53823  32.830  12.991   6.150
 4175POPC   D2A53824  33.034  13.063   6.536
 4175POPC   C3A53825  32.818  13.091   6.897
 4175POPC   C4A53826  32.809  13.186   7.318
 4175POPC   C1B53827  32.855  12.497   6.034
 4175POPC   C2B53828  32.842  12.493   6.484
 4175POPC   C3B53829  33.069  12.612   6.840
 4175POPC   C4B53830  32.986  12.716   7.247
 4176POPC   NC353831  33.216  41.817   5.558
 4176POPC   PO453832  32.665  41.640   5.220
 4176POPC   GL153833  32.721  41.645   5.725
 4176POPC   GL253834  32.983  41.457   5.899
 4176POPC   C1A53835  32.834  41.841   6.185
 4176POPC   D2A53836  33.050  41.736   6.616
 4176POPC   C3A53837  32.826  41.802   7.014
 4176POPC   C4A53838  32.935  41.760   7.455
 4176POPC   C1B53839  33.222  41.180   6.205
 4176POPC   C2B53840  33.137  41.148   6.649
 4176POPC   C3B53841  33.119  41.391   7.058
 4176POPC   C4B53842  33.183  41.296   7.500
 4177POPC   NC353843  30.278  37.123   5.443
 4177POPC   PO453844  29.739  36.872   5.130
 4177POPC   GL153845  29.914  36.789   5.587
 4177POPC   GL253846  30.221  36.584   5.624
 4177POPC   C1A53847  29.929  36.920   6.054
 4177POPC   D2A53848  29.726  37.058   6.454
 4177POPC   C3A53849  29.972  37.255   6.781
 4177POPC   C4A53850  29.836  37.242   7.207
 4177POPC   C1B53851  30.198  36.463   6.099
 4177POPC   C2B53852  30.075  36.675   6.530
 4177POPC   C3B53853  29.852  36.775   6.957
 4177POPC   C4B53854  29.920  36.802   7.448
 4178POPC   NC353855  35.686  25.012   5.465
 4178POPC   PO453856  35.169  25.447   5.490
 4178POPC   GL153857  35.468  25.329   5.821
 4178POPC   GL253858  35.256  25.093   5.932
 4178POPC   C1A53859  35.589  25.249   6.282
 4178POPC   D2A53860  35.506  25.486   6.683
 4178POPC   C3A53861  35.316  25.301   7.071
 4178POPC   C4A53862  35.508  25.131   7.468
 4178POPC   C1B53863  35.134  25.455   6.252
 4178POPC   C2B53864  34.964  25.586   6.675
 4178POPC   C3B53865  34.853  25.588   7.127
 4178POPC   C4B53866  35.093  25.541   7.511
 4179POPC   NC353867  13.772  13.575   5.448
 4179POPC   PO453868  13.143  13.876   5.507
 4179POPC   GL153869  13.460  13.788   5.823
 4179POPC   GL253870  13.839  13.916   5.814
 4179POPC   C1A53871  13.411  13.543   6.194
 4179POPC   D2A53872  13.613  13.438   6.557
 4179POPC   C3A53873  13.478  13.597   6.957
 4179POPC   C4A53874  13.437  13.280   7.267
 4179POPC   C1B53875  13.907  13.691   6.193
 4179POPC   C2B53876  13.855  13.878   6.623
 4179POPC   C3B53877  14.005  13.731   7.013
 4179POPC   C4B53878  13.902  13.471   7.339
 4180POPC   NC353879  36.288  43.259   5.374
 4180POPC   PO453880  35.756  42.825   5.468
 4180POPC   GL153881  36.097  42.896   5.694
 4180POPC   GL253882  35.977  43.215   5.757
 4180POPC   C1A53883  36.228  42.888   6.112
 4180POPC   D2A53884  36.282  43.170   6.462
 4180POPC   C3A53885  36.436  42.976   6.828
 4180POPC   C4A53886  36.227  42.796   7.154
 4180POPC   C1B53887  35.873  43.285   6.133
 4180POPC   C2B53888  35.916  43.548   6.464
 4180POPC   C3B53889  35.879  43.335   6.847
 4180POPC   C4B53890  36.161  43.313   7.187
 4181POPC   NC353891   3.797   3.844   5.486
 4181POPC   PO453892   3.294   3.293   5.391
 4181POPC   GL153893   3.498   3.470   5.749
 4181POPC   GL253894   3.833   3.345   5.792
 4181POPC   C1A53895   3.475   3.670   6.156
 4181POPC   D2A53896   3.483   3.575   6.559
 4181POPC   C3A53897   3.337   3.855   6.837
 4181POPC   C4A53898   3.315   3.774   7.243
 4181POPC   C1B53899   3.948   3.504   6.212
 4181POPC   C2B53900   3.915   3.312   6.618
 4181POPC   C3B53901   3.747   3.450   7.002
 4181POPC   C4B53902   3.958   3.523   7.427
 4182POPC   NC353903  37.382  35.342   5.480
 4182POPC   PO453904  38.119  35.228   5.471
 4182POPC   GL153905  37.835  35.416   5.781
 4182POPC   GL253906  37.667  35.150   5.871
 4182POPC   C1A53907  37.693  35.547   6.209
 4182POPC   D2A53908  37.504  35.454   6.644
 4182POPC   C3A53909  37.758  35.440   7.044
 4182POPC   C4A53910  37.790  35.496   7.490
 4182POPC   C1B53911  37.737  35.023   6.303
 4182POPC   C2B53912  37.784  35.023   6.726
 4182POPC   C3B53913  37.927  34.940   7.085
 4182POPC   C4B53914  37.714  35.008   7.437
 4183POPC   NC353915  20.723  38.835   5.413
 4183POPC   PO453916  20.397  38.341   5.509
 4183POPC   GL153917  20.648  38.559   5.848
 4183POPC   GL253918  20.937  38.851   5.883
 4183POPC   C1A53919  20.542  38.368   6.268
 4183POPC   D2A53920  20.498  38.114   6.665
 4183POPC   C3A53921  20.434  38.410   7.004
 4183POPC   C4A53922  20.270  38.582   7.371
 4183POPC   C1B53923  20.993  38.625   6.249
 4183POPC   C2B53924  20.845  38.499   6.657
 4183POPC   C3B53925  20.970  38.431   7.067
 4183POPC   C4B53926  20.806  38.742   7.313
 4184POPC   NC353927  24.378  38.639   5.535
 4184POPC   PO453928  24.739  38.064   5.509
 4184POPC   GL153929  24.589  38.250   5.923
 4184POPC   GL253930  24.658  38.614   5.953
 4184POPC   C1A53931  24.311  38.389   6.311
 4184POPC   D2A53932  24.146  38.622   6.704
 4184POPC   C3A53933  24.180  38.348   7.101
 4184POPC   C4A53934  24.276  38.140   7.518
 4184POPC   C1B53935  24.833  38.458   6.350
 4184POPC   C2B53936  24.602  38.406   6.751
 4184POPC   C3B53937  24.649  38.460   7.175
 4184POPC   C4B53938  24.959  38.129   7.278
 4185POPC   NC353939  30.730   0.611   5.443
 4185POPC   PO453940  30.223   1.081   5.579
 4185POPC   GL153941  30.350   0.669   5.876
 4185POPC   GL253942  30.695   0.467   5.917
 4185POPC   C1A53943  30.438   0.511   6.337
 4185POPC   D2A53944  30.509   0.716   6.730
 4185POPC   C3A53945  30.633   0.427   7.069
 4185POPC   C4A53946  30.406   0.067   7.180
 4185POPC   C1B53947  30.935   0.601   6.286
 4185POPC   C2B53948  30.947   0.444   6.660
 4185POPC   C3B53949  31.215   0.371   6.957
 4185POPC   C4B53950  31.042   0.346   7.372
 4186POPC   NC353951  27.269   8.435   5.528
 4186POPC   PO453952  27.769   8.022   5.522
 4186POPC   GL153953  27.568   8.115   5.862
 4186POPC   GL253954  27.257   7.962   5.861
 4186POPC   C1A53955  27.663   8.073   6.295
 4186POPC   D2A53956  27.887   7.947   6.669
 4186POPC   C3A53957  27.733   8.090   7.055
 4186POPC   C4A53958  27.904   8.305   7.408
 4186POPC   C1B53959  27.230   8.330   6.151
 4186POPC   C2B53960  27.272   8.350   6.550
 4186POPC   C3B53961  27.317   8.349   6.961
 4186POPC   C4B53962  27.378   8.284   7.378
 4187POPC   NC353963  22.823  32.929   5.393
 4187POPC   PO453964  23.144  33.509   5.360
 4187POPC   GL153965  23.120  33.247   5.762
 4187POPC   GL253966  23.184  32.879   5.746
 4187POPC   C1A53967  23.020  33.238   6.227
 4187POPC   D2A53968  22.755  33.074   6.598
 4187POPC   C3A53969  22.778  33.245   7.017
 4187POPC   C4A53970  23.149  33.344   7.232
 4187POPC   C1B53971  22.988  32.699   6.105
 4187POPC   C2B53972  22.985  32.607   6.538
 4187POPC   C3B53973  23.023  32.772   6.945
 4187POPC   C4B53974  22.733  32.814   7.303
 4188POPC   NC353975  43.237  37.191   5.372
 4188POPC   PO453976  43.035  36.537   5.220
 4188POPC   GL153977  42.970  36.749   5.673
 4188POPC   GL253978  42.979  37.060   5.791
 4188POPC   C1A53979  42.960  36.663   6.151
 4188POPC   D2A53980  42.810  36.693   6.563
 4188POPC   C3A53981  43.075  36.767   6.929
 4188POPC   C4A53982  42.903  36.717   7.339
 4188POPC   C1B53983  43.154  37.157   6.191
 4188POPC   C2B53984  43.276  37.093   6.594
 4188POPC   C3B53985  43.178  37.282   6.969
 4188POPC   C4B53986  42.915  37.259   7.316
 4189POPC   NC353987   2.312  31.034   5.478
 4189POPC   PO453988   1.719  30.646   5.378
 4189POPC   GL153989   1.926  30.598   5.806
 4189POPC   GL253990   2.041  30.929   5.887
 4189POPC   C1A53991   2.180  30.505   6.195
 4189POPC   D2A53992   2.118  30.207   6.491
 4189POPC   C3A53993   2.104  30.328   6.858
 4189POPC   C4A53994   1.988  30.569   7.144
 4189POPC   C1B53995   1.847  30.895   6.270
 4189POPC   C2B53996   2.016  30.813   6.659
 4189POPC   C3B53997   1.964  31.054   7.050
 4189POPC   C4B53998   2.388  30.903   7.147
 4190POPC   NC353999  11.369  25.857   5.431
 4190POPC   PO454000  10.857  26.368   5.375
 4190POPC   GL154001  11.138  26.210   5.737
 4190POPC   GL254002  11.502  26.207   5.827
 4190POPC   C1A54003  11.154  25.983   6.153
 4190POPC   D2A54004  11.335  26.177   6.535
 4190POPC   C3A54005  11.202  26.023   6.922
 4190POPC   C4A54006  10.878  26.078   7.207
 4190POPC   C1B54007  11.684  25.938   6.197
 4190POPC   C2B54008  11.751  25.890   6.673
 4190POPC   C3B54009  11.659  26.215   7.010
 4190POPC   C4B54010  11.624  26.285   7.465
 4191POPC   NC354011   5.300  42.149   5.247
 4191POPC   PO454012   4.967  42.694   5.433
 4191POPC   GL154013   5.056  42.362   5.683
 4191POPC   GL254014   5.418  42.349   5.744
 4191POPC   C1A54015   4.997  42.173   6.093
 4191POPC   D2A54016   5.165  42.259   6.512
 4191POPC   C3A54017   4.894  42.252   6.869
 4191POPC   C4A54018   4.916  42.273   7.286
 4191POPC   C1B54019   5.315  42.588   6.109
 4191POPC   C2B54020   5.396  42.743   6.488
 4191POPC   C3B54021   5.138  42.687   6.806
 4191POPC   C4B54022   5.200  42.698   7.219
 4192POPC   NC354023  42.263   8.560   5.643
 4192POPC   PO454024  42.269   9.230   5.475
 4192POPC   GL154025  42.487   8.994   5.813
 4192POPC   GL254026  42.170   8.963   5.978
 4192POPC   C1A54027  42.497   8.732   6.268
 4192POPC   D2A54028  42.200   8.733   6.658
 4192POPC   C3A54029  42.386   8.810   7.107
 4192POPC   C4A54030  42.467   8.700   7.572
 4192POPC   C1B54031  42.453   9.259   6.253
 4192POPC   C2B54032  42.497   9.524   6.617
 4192POPC   C3B54033  42.472   9.366   7.046
 4192POPC   C4B54034  42.579   9.192   7.466
 4193POPC   NC354035  10.119  22.944   5.304
 4193POPC   PO454036  10.796  22.761   5.525
 4193POPC   GL154037  10.640  22.914   5.899
 4193POPC   GL254038  10.910  23.099   6.009
 4193POPC   C1A54039  10.367  22.949   6.294
 4193POPC   D2A54040  10.553  22.975   6.722
 4193POPC   C3A54041  10.308  23.023   7.073
 4193POPC   C4A54042  10.306  23.224   7.475
 4193POPC   C1B54043  10.841  22.742   6.344
 4193POPC   C2B54044  10.789  22.519   6.770
 4193POPC   C3B54045  10.669  22.646   7.189
 4193POPC   C4B54046  10.677  22.458   7.653
 4194POPC   NC354047  24.696  28.294   5.332
 4194POPC   PO454048  24.382  28.856   5.398
 4194POPC   GL154049  24.465  28.551   5.724
 4194POPC   GL254050  24.449  28.165   5.767
 4194POPC   C1A54051  24.362  28.506   6.146
 4194POPC   D2A54052  24.263  28.587   6.545
 4194POPC   C3A54053  24.331  28.252   6.830
 4194POPC   C4A54054  24.319  28.403   7.237
 4194POPC   C1B54055  24.687  28.103   6.177
 4194POPC   C2B54056  24.684  27.897   6.607
 4194POPC   C3B54057  24.935  27.912   6.953
 4194POPC   C4B54058  24.746  28.137   7.270
 4195POPC   NC354059  20.859   4.156   5.560
 4195POPC   PO454060  21.529   4.264   5.450
 4195POPC   GL154061  21.513   4.399   5.869
 4195POPC   GL254062  21.179   4.402   5.845
 4195POPC   C1A54063  21.621   4.397   6.317
 4195POPC   D2A54064  21.485   4.285   6.733
 4195POPC   C3A54065  21.497   4.589   7.099
 4195POPC   C4A54066  21.628   4.403   7.525
 4195POPC   C1B54067  21.112   4.230   6.237
 4195POPC   C2B54068  21.060   3.906   6.529
 4195POPC   C3B54069  21.152   3.959   6.925
 4195POPC   C4B54070  21.270   4.165   7.270
 4196POPC   NC354071  40.233  43.357   5.596
 4196POPC   PO454072  39.850  42.846   5.465
 4196POPC   GL154073  40.029  42.914   5.871
 4196POPC   GL254074  39.972  43.260   6.029
 4196POPC   C1A54075  39.878  42.829   6.285
 4196POPC   D2A54076  39.904  43.087   6.670
 4196POPC   C3A54077  39.867  42.840   7.020
 4196POPC   C4A54078  39.931  42.851   7.444
 4196POPC   C1B54079  40.306  43.113   6.311
 4196POPC   C2B54080  40.440  43.201   6.753
 4196POPC   C3B54081  40.198  43.213   7.139
 4196POPC   C4B54082  39.764  43.302   7.232
 4197POPC   NC354083  21.830  26.815   5.021
 4197POPC   PO454084  21.333  27.201   5.325
 4197POPC   GL154085  21.311  26.901   5.749
 4197POPC   GL254086  21.591  27.047   5.925
 4197POPC   C1A54087  21.410  26.689   6.209
 4197POPC   D2A54088  21.555  26.601   6.604
 4197POPC   C3A54089  21.245  26.573   6.890
 4197POPC   C4A54090  21.466  26.430   7.235
 4197POPC   C1B54091  21.452  27.190   6.325
 4197POPC   C2B54092  21.553  27.220   6.751
 4197POPC   C3B54093  21.574  26.915   7.069
 4197POPC   C4B54094  21.453  26.866   7.502
 4198POPC   NC354095  29.148   1.450   5.478
 4198POPC   PO454096  29.334   0.835   5.685
 4198POPC   GL154097  29.341   1.105   5.988
 4198POPC   GL254098  29.387   1.438   5.911
 4198POPC   C1A54099  29.297   1.119   6.412
 4198POPC   D2A54100  29.041   0.985   6.732
 4198POPC   C3A54101  29.038   1.221   7.076
 4198POPC   C4A54102  29.292   0.913   7.221
 4198POPC   C1B54103  29.139   1.596   6.249
 4198POPC   C2B54104  29.202   1.527   6.684
 4198POPC   C3B54105  29.511   1.248   6.894
 4198POPC   C4B54106  29.538   1.319   7.344
 4199POPC   NC354107  20.783   6.536   5.560
 4199POPC   PO454108  20.240   6.136   5.546
 4199POPC   GL154109  20.410   6.350   5.870
 4199POPC   GL254110  20.222   6.650   5.862
 4199POPC   C1A54111  20.723   6.303   6.196
 4199POPC   D2A54112  20.703   6.487   6.598
 4199POPC   C3A54113  20.680   6.352   7.009
 4199POPC   C4A54114  20.535   6.673   7.226
 4199POPC   C1B54115  20.332   6.694   6.310
 4199POPC   C2B54116  20.427   6.902   6.738
 4199POPC   C3B54117  20.184   7.012   7.124
 4199POPC   C4B54118  19.950   7.081   7.504
 4200POPC   NC354119  14.800   2.058   5.220
 4200POPC   PO454120  15.242   2.359   5.605
 4200POPC   GL154121  15.177   2.061   5.932
 4200POPC   GL254122  14.882   1.822   5.851
 4200POPC   C1A54123  15.369   1.974   6.335
 4200POPC   D2A54124  15.599   1.911   6.716
 4200POPC   C3A54125  15.439   1.773   7.055
 4200POPC   C4A54126  15.229   1.994   7.384
 4200POPC   C1B54127  14.854   1.877   6.302
 4200POPC   C2B54128  14.967   2.239   6.538
 4200POPC   C3B54129  15.021   2.217   6.961
 4200POPC   C4B54130  14.906   1.795   7.054
 4201POPC   NC354131   7.542  35.531   5.555
 4201POPC   PO454132   7.185  34.927   5.406
 4201POPC   GL154133   7.314  35.141   5.817
 4201POPC   GL254134   7.257  35.519   5.952
 4201POPC   C1A54135   7.558  35.173   6.214
 4201POPC   D2A54136   7.467  35.377   6.571
 4201POPC   C3A54137   7.703  35.321   6.924
 4201POPC   C4A54138   7.634  35.019   7.239
 4201POPC   C1B54139   7.533  35.738   6.184
 4201POPC   C2B54140   7.644  35.876   6.588
 4201POPC   C3B54141   7.412  35.758   6.908
 4201POPC   C4B54142   7.351  35.501   7.221
 4202POPC   NC354143  44.667   0.078   5.560
 4202POPC   PO454144  44.980   0.698   5.548
 4202POPC   GL154145  44.671   0.522   5.825
 4202POPC   GL254146  44.926   0.285   5.947
 4202POPC   C1A54147  44.517   0.380   6.238
 4202POPC   D2A54148  44.419   0.448   6.676
 4202POPC   C3A54149  44.635   0.174   6.954
 4202POPC   C4A54150  44.443   0.007   7.320
 4202POPC   C1B54151  44.995   0.641   6.219
 4202POPC   C2B54152  44.851   0.831   6.585
 4202POPC   C3B54153  44.788   0.688   6.989
 4202POPC   C4B54154  44.643   0.497   7.346
 4203POPC   NC354155  43.040  34.244   5.297
 4203POPC   PO454156  43.301  33.699   5.652
 4203POPC   GL154157  42.928  33.717   5.808
 4203POPC   GL254158  42.820  34.038   5.739
 4203POPC   C1A54159  42.900  33.648   6.238
 4203POPC   D2A54160  43.043  33.890   6.597
 4203POPC   C3A54161  42.947  33.679   6.988
 4203POPC   C4A54162  43.145  33.787   7.356
 4203POPC   C1B54163  42.733  34.202   6.146
 4203POPC   C2B54164  42.753  34.322   6.594
 4203POPC   C3B54165  42.884  34.191   7.011
 4203POPC   C4B54166  42.734  34.074   7.433
 4204POPC   NC354167   1.771   4.901   5.543
 4204POPC   PO454168   2.225   5.281   5.327
 4204POPC   GL154169   2.139   5.227   5.804
 4204POPC   GL254170   2.076   4.901   5.963
 4204POPC   C1A54171   2.060   5.271   6.295
 4204POPC   D2A54172   1.688   5.221   6.617
 4204POPC   C3A54173   1.773   5.322   7.016
 4204POPC   C4A54174   2.184   5.260   7.149
 4204POPC   C1B54175   1.708   4.868   6.249
 4204POPC   C2B54176   1.731   4.729   6.727
 4204POPC   C3B54177   1.826   4.834   7.180
 4204POPC   C4B54178   2.111   4.618   7.471
 4205POPC   NC354179  41.205  40.012   5.383
 4205POPC   PO454180  40.561  39.811   5.125
 4205POPC   GL154181  40.708  39.902   5.617
 4205POPC   GL254182  41.029  39.964   5.864
 4205POPC   C1A54183  40.559  39.850   6.071
 4205POPC   D2A54184  40.531  39.785   6.559
 4205POPC   C3A54185  40.402  40.132   6.840
 4205POPC   C4A54186  40.672  40.279   7.182
 4205POPC   C1B54187  40.951  40.074   6.331
 4205POPC   C2B54188  40.950  40.020   6.802
 4205POPC   C3B54189  41.187  40.212   7.140
 4205POPC   C4B54190  41.215  40.283   7.589
 4206POPC   NC354191  42.388  32.837   5.396
 4206POPC   PO454192  42.413  33.426   5.282
 4206POPC   GL154193  42.578  33.189   5.717
 4206POPC   GL254194  42.256  33.036   5.851
 4206POPC   C1A54195  42.649  33.029   6.192
 4206POPC   D2A54196  42.711  33.187   6.656
 4206POPC   C3A54197  42.628  32.878   7.036
 4206POPC   C4A54198  42.277  32.803   7.387
 4206POPC   C1B54199  41.993  33.100   6.231
 4206POPC   C2B54200  42.195  33.099   6.630
 4206POPC   C3B54201  42.227  33.200   7.058
 4206POPC   C4B54202  41.862  33.208   7.301
 4207POPC   NC354203   3.227   1.157   5.496
 4207POPC   PO454204   3.804   0.935   5.236
 4207POPC   GL154205   3.793   1.230   5.704
 4207POPC   GL254206   3.509   1.415   5.809
 4207POPC   C1A54207   3.700   1.173   6.205
 4207POPC   D2A54208   3.536   0.922   6.572
 4207POPC   C3A54209   3.461   1.175   6.954
 4207POPC   C4A54210   3.898   1.177   7.160
 4207POPC   C1B54211   3.478   1.631   6.208
 4207POPC   C2B54212   3.307   1.605   6.619
 4207POPC   C3B54213   3.200   1.651   7.042
 4207POPC   C4B54214   3.363   1.518   7.417
 4208POPC   NC354215  16.614   6.283   5.439
 4208POPC   PO454216  16.860   5.626   5.427
 4208POPC   GL154217  16.800   5.893   5.784
 4208POPC   GL254218  16.447   5.989   5.815
 4208POPC   C1A54219  16.677   5.753   6.201
 4208POPC   D2A54220  16.705   5.951   6.578
 4208POPC   C3A54221  16.697   5.693   6.930
 4208POPC   C4A54222  16.628   5.810   7.343
 4208POPC   C1B54223  16.601   6.265   6.151
 4208POPC   C2B54224  16.423   6.396   6.560
 4208POPC   C3B54225  16.539   6.211   6.992
 4208POPC   C4B54226  16.349   6.338   7.392
 4209POPC   NC354227  31.961   3.608   5.361
 4209POPC   PO454228  32.538   3.501   5.611
 4209POPC   GL154229  32.217   3.429   5.854
 4209POPC   GL254230  31.883   3.530   5.878
 4209POPC   C1A54231  32.221   3.509   6.293
 4209POPC   D2A54232  32.465   3.687   6.633
 4209POPC   C3A54233  32.469   3.405   6.934
 4209POPC   C4A54234  32.509   3.501   7.312
 4209POPC   C1B54235  31.738   3.246   6.216
 4209POPC   C2B54236  31.704   3.302   6.675
 4209POPC   C3B54237  31.982   3.311   7.056
 4209POPC   C4B54238  32.060   3.425   7.494
 4210POPC   NC354239  14.208  33.656   5.527
 4210POPC   PO454240  14.710  34.047   5.465
 4210POPC   GL154241  14.556  33.780   5.847
 4210POPC   GL254242  14.275  34.004   5.951
 4210POPC   C1A54243  14.223  33.557   6.182
 4210POPC   D2A54244  14.146  33.731   6.619
 4210POPC   C3A54245  14.220  33.476   6.990
 4210POPC   C4A54246  14.237  33.639   7.447
 4210POPC   C1B54247  14.592  33.876   6.323
 4210POPC   C2B54248  14.643  33.875   6.735
 4210POPC   C3B54249  14.459  33.932   7.102
 4210POPC   C4B54250  14.763  33.794   7.372
 4211POPC   NC354251  38.672  33.066   5.561
 4211POPC   PO454252  38.402  33.694   5.553
 4211POPC   GL154253  38.233  33.418   5.878
 4211POPC   GL254254  38.114  33.039   5.932
 4211POPC   C1A54255  38.391  33.273   6.277
 4211POPC   D2A54256  38.220  33.064   6.630
 4211POPC   C3A54257  38.278  33.313   6.962
 4211POPC   C4A54258  38.658  33.345   7.196
 4211POPC   C1B54259  38.361  32.742   6.249
 4211POPC   C2B54260  38.613  32.705   6.669
 4211POPC   C3B54261  38.461  32.801   7.112
 4211POPC   C4B54262  38.392  32.543   7.502
 4212POPC   NC354263  34.091  35.749   5.573
 4212POPC   PO454264  33.626  35.214   5.609
 4212POPC   GL154265  33.921  35.322   5.880
 4212POPC   GL254266  33.800  35.643   5.992
 4212POPC   C1A54267  33.818  35.232   6.302
 4212POPC   D2A54268  33.677  35.340   6.690
 4212POPC   C3A54269  33.936  35.280   7.068
 4212POPC   C4A54270  34.109  34.927   7.215
 4212POPC   C1B54271  34.096  35.681   6.351
 4212POPC   C2B54272  34.061  35.728   6.814
 4212POPC   C3B54273  33.646  35.695   7.033
 4212POPC   C4B54274  33.436  35.272   7.148
 4213POPC   NC354275  37.378  37.079   5.468
 4213POPC   PO454276  38.017  36.892   5.441
 4213POPC   GL154277  37.763  36.944   5.822
 4213POPC   GL254278  37.482  36.776   5.876
 4213POPC   C1A54279  37.559  37.202   6.161
 4213POPC   D2A54280  37.686  37.385   6.555
 4213POPC   C3A54281  37.836  37.107   6.866
 4213POPC   C4A54282  37.771  36.987   7.264
 4213POPC   C1B54283  37.526  36.550   6.248
 4213POPC   C2B54284  37.747  36.678   6.590
 4213POPC   C3B54285  37.529  36.662   6.972
 4213POPC   C4B54286  37.464  36.400   7.323
 4214POPC   NC354287   4.993  13.004   5.494
 4214POPC   PO454288   5.109  12.382   5.476
 4214POPC   GL154289   4.960  12.579   5.844
 4214POPC   GL254290   4.848  12.940   5.964
 4214POPC   C1A54291   5.174  12.669   6.217
 4214POPC   D2A54292   5.290  12.949   6.526
 4214POPC   C3A54293   4.994  12.843   6.857
 4214POPC   C4A54294   5.124  12.714   7.258
 4214POPC   C1B54295   4.886  13.264   6.267
 4214POPC   C2B54296   5.034  13.370   6.669
 4214POPC   C3B54297   4.791  13.303   7.032
 4214POPC   C4B54298   4.866  13.150   7.421
 4215POPC   NC354299  37.847  44.446   5.695
 4215POPC   PO454300  37.451  43.897   5.503
 4215POPC   GL154301  37.646  43.966   5.835
 4215POPC   GL254302  37.551  43.623   5.920
 4215POPC   C1A54303  37.787  43.914   6.242
 4215POPC   D2A54304  37.924  44.101   6.571
 4215POPC   C3A54305  37.794  43.902   6.925
 4215POPC   C4A54306  37.816  44.104   7.315
 4215POPC   C1B54307  37.323  43.511   6.259
 4215POPC   C2B54308  37.594  43.504   6.590
 4215POPC   C3B54309  37.624  43.387   6.992
 4215POPC   C4B54310  37.599  43.637   7.315
 4216POPC   NC354311  18.818   1.518   5.589
 4216POPC   PO454312  19.332   0.992   5.550
 4216POPC   GL154313  19.083   1.177   5.834
 4216POPC   GL254314  18.974   0.901   5.986
 4216POPC   C1A54315  19.074   1.413   6.214
 4216POPC   D2A54316  19.015   1.143   6.565
 4216POPC   C3A54317  19.033   1.373   6.905
 4216POPC   C4A54318  19.178   1.348   7.291
 4216POPC   C1B54319  18.767   0.734   6.377
 4216POPC   C2B54320  18.613   0.899   6.781
 4216POPC   C3B54321  18.848   0.960   7.196
 4216POPC   C4B54322  19.217   0.876   7.514
 4217POPC   NC354323  17.396   6.617   5.388
 4217POPC   PO454324  17.113   7.072   5.737
 4217POPC   GL154325  17.407   6.769   5.913
 4217POPC   GL254326  17.649   6.489   5.809
 4217POPC   C1A54327  17.544   6.748   6.353
 4217POPC   D2A54328  17.636   6.702   6.807
 4217POPC   C3A54329  17.327   6.833   7.146
 4217POPC   C4A54330  17.120   6.734   7.589
 4217POPC   C1B54331  17.574   6.249   6.206
 4217POPC   C2B54332  17.404   6.254   6.636
 4217POPC   C3B54333  17.538   6.272   7.063
 4217POPC   C4B54334  17.934   6.457   7.182
 4218POPC   NC354335  15.470  22.554   5.605
 4218POPC   PO454336  14.979  22.166   5.308
 4218POPC   GL154337  15.113  22.209   5.739
 4218POPC   GL254338  15.446  22.056   5.793
 4218POPC   C1A54339  15.135  22.100   6.199
 4218POPC   D2A54340  15.250  22.454   6.500
 4218POPC   C3A54341  15.084  22.450   6.902
 4218POPC   C4A54342  14.942  22.150   7.185
 4218POPC   C1B54343  15.616  22.275   6.183
 4218POPC   C2B54344  15.772  22.075   6.572
 4218POPC   C3B54345  15.529  22.123   6.944
 4218POPC   C4B54346  15.563  22.535   7.086
 4219POPC   NC354347  39.360  44.278   5.426
 4219POPC   PO454348  38.926  44.780   5.537
 4219POPC   GL154349  39.336  44.700   5.791
 4219POPC   GL254350  39.379   0.002   6.021
 4219POPC   C1A54351  39.534  44.481   6.130
 4219POPC   D2A54352  39.398  44.331   6.516
 4219POPC   C3A54353  39.284  44.636   6.807
 4219POPC   C4A54354  39.101  44.504   7.178
 4219POPC   C1B54355  39.089  44.752   6.292
 4219POPC   C2B54356  38.837  44.853   6.660
 4219POPC   C3B54357  38.873  44.969   7.063
 4219POPC   C4B54358  39.064  44.955   7.443
 4220POPC   NC354359  37.756  19.246   5.389
 4220POPC   PO454360  37.698  19.923   5.341
 4220POPC   GL154361  37.657  19.750   5.734
 4220POPC   GL254362  38.001  19.831   5.818
 4220POPC   C1A54363  37.661  19.732   6.210
 4220POPC   D2A54364  37.550  19.484   6.592
 4220POPC   C3A54365  37.479  19.586   7.020
 4220POPC   C4A54366  37.430  19.518   7.480
 4220POPC   C1B54367  38.100  20.011   6.212
 4220POPC   C2B54368  38.045  19.763   6.581
 4220POPC   C3B54369  38.027  19.918   6.995
 4220POPC   C4B54370  37.703  19.945   7.285
 4221POPC   NC354371  22.105  42.515   5.343
 4221POPC   PO454372  22.048  41.841   5.460
 4221POPC   GL154373  22.191  42.070   5.809
 4221POPC   GL254374  22.198  42.461   5.837
 4221POPC   C1A54375  22.265  42.150   6.232
 4221POPC   D2A54376  22.075  42.372   6.575
 4221POPC   C3A54377  22.243  42.198   6.944
 4221POPC   C4A54378  22.065  42.065   7.320
 4221POPC   C1B54379  22.098  42.748   6.204
 4221POPC   C2B54380  22.056  42.916   6.625
 4221POPC   C3B54381  22.086  42.706   7.012
 4221POPC   C4B54382  22.321  42.514   7.335
 4222POPC   NC354383  22.665  40.816   5.231
 4222POPC   PO454384  23.221  40.652   5.671
 4222POPC   GL154385  22.892  40.764   5.942
 4222POPC   GL254386  22.646  41.013   5.818
 4222POPC   C1A54387  22.755  40.636   6.335
 4222POPC   D2A54388  22.912  40.539   6.722
 4222POPC   C3A54389  23.108  40.837   6.980
 4222POPC   C4A54390  23.176  40.697   7.384
 4222POPC   C1B54391  22.538  41.104   6.268
 4222POPC   C2B54392  22.666  40.988   6.728
 4222POPC   C3B54393  22.631  40.703   7.115
 4222POPC   C4B54394  22.447  40.797   7.514
 4223POPC   NC354395  36.595  33.103   5.239
 4223POPC   PO454396  35.922  32.956   5.367
 4223POPC   GL154397  36.072  32.895   5.781
 4223POPC   GL254398  36.299  33.134   5.854
 4223POPC   C1A54399  35.939  32.868   6.202
 4223POPC   D2A54400  35.772  32.722   6.593
 4223POPC   C3A54401  35.928  32.920   6.948
 4223POPC   C4A54402  35.911  32.948   7.361
 4223POPC   C1B54403  36.271  33.238   6.306
 4223POPC   C2B54404  36.354  33.159   6.760
 4223POPC   C3B54405  36.292  33.261   7.203
 4223POPC   C4B54406  36.132  33.345   7.638
 4224POPC   NC354407  24.494  32.635   5.272
 4224POPC   PO454408  24.727  32.096   5.402
 4224POPC   GL154409  24.553  32.299   5.813
 4224POPC   GL254410  24.253  32.113   5.970
 4224POPC   C1A54411  24.618  32.229   6.290
 4224POPC   D2A54412  24.726  31.995   6.689
 4224POPC   C3A54413  24.623  32.182   7.069
 4224POPC   C4A54414  24.563  32.613   7.117
 4224POPC   C1B54415  24.085  32.368   6.292
 4224POPC   C2B54416  23.997  32.553   6.704
 4224POPC   C3B54417  24.104  32.360   7.091
 4224POPC   C4B54418  24.191  31.894   7.084
 4225POPC   NC354419  38.781  10.369   5.469
 4225POPC   PO454420  39.423  10.635   5.400
 4225POPC   GL154421  39.169  10.634   5.734
 4225POPC   GL254422  39.191  10.278   5.778
 4225POPC   C1A54423  39.232  10.583   6.180
 4225POPC   D2A54424  39.490  10.555   6.560
 4225POPC   C3A54425  39.315  10.578   6.958
 4225POPC   C4A54426  39.307  10.411   7.353
 4225POPC   C1B54427  38.914  10.187   6.156
 4225POPC   C2B54428  39.018  10.332   6.587
 4225POPC   C3B54429  38.927  10.223   7.020
 4225POPC   C4B54430  38.843  10.580   7.287
 4226POPC   NC354431  25.838  41.833   5.393
 4226POPC   PO454432  26.446  41.514   5.378
 4226POPC   GL154433  26.105  41.473   5.684
 4226POPC   GL254434  26.153  41.819   5.798
 4226POPC   C1A54435  26.128  41.456   6.164
 4226POPC   D2A54436  26.441  41.520   6.495
 4226POPC   C3A54437  26.379  41.630   6.946
 4226POPC   C4A54438  26.256  41.346   7.280
 4226POPC   C1B54439  25.964  41.953   6.190
 4226POPC   C2B54440  26.057  41.863   6.600
 4226POPC   C3B54441  25.893  41.618   6.919
 4226POPC   C4B54442  25.922  41.812   7.302
 4227POPC   NC354443  21.532  40.696   5.472
 4227POPC   PO454444  20.962  40.416   5.769
 4227POPC   GL154445  21.220  40.747   5.919
 4227POPC   GL254446  21.544  40.935   5.920
 4227POPC   C1A54447  21.304  40.718   6.357
 4227POPC   D2A54448  21.115  40.813   6.728
 4227POPC   C3A54449  21.115  40.576   7.063
 4227POPC   C4A54450  21.235  40.923   7.313
 4227POPC   C1B54451  21.757  40.641   6.150
 4227POPC   C2B54452  21.777  40.605   6.587
 4227POPC   C3B54453  21.620  40.788   6.968
 4227POPC   C4B54454  21.555  40.515   7.283
 4228POPC   NC354455  44.751  38.959   5.409
 4228POPC   PO454456  44.155  39.209   5.212
 4228POPC   GL154457  44.382  39.227   5.671
 4228POPC   GL254458  44.592  38.983   5.901
 4228POPC   C1A54459  44.389  39.389   6.114
 4228POPC   D2A54460  44.280  39.304   6.563
 4228POPC   C3A54461  44.583  39.441   6.899
 4228POPC   C4A54462  44.944  39.356   7.216
 4228POPC   C1B54463  44.413  38.878   6.264
 4228POPC   C2B54464  44.706  38.987   6.543
 4228POPC   C3B54465  44.730  38.959   6.934
 4228POPC   C4B54466  44.756  38.885   7.324
 4229POPC   NC354467   6.870  25.384   5.416
 4229POPC   PO454468   6.641  24.760   5.181
 4229POPC   GL154469   6.440  25.003   5.626
 4229POPC   GL254470   6.511  25.357   5.785
 4229POPC   C1A54471   6.469  24.994   6.127
 4229POPC   D2A54472   6.390  25.269   6.519
 4229POPC   C3A54473   6.633  25.314   6.866
 4229POPC   C4A54474   6.610  25.144   7.254
 4229POPC   C1B54475   6.887  25.421   6.113
 4229POPC   C2B54476   7.147  25.232   6.471
 4229POPC   C3B54477   7.105  25.109   6.918
 4229POPC   C4B54478   7.041  25.370   7.259
 4230POPC   NC354479  31.625  32.578   5.357
 4230POPC   PO454480  31.239  33.218   5.350
 4230POPC   GL154481  31.417  33.259   5.764
 4230POPC   GL254482  31.614  32.931   5.771
 4230POPC   C1A54483  31.328  33.082   6.173
 4230POPC   D2A54484  31.513  32.999   6.545
 4230POPC   C3A54485  31.296  33.050   6.911
 4230POPC   C4A54486  31.016  33.062   7.260
 4230POPC   C1B54487  31.856  32.901   6.178
 4230POPC   C2B54488  32.031  32.995   6.577
 4230POPC   C3B54489  31.814  33.047   6.953
 4230POPC   C4B54490  31.633  32.811   7.309
 4231POPC   NC354491   7.645  19.580   5.493
 4231POPC   PO454492   7.080  20.013   5.415
 4231POPC   GL154493   7.274  19.832   5.824
 4231POPC   GL254494   7.640  19.936   5.844
 4231POPC   C1A54495   7.450  20.034   6.279
 4231POPC   D2A54496   7.521  20.086   6.714
 4231POPC   C3A54497   7.304  19.819   7.025
 4231POPC   C4A54498   7.384  19.881   7.469
 4231POPC   C1B54499   7.545  19.557   6.144
 4231POPC   C2B54500   7.582  19.573   6.565
 4231POPC   C3B54501   7.671  19.487   6.985
 4231POPC   C4B54502   7.378  19.387   7.305
 4232POPC   NC354503  33.680   6.702   5.400
 4232POPC   PO454504  33.810   6.081   5.579
 4232POPC   GL154505  33.763   6.407   5.863
 4232POPC   GL254506  34.046   6.612   5.774
 4232POPC   C1A54507  33.681   6.442   6.323
 4232POPC   D2A54508  33.401   6.511   6.707
 4232POPC   C3A54509  33.680   6.698   6.992
 4232POPC   C4A54510  34.085   6.589   7.163
 4232POPC   C1B54511  33.986   6.840   6.153
 4232POPC   C2B54512  33.857   6.962   6.568
 4232POPC   C3B54513  34.050   7.050   6.966
 4232POPC   C4B54514  33.759   7.233   7.232
 4233POPC   NC354515  37.813  31.639   5.028
 4233POPC   PO454516  37.759  31.215   5.526
 4233POPC   GL154517  37.672  31.486   5.857
 4233POPC   GL254518  37.943  31.646   5.741
 4233POPC   C1A54519  37.460  31.661   6.230
 4233POPC   D2A54520  37.200  31.497   6.584
 4233POPC   C3A54521  37.342  31.498   7.022
 4233POPC   C4A54522  37.325  31.366   7.476
 4233POPC   C1B54523  38.032  31.615   6.156
 4233POPC   C2B54524  37.877  31.743   6.518
 4233POPC   C3B54525  37.952  31.590   6.891
 4233POPC   C4B54526  37.786  31.671   7.240
 4234POPC   NC354527   3.079  20.728   5.115
 4234POPC   PO454528   2.750  20.320   5.438
 4234POPC   GL154529   2.939  20.596   5.764
 4234POPC   GL254530   2.640  20.641   5.903
 4234POPC   C1A54531   2.994  20.778   6.218
 4234POPC   D2A54532   2.726  20.657   6.574
 4234POPC   C3A54533   2.872  20.649   6.971
 4234POPC   C4A54534   2.679  20.419   7.268
 4234POPC   C1B54535   2.423  20.870   6.238
 4234POPC   C2B54536   2.426  21.087   6.645
 4234POPC   C3B54537   2.382  20.833   7.015
 4234POPC   C4B54538   2.541  20.856   7.414
 4235POPC   NC354539  27.764  23.742   5.097
 4235POPC   PO454540  27.150  23.839   5.374
 4235POPC   GL154541  27.362  23.562   5.730
 4235POPC   GL254542  27.750  23.526   5.849
 4235POPC   C1A54543  27.387  23.535   6.181
 4235POPC   D2A54544  27.454  23.775   6.542
 4235POPC   C3A54545  27.171  23.662   6.880
 4235POPC   C4A54546  27.436  23.748   7.192
 4235POPC   C1B54547  27.921  23.595   6.265
 4235POPC   C2B54548  28.064  23.351   6.624
 4235POPC   C3B54549  28.078  23.543   7.026
 4235POPC   C4B54550  27.897  23.622   7.453
 4236POPC   NC354551  14.411  42.034   5.370
 4236POPC   PO454552  14.223  41.357   5.393
 4236POPC   GL154553  14.340  41.609   5.759
 4236POPC   GL254554  14.513  41.929   5.856
 4236POPC   C1A54555  14.508  41.476   6.154
 4236POPC   D2A54556  14.349  41.596   6.551
 4236POPC   C3A54557  14.483  41.422   6.931
 4236POPC   C4A54558  14.320  41.581   7.271
 4236POPC   C1B54559  14.711  41.937   6.244
 4236POPC   C2B54560  14.607  42.037   6.645
 4236POPC   C3B54561  14.643  41.939   7.050
 4236POPC   C4B54562  14.824  41.645   7.293
 4237POPC   NC354563  23.053  30.369   5.689
 4237POPC   PO454564  22.962  30.788   5.154
 4237POPC   GL154565  22.825  30.847   5.615
 4237POPC   GL254566  23.159  30.906   5.807
 4237POPC   C1A54567  22.756  30.884   6.102
 4237POPC   D2A54568  22.991  30.976   6.508
 4237POPC   C3A54569  22.864  30.786   6.927
 4237POPC   C4A54570  22.912  30.976   7.338
 4237POPC   C1B54571  23.290  30.654   6.209
 4237POPC   C2B54572  23.329  30.485   6.617
 4237POPC   C3B54573  23.359  30.625   7.017
 4237POPC   C4B54574  23.234  30.579   7.419
 4238POPC   NC354575   7.027  11.743   5.552
 4238POPC   PO454576   7.548  12.252   5.399
 4238POPC   GL154577   7.331  12.124   5.752
 4238POPC   GL254578   7.488  11.798   5.788
 4238POPC   C1A54579   7.259  12.299   6.159
 4238POPC   D2A54580   7.350  12.136   6.560
 4238POPC   C3A54581   7.251  12.363   6.889
 4238POPC   C4A54582   7.295  12.308   7.311
 4238POPC   C1B54583   7.259  11.777   6.188
 4238POPC   C2B54584   7.313  11.610   6.607
 4238POPC   C3B54585   7.220  11.799   7.015
 4238POPC   C4B54586   7.059  11.824   7.431
 4239POPC   NC354587   8.560   2.779   5.448
 4239POPC   PO454588   7.944   2.765   5.437
 4239POPC   GL154589   8.097   2.881   5.856
 4239POPC   GL254590   8.456   2.898   5.955
 4239POPC   C1A54591   8.065   2.656   6.241
 4239POPC   D2A54592   8.292   2.735   6.612
 4239POPC   C3A54593   8.254   2.487   6.974
 4239POPC   C4A54594   7.993   2.549   7.314
 4239POPC   C1B54595   8.670   2.575   6.252
 4239POPC   C2B54596   8.793   2.627   6.705
 4239POPC   C3B54597   8.585   2.860   7.060
 4239POPC   C4B54598   8.614   2.780   7.539
 4240POPC   NC354599   8.544  38.368   5.397
 4240POPC   PO454600   7.960  38.630   5.398
 4240POPC   GL154601   8.204  38.461   5.749
 4240POPC   GL254602   8.518  38.590   5.866
 4240POPC   C1A54603   8.134  38.322   6.149
 4240POPC   D2A54604   8.196  38.135   6.552
 4240POPC   C3A54605   8.267  38.396   6.902
 4240POPC   C4A54606   8.367  38.353   7.290
 4240POPC   C1B54607   8.611  38.443   6.334
 4240POPC   C2B54608   8.621  38.728   6.713
 4240POPC   C3B54609   8.615  38.927   7.099
 4240POPC   C4B54610   8.625  38.730   7.529
 4241POPC   NC354611  26.241  13.028   5.398
 4241POPC   PO454612  25.695  13.197   5.627
 4241POPC   GL154613  25.902  13.042   5.935
 4241POPC   GL254614  26.063  12.759   5.792
 4241POPC   C1A54615  25.900  13.007   6.374
 4241POPC   D2A54616  26.175  12.751   6.589
 4241POPC   C3A54617  26.194  12.903   6.998
 4241POPC   C4A54618  25.955  13.186   7.229
 4241POPC   C1B54619  25.809  12.568   6.123
 4241POPC   C2B54620  25.725  12.467   6.566
 4241POPC   C3B54621  25.582  12.484   6.982
 4241POPC   C4B54622  25.843  12.636   7.271
 4242POPC   NC354623  40.262  32.661   5.567
 4242POPC   PO454624  39.752  32.863   5.360
 4242POPC   GL154625  39.873  32.905   5.802
 4242POPC   GL254626  40.086  33.187   5.809
 4242POPC   C1A54627  40.099  32.755   6.202
 4242POPC   D2A54628  40.193  32.945   6.601
 4242POPC   C3A54629  40.088  32.751   6.977
 4242POPC   C4A54630  40.218  32.917   7.373
 4242POPC   C1B54631  39.924  33.236   6.227
 4242POPC   C2B54632  39.745  33.248   6.625
 4242POPC   C3B54633  39.950  33.239   6.997
 4242POPC   C4B54634  40.055  33.381   7.377
 4243POPC   NC354635  16.111   5.224   5.478
 4243POPC   PO454636  15.714   4.659   5.392
 4243POPC   GL154637  15.915   4.848   5.751
 4243POPC   GL254638  15.710   5.187   5.778
 4243POPC   C1A54639  16.078   5.011   6.144
 4243POPC   D2A54640  15.983   4.888   6.580
 4243POPC   C3A54641  15.990   5.129   6.974
 4243POPC   C4A54642  16.186   4.972   7.353
 4243POPC   C1B54643  15.730   5.454   6.148
 4243POPC   C2B54644  15.646   5.360   6.597
 4243POPC   C3B54645  15.548   5.402   7.030
 4243POPC   C4B54646  15.748   5.235   7.447
 4244POPC   NC354647  43.545  13.539   5.363
 4244POPC   PO454648  42.861  13.812   5.497
 4244POPC   GL154649  43.003  13.848   5.878
 4244POPC   GL254650  43.310  13.736   5.781
 4244POPC   C1A54651  42.863  13.790   6.278
 4244POPC   D2A54652  42.962  13.896   6.662
 4244POPC   C3A54653  42.957  13.582   6.909
 4244POPC   C4A54654  43.005  13.632   7.289
 4244POPC   C1B54655  43.400  13.842   6.213
 4244POPC   C2B54656  43.414  13.650   6.617
 4244POPC   C3B54657  43.445  13.741   7.041
 4244POPC   C4B54658  43.521  13.451   7.379
 4245POPC   NC354659   7.650  20.289   5.399
 4245POPC   PO454660   7.257  20.725   5.483
 4245POPC   GL154661   7.509  20.590   5.825
 4245POPC   GL254662   7.296  20.332   5.873
 4245POPC   C1A54663   7.755  20.514   6.221
 4245POPC   D2A54664   7.952  20.663   6.629
 4245POPC   C3A54665   7.746  20.494   6.974
 4245POPC   C4A54666   7.599  20.656   7.380
 4245POPC   C1B54667   7.209  20.514   6.299
 4245POPC   C2B54668   7.213  20.508   6.765
 4245POPC   C3B54669   7.311  20.305   7.158
 4245POPC   C4B54670   7.215  20.365   7.609
 4246POPC   NC354671  30.787  24.627   5.352
 4246POPC   PO454672  30.539  24.069   5.637
 4246POPC   GL154673  30.817  24.366   5.814
 4246POPC   GL254674  31.052  24.155   5.984
 4246POPC   C1A54675  30.884  24.600   6.208
 4246POPC   D2A54676  30.891  24.780   6.630
 4246POPC   C3A54677  30.679  24.609   7.008
 4246POPC   C4A54678  30.981  24.619   7.289
 4246POPC   C1B54679  30.666  24.124   6.252
 4246POPC   C2B54680  30.639  24.289   6.620
 4246POPC   C3B54681  30.930  24.180   6.938
 4246POPC   C4B54682  30.724  24.002   7.260
 4247POPC   NC354683  29.520  14.443   5.356
 4247POPC   PO454684  28.894  14.295   5.431
 4247POPC   GL154685  29.154  14.427   5.762
 4247POPC   GL254686  29.348  14.154   5.797
 4247POPC   C1A54687  29.100  14.332   6.216
 4247POPC   D2A54688  29.261  14.389   6.666
 4247POPC   C3A54689  28.967  14.339   7.020
 4247POPC   C4A54690  29.243  14.653   7.163
 4247POPC   C1B54691  29.529  14.020   6.188
 4247POPC   C2B54692  29.667  14.035   6.593
 4247POPC   C3B54693  29.718  14.197   6.975
 4247POPC   C4B54694  29.420  14.162   7.243
 4248POPC   NC354695  34.214  36.634   5.739
 4248POPC   PO454696  34.534  37.090   5.347
 4248POPC   GL154697  34.693  36.869   5.838
 4248POPC   GL254698  34.791  37.158   6.014
 4248POPC   C1A54699  34.520  36.883   6.344
 4248POPC   D2A54700  34.531  37.155   6.700
 4248POPC   C3A54701  34.517  36.839   6.979
 4248POPC   C4A54702  34.152  36.599   7.073
 4248POPC   C1B54703  34.999  36.783   6.279
 4248POPC   C2B54704  34.909  36.625   6.709
 4248POPC   C3B54705  34.915  36.592   7.173
 4248POPC   C4B54706  34.912  36.576   7.657
 4249POPC   NC354707  19.660  22.887   5.354
 4249POPC   PO454708  20.348  22.984   5.506
 4249POPC   GL154709  19.988  23.035   5.719
 4249POPC   GL254710  19.793  22.738   5.826
 4249POPC   C1A54711  19.809  23.224   6.067
 4249POPC   D2A54712  19.678  23.111   6.488
 4249POPC   C3A54713  19.816  23.236   6.880
 4249POPC   C4A54714  19.604  23.181   7.259
 4249POPC   C1B54715  19.875  22.729   6.218
 4249POPC   C2B54716  19.719  22.616   6.608
 4249POPC   C3B54717  19.888  22.750   6.995
 4249POPC   C4B54718  20.296  22.766   7.138
 4250POPC   NC354719   3.835   6.129   5.287
 4250POPC   PO454720   3.203   6.028   5.480
 4250POPC   GL154721   3.555   6.011   5.738
 4250POPC   GL254722   3.769   5.729   5.740
 4250POPC   C1A54723   3.720   6.067   6.148
 4250POPC   D2A54724   3.825   5.871   6.564
 4250POPC   C3A54725   3.624   5.932   6.956
 4250POPC   C4A54726   3.633   6.248   7.303
 4250POPC   C1B54727   4.002   5.615   6.150
 4250POPC   C2B54728   3.888   5.371   6.555
 4250POPC   C3B54729   3.935   5.436   7.018
 4250POPC   C4B54730   3.842   5.755   7.382
 4251POPC   NC354731  40.982  42.022   5.101
 4251POPC   PO454732  40.911  41.407   5.341
 4251POPC   GL154733  40.780  41.698   5.719
 4251POPC   GL254734  40.483  41.938   5.828
 4251POPC   C1A54735  40.774  41.743   6.192
 4251POPC   D2A54736  40.911  41.635   6.594
 4251POPC   C3A54737  40.654  41.568   6.895
 4251POPC   C4A54738  40.596  41.213   7.200
 4251POPC   C1B54739  40.273  41.925   6.263
 4251POPC   C2B54740  40.243  41.869   6.738
 4251POPC   C3B54741  40.487  42.018   7.106
 4251POPC   C4B54742  40.692  42.056   7.511
 4252POPC   NC354743   6.978  41.910   5.451
 4252POPC   PO454744   7.616  42.252   5.502
 4252POPC   GL154745   7.391  42.263   5.869
 4252POPC   GL254746   7.278  41.941   5.856
 4252POPC   C1A54747   7.469  42.293   6.271
 4252POPC   D2A54748   7.325  42.450   6.623
 4252POPC   C3A54749   7.570  42.352   6.938
 4252POPC   C4A54750   7.450  42.496   7.305
 4252POPC   C1B54751   7.015  42.001   6.220
 4252POPC   C2B54752   6.909  42.176   6.634
 4252POPC   C3B54753   7.093  42.192   7.065
 4252POPC   C4B54754   7.095  42.222   7.561
 4253POPC   NC354755  22.797  36.772   5.347
 4253POPC   PO454756  23.290  37.157   5.411
 4253POPC   GL154757  23.120  36.829   5.765
 4253POPC   GL254758  22.772  36.811   5.853
 4253POPC   C1A54759  23.046  36.938   6.256
 4253POPC   D2A54760  23.092  37.020   6.708
 4253POPC   C3A54761  22.992  36.908   7.138
 4253POPC   C4A54762  23.291  37.080   7.458
 4253POPC   C1B54763  22.739  36.536   6.221
 4253POPC   C2B54764  22.908  36.529   6.645
 4253POPC   C3B54765  22.651  36.505   7.019
 4253POPC   C4B54766  22.605  36.697   7.435
 4254POPC   NC354767   6.634  22.568   5.502
 4254POPC   PO454768   6.798  21.859   5.454
 4254POPC   GL154769   6.788  22.172   5.839
 4254POPC   GL254770   6.489  22.400   5.965
 4254POPC   C1A54771   6.649  22.032   6.266
 4254POPC   D2A54772   6.438  22.151   6.656
 4254POPC   C3A54773   6.685  22.041   7.012
 4254POPC   C4A54774   6.922  22.261   7.364
 4254POPC   C1B54775   6.666  22.546   6.385
 4254POPC   C2B54776   6.758  22.526   6.865
 4254POPC   C3B54777   6.473  22.460   7.213
 4254POPC   C4B54778   6.472  22.379   7.638
 4255POPC   NC354779  32.414  10.598   5.400
 4255POPC   PO454780  31.970  10.113   5.671
 4255POPC   GL154781  32.204  10.453   5.921
 4255POPC   GL254782  32.142  10.791   5.860
 4255POPC   C1A54783  32.301  10.596   6.370
 4255POPC   D2A54784  32.421  10.821   6.750
 4255POPC   C3A54785  32.334  10.487   6.979
 4255POPC   C4A54786  32.196  10.239   7.295
 4255POPC   C1B54787  31.866  10.807   6.262
 4255POPC   C2B54788  31.930  10.758   6.745
 4255POPC   C3B54789  32.083  10.886   7.195
 4255POPC   C4B54790  32.069  10.884   7.696
 4256POPC   NC354791   2.144   9.628   5.679
 4256POPC   PO454792   2.701   9.948   5.371
 4256POPC   GL154793   2.719   9.747   5.749
 4256POPC   GL254794   2.901  10.035   5.883
 4256POPC   C1A54795   2.633   9.412   6.061
 4256POPC   D2A54796   2.778   9.358   6.474
 4256POPC   C3A54797   2.734   9.437   6.901
 4256POPC   C4A54798   2.967   9.635   7.207
 4256POPC   C1B54799   2.984   9.762   6.240
 4256POPC   C2B54800   3.033   9.782   6.676
 4256POPC   C3B54801   3.147  10.092   6.974
 4256POPC   C4B54802   2.998  10.136   7.410
 4257POPC   NC354803  34.025  20.907   5.174
 4257POPC   PO454804  34.479  20.387   5.359
 4257POPC   GL154805  34.604  20.476   5.762
 4257POPC   GL254806  34.406  20.717   5.863
 4257POPC   C1A54807  34.675  20.403   6.180
 4257POPC   D2A54808  34.639  20.219   6.547
 4257POPC   C3A54809  34.689  20.431   6.940
 4257POPC   C4A54810  34.810  20.324   7.342
 4257POPC   C1B54811  34.536  20.898   6.273
 4257POPC   C2B54812  34.702  21.075   6.625
 4257POPC   C3B54813  34.560  21.048   7.020
 4257POPC   C4B54814  34.576  20.763   7.325
 4258POPC   NC354815  13.630   7.163   5.633
 4258POPC   PO454816  13.604   7.741   5.271
 4258POPC   GL154817  13.566   7.673   5.764
 4258POPC   GL254818  13.266   7.435   5.854
 4258POPC   C1A54819  13.828   7.533   6.155
 4258POPC   D2A54820  13.871   7.282   6.553
 4258POPC   C3A54821  13.566   7.376   6.856
 4258POPC   C4A54822  13.624   7.653   7.205
 4258POPC   C1B54823  13.426   7.232   6.268
 4258POPC   C2B54824  13.424   6.942   6.616
 4258POPC   C3B54825  13.210   6.913   7.008
 4258POPC   C4B54826  13.370   7.225   7.305
 4259POPC   NC354827   2.724  27.364   5.155
 4259POPC   PO454828   2.459  27.832   5.491
 4259POPC   GL154829   2.609  27.605   5.869
 4259POPC   GL254830   2.901  27.520   5.906
 4259POPC   C1A54831   2.674  27.731   6.299
 4259POPC   D2A54832   2.790  28.056   6.605
 4259POPC   C3A54833   2.882  27.833   6.988
 4259POPC   C4A54834   2.549  27.576   7.140
 4259POPC   C1B54835   3.116  27.434   6.287
 4259POPC   C2B54836   2.975  27.176   6.636
 4259POPC   C3B54837   2.936  27.223   7.073
 4259POPC   C4B54838   3.126  27.495   7.366
 4260POPC   NC354839  39.918  38.737   5.463
 4260POPC   PO454840  39.982  38.083   5.363
 4260POPC   GL154841  40.007  38.311   5.733
 4260POPC   GL254842  39.688  38.387   5.859
 4260POPC   C1A54843  40.166  38.399   6.158
 4260POPC   D2A54844  39.992  38.474   6.571
 4260POPC   C3A54845  40.271  38.344   6.887
 4260POPC   C4A54846  40.262  38.539   7.251
 4260POPC   C1B54847  39.772  38.747   6.157
 4260POPC   C2B54848  39.621  38.876   6.564
 4260POPC   C3B54849  39.720  38.713   6.981
 4260POPC   C4B54850  39.669  38.345   7.243
 4261POPC   NC354851  29.493  37.060   5.449
 4261POPC   PO454852  29.036  37.347   5.702
 4261POPC   GL154853  29.192  36.916   5.861
 4261POPC   GL254854  29.013  36.600   5.832
 4261POPC   C1A54855  29.358  36.705   6.244
 4261POPC   D2A54856  29.220  36.897   6.625
 4261POPC   C3A54857  29.355  37.124   6.991
 4261POPC   C4A54858  28.988  37.041   7.274
 4261POPC   C1B54859  28.823  36.737   6.224
 4261POPC   C2B54860  28.828  36.525   6.599
 4261POPC   C3B54861  29.001  36.606   6.991
 4261POPC   C4B54862  29.393  36.661   7.184
 4262POPC   NC354863  33.261   5.334   5.463
 4262POPC   PO454864  33.178   4.693   5.486
 4262POPC   GL154865  32.973   4.851   5.877
 4262POPC   GL254866  32.854   5.168   5.812
 4262POPC   C1A54867  33.076   5.036   6.275
 4262POPC   D2A54868  33.233   5.339   6.586
 4262POPC   C3A54869  33.217   5.052   6.932
 4262POPC   C4A54870  32.853   4.910   7.168
 4262POPC   C1B54871  32.763   5.425   6.180
 4262POPC   C2B54872  32.728   5.254   6.616
 4262POPC   C3B54873  32.839   5.405   7.028
 4262POPC   C4B54874  32.774   5.328   7.459
 4263POPC   NC354875   9.137  36.890   5.288
 4263POPC   PO454876   8.625  36.493   5.486
 4263POPC   GL154877   8.850  36.678   5.852
 4263POPC   GL254878   9.054  36.974   5.783
 4263POPC   C1A54879   8.892  36.781   6.299
 4263POPC   D2A54880   8.968  36.583   6.703
 4263POPC   C3A54881   8.824  36.771   7.122
 4263POPC   C4A54882   8.735  36.698   7.622
 4263POPC   C1B54883   9.221  37.170   6.152
 4263POPC   C2B54884   9.239  37.074   6.599
 4263POPC   C3B54885   9.217  37.265   7.002
 4263POPC   C4B54886   9.507  37.227   7.362
 4264POPC   NC354887  26.196  37.247   5.519
 4264POPC   PO454888  25.780  36.655   5.412
 4264POPC   GL154889  25.835  36.702   5.881
 4264POPC   GL254890  26.193  36.760   5.849
 4264POPC   C1A54891  25.668  36.862   6.328
 4264POPC   D2A54892  25.887  37.101   6.722
 4264POPC   C3A54893  25.834  36.982   7.211
 4264POPC   C4A54894  25.884  37.022   7.685
 4264POPC   C1B54895  26.150  36.768   6.315
 4264POPC   C2B54896  26.001  36.600   6.696
 4264POPC   C3B54897  26.262  36.751   7.047
 4264POPC   C4B54898  26.253  36.729   7.498
 4265POPC   NC354899  17.053   4.303   5.164
 4265POPC   PO454900  17.782   4.326   5.269
 4265POPC   GL154901  17.741   4.502   5.687
 4265POPC   GL254902  17.423   4.390   5.743
 4265POPC   C1A54903  17.754   4.550   6.147
 4265POPC   D2A54904  17.804   4.318   6.550
 4265POPC   C3A54905  17.702   4.543   6.937
 4265POPC   C4A54906  17.777   4.396   7.339
 4265POPC   C1B54907  17.229   4.476   6.149
 4265POPC   C2B54908  17.215   4.289   6.556
 4265POPC   C3B54909  17.185   4.053   6.958
 4265POPC   C4B54910  17.294   4.271   7.311
 4266POPC   NC354911  32.651  15.896   5.287
 4266POPC   PO454912  32.101  16.099   5.472
 4266POPC   GL154913  32.331  15.890   5.812
 4266POPC   GL254914  32.661  16.020   5.790
 4266POPC   C1A54915  32.134  15.778   6.208
 4266POPC   D2A54916  31.864  15.768   6.569
 4266POPC   C3A54917  32.129  15.640   6.891
 4266POPC   C4A54918  32.266  15.777   7.261
 4266POPC   C1B54919  32.546  16.130   6.217
 4266POPC   C2B54920  32.342  16.028   6.608
 4266POPC   C3B54921  32.628  15.960   6.941
 4266POPC   C4B54922  32.734  15.985   7.366
 4267POPC   NC354923  37.107   0.761   5.363
 4267POPC   PO454924  36.512   0.924   5.315
 4267POPC   GL154925  36.867   1.103   5.675
 4267POPC   GL254926  37.116   0.849   5.867
 4267POPC   C1A54927  36.961   1.234   6.156
 4267POPC   D2A54928  37.034   1.363   6.617
 4267POPC   C3A54929  36.738   1.578   6.911
 4267POPC   C4A54930  36.764   1.457   7.308
 4267POPC   C1B54931  37.355   0.830   6.277
 4267POPC   C2B54932  37.363   0.913   6.747
 4267POPC   C3B54933  37.139   1.156   7.079
 4267POPC   C4B54934  37.092   1.123   7.536
 4268POPC   NC354935  30.861  30.806   5.404
 4268POPC   PO454936  30.496  30.253   5.398
 4268POPC   GL154937  30.504  30.567   5.726
 4268POPC   GL254938  30.860  30.524   5.842
 4268POPC   C1A54939  30.544  30.838   6.097
 4268POPC   D2A54940  30.583  30.802   6.538
 4268POPC   C3A54941  30.330  30.891   6.911
 4268POPC   C4A54942  30.274  30.795   7.343
 4268POPC   C1B54943  31.085  30.526   6.252
 4268POPC   C2B54944  31.244  30.611   6.668
 4268POPC   C3B54945  30.982  30.703   7.031
 4268POPC   C4B54946  30.948  30.474   7.390
 4269POPC   NC354947  26.625   0.293   5.227
 4269POPC   PO454948  27.020   0.837   5.462
 4269POPC   GL154949  26.821   0.498   5.706
 4269POPC   GL254950  26.544   0.693   5.781
 4269POPC   C1A54951  26.693   0.320   6.132
 4269POPC   D2A54952  26.658   0.536   6.546
 4269POPC   C3A54953  26.537   0.407   6.975
 4269POPC   C4A54954  26.769   0.194   7.308
 4269POPC   C1B54955  26.819   0.837   6.142
 4269POPC   C2B54956  26.730   1.054   6.540
 4269POPC   C3B54957  26.818   0.832   6.941
 4269POPC   C4B54958  26.942   0.661   7.360
 4270POPC   NC354959  34.295  19.952   5.291
 4270POPC   PO454960  34.852  19.642   5.470
 4270POPC   GL154961  34.690  19.937   5.797
 4270POPC   GL254962  34.341  20.022   5.796
 4270POPC   C1A54963  34.596  19.783   6.220
 4270POPC   D2A54964  34.712  19.747   6.641
 4270POPC   C3A54965  34.469  19.635   6.937
 4270POPC   C4A54966  34.461  19.845   7.306
 4270POPC   C1B54967  34.222  20.122   6.205
 4270POPC   C2B54968  34.204  19.911   6.583
 4270POPC   C3B54969  34.283  20.125   6.928
 4270POPC   C4B54970  34.267  20.325   7.307
 4271POPC   NC354971  26.232  40.914   5.356
 4271POPC   PO454972  25.606  40.569   5.356
 4271POPC   GL154973  25.917  40.655   5.735
 4271POPC   GL254974  26.166  40.954   5.867
 4271POPC   C1A54975  25.806  40.760   6.177
 4271POPC   D2A54976  25.660  40.876   6.600
 4271POPC   C3A54977  25.698  40.604   6.981
 4271POPC   C4A54978  25.960  40.385   7.291
 4271POPC   C1B54979  26.226  40.982   6.331
 4271POPC   C2B54980  26.054  41.212   6.651
 4271POPC   C3B54981  26.081  40.945   6.961
 4271POPC   C4B54982  26.344  40.774   7.197
 4272POPC   NC354983   7.731  32.291   5.484
 4272POPC   PO454984   7.031  32.112   5.452
 4272POPC   GL154985   7.145  32.191   5.864
 4272POPC   GL254986   7.497  32.166   5.907
 4272POPC   C1A54987   7.216  32.240   6.319
 4272POPC   D2A54988   7.499  32.174   6.648
 4272POPC   C3A54989   7.219  32.205   6.968
 4272POPC   C4A54990   7.092  32.614   7.128
 4272POPC   C1B54991   7.818  32.242   6.219
 4272POPC   C2B54992   8.016  32.104   6.590
 4272POPC   C3B54993   7.828  32.064   7.014
 4272POPC   C4B54994   7.578  32.279   7.312
 4273POPC   NC354995  10.322  10.021   5.504
 4273POPC   PO454996  10.964   9.852   5.658
 4273POPC   GL154997  10.608   9.990   5.946
 4273POPC   GL254998  10.288   9.770   5.937
 4273POPC   C1A54999  10.549  10.064   6.401
 4273POPC   D2A55000  10.823  10.154   6.784
 4273POPC   C3A55001  10.678   9.911   7.122
 4273POPC   C4A55002  10.244   9.845   7.254
 4273POPC   C1B55003  10.525   9.537   6.251
 4273POPC   C2B55004  10.633   9.624   6.688
 4273POPC   C3B55005  10.498   9.425   7.068
 4273POPC   C4B55006  10.608   9.521   7.482
 4274POPC   NC355007  19.208  37.794   5.553
 4274POPC   PO455008  19.162  37.172   5.518
 4274POPC   GL155009  19.360  37.275   5.940
 4274POPC   GL255010  19.283  37.615   6.038
 4274POPC   C1A55011  19.187  37.261   6.406
 4274POPC   D2A55012  18.860  37.380   6.737
 4274POPC   C3A55013  18.988  37.532   7.150
 4274POPC   C4A55014  19.346  37.402   7.406
 4274POPC   C1B55015  18.919  37.718   6.334
 4274POPC   C2B55016  18.849  38.012   6.690
 4274POPC   C3B55017  18.881  38.110   7.137
 4274POPC   C4B55018  18.721  37.867   7.450
 4275POPC   NC355019   4.909   9.298   5.607
 4275POPC   PO455020   5.170   8.803   5.256
 4275POPC   GL155021   5.194   8.807   5.737
 4275POPC   GL255022   5.342   9.114   5.869
 4275POPC   C1A55023   4.961   8.865   6.152
 4275POPC   D2A55024   5.090   8.917   6.570
 4275POPC   C3A55025   4.867   8.915   6.937
 4275POPC   C4A55026   5.059   8.828   7.337
 4275POPC   C1B55027   5.420   9.215   6.304
 4275POPC   C2B55028   5.370   9.321   6.760
 4275POPC   C3B55029   5.577   9.286   7.133
 4275POPC   C4B55030   5.323   9.236   7.493
 4276POPC   NC355031  27.876  43.051   5.461
 4276POPC   PO455032  27.229  43.362   5.516
 4276POPC   GL155033  27.482  43.114   5.823
 4276POPC   GL255034  27.838  43.254   5.912
 4276POPC   C1A55035  27.518  43.109   6.275
 4276POPC   D2A55036  27.380  43.281   6.641
 4276POPC   C3A55037  27.576  43.013   6.906
 4276POPC   C4A55038  27.769  43.085   7.293
 4276POPC   C1B55039  27.971  42.869   6.140
 4276POPC   C2B55040  27.890  42.709   6.546
 4276POPC   C3B55041  28.029  42.776   6.966
 4276POPC   C4B55042  28.131  42.760   7.419
 4277POPC   NC355043  24.730  26.382   5.535
 4277POPC   PO455044  24.297  25.787   5.441
 4277POPC   GL155045  24.454  25.998   5.759
 4277POPC   GL255046  24.266  26.280   5.740
 4277POPC   C1A55047  24.450  26.013   6.188
 4277POPC   D2A55048  24.696  26.025   6.562
 4277POPC   C3A55049  24.509  26.065   6.975
 4277POPC   C4A55050  24.563  26.214   7.410
 4277POPC   C1B55051  24.095  26.370   6.124
 4277POPC   C2B55052  24.195  26.265   6.559
 4277POPC   C3B55053  24.024  26.266   6.951
 4277POPC   C4B55054  24.092  26.466   7.340
 4278POPC   NC355055   0.359   1.677   5.026
 4278POPC   PO455056   0.697   2.065   5.455
 4278POPC   GL155057   0.593   2.094   5.879
 4278POPC   GL255058   0.682   2.455   5.868
 4278POPC   C1A55059   0.326   1.876   6.240
 4278POPC   D2A55060  44.980   1.808   6.569
 4278POPC   C3A55061   0.147   1.737   6.974
 4278POPC   C4A55062   0.511   1.917   7.170
 4278POPC   C1B55063   0.522   2.352   6.298
 4278POPC   C2B55064   0.481   2.193   6.725
 4278POPC   C3B55065   0.603   2.421   7.117
 4278POPC   C4B55066   0.595   2.278   7.565
 4279POPC   NC355067  29.243  15.049   5.343
 4279POPC   PO455068  29.128  15.681   5.558
 4279POPC   GL155069  29.375  15.415   5.870
 4279POPC   GL255070  29.403  15.042   5.821
 4279POPC   C1A55071  29.239  15.224   6.280
 4279POPC   D2A55072  29.062  15.303   6.703
 4279POPC   C3A55073  29.324  15.273   7.075
 4279POPC   C4A55074  29.506  15.541   7.412
 4279POPC   C1B55075  29.009  14.836   6.021
 4279POPC   C2B55076  28.898  14.719   6.474
 4279POPC   C3B55077  28.866  14.861   6.898
 4279POPC   C4B55078  28.824  15.187   7.211
 4280POPC   NC355079   0.228   4.758   5.453
 4280POPC   PO455080   0.705   5.292   5.449
 4280POPC   GL155081   0.466   5.100   5.790
 4280POPC   GL255082   0.602   4.800   5.852
 4280POPC   C1A55083   0.252   4.949   6.212
 4280POPC   D2A55084   0.115   5.153   6.642
 4280POPC   C3A55085   0.201   4.981   7.051
 4280POPC   C4A55086   0.445   5.011   7.416
 4280POPC   C1B55087   0.749   4.909   6.264
 4280POPC   C2B55088   0.586   4.991   6.656
 4280POPC   C3B55089   0.772   4.902   7.041
 4280POPC   C4B55090   0.841   4.637   7.400
 4281POPC   NC355091   1.361  24.744   5.732
 4281POPC   PO455092   1.236  24.133   5.403
 4281POPC   GL155093   1.122  24.279   5.836
 4281POPC   GL255094   1.475  24.286   5.936
 4281POPC   C1A55095   1.136  24.442   6.292
 4281POPC   D2A55096   1.074  24.228   6.695
 4281POPC   C3A55097   1.353  24.153   7.066
 4281POPC   C4A55098   1.129  24.186   7.492
 4281POPC   C1B55099   1.641  24.494   6.332
 4281POPC   C2B55100   1.416  24.607   6.728
 4281POPC   C3B55101   1.169  24.621   7.094
 4281POPC   C4B55102   1.463  24.598   7.427
 4282POPC   NC355103  42.412  24.696   5.298
 4282POPC   PO455104  41.824  24.325   5.337
 4282POPC   GL155105  42.176  24.436   5.703
 4282POPC   GL255106  42.563  24.513   5.817
 4282POPC   C1A55107  42.210  24.614   6.155
 4282POPC   D2A55108  42.269  24.482   6.558
 4282POPC   C3A55109  42.314  24.574   6.967
 4282POPC   C4A55110  42.391  24.226   7.146
 4282POPC   C1B55111  42.677  24.759   6.287
 4282POPC   C2B55112  42.724  24.799   6.768
 4282POPC   C3B55113  42.800  24.633   7.188
 4282POPC   C4B55114  42.766  24.723   7.644
 4283POPC   NC355115   1.862  19.343   5.474
 4283POPC   PO455116   2.480  19.075   5.425
 4283POPC   GL155117   2.192  19.126   5.855
 4283POPC   GL255118   1.812  19.164   5.927
 4283POPC   C1A55119   2.030  19.012   6.326
 4283POPC   D2A55120   1.838  18.975   6.723
 4283POPC   C3A55121   1.960  18.872   7.125
 4283POPC   C4A55122   1.765  18.636   7.441
 4283POPC   C1B55123   1.548  19.250   6.285
 4283POPC   C2B55124   1.664  19.445   6.649
 4283POPC   C3B55125   1.748  19.381   7.079
 4283POPC   C4B55126   1.811  19.228   7.517
 4284POPC   NC355127  44.116  19.394   5.402
 4284POPC   PO455128  43.835  18.773   5.318
 4284POPC   GL155129  43.885  18.845   5.759
 4284POPC   GL255130  44.187  19.032   5.788
 4284POPC   C1A55131  43.750  18.973   6.182
 4284POPC   D2A55132  43.536  19.022   6.577
 4284POPC   C3A55133  43.711  19.033   6.990
 4284POPC   C4A55134  43.784  18.737   7.334
 4284POPC   C1B55135  44.254  18.847   6.186
 4284POPC   C2B55136  44.056  18.859   6.596
 4284POPC   C3B55137  44.222  18.850   7.014
 4284POPC   C4B55138  44.108  19.137   7.323
 4285POPC   NC355139  18.523  22.263   5.512
 4285POPC   PO455140  17.840  22.211   5.205
 4285POPC   GL155141  18.037  22.211   5.672
 4285POPC   GL255142  18.143  21.853   5.776
 4285POPC   C1A55143  18.215  22.218   6.137
 4285POPC   D2A55144  18.039  22.061   6.582
 4285POPC   C3A55145  18.181  22.162   7.047
 4285POPC   C4A55146  18.090  22.370   7.466
 4285POPC   C1B55147  18.283  21.718   6.222
 4285POPC   C2B55148  18.533  21.729   6.635
 4285POPC   C3B55149  18.543  21.830   7.086
 4285POPC   C4B55150  18.436  22.000   7.516
 4286POPC   NC355151  16.954  22.776   5.223
 4286POPC   PO455152  16.855  22.098   5.337
 4286POPC   GL155153  16.822  22.032   5.783
 4286POPC   GL255154  16.574  22.227   5.975
 4286POPC   C1A55155  16.825  21.815   6.191
 4286POPC   D2A55156  16.735  22.014   6.555
 4286POPC   C3A55157  16.798  21.896   6.943
 4286POPC   C4A55158  16.634  22.213   7.174
 4286POPC   C1B55159  16.949  22.360   6.250
 4286POPC   C2B55160  17.058  22.423   6.700
 4286POPC   C3B55161  16.924  22.605   7.105
 4286POPC   C4B55162  16.814  22.494   7.573
 4287POPC   NC355163  41.009  26.111   5.171
 4287POPC   PO455164  40.489  26.205   5.511
 4287POPC   GL155165  40.860  26.159   5.724
 4287POPC   GL255166  40.736  25.871   5.881
 4287POPC   C1A55167  41.014  26.256   6.170
 4287POPC   D2A55168  40.809  26.215   6.600
 4287POPC   C3A55169  41.099  26.211   6.970
 4287POPC   C4A55170  41.050  26.120   7.427
 4287POPC   C1B55171  40.999  25.718   6.224
 4287POPC   C2B55172  41.017  25.741   6.666
 4287POPC   C3B55173  40.810  25.800   7.065
 4287POPC   C4B55174  40.854  25.605   7.444
 4288POPC   NC355175  16.289  35.037   5.351
 4288POPC   PO455176  15.642  35.377   5.342
 4288POPC   GL155177  15.747  35.507   5.757
 4288POPC   GL255178  16.059  35.352   5.807
 4288POPC   C1A55179  15.683  35.484   6.220
 4288POPC   D2A55180  15.930  35.431   6.618
 4288POPC   C3A55181  15.823  35.650   6.985
 4288POPC   C4A55182  15.789  35.492   7.416
 4288POPC   C1B55183  16.053  35.120   6.208
 4288POPC   C2B55184  16.144  34.968   6.645
 4288POPC   C3B55185  15.994  35.091   7.091
 4288POPC   C4B55186  16.105  35.134   7.591
 4289POPC   NC355187  30.629  32.522   5.427
 4289POPC   PO455188  30.527  31.953   5.604
 4289POPC   GL155189  30.666  32.271   5.895
 4289POPC   GL255190  30.352  32.438   5.898
 4289POPC   C1A55191  30.772  32.274   6.343
 4289POPC   D2A55192  30.581  32.052   6.674
 4289POPC   C3A55193  30.820  32.188   6.984
 4289POPC   C4A55194  30.869  32.150   7.361
 4289POPC   C1B55195  30.479  32.672   6.294
 4289POPC   C2B55196  30.511  32.569   6.754
 4289POPC   C3B55197  30.370  32.301   7.156
 4289POPC   C4B55198  30.479  32.294   7.620
 4290POPC   NC355199  12.155   3.777   5.311
 4290POPC   PO455200  11.581   3.481   5.508
 4290POPC   GL155201  11.648   3.513   5.905
 4290POPC   GL255202  11.971   3.649   5.799
 4290POPC   C1A55203  11.939   3.389   6.222
 4290POPC   D2A55204  12.073   3.450   6.586
 4290POPC   C3A55205  11.850   3.290   6.907
 4290POPC   C4A55206  11.819   3.493   7.279
 4290POPC   C1B55207  11.836   3.914   6.173
 4290POPC   C2B55208  11.996   3.966   6.621
 4290POPC   C3B55209  12.220   3.732   6.974
 4290POPC   C4B55210  12.290   3.665   7.411
 4291POPC   NC355211   2.732   8.781   5.378
 4291POPC   PO455212   2.285   9.231   5.420
 4291POPC   GL155213   2.478   8.989   5.765
 4291POPC   GL255214   2.872   9.078   5.757
 4291POPC   C1A55215   2.636   8.884   6.181
 4291POPC   D2A55216   2.505   8.953   6.593
 4291POPC   C3A55217   2.668   8.834   6.964
 4291POPC   C4A55218   2.609   9.141   7.300
 4291POPC   C1B55219   3.086   9.132   6.136
 4291POPC   C2B55220   3.025   8.927   6.550
 4291POPC   C3B55221   3.092   9.089   6.967
 4291POPC   C4B55222   3.036   8.860   7.352
 4292POPC   NC355223  24.224   0.065   5.068
 4292POPC   PO455224  24.648  44.631   5.440
 4292POPC   GL155225  24.613  44.598   5.869
 4292POPC   GL255226  24.274  44.459   5.833
 4292POPC   C1A55227  24.835  44.621   6.280
 4292POPC   D2A55228  24.969  44.430   6.693
 4292POPC   C3A55229  24.660  44.490   7.017
 4292POPC   C4A55230  24.562  44.897   7.161
 4292POPC   C1B55231  24.281  44.696   6.250
 4292POPC   C2B55232  24.276  44.822   6.690
 4292POPC   C3B55233  24.113  44.700   7.067
 4292POPC   C4B55234  24.218  44.307   7.301
 4293POPC   NC355235  14.133  19.649   5.303
 4293POPC   PO455236  13.404  19.804   5.432
 4293POPC   GL155237  13.448  20.001   5.846
 4293POPC   GL255238  13.807  20.014   5.866
 4293POPC   C1A55239  13.535  19.902   6.302
 4293POPC   D2A55240  13.548  19.521   6.522
 4293POPC   C3A55241  13.519  19.627   6.965
 4293POPC   C4A55242  13.888  19.739   7.212
 4293POPC   C1B55243  13.983  19.698   6.211
 4293POPC   C2B55244  13.898  19.844   6.667
 4293POPC   C3B55245  13.625  20.120   6.862
 4293POPC   C4B55246  13.681  20.267   7.254
 4294POPC   NC355247  39.888  20.590   5.240
 4294POPC   PO455248  40.420  20.890   5.487
 4294POPC   GL155249  40.187  20.619   5.824
 4294POPC   GL255250  39.831  20.473   5.769
 4294POPC   C1A55251  40.129  20.628   6.287
 4294POPC   D2A55252  40.235  20.391   6.656
 4294POPC   C3A55253  40.121  20.635   6.971
 4294POPC   C4A55254  39.906  20.747   7.321
 4294POPC   C1B55255  39.636  20.473   6.196
 4294POPC   C2B55256  39.735  20.565   6.639
 4294POPC   C3B55257  39.511  20.573   7.040
 4294POPC   C4B55258  39.592  20.381   7.470
 4295POPC   NC355259  12.274   5.197   5.426
 4295POPC   PO455260  11.853   4.638   5.466
 4295POPC   GL155261  12.025   4.883   5.768
 4295POPC   GL255262  11.930   5.247   5.795
 4295POPC   C1A55263  12.089   4.945   6.185
 4295POPC   D2A55264  12.334   5.033   6.522
 4295POPC   C3A55265  12.176   4.861   6.897
 4295POPC   C4A55266  12.344   4.953   7.262
 4295POPC   C1B55267  12.175   5.457   6.117
 4295POPC   C2B55268  12.221   5.526   6.541
 4295POPC   C3B55269  12.252   5.371   6.962
 4295POPC   C4B55270  11.956   5.299   7.310
 4296POPC   NC355271  20.122  41.207   5.120
 4296POPC   PO455272  20.531  41.726   5.423
 4296POPC   GL155273  20.464  41.800   5.832
 4296POPC   GL255274  20.679  41.483   5.856
 4296POPC   C1A55275  20.598  41.742   6.260
 4296POPC   D2A55276  20.685  41.596   6.645
 4296POPC   C3A55277  20.654  41.850   6.992
 4296POPC   C4A55278  20.726  41.778   7.428
 4296POPC   C1B55279  20.995  41.327   6.091
 4296POPC   C2B55280  21.048  41.260   6.501
 4296POPC   C3B55281  20.979  41.293   6.934
 4296POPC   C4B55282  20.580  41.370   7.137
 4297POPC   NC355283  37.819  38.179   5.584
 4297POPC   PO455284  37.639  37.513   5.472
 4297POPC   GL155285  37.704  37.722   5.848
 4297POPC   GL255286  37.437  37.939   5.879
 4297POPC   C1A55287  37.882  37.767   6.269
 4297POPC   D2A55288  37.733  37.884   6.699
 4297POPC   C3A55289  37.785  37.581   7.068
 4297POPC   C4A55290  37.925  37.697   7.503
 4297POPC   C1B55291  37.365  37.731   6.276
 4297POPC   C2B55292  37.234  37.915   6.649
 4297POPC   C3B55293  37.363  37.876   7.083
 4297POPC   C4B55294  37.379  38.121   7.416
 4298POPC   NC355295  39.704  18.972   5.358
 4298POPC   PO455296  40.386  19.252   5.301
 4298POPC   GL155297  40.042  19.172   5.662
 4298POPC   GL255298  39.876  18.832   5.831
 4298POPC   C1A55299  40.010  19.249   6.112
 4298POPC   D2A55300  40.216  19.164   6.498
 4298POPC   C3A55301  40.069  19.294   6.891
 4298POPC   C4A55302  39.929  19.195   7.308
 4298POPC   C1B55303  39.886  18.781   6.318
 4298POPC   C2B55304  39.870  18.768   6.763
 4298POPC   C3B55305  39.848  18.710   7.209
 4298POPC   C4B55306  39.744  18.654   7.661
 4299POPC   NC355307   0.413  13.307   5.517
 4299POPC   PO455308   0.505  13.980   5.431
 4299POPC   GL155309   0.324  13.732   5.807
 4299POPC   GL255310   0.661  13.617   5.857
 4299POPC   C1A55311   0.136  13.603   6.258
 4299POPC   D2A55312  44.888  13.642   6.697
 4299POPC   C3A55313   0.107  13.809   7.086
 4299POPC   C4A55314   0.313  13.615   7.481
 4299POPC   C1B55315   0.565  13.910   6.212
 4299POPC   C2B55316   0.438  13.858   6.652
 4299POPC   C3B55317   0.612  13.798   7.070
 4299POPC   C4B55318   0.875  13.756   7.479
 4300POPC   NC355319  25.612   8.648   5.640
 4300POPC   PO455320  25.006   8.984   5.503
 4300POPC   GL155321  25.115   8.752   5.808
 4300POPC   GL255322  25.340   8.977   5.962
 4300POPC   C1A55323  25.041   8.617   6.208
 4300POPC   D2A55324  25.149   8.495   6.644
 4300POPC   C3A55325  25.305   8.818   6.942
 4300POPC   C4A55326  25.227   9.152   7.248
 4300POPC   C1B55327  25.409   8.890   6.410
 4300POPC   C2B55328  25.647   9.114   6.710
 4300POPC   C3B55329  25.670   9.335   7.124
 4300POPC   C4B55330  25.679   9.302   7.576
 4301POPC   NC355331  38.341  34.940   5.174
 4301POPC   PO455332  38.819  34.490   5.414
 4301POPC   GL155333  38.638  34.639   5.807
 4301POPC   GL255334  38.280  34.608   5.699
 4301POPC   C1A55335  38.575  34.897   6.232
 4301POPC   D2A55336  38.281  34.964   6.578
 4301POPC   C3A55337  38.445  34.845   6.992
 4301POPC   C4A55338  38.270  34.628   7.314
 4301POPC   C1B55339  38.278  34.488   6.156
 4301POPC   C2B55340  38.400  34.462   6.572
 4301POPC   C3B55341  38.515  34.341   6.971
 4301POPC   C4B55342  38.475  34.131   7.375
 4302POPC   NC355343  23.561   1.533   5.421
 4302POPC   PO455344  23.428   0.867   5.415
 4302POPC   GL155345  23.551   1.002   5.834
 4302POPC   GL255346  23.478   1.360   5.889
 4302POPC   C1A55347  23.494   1.017   6.280
 4302POPC   D2A55348  23.372   1.138   6.698
 4302POPC   C3A55349  23.531   0.879   7.037
 4302POPC   C4A55350  23.817   0.974   7.299
 4302POPC   C1B55351  23.595   1.533   6.282
 4302POPC   C2B55352  23.742   1.479   6.676
 4302POPC   C3B55353  23.561   1.403   7.085
 4302POPC   C4B55354  23.360   1.567   7.412
 4303POPC   NC355355  17.001  13.178   5.495
 4303POPC   PO455356  16.699  12.546   5.374
 4303POPC   GL155357  16.713  12.791   5.723
 4303POPC   GL255358  17.058  12.694   5.794
 4303POPC   C1A55359  16.464  12.879   6.086
 4303POPC   D2A55360  16.611  13.009   6.494
 4303POPC   C3A55361  16.708  12.795   6.861
 4303POPC   C4A55362  16.497  12.861   7.199
 4303POPC   C1B55363  16.887  12.631   6.216
 4303POPC   C2B55364  17.101  12.863   6.543
 4303POPC   C3B55365  17.028  13.178   6.864
 4303POPC   C4B55366  17.057  12.923   7.236
 4304POPC   NC355367  24.674   9.319   5.464
 4304POPC   PO455368  24.375   9.868   5.107
 4304POPC   GL155369  24.511   9.771   5.637
 4304POPC   GL255370  24.265   9.517   5.741
 4304POPC   C1A55371  24.649   9.820   6.140
 4304POPC   D2A55372  24.676   9.873   6.639
 4304POPC   C3A55373  24.343   9.887   6.923
 4304POPC   C4A55374  24.353   9.908   7.335
 4304POPC   C1B55375  24.416   9.366   6.128
 4304POPC   C2B55376  24.316   9.550   6.519
 4304POPC   C3B55377  24.416   9.374   6.939
 4304POPC   C4B55378  24.282   9.392   7.347
 4305POPC   NC355379  44.972  41.730   5.545
 4305POPC   PO455380  44.345  41.541   5.522
 4305POPC   GL155381  44.570  41.510   5.864
 4305POPC   GL255382  44.667  41.167   5.832
 4305POPC   C1A55383  44.556  41.764   6.239
 4305POPC   D2A55384  44.357  41.928   6.602
 4305POPC   C3A55385  44.652  41.839   6.944
 4305POPC   C4A55386  44.759  41.624   7.332
 4305POPC   C1B55387  44.473  41.208   6.267
 4305POPC   C2B55388  44.483  41.444   6.653
 4305POPC   C3B55389  44.292  41.506   7.076
 4305POPC   C4B55390  44.274  41.427   7.521
 4306POPC   NC355391  12.005  10.067   5.546
 4306POPC   PO455392  12.290   9.514   5.483
 4306POPC   GL155393  12.238   9.695   5.876
 4306POPC   GL255394  11.910   9.643   5.852
 4306POPC   C1A55395  12.081   9.933   6.251
 4306POPC   D2A55396  11.942  10.131   6.652
 4306POPC   C3A55397  12.051   9.904   7.057
 4306POPC   C4A55398  11.915   9.830   7.501
 4306POPC   C1B55399  11.896   9.453   6.233
 4306POPC   C2B55400  11.899   9.589   6.658
 4306POPC   C3B55401  11.946   9.337   7.013
 4306POPC   C4B55402  11.926   9.309   7.455
 4307POPC   NC355403  25.121  44.669   5.417
 4307POPC   PO455404  25.819  44.446   5.354
 4307POPC   GL155405  25.515  44.598   5.747
 4307POPC   GL255406  25.190  44.411   5.851
 4307POPC   C1A55407  25.323  44.841   6.145
 4307POPC   D2A55408  25.145  44.905   6.588
 4307POPC   C3A55409  25.344   0.003   7.001
 4307POPC   C4A55410  25.055  44.820   7.299
 4307POPC   C1B55411  25.422  44.343   6.227
 4307POPC   C2B55412  25.519  44.561   6.603
 4307POPC   C3B55413  25.379  44.509   7.011
 4307POPC   C4B55414  25.606  44.454   7.378
 4308POPC   NC355415  14.774  15.157   5.249
 4308POPC   PO455416  15.460  14.910   5.280
 4308POPC   GL155417  15.365  15.001   5.731
 4308POPC   GL255418  15.074  15.238   5.748
 4308POPC   C1A55419  15.241  14.944   6.184
 4308POPC   D2A55420  15.378  15.134   6.588
 4308POPC   C3A55421  15.205  15.036   7.019
 4308POPC   C4A55422  14.887  14.840   7.291
 4308POPC   C1B55423  15.352  15.442   6.085
 4308POPC   C2B55424  15.582  15.605   6.484
 4308POPC   C3B55425  15.402  15.543   6.911
 4308POPC   C4B55426  15.007  15.495   7.102
 4309POPC   NC355427  34.262  27.412   5.680
 4309POPC   PO455428  33.713  27.530   5.264
 4309POPC   GL155429  33.780  27.547   5.704
 4309POPC   GL255430  33.527  27.285   5.691
 4309POPC   C1A55431  33.905  27.512   6.195
 4309POPC   D2A55432  34.042  27.705   6.567
 4309POPC   C3A55433  33.859  27.586   6.958
 4309POPC   C4A55434  34.016  27.388   7.325
 4309POPC   C1B55435  33.578  27.151   6.083
 4309POPC   C2B55436  33.583  27.190   6.507
 4309POPC   C3B55437  33.657  27.102   6.918
 4309POPC   C4B55438  33.458  27.201   7.275
 4310POPC   NC355439   6.674  31.553   5.459
 4310POPC   PO455440   7.071  31.152   5.727
 4310POPC   GL155441   6.837  31.500   5.935
 4310POPC   GL255442   6.453  31.627   5.897
 4310POPC   C1A55443   7.003  31.626   6.306
 4310POPC   D2A55444   6.814  31.460   6.674
 4310POPC   C3A55445   6.903  31.628   7.056
 4310POPC   C4A55446   6.737  31.378   7.409
 4310POPC   C1B55447   6.491  31.669   6.315
 4310POPC   C2B55448   6.283  31.607   6.671
 4310POPC   C3B55449   6.379  31.542   7.081
 4310POPC   C4B55450   6.545  31.839   7.358
 4311POPC   NC355451  22.677  31.153   5.195
 4311POPC   PO455452  23.121  31.573   5.416
 4311POPC   GL155453  22.912  31.367   5.745
 4311POPC   GL255454  22.611  31.494   5.869
 4311POPC   C1A55455  23.023  31.467   6.169
 4311POPC   D2A55456  22.971  31.590   6.565
 4311POPC   C3A55457  22.971  31.299   6.916
 4311POPC   C4A55458  23.107  31.433   7.311
 4311POPC   C1B55459  22.573  31.332   6.334
 4311POPC   C2B55460  22.482  31.423   6.788
 4311POPC   C3B55461  22.586  31.385   7.250
 4311POPC   C4B55462  22.738  31.318   7.690
 4312POPC   NC355463  21.311   9.234   5.433
 4312POPC   PO455464  21.007   8.615   5.433
 4312POPC   GL155465  21.227   8.861   5.752
 4312POPC   GL255466  20.989   8.816   5.992
 4312POPC   C1A55467  21.457   9.094   6.087
 4312POPC   D2A55468  21.375   8.974   6.504
 4312POPC   C3A55469  21.724   8.975   6.764
 4312POPC   C4A55470  21.607   9.101   7.149
 4312POPC   C1B55471  21.069   8.534   6.345
 4312POPC   C2B55472  21.038   8.601   6.774
 4312POPC   C3B55473  21.098   9.008   6.996
 4312POPC   C4B55474  21.186   9.361   7.314
 4313POPC   NC355475  16.428  44.987   5.418
 4313POPC   PO455476  17.098  44.729   5.497
 4313POPC   GL155477  16.725  44.790   5.807
 4313POPC   GL255478  16.586   0.167   5.853
 4313POPC   C1A55479  16.618  44.513   6.180
 4313POPC   D2A55480  16.689  44.318   6.639
 4313POPC   C3A55481  16.933  44.560   6.967
 4313POPC   C4A55482  16.896  44.627   7.434
 4313POPC   C1B55483  16.418  44.998   6.204
 4313POPC   C2B55484  16.391  44.751   6.560
 4313POPC   C3B55485  16.506  44.870   6.941
 4313POPC   C4B55486  16.475   0.065   7.319
 4314POPC   NC355487  35.275   9.330   5.283
 4314POPC   PO455488  35.409   8.689   5.294
 4314POPC   GL155489  35.468   8.988   5.690
 4314POPC   GL255490  35.178   8.940   5.857
 4314POPC   C1A55491  35.520   9.087   6.218
 4314POPC   D2A55492  35.653   9.033   6.682
 4314POPC   C3A55493  35.426   9.056   7.095
 4314POPC   C4A55494  35.040   9.217   7.209
 4314POPC   C1B55495  35.121   8.770   6.292
 4314POPC   C2B55496  35.090   8.809   6.767
 4314POPC   C3B55497  35.102   8.637   7.188
 4314POPC   C4B55498  35.016   8.543   7.624
 4315POPC   NC355499  13.971  23.012   5.502
 4315POPC   PO455500  13.329  23.059   5.371
 4315POPC   GL155501  13.523  23.043   5.815
 4315POPC   GL255502  13.759  22.740   5.879
 4315POPC   C1A55503  13.486  22.908   6.273
 4315POPC   D2A55504  13.769  22.772   6.598
 4315POPC   C3A55505  13.527  22.854   6.975
 4315POPC   C4A55506  13.493  23.287   7.139
 4315POPC   C1B55507  13.969  23.035   6.157
 4315POPC   C2B55508  13.861  23.287   6.504
 4315POPC   C3B55509  13.938  23.158   6.909
 4315POPC   C4B55510  14.046  23.158   7.295
 4316POPC   NC355511  31.707  28.697   5.089
 4316POPC   PO455512  31.449  28.212   5.500
 4316POPC   GL155513  31.590  28.220   5.914
 4316POPC   GL255514  31.243  28.306   5.951
 4316POPC   C1A55515  31.664  28.513   6.286
 4316POPC   D2A55516  31.450  28.520   6.686
 4316POPC   C3A55517  31.690  28.510   6.997
 4316POPC   C4A55518  31.678  28.273   7.330
 4316POPC   C1B55519  31.311  28.148   6.350
 4316POPC   C2B55520  31.081  28.177   6.707
 4316POPC   C3B55521  31.126  28.358   7.111
 4316POPC   C4B55522  30.891  28.157   7.434
 4317POPC   NC355523  39.045   8.755   5.406
 4317POPC   PO455524  39.028   7.991   5.307
 4317POPC   GL155525  39.163   8.161   5.710
 4317POPC   GL255526  38.994   8.470   5.833
 4317POPC   C1A55527  39.337   8.183   6.124
 4317POPC   D2A55528  39.204   8.030   6.518
 4317POPC   C3A55529  39.515   8.014   6.822
 4317POPC   C4A55530  39.460   8.066   7.225
 4317POPC   C1B55531  38.985   8.553   6.278
 4317POPC   C2B55532  38.827   8.353   6.647
 4317POPC   C3B55533  38.986   8.174   7.016
 4317POPC   C4B55534  38.941   8.416   7.385
 4318POPC   NC355535   6.893  38.483   5.583
 4318POPC   PO455536   6.468  39.065   5.508
 4318POPC   GL155537   6.413  38.656   5.787
 4318POPC   GL255538   6.594  38.347   5.972
 4318POPC   C1A55539   6.280  38.622   6.223
 4318POPC   D2A55540   6.340  38.862   6.541
 4318POPC   C3A55541   6.536  38.670   6.869
 4318POPC   C4A55542   6.553  38.520   7.266
 4318POPC   C1B55543   6.798  38.662   6.284
 4318POPC   C2B55544   7.016  38.581   6.696
 4318POPC   C3B55545   6.910  38.282   7.026
 4318POPC   C4B55546   6.967  38.340   7.514
 4319POPC   NC355547  42.716   9.430   5.566
 4319POPC   PO455548  42.244   9.832   5.290
 4319POPC   GL155549  42.243   9.762   5.764
 4319POPC   GL255550  42.154   9.468   5.912
 4319POPC   C1A55551  42.475   9.848   6.175
 4319POPC   D2A55552  42.686   9.998   6.582
 4319POPC   C3A55553  42.479   9.894   6.989
 4319POPC   C4A55554  42.449   9.726   7.404
 4319POPC   C1B55555  42.056   9.612   6.333
 4319POPC   C2B55556  42.031   9.644   6.777
 4319POPC   C3B55557  42.008   9.617   7.182
 4319POPC   C4B55558  42.064   9.421   7.574
 4320POPC   NC355559  12.573  14.059   5.556
 4320POPC   PO455560  12.923  14.594   5.218
 4320POPC   GL155561  12.936  14.445   5.708
 4320POPC   GL255562  12.667  14.582   5.971
 4320POPC   C1A55563  13.062  14.246   6.135
 4320POPC   D2A55564  12.827  14.101   6.529
 4320POPC   C3A55565  12.726  14.335   6.880
 4320POPC   C4A55566  12.971  14.518   7.193
 4320POPC   C1B55567  12.477  14.764   6.380
 4320POPC   C2B55568  12.315  14.630   6.799
 4320POPC   C3B55569  12.499  14.738   7.211
 4320POPC   C4B55570  12.690  14.570   7.615
 4321POPC   NC355571   6.002  35.475   5.187
 4321POPC   PO455572   5.538  35.118   5.480
 4321POPC   GL155573   5.592  35.419   5.824
 4321POPC   GL255574   5.950  35.474   5.812
 4321POPC   C1A55575   5.707  35.326   6.249
 4321POPC   D2A55576   5.624  35.506   6.624
 4321POPC   C3A55577   5.802  35.230   6.920
 4321POPC   C4A55578   5.739  35.034   7.351
 4321POPC   C1B55579   6.156  35.579   6.199
 4321POPC   C2B55580   6.134  35.430   6.570
 4321POPC   C3B55581   6.249  35.473   6.948
 4321POPC   C4B55582   6.034  35.458   7.313
 4322POPC   NC355583   3.738  40.518   5.085
 4322POPC   PO455584   3.644  41.093   5.314
 4322POPC   GL155585   3.502  41.012   5.776
 4322POPC   GL255586   3.558  40.653   5.950
 4322POPC   C1A55587   3.571  41.061   6.236
 4322POPC   D2A55588   3.907  40.916   6.534
 4322POPC   C3A55589   3.761  40.726   6.889
 4322POPC   C4A55590   3.526  40.795   7.229
 4322POPC   C1B55591   3.583  40.539   6.392
 4322POPC   C2B55592   3.384  40.395   6.760
 4322POPC   C3B55593   3.275  40.291   7.180
 4322POPC   C4B55594   3.103  40.313   7.609
 4323POPC   NC355595  35.624  40.653   5.203
 4323POPC   PO455596  34.973  40.564   5.493
 4323POPC   GL155597  35.228  40.617   5.862
 4323POPC   GL255598  35.426  40.940   5.836
 4323POPC   C1A55599  35.329  40.612   6.313
 4323POPC   D2A55600  35.485  40.788   6.732
 4323POPC   C3A55601  35.376  40.538   7.118
 4323POPC   C4A55602  35.199  40.658   7.525
 4323POPC   C1B55603  35.356  41.135   6.260
 4323POPC   C2B55604  35.264  41.320   6.681
 4323POPC   C3B55605  35.315  41.147   7.097
 4323POPC   C4B55606  35.048  41.122   7.437
 4324POPC   NC355607   3.737  12.368   5.525
 4324POPC   PO455608   3.180  12.017   5.560
 4324POPC   GL155609   3.512  12.049   5.860
 4324POPC   GL255610   3.854  11.868   5.825
 4324POPC   C1A55611   3.671  12.160   6.252
 4324POPC   D2A55612   3.833  11.925   6.615
 4324POPC   C3A55613   3.572  12.123   6.914
 4324POPC   C4A55614   3.560  12.161   7.323
 4324POPC   C1B55615   3.614  11.673   6.189
 4324POPC   C2B55616   3.345  11.804   6.583
 4324POPC   C3B55617   3.235  11.749   7.041
 4324POPC   C4B55618   3.339  11.766   7.527
 4325POPC   NC355619  28.683  29.862   5.485
 4325POPC   PO455620  28.041  29.743   5.535
 4325POPC   GL155621  28.315  29.794   5.877
 4325POPC   GL255622  28.448  30.134   5.831
 4325POPC   C1A55623  28.248  29.711   6.323
 4325POPC   D2A55624  28.001  29.697   6.693
 4325POPC   C3A55625  28.292  29.720   7.024
 4325POPC   C4A55626  28.717  29.619   7.171
 4325POPC   C1B55627  28.295  30.206   6.204
 4325POPC   C2B55628  28.481  30.193   6.572
 4325POPC   C3B55629  28.356  30.324   6.962
 4325POPC   C4B55630  28.245  30.124   7.302
 4326POPC   NC355631  39.169  38.941   5.371
 4326POPC   PO455632  39.579  39.408   5.367
 4326POPC   GL155633  39.267  39.314   5.737
 4326POPC   GL255634  39.442  38.966   5.813
 4326POPC   C1A55635  38.979  39.455   6.138
 4326POPC   D2A55636  38.949  39.719   6.564
 4326POPC   C3A55637  39.047  39.498   6.975
 4326POPC   C4A55638  39.363  39.251   7.240
 4326POPC   C1B55639  39.064  38.953   6.077
 4326POPC   C2B55640  39.056  39.054   6.515
 4326POPC   C3B55641  39.215  38.892   6.906
 4326POPC   C4B55642  38.983  38.897   7.302
 4327POPC   NC355643  28.404  38.803   5.454
 4327POPC   PO455644  28.062  38.213   5.343
 4327POPC   GL155645  28.187  38.453   5.745
 4327POPC   GL255646  28.540  38.322   5.757
 4327POPC   C1A55647  28.161  38.637   6.199
 4327POPC   D2A55648  28.387  38.486   6.604
 4327POPC   C3A55649  28.323  38.605   7.058
 4327POPC   C4A55650  28.654  38.550   7.414
 4327POPC   C1B55651  28.393  38.181   6.162
 4327POPC   C2B55652  28.016  38.183   6.429
 4327POPC   C3B55653  28.138  38.121   6.877
 4327POPC   C4B55654  28.558  38.141   7.068
 4328POPC   NC355655  11.106   9.404   5.577
 4328POPC   PO455656  11.630   9.814   5.469
 4328POPC   GL155657  11.577  10.012   5.901
 4328POPC   GL255658  11.373   9.711   5.930
 4328POPC   C1A55659  11.554   9.869   6.361
 4328POPC   D2A55660  11.156   9.727   6.614
 4328POPC   C3A55661  11.189   9.857   7.037
 4328POPC   C4A55662  11.572   9.651   7.155
 4328POPC   C1B55663  11.377   9.392   6.268
 4328POPC   C2B55664  11.483   9.268   6.695
 4328POPC   C3B55665  11.142   9.353   6.998
 4328POPC   C4B55666  11.083   9.316   7.447
 4329POPC   NC355667  35.343  14.208   5.216
 4329POPC   PO455668  35.002  14.728   5.301
 4329POPC   GL155669  35.260  14.477   5.647
 4329POPC   GL255670  35.266  14.096   5.726
 4329POPC   C1A55671  35.511  14.540   6.054
 4329POPC   D2A55672  35.622  14.310   6.472
 4329POPC   C3A55673  35.520  14.540   6.880
 4329POPC   C4A55674  35.584  14.309   7.278
 4329POPC   C1B55675  35.169  14.177   6.147
 4329POPC   C2B55676  35.124  14.327   6.564
 4329POPC   C3B55677  35.152  14.201   6.987
 4329POPC   C4B55678  35.102  14.149   7.415
 4330POPC   NC355679   0.609  44.781   5.422
 4330POPC   PO455680   0.313  44.202   5.228
 4330POPC   GL155681   0.419  44.394   5.712
 4330POPC   GL255682   0.161  44.592   5.870
 4330POPC   C1A55683   0.592  44.627   6.139
 4330POPC   D2A55684   0.411  44.775   6.569
 4330POPC   C3A55685   0.605  44.782   7.012
 4330POPC   C4A55686   0.683  44.568   7.446
 4330POPC   C1B55687   0.111  44.414   6.301
 4330POPC   C2B55688  44.885  44.607   6.656
 4330POPC   C3B55689   0.083  44.873   6.956
 4330POPC   C4B55690   0.212  44.684   7.350
 4331POPC   NC355691  32.047  44.756   5.420
 4331POPC   PO455692  32.219  44.129   5.593
 4331POPC   GL155693  32.229  44.553   5.857
 4331POPC   GL255694  31.949  44.860   5.897
 4331POPC   C1A55695  32.223  44.655   6.289
 4331POPC   D2A55696  32.441  44.845   6.625
 4331POPC   C3A55697  32.361  44.728   7.062
 4331POPC   C4A55698  32.354  44.665   7.537
 4331POPC   C1B55699  31.801  44.977   6.310
 4331POPC   C2B55700  31.939  44.791   6.702
 4331POPC   C3B55701  31.907  44.917   7.115
 4331POPC   C4B55702  31.852  44.820   7.530
 4332POPC   NC355703  36.710  17.088   5.574
 4332POPC   PO455704  37.056  16.432   5.545
 4332POPC   GL155705  36.792  16.652   5.874
 4332POPC   GL255706  36.444  16.571   5.864
 4332POPC   C1A55707  36.877  16.950   6.220
 4332POPC   D2A55708  37.059  17.064   6.624
 4332POPC   C3A55709  37.170  16.714   6.903
 4332POPC   C4A55710  37.315  16.869   7.281
 4332POPC   C1B55711  36.415  16.732   6.298
 4332POPC   C2B55712  36.669  16.665   6.640
 4332POPC   C3B55713  36.687  16.916   6.975
 4332POPC   C4B55714  36.823  16.801   7.342
 4333POPC   NC355715  11.134  38.534   5.403
 4333POPC   PO455716  11.665  38.165   5.500
 4333POPC   GL155717  11.437  38.430   5.799
 4333POPC   GL255718  11.078  38.375   5.888
 4333POPC   C1A55719  11.416  38.635   6.196
 4333POPC   D2A55720  11.295  38.413   6.539
 4333POPC   C3A55721  11.279  38.595   6.938
 4333POPC   C4A55722  11.016  38.475   7.255
 4333POPC   C1B55723  11.298  38.059   6.135
 4333POPC   C2B55724  11.404  37.902   6.545
 4333POPC   C3B55725  11.400  38.090   6.939
 4333POPC   C4B55726  11.269  38.039   7.341
 4334POPC   NC355727  31.125  12.017   5.544
 4334POPC   PO455728  30.530  12.400   5.516
 4334POPC   GL155729  30.406  12.236   5.918
 4334POPC   GL255730  30.610  11.932   5.924
 4334POPC   C1A55731  30.467  12.265   6.357
 4334POPC   D2A55732  30.706  12.235   6.703
 4334POPC   C3A55733  30.458  12.319   7.037
 4334POPC   C4A55734  30.771  12.357   7.323
 4334POPC   C1B55735  30.902  11.971   6.261
 4334POPC   C2B55736  30.916  11.772   6.684
 4334POPC   C3B55737  30.887  11.872   7.123
 4334POPC   C4B55738  30.583  11.911   7.462
 4335POPC   NC355739  42.302  37.436   5.428
 4335POPC   PO455740  41.924  37.971   5.440
 4335POPC   GL155741  42.135  37.977   5.852
 4335POPC   GL255742  42.387  37.708   5.916
 4335POPC   C1A55743  42.406  38.153   6.205
 4335POPC   D2A55744  42.615  37.954   6.575
 4335POPC   C3A55745  42.323  37.812   6.893
 4335POPC   C4A55746  42.269  37.677   7.315
 4335POPC   C1B55747  42.338  37.509   6.351
 4335POPC   C2B55748  42.182  37.337   6.755
 4335POPC   C3B55749  41.936  37.312   7.141
 4335POPC   C4B55750  42.066  37.276   7.592
 4336POPC   NC355751  31.683  13.026   5.615
 4336POPC   PO455752  32.224  12.600   5.323
 4336POPC   GL155753  32.329  12.603   5.773
 4336POPC   GL255754  32.004  12.745   5.891
 4336POPC   C1A55755  32.382  12.606   6.226
 4336POPC   D2A55756  32.495  12.868   6.571
 4336POPC   C3A55757  32.564  12.639   6.962
 4336POPC   C4A55758  32.508  12.751   7.413
 4336POPC   C1B55759  31.949  12.869   6.341
 4336POPC   C2B55760  32.064  12.634   6.703
 4336POPC   C3B55761  32.080  12.663   7.120
 4336POPC   C4B55762  31.734  12.676   7.358
 4337POPC   NC355763  36.673  39.189   5.410
 4337POPC   PO455764  37.184  39.468   5.804
 4337POPC   GL155765  36.948  39.100   5.931
 4337POPC   GL255766  36.583  39.081   5.888
 4337POPC   C1A55767  36.965  39.115   6.400
 4337POPC   D2A55768  37.156  38.893   6.759
 4337POPC   C3A55769  37.095  39.121   7.163
 4337POPC   C4A55770  36.987  39.559   7.146
 4337POPC   C1B55771  36.500  39.360   6.228
 4337POPC   C2B55772  36.574  39.375   6.673
 4337POPC   C3B55773  36.563  39.211   7.084
 4337POPC   C4B55774  36.394  38.855   7.347
 4338POPC   NC355775  32.728  36.060   5.389
 4338POPC   PO455776  33.315  35.866   5.466
 4338POPC   GL155777  33.014  35.955   5.802
 4338POPC   GL255778  32.949  36.280   5.858
 4338POPC   C1A55779  32.856  35.980   6.251
 4338POPC   D2A55780  32.944  36.057   6.689
 4338POPC   C3A55781  32.739  35.905   7.051
 4338POPC   C4A55782  32.764  35.934   7.522
 4338POPC   C1B55783  32.944  36.588   6.233
 4338POPC   C2B55784  32.765  36.545   6.652
 4338POPC   C3B55785  32.882  36.405   7.086
 4338POPC   C4B55786  33.216  36.557   7.438
 4339POPC   NC355787  41.859  35.288   5.465
 4339POPC   PO455788  41.237  35.577   5.747
 4339POPC   GL155789  41.537  35.380   5.972
 4339POPC   GL255790  41.826  35.167   5.962
 4339POPC   C1A55791  41.558  35.347   6.392
 4339POPC   D2A55792  41.699  35.634   6.658
 4339POPC   C3A55793  41.517  35.498   7.030
 4339POPC   C4A55794  41.316  35.140   7.192
 4339POPC   C1B55795  41.994  35.089   6.370
 4339POPC   C2B55796  41.897  35.195   6.820
 4339POPC   C3B55797  41.896  35.271   7.300
 4339POPC   C4B55798  42.044  35.054   7.720
 4340POPC   NC355799  30.472  13.672   5.416
 4340POPC   PO455800  31.030  13.417   5.215
 4340POPC   GL155801  30.869  13.528   5.658
 4340POPC   GL255802  31.035  13.686   5.862
 4340POPC   C1A55803  30.576  13.680   6.052
 4340POPC   D2A55804  30.594  13.794   6.489
 4340POPC   C3A55805  30.519  13.463   6.771
 4340POPC   C4A55806  30.531  13.252   7.161
 4340POPC   C1B55807  30.975  13.468   6.279
 4340POPC   C2B55808  31.048  13.618   6.676
 4340POPC   C3B55809  30.897  13.747   7.049
 4340POPC   C4B55810  30.786  13.615   7.445
 4341POPC   NC355811  20.335  17.505   5.272
 4341POPC   PO455812  21.006  17.742   5.414
 4341POPC   GL155813  20.764  17.570   5.783
 4341POPC   GL255814  20.934  17.823   5.934
 4341POPC   C1A55815  20.625  17.617   6.275
 4341POPC   D2A55816  20.700  17.442   6.697
 4341POPC   C3A55817  20.706  17.675   7.088
 4341POPC   C4A55818  20.629  17.586   7.540
 4341POPC   C1B55819  21.085  17.420   6.176
 4341POPC   C2B55820  21.099  17.161   6.545
 4341POPC   C3B55821  21.151  17.211   6.971
 4341POPC   C4B55822  21.050  17.390   7.336
 4342POPC   NC355823   3.346  36.021   5.485
 4342POPC   PO455824   3.733  36.479   5.301
 4342POPC   GL155825   3.531  36.452   5.786
 4342POPC   GL255826   3.241  36.292   5.904
 4342POPC   C1A55827   3.606  36.286   6.277
 4342POPC   D2A55828   3.398  36.035   6.643
 4342POPC   C3A55829   3.662  35.768   6.945
 4342POPC   C4A55830   3.860  35.847   7.351
 4342POPC   C1B55831   3.250  36.637   6.220
 4342POPC   C2B55832   3.456  36.692   6.618
 4342POPC   C3B55833   3.657  36.393   6.881
 4342POPC   C4B55834   3.468  36.154   7.198
 4343POPC   NC355835  21.975  33.670   5.385
 4343POPC   PO455836  22.466  34.088   5.411
 4343POPC   GL155837  22.353  33.903   5.822
 4343POPC   GL255838  22.191  33.566   5.840
 4343POPC   C1A55839  22.365  34.043   6.261
 4343POPC   D2A55840  22.545  33.900   6.640
 4343POPC   C3A55841  22.368  34.009   7.020
 4343POPC   C4A55842  22.369  33.635   7.233
 4343POPC   C1B55843  21.908  33.738   6.114
 4343POPC   C2B55844  21.971  33.839   6.536
 4343POPC   C3B55845  21.944  33.677   6.926
 4343POPC   C4B55846  21.815  33.914   7.277
 4344POPC   NC355847   0.699  25.229   5.370
 4344POPC   PO455848   0.113  25.356   5.463
 4344POPC   GL155849   0.322  25.111   5.802
 4344POPC   GL255850   0.612  24.895   5.796
 4344POPC   C1A55851   0.520  25.223   6.198
 4344POPC   D2A55852   0.437  25.151   6.658
 4344POPC   C3A55853   0.370  25.546   6.923
 4344POPC   C4A55854   0.157  25.582   7.313
 4344POPC   C1B55855   0.591  24.699   6.243
 4344POPC   C2B55856   0.852  24.720   6.638
 4344POPC   C3B55857   0.733  24.901   7.041
 4344POPC   C4B55858   0.353  25.109   7.179
 4345POPC   NC355859  41.210   4.195   5.377
 4345POPC   PO455860  41.453   4.780   5.299
 4345POPC   GL155861  41.573   4.608   5.725
 4345POPC   GL255862  41.667   4.241   5.762
 4345POPC   C1A55863  41.659   4.571   6.174
 4345POPC   D2A55864  41.501   4.755   6.581
 4345POPC   C3A55865  41.597   4.547   7.004
 4345POPC   C4A55866  41.362   4.561   7.440
 4345POPC   C1B55867  41.640   4.059   6.191
 4345POPC   C2B55868  41.653   4.240   6.584
 4345POPC   C3B55869  41.595   4.033   6.939
 4345POPC   C4B55870  41.644   4.150   7.340
 4346POPC   NC355871  31.472  17.064   5.469
 4346POPC   PO455872  31.731  17.744   5.424
 4346POPC   GL155873  31.685  17.513   5.821
 4346POPC   GL255874  31.349  17.415   5.845
 4346POPC   C1A55875  31.658  17.302   6.258
 4346POPC   D2A55876  31.401  17.215   6.644
 4346POPC   C3A55877  31.640  17.331   7.034
 4346POPC   C4A55878  31.527  17.471   7.459
 4346POPC   C1B55879  31.338  17.704   6.222
 4346POPC   C2B55880  31.431  17.709   6.678
 4346POPC   C3B55881  31.202  17.621   7.070
 4346POPC   C4B55882  31.182  17.887   7.448
 4347POPC   NC355883  15.188  43.640   5.071
 4347POPC   PO455884  15.328  44.329   5.210
 4347POPC   GL155885  15.172  44.057   5.622
 4347POPC   GL255886  15.104  43.663   5.689
 4347POPC   C1A55887  15.234  44.043   6.108
 4347POPC   D2A55888  15.485  44.087   6.523
 4347POPC   C3A55889  15.256  44.091   6.937
 4347POPC   C4A55890  14.942  44.209   7.288
 4347POPC   C1B55891  15.216  43.529   6.153
 4347POPC   C2B55892  15.154  43.695   6.568
 4347POPC   C3B55893  15.198  43.583   7.003
 4347POPC   C4B55894  15.071  43.724   7.379
 4348POPC   NC355895   3.329  43.534   5.824
 4348POPC   PO455896   3.225  44.034   5.417
 4348POPC   GL155897   3.581  43.993   5.717
 4348POPC   GL255898   3.367  44.041   5.970
 4348POPC   C1A55899   3.818  44.028   6.151
 4348POPC   D2A55900   3.710  44.175   6.557
 4348POPC   C3A55901   3.545  43.911   6.874
 4348POPC   C4A55902   3.664  44.038   7.276
 4348POPC   C1B55903   3.258  43.950   6.380
 4348POPC   C2B55904   3.167  43.593   6.604
 4348POPC   C3B55905   3.033  43.748   6.950
 4348POPC   C4B55906   3.206  43.830   7.304
 4349POPC   NC355907  26.060  44.866   5.382
 4349POPC   PO455908  26.136  44.263   5.793
 4349POPC   GL155909  26.018  44.647   5.841
 4349POPC   GL255910  26.310  44.837   5.823
 4349POPC   C1A55911  25.818  44.719   6.208
 4349POPC   D2A55912  25.982  44.836   6.612
 4349POPC   C3A55913  25.827  44.796   7.013
 4349POPC   C4A55914  26.104  44.597   7.295
 4349POPC   C1B55915  26.295  44.996   6.225
 4349POPC   C2B55916  26.552   0.027   6.599
 4349POPC   C3B55917  26.342  44.946   6.988
 4349POPC   C4B55918  26.288   0.059   7.416
 4350POPC   NC355919  29.733  17.264   5.420
 4350POPC   PO455920  30.037  17.785   5.768
 4350POPC   GL155921  29.806  17.494   5.986
 4350POPC   GL255922  30.027  17.270   5.873
 4350POPC   C1A55923  29.765  17.326   6.417
 4350POPC   D2A55924  29.469  17.186   6.728
 4350POPC   C3A55925  29.626  17.340   7.106
 4350POPC   C4A55926  29.793  17.727   7.223
 4350POPC   C1B55927  30.245  17.452   6.267
 4350POPC   C2B55928  30.352  17.801   6.521
 4350POPC   C3B55929  30.209  17.708   6.924
 4350POPC   C4B55930  30.297  17.352   7.208
 4351POPC   NC355931   2.155  38.048   4.962
 4351POPC   PO455932   2.244  38.087   5.578
 4351POPC   GL155933   2.135  37.784   5.910
 4351POPC   GL255934   1.806  37.583   5.927
 4351POPC   C1A55935   2.209  37.655   6.310
 4351POPC   D2A55936   2.048  37.791   6.645
 4351POPC   C3A55937   2.164  37.681   7.016
 4351POPC   C4A55938   2.122  38.060   7.248
 4351POPC   C1B55939   1.634  37.527   6.385
 4351POPC   C2B55940   1.663  37.525   6.850
 4351POPC   C3B55941   1.699  37.737   7.242
 4351POPC   C4B55942   1.658  37.684   7.721
 4352POPC   NC355943  43.835  16.314   5.351
 4352POPC   PO455944  43.439  15.721   5.464
 4352POPC   GL155945  43.704  15.931   5.791
 4352POPC   GL255946  43.967  16.206   5.844
 4352POPC   C1A55947  43.571  16.189   6.157
 4352POPC   D2A55948  43.786  16.271   6.549
 4352POPC   C3A55949  43.703  15.920   6.838
 4352POPC   C4A55950  43.728  15.974   7.268
 4352POPC   C1B55951  44.006  15.920   6.232
 4352POPC   C2B55952  44.201  15.885   6.663
 4352POPC   C3B55953  44.184  15.816   7.133
 4352POPC   C4B55954  44.186  15.618   7.577
 4353POPC   NC355955  30.473   7.479   5.428
 4353POPC   PO455956  31.037   7.523   5.670
 4353POPC   GL155957  30.772   7.207   5.830
 4353POPC   GL255958  30.453   7.344   5.957
 4353POPC   C1A55959  30.826   7.087   6.233
 4353POPC   D2A55960  30.537   7.211   6.548
 4353POPC   C3A55961  30.593   7.346   6.977
 4353POPC   C4A55962  30.604   7.266   7.424
 4353POPC   C1B55963  30.697   7.612   6.262
 4353POPC   C2B55964  30.819   7.774   6.702
 4353POPC   C3B55965  30.713   7.825   7.162
 4353POPC   C4B55966  30.408   7.761   7.487
 4354POPC   NC355967  12.734   7.510   5.342
 4354POPC   PO455968  12.940   7.024   5.114
 4354POPC   GL155969  12.841   7.134   5.678
 4354POPC   GL255970  12.633   7.380   5.810
 4354POPC   C1A55971  12.926   7.253   6.192
 4354POPC   D2A55972  13.069   7.349   6.657
 4354POPC   C3A55973  12.817   7.245   7.054
 4354POPC   C4A55974  12.884   7.325   7.510
 4354POPC   C1B55975  12.533   7.687   6.104
 4354POPC   C2B55976  12.765   7.732   6.475
 4354POPC   C3B55977  12.684   7.748   6.895
 4354POPC   C4B55978  12.457   7.605   7.239
 4355POPC   NC355979   8.903  35.919   5.335
 4355POPC   PO455980   9.184  36.458   5.141
 4355POPC   GL155981   9.099  36.286   5.643
 4355POPC   GL255982   8.808  36.124   5.800
 4355POPC   C1A55983   9.095  36.316   6.173
 4355POPC   D2A55984   9.261  36.107   6.594
 4355POPC   C3A55985   9.195  36.285   7.051
 4355POPC   C4A55986   9.181  36.434   7.496
 4355POPC   C1B55987   8.827  35.908   6.220
 4355POPC   C2B55988   8.760  36.074   6.625
 4355POPC   C3B55989   8.834  35.895   7.019
 4355POPC   C4B55990   8.492  35.860   7.282
 4356POPC   NC355991  15.029   6.567   5.460
 4356POPC   PO455992  14.947   7.203   5.236
 4356POPC   GL155993  14.955   6.990   5.755
 4356POPC   GL255994  15.281   6.723   5.850
 4356POPC   C1A55995  15.171   7.022   6.221
 4356POPC   D2A55996  15.369   7.159   6.615
 4356POPC   C3A55997  15.250   6.828   6.916
 4356POPC   C4A55998  15.072   6.741   7.326
 4356POPC   C1B55999  15.173   6.472   6.218
 4356POPC   C2B56000  15.387   6.291   6.614
 4356POPC   C3B56001  15.505   6.411   7.049
 4356POPC   C4B56002  15.404   6.415   7.506
 4357POPC   NC356003  44.024   3.107   5.514
 4357POPC   PO456004  44.206   2.435   5.533
 4357POPC   GL156005  43.941   2.598   5.891
 4357POPC   GL256006  43.655   2.835   5.832
 4357POPC   C1A56007  43.666   2.539   6.269
 4357POPC   D2A56008  43.491   2.547   6.689
 4357POPC   C3A56009  43.773   2.578   7.043
 4357POPC   C4A56010  43.652   2.525   7.473
 4357POPC   C1B56011  43.858   3.014   6.200
 4357POPC   C2B56012  43.936   2.848   6.610
 4357POPC   C3B56013  44.065   3.045   6.973
 4357POPC   C4B56014  43.932   3.015   7.387
 4358POPC   NC356015  37.720   8.360   5.419
 4358POPC   PO456016  37.203   7.939   5.300
 4358POPC   GL156017  37.254   8.209   5.784
 4358POPC   GL256018  37.497   8.452   5.859
 4358POPC   C1A56019  37.386   8.227   6.277
 4358POPC   D2A56020  37.260   8.200   6.691
 4358POPC   C3A56021  37.537   8.280   7.028
 4358POPC   C4A56022  37.618   8.002   7.421
 4358POPC   C1B56023  37.853   8.448   6.178
 4358POPC   C2B56024  37.832   8.523   6.633
 4358POPC   C3B56025  38.014   8.421   7.031
 4358POPC   C4B56026  37.863   8.528   7.446
 4359POPC   NC356027   7.084   3.162   5.366
 4359POPC   PO456028   6.673   3.635   5.391
 4359POPC   GL156029   6.789   3.369   5.730
 4359POPC   GL256030   7.011   3.577   5.852
 4359POPC   C1A56031   6.771   3.284   6.189
 4359POPC   D2A56032   6.652   3.406   6.617
 4359POPC   C3A56033   6.874   3.291   7.002
 4359POPC   C4A56034   6.599   3.317   7.352
 4359POPC   C1B56035   7.011   3.764   6.281
 4359POPC   C2B56036   6.911   3.824   6.728
 4359POPC   C3B56037   6.630   3.755   7.105
 4359POPC   C4B56038   6.732   3.869   7.574
 4360POPC   NC356039  12.461  33.899   5.559
 4360POPC   PO456040  13.094  33.645   5.650
 4360POPC   GL156041  12.823  33.867   5.911
 4360POPC   GL256042  12.774  34.201   5.893
 4360POPC   C1A56043  12.734  33.939   6.341
 4360POPC   D2A56044  12.861  33.564   6.522
 4360POPC   C3A56045  12.810  33.482   6.939
 4360POPC   C4A56046  12.866  33.656   7.325
 4360POPC   C1B56047  13.164  34.164   6.173
 4360POPC   C2B56048  13.170  34.153   6.614
 4360POPC   C3B56049  12.928  34.039   6.974
 4360POPC   C4B56050  13.081  34.102   7.397
 4361POPC   NC356051  38.626  38.435   5.452
 4361POPC   PO456052  38.103  38.016   5.248
 4361POPC   GL156053  38.283  38.207   5.739
 4361POPC   GL256054  38.311  38.610   5.788
 4361POPC   C1A56055  38.166  38.357   6.185
 4361POPC   D2A56056  38.417  38.513   6.553
 4361POPC   C3A56057  38.353  38.289   6.985
 4361POPC   C4A56058  38.247  38.263   7.439
 4361POPC   C1B56059  38.692  38.544   6.098
 4361POPC   C2B56060  38.930  38.512   6.519
 4361POPC   C3B56061  38.753  38.631   6.932
 4361POPC   C4B56062  38.474  38.709   7.294
 4362POPC   NC356063  30.899  40.291   5.490
 4362POPC   PO456064  30.449  39.721   5.488
 4362POPC   GL156065  30.687  39.961   5.819
 4362POPC   GL256066  31.039  39.820   5.788
 4362POPC   C1A56067  30.573  40.202   6.203
 4362POPC   D2A56068  30.355  40.080   6.580
 4362POPC   C3A56069  30.587  40.008   6.967
 4362POPC   C4A56070  30.775  40.330   7.203
 4362POPC   C1B56071  31.093  40.009   6.204
 4362POPC   C2B56072  30.957  40.064   6.626
 4362POPC   C3B56073  31.118  40.000   7.055
 4362POPC   C4B56074  31.246  39.679   7.372
 4363POPC   NC356075   5.206  14.323   5.510
 4363POPC   PO456076   5.509  14.860   5.506
 4363POPC   GL156077   5.293  14.701   5.848
 4363POPC   GL256078   4.923  14.699   5.889
 4363POPC   C1A56079   5.258  14.582   6.281
 4363POPC   D2A56080   4.996  14.560   6.637
 4363POPC   C3A56081   5.201  14.292   6.915
 4363POPC   C4A56082   5.430  14.506   7.165
 4363POPC   C1B56083   4.839  14.291   6.129
 4363POPC   C2B56084   4.920  14.075   6.515
 4363POPC   C3B56085   4.704  14.214   6.894
 4363POPC   C4B56086   4.880  14.177   7.325
 4364POPC   NC356087  32.898  24.756   5.582
 4364POPC   PO456088  33.044  24.110   5.438
 4364POPC   GL156089  33.054  24.323   5.824
 4364POPC   GL256090  32.724  24.205   5.877
 4364POPC   C1A56091  32.980  24.617   6.209
 4364POPC   D2A56092  33.199  24.696   6.581
 4364POPC   C3A56093  32.988  24.816   6.951
 4364POPC   C4A56094  33.036  24.728   7.411
 4364POPC   C1B56095  32.962  24.121   6.269
 4364POPC   C2B56096  32.883  24.291   6.659
 4364POPC   C3B56097  33.043  24.330   7.051
 4364POPC   C4B56098  32.743  24.207   7.359
 4365POPC   NC356099  10.088   9.246   5.469
 4365POPC   PO456100   9.562   8.903   5.350
 4365POPC   GL156101   9.645   9.046   5.794
 4365POPC   GL256102   9.314   9.176   5.901
 4365POPC   C1A56103   9.764   8.969   6.248
 4365POPC   D2A56104   9.945   8.753   6.594
 4365POPC   C3A56105  10.135   9.003   6.879
 4365POPC   C4A56106  10.187   9.075   7.292
 4365POPC   C1B56107   9.446   9.371   6.303
 4365POPC   C2B56108   9.647   9.262   6.678
 4365POPC   C3B56109   9.634   8.944   6.942
 4365POPC   C4B56110   9.504   8.818   7.314
 4366POPC   NC356111  13.157  37.497   5.458
 4366POPC   PO456112  12.540  37.680   5.488
 4366POPC   GL156113  12.616  37.707   5.885
 4366POPC   GL256114  12.965  37.633   5.918
 4366POPC   C1A56115  12.718  37.908   6.269
 4366POPC   D2A56116  12.982  37.758   6.612
 4366POPC   C3A56117  12.864  37.931   7.002
 4366POPC   C4A56118  12.544  37.889   7.293
 4366POPC   C1B56119  12.769  37.397   6.275
 4366POPC   C2B56120  12.589  37.244   6.654
 4366POPC   C3B56121  12.763  37.422   7.013
 4366POPC   C4B56122  12.852  37.471   7.453
 4367POPC   NC356123  29.626   2.629   5.500
 4367POPC   PO456124  30.169   2.872   5.656
 4367POPC   GL156125  29.899   2.674   5.942
 4367POPC   GL256126  29.670   2.945   5.901
 4367POPC   C1A56127  29.897   2.594   6.385
 4367POPC   D2A56128  29.837   2.340   6.732
 4367POPC   C3A56129  29.734   2.637   7.020
 4367POPC   C4A56130  30.074   2.916   7.123
 4367POPC   C1B56131  29.846   3.085   6.267
 4367POPC   C2B56132  29.755   3.010   6.699
 4367POPC   C3B56133  29.599   3.108   7.170
 4367POPC   C4B56134  29.525   3.085   7.648
 4368POPC   NC356135  22.173  10.873   5.409
 4368POPC   PO456136  22.077  11.513   5.423
 4368POPC   GL156137  22.157  11.236   5.785
 4368POPC   GL256138  21.900  10.968   5.817
 4368POPC   C1A56139  22.273  11.130   6.207
 4368POPC   D2A56140  22.172  11.359   6.592
 4368POPC   C3A56141  22.225  11.189   6.993
 4368POPC   C4A56142  22.306  11.369   7.395
 4368POPC   C1B56143  21.813  10.928   6.221
 4368POPC   C2B56144  21.980  10.894   6.625
 4368POPC   C3B56145  21.778  10.949   7.005
 4368POPC   C4B56146  22.002  10.950   7.394
 4369POPC   NC356147  11.506  44.040   5.372
 4369POPC   PO456148  11.112  43.592   5.304
 4369POPC   GL156149  11.219  43.611   5.785
 4369POPC   GL256150  11.507  43.867   5.854
 4369POPC   C1A56151  11.385  43.586   6.249
 4369POPC   D2A56152  11.461  43.883   6.617
 4369POPC   C3A56153  11.379  43.755   7.077
 4369POPC   C4A56154  11.163  43.527   7.442
 4369POPC   C1B56155  11.161  44.062   6.100
 4369POPC   C2B56156  10.889  44.127   6.465
 4369POPC   C3B56157  11.016  44.085   6.879
 4369POPC   C4B56158  10.964  44.007   7.310
 4370POPC   NC356159   0.296  20.018   5.126
 4370POPC   PO456160   0.512  19.530   5.531
 4370POPC   GL156161   0.266  19.828   5.754
 4370POPC   GL256162   0.228  19.569   5.985
 4370POPC   C1A56163   0.191  20.028   6.179
 4370POPC   D2A56164   0.203  19.701   6.506
 4370POPC   C3A56165   0.320  19.850   6.875
 4370POPC   C4A56166   0.158  19.880   7.289
 4370POPC   C1B56167   0.602  19.731   6.170
 4370POPC   C2B56168   0.700  19.572   6.526
 4370POPC   C3B56169   0.784  19.632   6.907
 4370POPC   C4B56170   0.575  19.601   7.241
 4371POPC   NC356171   1.339  30.214   5.550
 4371POPC   PO456172   1.314  29.597   5.256
 4371POPC   GL156173   1.112  29.747   5.702
 4371POPC   GL256174   1.331  29.704   5.975
 4371POPC   C1A56175   0.900  29.910   6.163
 4371POPC   D2A56176   1.001  30.148   6.614
 4371POPC   C3A56177   1.100  30.057   7.041
 4371POPC   C4A56178   1.243  29.644   7.172
 4371POPC   C1B56179   1.374  30.069   6.253
 4371POPC   C2B56180   1.633  30.112   6.610
 4371POPC   C3B56181   1.597  30.267   7.005
 4371POPC   C4B56182   1.517  30.080   7.357
 4372POPC   NC356183   4.030   1.331   5.274
 4372POPC   PO456184   4.489   0.984   5.584
 4372POPC   GL156185   4.253   1.126   5.916
 4372POPC   GL256186   4.218   1.492   5.814
 4372POPC   C1A56187   4.159   1.031   6.369
 4372POPC   D2A56188   4.043   0.861   6.770
 4372POPC   C3A56189   4.349   0.910   7.102
 4372POPC   C4A56190   4.767   1.067   7.097
 4372POPC   C1B56191   4.375   1.489   6.249
 4372POPC   C2B56192   4.226   1.491   6.656
 4372POPC   C3B56193   4.190   1.805   6.963
 4372POPC   C4B56194   4.391   1.525   7.196
 4373POPC   NC356195   1.204   1.326   5.498
 4373POPC   PO456196   0.891   0.786   5.624
 4373POPC   GL156197   0.849   1.114   5.902
 4373POPC   GL256198   1.189   1.149   5.972
 4373POPC   C1A56199   0.927   1.050   6.370
 4373POPC   D2A56200   0.987   1.294   6.754
 4373POPC   C3A56201   0.877   1.020   7.062
 4373POPC   C4A56202   0.587   0.815   7.281
 4373POPC   C1B56203   1.150   1.509   6.305
 4373POPC   C2B56204   1.389   1.637   6.689
 4373POPC   C3B56205   1.316   1.619   7.127
 4373POPC   C4B56206   1.207   1.248   7.372
 4374POPC   NC356207  43.337  32.525   5.449
 4374POPC   PO456208  42.918  32.052   5.630
 4374POPC   GL156209  43.060  32.393   5.886
 4374POPC   GL256210  43.421  32.515   5.947
 4374POPC   C1A56211  43.090  32.330   6.317
 4374POPC   D2A56212  42.910  32.283   6.684
 4374POPC   C3A56213  43.057  32.176   7.039
 4374POPC   C4A56214  42.829  32.450   7.301
 4374POPC   C1B56215  43.586  32.422   6.361
 4374POPC   C2B56216  43.464  32.139   6.704
 4374POPC   C3B56217  43.554  32.165   7.143
 4374POPC   C4B56218  43.484  32.557   7.359
 4375POPC   NC356219  20.353  43.922   5.330
 4375POPC   PO456220  20.873  43.638   5.095
 4375POPC   GL156221  20.663  43.606   5.581
 4375POPC   GL256222  20.722  43.936   5.749
 4375POPC   C1A56223  20.698  43.593   6.103
 4375POPC   D2A56224  20.544  43.763   6.535
 4375POPC   C3A56225  20.749  43.691   6.950
 4375POPC   C4A56226  20.879  43.603   7.373
 4375POPC   C1B56227  20.951  44.050   6.154
 4375POPC   C2B56228  20.977  44.175   6.600
 4375POPC   C3B56229  20.612  44.201   6.860
 4375POPC   C4B56230  20.490  44.075   7.267
 4376POPC   NC356231  15.680   6.839   5.538
 4376POPC   PO456232  16.177   6.378   5.281
 4376POPC   GL156233  16.110   6.373   5.719
 4376POPC   GL256234  15.757   6.367   5.773
 4376POPC   C1A56235  16.176   6.577   6.124
 4376POPC   D2A56236  15.975   6.882   6.395
 4376POPC   C3A56237  16.039   6.852   6.838
 4376POPC   C4A56238  15.930   6.728   7.240
 4376POPC   C1B56239  15.685   6.449   6.197
 4376POPC   C2B56240  15.899   6.383   6.571
 4376POPC   C3B56241  16.043   6.323   6.959
 4376POPC   C4B56242  15.866   6.221   7.338
 4377POPC   NC356243   0.492   5.637   5.239
 4377POPC   PO456244   0.238   6.172   5.530
 4377POPC   GL156245   0.570   5.997   5.805
 4377POPC   GL256246   0.611   5.640   5.808
 4377POPC   C1A56247   0.520   5.955   6.255
 4377POPC   D2A56248   0.260   6.036   6.630
 4377POPC   C3A56249   0.556   5.961   6.928
 4377POPC   C4A56250   0.733   6.234   7.241
 4377POPC   C1B56251   0.448   5.429   6.180
 4377POPC   C2B56252   0.445   5.540   6.598
 4377POPC   C3B56253   0.501   5.389   6.990
 4377POPC   C4B56254   0.282   5.502   7.320
 4378POPC   NC356255  20.840  19.817   5.524
 4378POPC   PO456256  20.200  19.503   5.409
 4378POPC   GL156257  20.401  19.656   5.802
 4378POPC   GL256258  20.410  19.966   5.752
 4378POPC   C1A56259  20.574  19.870   6.225
 4378POPC   D2A56260  20.818  19.925   6.625
 4378POPC   C3A56261  20.620  19.836   7.024
 4378POPC   C4A56262  20.715  19.613   7.406
 4378POPC   C1B56263  20.101  19.991   6.085
 4378POPC   C2B56264  20.134  19.923   6.522
 4378POPC   C3B56265  20.099  19.908   6.952
 4378POPC   C4B56266  20.232  19.803   7.360
 4379POPC   NC356267  35.228  31.767   5.322
 4379POPC   PO456268  35.642  31.190   5.406
 4379POPC   GL156269  35.452  31.457   5.714
 4379POPC   GL256270  35.236  31.180   5.799
 4379POPC   C1A56271  35.309  31.601   6.139
 4379POPC   D2A56272  35.383  31.791   6.574
 4379POPC   C3A56273  35.525  31.587   6.977
 4379POPC   C4A56274  35.200  31.614   7.313
 4379POPC   C1B56275  35.548  31.147   6.117
 4379POPC   C2B56276  35.440  31.266   6.524
 4379POPC   C3B56277  35.427  31.068   6.904
 4379POPC   C4B56278  35.437  31.172   7.335
 4380POPC   NC356279  40.158  11.464   5.208
 4380POPC   PO456280  39.610  11.301   5.548
 4380POPC   GL156281  39.848  11.536   5.836
 4380POPC   GL256282  40.036  11.244   5.863
 4380POPC   C1A56283  39.805  11.447   6.289
 4380POPC   D2A56284  40.082  11.415   6.663
 4380POPC   C3A56285  39.955  11.335   7.076
 4380POPC   C4A56286  39.948  11.738   7.253
 4380POPC   C1B56287  40.143  10.914   6.164
 4380POPC   C2B56288  40.289  10.953   6.582
 4380POPC   C3B56289  40.389  11.086   6.990
 4380POPC   C4B56290  40.246  10.879   7.323
 4381POPC   NC356291   1.560  15.286   5.345
 4381POPC   PO456292   2.051  14.907   5.452
 4381POPC   GL156293   2.109  15.075   5.836
 4381POPC   GL256294   1.963  15.366   5.847
 4381POPC   C1A56295   1.961  15.037   6.247
 4381POPC   D2A56296   1.753  15.056   6.626
 4381POPC   C3A56297   2.000  14.980   6.933
 4381POPC   C4A56298   2.218  14.904   7.288
 4381POPC   C1B56299   1.631  15.423   6.159
 4381POPC   C2B56300   1.639  15.578   6.583
 4381POPC   C3B56301   1.910  15.485   6.930
 4381POPC   C4B56302   2.329  15.505   7.141
 4382POPC   NC356303  28.014  17.727   5.596
 4382POPC   PO456304  28.448  17.332   5.254
 4382POPC   GL156305  28.454  17.477   5.703
 4382POPC   GL256306  28.556  17.169   5.753
 4382POPC   C1A56307  28.485  17.616   6.192
 4382POPC   D2A56308  28.682  17.788   6.635
 4382POPC   C3A56309  28.455  17.817   7.070
 4382POPC   C4A56310  28.394  17.808   7.547
 4382POPC   C1B56311  28.366  17.106   6.168
 4382POPC   C2B56312  28.449  16.966   6.600
 4382POPC   C3B56313  28.265  17.055   6.965
 4382POPC   C4B56314  28.276  17.359   7.256
 4383POPC   NC356315   3.793  44.710   5.481
 4383POPC   PO456316   3.125  44.916   5.597
 4383POPC   GL156317   3.323  44.522   5.798
 4383POPC   GL256318   3.688  44.476   5.910
 4383POPC   C1A56319   3.342  44.468   6.271
 4383POPC   D2A56320   3.455  44.804   6.566
 4383POPC   C3A56321   3.357  44.724   6.993
 4383POPC   C4A56322   3.225  44.313   7.122
 4383POPC   C1B56323   3.936  44.552   6.286
 4383POPC   C2B56324   3.958  44.605   6.726
 4383POPC   C3B56325   3.820  44.529   7.142
 4383POPC   C4B56326   4.000  44.655   7.525
 4384POPC   NC356327   1.678   4.180   5.480
 4384POPC   PO456328   2.205   4.632   5.556
 4384POPC   GL156329   1.933   4.414   5.863
 4384POPC   GL256330   1.865   4.051   5.968
 4384POPC   C1A56331   1.925   4.421   6.316
 4384POPC   D2A56332   1.821   4.153   6.645
 4384POPC   C3A56333   1.938   4.349   7.010
 4384POPC   C4A56334   1.674   4.361   7.338
 4384POPC   C1B56335   2.282   4.076   6.217
 4384POPC   C2B56336   2.371   4.173   6.637
 4384POPC   C3B56337   2.248   3.948   6.984
 4384POPC   C4B56338   2.061   4.016   7.372
 4385POPC   NC356339  18.751  13.361   5.414
 4385POPC   PO456340  18.268  13.859   5.539
 4385POPC   GL156341  18.492  13.589   5.828
 4385POPC   GL256342  18.214  13.378   5.895
 4385POPC   C1A56343  18.541  13.447   6.278
 4385POPC   D2A56344  18.410  13.549   6.677
 4385POPC   C3A56345  18.497  13.919   6.858
 4385POPC   C4A56346  18.613  13.864   7.255
 4385POPC   C1B56347  18.117  13.738   6.205
 4385POPC   C2B56348  18.023  13.927   6.626
 4385POPC   C3B56349  18.036  13.759   7.041
 4385POPC   C4B56350  18.229  13.385   7.160
 4386POPC   NC356351  39.372  29.823   5.469
 4386POPC   PO456352  39.051  30.319   5.578
 4386POPC   GL156353  39.203  30.047   5.910
 4386POPC   GL256354  39.454  29.765   5.956
 4386POPC   C1A56355  39.101  29.972   6.319
 4386POPC   D2A56356  39.263  30.091   6.674
 4386POPC   C3A56357  39.132  30.103   7.082
 4386POPC   C4A56358  39.305  29.825   7.360
 4386POPC   C1B56359  39.576  29.632   6.360
 4386POPC   C2B56360  39.466  29.615   6.797
 4386POPC   C3B56361  39.717  29.584   7.184
 4386POPC   C4B56362  39.993  29.752   7.532
 4387POPC   NC356363  33.903  32.486   5.568
 4387POPC   PO456364  33.440  31.961   5.481
 4387POPC   GL156365  33.651  31.996   5.856
 4387POPC   GL256366  33.487  32.314   5.910
 4387POPC   C1A56367  33.866  32.183   6.219
 4387POPC   D2A56368  33.788  31.985   6.618
 4387POPC   C3A56369  33.804  32.176   7.007
 4387POPC   C4A56370  34.007  32.566   7.148
 4387POPC   C1B56371  33.374  32.076   6.305
 4387POPC   C2B56372  33.313  31.823   6.680
 4387POPC   C3B56373  33.370  31.913   7.118
 4387POPC   C4B56374  33.297  31.997   7.552
 4388POPC   NC356375  16.328  43.495   5.557
 4388POPC   PO456376  16.737  42.920   5.403
 4388POPC   GL156377  16.950  43.003   5.805
 4388POPC   GL256378  16.771  43.280   5.881
 4388POPC   C1A56379  17.021  42.975   6.253
 4388POPC   D2A56380  16.832  42.902   6.669
 4388POPC   C3A56381  17.057  43.041   7.052
 4388POPC   C4A56382  17.045  42.849   7.513
 4388POPC   C1B56383  16.429  43.173   6.166
 4388POPC   C2B56384  16.399  43.234   6.637
 4388POPC   C3B56385  16.652  43.378   6.987
 4388POPC   C4B56386  16.650  43.124   7.339
 4389POPC   NC356387  33.192  23.250   5.612
 4389POPC   PO456388  33.633  23.763   5.440
 4389POPC   GL156389  33.572  23.810   5.860
 4389POPC   GL256390  33.861  23.619   5.934
 4389POPC   C1A56391  33.493  23.836   6.297
 4389POPC   D2A56392  33.802  23.851   6.614
 4389POPC   C3A56393  33.613  23.783   6.971
 4389POPC   C4A56394  33.573  24.171   7.175
 4389POPC   C1B56395  34.201  23.656   6.215
 4389POPC   C2B56396  34.200  23.537   6.632
 4389POPC   C3B56397  34.126  23.681   7.055
 4389POPC   C4B56398  34.255  23.573   7.476
 4390POPC   NC356399  26.781  22.859   5.484
 4390POPC   PO456400  27.312  23.035   5.401
 4390POPC   GL156401  27.050  23.146   5.787
 4390POPC   GL256402  27.104  22.802   5.894
 4390POPC   C1A56403  26.705  23.011   6.154
 4390POPC   D2A56404  26.552  23.011   6.603
 4390POPC   C3A56405  26.754  22.782   6.953
 4390POPC   C4A56406  26.844  22.880   7.401
 4390POPC   C1B56407  27.187  23.080   6.259
 4390POPC   C2B56408  27.041  23.217   6.632
 4390POPC   C3B56409  27.171  23.085   7.040
 4390POPC   C4B56410  27.342  22.987   7.462
 4391POPC   NC356411   0.756  19.948   5.573
 4391POPC   PO456412   1.420  19.851   5.261
 4391POPC   GL156413   1.463  19.651   5.711
 4391POPC   GL256414   1.202  19.873   5.834
 4391POPC   C1A56415   1.550  19.750   6.182
 4391POPC   D2A56416   1.528  20.072   6.515
 4391POPC   C3A56417   1.619  19.880   6.915
 4391POPC   C4A56418   1.495  19.843   7.341
 4391POPC   C1B56419   1.019  20.040   6.233
 4391POPC   C2B56420   0.864  20.059   6.660
 4391POPC   C3B56421   1.095  19.999   7.059
 4391POPC   C4B56422   1.002  19.821   7.475
 4392POPC   NC356423  36.733   6.576   5.306
 4392POPC   PO456424  37.274   7.019   5.204
 4392POPC   GL156425  37.182   6.948   5.762
 4392POPC   GL256426  36.854   6.717   5.842
 4392POPC   C1A56427  37.164   6.774   6.242
 4392POPC   D2A56428  36.978   6.873   6.677
 4392POPC   C3A56429  37.097   6.749   7.113
 4392POPC   C4A56430  36.867   6.487   7.448
 4392POPC   C1B56431  36.570   6.811   6.237
 4392POPC   C2B56432  36.489   7.026   6.661
 4392POPC   C3B56433  36.561   6.783   7.086
 4392POPC   C4B56434  36.742   6.965   7.473
 4393POPC   NC356435  29.114  10.085   5.489
 4393POPC   PO456436  29.038   9.387   5.556
 4393POPC   GL156437  29.202   9.724   5.860
 4393POPC   GL256438  29.409  10.053   5.909
 4393POPC   C1A56439  29.283   9.721   6.288
 4393POPC   D2A56440  28.981   9.744   6.599
 4393POPC   C3A56441  29.155   9.664   6.955
 4393POPC   C4A56442  28.949   9.505   7.275
 4393POPC   C1B56443  29.400  10.309   6.253
 4393POPC   C2B56444  29.239  10.221   6.676
 4393POPC   C3B56445  29.310  10.113   7.139
 4393POPC   C4B56446  29.419   9.775   7.405
 4394POPC   NC356447  39.107  33.844   5.030
 4394POPC   PO456448  39.002  33.410   5.560
 4394POPC   GL156449  39.139  33.793   5.854
 4394POPC   GL256450  39.492  33.987   5.858
 4394POPC   C1A56451  39.041  33.733   6.319
 4394POPC   D2A56452  39.277  33.502   6.652
 4394POPC   C3A56453  39.155  33.579   7.067
 4394POPC   C4A56454  39.335  33.692   7.464
 4394POPC   C1B56455  39.274  34.170   6.265
 4394POPC   C2B56456  39.296  34.001   6.713
 4394POPC   C3B56457  39.395  34.080   7.143
 4394POPC   C4B56458  39.666  34.267   7.464
 4395POPC   NC356459  11.098   5.507   5.409
 4395POPC   PO456460  11.370   6.118   5.627
 4395POPC   GL156461  10.980   6.035   5.794
 4395POPC   GL256462  11.072   5.690   5.902
 4395POPC   C1A56463  10.984   6.148   6.222
 4395POPC   D2A56464  11.335   6.202   6.526
 4395POPC   C3A56465  11.180   6.119   6.926
 4395POPC   C4A56466  11.224   5.833   7.264
 4395POPC   C1B56467  11.288   5.715   6.315
 4395POPC   C2B56468  11.353   5.651   6.759
 4395POPC   C3B56469  11.499   5.425   7.112
 4395POPC   C4B56470  11.559   5.547   7.543
 4396POPC   NC356471  32.155  34.831   5.592
 4396POPC   PO456472  32.610  34.376   5.352
 4396POPC   GL156473  32.391  34.411   5.765
 4396POPC   GL256474  32.628  34.576   5.996
 4396POPC   C1A56475  32.074  34.467   6.135
 4396POPC   D2A56476  32.164  34.336   6.554
 4396POPC   C3A56477  32.012  34.388   6.968
 4396POPC   C4A56478  32.418  34.279   7.182
 4396POPC   C1B56479  32.394  34.851   6.268
 4396POPC   C2B56480  32.093  34.842   6.566
 4396POPC   C3B56481  32.258  34.812   6.916
 4396POPC   C4B56482  32.295  34.751   7.349
 4397POPC   NC356483   2.953   0.218   5.289
 4397POPC   PO456484   2.459   0.715   5.507
 4397POPC   GL156485   2.761   0.432   5.778
 4397POPC   GL256486   3.122   0.474   5.723
 4397POPC   C1A56487   2.796   0.241   6.221
 4397POPC   D2A56488   2.505   0.088   6.586
 4397POPC   C3A56489   2.543   0.214   7.009
 4397POPC   C4A56490   2.756   0.589   7.137
 4397POPC   C1B56491   3.006   0.714   6.129
 4397POPC   C2B56492   2.926   0.704   6.558
 4397POPC   C3B56493   3.172   0.751   6.915
 4397POPC   C4B56494   3.258   0.370   7.134
 4398POPC   NC356495  32.398  32.387   5.463
 4398POPC   PO456496  31.827  32.184   5.198
 4398POPC   GL156497  32.045  32.131   5.723
 4398POPC   GL256498  32.329  31.907   5.864
 4398POPC   C1A56499  32.334  32.351   6.125
 4398POPC   D2A56500  32.236  32.516   6.572
 4398POPC   C3A56501  32.443  32.433   6.996
 4398POPC   C4A56502  32.263  32.344   7.432
 4398POPC   C1B56503  32.229  31.897   6.347
 4398POPC   C2B56504  32.339  31.976   6.826
 4398POPC   C3B56505  32.570  31.992   7.266
 4398POPC   C4B56506  32.449  31.995   7.751
 4399POPC   NC356507  15.582  31.151   5.518
 4399POPC   PO456508  15.702  30.557   5.509
 4399POPC   GL156509  15.354  30.713   5.791
 4399POPC   GL256510  15.387  31.015   5.960
 4399POPC   C1A56511  15.034  30.731   6.171
 4399POPC   D2A56512  14.846  30.891   6.550
 4399POPC   C3A56513  14.948  30.750   6.952
 4399POPC   C4A56514  15.012  30.979   7.306
 4399POPC   C1B56515  15.352  31.185   6.360
 4399POPC   C2B56516  15.473  31.157   6.810
 4399POPC   C3B56517  15.447  30.814   7.113
 4399POPC   C4B56518  15.464  30.790   7.558
 4400POPC   NC356519  40.435   7.742   5.323
 4400POPC   PO456520  40.864   7.234   5.254
 4400POPC   GL156521  40.800   7.400   5.695
 4400POPC   GL256522  40.531   7.596   5.803
 4400POPC   C1A56523  40.641   7.208   6.112
 4400POPC   D2A56524  40.846   7.230   6.506
 4400POPC   C3A56525  40.670   7.377   6.899
 4400POPC   C4A56526  40.671   7.430   7.329
 4400POPC   C1B56527  40.804   7.666   6.191
 4400POPC   C2B56528  41.002   7.712   6.647
 4400POPC   C3B56529  41.033   7.725   7.132
 4400POPC   C4B56530  40.936   7.752   7.629
 4401POPC   NC356531  32.567  23.813   5.543
 4401POPC   PO456532  31.935  23.550   5.436
 4401POPC   GL156533  32.203  23.577   5.798
 4401POPC   GL256534  32.226  23.935   5.889
 4401POPC   C1A56535  32.274  23.569   6.239
 4401POPC   D2A56536  32.236  23.764   6.629
 4401POPC   C3A56537  32.091  23.482   6.926
 4401POPC   C4A56538  32.225  23.279   7.296
 4401POPC   C1B56539  32.412  24.090   6.255
 4401POPC   C2B56540  32.347  24.282   6.640
 4401POPC   C3B56541  32.459  24.051   6.980
 4401POPC   C4B56542  32.335  23.774   7.291
 4402POPC   NC356543   7.391  26.225   5.559
 4402POPC   PO456544   7.932  25.836   5.432
 4402POPC   GL156545   7.672  25.804   5.811
 4402POPC   GL256546   7.290  25.834   5.879
 4402POPC   C1A56547   7.758  26.019   6.202
 4402POPC   D2A56548   7.663  26.309   6.526
 4402POPC   C3A56549   7.559  26.055   6.872
 4402POPC   C4A56550   7.599  25.973   7.304
 4402POPC   C1B56551   7.181  26.015   6.306
 4402POPC   C2B56552   7.026  26.168   6.729
 4402POPC   C3B56553   7.135  26.126   7.177
 4402POPC   C4B56554   7.132  25.792   7.535
 4403POPC   NC356555   5.325  32.413   5.367
 4403POPC   PO456556   4.933  31.934   5.238
 4403POPC   GL156557   5.008  32.142   5.670
 4403POPC   GL256558   5.373  32.119   5.784
 4403POPC   C1A56559   4.893  32.153   6.116
 4403POPC   D2A56560   4.790  32.019   6.540
 4403POPC   C3A56561   4.891  32.309   6.863
 4403POPC   C4A56562   4.990  32.399   7.277
 4403POPC   C1B56563   5.369  32.391   6.170
 4403POPC   C2B56564   5.343  32.289   6.615
 4403POPC   C3B56565   5.421  32.458   7.049
 4403POPC   C4B56566   5.447  32.381   7.540
 4404POPC   NC356567  38.452  32.110   5.392
 4404POPC   PO456568  38.293  32.706   5.597
 4404POPC   GL156569  38.449  32.361   5.861
 4404POPC   GL256570  38.189  32.088   5.823
 4404POPC   C1A56571  38.697  32.333   6.253
 4404POPC   D2A56572  38.770  32.144   6.646
 4404POPC   C3A56573  38.853  32.340   7.009
 4404POPC   C4A56574  38.750  32.207   7.381
 4404POPC   C1B56575  38.231  32.079   6.245
 4404POPC   C2B56576  38.255  32.356   6.576
 4404POPC   C3B56577  38.359  32.313   6.980
 4404POPC   C4B56578  38.239  32.093   7.321
 4405POPC   NC356579   6.260  42.499   5.461
 4405POPC   PO456580   6.260  41.845   5.486
 4405POPC   GL156581   6.519  42.171   5.757
 4405POPC   GL256582   6.869  42.274   5.828
 4405POPC   C1A56583   6.543  42.239   6.224
 4405POPC   D2A56584   6.283  42.413   6.564
 4405POPC   C3A56585   6.484  42.379   6.969
 4405POPC   C4A56586   6.455  42.058   7.286
 4405POPC   C1B56587   6.965  42.529   6.227
 4405POPC   C2B56588   6.833  42.695   6.660
 4405POPC   C3B56589   6.900  42.655   7.134
 4405POPC   C4B56590   6.686  42.542   7.526
 4406POPC   NC356591  21.543  16.476   5.446
 4406POPC   PO456592  21.561  17.078   5.632
 4406POPC   GL156593  21.395  16.925   6.007
 4406POPC   GL256594  21.286  16.602   5.872
 4406POPC   C1A56595  21.079  16.731   6.298
 4406POPC   D2A56596  21.134  16.475   6.655
 4406POPC   C3A56597  21.383  16.709   6.939
 4406POPC   C4A56598  21.637  16.839   7.273
 4406POPC   C1B56599  21.519  16.449   6.286
 4406POPC   C2B56600  21.688  16.315   6.747
 4406POPC   C3B56601  21.589  16.331   7.224
 4406POPC   C4B56602  21.446  16.515   7.624
 4407POPC   NC356603  39.118  41.322   5.407
 4407POPC   PO456604  39.123  41.972   5.337
 4407POPC   GL156605  39.348  41.704   5.716
 4407POPC   GL256606  39.391  41.346   5.834
 4407POPC   C1A56607  39.498  41.717   6.161
 4407POPC   D2A56608  39.296  41.509   6.526
 4407POPC   C3A56609  39.369  41.636   6.959
 4407POPC   C4A56610  39.434  41.591   7.421
 4407POPC   C1B56611  39.002  41.348   6.111
 4407POPC   C2B56612  38.821  41.301   6.547
 4407POPC   C3B56613  38.959  41.320   6.978
 4407POPC   C4B56614  39.332  41.156   7.168
 4408POPC   NC356615  15.761  44.305   5.461
 4408POPC   PO456616  15.821  43.609   5.511
 4408POPC   GL156617  16.015  43.784   5.887
 4408POPC   GL256618  16.147  44.145   5.837
 4408POPC   C1A56619  16.108  43.563   6.292
 4408POPC   D2A56620  15.899  43.361   6.622
 4408POPC   C3A56621  15.646  43.654   6.803
 4408POPC   C4A56622  15.870  43.696   7.158
 4408POPC   C1B56623  16.277  44.079   6.281
 4408POPC   C2B56624  15.990  43.952   6.610
 4408POPC   C3B56625  15.782  44.140   6.954
 4408POPC   C4B56626  15.977  44.171   7.344
 4409POPC   NC356627  10.840  43.888   5.512
 4409POPC   PO456628  10.178  43.855   5.545
 4409POPC   GL156629  10.364  43.727   5.909
 4409POPC   GL256630  10.655  43.527   5.823
 4409POPC   C1A56631  10.401  43.992   6.297
 4409POPC   D2A56632  10.214  44.048   6.711
 4409POPC   C3A56633  10.494  44.015   7.066
 4409POPC   C4A56634  10.488  44.009   7.516
 4409POPC   C1B56635  10.814  43.686   6.202
 4409POPC   C2B56636  11.005  43.610   6.595
 4409POPC   C3B56637  10.889  43.603   7.000
 4409POPC   C4B56638  10.643  43.564   7.325
 4410POPC   NC356639  40.382  40.372   5.579
 4410POPC   PO456640  39.757  40.035   5.565
 4410POPC   GL156641  40.070  40.012   5.874
 4410POPC   GL256642  39.796  39.841   6.051
 4410POPC   C1A56643  40.153  40.046   6.335
 4410POPC   D2A56644  39.892  39.752   6.583
 4410POPC   C3A56645  40.030  39.783   6.997
 4410POPC   C4A56646  40.382  39.840   7.272
 4410POPC   C1B56647  39.667  40.190   6.350
 4410POPC   C2B56648  39.839  40.240   6.796
 4410POPC   C3B56649  39.955  40.249   7.247
 4410POPC   C4B56650  39.806  40.331   7.727
 4411POPC   NC356651  38.990   1.945   5.389
 4411POPC   PO456652  39.600   1.781   5.747
 4411POPC   GL156653  39.177   1.876   5.887
 4411POPC   GL256654  39.259   2.213   5.837
 4411POPC   C1A56655  39.027   1.892   6.330
 4411POPC   D2A56656  39.143   1.672   6.730
 4411POPC   C3A56657  39.432   1.801   7.088
 4411POPC   C4A56658  39.457   2.177   7.357
 4411POPC   C1B56659  39.010   2.397   6.176
 4411POPC   C2B56660  38.841   2.301   6.600
 4411POPC   C3B56661  38.974   2.199   7.035
 4411POPC   C4B56662  38.988   2.144   7.501
 4412POPC   NC356663  32.832  39.727   5.434
 4412POPC   PO456664  32.952  39.022   5.433
 4412POPC   GL156665  33.049  39.182   5.831
 4412POPC   GL256666  32.819  39.443   5.853
 4412POPC   C1A56667  32.915  39.073   6.240
 4412POPC   D2A56668  33.070  39.199   6.620
 4412POPC   C3A56669  33.004  38.968   6.998
 4412POPC   C4A56670  33.144  39.227   7.305
 4412POPC   C1B56671  32.895  39.591   6.262
 4412POPC   C2B56672  32.714  39.572   6.680
 4412POPC   C3B56673  32.693  39.360   7.082
 4412POPC   C4B56674  32.690  39.220   7.551
 4413POPC   NC356675   7.743  23.605   5.263
 4413POPC   PO456676   7.144  23.995   5.513
 4413POPC   GL156677   7.346  23.864   5.845
 4413POPC   GL256678   7.392  23.540   5.704
 4413POPC   C1A56679   7.380  23.952   6.263
 4413POPC   D2A56680   7.162  23.872   6.628
 4413POPC   C3A56681   7.312  23.630   6.953
 4413POPC   C4A56682   7.383  23.975   7.254
 4413POPC   C1B56683   7.615  23.510   6.106
 4413POPC   C2B56684   7.737  23.329   6.496
 4413POPC   C3B56685   7.815  23.411   6.932
 4413POPC   C4B56686   7.672  23.562   7.319
 4414POPC   NC356687  43.479   4.333   5.643
 4414POPC   PO456688  42.829   4.519   5.420
 4414POPC   GL156689  42.959   4.264   5.702
 4414POPC   GL256690  42.671   4.370   5.900
 4414POPC   C1A56691  43.011   4.033   6.089
 4414POPC   D2A56692  42.920   4.209   6.492
 4414POPC   C3A56693  43.064   4.037   6.859
 4414POPC   C4A56694  43.013   4.154   7.286
 4414POPC   C1B56695  43.041   4.547   6.126
 4414POPC   C2B56696  43.216   4.624   6.525
 4414POPC   C3B56697  43.110   4.552   6.929
 4414POPC   C4B56698  43.211   4.693   7.314
 4415POPC   NC356699  38.968  15.392   5.556
 4415POPC   PO456700  38.268  15.369   5.492
 4415POPC   GL156701  38.537  15.287   5.846
 4415POPC   GL256702  38.679  14.979   5.804
 4415POPC   C1A56703  38.544  15.169   6.285
 4415POPC   D2A56704  38.233  15.107   6.610
 4415POPC   C3A56705  38.405  15.225   6.985
 4415POPC   C4A56706  38.719  15.521   7.057
 4415POPC   C1B56707  38.832  14.745   6.192
 4415POPC   C2B56708  38.657  14.737   6.651
 4415POPC   C3B56709  38.731  14.862   7.119
 4415POPC   C4B56710  38.569  14.787   7.571
 4416POPC   NC356711  39.048  37.325   5.390
 4416POPC   PO456712  39.406  36.824   5.315
 4416POPC   GL156713  39.287  36.847   5.753
 4416POPC   GL256714  38.958  37.014   5.846
 4416POPC   C1A56715  39.447  36.783   6.172
 4416POPC   D2A56716  39.496  37.023   6.541
 4416POPC   C3A56717  39.405  36.840   6.975
 4416POPC   C4A56718  39.321  36.990   7.395
 4416POPC   C1B56719  38.957  36.685   6.186
 4416POPC   C2B56720  39.051  36.785   6.604
 4416POPC   C3B56721  38.891  37.015   6.947
 4416POPC   C4B56722  38.764  36.674   7.139
 4417POPC   NC356723  32.709  30.196   5.328
 4417POPC   PO456724  32.925  29.577   5.457
 4417POPC   GL156725  32.805  29.926   5.803
 4417POPC   GL256726  32.798  30.321   5.828
 4417POPC   C1A56727  32.813  29.952   6.277
 4417POPC   D2A56728  32.987  29.690   6.633
 4417POPC   C3A56729  32.980  29.715   7.116
 4417POPC   C4A56730  33.100  29.700   7.548
 4417POPC   C1B56731  33.212  30.210   6.036
 4417POPC   C2B56732  33.347  30.116   6.470
 4417POPC   C3B56733  33.200  30.096   6.891
 4417POPC   C4B56734  33.250  30.120   7.331
 4418POPC   NC356735   2.961   5.936   5.099
 4418POPC   PO456736   2.520   6.140   5.547
 4418POPC   GL156737   2.740   5.837   5.778
 4418POPC   GL256738   3.029   5.926   5.927
 4418POPC   C1A56739   2.680   5.630   6.195
 4418POPC   D2A56740   2.438   5.716   6.587
 4418POPC   C3A56741   2.596   5.707   7.018
 4418POPC   C4A56742   2.831   5.693   7.382
 4418POPC   C1B56743   3.187   5.724   6.259
 4418POPC   C2B56744   2.979   5.608   6.642
 4418POPC   C3B56745   3.091   5.884   6.987
 4418POPC   C4B56746   3.323   5.859   7.384
 4419POPC   NC356747  42.805   1.789   5.108
 4419POPC   PO456748  43.285   2.144   5.385
 4419POPC   GL156749  43.104   2.148   5.785
 4419POPC   GL256750  43.433   2.238   5.897
 4419POPC   C1A56751  43.011   1.971   6.205
 4419POPC   D2A56752  43.189   2.011   6.645
 4419POPC   C3A56753  42.941   1.978   7.016
 4419POPC   C4A56754  42.655   2.114   7.327
 4419POPC   C1B56755  43.526   2.028   6.255
 4419POPC   C2B56756  43.695   2.088   6.659
 4419POPC   C3B56757  43.621   2.044   7.091
 4419POPC   C4B56758  43.540   1.655   7.321
 4420POPC   NC356759  42.882  26.378   5.507
 4420POPC   PO456760  42.980  25.674   5.371
 4420POPC   GL156761  42.926  25.886   5.810
 4420POPC   GL256762  43.184  26.124   5.857
 4420POPC   C1A56763  43.035  25.851   6.292
 4420POPC   D2A56764  43.392  26.075   6.550
 4420POPC   C3A56765  43.279  26.137   6.977
 4420POPC   C4A56766  42.958  25.829   7.108
 4420POPC   C1B56767  42.868  26.309   6.147
 4420POPC   C2B56768  42.968  26.393   6.572
 4420POPC   C3B56769  42.837  26.380   6.986
 4420POPC   C4B56770  42.713  26.505   7.374
 4421POPC   NC356771  33.619  40.785   5.305
 4421POPC   PO456772  33.473  41.417   5.408
 4421POPC   GL156773  33.629  41.096   5.725
 4421POPC   GL256774  33.488  40.749   5.813
 4421POPC   C1A56775  33.719  41.036   6.175
 4421POPC   D2A56776  33.576  40.794   6.562
 4421POPC   C3A56777  33.893  40.756   6.924
 4421POPC   C4A56778  34.026  41.075   7.240
 4421POPC   C1B56779  33.471  40.437   6.177
 4421POPC   C2B56780  33.407  40.309   6.653
 4421POPC   C3B56781  33.489  40.489   7.105
 4421POPC   C4B56782  33.827  40.539   7.481
 4422POPC   NC356783   4.439  39.804   5.411
 4422POPC   PO456784   4.127  40.356   5.275
 4422POPC   GL156785   4.188  40.193   5.739
 4422POPC   GL256786   4.545  40.142   5.790
 4422POPC   C1A56787   4.279  40.121   6.217
 4422POPC   D2A56788   4.084  39.833   6.501
 4422POPC   C3A56789   4.270  39.924   6.877
 4422POPC   C4A56790   4.182  40.060   7.273
 4422POPC   C1B56791   4.501  39.722   6.046
 4422POPC   C2B56792   4.576  39.669   6.468
 4422POPC   C3B56793   4.544  39.474   6.854
 4422POPC   C4B56794   4.587  39.671   7.236
 4423POPC   NC356795  19.605   5.347   5.213
 4423POPC   PO456796  19.838   4.758   5.408
 4423POPC   GL156797  20.013   5.011   5.784
 4423POPC   GL256798  20.083   5.376   5.728
 4423POPC   C1A56799  19.846   5.071   6.206
 4423POPC   D2A56800  19.647   5.326   6.530
 4423POPC   C3A56801  19.712   5.199   6.952
 4423POPC   C4A56802  19.539   5.199   7.366
 4423POPC   C1B56803  20.243   5.395   6.172
 4423POPC   C2B56804  20.174   5.236   6.583
 4423POPC   C3B56805  20.232   5.188   7.013
 4423POPC   C4B56806  20.105   4.965   7.415
 4424POPC   NC356807  40.948   3.232   5.311
 4424POPC   PO456808  41.037   3.807   5.185
 4424POPC   GL156809  40.938   3.581   5.674
 4424POPC   GL256810  40.867   3.859   5.860
 4424POPC   C1A56811  40.716   3.441   6.100
 4424POPC   D2A56812  40.740   3.631   6.537
 4424POPC   C3A56813  40.669   3.400   6.931
 4424POPC   C4A56814  40.787   3.512   7.333
 4424POPC   C1B56815  41.088   3.887   6.235
 4424POPC   C2B56816  41.312   3.760   6.575
 4424POPC   C3B56817  41.103   3.755   6.965
 4424POPC   C4B56818  41.223   3.805   7.380
 4425POPC   NC356819  27.835  27.133   5.434
 4425POPC   PO456820  27.451  26.506   5.381
 4425POPC   GL156821  27.598  26.713   5.753
 4425POPC   GL256822  27.520  26.403   5.950
 4425POPC   C1A56823  27.738  26.802   6.181
 4425POPC   D2A56824  27.576  26.753   6.605
 4425POPC   C3A56825  27.806  26.885   7.006
 4425POPC   C4A56826  27.533  27.039   7.316
 4425POPC   C1B56827  27.245  26.420   6.314
 4425POPC   C2B56828  27.175  26.456   6.759
 4425POPC   C3B56829  27.473  26.517   7.087
 4425POPC   C4B56830  27.524  26.611   7.575
 4426POPC   NC356831   7.067  21.115   5.344
 4426POPC   PO456832   7.628  21.599   5.372
 4426POPC   GL156833   7.589  21.443   5.787
 4426POPC   GL256834   7.532  21.105   5.684
 4426POPC   C1A56835   7.464  21.526   6.242
 4426POPC   D2A56836   7.147  21.648   6.564
 4426POPC   C3A56837   7.262  21.473   6.965
 4426POPC   C4A56838   7.437  21.661   7.312
 4426POPC   C1B56839   7.659  21.030   6.104
 4426POPC   C2B56840   7.714  21.106   6.541
 4426POPC   C3B56841   7.506  20.952   6.919
 4426POPC   C4B56842   7.466  21.134   7.313
 4427POPC   NC356843   8.522   9.519   5.176
 4427POPC   PO456844   8.893  10.066   5.372
 4427POPC   GL156845   8.778   9.942   5.761
 4427POPC   GL256846   8.846   9.583   5.799
 4427POPC   C1A56847   8.943   9.973   6.158
 4427POPC   D2A56848   9.193   9.840   6.507
 4427POPC   C3A56849   8.936   9.852   6.887
 4427POPC   C4A56850   8.988   9.988   7.309
 4427POPC   C1B56851   8.945   9.450   6.243
 4427POPC   C2B56852   9.107   9.369   6.688
 4427POPC   C3B56853   9.369   9.596   6.989
 4427POPC   C4B56854   9.268   9.606   7.451
 4428POPC   NC356855  31.211  15.493   5.708
 4428POPC   PO456856  31.764  15.161   5.389
 4428POPC   GL156857  31.664  15.242   5.788
 4428POPC   GL256858  31.393  15.015   5.746
 4428POPC   C1A56859  31.703  15.427   6.185
 4428POPC   D2A56860  31.515  15.358   6.587
 4428POPC   C3A56861  31.780  15.244   6.920
 4428POPC   C4A56862  31.654  15.324   7.314
 4428POPC   C1B56863  31.404  14.984   6.194
 4428POPC   C2B56864  31.413  14.840   6.611
 4428POPC   C3B56865  31.354  14.970   7.019
 4428POPC   C4B56866  30.971  15.037   7.215
 4429POPC   NC356867  14.755  20.047   5.513
 4429POPC   PO456868  14.556  19.609   5.131
 4429POPC   GL156869  14.430  19.697   5.694
 4429POPC   GL256870  14.305  19.974   5.815
 4429POPC   C1A56871  14.630  19.738   6.139
 4429POPC   D2A56872  14.790  19.551   6.533
 4429POPC   C3A56873  14.868  19.831   6.885
 4429POPC   C4A56874  14.709  19.659   7.266
 4429POPC   C1B56875  14.210  20.144   6.212
 4429POPC   C2B56876  14.376  19.852   6.551
 4429POPC   C3B56877  14.339  19.882   6.979
 4429POPC   C4B56878  14.204  20.152   7.302
 4430POPC   NC356879   7.347   8.721   5.372
 4430POPC   PO456880   7.678   9.281   5.467
 4430POPC   GL156881   7.431   9.096   5.797
 4430POPC   GL256882   7.404   8.762   5.861
 4430POPC   C1A56883   7.536   9.130   6.235
 4430POPC   D2A56884   7.490   8.860   6.568
 4430POPC   C3A56885   7.276   9.039   6.913
 4430POPC   C4A56886   7.442   8.879   7.266
 4430POPC   C1B56887   7.285   8.537   6.194
 4430POPC   C2B56888   7.090   8.542   6.589
 4430POPC   C3B56889   7.149   8.533   7.016
 4430POPC   C4B56890   6.914   8.842   7.288
 4431POPC   NC356891   7.673  36.993   5.162
 4431POPC   PO456892   7.228  36.500   5.258
 4431POPC   GL156893   7.504  36.675   5.635
 4431POPC   GL256894   7.465  37.060   5.731
 4431POPC   C1A56895   7.553  36.708   6.109
 4431POPC   D2A56896   7.536  36.912   6.503
 4431POPC   C3A56897   7.566  36.770   6.914
 4431POPC   C4A56898   7.412  37.012   7.194
 4431POPC   C1B56899   7.625  37.255   6.145
 4431POPC   C2B56900   7.811  37.356   6.569
 4431POPC   C3B56901   7.809  37.323   7.014
 4431POPC   C4B56902   7.929  36.988   7.270
 4432POPC   NC356903   0.786  20.848   5.494
 4432POPC   PO456904   0.345  20.461   5.205
 4432POPC   GL156905   0.403  20.552   5.652
 4432POPC   GL256906   0.504  20.289   5.887
 4432POPC   C1A56907   0.455  20.806   6.058
 4432POPC   D2A56908   0.362  20.932   6.498
 4432POPC   C3A56909   0.578  20.859   6.877
 4432POPC   C4A56910   0.557  20.641   7.253
 4432POPC   C1B56911   0.531  20.385   6.348
 4432POPC   C2B56912   0.453  20.348   6.806
 4432POPC   C3B56913   0.614  20.136   7.193
 4432POPC   C4B56914   0.792  20.281   7.584
 4433POPC   NC356915  15.799  32.024   5.600
 4433POPC   PO456916  15.718  32.731   5.613
 4433POPC   GL156917  15.760  32.416   5.978
 4433POPC   GL256918  16.073  32.228   5.981
 4433POPC   C1A56919  15.784  32.125   6.377
 4433POPC   D2A56920  16.008  31.920   6.747
 4433POPC   C3A56921  16.010  32.144   7.131
 4433POPC   C4A56922  15.869  32.584   7.202
 4433POPC   C1B56923  16.308  32.084   6.341
 4433POPC   C2B56924  16.305  32.352   6.715
 4433POPC   C3B56925  16.410  32.481   7.142
 4433POPC   C4B56926  16.216  32.388   7.555
 4434POPC   NC356927  41.724  15.873   5.415
 4434POPC   PO456928  41.311  16.508   5.440
 4434POPC   GL156929  41.421  16.184   5.745
 4434POPC   GL256930  41.763  16.155   5.823
 4434POPC   C1A56931  41.407  15.889   6.106
 4434POPC   D2A56932  41.313  15.707   6.513
 4434POPC   C3A56933  41.332  15.933   6.907
 4434POPC   C4A56934  41.587  15.758   7.200
 4434POPC   C1B56935  41.888  16.056   6.223
 4434POPC   C2B56936  41.791  15.893   6.657
 4434POPC   C3B56937  41.905  16.107   7.043
 4434POPC   C4B56938  41.788  16.211   7.495
 4435POPC   NC356939  22.392  11.852   5.533
 4435POPC   PO456940  21.762  12.178   5.571
 4435POPC   GL156941  22.050  12.099   5.857
 4435POPC   GL256942  22.017  11.767   5.862
 4435POPC   C1A56943  22.026  12.286   6.240
 4435POPC   D2A56944  22.110  12.127   6.618
 4435POPC   C3A56945  21.982  12.402   6.912
 4435POPC   C4A56946  22.066  12.316   7.321
 4435POPC   C1B56947  22.283  11.693   6.211
 4435POPC   C2B56948  22.460  11.755   6.647
 4435POPC   C3B56949  22.210  11.723   7.013
 4435POPC   C4B56950  22.306  11.887   7.422
 4436POPC   NC356951   5.319  33.949   5.425
 4436POPC   PO456952   4.764  33.571   5.547
 4436POPC   GL156953   4.983  33.873   5.821
 4436POPC   GL256954   5.323  33.819   5.915
 4436POPC   C1A56955   4.994  33.979   6.256
 4436POPC   D2A56956   4.759  33.752   6.573
 4436POPC   C3A56957   4.911  33.726   6.987
 4436POPC   C4A56958   4.706  33.711   7.374
 4436POPC   C1B56959   5.527  33.907   6.318
 4436POPC   C2B56960   5.782  33.934   6.720
 4436POPC   C3B56961   5.526  34.032   7.093
 4436POPC   C4B56962   5.345  33.660   7.283
 4437POPC   NC356963  16.646  27.050   5.399
 4437POPC   PO456964  17.244  26.802   5.440
 4437POPC   GL156965  16.905  26.712   5.728
 4437POPC   GL256966  16.930  27.052   5.854
 4437POPC   C1A56967  16.678  26.527   6.120
 4437POPC   D2A56968  16.658  26.726   6.538
 4437POPC   C3A56969  16.538  26.591   6.947
 4437POPC   C4A56970  16.513  26.840   7.339
 4437POPC   C1B56971  17.089  26.806   6.211
 4437POPC   C2B56972  17.157  26.821   6.662
 4437POPC   C3B56973  16.872  26.985   7.013
 4437POPC   C4B56974  16.791  27.297   7.375
 4438POPC   NC356975  14.371  17.372   5.267
 4438POPC   PO456976  14.726  17.909   5.565
 4438POPC   GL156977  14.390  17.601   5.753
 4438POPC   GL256978  14.391  17.232   5.758
 4438POPC   C1A56979  14.241  17.447   6.181
 4438POPC   D2A56980  14.269  17.614   6.580
 4438POPC   C3A56981  14.158  17.459   6.951
 4438POPC   C4A56982  14.037  17.566   7.340
 4438POPC   C1B56983  14.545  17.040   6.152
 4438POPC   C2B56984  14.603  17.235   6.547
 4438POPC   C3B56985  14.544  17.112   6.933
 4438POPC   C4B56986  14.485  17.308   7.334
 4439POPC   NC356987   3.399   0.562   5.166
 4439POPC   PO456988   3.515   0.832   5.688
 4439POPC   GL156989   3.615   0.468   5.904
 4439POPC   GL256990   3.611   0.139   5.746
 4439POPC   C1A56991   3.323   0.292   6.198
 4439POPC   D2A56992   3.356   0.319   6.635
 4439POPC   C3A56993   3.671   0.533   6.878
 4439POPC   C4A56994   3.601   0.768   7.215
 4439POPC   C1B56995   3.765   0.040   6.200
 4439POPC   C2B56996   3.853   0.109   6.681
 4439POPC   C3B56997   3.701   0.095   7.159
 4439POPC   C4B56998   3.780   0.106   7.626
 4440POPC   NC356999   7.335  28.628   5.436
 4440POPC   PO457000   7.134  27.957   5.621
 4440POPC   GL157001   7.105  28.319   5.839
 4440POPC   GL257002   7.389  28.198   6.000
 4440POPC   C1A57003   7.106  28.553   6.268
 4440POPC   D2A57004   7.325  28.624   6.700
 4440POPC   C3A57005   7.343  28.469   7.155
 4440POPC   C4A57006   7.286  28.799   7.544
 4440POPC   C1B57007   7.656  28.010   6.289
 4440POPC   C2B57008   7.695  28.232   6.677
 4440POPC   C3B57009   7.754  28.051   7.078
 4440POPC   C4B57010   7.595  28.132   7.436
 4441POPC   NC357011   3.101  34.478   5.194
 4441POPC   PO457012   3.304  34.624   5.812
 4441POPC   GL157013   2.911  34.359   5.875
 4441POPC   GL257014   2.529  34.341   5.831
 4441POPC   C1A57015   2.820  34.461   6.291
 4441POPC   D2A57016   3.000  34.676   6.655
 4441POPC   C3A57017   2.775  34.806   7.028
 4441POPC   C4A57018   2.946  34.617   7.371
 4441POPC   C1B57019   2.325  34.431   6.256
 4441POPC   C2B57020   2.509  34.490   6.697
 4441POPC   C3B57021   2.754  34.275   7.033
 4441POPC   C4B57022   2.632  34.236   7.499
 4442POPC   NC357023  43.054   3.320   5.399
 4442POPC   PO457024  43.269   4.033   5.333
 4442POPC   GL157025  43.095   3.759   5.647
 4442POPC   GL257026  42.734   3.790   5.727
 4442POPC   C1A57027  43.216   3.534   6.034
 4442POPC   D2A57028  43.260   3.751   6.437
 4442POPC   C3A57029  43.321   3.562   6.819
 4442POPC   C4A57030  43.414   3.799   7.184
 4442POPC   C1B57031  42.728   3.583   6.149
 4442POPC   C2B57032  42.929   3.344   6.493
 4442POPC   C3B57033  42.926   3.241   6.946
 4442POPC   C4B57034  42.923   3.643   7.136
 4443POPC   NC357035  29.399  19.774   5.479
 4443POPC   PO457036  28.881  20.183   5.391
 4443POPC   GL157037  29.068  20.069   5.786
 4443POPC   GL257038  29.421  20.132   5.849
 4443POPC   C1A57039  29.139  19.962   6.238
 4443POPC   D2A57040  29.212  19.731   6.622
 4443POPC   C3A57041  29.221  20.029   6.946
 4443POPC   C4A57042  29.034  20.011   7.317
 4443POPC   C1B57043  29.585  19.726   6.113
 4443POPC   C2B57044  29.693  19.586   6.544
 4443POPC   C3B57045  29.595  19.662   6.986
 4443POPC   C4B57046  29.259  19.566   7.243
 4444POPC   NC357047   0.595  18.370   5.176
 4444POPC   PO457048   0.349  17.809   5.455
 4444POPC   GL157049   0.589  18.068   5.786
 4444POPC   GL257050   0.560  18.466   5.738
 4444POPC   C1A57051   0.618  18.187   6.236
 4444POPC   D2A57052   0.396  18.289   6.627
 4444POPC   C3A57053   0.624  18.251   7.031
 4444POPC   C4A57054   0.485  18.107   7.435
 4444POPC   C1B57055   0.658  18.704   6.123
 4444POPC   C2B57056   0.733  18.694   6.590
 4444POPC   C3B57057   0.410  18.703   6.942
 4444POPC   C4B57058   0.115  18.362   7.145
 4445POPC   NC357059  32.012  12.262   5.553
 4445POPC   PO457060  31.552  11.795   5.455
 4445POPC   GL157061  31.644  12.009   5.815
 4445POPC   GL257062  31.620  12.349   5.841
 4445POPC   C1A57063  31.435  12.021   6.219
 4445POPC   D2A57064  31.233  12.169   6.602
 4445POPC   C3A57065  31.367  11.892   6.904
 4445POPC   C4A57066  31.473  11.992   7.273
 4445POPC   C1B57067  31.853  12.377   6.205
 4445POPC   C2B57068  31.726  12.269   6.573
 4445POPC   C3B57069  31.647  12.368   6.963
 4445POPC   C4B57070  31.912  12.223   7.290
 4446POPC   NC357071  24.256  37.804   5.618
 4446POPC   PO457072  24.776  37.348   5.536
 4446POPC   GL157073  24.677  37.620   5.834
 4446POPC   GL257074  24.403  37.378   5.922
 4446POPC   C1A57075  24.547  37.730   6.259
 4446POPC   D2A57076  24.500  37.395   6.571
 4446POPC   C3A57077  24.458  37.586   6.937
 4446POPC   C4A57078  24.524  37.969   7.102
 4446POPC   C1B57079  24.095  37.434   6.272
 4446POPC   C2B57080  23.991  37.482   6.712
 4446POPC   C3B57081  24.042  37.365   7.166
 4446POPC   C4B57082  24.321  37.623   7.437
 4447POPC   NC357083  11.440  11.146   5.536
 4447POPC   PO457084  10.789  11.393   5.352
 4447POPC   GL157085  11.100  11.540   5.740
 4447POPC   GL257086  11.484  11.543   5.872
 4447POPC   C1A57087  11.144  11.633   6.211
 4447POPC   D2A57088  11.480  11.608   6.514
 4447POPC   C3A57089  11.299  11.408   6.880
 4447POPC   C4A57090  11.038  11.041   6.992
 4447POPC   C1B57091  11.559  11.203   6.204
 4447POPC   C2B57092  11.411  11.000   6.597
 4447POPC   C3B57093  11.553  10.989   7.030
 4447POPC   C4B57094  11.849  11.144   7.308
 4448POPC   NC357095  10.242  40.353   5.515
 4448POPC   PO457096   9.732  40.761   5.225
 4448POPC   GL157097   9.642  40.750   5.702
 4448POPC   GL257098   9.897  40.547   5.834
 4448POPC   C1A57099   9.740  40.918   6.157
 4448POPC   D2A57100   9.946  40.900   6.567
 4448POPC   C3A57101   9.740  40.942   6.969
 4448POPC   C4A57102   9.642  40.787   7.384
 4448POPC   C1B57103  10.181  40.594   6.194
 4448POPC   C2B57104  10.218  40.448   6.624
 4448POPC   C3B57105  10.087  40.518   7.061
 4448POPC   C4B57106  10.126  40.722   7.452
 4449POPC   NC357107  11.746  36.916   5.452
 4449POPC   PO457108  11.127  36.758   5.224
 4449POPC   GL157109  11.135  36.897   5.663
 4449POPC   GL257110  11.204  36.598   5.767
 4449POPC   C1A57111  11.295  36.998   6.097
 4449POPC   D2A57112  11.481  37.217   6.458
 4449POPC   C3A57113  11.289  37.078   6.833
 4449POPC   C4A57114  11.469  36.925   7.207
 4449POPC   C1B57115  11.010  36.538   6.131
 4449POPC   C2B57116  11.025  36.748   6.501
 4449POPC   C3B57117  11.039  36.603   6.900
 4449POPC   C4B57118  10.983  36.739   7.301
 4450POPC   NC357119  14.917   0.462   5.545
 4450POPC   PO457120  15.608   0.777   5.446
 4450POPC   GL157121  15.391   0.591   5.820
 4450POPC   GL257122  15.536   0.328   6.035
 4450POPC   C1A57123  15.151   0.594   6.220
 4450POPC   D2A57124  15.391   0.542   6.616
 4450POPC   C3A57125  15.172   0.601   7.004
 4450POPC   C4A57126  15.228   0.528   7.467
 4450POPC   C1B57127  15.281   0.092   6.332
 4450POPC   C2B57128  15.416   0.039   6.761
 4450POPC   C3B57129  15.354   0.147   7.155
 4450POPC   C4B57130  14.909   0.212   7.235
 4451POPC   NC357131   6.382   7.397   5.413
 4451POPC   PO457132   6.868   7.854   5.565
 4451POPC   GL157133   6.814   7.600   5.910
 4451POPC   GL257134   6.672   7.240   5.826
 4451POPC   C1A57135   6.937   7.681   6.326
 4451POPC   D2A57136   6.638   7.773   6.646
 4451POPC   C3A57137   6.565   7.530   6.998
 4451POPC   C4A57138   6.421   7.794   7.321
 4451POPC   C1B57139   6.309   7.056   6.061
 4451POPC   C2B57140   6.322   7.009   6.513
 4451POPC   C3B57141   6.096   7.074   6.911
 4451POPC   C4B57142   6.271   7.157   7.292
 4452POPC   NC357143  24.013  44.186   5.409
 4452POPC   PO457144  23.308  44.355   5.501
 4452POPC   GL157145  23.536  44.131   5.819
 4452POPC   GL257146  23.824  43.874   5.791
 4452POPC   C1A57147  23.633  44.007   6.241
 4452POPC   D2A57148  23.855  43.969   6.589
 4452POPC   C3A57149  23.551  43.908   6.910
 4452POPC   C4A57150  23.305  44.059   7.259
 4452POPC   C1B57151  24.011  43.664   6.177
 4452POPC   C2B57152  24.053  43.495   6.607
 4452POPC   C3B57153  23.816  43.499   6.981
 4452POPC   C4B57154  23.852  43.456   7.429
 4453POPC   NC357155  39.283   0.133   5.537
 4453POPC   PO457156  38.820   0.551   5.599
 4453POPC   GL157157  39.109   0.489   5.936
 4453POPC   GL257158  39.460   0.530   5.819
 4453POPC   C1A57159  39.077   0.552   6.393
 4453POPC   D2A57160  39.196   0.309   6.759
 4453POPC   C3A57161  38.966   0.467   7.126
 4453POPC   C4A57162  38.872   0.401   7.547
 4453POPC   C1B57163  39.541   0.441   6.241
 4453POPC   C2B57164  39.576   0.709   6.606
 4453POPC   C3B57165  39.391   0.721   7.004
 4453POPC   C4B57166  39.438   0.306   7.248
 4454POPC   NC357167  23.931   8.731   5.419
 4454POPC   PO457168  23.408   8.666   5.820
 4454POPC   GL157169  23.651   8.976   5.944
 4454POPC   GL257170  23.825   9.185   5.717
 4454POPC   C1A57171  23.690   8.866   6.368
 4454POPC   D2A57172  23.867   8.808   6.695
 4454POPC   C3A57173  23.644   8.701   7.017
 4454POPC   C4A57174  23.835   8.846   7.356
 4454POPC   C1B57175  23.895   9.409   6.126
 4454POPC   C2B57176  23.886   9.303   6.564
 4454POPC   C3B57177  23.916   9.217   7.021
 4454POPC   C4B57178  23.807   9.325   7.493
 4455POPC   NC357179   0.012  39.794   5.529
 4455POPC   PO457180   0.460  39.248   5.479
 4455POPC   GL157181   0.143  39.077   5.779
 4455POPC   GL257182  44.895  39.359   5.763
 4455POPC   C1A57183   0.181  38.974   6.252
 4455POPC   D2A57184   0.221  39.037   6.731
 4455POPC   C3A57185   0.597  38.848   6.950
 4455POPC   C4A57186   0.913  39.031   7.208
 4455POPC   C1B57187  44.879  39.381   6.218
 4455POPC   C2B57188   0.014  39.503   6.638
 4455POPC   C3B57189   0.383  39.543   6.924
 4455POPC   C4B57190   0.479  39.290   7.282
 4456POPC   NC357191  37.927  33.750   5.509
 4456POPC   PO457192  37.614  34.339   5.649
 4456POPC   GL157193  37.607  33.922   5.885
 4456POPC   GL257194  37.376  33.616   5.961
 4456POPC   C1A57195  37.872  33.654   6.155
 4456POPC   D2A57196  38.045  33.551   6.554
 4456POPC   C3A57197  37.875  33.712   6.935
 4456POPC   C4A57198  37.734  33.505   7.290
 4456POPC   C1B57199  37.458  33.831   6.379
 4456POPC   C2B57200  37.563  34.092   6.744
 4456POPC   C3B57201  37.562  34.094   7.224
 4456POPC   C4B57202  37.424  34.271   7.654
 4457POPC   NC357203  13.806  26.845   5.051
 4457POPC   PO457204  13.513  26.374   5.479
 4457POPC   GL157205  13.535  26.644   5.795
 4457POPC   GL257206  13.804  26.844   5.639
 4457POPC   C1A57207  13.341  26.781   6.177
 4457POPC   D2A57208  13.520  26.826   6.556
 4457POPC   C3A57209  13.270  26.841   6.875
 4457POPC   C4A57210  13.454  26.736   7.271
 4457POPC   C1B57211  13.923  26.750   6.103
 4457POPC   C2B57212  14.019  26.852   6.551
 4457POPC   C3B57213  13.855  26.726   6.952
 4457POPC   C4B57214  13.937  26.836   7.389
 4458POPC   NC357215  24.442  11.031   5.421
 4458POPC   PO457216  24.107  11.561   5.604
 4458POPC   GL157217  24.326  11.229   5.884
 4458POPC   GL257218  24.659  11.225   5.905
 4458POPC   C1A57219  24.497  11.116   6.357
 4458POPC   D2A57220  24.673  11.256   6.790
 4458POPC   C3A57221  24.361  11.280   7.121
 4458POPC   C4A57222  24.045  11.392   7.430
 4458POPC   C1B57223  24.857  11.505   6.192
 4458POPC   C2B57224  24.873  11.680   6.614
 4458POPC   C3B57225  24.895  11.631   7.096
 4458POPC   C4B57226  24.708  11.440   7.480
 4459POPC   NC357227   6.034   8.056   5.236
 4459POPC   PO457228   5.895   7.416   5.499
 4459POPC   GL157229   6.054   7.431   5.852
 4459POPC   GL257230   6.311   7.615   5.852
 4459POPC   C1A57231   5.903   7.404   6.240
 4459POPC   D2A57232   5.738   7.703   6.535
 4459POPC   C3A57233   5.618   7.425   6.858
 4459POPC   C4A57234   5.692   7.256   7.277
 4459POPC   C1B57235   6.437   7.495   6.268
 4459POPC   C2B57236   6.195   7.505   6.651
 4459POPC   C3B57237   6.047   7.578   7.075
 4459POPC   C4B57238   6.056   7.545   7.549
 4460POPC   NC357239  26.366   7.994   5.585
 4460POPC   PO457240  26.821   8.421   5.387
 4460POPC   GL157241  26.851   8.307   5.818
 4460POPC   GL257242  26.744   8.043   5.935
 4460POPC   C1A57243  26.756   8.481   6.245
 4460POPC   D2A57244  26.869   8.665   6.643
 4460POPC   C3A57245  26.858   8.504   7.060
 4460POPC   C4A57246  26.863   8.197   7.329
 4460POPC   C1B57247  26.921   7.993   6.358
 4460POPC   C2B57248  26.928   8.059   6.810
 4460POPC   C3B57249  27.150   7.838   7.135
 4460POPC   C4B57250  26.987   7.727   7.545
 4461POPC   NC357251  25.393   7.772   5.643
 4461POPC   PO457252  25.047   8.311   5.342
 4461POPC   GL157253  25.156   8.235   5.793
 4461POPC   GL257254  24.991   7.955   5.913
 4461POPC   C1A57255  25.394   8.244   6.209
 4461POPC   D2A57256  25.445   8.068   6.622
 4461POPC   C3A57257  25.421   8.266   7.010
 4461POPC   C4A57258  25.122   8.471   7.259
 4461POPC   C1B57259  24.879   8.153   6.239
 4461POPC   C2B57260  24.789   8.121   6.604
 4461POPC   C3B57261  24.942   8.064   6.988
 4461POPC   C4B57262  24.870   7.991   7.375
 4462POPC   NC357263  27.867  39.317   5.567
 4462POPC   PO457264  28.524  39.292   5.465
 4462POPC   GL157265  28.315  39.248   5.843
 4462POPC   GL257266  28.185  39.588   5.864
 4462POPC   C1A57267  28.374  39.121   6.279
 4462POPC   D2A57268  28.209  38.960   6.655
 4462POPC   C3A57269  28.349  39.132   7.032
 4462POPC   C4A57270  28.616  39.041   7.388
 4462POPC   C1B57271  28.296  39.639   6.297
 4462POPC   C2B57272  28.185  39.546   6.734
 4462POPC   C3B57273  28.401  39.628   7.128
 4462POPC   C4B57274  28.328  39.432   7.519
 4463POPC   NC357275  22.702  14.395   5.516
 4463POPC   PO457276  22.053  14.735   5.523
 4463POPC   GL157277  22.390  14.594   5.844
 4463POPC   GL257278  22.514  14.775   6.027
 4463POPC   C1A57279  22.850  14.433   6.137
 4463POPC   D2A57280  23.241  14.420   6.411
 4463POPC   C3A57281  23.170  14.458   6.846
 4463POPC   C4A57282  23.161  14.423   7.293
 4463POPC   C1B57283  22.384  14.401   6.306
 4463POPC   C2B57284  22.680  14.234   6.633
 4463POPC   C3B57285  22.755  14.210   7.078
 4463POPC   C4B57286  22.510  14.489   7.375
 4464POPC   NC357287  24.111   0.704   5.335
 4464POPC   PO457288  24.494   1.331   5.375
 4464POPC   GL157289  24.419   1.287   5.818
 4464POPC   GL257290  24.037   1.254   5.870
 4464POPC   C1A57291  24.521   1.374   6.227
 4464POPC   D2A57292  24.473   1.135   6.561
 4464POPC   C3A57293  24.556   1.359   6.922
 4464POPC   C4A57294  24.504   1.221   7.313
 4464POPC   C1B57295  24.003   1.126   6.327
 4464POPC   C2B57296  24.005   1.072   6.791
 4464POPC   C3B57297  24.066   1.370   7.124
 4464POPC   C4B57298  24.057   1.289   7.605
 4465POPC   NC357299   1.460  14.686   5.431
 4465POPC   PO457300   1.183  14.099   5.556
 4465POPC   GL157301   1.382  14.364   5.852
 4465POPC   GL257302   1.164  14.665   5.903
 4465POPC   C1A57303   1.394  14.394   6.313
 4465POPC   D2A57304   1.260  14.156   6.680
 4465POPC   C3A57305   1.459  14.261   7.061
 4465POPC   C4A57306   1.717  14.625   7.164
 4465POPC   C1B57307   0.975  14.691   6.367
 4465POPC   C2B57308   1.160  14.665   6.812
 4465POPC   C3B57309   1.144  14.627   7.282
 4465POPC   C4B57310   1.030  14.245   7.581
 4466POPC   NC357311  30.644  42.695   5.418
 4466POPC   PO457312  29.909  42.821   5.404
 4466POPC   GL157313  29.976  43.013   5.824
 4466POPC   GL257314  29.735  43.300   5.905
 4466POPC   C1A57315  30.005  43.072   6.290
 4466POPC   D2A57316  29.648  43.243   6.594
 4466POPC   C3A57317  29.573  43.031   6.972
 4466POPC   C4A57318  29.857  42.847   7.264
 4466POPC   C1B57319  29.884  43.564   6.279
 4466POPC   C2B57320  30.135  43.441   6.663
 4466POPC   C3B57321  30.010  43.333   7.087
 4466POPC   C4B57322  29.596  43.516   7.225
 4467POPC   NC357323  37.719  18.253   5.397
 4467POPC   PO457324  37.113  18.591   5.243
 4467POPC   GL157325  37.429  18.517   5.708
 4467POPC   GL257326  37.820  18.492   5.838
 4467POPC   C1A57327  37.485  18.310   6.163
 4467POPC   D2A57328  37.601  18.438   6.594
 4467POPC   C3A57329  37.388  18.226   6.941
 4467POPC   C4A57330  37.317  18.492   7.284
 4467POPC   C1B57331  37.981  18.329   6.240
 4467POPC   C2B57332  38.070  18.217   6.646
 4467POPC   C3B57333  38.151  18.172   7.048
 4467POPC   C4B57334  37.823  18.369   7.218
 4468POPC   NC357335  17.495   7.324   5.625
 4468POPC   PO457336  17.006   7.840   5.475
 4468POPC   GL157337  17.243   7.703   5.897
 4468POPC   GL257338  17.607   7.760   5.936
 4468POPC   C1A57339  17.409   7.420   6.282
 4468POPC   D2A57340  17.425   7.156   6.669
 4468POPC   C3A57341  17.419   7.372   7.065
 4468POPC   C4A57342  17.176   7.721   7.250
 4468POPC   C1B57343  17.861   7.678   6.302
 4468POPC   C2B57344  17.726   7.600   6.717
 4468POPC   C3B57345  17.693   7.820   7.113
 4468POPC   C4B57346  17.650   8.182   7.388
 4469POPC   NC357347  11.047  41.216   5.370
 4469POPC   PO457348  11.576  41.704   5.483
 4469POPC   GL157349  11.233  41.566   5.758
 4469POPC   GL257350  11.393  41.291   5.753
 4469POPC   C1A57351  11.035  41.713   6.147
 4469POPC   D2A57352  11.294  41.647   6.507
 4469POPC   C3A57353  11.301  41.781   6.911
 4469POPC   C4A57354  11.126  41.431   7.095
 4469POPC   C1B57355  11.574  41.485   6.116
 4469POPC   C2B57356  11.711  41.297   6.448
 4469POPC   C3B57357  11.630  41.356   6.834
 4469POPC   C4B57358  11.621  41.470   7.203
 4470POPC   NC357359  34.163  13.840   5.635
 4470POPC   PO457360  33.652  13.383   5.538
 4470POPC   GL157361  33.688  13.579   5.907
 4470POPC   GL257362  33.431  13.796   5.846
 4470POPC   C1A57363  33.916  13.612   6.291
 4470POPC   D2A57364  34.007  13.659   6.711
 4470POPC   C3A57365  33.845  13.285   6.921
 4470POPC   C4A57366  33.668  13.239   7.270
 4470POPC   C1B57367  33.651  14.033   6.196
 4470POPC   C2B57368  33.506  13.906   6.587
 4470POPC   C3B57369  33.539  13.701   6.958
 4470POPC   C4B57370  33.660  13.727   7.369
 4471POPC   NC357371  26.938  20.573   5.527
 4471POPC   PO457372  26.439  20.693   5.210
 4471POPC   GL157373  26.524  20.809   5.768
 4471POPC   GL257374  26.875  20.696   5.991
 4471POPC   C1A57375  26.530  20.884   6.263
 4471POPC   D2A57376  26.662  20.518   6.518
 4471POPC   C3A57377  26.647  20.661   6.939
 4471POPC   C4A57378  26.686  20.545   7.357
 4471POPC   C1B57379  27.093  20.312   6.156
 4471POPC   C2B57380  27.115  20.143   6.583
 4471POPC   C3B57381  26.982  20.277   6.971
 4471POPC   C4B57382  27.172  20.514   7.305
 4472POPC   NC357383  30.029  16.297   5.491
 4472POPC   PO457384  30.121  16.999   5.350
 4472POPC   GL157385  29.851  16.823   5.670
 4472POPC   GL257386  29.979  16.584   5.907
 4472POPC   C1A57387  29.686  16.961   6.074
 4472POPC   D2A57388  29.728  16.786   6.484
 4472POPC   C3A57389  29.986  16.960   6.807
 4472POPC   C4A57390  29.897  16.945   7.244
 4472POPC   C1B57391  30.090  16.441   6.330
 4472POPC   C2B57392  30.185  16.376   6.752
 4472POPC   C3B57393  30.134  16.509   7.164
 4472POPC   C4B57394  29.841  16.454   7.450
 4473POPC   NC357395  29.226   0.461   5.452
 4473POPC   PO457396  28.582   0.685   5.439
 4473POPC   GL157397  28.894   0.605   5.833
 4473POPC   GL257398  29.212   0.379   5.948
 4473POPC   C1A57399  29.017   0.701   6.279
 4473POPC   D2A57400  29.182   0.382   6.558
 4473POPC   C3A57401  29.229   0.450   6.993
 4473POPC   C4A57402  28.934   0.559   7.284
 4473POPC   C1B57403  29.496   0.153   6.229
 4473POPC   C2B57404  29.673   0.220   6.649
 4473POPC   C3B57405  29.546   0.028   7.013
 4473POPC   C4B57406  29.205  44.999   7.230
 4474POPC   NC357407  38.821   1.019   5.582
 4474POPC   PO457408  39.286   1.494   5.313
 4474POPC   GL157409  39.271   1.351   5.747
 4474POPC   GL257410  39.479   1.049   5.740
 4474POPC   C1A57411  39.049   1.392   6.161
 4474POPC   D2A57412  38.761   1.380   6.534
 4474POPC   C3A57413  38.894   1.281   6.939
 4474POPC   C4A57414  39.063   1.253   7.330
 4474POPC   C1B57415  39.315   0.936   6.145
 4474POPC   C2B57416  39.216   1.086   6.556
 4474POPC   C3B57417  39.428   1.264   6.898
 4474POPC   C4B57418  39.555   1.143   7.275
 4475POPC   NC357419  41.547  16.875   5.254
 4475POPC   PO457420  41.859  16.293   5.172
 4475POPC   GL157421  41.768  16.609   5.632
 4475POPC   GL257422  41.512  16.853   5.783
 4475POPC   C1A57423  41.658  16.538   6.130
 4475POPC   D2A57424  41.800  16.407   6.563
 4475POPC   C3A57425  41.771  16.589   6.963
 4475POPC   C4A57426  41.415  16.755   7.123
 4475POPC   C1B57427  41.545  17.053   6.211
 4475POPC   C2B57428  41.563  16.943   6.650
 4475POPC   C3B57429  41.795  17.098   7.028
 4475POPC   C4B57430  41.622  17.108   7.435
 4476POPC   NC357431  27.561  29.671   5.523
 4476POPC   PO457432  27.188  30.253   5.430
 4476POPC   GL157433  27.421  30.061   5.838
 4476POPC   GL257434  27.810  30.040   5.901
 4476POPC   C1A57435  27.450  29.792   6.241
 4476POPC   D2A57436  27.232  29.540   6.594
 4476POPC   C3A57437  27.277  29.774   6.975
 4476POPC   C4A57438  27.707  29.857   7.095
 4476POPC   C1B57439  27.788  30.248   6.327
 4476POPC   C2B57440  27.893  30.207   6.772
 4476POPC   C3B57441  27.839  30.407   7.177
 4476POPC   C4B57442  27.603  30.650   7.476
 4477POPC   NC357443  12.781  32.173   5.311
 4477POPC   PO457444  13.128  32.711   5.622
 4477POPC   GL157445  12.806  32.423   5.798
 4477POPC   GL257446  12.677  32.080   5.809
 4477POPC   C1A57447  12.802  32.378   6.245
 4477POPC   D2A57448  12.809  32.684   6.563
 4477POPC   C3A57449  12.757  32.392   6.864
 4477POPC   C4A57450  12.963  32.323   7.215
 4477POPC   C1B57451  12.838  31.858   6.179
 4477POPC   C2B57452  13.010  31.986   6.614
 4477POPC   C3B57453  13.011  31.829   7.050
 4477POPC   C4B57454  12.591  31.817   7.218
 4478POPC   NC357455  31.026   9.910   5.062
 4478POPC   PO457456  30.396   9.770   5.281
 4478POPC   GL157457  30.534   9.773   5.749
 4478POPC   GL257458  30.754   9.497   5.842
 4478POPC   C1A57459  30.621   9.801   6.220
 4478POPC   D2A57460  30.911   9.901   6.557
 4478POPC   C3A57461  30.721   9.801   6.940
 4478POPC   C4A57462  30.796   9.745   7.360
 4478POPC   C1B57463  31.013   9.460   6.233
 4478POPC   C2B57464  31.117   9.439   6.660
 4478POPC   C3B57465  31.178   9.554   7.068
 4478POPC   C4B57466  31.140   9.361   7.468
 4479POPC   NC357467   4.902  26.616   5.379
 4479POPC   PO457468   5.311  27.110   5.434
 4479POPC   GL157469   5.375  26.725   5.673
 4479POPC   GL257470   5.075  26.801   5.828
 4479POPC   C1A57471   5.419  26.584   6.139
 4479POPC   D2A57472   5.346  26.748   6.593
 4479POPC   C3A57473   5.354  26.554   7.036
 4479POPC   C4A57474   5.082  26.610   7.434
 4479POPC   C1B57475   4.967  26.803   6.254
 4479POPC   C2B57476   4.832  26.746   6.689
 4479POPC   C3B57477   4.986  26.946   7.066
 4479POPC   C4B57478   4.835  27.039   7.548
 4480POPC   NC357479  18.912   0.841   5.415
 4480POPC   PO457480  19.322   0.332   5.236
 4480POPC   GL157481  19.126   0.419   5.699
 4480POPC   GL257482  18.998   0.097   5.932
 4480POPC   C1A57483  19.202   0.490   6.155
 4480POPC   D2A57484  19.020   0.300   6.522
 4480POPC   C3A57485  18.971   0.550   6.878
 4480POPC   C4A57486  19.031   0.465   7.299
 4480POPC   C1B57487  19.308  44.961   6.246
 4480POPC   C2B57488  19.410   0.016   6.670
 4480POPC   C3B57489  19.130   0.012   7.002
 4480POPC   C4B57490  19.324   0.071   7.389
 4481POPC   NC357491  42.134  27.829   5.177
 4481POPC   PO457492  42.705  27.518   5.304
 4481POPC   GL157493  42.476  27.445   5.743
 4481POPC   GL257494  42.105  27.453   5.751
 4481POPC   C1A57495  42.366  27.637   6.167
 4481POPC   D2A57496  42.472  27.515   6.567
 4481POPC   C3A57497  42.350  27.684   6.936
 4481POPC   C4A57498  42.323  27.893   7.337
 4481POPC   C1B57499  41.930  27.370   6.171
 4481POPC   C2B57500  41.945  27.526   6.581
 4481POPC   C3B57501  41.913  27.310   6.954
 4481POPC   C4B57502  42.096  27.445   7.308
 4482POPC   NC357503   9.718  31.885   5.627
 4482POPC   PO457504   9.593  31.408   5.188
 4482POPC   GL157505   9.996  31.491   5.719
 4482POPC   GL257506  10.037  31.820   5.987
 4482POPC   C1A57507   9.923  31.340   6.187
 4482POPC   D2A57508   9.515  31.357   6.471
 4482POPC   C3A57509   9.542  31.469   6.915
 4482POPC   C4A57510   9.891  31.434   7.196
 4482POPC   C1B57511   9.759  31.794   6.334
 4482POPC   C2B57512   9.984  31.613   6.694
 4482POPC   C3B57513  10.201  31.808   7.053
 4482POPC   C4B57514  10.207  31.719   7.520
 4483POPC   NC357515  44.231  44.165   5.506
 4483POPC   PO457516  43.966  43.523   5.638
 4483POPC   GL157517  44.023  43.864   5.896
 4483POPC   GL257518  43.786  44.075   5.810
 4483POPC   C1A57519  44.091  43.954   6.310
 4483POPC   D2A57520  43.995  43.678   6.664
 4483POPC   C3A57521  44.067  43.873   7.033
 4483POPC   C4A57522  43.932  44.005   7.406
 4483POPC   C1B57523  43.603  44.112   6.212
 4483POPC   C2B57524  43.759  44.177   6.623
 4483POPC   C3B57525  43.586  44.029   6.978
 4483POPC   C4B57526  43.466  44.157   7.359
 4484POPC   NC357527  24.738  14.940   5.230
 4484POPC   PO457528  24.158  15.245   5.428
 4484POPC   GL157529  24.408  15.324   5.776
 4484POPC   GL257530  24.434  14.989   5.885
 4484POPC   C1A57531  24.599  15.425   6.158
 4484POPC   D2A57532  24.455  15.469   6.583
 4484POPC   C3A57533  24.795  15.426   6.876
 4484POPC   C4A57534  24.907  15.343   7.306
 4484POPC   C1B57535  24.290  15.030   6.317
 4484POPC   C2B57536  24.385  14.967   6.746
 4484POPC   C3B57537  24.496  15.054   7.179
 4484POPC   C4B57538  24.294  14.887   7.527
 4485POPC   NC357539  20.859  14.399   5.266
 4485POPC   PO457540  20.713  13.949   5.699
 4485POPC   GL157541  20.466  14.222   5.899
 4485POPC   GL257542  20.648  14.523   5.805
 4485POPC   C1A57543  20.398  14.052   6.295
 4485POPC   D2A57544  20.718  14.113   6.577
 4485POPC   C3A57545  20.592  14.289   6.934
 4485POPC   C4A57546  20.658  14.261   7.348
 4485POPC   C1B57547  20.504  14.575   6.265
 4485POPC   C2B57548  20.477  14.771   6.698
 4485POPC   C3B57549  20.487  14.735   7.155
 4485POPC   C4B57550  20.501  14.678   7.578
 4486POPC   NC357551  12.041   2.307   5.287
 4486POPC   PO457552  12.063   1.617   5.341
 4486POPC   GL157553  11.977   1.817   5.735
 4486POPC   GL257554  12.107   2.162   5.775
 4486POPC   C1A57555  12.110   1.757   6.162
 4486POPC   D2A57556  12.276   2.041   6.468
 4486POPC   C3A57557  12.521   2.005   6.834
 4486POPC   C4A57558  12.324   2.052   7.235
 4486POPC   C1B57559  11.909   2.245   6.170
 4486POPC   C2B57560  11.770   2.079   6.550
 4486POPC   C3B57561  11.975   2.253   6.908
 4486POPC   C4B57562  11.821   2.070   7.278
 4487POPC   NC357563  44.220  41.071   5.533
 4487POPC   PO457564  44.777  40.807   5.335
 4487POPC   GL157565  44.739  40.652   5.797
 4487POPC   GL257566  44.465  40.719   6.005
 4487POPC   C1A57567  44.870  40.409   6.177
 4487POPC   D2A57568   0.046  40.583   6.592
 4487POPC   C3A57569  44.708  40.627   6.915
 4487POPC   C4A57570  44.548  40.338   7.210
 4487POPC   C1B57571  44.518  40.724   6.448
 4487POPC   C2B57572  44.363  40.977   6.774
 4487POPC   C3B57573  44.676  41.172   7.082
 4487POPC   C4B57574  44.714  41.131   7.537
 4488POPC   NC357575  25.051  17.935   5.468
 4488POPC   PO457576  25.375  17.304   5.471
 4488POPC   GL157577  25.171  17.523   5.788
 4488POPC   GL257578  25.402  17.812   5.822
 4488POPC   C1A57579  25.281  17.485   6.219
 4488POPC   D2A57580  25.119  17.647   6.597
 4488POPC   C3A57581  25.287  17.433   6.932
 4488POPC   C4A57582  24.958  17.256   7.150
 4488POPC   C1B57583  25.312  17.996   6.190
 4488POPC   C2B57584  25.576  17.861   6.531
 4488POPC   C3B57585  25.431  17.927   6.905
 4488POPC   C4B57586  25.444  18.109   7.289
 4489POPC   NC357587  19.795  25.816   5.321
 4489POPC   PO457588  19.976  25.150   5.349
 4489POPC   GL157589  19.784  25.312   5.743
 4489POPC   GL257590  20.130  25.380   5.818
 4489POPC   C1A57591  19.643  25.147   6.164
 4489POPC   D2A57592  19.577  24.820   6.495
 4489POPC   C3A57593  19.641  25.008   6.896
 4489POPC   C4A57594  19.691  24.910   7.273
 4489POPC   C1B57595  20.156  25.138   6.195
 4489POPC   C2B57596  19.948  25.238   6.563
 4489POPC   C3B57597  19.989  25.377   6.955
 4489POPC   C4B57598  20.143  25.160   7.265
 4490POPC   NC357599  32.357  31.408   5.662
 4490POPC   PO457600  31.770  31.687   5.596
 4490POPC   GL157601  31.986  31.544   5.951
 4490POPC   GL257602  31.891  31.244   5.882
 4490POPC   C1A57603  32.218  31.374   6.323
 4490POPC   D2A57604  32.154  31.513   6.738
 4490POPC   C3A57605  32.451  31.514   7.091
 4490POPC   C4A57606  32.505  31.539   7.533
 4490POPC   C1B57607  31.716  31.297   6.289
 4490POPC   C2B57608  31.802  31.120   6.676
 4490POPC   C3B57609  31.788  31.353   7.047
 4490POPC   C4B57610  32.039  31.356   7.398
 4491POPC   NC357611  29.082  35.723   5.575
 4491POPC   PO457612  29.221  36.427   5.356
 4491POPC   GL157613  29.275  36.165   5.749
 4491POPC   GL257614  28.958  36.060   5.937
 4491POPC   C1A57615  29.381  36.134   6.195
 4491POPC   D2A57616  29.384  35.867   6.576
 4491POPC   C3A57617  29.247  36.146   6.903
 4491POPC   C4A57618  29.517  36.172   7.253
 4491POPC   C1B57619  28.933  36.052   6.409
 4491POPC   C2B57620  28.859  35.810   6.761
 4491POPC   C3B57621  28.922  35.868   7.194
 4491POPC   C4B57622  28.746  35.957   7.603
 4492POPC   NC357623  16.762  20.239   5.298
 4492POPC   PO457624  16.585  19.622   5.467
 4492POPC   GL157625  16.825  19.803   5.791
 4492POPC   GL257626  16.568  19.770   6.011
 4492POPC   C1A57627  17.002  19.830   6.238
 4492POPC   D2A57628  16.786  19.958   6.623
 4492POPC   C3A57629  16.841  19.792   7.033
 4492POPC   C4A57630  16.533  19.567   7.254
 4492POPC   C1B57631  16.249  19.965   6.240
 4492POPC   C2B57632  16.319  20.165   6.599
 4492POPC   C3B57633  16.342  19.966   6.962
 4492POPC   C4B57634  16.442  20.086   7.349
 4493POPC   NC357635  12.011  28.854   5.463
 4493POPC   PO457636  12.352  29.397   5.491
 4493POPC   GL157637  12.200  29.204   5.884
 4493POPC   GL257638  12.237  28.834   5.915
 4493POPC   C1A57639  12.210  29.189   6.346
 4493POPC   D2A57640  12.303  29.282   6.758
 4493POPC   C3A57641  11.962  29.197   6.994
 4493POPC   C4A57642  11.975  29.217   7.399
 4493POPC   C1B57643  11.991  28.739   6.260
 4493POPC   C2B57644  12.104  28.772   6.705
 4493POPC   C3B57645  12.190  28.779   7.166
 4493POPC   C4B57646  12.112  28.772   7.632
 4494POPC   NC357647   8.776  43.142   5.447
 4494POPC   PO457648   9.335  43.329   5.660
 4494POPC   GL157649   9.000  43.176   5.942
 4494POPC   GL257650   8.646  42.987   5.903
 4494POPC   C1A57651   9.161  43.162   6.353
 4494POPC   D2A57652   9.309  43.296   6.741
 4494POPC   C3A57653   9.196  43.079   7.078
 4494POPC   C4A57654   9.057  43.405   7.299
 4494POPC   C1B57655   8.598  43.153   6.307
 4494POPC   C2B57656   8.782  43.335   6.662
 4494POPC   C3B57657   8.700  43.204   7.029
 4494POPC   C4B57658   8.442  43.012   7.250
 4495POPC   NC357659   7.620   2.320   5.421
 4495POPC   PO457660   7.142   1.778   5.292
 4495POPC   GL157661   7.444   1.896   5.693
 4495POPC   GL257662   7.477   2.239   5.882
 4495POPC   C1A57663   7.423   1.848   6.171
 4495POPC   D2A57664   7.672   1.855   6.538
 4495POPC   C3A57665   7.484   1.837   6.965
 4495POPC   C4A57666   7.225   1.875   7.332
 4495POPC   C1B57667   7.510   2.503   6.208
 4495POPC   C2B57668   7.676   2.443   6.577
 4495POPC   C3B57669   7.589   2.532   6.984
 4495POPC   C4B57670   7.579   2.244   7.301
 4496POPC   NC357671  11.189  41.971   5.457
 4496POPC   PO457672  11.142  42.603   5.417
 4496POPC   GL157673  11.367  42.462   5.799
 4496POPC   GL257674  11.663  42.677   5.828
 4496POPC   C1A57675  11.211  42.200   6.161
 4496POPC   D2A57676  11.009  42.100   6.581
 4496POPC   C3A57677  11.104  42.248   7.005
 4496POPC   C4A57678  11.377  42.301   7.333
 4496POPC   C1B57679  11.591  42.534   6.263
 4496POPC   C2B57680  11.281  42.552   6.609
 4496POPC   C3B57681  11.312  42.742   7.031
 4496POPC   C4B57682  11.689  42.699   7.291
 4497POPC   NC357683  23.726  42.650   5.492
 4497POPC   PO457684  23.860  42.051   5.347
 4497POPC   GL157685  23.576  42.125   5.718
 4497POPC   GL257686  23.474  42.446   5.858
 4497POPC   C1A57687  23.526  42.031   6.151
 4497POPC   D2A57688  23.826  42.169   6.440
 4497POPC   C3A57689  23.753  42.172   6.865
 4497POPC   C4A57690  23.911  42.298   7.270
 4497POPC   C1B57691  23.673  42.671   6.203
 4497POPC   C2B57692  23.523  42.592   6.613
 4497POPC   C3B57693  23.686  42.651   7.004
 4497POPC   C4B57694  23.547  42.599   7.433
 4498POPC   NC357695  42.054  41.186   5.495
 4498POPC   PO457696  42.725  41.375   5.499
 4498POPC   GL157697  42.343  41.484   5.790
 4498POPC   GL257698  42.590  41.503   6.001
 4498POPC   C1A57699  42.194  41.739   6.187
 4498POPC   D2A57700  42.545  41.841   6.507
 4498POPC   C3A57701  42.502  41.603   6.895
 4498POPC   C4A57702  42.235  41.654   7.229
 4498POPC   C1B57703  42.294  41.243   6.228
 4498POPC   C2B57704  42.365  41.180   6.623
 4498POPC   C3B57705  42.223  41.165   7.015
 4498POPC   C4B57706  42.484  41.217   7.341
 4499POPC   NC357707  10.009   4.358   5.615
 4499POPC   PO457708   9.437   3.977   5.443
 4499POPC   GL157709   9.614   4.112   5.848
 4499POPC   GL257710   9.907   3.912   5.908
 4499POPC   C1A57711   9.744   4.403   6.199
 4499POPC   D2A57712  10.014   4.621   6.463
 4499POPC   C3A57713   9.904   4.709   6.905
 4499POPC   C4A57714   9.674   4.575   7.253
 4499POPC   C1B57715   9.980   3.984   6.328
 4499POPC   C2B57716   9.833   4.190   6.701
 4499POPC   C3B57717   9.566   4.101   7.044
 4499POPC   C4B57718   9.657   4.078   7.476
 4500POPC   NC357719  36.753  34.088   5.236
 4500POPC   PO457720  37.211  33.902   5.545
 4500POPC   GL157721  37.017  33.983   5.894
 4500POPC   GL257722  36.731  33.793   5.847
 4500POPC   C1A57723  37.122  34.189   6.267
 4500POPC   D2A57724  37.044  33.980   6.684
 4500POPC   C3A57725  37.065  34.108   7.109
 4500POPC   C4A57726  37.225  33.697   7.227
 4500POPC   C1B57727  36.722  33.889   6.293
 4500POPC   C2B57728  36.547  34.092   6.635
 4500POPC   C3B57729  36.601  33.873   7.009
 4500POPC   C4B57730  36.582  34.072   7.386
 4501POPC   NC357731  36.581   4.007   5.741
 4501POPC   PO457732  37.088   3.672   5.420
 4501POPC   GL157733  36.913   3.562   5.826
 4501POPC   GL257734  36.653   3.291   5.896
 4501POPC   C1A57735  37.101   3.564   6.247
 4501POPC   D2A57736  36.912   3.388   6.615
 4501POPC   C3A57737  37.021   3.557   6.983
 4501POPC   C4A57738  37.165   3.413   7.387
 4501POPC   C1B57739  36.597   3.558   6.235
 4501POPC   C2B57740  36.618   3.815   6.607
 4501POPC   C3B57741  36.636   3.923   7.041
 4501POPC   C4B57742  36.664   3.582   7.359
 4502POPC   NC357743   5.430  24.829   5.489
 4502POPC   PO457744   5.437  25.594   5.523
 4502POPC   GL157745   5.204  25.471   5.885
 4502POPC   GL257746   5.105  25.120   5.820
 4502POPC   C1A57747   4.915  25.494   6.231
 4502POPC   D2A57748   4.694  25.581   6.627
 4502POPC   C3A57749   4.919  25.348   6.932
 4502POPC   C4A57750   5.155  25.342   7.321
 4502POPC   C1B57751   4.951  24.976   6.233
 4502POPC   C2B57752   5.196  24.906   6.604
 4502POPC   C3B57753   5.132  24.906   7.043
 4502POPC   C4B57754   4.709  24.889   7.220
 4503POPC   NC357755  18.814   6.369   5.480
 4503POPC   PO457756  18.942   5.673   5.683
 4503POPC   GL157757  19.045   5.846   5.998
 4503POPC   GL257758  19.038   6.160   5.871
 4503POPC   C1A57759  19.350   5.941   6.272
 4503POPC   D2A57760  19.531   5.815   6.623
 4503POPC   C3A57761  19.282   5.659   6.935
 4503POPC   C4A57762  19.290   5.865   7.330
 4503POPC   C1B57763  18.891   6.231   6.280
 4503POPC   C2B57764  18.957   5.985   6.615
 4503POPC   C3B57765  19.072   6.154   6.977
 4503POPC   C4B57766  18.894   6.178   7.367
 4504POPC   NC357767  31.448  31.208   5.622
 4504POPC   PO457768  31.271  30.543   5.353
 4504POPC   GL157769  31.382  30.555   5.810
 4504POPC   GL257770  31.704  30.760   5.859
 4504POPC   C1A57771  31.563  30.337   6.188
 4504POPC   D2A57772  31.866  30.435   6.534
 4504POPC   C3A57773  31.722  30.323   6.964
 4504POPC   C4A57774  31.436  30.521   7.233
 4504POPC   C1B57775  31.500  30.847   6.267
 4504POPC   C2B57776  31.290  31.120   6.595
 4504POPC   C3B57777  31.400  30.997   7.012
 4504POPC   C4B57778  31.734  30.929   7.320
 4505POPC   NC357779  32.939  34.732   5.407
 4505POPC   PO457780  33.353  34.197   5.517
 4505POPC   GL157781  33.112  34.514   5.832
 4505POPC   GL257782  33.118  34.948   5.822
 4505POPC   C1A57783  33.226  34.652   6.244
 4505POPC   D2A57784  33.219  34.449   6.635
 4505POPC   C3A57785  33.227  34.667   7.004
 4505POPC   C4A57786  33.283  34.467   7.395
 4505POPC   C1B57787  32.875  35.017   6.210
 4505POPC   C2B57788  32.831  34.779   6.597
 4505POPC   C3B57789  32.722  34.686   7.023
 4505POPC   C4B57790  32.782  34.592   7.432
 4506POPC   NC357791  32.177  15.018   5.222
 4506POPC   PO457792  32.711  15.440   5.368
 4506POPC   GL157793  32.355  15.356   5.669
 4506POPC   GL257794  32.133  15.033   5.733
 4506POPC   C1A57795  32.308  15.298   6.123
 4506POPC   D2A57796  32.076  15.294   6.496
 4506POPC   C3A57797  32.292  15.145   6.830
 4506POPC   C4A57798  32.222  15.265   7.241
 4506POPC   C1B57799  31.925  14.932   6.159
 4506POPC   C2B57800  31.928  14.807   6.634
 4506POPC   C3B57801  32.057  14.793   7.107
 4506POPC   C4B57802  31.930  14.990   7.551
 4507POPC   NC357803  26.175  24.770   5.194
 4507POPC   PO457804  25.869  25.386   5.460
 4507POPC   GL157805  26.114  25.214   5.825
 4507POPC   GL257806  26.220  24.869   5.782
 4507POPC   C1A57807  26.012  25.211   6.281
 4507POPC   D2A57808  25.932  25.496   6.629
 4507POPC   C3A57809  25.901  25.262   6.993
 4507POPC   C4A57810  26.077  25.364   7.376
 4507POPC   C1B57811  26.324  24.792   6.241
 4507POPC   C2B57812  26.242  24.890   6.693
 4507POPC   C3B57813  26.181  24.847   7.165
 4507POPC   C4B57814  26.105  24.909   7.629
 4508POPC   NC357815  23.171   7.468   5.576
 4508POPC   PO457816  22.561   7.451   5.207
 4508POPC   GL157817  22.596   7.429   5.728
 4508POPC   GL257818  22.676   7.119   5.894
 4508POPC   C1A57819  22.709   7.592   6.205
 4508POPC   D2A57820  22.959   7.551   6.624
 4508POPC   C3A57821  22.770   7.697   7.036
 4508POPC   C4A57822  22.553   7.626   7.427
 4508POPC   C1B57823  22.937   7.153   6.279
 4508POPC   C2B57824  23.258   7.048   6.573
 4508POPC   C3B57825  23.336   6.940   6.986
 4508POPC   C4B57826  23.164   7.129   7.337
 4509POPC   NC357827  12.630  38.777   5.360
 4509POPC   PO457828  12.734  39.408   5.535
 4509POPC   GL157829  12.878  39.300   5.919
 4509POPC   GL257830  12.628  39.052   5.897
 4509POPC   C1A57831  13.123  39.299   6.294
 4509POPC   D2A57832  13.148  39.114   6.724
 4509POPC   C3A57833  13.009  39.382   7.093
 4509POPC   C4A57834  13.262  39.547   7.461
 4509POPC   C1B57835  12.766  38.931   6.300
 4509POPC   C2B57836  12.646  39.062   6.708
 4509POPC   C3B57837  12.827  38.891   7.073
 4509POPC   C4B57838  12.654  38.859   7.466
 4510POPC   NC357839   7.063  33.876   5.391
 4510POPC   PO457840   6.439  33.673   5.442
 4510POPC   GL157841   6.687  33.698   5.782
 4510POPC   GL257842   6.762  34.045   5.807
 4510POPC   C1A57843   6.702  33.517   6.197
 4510POPC   D2A57844   6.744  33.702   6.615
 4510POPC   C3A57845   6.656  33.529   7.014
 4510POPC   C4A57846   6.640  33.649   7.460
 4510POPC   C1B57847   6.470  33.993   6.180
 4510POPC   C2B57848   6.428  34.113   6.627
 4510POPC   C3B57849   6.472  34.004   7.070
 4510POPC   C4B57850   6.304  34.009   7.486
 4511POPC   NC357851  14.943   8.358   5.004
 4511POPC   PO457852  15.404   7.889   5.320
 4511POPC   GL157853  15.260   8.136   5.711
 4511POPC   GL257854  14.897   8.090   5.694
 4511POPC   C1A57855  15.337   8.335   6.150
 4511POPC   D2A57856  15.175   8.172   6.582
 4511POPC   C3A57857  15.211   8.361   7.004
 4511POPC   C4A57858  15.510   8.263   7.313
 4511POPC   C1B57859  14.963   7.992   6.130
 4511POPC   C2B57860  14.708   7.966   6.503
 4511POPC   C3B57861  14.781   7.894   6.938
 4511POPC   C4B57862  14.867   8.048   7.309
 4512POPC   NC357863  15.928   7.688   5.387
 4512POPC   PO457864  15.934   7.048   5.207
 4512POPC   GL157865  15.883   7.286   5.693
 4512POPC   GL257866  16.192   7.298   5.862
 4512POPC   C1A57867  15.742   7.321   6.180
 4512POPC   D2A57868  15.888   7.335   6.642
 4512POPC   C3A57869  15.733   7.226   7.063
 4512POPC   C4A57870  15.919   7.200   7.482
 4512POPC   C1B57871  16.268   7.325   6.284
 4512POPC   C2B57872  16.375   7.577   6.633
 4512POPC   C3B57873  16.236   7.491   7.048
 4512POPC   C4B57874  16.354   7.120   7.224
 4513POPC   NC357875  29.732  21.760   5.515
 4513POPC   PO457876  29.621  21.149   5.347
 4513POPC   GL157877  29.803  21.326   5.787
 4513POPC   GL257878  30.070  21.645   5.875
 4513POPC   C1A57879  30.002  21.265   6.201
 4513POPC   D2A57880  30.089  21.059   6.562
 4513POPC   C3A57881  29.916  21.296   6.887
 4513POPC   C4A57882  30.079  21.142   7.253
 4513POPC   C1B57883  29.968  21.840   6.300
 4513POPC   C2B57884  29.931  21.843   6.797
 4513POPC   C3B57885  30.149  21.679   7.192
 4513POPC   C4B57886  30.393  21.673   7.600
 4514POPC   NC357887  31.621  23.198   5.468
 4514POPC   PO457888  30.982  22.823   5.418
 4514POPC   GL157889  31.217  23.002   5.755
 4514POPC   GL257890  31.476  22.735   5.740
 4514POPC   C1A57891  31.452  23.029   6.158
 4514POPC   D2A57892  31.697  22.860   6.506
 4514POPC   C3A57893  31.436  22.901   6.861
 4514POPC   C4A57894  31.391  23.166   7.219
 4514POPC   C1B57895  31.794  22.565   6.066
 4514POPC   C2B57896  31.953  22.406   6.478
 4514POPC   C3B57897  31.845  22.528   6.913
 4514POPC   C4B57898  31.640  22.696   7.287
 4515POPC   NC357899   9.336  33.606   5.431
 4515POPC   PO457900   8.674  33.493   5.394
 4515POPC   GL157901   8.944  33.573   5.769
 4515POPC   GL257902   9.125  33.908   5.784
 4515POPC   C1A57903   8.899  33.634   6.205
 4515POPC   D2A57904   8.712  33.492   6.594
 4515POPC   C3A57905   8.862  33.648   7.011
 4515POPC   C4A57906   8.985  33.810   7.421
 4515POPC   C1B57907   9.289  33.958   6.201
 4515POPC   C2B57908   9.166  33.812   6.615
 4515POPC   C3B57909   9.252  33.981   7.008
 4515POPC   C4B57910   9.436  34.008   7.426
 4516POPC   NC357911  12.558  18.950   5.229
 4516POPC   PO457912  13.145  18.880   5.491
 4516POPC   GL157913  12.981  19.141   5.849
 4516POPC   GL257914  12.623  19.166   5.766
 4516POPC   C1A57915  12.979  19.207   6.331
 4516POPC   D2A57916  13.192  19.257   6.771
 4516POPC   C3A57917  13.018  19.072   7.149
 4516POPC   C4A57918  12.658  18.938   7.414
 4516POPC   C1B57919  12.500  19.364   6.173
 4516POPC   C2B57920  12.626  19.489   6.618
 4516POPC   C3B57921  12.623  19.426   7.088
 4516POPC   C4B57922  12.672  19.453   7.539
 4517POPC   NC357923  39.324  32.378   5.367
 4517POPC   PO457924  38.829  31.868   5.498
 4517POPC   GL157925  39.014  32.150   5.825
 4517POPC   GL257926  39.373  32.093   5.809
 4517POPC   C1A57927  39.215  32.342   6.221
 4517POPC   D2A57928  39.131  32.527   6.622
 4517POPC   C3A57929  39.347  32.431   6.997
 4517POPC   C4A57930  39.259  32.292   7.397
 4517POPC   C1B57931  39.486  31.909   6.213
 4517POPC   C2B57932  39.351  32.026   6.646
 4517POPC   C3B57933  39.527  31.889   7.039
 4517POPC   C4B57934  39.486  31.852   7.534
 4518POPC   NC357935  23.495  41.783   5.312
 4518POPC   PO457936  23.864  41.299   5.451
 4518POPC   GL157937  23.805  41.508   5.831
 4518POPC   GL257938  23.953  41.826   5.912
 4518POPC   C1A57939  23.734  41.538   6.272
 4518POPC   D2A57940  23.729  41.686   6.684
 4518POPC   C3A57941  23.525  41.362   6.959
 4518POPC   C4A57942  23.343  41.193   7.320
 4518POPC   C1B57943  24.195  41.847   6.291
 4518POPC   C2B57944  24.298  42.030   6.688
 4518POPC   C3B57945  24.155  41.921   7.050
 4518POPC   C4B57946  23.746  41.772   7.191
 4519POPC   NC357947  32.044   7.950   5.402
 4519POPC   PO457948  32.190   8.588   5.314
 4519POPC   GL157949  32.097   8.396   5.670
 4519POPC   GL257950  32.432   8.296   5.717
 4519POPC   C1A57951  31.995   8.359   6.095
 4519POPC   D2A57952  32.036   8.617   6.448
 4519POPC   C3A57953  31.933   8.457   6.844
 4519POPC   C4A57954  31.867   8.280   7.243
 4519POPC   C1B57955  32.491   8.160   6.167
 4519POPC   C2B57956  32.270   8.166   6.578
 4519POPC   C3B57957  32.100   7.932   6.944
 4519POPC   C4B57958  32.210   7.930   7.385
 4520POPC   NC357959  24.516  33.765   5.338
 4520POPC   PO457960  23.911  33.472   5.607
 4520POPC   GL157961  24.287  33.783   5.850
 4520POPC   GL257962  24.650  33.925   5.833
 4520POPC   C1A57963  24.370  34.083   6.249
 4520POPC   D2A57964  24.509  34.140   6.713
 4520POPC   C3A57965  24.355  33.824   7.052
 4520POPC   C4A57966  24.379  33.594   7.491
 4520POPC   C1B57967  24.633  33.651   6.231
 4520POPC   C2B57968  24.734  33.650   6.684
 4520POPC   C3B57969  24.746  33.517   7.123
 4520POPC   C4B57970  24.822  33.849   7.436
 4521POPC   NC357971  24.899   7.113   5.585
 4521POPC   PO457972  25.551   7.247   5.403
 4521POPC   GL157973  25.358   7.287   5.847
 4521POPC   GL257974  25.023   7.364   6.029
 4521POPC   C1A57975  25.425   7.250   6.302
 4521POPC   D2A57976  25.147   7.187   6.625
 4521POPC   C3A57977  25.309   7.248   7.032
 4521POPC   C4A57978  25.674   7.410   7.205
 4521POPC   C1B57979  25.189   7.701   6.293
 4521POPC   C2B57980  25.108   7.694   6.697
 4521POPC   C3B57981  25.331   7.757   7.059
 4521POPC   C4B57982  25.130   7.564   7.392
 4522POPC   NC357983  34.143  22.732   5.488
 4522POPC   PO457984  33.527  22.938   5.481
 4522POPC   GL157985  33.746  22.793   5.797
 4522POPC   GL257986  33.947  23.098   5.810
 4522POPC   C1A57987  34.021  22.669   6.119
 4522POPC   D2A57988  34.078  22.636   6.536
 4522POPC   C3A57989  33.804  22.473   6.845
 4522POPC   C4A57990  33.702  22.712   7.232
 4522POPC   C1B57991  33.986  23.181   6.248
 4522POPC   C2B57992  33.719  23.349   6.566
 4522POPC   C3B57993  33.698  23.268   7.011
 4522POPC   C4B57994  34.012  23.142   7.324
 4523POPC   NC357995  11.278   7.915   5.344
 4523POPC   PO457996  11.116   8.562   5.452
 4523POPC   GL157997  11.243   8.240   5.750
 4523POPC   GL257998  10.924   8.306   5.906
 4523POPC   C1A57999  11.529   8.052   6.092
 4523POPC   D2A58000  11.733   8.193   6.506
 4523POPC   C3A58001  11.565   8.156   6.950
 4523POPC   C4A58002  11.562   7.837   7.270
 4523POPC   C1B58003  11.202   8.419   6.234
 4523POPC   C2B58004  11.284   8.463   6.636
 4523POPC   C3B58005  11.076   8.403   7.021
 4523POPC   C4B58006  11.106   8.193   7.392
 4524POPC   NC358007  34.659   5.309   5.285
 4524POPC   PO458008  34.509   4.667   5.400
 4524POPC   GL158009  34.613   5.003   5.727
 4524POPC   GL258010  34.396   5.268   5.775
 4524POPC   C1A58011  34.716   5.067   6.188
 4524POPC   D2A58012  34.684   5.245   6.611
 4524POPC   C3A58013  34.749   4.920   6.928
 4524POPC   C4A58014  34.762   4.870   7.351
 4524POPC   C1B58015  34.212   4.997   6.071
 4524POPC   C2B58016  34.089   5.099   6.472
 4524POPC   C3B58017  34.266   5.118   6.879
 4524POPC   C4B58018  34.265   5.000   7.270
 4525POPC   NC358019  36.708  16.076   5.444
 4525POPC   PO458020  37.316  15.667   5.548
 4525POPC   GL158021  36.972  15.779   5.870
 4525POPC   GL258022  36.837  16.139   5.916
 4525POPC   C1A58023  37.094  15.948   6.292
 4525POPC   D2A58024  37.152  16.290   6.558
 4525POPC   C3A58025  37.146  16.037   6.915
 4525POPC   C4A58026  37.010  15.944   7.289
 4525POPC   C1B58027  36.648  16.280   6.273
 4525POPC   C2B58028  36.688  16.143   6.693
 4525POPC   C3B58029  36.804  16.369   7.070
 4525POPC   C4B58030  36.639  16.288   7.487
 4526POPC   NC358031  13.297  21.754   5.473
 4526POPC   PO458032  12.846  21.244   5.395
 4526POPC   GL158033  12.982  21.270   5.795
 4526POPC   GL258034  13.092  20.941   5.805
 4526POPC   C1A58035  12.871  21.450   6.214
 4526POPC   D2A58036  13.129  21.434   6.609
 4526POPC   C3A58037  12.819  21.383   6.915
 4526POPC   C4A58038  12.797  21.523   7.297
 4526POPC   C1B58039  12.783  20.940   6.163
 4526POPC   C2B58040  12.868  21.009   6.573
 4526POPC   C3B58041  12.883  20.866   6.971
 4526POPC   C4B58042  12.632  21.027   7.288
 4527POPC   NC358043   4.330  35.840   5.469
 4527POPC   PO458044   4.019  36.341   5.758
 4527POPC   GL158045   4.298  36.077   5.920
 4527POPC   GL258046   4.581  36.187   5.735
 4527POPC   C1A58047   4.266  35.859   6.293
 4527POPC   D2A58048   3.939  35.990   6.569
 4527POPC   C3A58049   4.100  36.073   6.953
 4527POPC   C4A58050   4.361  35.878   7.231
 4527POPC   C1B58051   4.675  36.310   6.144
 4527POPC   C2B58052   4.473  36.306   6.529
 4527POPC   C3B58053   4.612  36.278   6.941
 4527POPC   C4B58054   4.441  36.364   7.306
 4528POPC   NC358055  16.368  20.005   5.611
 4528POPC   PO458056  15.884  19.637   5.471
 4528POPC   GL158057  15.916  19.782   5.850
 4528POPC   GL258058  15.918  20.153   5.826
 4528POPC   C1A58059  15.812  19.562   6.229
 4528POPC   D2A58060  15.963  19.736   6.614
 4528POPC   C3A58061  15.825  19.586   7.000
 4528POPC   C4A58062  16.028  19.759   7.348
 4528POPC   C1B58063  15.734  20.061   6.235
 4528POPC   C2B58064  15.823  20.221   6.615
 4528POPC   C3B58065  15.843  20.100   7.007
 4528POPC   C4B58066  15.613  20.176   7.372
 4529POPC   NC358067  36.450   8.973   5.445
 4529POPC   PO458068  37.076   8.772   5.469
 4529POPC   GL158069  36.912   8.783   5.849
 4529POPC   GL258070  36.921   9.147   5.921
 4529POPC   C1A58071  37.000   8.671   6.266
 4529POPC   D2A58072  36.911   8.968   6.569
 4529POPC   C3A58073  36.971   8.972   6.997
 4529POPC   C4A58074  37.222   8.666   7.221
 4529POPC   C1B58075  36.740   9.394   6.297
 4529POPC   C2B58076  36.609   9.353   6.750
 4529POPC   C3B58077  36.551   9.243   7.189
 4529POPC   C4B58078  36.690   9.328   7.657
 4530POPC   NC358079  42.555  32.196   5.401
 4530POPC   PO458080  41.998  32.523   5.385
 4530POPC   GL158081  42.209  32.503   5.782
 4530POPC   GL258082  42.581  32.605   5.825
 4530POPC   C1A58083  42.235  32.651   6.204
 4530POPC   D2A58084  42.474  32.612   6.586
 4530POPC   C3A58085  42.273  32.487   6.970
 4530POPC   C4A58086  42.336  32.283   7.380
 4530POPC   C1B58087  42.572  32.269   6.166
 4530POPC   C2B58088  42.525  32.012   6.549
 4530POPC   C3B58089  42.557  32.062   6.990
 4530POPC   C4B58090  42.768  31.955   7.395
 4531POPC   NC358091  10.319  27.467   5.483
 4531POPC   PO458092  10.776  27.714   5.081
 4531POPC   GL158093  10.702  27.733   5.648
 4531POPC   GL258094  10.627  27.408   5.900
 4531POPC   C1A58095  10.380  27.800   6.046
 4531POPC   D2A58096  10.434  27.544   6.435
 4531POPC   C3A58097  10.521  27.628   6.888
 4531POPC   C4A58098  10.566  27.402   7.287
 4531POPC   C1B58099  10.879  27.321   6.267
 4531POPC   C2B58100  10.799  27.225   6.690
 4531POPC   C3B58101  10.963  27.093   7.075
 4531POPC   C4B58102  11.026  27.274   7.469
 4532POPC   NC358103  39.811  28.335   5.375
 4532POPC   PO458104  40.211  28.865   5.221
 4532POPC   GL158105  40.081  28.629   5.706
 4532POPC   GL258106  39.709  28.601   5.793
 4532POPC   C1A58107  40.065  28.473   6.147
 4532POPC   D2A58108  40.149  28.136   6.454
 4532POPC   C3A58109  40.230  28.222   6.904
 4532POPC   C4A58110  39.972  28.194   7.270
 4532POPC   C1B58111  39.601  28.756   6.174
 4532POPC   C2B58112  39.781  28.689   6.533
 4532POPC   C3B58113  39.774  28.493   6.899
 4532POPC   C4B58114  40.016  28.690   7.236
 4533POPC   NC358115  26.716  16.129   5.180
 4533POPC   PO458116  26.778  15.542   5.416
 4533POPC   GL158117  26.708  15.945   5.684
 4533POPC   GL258118  26.935  16.260   5.677
 4533POPC   C1A58119  26.847  15.979   6.125
 4533POPC   D2A58120  26.892  15.725   6.511
 4533POPC   C3A58121  26.618  15.821   6.852
 4533POPC   C4A58122  26.791  15.874   7.244
 4533POPC   C1B58123  27.198  16.366   6.056
 4533POPC   C2B58124  27.094  16.275   6.478
 4533POPC   C3B58125  26.807  16.300   6.821
 4533POPC   C4B58126  26.907  16.388   7.243
 4534POPC   NC358127  27.772  12.826   5.449
 4534POPC   PO458128  27.301  13.289   5.552
 4534POPC   GL158129  27.511  13.016   5.878
 4534POPC   GL258130  27.252  12.752   5.872
 4534POPC   C1A58131  27.752  12.865   6.280
 4534POPC   D2A58132  27.617  12.952   6.716
 4534POPC   C3A58133  27.739  12.765   7.127
 4534POPC   C4A58134  27.607  12.700   7.583
 4534POPC   C1B58135  27.270  12.738   6.317
 4534POPC   C2B58136  27.393  12.481   6.649
 4534POPC   C3B58137  27.151  12.527   6.987
 4534POPC   C4B58138  27.252  12.887   7.217
 4535POPC   NC358139  25.445  25.233   5.592
 4535POPC   PO458140  25.055  25.811   5.449
 4535POPC   GL158141  25.032  25.482   5.781
 4535POPC   GL258142  25.344  25.657   5.881
 4535POPC   C1A58143  25.134  25.245   6.196
 4535POPC   D2A58144  25.446  25.005   6.477
 4535POPC   C3A58145  25.328  24.999   6.920
 4535POPC   C4A58146  24.974  25.222   7.128
 4535POPC   C1B58147  25.517  25.596   6.295
 4535POPC   C2B58148  25.392  25.482   6.712
 4535POPC   C3B58149  25.439  25.435   7.148
 4535POPC   C4B58150  25.549  25.659   7.458
 4536POPC   NC358151  12.077  27.825   5.202
 4536POPC   PO458152  12.249  28.447   5.437
 4536POPC   GL158153  12.186  28.320   5.851
 4536POPC   GL258154  11.925  28.080   5.824
 4536POPC   C1A58155  12.108  28.230   6.285
 4536POPC   D2A58156  11.948  28.063   6.643
 4536POPC   C3A58157  12.014  28.323   6.986
 4536POPC   C4A58158  12.333  28.301   7.319
 4536POPC   C1B58159  11.634  28.046   6.207
 4536POPC   C2B58160  11.443  27.938   6.635
 4536POPC   C3B58161  11.628  27.958   7.040
 4536POPC   C4B58162  11.989  27.896   7.309
 4537POPC   NC358163  20.232  17.503   5.759
 4537POPC   PO458164  19.679  17.156   5.509
 4537POPC   GL158165  19.700  17.406   5.950
 4537POPC   GL258166  19.712  17.783   6.079
 4537POPC   C1A58167  19.941  17.465   6.375
 4537POPC   D2A58168  20.141  17.416   6.777
 4537POPC   C3A58169  19.819  17.519   7.045
 4537POPC   C4A58170  19.471  17.331   7.219
 4537POPC   C1B58171  20.182  17.900   6.303
 4537POPC   C2B58172  20.377  17.875   6.737
 4537POPC   C3B58173  20.233  17.785   7.192
 4537POPC   C4B58174  20.206  17.817   7.660
 4538POPC   NC358175  38.555  27.463   5.241
 4538POPC   PO458176  38.088  27.560   5.699
 4538POPC   GL158177  38.468  27.672   5.863
 4538POPC   GL258178  38.731  27.479   5.738
 4538POPC   C1A58179  38.503  27.701   6.309
 4538POPC   D2A58180  38.631  27.920   6.679
 4538POPC   C3A58181  38.308  27.965   7.005
 4538POPC   C4A58182  38.570  27.828   7.279
 4538POPC   C1B58183  38.640  27.226   6.090
 4538POPC   C2B58184  38.417  27.190   6.474
 4538POPC   C3B58185  38.371  27.472   6.807
 4538POPC   C4B58186  38.317  27.375   7.218
 4539POPC   NC358187  31.716  30.465   5.430
 4539POPC   PO458188  32.124  31.057   5.441
 4539POPC   GL158189  32.241  30.883   5.843
 4539POPC   GL258190  32.315  30.527   5.947
 4539POPC   C1A58191  32.057  30.870   6.257
 4539POPC   D2A58192  32.289  30.814   6.634
 4539POPC   C3A58193  32.225  31.070   6.998
 4539POPC   C4A58194  32.445  31.052   7.392
 4539POPC   C1B58195  32.357  30.302   6.369
 4539POPC   C2B58196  32.299  30.332   6.808
 4539POPC   C3B58197  32.113  30.609   7.142
 4539POPC   C4B58198  31.871  30.447   7.489
 4540POPC   NC358199  35.124  33.611   5.547
 4540POPC   PO458200  35.708  33.928   5.464
 4540POPC   GL158201  35.379  33.984   5.794
 4540POPC   GL258202  35.419  33.652   5.950
 4540POPC   C1A58203  35.184  34.003   6.212
 4540POPC   D2A58204  35.006  33.806   6.578
 4540POPC   C3A58205  35.189  33.888   6.977
 4540POPC   C4A58206  35.278  34.125   7.373
 4540POPC   C1B58207  35.200  33.441   6.283
 4540POPC   C2B58208  35.274  33.364   6.745
 4540POPC   C3B58209  35.221  33.417   7.206
 4540POPC   C4B58210  35.270  33.643   7.588
 4541POPC   NC358211  41.731  40.712   5.196
 4541POPC   PO458212  41.694  40.056   5.406
 4541POPC   GL158213  41.566  40.132   5.799
 4541POPC   GL258214  41.670  39.809   5.901
 4541POPC   C1A58215  41.860  40.232   6.146
 4541POPC   D2A58216  41.847  40.283   6.581
 4541POPC   C3A58217  41.596  40.028   6.822
 4541POPC   C4A58218  41.633  39.966   7.234
 4541POPC   C1B58219  41.446  39.943   6.283
 4541POPC   C2B58220  41.277  39.682   6.608
 4541POPC   C3B58221  41.175  39.595   7.056
 4541POPC   C4B58222  41.226  39.783   7.487
 4542POPC   NC358223  20.506   3.931   5.254
 4542POPC   PO458224  20.775   4.592   5.433
 4542POPC   GL158225  20.674   4.501   5.912
 4542POPC   GL258226  20.675   4.127   6.013
 4542POPC   C1A58227  20.647   4.450   6.390
 4542POPC   D2A58228  20.963   4.384   6.705
 4542POPC   C3A58229  20.847   4.389   7.129
 4542POPC   C4A58230  20.509   4.317   7.395
 4542POPC   C1B58231  20.344   3.886   6.159
 4542POPC   C2B58232  20.272   4.062   6.518
 4542POPC   C3B58233  20.511   4.099   6.864
 4542POPC   C4B58234  20.284   3.875   7.149
 4543POPC   NC358235  20.163   1.886   5.449
 4543POPC   PO458236  20.835   1.871   5.358
 4543POPC   GL158237  20.648   2.093   5.723
 4543POPC   GL258238  20.521   1.785   5.826
 4543POPC   C1A58239  20.489   2.168   6.176
 4543POPC   D2A58240  20.692   2.239   6.594
 4543POPC   C3A58241  20.554   2.091   7.012
 4543POPC   C4A58242  20.611   2.262   7.431
 4543POPC   C1B58243  20.535   1.629   6.252
 4543POPC   C2B58244  20.443   1.701   6.669
 4543POPC   C3B58245  20.357   1.550   7.055
 4543POPC   C4B58246  20.342   1.768   7.442
 4544POPC   NC358247  41.549  21.149   5.369
 4544POPC   PO458248  41.047  21.492   5.526
 4544POPC   GL158249  41.380  21.403   5.810
 4544POPC   GL258250  41.282  21.066   5.855
 4544POPC   C1A58251  41.582  21.296   6.232
 4544POPC   D2A58252  41.450  21.172   6.666
 4544POPC   C3A58253  41.715  21.286   7.031
 4544POPC   C4A58254  41.970  21.044   7.313
 4544POPC   C1B58255  40.981  21.301   6.152
 4544POPC   C2B58256  40.844  21.336   6.588
 4544POPC   C3B58257  41.064  21.315   6.983
 4544POPC   C4B58258  41.337  21.604   7.176
 4545POPC   NC358259  10.458   6.275   5.392
 4545POPC   PO458260  10.596   5.622   5.420
 4545POPC   GL158261  10.457   5.903   5.768
 4545POPC   GL258262  10.100   5.953   5.726
 4545POPC   C1A58263  10.500   5.952   6.223
 4545POPC   D2A58264  10.800   5.696   6.452
 4545POPC   C3A58265  10.854   5.702   6.897
 4545POPC   C4A58266  10.727   5.697   7.319
 4545POPC   C1B58267  10.140   5.612   6.099
 4545POPC   C2B58268  10.306   5.531   6.551
 4545POPC   C3B58269  10.331   5.766   6.952
 4545POPC   C4B58270  10.220   5.684   7.383
 4546POPC   NC358271  12.215  39.550   5.627
 4546POPC   PO458272  11.795  39.086   5.415
 4546POPC   GL158273  12.066  39.066   5.798
 4546POPC   GL258274  12.247  38.803   5.690
 4546POPC   C1A58275  12.269  39.200   6.218
 4546POPC   D2A58276  12.303  39.465   6.588
 4546POPC   C3A58277  12.127  39.288   6.962
 4546POPC   C4A58278  12.299  39.246   7.378
 4546POPC   C1B58279  12.335  38.691   6.135
 4546POPC   C2B58280  12.230  38.780   6.579
 4546POPC   C3B58281  12.319  38.799   7.035
 4546POPC   C4B58282  12.112  38.794   7.419
 4547POPC   NC358283  32.413  42.020   5.415
 4547POPC   PO458284  32.368  42.694   5.409
 4547POPC   GL158285  32.426  42.494   5.845
 4547POPC   GL258286  32.441  42.121   5.905
 4547POPC   C1A58287  32.283  42.419   6.300
 4547POPC   D2A58288  32.025  42.172   6.613
 4547POPC   C3A58289  32.051  42.381   7.003
 4547POPC   C4A58290  32.319  42.539   7.301
 4547POPC   C1B58291  32.306  41.901   6.257
 4547POPC   C2B58292  32.560  41.989   6.598
 4547POPC   C3B58293  32.567  42.253   6.929
 4547POPC   C4B58294  32.344  41.993   7.186
 4548POPC   NC358295  26.494  28.327   5.535
 4548POPC   PO458296  27.178  28.538   5.408
 4548POPC   GL158297  26.952  28.475   5.768
 4548POPC   GL258298  26.918  28.134   5.790
 4548POPC   C1A58299  26.781  28.478   6.197
 4548POPC   D2A58300  26.999  28.563   6.598
 4548POPC   C3A58301  26.801  28.504   7.006
 4548POPC   C4A58302  27.006  28.457   7.412
 4548POPC   C1B58303  26.953  27.880   6.153
 4548POPC   C2B58304  26.787  27.766   6.556
 4548POPC   C3B58305  26.869  27.965   6.948
 4548POPC   C4B58306  26.633  28.088   7.285
 4549POPC   NC358307  33.059   0.979   5.143
 4549POPC   PO458308  33.056   0.292   5.265
 4549POPC   GL158309  33.080   0.246   5.714
 4549POPC   GL258310  33.170   0.542   5.815
 4549POPC   C1A58311  33.119   0.181   6.190
 4549POPC   D2A58312  32.842   0.149   6.581
 4549POPC   C3A58313  33.105   0.075   6.916
 4549POPC   C4A58314  33.270   0.272   7.260
 4549POPC   C1B58315  33.099   0.772   6.220
 4549POPC   C2B58316  33.091   0.577   6.615
 4549POPC   C3B58317  32.915   0.532   7.010
 4549POPC   C4B58318  33.177   0.763   7.296
 4550POPC   NC358319   0.893  39.436   5.436
 4550POPC   PO458320   1.066  38.848   5.394
 4550POPC   GL158321   1.256  39.170   5.728
 4550POPC   GL258322   1.420  39.537   5.732
 4550POPC   C1A58323   1.155  39.382   6.143
 4550POPC   D2A58324   0.923  39.269   6.524
 4550POPC   C3A58325   1.157  39.362   6.885
 4550POPC   C4A58326   1.410  39.102   7.134
 4550POPC   C1B58327   1.642  39.595   6.150
 4550POPC   C2B58328   1.614  39.465   6.604
 4550POPC   C3B58329   1.611  39.595   7.044
 4550POPC   C4B58330   1.577  39.415   7.481
 4551POPC   NC358331  15.292   2.862   5.553
 4551POPC   PO458332  14.677   2.596   5.369
 4551POPC   GL158333  14.783   2.856   5.781
 4551POPC   GL258334  15.037   2.651   5.975
 4551POPC   C1A58335  14.839   2.988   6.271
 4551POPC   D2A58336  15.074   2.738   6.597
 4551POPC   C3A58337  15.160   2.750   7.062
 4551POPC   C4A58338  14.923   2.760   7.482
 4551POPC   C1B58339  15.370   2.494   6.249
 4551POPC   C2B58340  15.453   2.386   6.666
 4551POPC   C3B58341  15.510   2.314   7.085
 4551POPC   C4B58342  15.386   2.467   7.460
 4552POPC   NC358343  28.438  23.854   5.485
 4552POPC   PO458344  27.731  23.931   5.554
 4552POPC   GL158345  28.101  23.907   5.859
 4552POPC   GL258346  28.274  23.594   5.893
 4552POPC   C1A58347  28.396  23.945   6.221
 4552POPC   D2A58348  28.279  23.806   6.607
 4552POPC   C3A58349  28.452  23.937   6.966
 4552POPC   C4A58350  28.337  23.830   7.363
 4552POPC   C1B58351  28.476  23.437   6.298
 4552POPC   C2B58352  28.678  23.283   6.718
 4552POPC   C3B58353  28.641  23.471   7.179
 4552POPC   C4B58354  28.645  23.259   7.655
 4553POPC   NC358355   5.802  20.182   5.358
 4553POPC   PO458356   5.639  19.463   5.297
 4553POPC   GL158357   5.743  19.666   5.683
 4553POPC   GL258358   6.039  19.572   5.853
 4553POPC   C1A58359   5.639  19.723   6.139
 4553POPC   D2A58360   5.742  19.717   6.599
 4553POPC   C3A58361   5.572  20.067   6.856
 4553POPC   C4A58362   5.667  20.171   7.284
 4553POPC   C1B58363   6.132  19.866   6.220
 4553POPC   C2B58364   6.269  19.980   6.672
 4553POPC   C3B58365   6.010  19.854   7.038
 4553POPC   C4B58366   5.965  19.653   7.444
 4554POPC   NC358367  15.810  10.229   5.450
 4554POPC   PO458368  15.970   9.516   5.381
 4554POPC   GL158369  15.825   9.749   5.743
 4554POPC   GL258370  15.549   9.571   5.845
 4554POPC   C1A58371  15.754   9.901   6.188
 4554POPC   D2A58372  15.730   9.763   6.617
 4554POPC   C3A58373  16.044   9.836   6.965
 4554POPC   C4A58374  16.099   9.680   7.375
 4554POPC   C1B58375  15.504   9.394   6.266
 4554POPC   C2B58376  15.604   9.272   6.728
 4554POPC   C3B58377  15.613   9.585   7.084
 4554POPC   C4B58378  15.640   9.859   7.453
 4555POPC   NC358379  23.050  43.971   5.576
 4555POPC   PO458380  22.528  44.449   5.482
 4555POPC   GL158381  22.645  44.171   5.855
 4555POPC   GL258382  22.993  44.261   5.991
 4555POPC   C1A58383  22.787  43.860   6.211
 4555POPC   D2A58384  23.164  43.896   6.433
 4555POPC   C3A58385  23.085  43.765   6.824
 4555POPC   C4A58386  22.900  43.710   7.175
 4555POPC   C1B58387  23.332  44.424   6.209
 4555POPC   C2B58388  23.415  44.309   6.612
 4555POPC   C3B58389  23.064  44.293   6.868
 4555POPC   C4B58390  22.806  44.196   7.216
 4556POPC   NC358391  42.799  21.781   5.843
 4556POPC   PO458392  42.993  21.290   5.364
 4556POPC   GL158393  42.994  21.275   5.799
 4556POPC   GL258394  42.777  20.990   5.815
 4556POPC   C1A58395  43.163  21.322   6.235
 4556POPC   D2A58396  43.214  21.197   6.668
 4556POPC   C3A58397  43.177  21.562   6.908
 4556POPC   C4A58398  43.219  21.735   7.321
 4556POPC   C1B58399  42.687  21.103   6.242
 4556POPC   C2B58400  42.700  21.272   6.669
 4556POPC   C3B58401  42.854  21.195   7.093
 4556POPC   C4B58402  43.292  21.211   7.249
 4557POPC   NC358403   8.470  18.836   5.556
 4557POPC   PO458404   7.941  19.216   5.414
 4557POPC   GL158405   8.088  19.035   5.810
 4557POPC   GL258406   8.399  19.240   5.882
 4557POPC   C1A58407   8.259  18.830   6.187
 4557POPC   D2A58408   8.394  18.943   6.589
 4557POPC   C3A58409   8.090  18.817   6.872
 4557POPC   C4A58410   8.063  18.728   7.315
 4557POPC   C1B58411   8.264  19.387   6.297
 4557POPC   C2B58412   8.052  19.346   6.683
 4557POPC   C3B58413   8.142  19.262   7.107
 4557POPC   C4B58414   8.560  19.123   7.070
 4558POPC   NC358415   9.357   2.301   5.445
 4558POPC   PO458416   9.057   1.803   5.210
 4558POPC   GL158417   9.134   1.908   5.684
 4558POPC   GL258418   8.883   1.713   5.803
 4558POPC   C1A58419   9.010   2.077   6.136
 4558POPC   D2A58420   9.186   2.174   6.567
 4558POPC   C3A58421   8.968   2.031   6.924
 4558POPC   C4A58422   9.152   2.111   7.347
 4558POPC   C1B58423   8.750   1.593   6.201
 4558POPC   C2B58424   8.646   1.690   6.629
 4558POPC   C3B58425   8.762   1.484   6.998
 4558POPC   C4B58426   9.041   1.639   7.274
 4559POPC   NC358427  39.398   4.847   5.421
 4559POPC   PO458428  39.020   5.372   5.339
 4559POPC   GL158429  39.145   5.203   5.732
 4559POPC   GL258430  39.078   4.864   5.840
 4559POPC   C1A58431  39.349   5.249   6.149
 4559POPC   D2A58432  39.543   5.277   6.580
 4559POPC   C3A58433  39.366   5.116   6.962
 4559POPC   C4A58434  39.408   5.293   7.389
 4559POPC   C1B58435  38.847   5.153   6.149
 4559POPC   C2B58436  39.012   5.348   6.546
 4559POPC   C3B58437  38.904   5.325   6.972
 4559POPC   C4B58438  38.973   5.036   7.288
 4560POPC   NC358439  32.913   6.839   5.580
 4560POPC   PO458440  33.328   6.400   5.380
 4560POPC   GL158441  33.245   6.399   5.813
 4560POPC   GL258442  33.345   6.734   5.862
 4560POPC   C1A58443  33.164   6.442   6.260
 4560POPC   D2A58444  32.911   6.754   6.495
 4560POPC   C3A58445  32.907   6.732   6.943
 4560POPC   C4A58446  32.861   6.813   7.363
 4560POPC   C1B58447  33.426   6.909   6.285
 4560POPC   C2B58448  33.313   7.015   6.727
 4560POPC   C3B58449  33.317   6.971   7.198
 4560POPC   C4B58450  33.308   7.001   7.664
 4561POPC   NC358451  39.477   2.936   5.431
 4561POPC   PO458452  39.018   2.448   5.451
 4561POPC   GL158453  39.169   2.722   5.790
 4561POPC   GL258454  39.181   3.077   5.828
 4561POPC   C1A58455  39.414   2.763   6.179
 4561POPC   D2A58456  39.250   2.761   6.597
 4561POPC   C3A58457  39.451   2.589   6.976
 4561POPC   C4A58458  39.165   2.594   7.295
 4561POPC   C1B58459  39.278   3.288   6.217
 4561POPC   C2B58460  39.601   3.181   6.515
 4561POPC   C3B58461  39.668   3.079   6.952
 4561POPC   C4B58462  39.516   2.963   7.357
 4562POPC   NC358463  11.212  12.499   5.317
 4562POPC   PO458464  11.897  12.462   5.492
 4562POPC   GL158465  11.504  12.691   5.699
 4562POPC   GL258466  11.407  13.059   5.785
 4562POPC   C1A58467  11.260  12.643   6.088
 4562POPC   D2A58468  11.223  12.836   6.483
 4562POPC   C3A58469  11.457  12.638   6.816
 4562POPC   C4A58470  11.264  12.620   7.203
 4562POPC   C1B58471  11.619  13.024   6.170
 4562POPC   C2B58472  11.694  13.176   6.584
 4562POPC   C3B58473  11.655  13.071   7.027
 4562POPC   C4B58474  11.560  13.056   7.477
 4563POPC   NC358475   1.458   5.763   5.466
 4563POPC   PO458476   1.040   6.234   5.425
 4563POPC   GL158477   1.088   5.969   5.794
 4563POPC   GL258478   1.115   5.601   5.784
 4563POPC   C1A58479   1.031   6.094   6.202
 4563POPC   D2A58480   1.328   6.128   6.519
 4563POPC   C3A58481   1.104   6.095   6.911
 4563POPC   C4A58482   1.183   6.042   7.363
 4563POPC   C1B58483   0.938   5.571   6.191
 4563POPC   C2B58484   0.900   5.763   6.574
 4563POPC   C3B58485   0.956   5.611   6.983
 4563POPC   C4B58486   0.733   5.725   7.344
 4564POPC   NC358487  17.877  22.651   5.408
 4564POPC   PO458488  17.532  23.273   5.410
 4564POPC   GL158489  17.663  23.188   5.819
 4564POPC   GL258490  17.582  22.859   5.835
 4564POPC   C1A58491  17.762  23.131   6.274
 4564POPC   D2A58492  17.809  22.831   6.646
 4564POPC   C3A58493  17.858  23.048   7.008
 4564POPC   C4A58494  17.560  23.190   7.274
 4564POPC   C1B58495  17.439  22.699   6.219
 4564POPC   C2B58496  17.301  22.881   6.618
 4564POPC   C3B58497  17.397  22.774   7.031
 4564POPC   C4B58498  17.278  22.643   7.460
 4565POPC   NC358499  12.568  35.586   5.398
 4565POPC   PO458500  11.966  35.285   5.508
 4565POPC   GL158501  12.221  35.234   5.877
 4565POPC   GL258502  12.360  35.552   5.882
 4565POPC   C1A58503  12.180  35.295   6.346
 4565POPC   D2A58504  11.780  35.403   6.591
 4565POPC   C3A58505  11.756  35.523   7.035
 4565POPC   C4A58506  11.926  35.276   7.402
 4565POPC   C1B58507  12.236  35.797   6.251
 4565POPC   C2B58508  12.145  35.743   6.670
 4565POPC   C3B58509  12.247  35.419   6.944
 4565POPC   C4B58510  12.169  35.688   7.276
 4566POPC   NC358511  41.717  44.996   5.376
 4566POPC   PO458512  41.862   0.646   5.511
 4566POPC   GL158513  41.748   0.467   5.917
 4566POPC   GL258514  41.534   0.196   5.827
 4566POPC   C1A58515  41.559   0.392   6.328
 4566POPC   D2A58516  41.286   0.597   6.637
 4566POPC   C3A58517  41.475   0.658   7.024
 4566POPC   C4A58518  41.839   0.517   7.252
 4566POPC   C1B58519  41.220  44.987   6.105
 4566POPC   C2B58520  41.168   0.104   6.518
 4566POPC   C3B58521  41.317   0.170   6.935
 4566POPC   C4B58522  41.146   0.396   7.302
 4567POPC   NC358523  36.613  22.962   5.426
 4567POPC   PO458524  37.237  23.191   5.424
 4567POPC   GL158525  37.041  22.874   5.773
 4567POPC   GL258526  36.674  22.930   5.917
 4567POPC   C1A58527  37.025  22.790   6.249
 4567POPC   D2A58528  37.111  22.663   6.700
 4567POPC   C3A58529  37.024  23.009   6.995
 4567POPC   C4A58530  37.065  22.859   7.413
 4567POPC   C1B58531  36.436  22.710   6.218
 4567POPC   C2B58532  36.595  22.647   6.634
 4567POPC   C3B58533  36.729  22.606   7.072
 4567POPC   C4B58534  36.556  22.856   7.448
 4568POPC   NC358535  36.343  28.949   5.421
 4568POPC   PO458536  35.956  29.474   5.202
 4568POPC   GL158537  36.022  29.287   5.719
 4568POPC   GL258538  35.719  29.179   5.881
 4568POPC   C1A58539  36.187  28.972   6.056
 4568POPC   D2A58540  36.424  29.016   6.465
 4568POPC   C3A58541  36.235  29.076   6.902
 4568POPC   C4A58542  36.401  29.402   7.247
 4568POPC   C1B58543  35.881  29.260   6.326
 4568POPC   C2B58544  35.793  29.302   6.753
 4568POPC   C3B58545  35.887  29.392   7.171
 4568POPC   C4B58546  35.641  29.329   7.512
 4569POPC   NC358547  37.453  41.113   5.432
 4569POPC   PO458548  37.943  40.576   5.546
 4569POPC   GL158549  37.860  40.859   5.893
 4569POPC   GL258550  37.521  40.846   5.888
 4569POPC   C1A58551  37.857  40.996   6.342
 4569POPC   D2A58552  37.670  40.923   6.756
 4569POPC   C3A58553  37.801  41.008   7.173
 4569POPC   C4A58554  37.700  40.684   7.453
 4569POPC   C1B58555  37.485  40.634   6.320
 4569POPC   C2B58556  37.258  40.613   6.721
 4569POPC   C3B58557  37.292  40.812   7.141
 4569POPC   C4B58558  37.293  40.914   7.607
 4570POPC   NC358559  42.212  16.436   5.471
 4570POPC   PO458560  42.597  16.965   5.602
 4570POPC   GL158561  42.191  16.850   5.866
 4570POPC   GL258562  42.141  16.471   5.971
 4570POPC   C1A58563  42.037  16.822   6.317
 4570POPC   D2A58564  42.239  16.632   6.690
 4570POPC   C3A58565  42.233  16.773   7.127
 4570POPC   C4A58566  42.011  16.669   7.518
 4570POPC   C1B58567  42.476  16.416   6.246
 4570POPC   C2B58568  42.732  16.472   6.621
 4570POPC   C3B58569  42.653  16.427   7.068
 4570POPC   C4B58570  42.505  16.533   7.499
 4571POPC   NC358571  22.169  10.146   5.415
 4571POPC   PO458572  22.631  10.681   5.416
 4571POPC   GL158573  22.401  10.667   5.841
 4571POPC   GL258574  22.117  10.487   5.790
 4571POPC   C1A58575  22.187  10.587   6.272
 4571POPC   D2A58576  21.921  10.397   6.640
 4571POPC   C3A58577  22.156  10.594   7.013
 4571POPC   C4A58578  22.572  10.726   7.188
 4571POPC   C1B58579  21.921  10.185   6.074
 4571POPC   C2B58580  22.036   9.915   6.421
 4571POPC   C3B58581  22.130   9.914   6.861
 4571POPC   C4B58582  22.080  10.160   7.261
 4572POPC   NC358583  29.487  38.607   5.513
 4572POPC   PO458584  28.855  38.679   5.379
 4572POPC   GL158585  29.006  38.542   5.781
 4572POPC   GL258586  29.295  38.655   5.975
 4572POPC   C1A58587  28.798  38.584   6.182
 4572POPC   D2A58588  28.874  38.349   6.555
 4572POPC   C3A58589  28.836  38.591   6.914
 4572POPC   C4A58590  29.036  38.320   7.165
 4572POPC   C1B58591  29.387  38.408   6.336
 4572POPC   C2B58592  29.341  38.476   6.779
 4572POPC   C3B58593  29.516  38.488   7.189
 4572POPC   C4B58594  29.546  38.254   7.612
 4573POPC   NC358595  30.465  22.323   5.419
 4573POPC   PO458596  31.013  21.933   5.490
 4573POPC   GL158597  30.722  22.097   5.793
 4573POPC   GL258598  30.769  22.487   5.807
 4573POPC   C1A58599  30.472  21.921   6.144
 4573POPC   D2A58600  30.365  22.094   6.549
 4573POPC   C3A58601  30.544  21.882   6.891
 4573POPC   C4A58602  30.637  21.960   7.289
 4573POPC   C1B58603  30.813  22.316   6.240
 4573POPC   C2B58604  30.952  22.176   6.640
 4573POPC   C3B58605  30.841  22.329   7.031
 4573POPC   C4B58606  30.993  22.286   7.492
 4574POPC   NC358607  27.765  40.569   5.504
 4574POPC   PO458608  27.388  41.181   5.393
 4574POPC   GL158609  27.595  41.021   5.783
 4574POPC   GL258610  27.468  40.716   5.881
 4574POPC   C1A58611  27.782  40.927   6.227
 4574POPC   D2A58612  27.984  40.844   6.662
 4574POPC   C3A58613  27.777  40.791   7.087
 4574POPC   C4A58614  27.738  40.968   7.520
 4574POPC   C1B58615  27.376  40.579   6.263
 4574POPC   C2B58616  27.483  40.575   6.678
 4574POPC   C3B58617  27.285  40.609   7.054
 4574POPC   C4B58618  27.413  40.596   7.468
 4575POPC   NC358619  19.321  35.100   5.579
 4575POPC   PO458620  18.919  35.223   5.136
 4575POPC   GL158621  18.899  35.324   5.707
 4575POPC   GL258622  18.647  35.108   5.824
 4575POPC   C1A58623  19.143  35.536   6.146
 4575POPC   D2A58624  19.329  35.670   6.607
 4575POPC   C3A58625  19.172  35.863   7.017
 4575POPC   C4A58626  18.998  35.719   7.443
 4575POPC   C1B58627  18.989  35.061   6.159
 4575POPC   C2B58628  19.209  35.168   6.550
 4575POPC   C3B58629  19.138  35.357   6.998
 4575POPC   C4B58630  18.810  35.255   7.316
 4576POPC   NC358631  20.547  15.344   5.365
 4576POPC   PO458632  20.454  14.663   5.311
 4576POPC   GL158633  20.450  14.992   5.726
 4576POPC   GL258634  20.758  15.233   5.830
 4576POPC   C1A58635  20.462  15.092   6.206
 4576POPC   D2A58636  20.787  15.131   6.541
 4576POPC   C3A58637  20.720  15.278   6.955
 4576POPC   C4A58638  20.424  15.231   7.251
 4576POPC   C1B58639  21.081  15.325   6.188
 4576POPC   C2B58640  21.071  15.545   6.669
 4576POPC   C3B58641  21.170  15.494   7.145
 4576POPC   C4B58642  21.005  15.598   7.568
 4577POPC   NC358643  11.197  43.113   5.336
 4577POPC   PO458644  11.879  43.227   5.380
 4577POPC   GL158645  11.543  43.182   5.761
 4577POPC   GL258646  11.212  42.962   5.806
 4577POPC   C1A58647  11.488  43.036   6.216
 4577POPC   D2A58648  11.184  43.062   6.562
 4577POPC   C3A58649  11.282  43.279   6.902
 4577POPC   C4A58650  11.491  43.202   7.250
 4577POPC   C1B58651  11.029  43.236   6.108
 4577POPC   C2B58652  10.700  43.219   6.418
 4577POPC   C3B58653  10.706  43.151   6.859
 4577POPC   C4B58654  10.924  43.110   7.239
 4578POPC   NC358655  37.255   2.230   5.450
 4578POPC   PO458656  36.904   1.572   5.407
 4578POPC   GL158657  37.025   1.857   5.723
 4578POPC   GL258658  37.304   1.763   5.896
 4578POPC   C1A58659  36.929   2.062   6.125
 4578POPC   D2A58660  36.851   1.892   6.535
 4578POPC   C3A58661  36.936   2.099   6.948
 4578POPC   C4A58662  36.831   1.945   7.367
 4578POPC   C1B58663  37.273   1.660   6.279
 4578POPC   C2B58664  37.332   1.806   6.684
 4578POPC   C3B58665  37.204   1.683   7.100
 4578POPC   C4B58666  37.214   1.611   7.520
 4579POPC   NC358667  38.554   5.381   5.366
 4579POPC   PO458668  38.267   4.715   5.246
 4579POPC   GL158669  38.360   4.878   5.667
 4579POPC   GL258670  38.593   4.683   5.884
 4579POPC   C1A58671  38.306   5.099   6.066
 4579POPC   D2A58672  38.090   5.237   6.470
 4579POPC   C3A58673  38.335   5.118   6.844
 4579POPC   C4A58674  38.465   5.180   7.272
 4579POPC   C1B58675  38.857   4.647   6.258
 4579POPC   C2B58676  38.900   4.846   6.673
 4579POPC   C3B58677  38.971   4.604   7.044
 4579POPC   C4B58678  38.614   4.642   7.298
 4580POPC   NC358679  26.149  11.285   5.423
 4580POPC   PO458680  25.514  11.284   5.377
 4580POPC   GL158681  25.791  11.280   5.795
 4580POPC   GL258682  26.134  11.448   5.902
 4580POPC   C1A58683  25.844  11.105   6.226
 4580POPC   D2A58684  25.589  11.101   6.616
 4580POPC   C3A58685  25.787  10.927   6.979
 4580POPC   C4A58686  26.062  11.135   7.259
 4580POPC   C1B58687  25.850  11.627   6.214
 4580POPC   C2B58688  25.787  11.568   6.658
 4580POPC   C3B58689  26.080  11.597   6.990
 4580POPC   C4B58690  26.476  11.389   7.056
 4581POPC   NC358691  23.468  33.641   5.669
 4581POPC   PO458692  23.902  33.871   5.197
 4581POPC   GL158693  23.846  33.991   5.723
 4581POPC   GL258694  23.531  34.037   5.949
 4581POPC   C1A58695  23.910  33.848   6.202
 4581POPC   D2A58696  24.078  33.851   6.628
 4581POPC   C3A58697  23.818  33.906   7.017
 4581POPC   C4A58698  23.595  33.570   7.251
 4581POPC   C1B58699  23.439  34.164   6.366
 4581POPC   C2B58700  23.379  33.880   6.710
 4581POPC   C3B58701  23.306  33.950   7.128
 4581POPC   C4B58702  23.576  34.015   7.507
 4582POPC   NC358703  14.148   0.710   5.527
 4582POPC   PO458704  14.543   0.183   5.397
 4582POPC   GL158705  14.404   0.370   5.812
 4582POPC   GL258706  14.660   0.564   5.993
 4582POPC   C1A58707  14.228   0.401   6.252
 4582POPC   D2A58708  14.267   0.734   6.554
 4582POPC   C3A58709  14.308   0.694   6.973
 4582POPC   C4A58710  14.371   0.293   7.205
 4582POPC   C1B58711  14.763   0.120   6.152
 4582POPC   C2B58712  14.830   0.031   6.612
 4582POPC   C3B58713  14.716   0.428   6.833
 4582POPC   C4B58714  14.737   0.703   7.246
 4583POPC   NC358715  26.312  25.730   5.437
 4583POPC   PO458716  25.877  26.281   5.348
 4583POPC   GL158717  25.941  26.037   5.705
 4583POPC   GL258718  26.248  26.184   5.759
 4583POPC   C1A58719  25.876  26.050   6.169
 4583POPC   D2A58720  25.719  25.984   6.583
 4583POPC   C3A58721  25.939  26.111   6.963
 4583POPC   C4A58722  25.977  25.872   7.331
 4583POPC   C1B58723  26.382  26.045   6.157
 4583POPC   C2B58724  26.230  25.938   6.565
 4583POPC   C3B58725  26.329  25.770   6.974
 4583POPC   C4B58726  26.406  26.122   7.249
 4584POPC   NC358727  43.144   1.689   5.553
 4584POPC   PO458728  43.479   1.006   5.439
 4584POPC   GL158729  43.154   1.177   5.719
 4584POPC   GL258730  43.167   1.441   5.983
 4584POPC   C1A58731  42.985   0.950   6.078
 4584POPC   D2A58732  43.104   1.079   6.478
 4584POPC   C3A58733  43.070   1.004   6.906
 4584POPC   C4A58734  42.999   1.007   7.317
 4584POPC   C1B58735  43.272   1.552   6.394
 4584POPC   C2B58736  42.973   1.509   6.742
 4584POPC   C3B58737  43.089   1.486   7.157
 4584POPC   C4B58738  43.031   1.751   7.487
 4585POPC   NC358739  29.110   8.315   5.391
 4585POPC   PO458740  28.734   7.801   5.520
 4585POPC   GL158741  28.923   8.061   5.840
 4585POPC   GL258742  28.935   8.453   5.845
 4585POPC   C1A58743  29.093   8.124   6.247
 4585POPC   D2A58744  29.406   8.062   6.556
 4585POPC   C3A58745  29.187   7.951   6.943
 4585POPC   C4A58746  28.876   8.063   7.264
 4585POPC   C1B58747  29.205   8.606   6.206
 4585POPC   C2B58748  29.262   8.742   6.641
 4585POPC   C3B58749  29.144   8.509   7.019
 4585POPC   C4B58750  29.349   8.287   7.343
 4586POPC   NC358751  30.172  44.168   5.490
 4586POPC   PO458752  30.515  44.819   5.435
 4586POPC   GL158753  30.701  44.863   5.839
 4586POPC   GL258754  31.069  44.945   5.837
 4586POPC   C1A58755  30.789  44.626   6.206
 4586POPC   D2A58756  30.947  44.584   6.633
 4586POPC   C3A58757  30.715  44.495   7.027
 4586POPC   C4A58758  30.835  44.352   7.449
 4586POPC   C1B58759  30.905   0.109   6.237
 4586POPC   C2B58760  30.631   0.044   6.591
 4586POPC   C3B58761  30.867  44.989   6.953
 4586POPC   C4B58762  30.897  44.850   7.349
 4587POPC   NC358763  43.931  31.513   5.497
 4587POPC   PO458764  44.357  30.985   5.159
 4587POPC   GL158765  44.196  31.094   5.667
 4587POPC   GL258766  43.845  31.089   5.837
 4587POPC   C1A58767  44.151  31.387   6.122
 4587POPC   D2A58768  43.887  31.532   6.492
 4587POPC   C3A58769  44.038  31.602   6.917
 4587POPC   C4A58770  44.074  31.459   7.368
 4587POPC   C1B58771  43.744  31.071   6.303
 4587POPC   C2B58772  43.590  31.165   6.745
 4587POPC   C3B58773  43.607  31.344   7.188
 4587POPC   C4B58774  43.695  31.273   7.670
 4588POPC   NC358775  10.412   5.229   5.574
 4588POPC   PO458776  10.994   4.969   5.562
 4588POPC   GL158777  10.728   4.979   5.916
 4588POPC   GL258778  10.448   4.760   5.958
 4588POPC   C1A58779  10.574   5.231   6.233
 4588POPC   D2A58780  10.758   5.218   6.621
 4588POPC   C3A58781  10.530   5.308   7.008
 4588POPC   C4A58782  10.496   5.223   7.440
 4588POPC   C1B58783  10.540   4.728   6.375
 4588POPC   C2B58784  10.335   4.942   6.703
 4588POPC   C3B58785  10.360   4.836   7.121
 4588POPC   C4B58786  10.062   4.875   7.414
 4589POPC   NC358787  29.042   6.726   5.217
 4589POPC   PO458788  29.323   6.223   5.466
 4589POPC   GL158789  29.315   6.651   5.730
 4589POPC   GL258790  29.044   6.902   5.824
 4589POPC   C1A58791  29.395   6.772   6.200
 4589POPC   D2A58792  29.262   6.554   6.623
 4589POPC   C3A58793  29.393   6.396   7.054
 4589POPC   C4A58794  29.289   6.472   7.519
 4589POPC   C1B58795  29.063   7.178   6.214
 4589POPC   C2B58796  29.247   7.067   6.644
 4589POPC   C3B58797  29.090   6.863   7.042
 4589POPC   C4B58798  29.053   7.007   7.483
 4590POPC   NC358799  32.076  22.308   5.441
 4590POPC   PO458800  32.781  22.437   5.428
 4590POPC   GL158801  32.489  22.170   5.734
 4590POPC   GL258802  32.502  21.764   5.747
 4590POPC   C1A58803  32.317  22.120   6.144
 4590POPC   D2A58804  32.453  22.256   6.511
 4590POPC   C3A58805  32.216  22.139   6.864
 4590POPC   C4A58806  32.133  22.284   7.258
 4590POPC   C1B58807  32.740  21.837   6.121
 4590POPC   C2B58808  32.546  21.752   6.495
 4590POPC   C3B58809  32.608  21.782   6.905
 4590POPC   C4B58810  32.478  21.935   7.288
 4591POPC   NC358811   7.753  38.151   5.407
 4591POPC   PO458812   7.419  37.479   5.327
 4591POPC   GL158813   7.366  37.605   5.774
 4591POPC   GL258814   7.609  37.888   5.825
 4591POPC   C1A58815   7.220  37.565   6.233
 4591POPC   D2A58816   7.317  37.349   6.658
 4591POPC   C3A58817   7.131  37.453   7.062
 4591POPC   C4A58818   7.112  37.882   7.259
 4591POPC   C1B58819   7.693  38.066   6.234
 4591POPC   C2B58820   7.754  37.876   6.631
 4591POPC   C3B58821   7.541  37.766   6.978
 4591POPC   C4B58822   7.675  37.746   7.381
 4592POPC   NC358823  34.524  40.473   5.596
 4592POPC   PO458824  34.595  39.832   5.494
 4592POPC   GL158825  34.599  39.936   5.896
 4592POPC   GL258826  34.879  40.144   5.829
 4592POPC   C1A58827  34.347  39.824   6.254
 4592POPC   D2A58828  34.197  39.921   6.647
 4592POPC   C3A58829  34.490  39.831   6.982
 4592POPC   C4A58830  34.508  40.134   7.309
 4592POPC   C1B58831  34.842  40.367   6.217
 4592POPC   C2B58832  35.024  40.367   6.658
 4592POPC   C3B58833  34.986  40.193   7.088
 4592POPC   C4B58834  34.945  40.205   7.543
 4593POPC   NC358835  12.236  43.532   5.490
 4593POPC   PO458836  11.933  44.226   5.381
 4593POPC   GL158837  12.019  44.053   5.764
 4593POPC   GL258838  12.394  44.030   5.840
 4593POPC   C1A58839  11.937  43.875   6.171
 4593POPC   D2A58840  12.077  43.989   6.579
 4593POPC   C3A58841  11.893  43.722   6.883
 4593POPC   C4A58842  11.830  43.893   7.274
 4593POPC   C1B58843  12.458  43.796   6.254
 4593POPC   C2B58844  12.424  43.594   6.685
 4593POPC   C3B58845  12.354  43.742   7.111
 4593POPC   C4B58846  12.267  44.130   7.343
 4594POPC   NC358847   9.364  43.767   5.485
 4594POPC   PO458848   8.757  44.030   5.550
 4594POPC   GL158849   9.118  44.071   5.820
 4594POPC   GL258850   9.012  43.711   5.900
 4594POPC   C1A58851   9.338  43.918   6.213
 4594POPC   D2A58852   9.101  43.671   6.466
 4594POPC   C3A58853   9.066  43.735   6.900
 4594POPC   C4A58854   8.884  43.870   7.275
 4594POPC   C1B58855   8.825  44.019   6.221
 4594POPC   C2B58856   8.678  44.006   6.619
 4594POPC   C3B58857   8.608  44.219   6.989
 4594POPC   C4B58858   8.686  44.334   7.419
 4595POPC   NC358859  20.424  20.725   5.492
 4595POPC   PO458860  20.871  20.235   5.688
 4595POPC   GL158861  20.705  20.593   5.902
 4595POPC   GL258862  20.407  20.437   5.924
 4595POPC   C1A58863  20.472  20.847   6.209
 4595POPC   D2A58864  20.303  20.828   6.632
 4595POPC   C3A58865  20.575  20.736   6.987
 4595POPC   C4A58866  20.788  20.996   7.306
 4595POPC   C1B58867  20.339  20.366   6.348
 4595POPC   C2B58868  20.451  20.261   6.766
 4595POPC   C3B58869  20.439  20.281   7.203
 4595POPC   C4B58870  20.707  20.512   7.497
 4596POPC   NC358871   6.543  10.838   5.354
 4596POPC   PO458872   6.653  11.522   5.329
 4596POPC   GL158873   6.716  11.252   5.678
 4596POPC   GL258874   6.445  11.414   5.847
 4596POPC   C1A58875   6.736  11.131   6.139
 4596POPC   D2A58876   6.822  11.373   6.511
 4596POPC   C3A58877   6.727  11.168   6.896
 4596POPC   C4A58878   6.791  11.353   7.320
 4596POPC   C1B58879   6.284  11.534   6.250
 4596POPC   C2B58880   6.321  11.408   6.684
 4596POPC   C3B58881   6.313  11.317   7.140
 4596POPC   C4B58882   6.312  11.404   7.583
 4597POPC   NC358883  35.720  40.538   5.717
 4597POPC   PO458884  36.161  41.049   5.471
 4597POPC   GL158885  36.182  40.780   5.839
 4597POPC   GL258886  35.892  40.879   6.063
 4597POPC   C1A58887  36.307  40.679   6.261
 4597POPC   D2A58888  36.094  40.826   6.620
 4597POPC   C3A58889  36.332  40.766   6.955
 4597POPC   C4A58890  36.204  40.829   7.349
 4597POPC   C1B58891  35.814  40.508   6.338
 4597POPC   C2B58892  35.662  40.317   6.713
 4597POPC   C3B58893  35.866  40.564   7.033
 4597POPC   C4B58894  35.704  40.748   7.452
 4598POPC   NC358895  31.676  33.575   5.413
 4598POPC   PO458896  31.145  33.974   5.536
 4598POPC   GL158897  31.459  33.907   5.870
 4598POPC   GL258898  31.764  33.698   5.883
 4598POPC   C1A58899  31.570  33.905   6.315
 4598POPC   D2A58900  31.763  34.039   6.658
 4598POPC   C3A58901  31.595  34.077   7.084
 4598POPC   C4A58902  31.352  33.810   7.377
 4598POPC   C1B58903  31.726  33.413   6.212
 4598POPC   C2B58904  31.863  33.492   6.612
 4598POPC   C3B58905  31.686  33.565   7.018
 4598POPC   C4B58906  31.479  33.294   7.310
 4599POPC   NC358907   8.072   3.210   5.472
 4599POPC   PO458908   7.862   3.841   5.500
 4599POPC   GL158909   8.215   3.709   5.742
 4599POPC   GL258910   8.315   3.393   5.879
 4599POPC   C1A58911   8.253   3.834   6.145
 4599POPC   D2A58912   8.097   3.726   6.548
 4599POPC   C3A58913   8.123   3.882   6.956
 4599POPC   C4A58914   8.147   3.836   7.413
 4599POPC   C1B58915   8.134   3.267   6.244
 4599POPC   C2B58916   8.211   3.241   6.661
 4599POPC   C3B58917   8.266   3.296   7.085
 4599POPC   C4B58918   8.196   3.000   7.399
 4600POPC   NC358919  39.440   7.483   5.042
 4600POPC   PO458920  39.977   7.685   5.382
 4600POPC   GL158921  40.032   7.441   5.778
 4600POPC   GL258922  39.807   7.545   6.039
 4600POPC   C1A58923  40.129   7.138   6.139
 4600POPC   D2A58924  40.340   7.184   6.560
 4600POPC   C3A58925  40.195   7.048   6.995
 4600POPC   C4A58926  39.827   7.242   7.185
 4600POPC   C1B58927  40.249   7.616   6.225
 4600POPC   C2B58928  40.490   7.753   6.569
 4600POPC   C3B58929  40.509   7.861   6.978
 4600POPC   C4B58930  40.232   7.562   7.137
 4601POPC   NC358931   4.609  34.651   5.372
 4601POPC   PO458932   4.178  34.243   5.510
 4601POPC   GL158933   4.385  34.461   5.820
 4601POPC   GL258934   4.718  34.343   5.891
 4601POPC   C1A58935   4.324  34.663   6.212
 4601POPC   D2A58936   4.158  34.444   6.570
 4601POPC   C3A58937   4.204  34.542   7.004
 4601POPC   C4A58938   3.995  34.411   7.422
 4601POPC   C1B58939   4.560  34.224   6.308
 4601POPC   C2B58940   4.641  34.280   6.775
 4601POPC   C3B58941   4.696  34.586   7.112
 4601POPC   C4B58942   4.421  34.682   7.445
 4602POPC   NC358943  11.856   9.379   5.381
 4602POPC   PO458944  12.232   8.806   5.472
 4602POPC   GL158945  11.986   8.890   5.787
 4602POPC   GL258946  12.115   9.179   5.836
 4602POPC   C1A58947  12.132   8.816   6.208
 4602POPC   D2A58948  12.075   9.087   6.550
 4602POPC   C3A58949  12.382   9.034   6.824
 4602POPC   C4A58950  12.252   8.964   7.220
 4602POPC   C1B58951  12.407   9.260   6.152
 4602POPC   C2B58952  12.383   9.490   6.503
 4602POPC   C3B58953  12.393   9.536   6.925
 4602POPC   C4B58954  12.342   9.565   7.357
 4603POPC   NC358955  31.652  28.627   5.610
 4603POPC   PO458956  31.873  29.328   5.519
 4603POPC   GL158957  31.593  29.202   5.901
 4603POPC   GL258958  31.422  28.838   5.996
 4603POPC   C1A58959  31.540  29.159   6.367
 4603POPC   D2A58960  31.587  28.990   6.790
 4603POPC   C3A58961  31.487  29.253   7.103
 4603POPC   C4A58962  31.768  29.484   7.277
 4603POPC   C1B58963  31.143  28.639   6.309
 4603POPC   C2B58964  30.919  28.668   6.690
 4603POPC   C3B58965  31.121  28.868   7.041
 4603POPC   C4B58966  31.418  28.776   7.343
 4604POPC   NC358967  34.039   4.707   5.409
 4604POPC   PO458968  34.195   5.348   5.330
 4604POPC   GL158969  33.904   5.151   5.653
 4604POPC   GL258970  33.890   5.357   5.960
 4604POPC   C1A58971  33.711   4.880   6.002
 4604POPC   D2A58972  33.581   4.979   6.446
 4604POPC   C3A58973  33.794   4.889   6.848
 4604POPC   C4A58974  33.619   4.993   7.248
 4604POPC   C1B58975  33.755   5.493   6.363
 4604POPC   C2B58976  33.715   5.380   6.785
 4604POPC   C3B58977  33.927   5.371   7.180
 4604POPC   C4B58978  33.752   5.333   7.598
 4605POPC   NC358979  30.524   6.483   5.355
 4605POPC   PO458980  30.891   7.057   5.352
 4605POPC   GL158981  30.894   6.694   5.708
 4605POPC   GL258982  30.574   6.516   5.835
 4605POPC   C1A58983  30.897   6.572   6.194
 4605POPC   D2A58984  30.950   6.736   6.609
 4605POPC   C3A58985  30.700   6.717   6.958
 4605POPC   C4A58986  30.743   6.767   7.408
 4605POPC   C1B58987  30.478   6.255   6.167
 4605POPC   C2B58988  30.521   6.386   6.580
 4605POPC   C3B58989  30.321   6.353   6.962
 4605POPC   C4B58990  30.633   6.281   7.254
 4606POPC   NC358991  38.982  31.441   5.442
 4606POPC   PO458992  39.543  31.101   5.528
 4606POPC   GL158993  39.332  31.381   5.841
 4606POPC   GL258994  39.082  31.643   5.898
 4606POPC   C1A58995  39.351  31.410   6.285
 4606POPC   D2A58996  39.595  31.541   6.641
 4606POPC   C3A58997  39.338  31.376   6.960
 4606POPC   C4A58998  39.267  31.428   7.360
 4606POPC   C1B58999  38.988  31.837   6.292
 4606POPC   C2B59000  38.968  31.682   6.734
 4606POPC   C3B59001  39.054  31.872   7.144
 4606POPC   C4B59002  38.965  31.771   7.573
 4607POPC   NC359003  23.038  10.381   5.313
 4607POPC   PO459004  23.377  10.941   5.315
 4607POPC   GL159005  23.105  10.685   5.730
 4607POPC   GL259006  22.831  10.354   5.781
 4607POPC   C1A59007  22.960  10.636   6.180
 4607POPC   D2A59008  23.255  10.632   6.535
 4607POPC   C3A59009  23.120  10.527   6.964
 4607POPC   C4A59010  23.078  10.851   7.301
 4607POPC   C1B59011  22.518  10.208   6.121
 4607POPC   C2B59012  22.414  10.247   6.581
 4607POPC   C3B59013  22.529  10.211   7.012
 4607POPC   C4B59014  22.824  10.280   7.322
 4608POPC   NC359015  22.053   5.363   5.365
 4608POPC   PO459016  22.338   4.759   5.338
 4608POPC   GL159017  22.143   4.863   5.768
 4608POPC   GL259018  21.825   5.000   5.678
 4608POPC   C1A59019  22.237   5.032   6.209
 4608POPC   D2A59020  22.491   5.138   6.566
 4608POPC   C3A59021  22.300   4.928   6.903
 4608POPC   C4A59022  22.333   5.054   7.316
 4608POPC   C1B59023  21.753   4.854   6.106
 4608POPC   C2B59024  21.804   4.969   6.547
 4608POPC   C3B59025  21.827   5.062   7.011
 4608POPC   C4B59026  21.860   4.831   7.397
 4609POPC   NC359027  37.687   5.648   5.629
 4609POPC   PO459028  37.300   6.154   5.507
 4609POPC   GL159029  37.356   5.942   5.904
 4609POPC   GL259030  37.263   5.595   5.900
 4609POPC   C1A59031  37.668   5.877   6.270
 4609POPC   D2A59032  37.521   5.984   6.697
 4609POPC   C3A59033  37.785   6.052   7.054
 4609POPC   C4A59034  37.788   6.033   7.495
 4609POPC   C1B59035  37.255   5.604   6.312
 4609POPC   C2B59036  37.428   5.484   6.668
 4609POPC   C3B59037  37.526   5.604   7.082
 4609POPC   C4B59038  37.295   5.839   7.362
 4610POPC   NC359039  22.347  37.923   5.519
 4610POPC   PO459040  22.066  38.521   5.391
 4610POPC   GL159041  22.288  38.494   5.782
 4610POPC   GL259042  22.590  38.726   5.835
 4610POPC   C1A59043  22.141  38.384   6.190
 4610POPC   D2A59044  21.927  38.615   6.522
 4610POPC   C3A59045  22.034  38.535   6.932
 4610POPC   C4A59046  22.089  38.241   7.229
 4610POPC   C1B59047  22.670  38.320   6.071
 4610POPC   C2B59048  22.548  38.199   6.470
 4610POPC   C3B59049  22.505  38.359   6.869
 4610POPC   C4B59050  22.641  38.350   7.249
 4611POPC   NC359051  42.582  18.202   5.483
 4611POPC   PO459052  41.965  17.869   5.554
 4611POPC   GL159053  42.075  18.172   5.888
 4611POPC   GL259054  42.428  18.347   5.941
 4611POPC   C1A59055  42.159  18.170   6.347
 4611POPC   D2A59056  42.546  18.381   6.572
 4611POPC   C3A59057  42.539  18.278   7.029
 4611POPC   C4A59058  42.131  18.109   7.184
 4611POPC   C1B59059  42.118  18.630   6.126
 4611POPC   C2B59060  42.035  18.617   6.552
 4611POPC   C3B59061  42.293  18.771   6.837
 4611POPC   C4B59062  42.189  18.604   7.211
 4612POPC   NC359063  21.478   1.373   5.376
 4612POPC   PO459064  20.981   0.977   5.383
 4612POPC   GL159065  21.181   1.077   5.783
 4612POPC   GL259066  21.382   1.373   5.860
 4612POPC   C1A59067  21.268   0.969   6.226
 4612POPC   D2A59068  21.480   1.048   6.627
 4612POPC   C3A59069  21.262   0.998   7.043
 4612POPC   C4A59070  21.081   1.224   7.397
 4612POPC   C1B59071  21.554   1.494   6.229
 4612POPC   C2B59072  21.393   1.633   6.600
 4612POPC   C3B59073  21.292   1.519   6.995
 4612POPC   C4B59074  21.641   1.448   7.244
 4613POPC   NC359075  20.191  42.153   5.436
 4613POPC   PO459076  20.700  42.664   5.263
 4613POPC   GL159077  20.598  42.419   5.674
 4613POPC   GL259078  20.293  42.378   5.888
 4613POPC   C1A59079  20.735  42.228   6.097
 4613POPC   D2A59080  20.745  42.121   6.542
 4613POPC   C3A59081  20.549  42.357   6.822
 4613POPC   C4A59082  20.719  42.319   7.171
 4613POPC   C1B59083  20.223  42.076   6.239
 4613POPC   C2B59084  20.238  41.949   6.702
 4613POPC   C3B59085  20.208  42.155   7.126
 4613POPC   C4B59086  20.293  42.584   7.284
 4614POPC   NC359087  34.834  34.863   5.526
 4614POPC   PO459088  34.471  35.462   5.435
 4614POPC   GL159089  34.566  35.260   5.813
 4614POPC   GL259090  34.806  35.519   5.874
 4614POPC   C1A59091  34.327  35.212   6.197
 4614POPC   D2A59092  34.202  35.254   6.635
 4614POPC   C3A59093  34.459  35.374   6.980
 4614POPC   C4A59094  34.630  35.055   7.246
 4614POPC   C1B59095  34.629  35.633   6.281
 4614POPC   C2B59096  34.867  35.581   6.675
 4614POPC   C3B59097  34.989  35.385   7.063
 4614POPC   C4B59098  34.739  35.514   7.430
 4615POPC   NC359099   4.849  22.060   5.343
 4615POPC   PO459100   5.408  21.915   5.586
 4615POPC   GL159101   5.175  21.895   5.958
 4615POPC   GL259102   5.115  22.249   5.944
 4615POPC   C1A59103   5.140  22.036   6.414
 4615POPC   D2A59104   5.222  22.385   6.751
 4615POPC   C3A59105   5.154  22.204   7.157
 4615POPC   C4A59106   5.049  21.782   7.196
 4615POPC   C1B59107   4.885  22.509   6.257
 4615POPC   C2B59108   4.791  22.684   6.666
 4615POPC   C3B59109   4.926  22.692   7.118
 4615POPC   C4B59110   5.266  22.635   7.401
 4616POPC   NC359111   3.914  21.833   5.577
 4616POPC   PO459112   3.644  22.425   5.290
 4616POPC   GL159113   3.616  22.288   5.744
 4616POPC   GL259114   3.647  22.653   5.841
 4616POPC   C1A59115   3.441  22.008   6.113
 4616POPC   D2A59116   3.278  22.047   6.567
 4616POPC   C3A59117   3.460  21.868   6.968
 4616POPC   C4A59118   3.611  21.681   7.379
 4616POPC   C1B59119   3.559  22.472   6.263
 4616POPC   C2B59120   3.771  22.162   6.572
 4616POPC   C3B59121   3.813  22.210   7.035
 4616POPC   C4B59122   4.120  22.411   7.190
 4617POPC   NC359123  12.374  23.837   5.620
 4617POPC   PO459124  11.750  24.121   5.746
 4617POPC   GL159125  11.945  23.764   5.939
 4617POPC   GL259126  12.241  23.936   6.081
 4617POPC   C1A59127  11.950  23.666   6.394
 4617POPC   D2A59128  11.746  23.828   6.755
 4617POPC   C3A59129  11.795  23.544   7.082
 4617POPC   C4A59130  11.691  23.341   7.451
 4617POPC   C1B59131  12.504  23.882   6.428
 4617POPC   C2B59132  12.277  24.005   6.794
 4617POPC   C3B59133  11.991  24.016   7.153
 4617POPC   C4B59134  12.042  23.781   7.525
 4618POPC   NC359135  37.965   4.371   5.103
 4618POPC   PO459136  37.254   4.418   5.286
 4618POPC   GL159137  37.397   4.406   5.799
 4618POPC   GL259138  37.645   4.141   5.886
 4618POPC   C1A59139  37.539   4.474   6.250
 4618POPC   D2A59140  37.567   4.168   6.585
 4618POPC   C3A59141  37.636   4.220   7.022
 4618POPC   C4A59142  37.338   4.468   7.302
 4618POPC   C1B59143  37.945   4.138   6.234
 4618POPC   C2B59144  38.084   4.133   6.650
 4618POPC   C3B59145  38.236   3.899   6.995
 4618POPC   C4B59146  37.948   3.921   7.310
 4619POPC   NC359147  19.661   3.356   5.179
 4619POPC   PO459148  20.059   3.904   5.310
 4619POPC   GL159149  19.886   3.955   5.752
 4619POPC   GL259150  19.597   3.712   5.741
 4619POPC   C1A59151  19.861   3.733   6.180
 4619POPC   D2A59152  20.062   3.569   6.533
 4619POPC   C3A59153  19.874   3.653   6.918
 4619POPC   C4A59154  20.009   3.459   7.282
 4619POPC   C1B59155  19.429   3.472   6.143
 4619POPC   C2B59156  19.501   3.413   6.595
 4619POPC   C3B59157  19.578   3.251   7.031
 4619POPC   C4B59158  19.571   3.314   7.479
 4620POPC   NC359159  40.029  29.235   4.998
 4620POPC   PO459160  39.838  29.033   5.576
 4620POPC   GL159161  39.988  29.072   5.965
 4620POPC   GL259162  40.201  29.381   6.006
 4620POPC   C1A59163  39.887  29.185   6.355
 4620POPC   D2A59164  40.079  29.055   6.702
 4620POPC   C3A59165  39.744  29.050   6.951
 4620POPC   C4A59166  39.754  29.110   7.356
 4620POPC   C1B59167  40.388  29.374   6.413
 4620POPC   C2B59168  40.405  29.426   6.866
 4620POPC   C3B59169  40.226  29.182   7.180
 4620POPC   C4B59170  40.137  29.260   7.621
 4621POPC   NC359171  16.973  44.284   5.568
 4621POPC   PO459172  16.759  43.684   5.556
 4621POPC   GL159173  16.622  43.944   5.842
 4621POPC   GL259174  16.498  43.693   6.003
 4621POPC   C1A59175  16.807  44.046   6.225
 4621POPC   D2A59176  17.021  43.889   6.557
 4621POPC   C3A59177  16.840  43.887   6.953
 4621POPC   C4A59178  16.764  44.166   7.240
 4621POPC   C1B59179  16.626  43.601   6.376
 4621POPC   C2B59180  16.428  43.758   6.710
 4621POPC   C3B59181  16.363  43.841   7.149
 4621POPC   C4B59182  16.632  43.651   7.471
 4622POPC   NC359183  28.593  28.690   5.509
 4622POPC   PO459184  28.262  28.103   5.188
 4622POPC   GL159185  28.418  28.217   5.667
 4622POPC   GL259186  28.288  28.486   5.908
 4622POPC   C1A59187  28.651  28.243   6.118
 4622POPC   D2A59188  28.439  28.374   6.522
 4622POPC   C3A59189  28.435  28.229   6.954
 4622POPC   C4A59190  28.302  28.234   7.383
 4622POPC   C1B59191  28.506  28.777   6.209
 4622POPC   C2B59192  28.557  28.845   6.688
 4622POPC   C3B59193  28.400  28.701   7.114
 4622POPC   C4B59194  28.520  28.757   7.534
 4623POPC   NC359195   0.661   7.408   5.430
 4623POPC   PO459196   0.026   7.774   5.579
 4623POPC   GL159197   0.301   7.533   5.853
 4623POPC   GL259198   0.551   7.290   5.910
 4623POPC   C1A59199   0.521   7.632   6.257
 4623POPC   D2A59200   0.402   7.426   6.619
 4623POPC   C3A59201   0.568   7.499   6.999
 4623POPC   C4A59202   0.405   7.217   7.322
 4623POPC   C1B59203   0.489   7.034   6.299
 4623POPC   C2B59204   0.752   6.958   6.672
 4623POPC   C3B59205   0.863   7.097   7.112
 4623POPC   C4B59206   0.840   7.418   7.493
 4624POPC   NC359207  23.194  35.935   5.459
 4624POPC   PO459208  22.655  36.397   5.553
 4624POPC   GL159209  22.909  36.227   5.848
 4624POPC   GL259210  22.900  35.880   5.863
 4624POPC   C1A59211  23.049  36.143   6.282
 4624POPC   D2A59212  23.257  36.132   6.661
 4624POPC   C3A59213  23.030  36.168   6.993
 4624POPC   C4A59214  23.031  36.425   7.338
 4624POPC   C1B59215  23.286  35.728   6.116
 4624POPC   C2B59216  23.293  35.629   6.564
 4624POPC   C3B59217  23.278  35.733   7.032
 4624POPC   C4B59218  23.263  35.732   7.525
 4625POPC   NC359219   8.529  41.392   5.631
 4625POPC   PO459220   8.979  41.822   5.327
 4625POPC   GL159221   8.955  41.652   5.704
 4625POPC   GL259222   8.671  41.860   5.779
 4625POPC   C1A59223   8.949  41.469   6.117
 4625POPC   D2A59224   9.086  41.417   6.529
 4625POPC   C3A59225   8.945  41.097   6.819
 4625POPC   C4A59226   8.936  41.306   7.213
 4625POPC   C1B59227   8.727  41.913   6.200
 4625POPC   C2B59228   8.991  41.936   6.550
 4625POPC   C3B59229   8.903  41.806   6.972
 4625POPC   C4B59230   8.721  41.758   7.392
 4626POPC   NC359231  12.699   0.136   5.336
 4626POPC   PO459232  12.989   0.764   5.513
 4626POPC   GL159233  12.826   0.454   5.749
 4626POPC   GL259234  12.940   0.651   6.018
 4626POPC   C1A59235  12.652   0.234   6.101
 4626POPC   D2A59236  12.490   0.344   6.507
 4626POPC   C3A59237  12.562   0.096   6.888
 4626POPC   C4A59238  12.463   0.363   7.205
 4626POPC   C1B59239  13.139   0.304   6.238
 4626POPC   C2B59240  12.992   0.207   6.637
 4626POPC   C3B59241  12.972   0.367   7.047
 4626POPC   C4B59242  13.188   0.530   7.384
 4627POPC   NC359243   8.148  36.552   5.509
 4627POPC   PO459244   7.856  35.877   5.513
 4627POPC   GL159245   7.888  36.203   5.809
 4627POPC   GL259246   8.285  36.216   5.871
 4627POPC   C1A59247   7.938  36.083   6.222
 4627POPC   D2A59248   8.243  36.022   6.523
 4627POPC   C3A59249   8.024  36.064   6.900
 4627POPC   C4A59250   8.064  36.160   7.330
 4627POPC   C1B59251   8.555  36.367   6.215
 4627POPC   C2B59252   8.450  36.492   6.635
 4627POPC   C3B59253   8.474  36.303   7.007
 4627POPC   C4B59254   8.738  36.312   7.299
 4628POPC   NC359255  14.323  38.683   5.426
 4628POPC   PO459256  14.377  38.028   5.359
 4628POPC   GL159257  14.614  38.301   5.707
 4628POPC   GL259258  14.687  38.669   5.829
 4628POPC   C1A59259  14.559  38.282   6.181
 4628POPC   D2A59260  14.307  38.251   6.601
 4628POPC   C3A59261  14.560  38.273   6.977
 4628POPC   C4A59262  14.603  38.299   7.424
 4628POPC   C1B59263  14.316  38.768   6.130
 4628POPC   C2B59264  14.127  38.942   6.522
 4628POPC   C3B59265  14.041  38.778   6.944
 4628POPC   C4B59266  14.116  38.421   7.178
 4629POPC   NC359267  22.773  24.352   5.252
 4629POPC   PO459268  22.577  24.964   5.524
 4629POPC   GL159269  22.853  24.622   5.732
 4629POPC   GL259270  22.927  24.252   5.711
 4629POPC   C1A59271  23.124  24.484   6.088
 4629POPC   D2A59272  23.158  24.581   6.487
 4629POPC   C3A59273  23.057  24.305   6.786
 4629POPC   C4A59274  23.040  24.443   7.204
 4629POPC   C1B59275  22.640  24.227   6.049
 4629POPC   C2B59276  22.639  24.303   6.483
 4629POPC   C3B59277  22.533  24.250   6.919
 4629POPC   C4B59278  22.560  24.260   7.376
 4630POPC   NC359279  32.826  25.528   5.215
 4630POPC   PO459280  32.911  26.121   5.562
 4630POPC   GL159281  32.946  26.107   5.965
 4630POPC   GL259282  33.266  25.974   6.032
 4630POPC   C1A59283  32.888  26.289   6.338
 4630POPC   D2A59284  33.016  26.129   6.713
 4630POPC   C3A59285  32.857  26.086   7.101
 4630POPC   C4A59286  33.272  26.161   7.262
 4630POPC   C1B59287  32.944  25.777   6.336
 4630POPC   C2B59288  32.971  25.590   6.691
 4630POPC   C3B59289  33.226  25.732   6.975
 4630POPC   C4B59290  33.207  25.658   7.407
 4631POPC   NC359291   5.729  43.003   5.084
 4631POPC   PO459292   5.731  42.333   5.341
 4631POPC   GL159293   5.954  42.193   5.755
 4631POPC   GL259294   6.132  42.434   5.963
 4631POPC   C1A59295   6.124  41.966   6.137
 4631POPC   D2A59296   6.021  41.798   6.521
 4631POPC   C3A59297   6.058  42.057   6.899
 4631POPC   C4A59298   5.891  42.091   7.289
 4631POPC   C1B59299   5.822  42.460   6.290
 4631POPC   C2B59300   5.737  42.447   6.736
 4631POPC   C3B59301   5.408  42.283   6.988
 4631POPC   C4B59302   5.389  42.230   7.430
 4632POPC   NC359303  12.647  23.612   5.154
 4632POPC   PO459304  13.096  23.963   5.416
 4632POPC   GL159305  12.868  23.770   5.787
 4632POPC   GL259306  12.605  23.518   5.935
 4632POPC   C1A59307  12.984  23.697   6.220
 4632POPC   D2A59308  12.962  23.733   6.649
 4632POPC   C3A59309  13.035  23.413   6.935
 4632POPC   C4A59310  12.828  23.614   7.245
 4632POPC   C1B59311  12.617  23.365   6.369
 4632POPC   C2B59312  12.555  23.428   6.793
 4632POPC   C3B59313  12.325  23.602   7.126
 4632POPC   C4B59314  12.487  23.989   7.265
 4633POPC   NC359315  18.165   0.242   5.603
 4633POPC   PO459316  18.457   0.875   5.287
 4633POPC   GL159317  18.309   0.727   5.711
 4633POPC   GL259318  18.615   0.534   5.841
 4633POPC   C1A59319  18.217   0.623   6.188
 4633POPC   D2A59320  17.945   0.542   6.548
 4633POPC   C3A59321  18.123   0.398   6.943
 4633POPC   C4A59322  18.414   0.635   7.184
 4633POPC   C1B59323  18.590   0.268   6.228
 4633POPC   C2B59324  18.535   0.355   6.674
 4633POPC   C3B59325  18.641   0.190   7.114
 4633POPC   C4B59326  18.424   0.243   7.534
 4634POPC   NC359327  33.900   1.026   5.452
 4634POPC   PO459328  33.442   1.572   5.522
 4634POPC   GL159329  33.679   1.334   5.784
 4634POPC   GL259330  33.912   1.527   5.937
 4634POPC   C1A59331  33.705   1.087   6.142
 4634POPC   D2A59332  33.929   1.165   6.506
 4634POPC   C3A59333  33.821   1.036   6.929
 4634POPC   C4A59334  33.609   1.129   7.292
 4634POPC   C1B59335  33.632   1.640   6.265
 4634POPC   C2B59336  33.585   1.769   6.715
 4634POPC   C3B59337  33.790   1.577   7.105
 4634POPC   C4B59338  33.937   1.450   7.561
 4635POPC   NC359339  32.618   0.498   5.346
 4635POPC   PO459340  31.941   0.659   5.509
 4635POPC   GL159341  32.192   0.346   5.768
 4635POPC   GL259342  32.574   0.362   5.823
 4635POPC   C1A59343  32.282   0.157   6.184
 4635POPC   D2A59344  32.258   0.332   6.595
 4635POPC   C3A59345  32.482   0.231   6.963
 4635POPC   C4A59346  32.317   0.152   7.374
 4635POPC   C1B59347  32.693   0.476   6.223
 4635POPC   C2B59348  32.605   0.734   6.572
 4635POPC   C3B59349  32.297   0.770   6.872
 4635POPC   C4B59350  32.453   0.656   7.249
 4636POPC   NC359351   2.987  31.882   5.489
 4636POPC   PO459352   2.526  31.450   5.449
 4636POPC   GL159353   2.619  31.718   5.834
 4636POPC   GL259354   2.965  31.705   5.986
 4636POPC   C1A59355   2.527  31.800   6.275
 4636POPC   D2A59356   2.408  31.755   6.721
 4636POPC   C3A59357   2.657  31.792   7.149
 4636POPC   C4A59358   2.563  31.563   7.572
 4636POPC   C1B59359   2.962  31.620   6.464
 4636POPC   C2B59360   2.737  31.383   6.810
 4636POPC   C3B59361   2.796  31.232   7.265
 4636POPC   C4B59362   2.907  31.204   7.741
 4637POPC   NC359363  15.867  14.634   5.262
 4637POPC   PO459364  15.981  13.978   5.312
 4637POPC   GL159365  16.084  14.341   5.635
 4637POPC   GL259366  15.820  14.559   5.816
 4637POPC   C1A59367  16.154  14.298   6.088
 4637POPC   D2A59368  15.827  14.265   6.412
 4637POPC   C3A59369  15.880  14.186   6.859
 4637POPC   C4A59370  15.632  14.183   7.220
 4637POPC   C1B59371  15.997  14.735   6.265
 4637POPC   C2B59372  15.855  14.698   6.726
 4637POPC   C3B59373  15.864  14.651   7.213
 4637POPC   C4B59374  15.994  14.760   7.689
 4638POPC   NC359375  41.613   8.780   5.381
 4638POPC   PO459376  41.455   9.360   5.623
 4638POPC   GL159377  41.660   9.021   5.852
 4638POPC   GL259378  41.454   8.707   5.878
 4638POPC   C1A59379  41.765   8.906   6.291
 4638POPC   D2A59380  41.852   9.154   6.659
 4638POPC   C3A59381  41.817   8.880   6.999
 4638POPC   C4A59382  41.965   8.810   7.415
 4638POPC   C1B59383  41.263   9.012   6.199
 4638POPC   C2B59384  41.270   8.881   6.644
 4638POPC   C3B59385  41.326   8.679   7.054
 4638POPC   C4B59386  41.283   8.928   7.428
 4639POPC   NC359387  37.319  16.096   5.699
 4639POPC   PO459388  37.834  15.947   5.231
 4639POPC   GL159389  37.805  15.933   5.722
 4639POPC   GL259390  37.745  16.258   5.944
 4639POPC   C1A59391  37.672  15.776   6.135
 4639POPC   D2A59392  37.823  15.799   6.520
 4639POPC   C3A59393  37.582  15.791   6.821
 4639POPC   C4A59394  37.505  15.794   7.216
 4639POPC   C1B59395  38.094  16.070   6.169
 4639POPC   C2B59396  38.242  16.116   6.572
 4639POPC   C3B59397  38.010  16.088   6.938
 4639POPC   C4B59398  37.930  16.018   7.361
 4640POPC   NC359399  22.895  23.284   5.323
 4640POPC   PO459400  22.744  23.911   5.383
 4640POPC   GL159401  22.884  23.750   5.823
 4640POPC   GL259402  22.735  23.390   5.829
 4640POPC   C1A59403  23.011  23.951   6.272
 4640POPC   D2A59404  22.799  23.842   6.684
 4640POPC   C3A59405  22.899  23.963   7.120
 4640POPC   C4A59406  22.996  24.105   7.595
 4640POPC   C1B59407  22.891  23.452   6.265
 4640POPC   C2B59408  23.147  23.468   6.639
 4640POPC   C3B59409  23.083  23.505   7.054
 4640POPC   C4B59410  22.799  23.286   7.331
 4641POPC   NC359411   6.170  19.253   5.391
 4641POPC   PO459412   5.601  18.778   5.386
 4641POPC   GL159413   5.724  19.116   5.734
 4641POPC   GL259414   6.097  19.057   5.860
 4641POPC   C1A59415   5.581  19.193   6.214
 4641POPC   D2A59416   5.550  19.212   6.717
 4641POPC   C3A59417   5.748  18.880   7.008
 4641POPC   C4A59418   5.736  18.767   7.451
 4641POPC   C1B59419   6.346  19.323   6.173
 4641POPC   C2B59420   6.190  19.482   6.579
 4641POPC   C3B59421   6.003  19.338   6.989
 4641POPC   C4B59422   6.236  18.985   7.161
 4642POPC   NC359423  30.484  17.853   5.600
 4642POPC   PO459424  30.962  17.317   5.492
 4642POPC   GL159425  30.863  17.593   5.808
 4642POPC   GL259426  30.551  17.402   5.856
 4642POPC   C1A59427  30.807  17.723   6.224
 4642POPC   D2A59428  30.955  17.513   6.587
 4642POPC   C3A59429  30.716  17.690   6.898
 4642POPC   C4A59430  30.722  17.663   7.324
 4642POPC   C1B59431  30.674  17.191   6.248
 4642POPC   C2B59432  30.522  17.258   6.697
 4642POPC   C3B59433  30.800  17.213   7.083
 4642POPC   C4B59434  30.711  17.207   7.548
 4643POPC   NC359435  34.121   8.072   5.446
 4643POPC   PO459436  34.675   8.403   5.300
 4643POPC   GL159437  34.675   8.566   5.714
 4643POPC   GL259438  34.295   8.472   5.764
 4643POPC   C1A59439  34.768   8.443   6.128
 4643POPC   D2A59440  34.664   8.234   6.508
 4643POPC   C3A59441  34.696   8.462   6.893
 4643POPC   C4A59442  34.675   8.328   7.305
 4643POPC   C1B59443  34.244   8.364   6.250
 4643POPC   C2B59444  34.215   8.311   6.741
 4643POPC   C3B59445  34.250   8.053   7.132
 4643POPC   C4B59446  34.238   8.186   7.564
 4644POPC   NC359447  42.608  21.561   5.328
 4644POPC   PO459448  41.997  21.209   5.376
 4644POPC   GL159449  42.219  21.118   5.800
 4644POPC   GL259450  42.448  21.404   5.852
 4644POPC   C1A59451  42.160  21.156   6.271
 4644POPC   D2A59452  41.986  21.031   6.680
 4644POPC   C3A59453  42.331  21.133   6.999
 4644POPC   C4A59454  42.465  21.061   7.482
 4644POPC   C1B59455  42.176  21.655   6.167
 4644POPC   C2B59456  41.966  21.546   6.581
 4644POPC   C3B59457  42.144  21.627   6.995
 4644POPC   C4B59458  42.469  21.522   7.286
 4645POPC   NC359459  41.859  11.047   5.304
 4645POPC   PO459460  41.654  11.660   5.274
 4645POPC   GL159461  41.557  11.476   5.705
 4645POPC   GL259462  41.587  11.114   5.750
 4645POPC   C1A59463  41.758  11.470   6.153
 4645POPC   D2A59464  41.792  11.161   6.497
 4645POPC   C3A59465  41.522  11.261   6.816
 4645POPC   C4A59466  41.421  11.062   7.182
 4645POPC   C1B59467  41.344  11.200   6.133
 4645POPC   C2B59468  41.204  11.498   6.462
 4645POPC   C3B59469  41.113  11.574   6.909
 4645POPC   C4B59470  41.443  11.582   7.218
 4646POPC   NC359471  13.058  26.208   5.461
 4646POPC   PO459472  12.537  25.802   5.587
 4646POPC   GL159473  12.662  26.182   5.805
 4646POPC   GL259474  12.427  26.456   5.823
 4646POPC   C1A59475  12.982  26.210   6.153
 4646POPC   D2A59476  13.049  25.904   6.506
 4646POPC   C3A59477  12.996  26.061   6.905
 4646POPC   C4A59478  13.096  25.917   7.302
 4646POPC   C1B59479  12.493  26.348   6.268
 4646POPC   C2B59480  12.764  26.435   6.611
 4646POPC   C3B59481  12.588  26.354   6.978
 4646POPC   C4B59482  12.636  26.112   7.289
 4647POPC   NC359483  34.084  20.418   5.612
 4647POPC   PO459484  33.640  20.875   5.444
 4647POPC   GL159485  33.614  20.576   5.789
 4647POPC   GL259486  33.887  20.792   5.902
 4647POPC   C1A59487  33.637  20.520   6.255
 4647POPC   D2A59488  33.768  20.772   6.630
 4647POPC   C3A59489  33.501  20.619   6.961
 4647POPC   C4A59490  33.358  20.772   7.349
 4647POPC   C1B59491  34.119  20.615   6.254
 4647POPC   C2B59492  34.296  20.567   6.605
 4647POPC   C3B59493  34.207  20.681   6.964
 4647POPC   C4B59494  33.906  20.716   7.238
 4648POPC   NC359495   6.161  40.725   5.233
 4648POPC   PO459496   6.853  40.596   5.352
 4648POPC   GL159497   6.936  40.773   5.757
 4648POPC   GL259498   6.601  40.891   5.872
 4648POPC   C1A59499   6.973  40.767   6.208
 4648POPC   D2A59500   6.688  40.737   6.575
 4648POPC   C3A59501   6.851  40.609   6.972
 4648POPC   C4A59502   6.860  40.863   7.310
 4648POPC   C1B59503   6.321  40.932   6.253
 4648POPC   C2B59504   6.207  40.884   6.676
 4648POPC   C3B59505   6.359  40.740   7.055
 4648POPC   C4B59506   6.371  40.694   7.480
 4649POPC   NC359507  35.338  42.649   5.504
 4649POPC   PO459508  35.601  42.131   5.174
 4649POPC   GL159509  35.600  42.245   5.697
 4649POPC   GL259510  35.746  42.554   5.870
 4649POPC   C1A59511  35.430  42.323   6.170
 4649POPC   D2A59512  35.248  42.148   6.554
 4649POPC   C3A59513  35.234  42.310   6.978
 4649POPC   C4A59514  35.594  42.199   7.197
 4649POPC   C1B59515  35.734  42.766   6.266
 4649POPC   C2B59516  35.592  42.539   6.648
 4649POPC   C3B59517  35.589  42.704   7.075
 4649POPC   C4B59518  35.456  42.997   7.363
 4650POPC   NC359519  42.773  22.410   5.446
 4650POPC   PO459520  43.150  21.816   5.553
 4650POPC   GL159521  43.129  22.216   5.795
 4650POPC   GL259522  42.803  22.315   5.953
 4650POPC   C1A59523  43.275  22.497   6.130
 4650POPC   D2A59524  43.381  22.369   6.562
 4650POPC   C3A59525  43.228  22.487   6.970
 4650POPC   C4A59526  42.983  22.281   7.281
 4650POPC   C1B59527  42.960  22.147   6.345
 4650POPC   C2B59528  42.981  22.069   6.770
 4650POPC   C3B59529  42.793  21.843   7.091
 4650POPC   C4B59530  42.785  21.913   7.564
 4651POPC   NC359531  12.195  31.830   5.341
 4651POPC   PO459532  11.929  31.166   5.268
 4651POPC   GL159533  11.999  31.310   5.695
 4651POPC   GL259534  11.752  31.564   5.761
 4651POPC   C1A59535  12.020  31.342   6.177
 4651POPC   D2A59536  11.835  31.464   6.592
 4651POPC   C3A59537  11.922  31.364   7.060
 4651POPC   C4A59538  12.143  31.610   7.315
 4651POPC   C1B59539  11.761  31.817   6.145
 4651POPC   C2B59540  11.927  31.999   6.532
 4651POPC   C3B59541  11.814  31.868   6.945
 4651POPC   C4B59542  11.573  31.843   7.330
 4652POPC   NC359543  37.255  36.087   5.462
 4652POPC   PO459544  36.594  36.261   5.449
 4652POPC   GL159545  36.859  36.096   5.823
 4652POPC   GL259546  37.228  36.142   5.961
 4652POPC   C1A59547  36.794  35.890   6.231
 4652POPC   D2A59548  36.754  36.025   6.668
 4652POPC   C3A59549  37.070  36.004   6.990
 4652POPC   C4A59550  37.180  36.001   7.430
 4652POPC   C1B59551  37.035  36.344   6.302
 4652POPC   C2B59552  37.087  36.548   6.678
 4652POPC   C3B59553  37.043  36.508   7.106
 4652POPC   C4B59554  36.976  36.448   7.565
 4653POPC   NC359555  29.906  25.829   5.429
 4653POPC   PO459556  30.261  26.317   5.479
 4653POPC   GL159557  29.993  26.147   5.823
 4653POPC   GL259558  30.087  25.813   5.912
 4653POPC   C1A59559  29.743  26.110   6.225
 4653POPC   D2A59560  29.846  25.968   6.643
 4653POPC   C3A59561  29.633  26.011   7.046
 4653POPC   C4A59562  29.699  26.031   7.490
 4653POPC   C1B59563  30.244  26.015   6.265
 4653POPC   C2B59564  30.352  25.874   6.645
 4653POPC   C3B59565  30.217  26.011   7.013
 4653POPC   C4B59566  30.466  26.069   7.361
 4654POPC   NC359567  30.737  29.004   5.466
 4654POPC   PO459568  31.384  28.920   5.372
 4654POPC   GL159569  31.088  29.142   5.805
 4654POPC   GL259570  30.788  29.322   5.890
 4654POPC   C1A59571  30.832  29.033   6.268
 4654POPC   D2A59572  30.396  29.158   6.404
 4654POPC   C3A59573  30.387  29.181   6.851
 4654POPC   C4A59574  30.697  29.105   7.202
 4654POPC   C1B59575  31.121  29.457   6.214
 4654POPC   C2B59576  31.284  29.494   6.663
 4654POPC   C3B59577  31.085  29.603   7.072
 4654POPC   C4B59578  30.812  29.587   7.421
 4655POPC   NC359579  23.370  17.296   5.600
 4655POPC   PO459580  22.960  17.840   5.509
 4655POPC   GL159581  22.817  17.561   5.853
 4655POPC   GL259582  22.872  17.201   5.787
 4655POPC   C1A59583  22.919  17.600   6.307
 4655POPC   D2A59584  22.799  17.545   6.755
 4655POPC   C3A59585  22.987  17.707   7.113
 4655POPC   C4A59586  23.124  17.960   7.487
 4655POPC   C1B59587  22.781  17.116   6.231
 4655POPC   C2B59588  22.974  17.045   6.671
 4655POPC   C3B59589  22.857  17.161   7.108
 4655POPC   C4B59590  22.577  17.433   7.283
 4656POPC   NC359591  44.972  43.357   5.321
 4656POPC   PO459592  44.475  43.846   5.277
 4656POPC   GL159593  44.512  43.838   5.774
 4656POPC   GL259594  44.698  44.146   5.804
 4656POPC   C1A59595  44.436  43.603   6.164
 4656POPC   D2A59596  44.497  43.775   6.592
 4656POPC   C3A59597  44.468  43.583   6.967
 4656POPC   C4A59598  44.510  43.762   7.322
 4656POPC   C1B59599  44.756  44.041   6.242
 4656POPC   C2B59600  44.888  44.096   6.691
 4656POPC   C3B59601  44.920  44.034   7.140
 4656POPC   C4B59602  44.900  44.297   7.539
 4657POPC   NC359603  12.943   3.599   5.517
 4657POPC   PO459604  12.267   3.323   5.434
 4657POPC   GL159605  12.484   3.571   5.776
 4657POPC   GL259606  12.666   3.264   5.828
 4657POPC   C1A59607  12.797   3.691   6.149
 4657POPC   D2A59608  12.985   3.798   6.564
 4657POPC   C3A59609  12.894   3.677   7.011
 4657POPC   C4A59610  13.110   3.893   7.346
 4657POPC   C1B59611  12.454   3.318   6.239
 4657POPC   C2B59612  12.565   3.502   6.649
 4657POPC   C3B59613  12.482   3.306   7.073
 4657POPC   C4B59614  12.556   3.256   7.533
 4658POPC   NC359615  28.606  19.432   5.398
 4658POPC   PO459616  28.352  18.803   5.336
 4658POPC   GL159617  28.282  19.102   5.696
 4658POPC   GL259618  28.586  19.218   5.857
 4658POPC   C1A59619  28.099  19.163   6.104
 4658POPC   D2A59620  28.271  19.242   6.513
 4658POPC   C3A59621  28.112  19.165   6.931
 4658POPC   C4A59622  28.462  19.227   7.244
 4658POPC   C1B59623  28.563  18.948   6.190
 4658POPC   C2B59624  28.396  18.715   6.523
 4658POPC   C3B59625  28.465  18.789   6.949
 4658POPC   C4B59626  28.537  18.732   7.370
 4659POPC   NC359627  40.630   0.864   5.694
 4659POPC   PO459628  40.513   0.214   5.496
 4659POPC   GL159629  40.728   0.199   5.890
 4659POPC   GL259630  41.037   0.384   5.834
 4659POPC   C1A59631  40.706   0.170   6.335
 4659POPC   D2A59632  40.745  44.985   6.760
 4659POPC   C3A59633  40.698   0.265   7.089
 4659POPC   C4A59634  40.671   0.589   7.357
 4659POPC   C1B59635  41.158   0.715   6.142
 4659POPC   C2B59636  40.929   0.939   6.480
 4659POPC   C3B59637  40.839   0.768   6.905
 4659POPC   C4B59638  41.054   0.894   7.293
 4660POPC   NC359639  38.048   2.189   5.159
 4660POPC   PO459640  37.599   1.848   5.505
 4660POPC   GL159641  37.793   1.928   5.873
 4660POPC   GL259642  38.099   2.122   5.840
 4660POPC   C1A59643  37.641   2.035   6.296
 4660POPC   D2A59644  37.818   2.032   6.734
 4660POPC   C3A59645  37.513   2.098   7.060
 4660POPC   C4A59646  37.308   2.121   7.450
 4660POPC   C1B59647  38.133   1.858   6.257
 4660POPC   C2B59648  38.102   1.604   6.678
 4660POPC   C3B59649  38.121   1.739   7.103
 4660POPC   C4B59650  38.024   2.139   7.223
 4661POPC   NC359651  16.386  22.172   5.478
 4661POPC   PO459652  15.746  22.216   5.401
 4661POPC   GL159653  15.967  22.212   5.817
 4661POPC   GL259654  15.913  21.906   6.028
 4661POPC   C1A59655  16.128  22.321   6.252
 4661POPC   D2A59656  16.299  22.248   6.674
 4661POPC   C3A59657  16.028  22.334   6.989
 4661POPC   C4A59658  15.876  22.103   7.330
 4661POPC   C1B59659  16.305  21.854   6.303
 4661POPC   C2B59660  16.214  21.728   6.690
 4661POPC   C3B59661  16.274  21.876   7.106
 4661POPC   C4B59662  16.266  21.856   7.578
 4662POPC   NC359663  44.498   5.529   5.261
 4662POPC   PO459664   0.128   5.363   5.387
 4662POPC   GL159665  44.942   5.132   5.795
 4662POPC   GL259666  44.602   4.919   5.784
 4662POPC   C1A59667  44.787   5.138   6.261
 4662POPC   D2A59668  44.762   4.789   6.643
 4662POPC   C3A59669  44.696   4.937   7.042
 4662POPC   C4A59670  44.814   5.330   7.234
 4662POPC   C1B59671  44.480   4.753   6.210
 4662POPC   C2B59672  44.260   4.880   6.605
 4662POPC   C3B59673  44.188   4.836   7.033
 4662POPC   C4B59674  44.319   5.179   7.305
 4663POPC   NC359675   4.308  19.224   5.396
 4663POPC   PO459676   4.083  18.669   5.634
 4663POPC   GL159677   4.432  18.886   5.886
 4663POPC   GL259678   4.330  19.234   5.895
 4663POPC   C1A59679   4.554  18.892   6.340
 4663POPC   D2A59680   4.196  18.906   6.648
 4663POPC   C3A59681   4.196  19.082   7.070
 4663POPC   C4A59682   4.340  19.019   7.501
 4663POPC   C1B59683   4.341  19.347   6.289
 4663POPC   C2B59684   4.459  19.336   6.685
 4663POPC   C3B59685   4.480  19.590   6.988
 4663POPC   C4B59686   4.380  19.508   7.359
 4664POPC   NC359687  11.788  32.486   5.481
 4664POPC   PO459688  12.313  32.278   5.236
 4664POPC   GL159689  12.180  32.185   5.700
 4664POPC   GL259690  11.911  32.276   5.922
 4664POPC   C1A59691  12.278  31.983   6.128
 4664POPC   D2A59692  12.498  32.033   6.531
 4664POPC   C3A59693  12.290  32.143   6.905
 4664POPC   C4A59694  12.458  32.332   7.285
 4664POPC   C1B59695  11.906  32.594   6.260
 4664POPC   C2B59696  11.873  32.495   6.719
 4664POPC   C3B59697  11.979  32.455   7.155
 4664POPC   C4B59698  12.016  32.087   7.365
 4665POPC   NC359699  32.636  19.593   5.633
 4665POPC   PO459700  32.127  19.941   5.437
 4665POPC   GL159701  32.140  19.770   5.881
 4665POPC   GL259702  32.463  19.834   6.037
 4665POPC   C1A59703  31.999  19.832   6.337
 4665POPC   D2A59704  32.059  20.179   6.663
 4665POPC   C3A59705  32.110  20.043   7.121
 4665POPC   C4A59706  32.091  19.640   7.412
 4665POPC   C1B59707  32.708  19.561   6.334
 4665POPC   C2B59708  32.501  19.626   6.710
 4665POPC   C3B59709  32.518  19.682   7.143
 4665POPC   C4B59710  32.550  19.502   7.560
 4666POPC   NC359711  30.610  41.934   5.128
 4666POPC   PO459712  31.036  42.384   5.460
 4666POPC   GL159713  30.827  42.466   5.849
 4666POPC   GL259714  30.586  42.190   5.827
 4666POPC   C1A59715  30.926  42.472   6.293
 4666POPC   D2A59716  30.860  42.267   6.702
 4666POPC   C3A59717  30.728  42.568   7.019
 4666POPC   C4A59718  30.301  42.613   7.143
 4666POPC   C1B59719  30.681  42.000   6.241
 4666POPC   C2B59720  30.446  41.914   6.617
 4666POPC   C3B59721  30.437  42.120   6.986
 4666POPC   C4B59722  30.778  42.116   7.239
 4667POPC   NC359723   0.604  32.347   5.540
 4667POPC   PO459724   0.151  31.860   5.503
 4667POPC   GL159725   0.286  32.099   5.864
 4667POPC   GL259726   0.379  32.470   5.977
 4667POPC   C1A59727   0.297  32.050   6.277
 4667POPC   D2A59728   0.337  32.326   6.594
 4667POPC   C3A59729   0.491  32.155   6.972
 4667POPC   C4A59730   0.481  32.173   7.398
 4667POPC   C1B59731   0.739  32.350   6.275
 4667POPC   C2B59732   0.856  32.429   6.730
 4667POPC   C3B59733   0.690  32.635   7.114
 4667POPC   C4B59734   0.826  32.984   7.364
 4668POPC   NC359735   9.628  26.767   5.299
 4668POPC   PO459736  10.143  27.050   5.531
 4668POPC   GL159737   9.975  26.785   5.856
 4668POPC   GL259738   9.671  26.611   5.787
 4668POPC   C1A59739   9.930  26.783   6.324
 4668POPC   D2A59740   9.642  26.880   6.674
 4668POPC   C3A59741   9.729  27.041   7.102
 4668POPC   C4A59742   9.616  27.172   7.568
 4668POPC   C1B59743   9.648  26.373   6.165
 4668POPC   C2B59744   9.709  26.353   6.622
 4668POPC   C3B59745   9.443  26.506   6.991
 4668POPC   C4B59746   9.284  26.371   7.425
 4669POPC   NC359747  21.072  33.503   4.988
 4669POPC   PO459748  20.768  32.887   5.351
 4669POPC   GL159749  20.670  32.986   5.790
 4669POPC   GL259750  20.600  33.349   5.800
 4669POPC   C1A59751  20.746  32.989   6.253
 4669POPC   D2A59752  20.714  33.030   6.697
 4669POPC   C3A59753  20.801  32.811   7.082
 4669POPC   C4A59754  20.445  32.713   7.324
 4669POPC   C1B59755  20.440  33.409   6.246
 4669POPC   C2B59756  20.568  33.522   6.697
 4669POPC   C3B59757  20.602  33.296   7.110
 4669POPC   C4B59758  20.260  33.231   7.404
 4670POPC   NC359759   7.343  13.962   5.258
 4670POPC   PO459760   7.616  14.537   5.419
 4670POPC   GL159761   7.420  14.369   5.761
 4670POPC   GL259762   7.344  14.729   5.843
 4670POPC   C1A59763   7.522  14.401   6.205
 4670POPC   D2A59764   7.804  14.354   6.568
 4670POPC   C3A59765   7.535  14.367   6.930
 4670POPC   C4A59766   7.525  14.543   7.342
 4670POPC   C1B59767   7.447  14.978   6.197
 4670POPC   C2B59768   7.476  14.791   6.592
 4670POPC   C3B59769   7.306  14.822   6.992
 4670POPC   C4B59770   7.231  14.953   7.442
 4671POPC   NC359771   4.057  12.986   5.247
 4671POPC   PO459772   4.591  13.203   5.424
 4671POPC   GL159773   4.459  12.807   5.672
 4671POPC   GL259774   4.101  12.712   5.734
 4671POPC   C1A59775   4.513  12.554   6.089
 4671POPC   D2A59776   4.362  12.580   6.529
 4671POPC   C3A59777   4.523  12.461   6.943
 4671POPC   C4A59778   4.620  12.745   7.255
 4671POPC   C1B59779   3.989  12.567   6.168
 4671POPC   C2B59780   3.880  12.438   6.626
 4671POPC   C3B59781   3.780  12.585   7.040
 4671POPC   C4B59782   4.126  12.786   7.196
 4672POPC   NC359783   9.778  31.824   5.072
 4672POPC   PO459784   9.668  32.417   5.418
 4672POPC   GL159785   9.801  32.317   5.860
 4672POPC   GL259786   9.521  32.160   6.045
 4672POPC   C1A59787   9.920  32.378   6.280
 4672POPC   D2A59788  10.019  32.125   6.619
 4672POPC   C3A59789   9.821  32.323   6.901
 4672POPC   C4A59790   9.750  32.607   7.177
 4672POPC   C1B59791   9.375  32.459   6.395
 4672POPC   C2B59792   9.297  32.593   6.839
 4672POPC   C3B59793   9.356  32.282   7.143
 4672POPC   C4B59794   9.664  31.914   7.147
 4673POPC   NC359795  13.351  14.379   5.399
 4673POPC   PO459796  14.066  14.260   5.490
 4673POPC   GL159797  13.912  14.419   5.888
 4673POPC   GL259798  13.553  14.394   5.886
 4673POPC   C1A59799  13.809  14.527   6.324
 4673POPC   D2A59800  13.585  14.421   6.679
 4673POPC   C3A59801  13.831  14.633   6.993
 4673POPC   C4A59802  13.999  14.619   7.380
 4673POPC   C1B59803  13.574  14.088   6.220
 4673POPC   C2B59804  13.332  13.936   6.543
 4673POPC   C3B59805  13.214  14.142   6.913
 4673POPC   C4B59806  13.456  14.357   7.221
 4674POPC   NC359807  24.813  29.952   5.313
 4674POPC   PO459808  24.088  29.811   5.349
 4674POPC   GL159809  24.238  29.935   5.774
 4674POPC   GL259810  24.584  29.945   5.765
 4674POPC   C1A59811  24.385  29.773   6.212
 4674POPC   D2A59812  24.349  29.597   6.647
 4674POPC   C3A59813  24.337  29.767   7.080
 4674POPC   C4A59814  24.413  29.679   7.517
 4674POPC   C1B59815  24.741  30.143   6.142
 4674POPC   C2B59816  24.633  30.058   6.579
 4674POPC   C3B59817  24.791  29.975   6.985
 4674POPC   C4B59818  24.749  30.054   7.423
 4675POPC   NC359819  25.536  12.019   5.714
 4675POPC   PO459820  24.871  12.005   5.523
 4675POPC   GL159821  25.078  12.262   5.827
 4675POPC   GL259822  25.089  11.971   6.053
 4675POPC   C1A59823  25.098  12.451   6.240
 4675POPC   D2A59824  25.015  12.162   6.583
 4675POPC   C3A59825  25.112  12.308   6.985
 4675POPC   C4A59826  25.131  12.183   7.441
 4675POPC   C1B59827  25.453  12.076   6.331
 4675POPC   C2B59828  25.485  12.000   6.730
 4675POPC   C3B59829  25.361  11.876   7.119
 4675POPC   C4B59830  25.575  11.881   7.468
 4676POPC   NC359831  33.473  12.179   5.591
 4676POPC   PO459832  33.999  11.805   5.437
 4676POPC   GL159833  33.863  11.884   5.866
 4676POPC   GL259834  33.507  11.850   5.983
 4676POPC   C1A59835  33.947  11.933   6.313
 4676POPC   D2A59836  34.098  12.208   6.655
 4676POPC   C3A59837  34.095  11.939   7.009
 4676POPC   C4A59838  33.727  11.861   7.236
 4676POPC   C1B59839  33.550  12.256   6.247
 4676POPC   C2B59840  33.475  12.333   6.671
 4676POPC   C3B59841  33.743  12.359   7.014
 4676POPC   C4B59842  33.756  12.465   7.445
 4677POPC   NC359843  41.368  15.131   5.331
 4677POPC   PO459844  41.076  15.726   5.510
 4677POPC   GL159845  41.382  15.430   5.753
 4677POPC   GL259846  41.598  15.075   5.772
 4677POPC   C1A59847  41.517  15.341   6.183
 4677POPC   D2A59848  41.360  15.124   6.519
 4677POPC   C3A59849  41.445  15.351   6.899
 4677POPC   C4A59850  41.424  15.058   7.200
 4677POPC   C1B59851  41.749  14.710   5.991
 4677POPC   C2B59852  41.655  14.645   6.418
 4677POPC   C3B59853  41.650  14.768   6.832
 4677POPC   C4B59854  41.682  14.588   7.223
 4678POPC   NC359855   6.644  35.820   5.576
 4678POPC   PO459856   6.359  36.444   5.503
 4678POPC   GL159857   6.561  36.242   5.859
 4678POPC   GL259858   6.285  35.962   5.887
 4678POPC   C1A59859   6.927  36.068   6.151
 4678POPC   D2A59860   7.122  36.056   6.589
 4678POPC   C3A59861   6.794  36.130   6.909
 4678POPC   C4A59862   6.637  36.460   7.185
 4678POPC   C1B59863   6.429  36.013   6.298
 4678POPC   C2B59864   6.481  35.818   6.665
 4678POPC   C3B59865   6.299  36.007   7.032
 4678POPC   C4B59866   6.265  35.922   7.456
 4679POPC   NC359867  21.805   2.957   5.448
 4679POPC   PO459868  21.177   2.694   5.346
 4679POPC   GL159869  21.286   2.637   5.794
 4679POPC   GL259870  21.123   2.899   6.018
 4679POPC   C1A59871  21.495   2.523   6.203
 4679POPC   D2A59872  21.607   2.675   6.637
 4679POPC   C3A59873  21.548   2.481   7.047
 4679POPC   C4A59874  21.452   2.657   7.448
 4679POPC   C1B59875  21.505   3.034   6.286
 4679POPC   C2B59876  21.606   3.231   6.651
 4679POPC   C3B59877  21.570   3.025   7.049
 4679POPC   C4B59878  21.193   3.116   7.312
 4680POPC   NC359879   0.002  31.430   5.628
 4680POPC   PO459880  44.369  31.671   5.571
 4680POPC   GL159881  44.581  31.546   5.894
 4680POPC   GL259882  44.626  31.182   5.907
 4680POPC   C1A59883  44.841  31.745   6.180
 4680POPC   D2A59884   0.122  31.585   6.480
 4680POPC   C3A59885  44.968  31.481   6.908
 4680POPC   C4A59886  44.722  31.754   7.186
 4680POPC   C1B59887  44.640  31.291   6.337
 4680POPC   C2B59888  44.503  31.567   6.661
 4680POPC   C3B59889  44.469  31.341   7.051
 4680POPC   C4B59890  44.554  31.352   7.499
 4681POPC   NC359891  22.914  11.041   5.432
 4681POPC   PO459892  22.831  11.679   5.493
 4681POPC   GL159893  22.626  11.462   5.864
 4681POPC   GL259894  22.682  11.088   5.889
 4681POPC   C1A59895  22.692  11.398   6.326
 4681POPC   D2A59896  22.597  11.047   6.620
 4681POPC   C3A59897  22.724  11.200   7.017
 4681POPC   C4A59898  22.699  11.634   7.184
 4681POPC   C1B59899  23.087  11.134   6.110
 4681POPC   C2B59900  23.279  11.425   6.402
 4681POPC   C3B59901  23.303  11.559   6.830
 4681POPC   C4B59902  23.180  11.347   7.174
 4682POPC   NC359903  30.925  38.034   5.577
 4682POPC   PO459904  30.792  37.438   5.338
 4682POPC   GL159905  30.767  37.471   5.804
 4682POPC   GL259906  30.430  37.378   5.861
 4682POPC   C1A59907  30.646  37.715   6.212
 4682POPC   D2A59908  30.792  37.923   6.610
 4682POPC   C3A59909  30.713  37.798   7.061
 4682POPC   C4A59910  30.994  37.794   7.455
 4682POPC   C1B59911  30.250  37.347   6.271
 4682POPC   C2B59912  30.387  37.547   6.672
 4682POPC   C3B59913  30.462  37.318   7.080
 4682POPC   C4B59914  30.689  37.378   7.461
 4683POPC   NC359915  25.820  39.054   5.519
 4683POPC   PO459916  26.524  39.170   5.690
 4683POPC   GL159917  26.156  39.102   5.886
 4683POPC   GL259918  25.920  39.397   5.956
 4683POPC   C1A59919  25.949  38.971   6.220
 4683POPC   D2A59920  25.780  39.210   6.522
 4683POPC   C3A59921  26.043  39.161   6.835
 4683POPC   C4A59922  25.977  39.186   7.220
 4683POPC   C1B59923  26.251  39.378   6.316
 4683POPC   C2B59924  26.461  39.435   6.729
 4683POPC   C3B59925  26.400  39.476   7.188
 4683POPC   C4B59926  26.089  39.555   7.569
 4684POPC   NC359927   5.308   3.697   5.548
 4684POPC   PO459928   4.798   3.251   5.683
 4684POPC   GL159929   4.981   3.544   5.927
 4684POPC   GL259930   5.030   3.890   5.944
 4684POPC   C1A59931   4.823   3.614   6.318
 4684POPC   D2A59932   4.795   3.269   6.576
 4684POPC   C3A59933   4.782   3.495   6.926
 4684POPC   C4A59934   5.001   3.606   7.274
 4684POPC   C1B59935   5.423   3.797   6.198
 4684POPC   C2B59936   5.494   3.667   6.631
 4684POPC   C3B59937   5.411   3.855   7.031
 4684POPC   C4B59938   5.440   3.767   7.478
 4685POPC   NC359939  24.272  14.100   5.509
 4685POPC   PO459940  24.787  14.482   5.283
 4685POPC   GL159941  24.596  14.483   5.753
 4685POPC   GL259942  24.455  14.186   5.954
 4685POPC   C1A59943  24.481  14.575   6.236
 4685POPC   D2A59944  24.296  14.362   6.579
 4685POPC   C3A59945  24.492  14.484   6.946
 4685POPC   C4A59946  24.286  14.424   7.289
 4685POPC   C1B59947  24.522  13.973   6.314
 4685POPC   C2B59948  24.671  13.917   6.706
 4685POPC   C3B59949  24.725  14.039   7.115
 4685POPC   C4B59950  24.529  14.043   7.520
 4686POPC   NC359951   7.638   6.128   5.443
 4686POPC   PO459952   7.025   6.152   5.673
 4686POPC   GL159953   7.364   5.996   5.872
 4686POPC   GL259954   7.494   5.668   5.699
 4686POPC   C1A59955   7.290   6.040   6.311
 4686POPC   D2A59956   7.146   6.365   6.613
 4686POPC   C3A59957   7.398   6.312   6.963
 4686POPC   C4A59958   7.449   6.102   7.323
 4686POPC   C1B59959   7.307   5.541   6.083
 4686POPC   C2B59960   7.393   5.429   6.509
 4686POPC   C3B59961   7.308   5.687   6.881
 4686POPC   C4B59962   7.363   5.596   7.309
 4687POPC   NC359963   5.665  13.086   5.456
 4687POPC   PO459964   5.941  12.494   5.417
 4687POPC   GL159965   5.855  12.722   5.771
 4687POPC   GL259966   5.487  12.665   5.786
 4687POPC   C1A59967   5.815  13.053   6.108
 4687POPC   D2A59968   6.099  13.247   6.418
 4687POPC   C3A59969   6.100  13.123   6.866
 4687POPC   C4A59970   5.774  13.194   7.183
 4687POPC   C1B59971   5.676  12.567   6.214
 4687POPC   C2B59972   5.823  12.798   6.565
 4687POPC   C3B59973   5.832  12.721   7.003
 4687POPC   C4B59974   5.667  12.735   7.426
 4688POPC   NC359975  43.687  17.135   5.039
 4688POPC   PO459976  44.157  16.734   5.333
 4688POPC   GL159977  44.112  16.689   5.781
 4688POPC   GL259978  44.447  16.592   5.791
 4688POPC   C1A59979  43.808  16.651   6.163
 4688POPC   D2A59980  43.606  16.806   6.589
 4688POPC   C3A59981  43.680  16.566   6.971
 4688POPC   C4A59982  43.810  16.703   7.360
 4688POPC   C1B59983  44.320  16.552   6.224
 4688POPC   C2B59984  44.122  16.738   6.578
 4688POPC   C3B59985  44.178  16.823   7.004
 4688POPC   C4B59986  44.277  16.521   7.286
 4689POPC   NC359987  19.506  39.184   5.377
 4689POPC   PO459988  20.046  39.276   5.273
 4689POPC   GL159989  19.994  39.244   5.736
 4689POPC   GL259990  19.721  39.027   5.832
 4689POPC   C1A59991  20.075  39.125   6.207
 4689POPC   D2A59992  19.877  38.916   6.601
 4689POPC   C3A59993  19.884  39.097   7.039
 4689POPC   C4A59994  20.090  39.432   7.248
 4689POPC   C1B59995  19.569  39.208   6.265
 4689POPC   C2B59996  19.477  39.229   6.743
 4689POPC   C3B59997  19.475  39.389   7.188
 4689POPC   C4B59998  19.380  39.625   7.563
 4690POPC   NC359999  38.193  40.961   5.523
 4690POPC   PO460000  38.616  40.587   5.375
 4690POPC   GL160001  38.481  40.599   5.768
 4690POPC   GL260002  38.673  40.314   5.860
 4690POPC   C1A60003  38.332  40.841   6.136
 4690POPC   D2A60004  38.375  41.068   6.495
 4690POPC   C3A60005  38.179  40.923   6.834
 4690POPC   C4A60006  38.329  40.816   7.214
 4690POPC   C1B60007  38.504  40.367   6.231
 4690POPC   C2B60008  38.421  40.544   6.576
 4690POPC   C3B60009  38.360  40.381   6.952
 4690POPC   C4B60010  38.701  40.435   7.152
 4691POPC   NC360011  15.270  32.744   5.414
 4691POPC   PO460012  14.975  32.127   5.491
 4691POPC   GL160013  15.007  31.977   5.906
 4691POPC   GL260014  15.260  32.239   5.968
 4691POPC   C1A60015  14.974  32.024   6.336
 4691POPC   D2A60016  14.908  32.357   6.606
 4691POPC   C3A60017  15.027  32.395   7.029
 4691POPC   C4A60018  15.003  32.098   7.355
 4691POPC   C1B60019  15.357  32.479   6.351
 4691POPC   C2B60020  15.596  32.470   6.738
 4691POPC   C3B60021  15.508  32.246   7.113
 4691POPC   C4B60022  15.365  32.448   7.455
 4692POPC   NC360023  25.228  14.590   5.310
 4692POPC   PO460024  25.672  14.081   5.519
 4692POPC   GL160025  25.410  14.332   5.835
 4692POPC   GL260026  25.108  14.496   5.782
 4692POPC   C1A60027  25.358  14.533   6.254
 4692POPC   D2A60028  25.511  14.387   6.673
 4692POPC   C3A60029  25.516  14.619   7.039
 4692POPC   C4A60030  25.345  14.388   7.391
 4692POPC   C1B60031  24.918  14.302   6.143
 4692POPC   C2B60032  24.850  14.435   6.566
 4692POPC   C3B60033  25.029  14.419   6.977
 4692POPC   C4B60034  24.841  14.438   7.409
 4693POPC   NC360035   5.242  38.453   5.488
 4693POPC   PO460036   4.569  38.235   5.484
 4693POPC   GL160037   4.861  38.233   5.814
 4693POPC   GL260038   4.935  38.577   5.898
 4693POPC   C1A60039   5.078  38.220   6.235
 4693POPC   D2A60040   5.248  38.155   6.662
 4693POPC   C3A60041   4.926  38.225   6.988
 4693POPC   C4A60042   4.767  38.625   7.137
 4693POPC   C1B60043   5.371  38.618   6.105
 4693POPC   C2B60044   5.467  38.617   6.531
 4693POPC   C3B60045   5.210  38.662   6.875
 4693POPC   C4B60046   5.195  38.854   7.288
 4694POPC   NC360047   2.338   7.932   5.441
 4694POPC   PO460048   3.027   7.950   5.532
 4694POPC   GL160049   2.979   8.173   5.884
 4694POPC   GL260050   2.813   8.524   5.823
 4694POPC   C1A60051   3.189   8.087   6.241
 4694POPC   D2A60052   3.007   8.005   6.604
 4694POPC   C3A60053   2.824   8.343   6.846
 4694POPC   C4A60054   2.978   8.350   7.272
 4694POPC   C1B60055   2.771   8.395   6.284
 4694POPC   C2B60056   2.525   8.050   6.425
 4694POPC   C3B60057   2.499   7.947   6.850
 4694POPC   C4B60058   2.439   8.172   7.232
 4695POPC   NC360059  36.135   7.816   5.456
 4695POPC   PO460060  36.369   8.483   5.391
 4695POPC   GL160061  36.111   8.246   5.739
 4695POPC   GL260062  36.283   7.961   5.916
 4695POPC   C1A60063  35.979   8.323   6.176
 4695POPC   D2A60064  36.090   8.481   6.616
 4695POPC   C3A60065  35.913   8.211   6.964
 4695POPC   C4A60066  35.946   8.237   7.447
 4695POPC   C1B60067  36.392   8.021   6.334
 4695POPC   C2B60068  36.374   8.069   6.782
 4695POPC   C3B60069  36.392   8.015   7.208
 4695POPC   C4B60070  36.320   7.803   7.574
 4696POPC   NC360071  13.003  13.442   5.370
 4696POPC   PO460072  12.438  13.641   5.437
 4696POPC   GL160073  12.765  13.631   5.798
 4696POPC   GL260074  12.979  13.317   5.894
 4696POPC   C1A60075  12.939  13.714   6.224
 4696POPC   D2A60076  13.050  13.522   6.639
 4696POPC   C3A60077  12.878  13.766   6.986
 4696POPC   C4A60078  13.084  13.851   7.330
 4696POPC   C1B60079  12.776  13.222   6.321
 4696POPC   C2B60080  12.618  13.211   6.769
 4696POPC   C3B60081  12.778  13.297   7.184
 4696POPC   C4B60082  13.020  12.973   7.359
 4697POPC   NC360083  32.470  20.384   5.393
 4697POPC   PO460084  32.058  20.935   5.351
 4697POPC   GL160085  32.118  20.818   5.788
 4697POPC   GL260086  32.383  20.737   5.787
 4697POPC   C1A60087  32.201  20.441   6.158
 4697POPC   D2A60088  32.570  20.376   6.490
 4697POPC   C3A60089  32.438  20.430   6.931
 4697POPC   C4A60090  31.991  20.571   7.019
 4697POPC   C1B60091  32.461  20.856   6.246
 4697POPC   C2B60092  32.621  20.876   6.701
 4697POPC   C3B60093  32.416  20.903   7.141
 4697POPC   C4B60094  32.531  20.856   7.595
 4698POPC   NC360095   9.508  12.174   5.495
 4698POPC   PO460096   9.911  11.705   5.260
 4698POPC   GL160097   9.890  11.902   5.729
 4698POPC   GL260098   9.581  11.916   5.912
 4698POPC   C1A60099  10.006  12.017   6.207
 4698POPC   D2A60100  10.206  11.757   6.578
 4698POPC   C3A60101  10.044  11.727   7.008
 4698POPC   C4A60102   9.733  11.971   7.246
 4698POPC   C1B60103   9.495  12.084   6.325
 4698POPC   C2B60104   9.412  12.297   6.736
 4698POPC   C3B60105   9.170  12.297   7.136
 4698POPC   C4B60106   9.360  12.267   7.553
 4699POPC   NC360107  13.635  30.687   5.242
 4699POPC   PO460108  13.686  30.197   5.655
 4699POPC   GL160109  13.551  30.572   5.825
 4699POPC   GL260110  13.309  30.717   5.642
 4699POPC   C1A60111  13.542  30.650   6.262
 4699POPC   D2A60112  13.767  30.809   6.595
 4699POPC   C3A60113  13.747  30.512   6.915
 4699POPC   C4A60114  13.891  30.527   7.315
 4699POPC   C1B60115  13.165  30.917   6.037
 4699POPC   C2B60116  13.143  30.985   6.466
 4699POPC   C3B60117  13.308  30.840   6.848
 4699POPC   C4B60118  13.402  30.704   7.266
 4700POPC   NC360119   9.214   3.535   5.411
 4700POPC   PO460120   8.549   3.258   5.437
 4700POPC   GL160121   8.842   3.389   5.793
 4700POPC   GL260122   8.722   3.729   5.907
 4700POPC   C1A60123   9.108   3.476   6.198
 4700POPC   D2A60124   9.011   3.759   6.576
 4700POPC   C3A60125   9.067   3.617   7.023
 4700POPC   C4A60126   9.187   3.827   7.414
 4700POPC   C1B60127   8.611   3.545   6.320
 4700POPC   C2B60128   8.550   3.618   6.765
 4700POPC   C3B60129   8.586   3.679   7.187
 4700POPC   C4B60130   8.724   3.273   7.314
 4701POPC   NC360131  34.762  20.796   5.392
 4701POPC   PO460132  35.440  20.662   5.328
 4701POPC   GL160133  35.415  20.787   5.765
 4701POPC   GL260134  35.077  20.729   5.778
 4701POPC   C1A60135  35.548  20.667   6.205
 4701POPC   D2A60136  35.697  20.708   6.626
 4701POPC   C3A60137  35.385  20.503   6.891
 4701POPC   C4A60138  35.307  20.208   7.239
 4701POPC   C1B60139  35.034  20.789   6.188
 4701POPC   C2B60140  34.980  20.639   6.575
 4701POPC   C3B60141  35.010  20.838   6.969
 4701POPC   C4B60142  35.165  20.706   7.320
 4702POPC   NC360143  35.202   3.956   5.571
 4702POPC   PO460144  35.557   3.488   5.399
 4702POPC   GL160145  35.658   3.458   5.819
 4702POPC   GL260146  35.613   3.790   5.841
 4702POPC   C1A60147  35.333   3.522   6.160
 4702POPC   D2A60148  35.115   3.439   6.533
 4702POPC   C3A60149  35.185   3.690   6.908
 4702POPC   C4A60150  35.186   3.486   7.295
 4702POPC   C1B60151  35.764   3.755   6.249
 4702POPC   C2B60152  35.679   3.436   6.569
 4702POPC   C3B60153  35.645   3.459   7.011
 4702POPC   C4B60154  35.616   3.775   7.326
 4703POPC   NC360155   9.498   5.175   5.642
 4703POPC   PO460156  10.136   4.815   5.571
 4703POPC   GL160157   9.909   4.802   5.912
 4703POPC   GL260158   9.571   4.656   5.767
 4703POPC   C1A60159  10.057   5.082   6.256
 4703POPC   D2A60160   9.869   5.194   6.647
 4703POPC   C3A60161  10.003   5.255   7.071
 4703POPC   C4A60162   9.670   5.232   7.400
 4703POPC   C1B60163   9.478   4.840   6.185
 4703POPC   C2B60164   9.513   4.826   6.596
 4703POPC   C3B60165   9.470   5.012   6.989
 4703POPC   C4B60166   9.243   4.876   7.352
 4704POPC   NC360167   4.003   0.733   5.623
 4704POPC   PO460168   4.112   0.041   5.560
 4704POPC   GL160169   4.108   0.294   5.893
 4704POPC   GL260170   4.424   0.470   5.865
 4704POPC   C1A60171   4.068   0.489   6.291
 4704POPC   D2A60172   4.369   0.451   6.613
 4704POPC   C3A60173   4.186   0.408   6.998
 4704POPC   C4A60174   4.021   0.551   7.372
 4704POPC   C1B60175   4.558   0.752   6.207
 4704POPC   C2B60176   4.665   0.868   6.636
 4704POPC   C3B60177   4.735   0.564   6.986
 4704POPC   C4B60178   4.553   0.470   7.359
 4705POPC   NC360179  23.769  12.611   5.592
 4705POPC   PO460180  23.976  13.281   5.645
 4705POPC   GL160181  23.780  13.013   5.913
 4705POPC   GL260182  24.080  12.824   5.935
 4705POPC   C1A60183  23.562  12.731   6.226
 4705POPC   D2A60184  23.428  12.447   6.578
 4705POPC   C3A60185  23.432  12.713   6.934
 4705POPC   C4A60186  23.405  13.132   7.113
 4705POPC   C1B60187  24.050  12.517   6.242
 4705POPC   C2B60188  23.901  12.664   6.628
 4705POPC   C3B60189  24.066  12.752   7.029
 4705POPC   C4B60190  23.872  13.003   7.326
 4706POPC   NC360191   0.948   4.064   5.454
 4706POPC   PO460192   1.409   4.583   5.485
 4706POPC   GL160193   1.305   4.306   5.815
 4706POPC   GL260194   0.964   4.420   5.815
 4706POPC   C1A60195   1.445   4.254   6.248
 4706POPC   D2A60196   1.203   4.195   6.644
 4706POPC   C3A60197   1.216   3.870   6.905
 4706POPC   C4A60198   1.619   3.902   7.106
 4706POPC   C1B60199   0.940   4.321   6.225
 4706POPC   C2B60200   0.819   4.526   6.603
 4706POPC   C3B60201   0.807   4.314   6.991
 4706POPC   C4B60202   1.169   4.233   7.250
 4707POPC   NC360203  32.587  28.389   5.543
 4707POPC   PO460204  31.933  28.350   5.318
 4707POPC   GL160205  32.094  28.195   5.721
 4707POPC   GL260206  32.345  27.934   5.711
 4707POPC   C1A60207  32.065  28.148   6.177
 4707POPC   D2A60208  31.811  28.116   6.563
 4707POPC   C3A60209  32.041  28.124   6.936
 4707POPC   C4A60210  32.162  28.445   7.205
 4707POPC   C1B60211  32.573  28.030   6.092
 4707POPC   C2B60212  32.523  28.084   6.531
 4707POPC   C3B60213  32.605  28.204   6.945
 4707POPC   C4B60214  32.423  28.011   7.303
 4708POPC   NC360215  29.490  13.704   5.599
 4708POPC   PO460216  28.834  13.388   5.528
 4708POPC   GL160217  29.001  13.299   5.914
 4708POPC   GL260218  29.337  13.328   5.887
 4708POPC   C1A60219  29.115  13.628   6.211
 4708POPC   D2A60220  29.152  13.929   6.526
 4708POPC   C3A60221  29.138  13.834   6.959
 4708POPC   C4A60222  29.049  13.862   7.408
 4708POPC   C1B60223  29.598  13.441   6.228
 4708POPC   C2B60224  29.485  13.567   6.584
 4708POPC   C3B60225  29.616  13.642   6.939
 4708POPC   C4B60226  29.465  13.616   7.321
 4709POPC   NC360227  12.484  25.395   5.366
 4709POPC   PO460228  12.992  24.981   5.219
 4709POPC   GL160229  12.771  25.069   5.639
 4709POPC   GL260230  12.826  25.417   5.768
 4709POPC   C1A60231  12.684  25.048   6.108
 4709POPC   D2A60232  12.518  24.942   6.537
 4709POPC   C3A60233  12.598  25.122   6.953
 4709POPC   C4A60234  12.956  25.089   7.212
 4709POPC   C1B60235  12.643  25.566   6.187
 4709POPC   C2B60236  12.794  25.415   6.563
 4709POPC   C3B60237  13.008  25.536   6.932
 4709POPC   C4B60238  12.715  25.578   7.252
 4710POPC   NC360239  14.111  27.484   5.535
 4710POPC   PO460240  14.652  27.886   5.354
 4710POPC   GL160241  14.411  27.838   5.753
 4710POPC   GL260242  14.578  27.537   5.882
 4710POPC   C1A60243  14.257  27.755   6.217
 4710POPC   D2A60244  14.236  27.930   6.682
 4710POPC   C3A60245  14.191  27.653   7.048
 4710POPC   C4A60246  14.332  27.611   7.525
 4710POPC   C1B60247  14.721  27.433   6.313
 4710POPC   C2B60248  14.640  27.558   6.747
 4710POPC   C3B60249  14.648  27.425   7.149
 4710POPC   C4B60250  14.829  27.239   7.504
 4711POPC   NC360251   0.311  36.831   5.531
 4711POPC   PO460252  44.571  36.917   5.400
 4711POPC   GL160253  44.696  37.020   5.819
 4711POPC   GL260254   0.015  37.182   5.876
 4711POPC   C1A60255  44.476  37.173   6.172
 4711POPC   D2A60256  44.352  37.033   6.558
 4711POPC   C3A60257  44.420  37.175   6.960
 4711POPC   C4A60258  44.309  36.954   7.344
 4711POPC   C1B60259  44.907  36.956   6.317
 4711POPC   C2B60260  44.851  36.969   6.800
 4711POPC   C3B60261   0.029  36.839   7.233
 4711POPC   C4B60262   0.391  36.584   7.317
 4712POPC   NC360263   1.530  32.511   5.442
 4712POPC   PO460264   0.991  32.109   5.465
 4712POPC   GL160265   1.153  32.155   5.880
 4712POPC   GL260266   1.493  32.002   5.947
 4712POPC   C1A60267   1.102  31.953   6.295
 4712POPC   D2A60268   1.420  31.952   6.637
 4712POPC   C3A60269   1.308  32.221   6.969
 4712POPC   C4A60270   0.954  32.237   7.219
 4712POPC   C1B60271   1.443  32.337   6.280
 4712POPC   C2B60272   1.342  32.628   6.650
 4712POPC   C3B60273   1.211  32.707   7.101
 4712POPC   C4B60274   1.223  32.575   7.532
 4713POPC   NC360275   3.713  35.093   5.411
 4713POPC   PO460276   3.340  35.613   5.664
 4713POPC   GL160277   3.711  35.391   5.847
 4713POPC   GL260278   3.553  35.071   5.881
 4713POPC   C1A60279   3.915  35.468   6.258
 4713POPC   D2A60280   4.025  35.436   6.704
 4713POPC   C3A60281   3.687  35.261   7.019
 4713POPC   C4A60282   3.297  35.439   7.215
 4713POPC   C1B60283   3.465  35.197   6.294
 4713POPC   C2B60284   3.432  34.972   6.666
 4713POPC   C3B60285   3.270  34.909   7.059
 4713POPC   C4B60286   3.439  34.995   7.429
 4714POPC   NC360287  13.785   4.776   5.237
 4714POPC   PO460288  13.538   5.293   5.491
 4714POPC   GL160289  13.722   5.136   5.845
 4714POPC   GL260290  13.696   4.793   5.776
 4714POPC   C1A60291  13.621   5.043   6.271
 4714POPC   D2A60292  13.453   5.185   6.663
 4714POPC   C3A60293  13.587   5.106   7.062
 4714POPC   C4A60294  13.850   4.927   7.356
 4714POPC   C1B60295  13.452   4.590   6.137
 4714POPC   C2B60296  13.411   4.655   6.578
 4714POPC   C3B60297  13.227   4.753   6.966
 4714POPC   C4B60298  13.356   4.797   7.412
 4715POPC   NC360299  43.426  18.681   5.527
 4715POPC   PO460300  43.373  19.311   5.556
 4715POPC   GL160301  43.065  19.194   5.830
 4715POPC   GL260302  42.984  18.845   5.830
 4715POPC   C1A60303  43.123  19.091   6.255
 4715POPC   D2A60304  43.128  19.302   6.639
 4715POPC   C3A60305  43.176  19.099   7.016
 4715POPC   C4A60306  42.941  19.291   7.343
 4715POPC   C1B60307  42.861  18.657   6.212
 4715POPC   C2B60308  43.075  18.739   6.611
 4715POPC   C3B60309  42.833  18.694   6.908
 4715POPC   C4B60310  42.953  18.666   7.277
 4716POPC   NC360311  32.414   5.688   5.624
 4716POPC   PO460312  31.888   6.008   5.379
 4716POPC   GL160313  32.094   6.110   5.827
 4716POPC   GL260314  32.377   5.935   6.060
 4716POPC   C1A60315  31.938   6.095   6.261
 4716POPC   D2A60316  32.254   6.058   6.593
 4716POPC   C3A60317  32.088   5.984   6.990
 4716POPC   C4A60318  31.931   5.563   7.075
 4716POPC   C1B60319  32.314   5.577   6.369
 4716POPC   C2B60320  32.370   5.567   6.812
 4716POPC   C3B60321  32.606   5.862   7.067
 4716POPC   C4B60322  32.766   5.827   7.491
 4717POPC   NC360323  38.336  14.855   5.396
 4717POPC   PO460324  38.842  14.372   5.208
 4717POPC   GL160325  38.734  14.488   5.678
 4717POPC   GL260326  38.390  14.546   5.787
 4717POPC   C1A60327  38.617  14.272   6.127
 4717POPC   D2A60328  38.328  14.142   6.480
 4717POPC   C3A60329  38.453  14.292   6.912
 4717POPC   C4A60330  38.731  14.382   7.289
 4717POPC   C1B60331  38.309  14.720   6.192
 4717POPC   C2B60332  38.153  14.604   6.595
 4717POPC   C3B60333  38.213  14.742   7.002
 4717POPC   C4B60334  38.228  14.486   7.357
 4718POPC   NC360335  20.392  37.209   5.337
 4718POPC   PO460336  21.018  36.900   5.267
 4718POPC   GL160337  20.658  36.753   5.555
 4718POPC   GL260338  20.654  37.039   5.788
 4718POPC   C1A60339  20.507  36.584   5.995
 4718POPC   D2A60340  20.577  36.789   6.409
 4718POPC   C3A60341  20.648  36.683   6.848
 4718POPC   C4A60342  20.573  36.682   7.276
 4718POPC   C1B60343  20.279  37.073   6.061
 4718POPC   C2B60344  20.215  37.129   6.545
 4718POPC   C3B60345  20.282  37.014   6.988
 4718POPC   C4B60346  20.274  37.083   7.450
 4719POPC   NC360347  30.108  28.646   5.182
 4719POPC   PO460348  29.914  29.256   5.287
 4719POPC   GL160349  29.751  29.150   5.720
 4719POPC   GL260350  29.661  29.486   5.831
 4719POPC   C1A60351  29.914  29.045   6.168
 4719POPC   D2A60352  29.868  29.204   6.604
 4719POPC   C3A60353  29.951  28.911   6.936
 4719POPC   C4A60354  30.224  28.922   7.294
 4719POPC   C1B60355  29.779  29.655   6.239
 4719POPC   C2B60356  29.544  29.643   6.618
 4719POPC   C3B60357  29.567  29.442   7.001
 4719POPC   C4B60358  29.850  29.283   7.259
 4720POPC   NC360359  20.409  25.056   5.479
 4720POPC   PO460360  20.934  25.414   5.461
 4720POPC   GL160361  20.656  25.423   5.810
 4720POPC   GL260362  20.470  25.767   5.799
 4720POPC   C1A60363  20.672  25.130   6.206
 4720POPC   D2A60364  20.891  25.124   6.617
 4720POPC   C3A60365  20.646  25.063   6.991
 4720POPC   C4A60366  20.628  25.310   7.345
 4720POPC   C1B60367  20.436  25.584   6.230
 4720POPC   C2B60368  20.446  25.385   6.639
 4720POPC   C3B60369  20.419  25.642   7.016
 4720POPC   C4B60370  20.728  25.817   7.273
 4721POPC   NC360371   8.623  41.578   5.172
 4721POPC   PO460372   8.101  41.313   5.446
 4721POPC   GL160373   8.140  41.205   5.869
 4721POPC   GL260374   8.123  41.597   5.897
 4721POPC   C1A60375   8.208  41.251   6.305
 4721POPC   D2A60376   7.849  41.443   6.493
 4721POPC   C3A60377   7.950  41.665   6.855
 4721POPC   C4A60378   7.806  41.595   7.268
 4721POPC   C1B60379   8.246  41.776   6.302
 4721POPC   C2B60380   8.566  41.579   6.581
 4721POPC   C3B60381   8.477  41.498   7.003
 4721POPC   C4B60382   8.245  41.798   7.253
 4722POPC   NC360383  11.396   4.737   5.561
 4722POPC   PO460384  11.519   5.319   5.181
 4722POPC   GL160385  11.411   5.254   5.726
 4722POPC   GL260386  11.532   4.970   5.978
 4722POPC   C1A60387  11.147   5.243   6.170
 4722POPC   D2A60388  11.284   5.155   6.631
 4722POPC   C3A60389  11.046   5.207   7.030
 4722POPC   C4A60390  11.181   5.150   7.430
 4722POPC   C1B60391  11.674   5.257   6.290
 4722POPC   C2B60392  11.811   5.248   6.700
 4722POPC   C3B60393  11.674   4.958   6.980
 4722POPC   C4B60394  11.709   4.757   7.351
 4723POPC   NC360395  22.474  17.715   5.452
 4723POPC   PO460396  22.503  17.019   5.467
 4723POPC   GL160397  22.350  17.319   5.821
 4723POPC   GL260398  22.204  17.655   5.876
 4723POPC   C1A60399  22.155  17.328   6.235
 4723POPC   D2A60400  22.409  17.312   6.559
 4723POPC   C3A60401  22.286  17.542   6.897
 4723POPC   C4A60402  22.044  17.368   7.229
 4723POPC   C1B60403  21.935  17.821   6.194
 4723POPC   C2B60404  21.907  17.702   6.600
 4723POPC   C3B60405  21.902  17.857   7.030
 4723POPC   C4B60406  22.209  17.833   7.355
 4724POPC   NC360407  28.653  40.772   5.472
 4724POPC   PO460408  28.118  41.129   5.526
 4724POPC   GL160409  28.312  41.000   5.880
 4724POPC   GL260410  28.578  41.212   5.889
 4724POPC   C1A60411  28.274  40.713   6.239
 4724POPC   D2A60412  28.323  40.459   6.615
 4724POPC   C3A60413  28.225  40.526   7.035
 4724POPC   C4A60414  28.604  40.626   7.229
 4724POPC   C1B60415  28.745  40.967   6.218
 4724POPC   C2B60416  28.564  40.904   6.639
 4724POPC   C3B60417  28.352  41.048   7.002
 4724POPC   C4B60418  28.602  41.133   7.355
 4725POPC   NC360419  22.914   4.705   5.286
 4725POPC   PO460420  22.535   5.145   5.642
 4725POPC   GL160421  22.835   5.312   5.924
 4725POPC   GL260422  23.092   5.065   5.875
 4725POPC   C1A60423  22.918   5.313   6.351
 4725POPC   D2A60424  23.010   5.037   6.676
 4725POPC   C3A60425  22.785   5.056   7.004
 4725POPC   C4A60426  22.801   5.314   7.315
 4725POPC   C1B60427  23.320   5.002   6.265
 4725POPC   C2B60428  23.316   4.650   6.552
 4725POPC   C3B60429  23.161   4.647   7.002
 4725POPC   C4B60430  23.200   4.963   7.332
 4726POPC   NC360431  21.152  34.041   5.482
 4726POPC   PO460432  21.552  33.436   5.411
 4726POPC   GL160433  21.348  33.647   5.722
 4726POPC   GL260434  21.538  33.971   5.821
 4726POPC   C1A60435  21.294  33.667   6.147
 4726POPC   D2A60436  21.570  33.498   6.445
 4726POPC   C3A60437  21.439  33.603   6.848
 4726POPC   C4A60438  21.444  33.528   7.270
 4726POPC   C1B60439  21.556  34.074   6.295
 4726POPC   C2B60440  21.570  34.105   6.768
 4726POPC   C3B60441  21.342  34.025   7.142
 4726POPC   C4B60442  21.387  34.075   7.588
 4727POPC   NC360443  20.196  12.247   5.236
 4727POPC   PO460444  19.660  11.784   5.466
 4727POPC   GL160445  19.642  12.063   5.816
 4727POPC   GL260446  19.370  12.248   5.765
 4727POPC   C1A60447  19.906  12.052   6.243
 4727POPC   D2A60448  19.854  11.982   6.666
 4727POPC   C3A60449  20.056  11.996   7.082
 4727POPC   C4A60450  19.804  11.800   7.449
 4727POPC   C1B60451  19.556  12.391   6.167
 4727POPC   C2B60452  19.708  12.473   6.547
 4727POPC   C3B60453  19.632  12.333   6.943
 4727POPC   C4B60454  19.805  12.367   7.324
 4728POPC   NC360455  34.495  14.133   5.174
 4728POPC   PO460456  34.568  13.544   5.481
 4728POPC   GL160457  34.555  13.623   5.919
 4728POPC   GL260458  34.824  13.821   5.897
 4728POPC   C1A60459  34.454  13.628   6.369
 4728POPC   D2A60460  34.685  13.463   6.720
 4728POPC   C3A60461  34.372  13.252   6.907
 4728POPC   C4A60462  34.201  13.537   7.170
 4728POPC   C1B60463  34.936  13.764   6.313
 4728POPC   C2B60464  34.798  13.953   6.690
 4728POPC   C3B60465  34.786  13.863   7.115
 4728POPC   C4B60466  34.580  14.060   7.459
 4729POPC   NC360467  28.671   2.730   5.222
 4729POPC   PO460468  28.212   2.993   5.639
 4729POPC   GL160469  28.330   2.729   5.958
 4729POPC   GL260470  28.663   2.601   5.829
 4729POPC   C1A60471  28.322   2.771   6.422
 4729POPC   D2A60472  28.236   3.047   6.783
 4729POPC   C3A60473  28.253   2.919   7.172
 4729POPC   C4A60474  28.209   2.881   7.587
 4729POPC   C1B60475  28.573   2.350   6.200
 4729POPC   C2B60476  28.649   2.402   6.622
 4729POPC   C3B60477  28.383   2.335   6.957
 4729POPC   C4B60478  28.360   2.432   7.346
 4730POPC   NC360479  44.343  26.242   5.510
 4730POPC   PO460480  44.991  26.073   5.287
 4730POPC   GL160481  44.829  26.228   5.698
 4730POPC   GL260482  44.758  25.882   5.780
 4730POPC   C1A60483  44.677  26.247   6.158
 4730POPC   D2A60484  44.709  26.093   6.545
 4730POPC   C3A60485  44.410  26.187   6.835
 4730POPC   C4A60486  44.498  26.223   7.269
 4730POPC   C1B60487  44.598  25.727   6.191
 4730POPC   C2B60488  44.400  25.701   6.607
 4730POPC   C3B60489  44.678  25.757   6.971
 4730POPC   C4B60490  44.615  25.611   7.386
 4731POPC   NC360491   8.198   1.723   5.211
 4731POPC   PO460492   7.945   1.184   5.472
 4731POPC   GL160493   8.013   1.290   5.904
 4731POPC   GL260494   8.351   1.366   5.920
 4731POPC   C1A60495   7.956   1.332   6.372
 4731POPC   D2A60496   7.729   1.383   6.793
 4731POPC   C3A60497   7.958   1.196   7.148
 4731POPC   C4A60498   7.975   1.347   7.576
 4731POPC   C1B60499   8.453   1.183   6.285
 4731POPC   C2B60500   8.386   1.247   6.703
 4731POPC   C3B60501   8.475   0.997   7.020
 4731POPC   C4B60502   8.496   1.008   7.428
 4732POPC   NC360503  43.907  34.701   5.495
 4732POPC   PO460504  43.209  34.737   5.293
 4732POPC   GL160505  42.985  34.567   5.685
 4732POPC   GL260506  43.240  34.301   5.810
 4732POPC   C1A60507  42.863  34.751   6.083
 4732POPC   D2A60508  42.949  34.788   6.521
 4732POPC   C3A60509  42.640  34.750   6.867
 4732POPC   C4A60510  42.530  34.503   7.235
 4732POPC   C1B60511  43.189  34.381   6.267
 4732POPC   C2B60512  43.368  34.301   6.679
 4732POPC   C3B60513  43.547  34.404   7.080
 4732POPC   C4B60514  43.233  34.292   7.367
 4733POPC   NC360515   2.880   2.030   5.576
 4733POPC   PO460516   2.420   1.500   5.497
 4733POPC   GL160517   2.735   1.599   5.818
 4733POPC   GL260518   2.537   1.833   5.951
 4733POPC   C1A60519   3.016   1.847   6.179
 4733POPC   D2A60520   2.949   2.215   6.475
 4733POPC   C3A60521   3.071   2.151   6.907
 4733POPC   C4A60522   3.089   2.091   7.317
 4733POPC   C1B60523   2.638   1.553   6.322
 4733POPC   C2B60524   2.816   1.735   6.686
 4733POPC   C3B60525   2.702   1.834   7.101
 4733POPC   C4B60526   2.855   1.658   7.489
 4734POPC   NC360527  24.225   1.670   5.548
 4734POPC   PO460528  24.817   1.961   5.595
 4734POPC   GL160529  24.527   1.821   5.932
 4734POPC   GL260530  24.190   2.029   5.917
 4734POPC   C1A60531  24.458   1.963   6.355
 4734POPC   D2A60532  24.438   2.371   6.549
 4734POPC   C3A60533  24.781   2.402   6.826
 4734POPC   C4A60534  24.651   2.236   7.195
 4734POPC   C1B60535  24.097   1.640   6.193
 4734POPC   C2B60536  24.226   1.570   6.614
 4734POPC   C3B60537  24.303   1.812   7.004
 4734POPC   C4B60538  24.292   1.702   7.464
 4735POPC   NC360539   6.211  28.747   5.415
 4735POPC   PO460540   5.989  28.138   5.353
 4735POPC   GL160541   5.806  28.314   5.752
 4735POPC   GL260542   5.558  28.064   5.802
 4735POPC   C1A60543   5.800  28.465   6.202
 4735POPC   D2A60544   6.026  28.721   6.551
 4735POPC   C3A60545   5.969  28.518   6.977
 4735POPC   C4A60546   5.888  28.587   7.437
 4735POPC   C1B60547   5.426  28.092   6.205
 4735POPC   C2B60548   5.602  28.098   6.594
 4735POPC   C3B60549   5.442  27.969   6.975
 4735POPC   C4B60550   5.586  28.108   7.363
 4736POPC   NC360551  23.109  25.681   5.437
 4736POPC   PO460552  22.717  26.254   5.541
 4736POPC   GL160553  22.905  25.990   5.810
 4736POPC   GL260554  23.265  26.007   5.872
 4736POPC   C1A60555  22.747  25.905   6.194
 4736POPC   D2A60556  22.893  25.803   6.591
 4736POPC   C3A60557  22.887  26.176   6.860
 4736POPC   C4A60558  22.581  26.134   7.149
 4736POPC   C1B60559  23.384  25.956   6.325
 4736POPC   C2B60560  23.340  25.964   6.797
 4736POPC   C3B60561  23.242  26.056   7.244
 4736POPC   C4B60562  23.287  25.922   7.694
 4737POPC   NC360563  14.039  26.380   5.495
 4737POPC   PO460564  13.644  25.802   5.202
 4737POPC   GL160565  13.497  25.911   5.699
 4737POPC   GL260566  13.756  26.156   5.870
 4737POPC   C1A60567  13.470  25.880   6.191
 4737POPC   D2A60568  13.675  26.009   6.598
 4737POPC   C3A60569  13.473  25.876   6.944
 4737POPC   C4A60570  13.647  25.774   7.318
 4737POPC   C1B60571  13.618  26.365   6.233
 4737POPC   C2B60572  13.293  26.369   6.546
 4737POPC   C3B60573  13.434  26.363   6.950
 4737POPC   C4B60574  13.453  26.239   7.406
 4738POPC   NC360575   7.654  33.033   5.462
 4738POPC   PO460576   7.125  33.439   5.524
 4738POPC   GL160577   7.382  33.271   5.863
 4738POPC   GL260578   7.492  32.969   5.927
 4738POPC   C1A60579   7.675  33.372   6.197
 4738POPC   D2A60580   7.639  33.144   6.554
 4738POPC   C3A60581   7.355  33.304   6.847
 4738POPC   C4A60582   7.466  33.216   7.259
 4738POPC   C1B60583   7.491  32.629   6.134
 4738POPC   C2B60584   7.466  32.657   6.558
 4738POPC   C3B60585   7.512  32.811   6.955
 4738POPC   C4B60586   7.461  32.755   7.433
 4739POPC   NC360587  10.475  26.746   5.444
 4739POPC   PO460588  10.846  27.268   5.482
 4739POPC   GL160589  10.812  26.930   5.812
 4739POPC   GL260590  10.738  26.549   5.826
 4739POPC   C1A60591  10.696  26.865   6.229
 4739POPC   D2A60592  10.384  26.998   6.483
 4739POPC   C3A60593  10.512  26.823   6.864
 4739POPC   C4A60594  10.549  26.880   7.277
 4739POPC   C1B60595  10.364  26.533   6.073
 4739POPC   C2B60596  10.295  26.490   6.532
 4739POPC   C3B60597  10.051  26.612   6.906
 4739POPC   C4B60598  10.184  26.540   7.324
 4740POPC   NC360599  41.351  23.140   5.442
 4740POPC   PO460600  41.444  22.452   5.508
 4740POPC   GL160601  41.625  22.792   5.807
 4740POPC   GL260602  41.747  23.167   5.795
 4740POPC   C1A60603  41.444  23.047   6.177
 4740POPC   D2A60604  41.544  23.125   6.626
 4740POPC   C3A60605  41.351  22.877   6.944
 4740POPC   C4A60606  41.167  23.078   7.299
 4740POPC   C1B60607  41.939  23.003   6.229
 4740POPC   C2B60608  42.040  22.994   6.666
 4740POPC   C3B60609  41.851  22.887   7.050
 4740POPC   C4B60610  41.752  23.090   7.447
 4741POPC   NC360611  29.097  35.254   5.192
 4741POPC   PO460612  29.611  35.532   5.493
 4741POPC   GL160613  29.434  35.626   5.918
 4741POPC   GL260614  29.305  35.289   5.877
 4741POPC   C1A60615  29.068  35.591   6.233
 4741POPC   D2A60616  28.856  35.336   6.571
 4741POPC   C3A60617  29.048  35.391   7.001
 4741POPC   C4A60618  29.389  35.683   7.117
 4741POPC   C1B60619  29.305  35.137   6.308
 4741POPC   C2B60620  29.374  34.942   6.705
 4741POPC   C3B60621  29.320  34.988   7.159
 4741POPC   C4B60622  29.052  34.982   7.530
 4742POPC   NC360623  34.660  25.635   5.312
 4742POPC   PO460624  34.567  24.980   5.405
 4742POPC   GL160625  34.482  25.354   5.691
 4742POPC   GL260626  34.786  25.553   5.825
 4742POPC   C1A60627  34.349  25.462   6.118
 4742POPC   D2A60628  34.570  25.340   6.493
 4742POPC   C3A60629  34.422  25.410   6.895
 4742POPC   C4A60630  34.413  25.082   7.163
 4742POPC   C1B60631  34.778  25.160   6.063
 4742POPC   C2B60632  34.986  25.001   6.466
 4742POPC   C3B60633  34.874  25.099   6.908
 4742POPC   C4B60634  34.866  25.118   7.376
 4743POPC   NC360635  39.224  34.717   5.453
 4743POPC   PO460636  39.296  34.074   5.383
 4743POPC   GL160637  39.126  34.325   5.783
 4743POPC   GL260638  39.456  34.502   5.882
 4743POPC   C1A60639  39.026  34.627   6.146
 4743POPC   D2A60640  38.867  34.661   6.587
 4743POPC   C3A60641  39.114  34.463   6.901
 4743POPC   C4A60642  39.321  34.577   7.275
 4743POPC   C1B60643  39.521  34.741   6.273
 4743POPC   C2B60644  39.783  34.900   6.630
 4743POPC   C3B60645  39.638  34.946   7.079
 4743POPC   C4B60646  39.711  34.829   7.542
 4744POPC   NC360647  30.512   3.161   5.647
 4744POPC   PO460648  30.628   3.810   5.603
 4744POPC   GL160649  30.657   3.587   5.988
 4744POPC   GL260650  30.496   3.858   6.173
 4744POPC   C1A60651  30.563   3.247   6.305
 4744POPC   D2A60652  30.266   3.081   6.598
 4744POPC   C3A60653  30.487   3.171   6.960
 4744POPC   C4A60654  30.799   3.385   7.195
 4744POPC   C1B60655  30.881   3.798   6.419
 4744POPC   C2B60656  30.868   3.813   6.883
 4744POPC   C3B60657  31.139   3.766   7.221
 4744POPC   C4B60658  31.201   3.588   7.657
 4745POPC   NC360659  35.659  35.211   5.512
 4745POPC   PO460660  36.285  35.477   5.378
 4745POPC   GL160661  36.131  35.310   5.724
 4745POPC   GL260662  35.902  35.595   5.776
 4745POPC   C1A60663  36.063  35.162   6.126
 4745POPC   D2A60664  36.120  35.341   6.524
 4745POPC   C3A60665  35.914  35.151   6.871
 4745POPC   C4A60666  36.191  35.222   7.187
 4745POPC   C1B60667  35.706  35.552   6.196
 4745POPC   C2B60668  35.805  35.768   6.586
 4745POPC   C3B60669  36.028  35.655   6.942
 4745POPC   C4B60670  35.856  35.587   7.320
 4746POPC   NC360671  19.038  16.141   5.395
 4746POPC   PO460672  19.113  15.424   5.261
 4746POPC   GL160673  19.164  15.622   5.789
 4746POPC   GL260674  19.128  16.042   5.891
 4746POPC   C1A60675  19.164  15.733   6.259
 4746POPC   D2A60676  18.960  15.875   6.651
 4746POPC   C3A60677  19.153  16.076   6.979
 4746POPC   C4A60678  19.160  15.984   7.395
 4746POPC   C1B60679  18.764  16.051   6.215
 4746POPC   C2B60680  18.612  16.315   6.516
 4746POPC   C3B60681  18.577  16.298   6.938
 4746POPC   C4B60682  18.619  16.003   7.265
 4747POPC   NC360683   7.569   2.769   5.172
 4747POPC   PO460684   7.106   2.335   5.573
 4747POPC   GL160685   7.316   2.734   5.638
 4747POPC   GL260686   7.599   2.759   5.783
 4747POPC   C1A60687   7.204   2.917   6.056
 4747POPC   D2A60688   7.176   2.771   6.504
 4747POPC   C3A60689   7.317   2.968   6.899
 4747POPC   C4A60690   7.204   2.762   7.298
 4747POPC   C1B60691   7.695   3.012   6.154
 4747POPC   C2B60692   7.774   2.933   6.570
 4747POPC   C3B60693   7.931   2.922   6.953
 4747POPC   C4B60694   7.689   2.965   7.283
 4748POPC   NC360695  33.920  28.909   5.189
 4748POPC   PO460696  33.924  29.517   5.454
 4748POPC   GL160697  33.834  29.175   5.803
 4748POPC   GL260698  33.604  28.858   5.779
 4748POPC   C1A60699  33.852  29.047   6.292
 4748POPC   D2A60700  34.020  28.817   6.629
 4748POPC   C3A60701  34.065  29.000   7.054
 4748POPC   C4A60702  33.955  29.418   7.248
 4748POPC   C1B60703  33.419  29.131   6.082
 4748POPC   C2B60704  33.359  29.172   6.502
 4748POPC   C3B60705  33.620  29.152   6.843
 4748POPC   C4B60706  33.586  29.043   7.258
 4749POPC   NC360707  30.987  19.366   5.471
 4749POPC   PO460708  30.567  19.829   5.428
 4749POPC   GL160709  30.725  19.717   5.858
 4749POPC   GL260710  30.909  20.017   5.982
 4749POPC   C1A60711  30.642  19.780   6.346
 4749POPC   D2A60712  30.602  19.538   6.706
 4749POPC   C3A60713  30.769  19.647   7.077
 4749POPC   C4A60714  30.853  19.835   7.486
 4749POPC   C1B60715  30.404  20.076   6.026
 4749POPC   C2B60716  30.238  20.098   6.442
 4749POPC   C3B60717  30.554  20.067   6.780
 4749POPC   C4B60718  30.455  20.035   7.220
 4750POPC   NC360719  18.528  23.848   5.225
 4750POPC   PO460720  18.409  23.140   5.234
 4750POPC   GL160721  18.382  23.529   5.587
 4750POPC   GL260722  18.547  23.862   5.740
 4750POPC   C1A60723  18.199  23.583   6.001
 4750POPC   D2A60724  18.172  23.650   6.454
 4750POPC   C3A60725  17.867  23.505   6.744
 4750POPC   C4A60726  17.921  23.531   7.195
 4750POPC   C1B60727  18.664  23.743   6.199
 4750POPC   C2B60728  18.636  23.482   6.584
 4750POPC   C3B60729  18.365  23.651   6.930
 4750POPC   C4B60730  18.378  23.879   7.328
 4751POPC   NC360731  18.141  20.590   5.401
 4751POPC   PO460732  18.743  20.811   5.299
 4751POPC   GL160733  18.465  20.851   5.723
 4751POPC   GL260734  18.096  20.837   5.845
 4751POPC   C1A60735  18.516  20.843   6.181
 4751POPC   D2A60736  18.424  20.681   6.596
 4751POPC   C3A60737  18.317  20.821   7.011
 4751POPC   C4A60738  18.585  20.596   7.288
 4751POPC   C1B60739  18.133  20.477   6.173
 4751POPC   C2B60740  18.245  20.199   6.537
 4751POPC   C3B60741  18.365  20.295   6.951
 4751POPC   C4B60742  18.064  20.471   7.292
 4752POPC   NC360743  22.237   8.495   5.549
 4752POPC   PO460744  21.694   8.938   5.476
 4752POPC   GL160745  21.950   8.896   5.855
 4752POPC   GL260746  22.310   8.965   5.791
 4752POPC   C1A60747  22.031   8.847   6.302
 4752POPC   D2A60748  22.373   8.860   6.603
 4752POPC   C3A60749  22.179   8.848   6.984
 4752POPC   C4A60750  22.207   8.614   7.313
 4752POPC   C1B60751  22.452   9.149   6.173
 4752POPC   C2B60752  22.423   9.349   6.577
 4752POPC   C3B60753  22.569   9.187   6.972
 4752POPC   C4B60754  22.474   9.306   7.413
 4753POPC   NC360755  11.185  14.180   5.453
 4753POPC   PO460756  11.388  14.849   5.352
 4753POPC   GL160757  11.370  14.587   5.743
 4753POPC   GL260758  11.613  14.296   5.767
 4753POPC   C1A60759  11.196  14.373   6.143
 4753POPC   D2A60760  11.287  14.154   6.547
 4753POPC   C3A60761  11.311  14.320   6.969
 4753POPC   C4A60762  11.104  14.575   7.297
 4753POPC   C1B60763  11.671  14.108   6.206
 4753POPC   C2B60764  11.783  14.033   6.682
 4753POPC   C3B60765  11.752  14.071   7.153
 4753POPC   C4B60766  11.426  14.197   7.477
 4754POPC   NC360767  12.689  41.304   5.516
 4754POPC   PO460768  12.465  41.938   5.734
 4754POPC   GL160769  12.870  41.695   5.820
 4754POPC   GL260770  12.972  41.336   5.983
 4754POPC   C1A60771  13.046  41.844   6.195
 4754POPC   D2A60772  13.186  42.003   6.593
 4754POPC   C3A60773  12.981  41.770   6.900
 4754POPC   C4A60774  12.908  41.801   7.298
 4754POPC   C1B60775  12.593  41.452   6.195
 4754POPC   C2B60776  12.485  41.679   6.542
 4754POPC   C3B60777  12.587  41.454   6.877
 4754POPC   C4B60778  12.567  41.439   7.278
 4755POPC   NC360779  21.349   6.785   5.353
 4755POPC   PO460780  21.996   6.648   5.394
 4755POPC   GL160781  21.709   6.814   5.793
 4755POPC   GL260782  21.314   6.873   5.834
 4755POPC   C1A60783  21.586   6.661   6.237
 4755POPC   D2A60784  21.691   6.397   6.620
 4755POPC   C3A60785  21.577   6.661   6.969
 4755POPC   C4A60786  21.518   6.588   7.382
 4755POPC   C1B60787  21.073   6.695   6.188
 4755POPC   C2B60788  21.200   6.546   6.601
 4755POPC   C3B60789  21.048   6.721   6.983
 4755POPC   C4B60790  20.955   6.932   7.363
 4756POPC   NC360791  40.475   2.891   5.485
 4756POPC   PO460792  39.847   2.657   5.507
 4756POPC   GL160793  40.136   2.626   5.810
 4756POPC   GL260794  40.134   2.979   5.849
 4756POPC   C1A60795  40.005   2.631   6.220
 4756POPC   D2A60796  39.791   2.706   6.596
 4756POPC   C3A60797  40.012   2.678   6.981
 4756POPC   C4A60798  39.854   2.517   7.361
 4756POPC   C1B60799  40.189   3.197   6.224
 4756POPC   C2B60800  40.272   3.390   6.599
 4756POPC   C3B60801  40.159   3.228   6.993
 4756POPC   C4B60802  40.022   3.030   7.371
 4757POPC   NC360803  38.888  12.329   5.523
 4757POPC   PO460804  39.125  13.036   5.415
 4757POPC   GL160805  39.249  13.096   5.828
 4757POPC   GL260806  39.235  12.757   5.953
 4757POPC   C1A60807  39.109  13.216   6.247
 4757POPC   D2A60808  38.858  13.042   6.583
 4757POPC   C3A60809  38.983  13.176   6.969
 4757POPC   C4A60810  39.285  13.078   7.257
 4757POPC   C1B60811  39.211  12.690   6.396
 4757POPC   C2B60812  39.129  12.668   6.841
 4757POPC   C3B60813  39.291  12.499   7.231
 4757POPC   C4B60814  39.321  12.733   7.623
 4758POPC   NC360815  11.470  13.231   5.320
 4758POPC   PO460816  11.223  13.849   5.145
 4758POPC   GL160817  10.954  13.817   5.693
 4758POPC   GL260818  10.942  13.430   5.828
 4758POPC   C1A60819  11.126  13.856   6.146
 4758POPC   D2A60820  11.451  13.688   6.465
 4758POPC   C3A60821  11.362  13.786   6.888
 4758POPC   C4A60822  11.403  13.720   7.299
 4758POPC   C1B60823  11.195  13.331   6.228
 4758POPC   C2B60824  11.216  13.303   6.715
 4758POPC   C3B60825  11.175  13.192   7.157
 4758POPC   C4B60826  11.198  13.374   7.577
 4759POPC   NC360827  30.326  15.346   5.403
 4759POPC   PO460828  29.699  14.884   5.359
 4759POPC   GL160829  29.927  15.064   5.706
 4759POPC   GL260830  29.893  15.424   5.734
 4759POPC   C1A60831  29.804  15.118   6.138
 4759POPC   D2A60832  29.683  15.411   6.435
 4759POPC   C3A60833  29.810  15.239   6.793
 4759POPC   C4A60834  29.806  15.182   7.203
 4759POPC   C1B60835  30.126  15.546   6.132
 4759POPC   C2B60836  30.267  15.431   6.577
 4759POPC   C3B60837  30.192  15.510   7.021
 4759POPC   C4B60838  30.014  15.613   7.397
 4760POPC   NC360839  24.724  35.738   5.258
 4760POPC   PO460840  24.333  35.209   5.299
 4760POPC   GL160841  24.506  35.421   5.667
 4760POPC   GL260842  24.215  35.597   5.796
 4760POPC   C1A60843  24.763  35.284   6.053
 4760POPC   D2A60844  24.831  34.950   6.387
 4760POPC   C3A60845  24.758  35.061   6.855
 4760POPC   C4A60846  24.633  35.251   7.260
 4760POPC   C1B60847  24.247  35.254   6.094
 4760POPC   C2B60848  24.437  35.234   6.491
 4760POPC   C3B60849  24.269  35.289   6.899
 4760POPC   C4B60850  24.202  35.579   7.235
 4761POPC   NC360851  27.029  30.685   5.447
 4761POPC   PO460852  26.515  30.370   5.216
 4761POPC   GL160853  26.619  30.398   5.706
 4761POPC   GL260854  26.435  30.230   5.947
 4761POPC   C1A60855  26.873  30.516   6.121
 4761POPC   D2A60856  26.918  30.589   6.621
 4761POPC   C3A60857  26.867  30.739   7.100
 4761POPC   C4A60858  27.214  30.965   7.378
 4761POPC   C1B60859  26.420  30.500   6.373
 4761POPC   C2B60860  26.479  30.478   6.860
 4761POPC   C3B60861  26.514  30.432   7.322
 4761POPC   C4B60862  26.543  30.557   7.778
 4762POPC   NC360863   2.513  36.583   5.328
 4762POPC   PO460864   3.026  36.291   5.317
 4762POPC   GL160865   2.773  36.318   5.707
 4762POPC   GL260866   2.838  36.606   5.912
 4762POPC   C1A60867   2.783  36.173   6.183
 4762POPC   D2A60868   2.519  36.252   6.600
 4762POPC   C3A60869   2.643  36.119   7.038
 4762POPC   C4A60870   3.024  35.915   7.202
 4762POPC   C1B60871   2.765  36.638   6.373
 4762POPC   C2B60872   3.014  36.443   6.710
 4762POPC   C3B60873   3.002  36.463   7.153
 4762POPC   C4B60874   2.624  36.488   7.441
 4763POPC   NC360875  31.997  31.496   5.247
 4763POPC   PO460876  31.277  31.535   5.340
 4763POPC   GL160877  31.379  31.624   5.877
 4763POPC   GL260878  31.609  31.846   6.048
 4763POPC   C1A60879  31.271  31.543   6.283
 4763POPC   D2A60880  31.512  31.647   6.633
 4763POPC   C3A60881  31.301  31.510   6.980
 4763POPC   C4A60882  31.412  31.329   7.392
 4763POPC   C1B60883  31.295  32.082   6.219
 4763POPC   C2B60884  31.136  32.027   6.635
 4763POPC   C3B60885  31.314  32.030   7.057
 4763POPC   C4B60886  31.732  31.861   7.054
 4764POPC   NC360887  33.466  30.741   5.350
 4764POPC   PO460888  34.084  30.461   5.178
 4764POPC   GL160889  33.878  30.694   5.652
 4764POPC   GL260890  34.004  30.497   5.972
 4764POPC   C1A60891  33.776  30.933   6.090
 4764POPC   D2A60892  33.550  30.934   6.497
 4764POPC   C3A60893  33.782  30.892   6.902
 4764POPC   C4A60894  34.203  30.705   6.887
 4764POPC   C1B60895  33.659  30.458   6.201
 4764POPC   C2B60896  33.795  30.474   6.580
 4764POPC   C3B60897  33.536  30.458   6.869
 4764POPC   C4B60898  33.634  30.452   7.269
 4765POPC   NC360899  10.947  20.752   5.449
 4765POPC   PO460900  11.439  20.420   5.166
 4765POPC   GL160901  11.421  20.684   5.633
 4765POPC   GL260902  11.152  20.487   5.844
 4765POPC   C1A60903  11.506  20.691   6.131
 4765POPC   D2A60904  11.296  20.640   6.576
 4765POPC   C3A60905  11.483  20.731   6.965
 4765POPC   C4A60906  11.324  20.675   7.360
 4765POPC   C1B60907  10.921  20.471   6.258
 4765POPC   C2B60908  10.816  20.412   6.753
 4765POPC   C3B60909  10.984  20.335   7.209
 4765POPC   C4B60910  11.064  20.368   7.681
 4766POPC   NC360911  25.342   9.314   5.546
 4766POPC   PO460912  24.942   9.674   5.294
 4766POPC   GL160913  25.029   9.806   5.709
 4766POPC   GL260914  25.014   9.486   5.918
 4766POPC   C1A60915  25.203   9.951   6.109
 4766POPC   D2A60916  25.138   9.818   6.510
 4766POPC   C3A60917  25.107   9.947   6.979
 4766POPC   C4A60918  25.317  10.195   7.284
 4766POPC   C1B60919  25.315   9.388   6.312
 4766POPC   C2B60920  25.303   9.459   6.798
 4766POPC   C3B60921  24.919   9.481   7.004
 4766POPC   C4B60922  24.803   9.667   7.370
 4767POPC   NC360923   6.179  11.516   5.419
 4767POPC   PO460924   5.790  11.016   5.358
 4767POPC   GL160925   5.872  11.231   5.758
 4767POPC   GL260926   6.142  11.000   5.846
 4767POPC   C1A60927   5.759  11.405   6.179
 4767POPC   D2A60928   5.873  11.677   6.542
 4767POPC   C3A60929   5.890  11.505   6.951
 4767POPC   C4A60930   5.839  11.336   7.378
 4767POPC   C1B60931   6.152  11.038   6.291
 4767POPC   C2B60932   5.888  11.128   6.624
 4767POPC   C3B60933   5.884  10.950   7.033
 4767POPC   C4B60934   6.143  10.924   7.422
 4768POPC   NC360935   7.921  29.425   5.583
 4768POPC   PO460936   7.351  29.104   5.343
 4768POPC   GL160937   7.248  29.249   5.749
 4768POPC   GL260938   7.256  29.561   5.641
 4768POPC   C1A60939   7.428  29.372   6.153
 4768POPC   D2A60940   7.621  29.466   6.563
 4768POPC   C3A60941   7.452  29.169   6.786
 4768POPC   C4A60942   7.577  28.909   7.094
 4768POPC   C1B60943   7.074  29.722   6.014
 4768POPC   C2B60944   7.052  29.618   6.445
 4768POPC   C3B60945   7.051  29.501   6.884
 4768POPC   C4B60946   7.168  29.201   7.196
 4769POPC   NC360947  16.976  32.241   5.406
 4769POPC   PO460948  16.279  32.106   5.540
 4769POPC   GL160949  16.561  32.361   5.892
 4769POPC   GL260950  16.932  32.363   5.881
 4769POPC   C1A60951  16.756  32.329   6.342
 4769POPC   D2A60952  16.772  32.094   6.702
 4769POPC   C3A60953  16.481  31.950   6.968
 4769POPC   C4A60954  16.531  32.025   7.360
 4769POPC   C1B60955  17.253  32.611   6.075
 4769POPC   C2B60956  17.334  32.506   6.494
 4769POPC   C3B60957  17.019  32.547   6.811
 4769POPC   C4B60958  16.946  32.409   7.237
 4770POPC   NC360959  28.415  22.859   5.436
 4770POPC   PO460960  28.093  23.506   5.368
 4770POPC   GL160961  28.101  23.144   5.736
 4770POPC   GL260962  28.477  23.137   5.849
 4770POPC   C1A60963  28.163  23.010   6.219
 4770POPC   D2A60964  28.121  22.841   6.670
 4770POPC   C3A60965  28.343  23.040   7.009
 4770POPC   C4A60966  28.234  23.232   7.395
 4770POPC   C1B60967  28.689  22.989   6.198
 4770POPC   C2B60968  28.612  22.778   6.533
 4770POPC   C3B60969  28.768  22.758   6.905
 4770POPC   C4B60970  28.861  23.036   7.191
 4771POPC   NC360971  39.241  14.435   5.464
 4771POPC   PO460972  38.853  13.895   5.605
 4771POPC   GL160973  39.083  14.204   5.896
 4771POPC   GL260974  39.365  14.492   5.940
 4771POPC   C1A60975  39.108  14.296   6.317
 4771POPC   D2A60976  39.238  14.087   6.636
 4771POPC   C3A60977  39.080  14.289   6.939
 4771POPC   C4A60978  39.243  14.256   7.313
 4771POPC   C1B60979  39.348  14.755   6.337
 4771POPC   C2B60980  39.167  14.779   6.757
 4771POPC   C3B60981  39.232  14.735   7.206
 4771POPC   C4B60982  39.524  14.659   7.581
 4772POPC   NC360983  35.499  35.949   5.360
 4772POPC   PO460984  34.960  36.334   5.445
 4772POPC   GL160985  35.270  36.159   5.768
 4772POPC   GL260986  35.581  36.336   5.730
 4772POPC   C1A60987  35.488  36.078   6.186
 4772POPC   D2A60988  35.338  36.359   6.534
 4772POPC   C3A60989  35.275  36.230   6.963
 4772POPC   C4A60990  35.162  36.214   7.388
 4772POPC   C1B60991  35.846  36.437   6.105
 4772POPC   C2B60992  35.865  36.288   6.541
 4772POPC   C3B60993  35.777  36.133   6.986
 4772POPC   C4B60994  35.614  36.010   7.420
 4773POPC   NC360995  28.761  31.441   5.033
 4773POPC   PO460996  29.196  31.198   5.377
 4773POPC   GL160997  29.192  31.225   5.876
 4773POPC   GL260998  29.188  31.575   5.993
 4773POPC   C1A60999  29.089  31.271   6.382
 4773POPC   D2A61000  29.081  31.560   6.788
 4773POPC   C3A61001  28.976  31.417   7.212
 4773POPC   C4A61002  29.015  31.252   7.623
 4773POPC   C1B61003  29.404  31.714   6.404
 4773POPC   C2B61004  29.534  31.872   6.824
 4773POPC   C3B61005  29.515  31.903   7.292
 4773POPC   C4B61006  29.337  31.620   7.561
 4774POPC   NC361007   0.280  27.119   5.645
 4774POPC   PO461008   0.530  27.634   5.314
 4774POPC   GL161009   0.393  27.614   5.748
 4774POPC   GL261010   0.202  27.818   5.951
 4774POPC   C1A61011   0.602  27.503   6.152
 4774POPC   D2A61012   0.726  27.190   6.473
 4774POPC   C3A61013   0.621  27.337   6.862
 4774POPC   C4A61014   0.841  27.432   7.175
 4774POPC   C1B61015   0.070  27.430   6.170
 4774POPC   C2B61016   0.217  27.405   6.566
 4774POPC   C3B61017   0.355  27.786   6.805
 4774POPC   C4B61018   0.140  27.923   7.183
 4775POPC   NC361019  20.109  38.057   5.278
 4775POPC   PO461020  19.473  38.115   5.395
 4775POPC   GL161021  19.719  37.812   5.734
 4775POPC   GL261022  20.069  37.925   5.765
 4775POPC   C1A61023  19.972  37.569   6.133
 4775POPC   D2A61024  20.274  37.638   6.530
 4775POPC   C3A61025  20.092  37.544   6.957
 4775POPC   C4A61026  19.644  37.607   7.054
 4775POPC   C1B61027  20.141  38.056   6.201
 4775POPC   C2B61028  20.003  38.225   6.607
 4775POPC   C3B61029  19.924  38.067   7.023
 4775POPC   C4B61030  20.208  38.076   7.348
 4776POPC   NC361031  12.961   1.923   5.369
 4776POPC   PO461032  12.522   2.368   5.279
 4776POPC   GL161033  12.620   2.084   5.713
 4776POPC   GL261034  12.992   2.115   5.843
 4776POPC   C1A61035  12.670   1.906   6.168
 4776POPC   D2A61036  12.964   1.943   6.535
 4776POPC   C3A61037  12.921   1.666   6.902
 4776POPC   C4A61038  12.734   1.797   7.304
 4776POPC   C1B61039  12.976   2.377   6.224
 4776POPC   C2B61040  12.966   2.458   6.688
 4776POPC   C3B61041  12.993   2.165   7.036
 4776POPC   C4B61042  13.096   2.133   7.473
 4777POPC   NC361043  13.004  10.035   5.526
 4777POPC   PO461044  13.110   9.288   5.500
 4777POPC   GL161045  12.827   9.523   5.841
 4777POPC   GL261046  13.069   9.782   5.956
 4777POPC   C1A61047  12.612   9.833   6.201
 4777POPC   D2A61048  12.430   9.974   6.649
 4777POPC   C3A61049  12.670   9.939   7.062
 4777POPC   C4A61050  12.819   9.814   7.485
 4777POPC   C1B61051  13.027   9.539   6.318
 4777POPC   C2B61052  12.857   9.594   6.722
 4777POPC   C3B61053  13.054   9.569   7.119
 4777POPC   C4B61054  13.298   9.668   7.510
 4778POPC   NC361055   2.515  11.229   5.380
 4778POPC   PO461056   3.165  11.057   5.303
 4778POPC   GL161057   2.914  11.238   5.712
 4778POPC   GL261058   2.664  11.074   5.843
 4778POPC   C1A61059   2.737  11.479   6.167
 4778POPC   D2A61060   2.817  11.737   6.600
 4778POPC   C3A61061   2.695  11.565   7.019
 4778POPC   C4A61062   2.928  11.506   7.406
 4778POPC   C1B61063   2.881  11.009   6.236
 4778POPC   C2B61064   2.688  11.163   6.632
 4778POPC   C3B61065   2.689  11.005   7.052
 4778POPC   C4B61066   2.916  10.995   7.417
 4779POPC   NC361067   7.816  29.431   5.083
 4779POPC   PO461068   8.193  29.050   5.526
 4779POPC   GL161069   8.318  29.311   5.873
 4779POPC   GL261070   8.641  29.225   5.913
 4779POPC   C1A61071   8.076  29.305   6.288
 4779POPC   D2A61072   7.950  29.070   6.650
 4779POPC   C3A61073   7.924  29.320   7.008
 4779POPC   C4A61074   8.005  29.037   7.318
 4779POPC   C1B61075   8.567  29.434   6.313
 4779POPC   C2B61076   8.409  29.350   6.737
 4779POPC   C3B61077   8.436  29.339   7.178
 4779POPC   C4B61078   8.623  29.608   7.493
 4780POPC   NC361079   2.536  40.200   5.167
 4780POPC   PO461080   1.959  40.015   5.550
 4780POPC   GL161081   1.722  40.044   5.893
 4780POPC   GL261082   2.023  40.018   6.077
 4780POPC   C1A61083   1.563  40.256   6.270
 4780POPC   D2A61084   1.718  40.377   6.691
 4780POPC   C3A61085   1.567  40.176   7.086
 4780POPC   C4A61086   1.814  40.090   7.440
 4780POPC   C1B61087   1.895  39.913   6.483
 4780POPC   C2B61088   2.000  39.969   6.917
 4780POPC   C3B61089   2.306  40.025   7.232
 4780POPC   C4B61090   2.523  39.711   7.398
 4781POPC   NC361091  34.375  39.480   5.688
 4781POPC   PO461092  34.632  38.841   5.640
 4781POPC   GL161093  34.708  39.195   5.934
 4781POPC   GL261094  34.906  39.514   5.822
 4781POPC   C1A61095  34.448  39.189   6.301
 4781POPC   D2A61096  34.398  38.874   6.627
 4781POPC   C3A61097  34.546  38.941   7.024
 4781POPC   C4A61098  34.341  39.264   7.189
 4781POPC   C1B61099  34.817  39.568   6.287
 4781POPC   C2B61100  34.718  39.342   6.713
 4781POPC   C3B61101  34.862  39.327   7.158
 4781POPC   C4B61102  34.841  39.736   7.369
 4782POPC   NC361103  27.595  28.686   5.555
 4782POPC   PO461104  27.737  29.289   5.291
 4782POPC   GL161105  27.592  29.179   5.760
 4782POPC   GL261106  27.271  28.967   5.812
 4782POPC   C1A61107  27.564  29.254   6.258
 4782POPC   D2A61108  27.726  29.222   6.721
 4782POPC   C3A61109  27.464  29.285   7.108
 4782POPC   C4A61110  27.490  29.569   7.485
 4782POPC   C1B61111  27.520  28.755   6.179
 4782POPC   C2B61112  27.526  28.564   6.571
 4782POPC   C3B61113  27.560  28.741   6.948
 4782POPC   C4B61114  27.528  28.716   7.362
 4783POPC   NC361115  15.594  33.207   5.530
 4783POPC   PO461116  14.902  33.067   5.409
 4783POPC   GL161117  15.101  33.238   5.767
 4783POPC   GL261118  15.300  32.958   5.881
 4783POPC   C1A61119  15.139  33.458   6.178
 4783POPC   D2A61120  15.052  33.362   6.615
 4783POPC   C3A61121  15.160  33.235   7.038
 4783POPC   C4A61122  14.884  32.892   7.228
 4783POPC   C1B61123  15.075  32.943   6.288
 4783POPC   C2B61124  15.064  32.824   6.736
 4783POPC   C3B61125  15.380  32.790   7.088
 4783POPC   C4B61126  15.308  32.945   7.530
 4784POPC   NC361127  39.433  42.656   5.489
 4784POPC   PO461128  38.976  43.227   5.449
 4784POPC   GL161129  39.082  43.011   5.787
 4784POPC   GL261130  38.756  43.135   5.911
 4784POPC   C1A61131  39.458  43.064   6.058
 4784POPC   D2A61132  39.429  42.973   6.491
 4784POPC   C3A61133  39.434  43.104   6.902
 4784POPC   C4A61134  39.411  42.920   7.294
 4784POPC   C1B61135  38.884  42.926   6.264
 4784POPC   C2B61136  38.948  43.072   6.658
 4784POPC   C3B61137  38.988  43.309   7.002
 4784POPC   C4B61138  38.926  43.068   7.337
 4785POPC   NC361139   7.098  24.943   5.159
 4785POPC   PO461140   7.107  25.624   5.077
 4785POPC   GL161141   7.378  25.438   5.527
 4785POPC   GL261142   7.475  25.076   5.645
 4785POPC   C1A61143   7.456  25.393   6.049
 4785POPC   D2A61144   7.489  25.644   6.474
 4785POPC   C3A61145   7.349  25.587   6.922
 4785POPC   C4A61146   7.506  25.491   7.364
 4785POPC   C1B61147   7.355  24.888   6.085
 4785POPC   C2B61148   7.511  24.865   6.515
 4785POPC   C3B61149   7.616  25.140   6.858
 4785POPC   C4B61150   7.516  24.995   7.265
 4786POPC   NC361151   8.023  42.488   5.483
 4786POPC   PO461152   8.297  41.848   5.424
 4786POPC   GL161153   8.238  42.142   5.822
 4786POPC   GL261154   8.304  42.531   5.902
 4786POPC   C1A61155   7.998  42.257   6.200
 4786POPC   D2A61156   7.844  42.087   6.575
 4786POPC   C3A61157   8.063  42.194   6.942
 4786POPC   C4A61158   7.888  42.211   7.327
 4786POPC   C1B61159   8.529  42.372   6.276
 4786POPC   C2B61160   8.522  42.111   6.685
 4786POPC   C3B61161   8.540  42.201   7.152
 4786POPC   C4B61162   8.319  42.183   7.568
 4787POPC   NC361163  22.860   1.441   5.452
 4787POPC   PO461164  22.795   0.804   5.512
 4787POPC   GL161165  23.028   1.105   5.800
 4787POPC   GL261166  22.735   1.300   5.922
 4787POPC   C1A61167  23.106   1.334   6.245
 4787POPC   D2A61168  22.885   1.276   6.643
 4787POPC   C3A61169  23.021   1.365   7.051
 4787POPC   C4A61170  23.168   1.089   7.348
 4787POPC   C1B61171  22.532   1.163   6.299
 4787POPC   C2B61172  22.620   0.838   6.658
 4787POPC   C3B61173  22.620   0.931   7.148
 4787POPC   C4B61174  22.667   1.287   7.470
 4788POPC   NC361175  40.588  37.409   5.547
 4788POPC   PO461176  40.943  37.884   5.267
 4788POPC   GL161177  40.769  37.888   5.664
 4788POPC   GL261178  40.961  37.626   5.817
 4788POPC   C1A61179  40.675  38.035   6.094
 4788POPC   D2A61180  40.865  37.947   6.508
 4788POPC   C3A61181  40.550  37.902   6.843
 4788POPC   C4A61182  40.576  38.069   7.261
 4788POPC   C1B61183  40.734  37.514   6.211
 4788POPC   C2B61184  40.819  37.452   6.668
 4788POPC   C3B61185  40.970  37.664   7.041
 4788POPC   C4B61186  41.079  37.499   7.436
 4789POPC   NC361187  33.625   7.537   5.499
 4789POPC   PO461188  33.990   7.022   5.293
 4789POPC   GL161189  33.940   7.142   5.735
 4789POPC   GL261190  33.622   7.155   5.855
 4789POPC   C1A61191  33.968   7.356   6.187
 4789POPC   D2A61192  34.217   7.352   6.586
 4789POPC   C3A61193  34.143   7.542   7.003
 4789POPC   C4A61194  34.126   7.614   7.431
 4789POPC   C1B61195  33.470   7.455   6.170
 4789POPC   C2B61196  33.621   7.457   6.602
 4789POPC   C3B61197  33.374   7.455   6.963
 4789POPC   C4B61198  33.271   7.447   7.379
 4790POPC   NC361199  11.159  20.128   5.460
 4790POPC   PO461200  11.355  19.479   5.395
 4790POPC   GL161201  11.286  19.653   5.867
 4790POPC   GL261202  11.390  19.946   6.001
 4790POPC   C1A61203  11.207  19.698   6.383
 4790POPC   D2A61204  11.217  19.600   6.837
 4790POPC   C3A61205  11.229  19.839   7.213
 4790POPC   C4A61206  10.946  19.887   7.545
 4790POPC   C1B61207  11.332  20.198   6.339
 4790POPC   C2B61208  11.254  20.139   6.773
 4790POPC   C3B61209  11.515  20.242   7.123
 4790POPC   C4B61210  11.557  20.232   7.570
 4791POPC   NC361211  37.742  12.680   5.449
 4791POPC   PO461212  37.388  13.271   5.431
 4791POPC   GL161213  37.616  13.040   5.825
 4791POPC   GL261214  37.853  12.730   5.930
 4791POPC   C1A61215  37.674  13.003   6.311
 4791POPC   D2A61216  37.797  12.901   6.730
 4791POPC   C3A61217  37.506  12.840   7.070
 4791POPC   C4A61218  37.659  12.823   7.491
 4791POPC   C1B61219  37.809  12.483   6.318
 4791POPC   C2B61220  38.040  12.461   6.706
 4791POPC   C3B61221  37.984  12.582   7.160
 4791POPC   C4B61222  38.073  12.602   7.635
 4792POPC   NC361223   9.483  11.398   5.308
 4792POPC   PO461224  10.162  11.024   5.316
 4792POPC   GL161225   9.847  11.068   5.701
 4792POPC   GL261226   9.665  11.410   5.798
 4792POPC   C1A61227   9.825  11.094   6.186
 4792POPC   D2A61228   9.922  11.296   6.630
 4792POPC   C3A61229   9.784  11.071   6.988
 4792POPC   C4A61230   9.371  11.066   7.158
 4792POPC   C1B61231   9.730  11.586   6.247
 4792POPC   C2B61232   9.673  11.756   6.663
 4792POPC   C3B61233   9.503  11.574   7.030
 4792POPC   C4B61234   9.256  11.814   7.314
 4793POPC   NC361235  40.514  20.368   5.510
 4793POPC   PO461236  41.180  20.636   5.522
 4793POPC   GL161237  40.918  20.435   5.830
 4793POPC   GL261238  40.855  20.764   5.919
 4793POPC   C1A61239  40.585  20.434   6.171
 4793POPC   D2A61240  40.760  20.449   6.568
 4793POPC   C3A61241  40.697  20.533   7.016
 4793POPC   C4A61242  40.889  20.581   7.460
 4793POPC   C1B61243  41.093  20.825   6.290
 4793POPC   C2B61244  41.013  20.867   6.692
 4793POPC   C3B61245  41.148  20.788   7.046
 4793POPC   C4B61246  41.176  20.989   7.373
 4794POPC   NC361247  21.315   5.788   5.418
 4794POPC   PO461248  21.436   6.412   5.607
 4794POPC   GL161249  21.343   6.069   5.868
 4794POPC   GL261250  21.552   5.741   5.880
 4794POPC   C1A61251  21.365   6.074   6.318
 4794POPC   D2A61252  21.508   5.915   6.713
 4794POPC   C3A61253  21.374   6.175   7.044
 4794POPC   C4A61254  21.697   6.106   7.306
 4794POPC   C1B61255  21.161   5.637   6.116
 4794POPC   C2B61256  21.070   5.677   6.573
 4794POPC   C3B61257  21.186   5.662   7.035
 4794POPC   C4B61258  21.034   5.470   7.445
 4795POPC   NC361259   8.454  18.110   5.426
 4795POPC   PO461260   8.083  18.598   5.495
 4795POPC   GL161261   8.059  18.236   5.742
 4795POPC   GL261262   8.343  18.371   5.888
 4795POPC   C1A61263   7.999  18.191   6.207
 4795POPC   D2A61264   8.238  18.420   6.534
 4795POPC   C3A61265   8.153  18.302   6.946
 4795POPC   C4A61266   8.384  18.259   7.301
 4795POPC   C1B61267   8.642  18.437   6.194
 4795POPC   C2B61268   8.745  18.535   6.611
 4795POPC   C3B61269   8.557  18.632   6.993
 4795POPC   C4B61270   8.548  18.726   7.448
 4796POPC   NC361271  21.292  39.118   5.343
 4796POPC   PO461272  21.463  39.680   5.723
 4796POPC   GL161273  21.275  39.269   5.834
 4796POPC   GL261274  21.507  38.994   5.791
 4796POPC   C1A61275  21.243  39.098   6.241
 4796POPC   D2A61276  21.227  39.404   6.581
 4796POPC   C3A61277  21.353  39.400   7.008
 4796POPC   C4A61278  21.239  39.236   7.420
 4796POPC   C1B61279  21.736  39.145   6.153
 4796POPC   C2B61280  21.634  39.048   6.582
 4796POPC   C3B61281  21.756  38.952   6.968
 4796POPC   C4B61282  21.734  39.219   7.279
 4797POPC   NC361283  43.952  14.651   5.371
 4797POPC   PO461284  43.610  14.029   5.459
 4797POPC   GL161285  43.587  14.186   5.869
 4797POPC   GL261286  43.811  14.482   5.862
 4797POPC   C1A61287  43.633  14.306   6.314
 4797POPC   D2A61288  43.913  14.506   6.654
 4797POPC   C3A61289  43.893  14.446   7.095
 4797POPC   C4A61290  44.288  14.324   7.256
 4797POPC   C1B61291  43.922  14.750   6.202
 4797POPC   C2B61292  43.811  14.997   6.548
 4797POPC   C3B61293  43.919  14.974   6.989
 4797POPC   C4B61294  43.785  14.869   7.430
 4798POPC   NC361295   3.018  15.529   5.438
 4798POPC   PO461296   3.582  15.029   5.387
 4798POPC   GL161297   3.599  15.231   5.750
 4798POPC   GL261298   3.269  15.311   5.817
 4798POPC   C1A61299   3.778  15.209   6.168
 4798POPC   D2A61300   3.658  14.949   6.516
 4798POPC   C3A61301   3.637  15.148   6.900
 4798POPC   C4A61302   3.532  15.056   7.297
 4798POPC   C1B61303   3.242  15.093   6.211
 4798POPC   C2B61304   3.240  15.267   6.606
 4798POPC   C3B61305   3.119  15.091   6.982
 4798POPC   C4B61306   3.081  14.834   7.372
 4799POPC   NC361307  44.961  29.119   5.429
 4799POPC   PO461308  44.384  28.731   5.453
 4799POPC   GL161309  44.587  29.004   5.817
 4799POPC   GL261310  44.800  29.345   5.873
 4799POPC   C1A61311  44.560  28.992   6.286
 4799POPC   D2A61312  44.696  29.263   6.643
 4799POPC   C3A61313  44.586  29.089   7.017
 4799POPC   C4A61314  44.524  29.126   7.442
 4799POPC   C1B61315  44.493  29.484   6.189
 4799POPC   C2B61316  44.299  29.578   6.604
 4799POPC   C3B61317  44.506  29.602   7.030
 4799POPC   C4B61318  44.872  29.451   7.263
 4800POPC   NC361319  33.666  26.036   5.167
 4800POPC   PO461320  34.232  25.785   5.402
 4800POPC   GL161321  34.061  26.005   5.787
 4800POPC   GL261322  33.706  25.903   5.698
 4800POPC   C1A61323  33.742  26.168   6.120
 4800POPC   D2A61324  33.475  26.163   6.484
 4800POPC   C3A61325  33.675  26.167   6.900
 4800POPC   C4A61326  33.966  26.182   7.271
 4800POPC   C1B61327  33.844  25.668   6.099
 4800POPC   C2B61328  33.933  25.863   6.504
 4800POPC   C3B61329  34.051  25.790   6.920
 4800POPC   C4B61330  34.375  25.840   7.212
 4801POPC   NC361331   6.387  21.614   5.446
 4801POPC   PO461332   6.647  20.914   5.449
 4801POPC   GL161333   6.698  21.150   5.787
 4801POPC   GL261334   6.369  21.224   5.777
 4801POPC   C1A61335   6.788  21.285   6.223
 4801POPC   D2A61336   6.908  21.202   6.672
 4801POPC   C3A61337   6.751  21.511   6.984
 4801POPC   C4A61338   6.943  21.755   7.334
 4801POPC   C1B61339   6.301  21.093   6.186
 4801POPC   C2B61340   6.402  21.210   6.565
 4801POPC   C3B61341   6.233  21.219   6.935
 4801POPC   C4B61342   6.316  21.482   7.253
 4802POPC   NC361343  33.211  42.610   5.400
 4802POPC   PO461344  32.838  42.102   5.569
 4802POPC   GL161345  32.909  42.356   5.951
 4802POPC   GL261346  32.930  42.698   5.846
 4802POPC   C1A61347  32.806  42.387   6.406
 4802POPC   D2A61348  33.069  42.237   6.760
 4802POPC   C3A61349  33.031  42.212   7.208
 4802POPC   C4A61350  32.693  42.243   7.496
 4802POPC   C1B61351  33.119  42.772   6.273
 4802POPC   C2B61352  33.091  42.786   6.748
 4802POPC   C3B61353  32.833  42.659   7.129
 4802POPC   C4B61354  33.034  42.605   7.579
 4803POPC   NC361355   0.935  18.969   5.479
 4803POPC   PO461356   1.673  18.916   5.510
 4803POPC   GL161357   1.322  19.091   5.817
 4803POPC   GL261358   1.034  19.359   5.787
 4803POPC   C1A61359   1.087  18.998   6.203
 4803POPC   D2A61360   0.974  19.160   6.621
 4803POPC   C3A61361   1.037  18.887   6.984
 4803POPC   C4A61362   1.421  19.018   7.215
 4803POPC   C1B61363   1.088  19.512   6.197
 4803POPC   C2B61364   1.210  19.673   6.593
 4803POPC   C3B61365   1.270  19.507   6.992
 4803POPC   C4B61366   1.006  19.323   7.230
 4804POPC   NC361367  16.028  33.510   5.187
 4804POPC   PO461368  16.287  34.127   5.314
 4804POPC   GL161369  16.110  33.933   5.712
 4804POPC   GL261370  15.920  33.610   5.821
 4804POPC   C1A61371  16.070  34.011   6.165
 4804POPC   D2A61372  15.829  34.013   6.559
 4804POPC   C3A61373  16.058  34.006   6.959
 4804POPC   C4A61374  15.824  33.941   7.358
 4804POPC   C1B61375  15.987  33.502   6.263
 4804POPC   C2B61376  16.035  33.542   6.712
 4804POPC   C3B61377  16.050  33.516   7.156
 4804POPC   C4B61378  15.933  33.519   7.592
 4805POPC   NC361379  34.727  35.855   5.452
 4805POPC   PO461380  34.211  36.148   5.809
 4805POPC   GL161381  34.622  36.336   5.867
 4805POPC   GL261382  34.796  36.040   5.919
 4805POPC   C1A61383  34.669  36.380   6.302
 4805POPC   D2A61384  34.369  36.109   6.527
 4805POPC   C3A61385  34.396  36.135   6.963
 4805POPC   C4A61386  34.372  35.815   7.251
 4805POPC   C1B61387  35.001  35.983   6.308
 4805POPC   C2B61388  34.861  36.098   6.707
 4805POPC   C3B61389  34.852  35.918   7.107
 4805POPC   C4B61390  34.759  35.998   7.558
 4806POPC   NC361391  32.516  24.586   5.086
 4806POPC   PO461392  32.222  24.104   5.387
 4806POPC   GL161393  32.039  24.368   5.707
 4806POPC   GL261394  32.333  24.537   5.807
 4806POPC   C1A61395  31.978  24.362   6.170
 4806POPC   D2A61396  31.953  24.601   6.548
 4806POPC   C3A61397  31.873  24.473   6.972
 4806POPC   C4A61398  32.147  24.342   7.277
 4806POPC   C1B61399  32.449  24.620   6.231
 4806POPC   C2B61400  32.614  24.743   6.618
 4806POPC   C3B61401  32.570  24.556   7.037
 4806POPC   C4B61402  32.493  24.647   7.474
 4807POPC   NC361403  36.373   0.544   5.075
 4807POPC   PO461404  36.992   0.290   5.292
 4807POPC   GL161405  36.933   0.389   5.702
 4807POPC   GL261406  36.672   0.631   5.736
 4807POPC   C1A61407  36.994   0.247   6.106
 4807POPC   D2A61408  37.103   0.428   6.483
 4807POPC   C3A61409  36.910   0.275   6.829
 4807POPC   C4A61410  37.225   0.361   7.089
 4807POPC   C1B61411  36.757   0.723   6.218
 4807POPC   C2B61412  36.839   0.845   6.690
 4807POPC   C3B61413  36.847   0.691   7.144
 4807POPC   C4B61414  36.855   0.235   7.399
 4808POPC   NC361415  36.854  39.723   5.619
 4808POPC   PO461416  36.902  40.377   5.496
 4808POPC   GL161417  36.943  40.168   5.884
 4808POPC   GL261418  37.233  40.397   5.927
 4808POPC   C1A61419  36.685  39.951   6.259
 4808POPC   D2A61420  36.331  39.818   6.583
 4808POPC   C3A61421  36.540  39.774   6.998
 4808POPC   C4A61422  36.817  40.077   7.220
 4808POPC   C1B61423  37.113  40.247   6.358
 4808POPC   C2B61424  37.067  40.133   6.789
 4808POPC   C3B61425  37.292  40.301   7.153
 4808POPC   C4B61426  37.321  40.373   7.592
 4809POPC   NC361427  28.033  27.789   5.507
 4809POPC   PO461428  27.411  27.371   5.448
 4809POPC   GL161429  27.443  27.557   5.848
 4809POPC   GL261430  27.784  27.480   5.861
 4809POPC   C1A61431  27.494  27.828   6.220
 4809POPC   D2A61432  27.651  27.877   6.677
 4809POPC   C3A61433  27.356  27.782   7.023
 4809POPC   C4A61434  27.248  27.450   7.346
 4809POPC   C1B61435  27.577  27.285   6.244
 4809POPC   C2B61436  27.669  27.260   6.681
 4809POPC   C3B61437  27.790  27.511   7.036
 4809POPC   C4B61438  27.917  27.942   7.158
 4810POPC   NC361439   8.457  33.181   5.649
 4810POPC   PO461440   8.092  32.679   5.405
 4810POPC   GL161441   7.941  32.714   5.844
 4810POPC   GL261442   8.010  33.077   5.928
 4810POPC   C1A61443   7.948  32.762   6.318
 4810POPC   D2A61444   8.145  33.047   6.615
 4810POPC   C3A61445   8.248  32.909   7.006
 4810POPC   C4A61446   7.904  32.916   7.242
 4810POPC   C1B61447   8.214  33.375   6.227
 4810POPC   C2B61448   8.175  33.570   6.610
 4810POPC   C3B61449   8.378  33.488   6.983
 4810POPC   C4B61450   8.636  33.185   7.145
 4811POPC   NC361451  37.452  14.555   5.290
 4811POPC   PO461452  38.123  14.432   5.374
 4811POPC   GL161453  37.867  14.409   5.722
 4811POPC   GL261454  37.523  14.346   5.749
 4811POPC   C1A61455  37.943  14.368   6.161
 4811POPC   D2A61456  37.766  14.257   6.551
 4811POPC   C3A61457  37.910  14.295   6.976
 4811POPC   C4A61458  37.637  14.235   7.344
 4811POPC   C1B61459  37.455  14.546   6.164
 4811POPC   C2B61460  37.240  14.418   6.528
 4811POPC   C3B61461  37.348  14.370   6.942
 4811POPC   C4B61462  37.271  14.763   7.137
 4812POPC   NC361463  43.817  38.153   5.469
 4812POPC   PO461464  43.572  38.804   5.680
 4812POPC   GL161465  43.786  38.587   5.935
 4812POPC   GL261466  44.055  38.451   5.812
 4812POPC   C1A61467  43.664  38.268   6.162
 4812POPC   D2A61468  43.519  38.198   6.571
 4812POPC   C3A61469  43.533  38.614   6.761
 4812POPC   C4A61470  43.756  38.686   7.154
 4812POPC   C1B61471  44.161  38.408   6.243
 4812POPC   C2B61472  43.977  38.421   6.659
 4812POPC   C3B61473  44.162  38.382   7.079
 4812POPC   C4B61474  44.173  38.428   7.524
 4813POPC   NC361475  16.288   9.086   5.442
 4813POPC   PO461476  15.650   8.826   5.566
 4813POPC   GL161477  15.663   9.069   5.904
 4813POPC   GL261478  15.960   9.249   5.832
 4813POPC   C1A61479  15.686   8.922   6.322
 4813POPC   D2A61480  15.497   8.642   6.613
 4813POPC   C3A61481  15.651   8.819   7.000
 4813POPC   C4A61482  15.912   8.818   7.364
 4813POPC   C1B61483  15.999   9.429   6.254
 4813POPC   C2B61484  16.103   9.391   6.702
 4813POPC   C3B61485  16.007   9.249   7.112
 4813POPC   C4B61486  16.162   9.211   7.573
 4814POPC   NC361487  28.900  10.724   5.333
 4814POPC   PO461488  29.552  10.398   5.397
 4814POPC   GL161489  29.200  10.541   5.753
 4814POPC   GL261490  28.989  10.342   5.903
 4814POPC   C1A61491  29.045  10.732   6.192
 4814POPC   D2A61492  28.897  10.644   6.612
 4814POPC   C3A61493  29.097  10.816   6.965
 4814POPC   C4A61494  29.157  10.578   7.321
 4814POPC   C1B61495  28.911  10.107   6.244
 4814POPC   C2B61496  28.700  10.172   6.622
 4814POPC   C3B61497  28.848  10.251   6.999
 4814POPC   C4B61498  28.812  10.153   7.414
 4815POPC   NC361499  41.035  21.867   5.258
 4815POPC   PO461500  40.539  22.337   5.328
 4815POPC   GL161501  40.570  22.106   5.744
 4815POPC   GL261502  40.914  21.999   5.824
 4815POPC   C1A61503  40.565  22.045   6.229
 4815POPC   D2A61504  40.755  21.951   6.652
 4815POPC   C3A61505  40.595  22.078   7.056
 4815POPC   C4A61506  40.332  21.886   7.404
 4815POPC   C1B61507  41.074  22.118   6.286
 4815POPC   C2B61508  41.184  22.341   6.705
 4815POPC   C3B61509  41.061  22.336   7.170
 4815POPC   C4B61510  41.072  22.504   7.595
 4816POPC   NC361511  12.389  22.075   5.202
 4816POPC   PO461512  13.046  22.222   5.347
 4816POPC   GL161513  12.882  22.452   5.783
 4816POPC   GL261514  12.555  22.359   5.871
 4816POPC   C1A61515  12.835  22.563   6.257
 4816POPC   D2A61516  12.880  22.354   6.682
 4816POPC   C3A61517  13.095  22.534   7.071
 4816POPC   C4A61518  13.104  22.500   7.543
 4816POPC   C1B61519  12.800  22.067   6.161
 4816POPC   C2B61520  12.873  21.855   6.543
 4816POPC   C3B61521  12.865  21.901   6.959
 4816POPC   C4B61522  12.714  22.218   7.191
 4817POPC   NC361523  22.393   7.812   5.439
 4817POPC   PO461524  21.865   8.219   5.489
 4817POPC   GL161525  22.105   8.094   5.863
 4817POPC   GL261526  22.363   7.855   5.937
 4817POPC   C1A61527  22.042   8.293   6.258
 4817POPC   D2A61528  22.168   8.412   6.655
 4817POPC   C3A61529  21.902   8.375   6.990
 4817POPC   C4A61530  21.928   8.186   7.381
 4817POPC   C1B61531  22.539   8.076   6.296
 4817POPC   C2B61532  22.479   8.013   6.726
 4817POPC   C3B61533  22.078   7.882   6.940
 4817POPC   C4B61534  22.054   7.681   7.333
 4818POPC   NC361535   4.582  17.678   5.429
 4818POPC   PO461536   3.981  17.427   5.513
 4818POPC   GL161537   4.198  17.266   5.865
 4818POPC   GL261538   4.423  17.547   5.933
 4818POPC   C1A61539   4.130  17.041   6.260
 4818POPC   D2A61540   3.925  17.209   6.629
 4818POPC   C3A61541   4.222  17.366   6.938
 4818POPC   C4A61542   4.203  17.687   7.255
 4818POPC   C1B61543   4.299  17.530   6.388
 4818POPC   C2B61544   4.430  17.798   6.743
 4818POPC   C3B61545   4.660  17.631   7.077
 4818POPC   C4B61546   4.636  17.599   7.534
 4819POPC   NC361547   3.196  22.361   5.453
 4819POPC   PO461548   2.549  21.999   5.590
 4819POPC   GL161549   2.900  21.935   5.875
 4819POPC   GL261550   3.040  22.264   5.916
 4819POPC   C1A61551   2.843  21.914   6.319
 4819POPC   D2A61552   2.874  21.785   6.734
 4819POPC   C3A61553   2.611  21.979   6.991
 4819POPC   C4A61554   2.674  21.667   7.242
 4819POPC   C1B61555   3.027  22.421   6.310
 4819POPC   C2B61556   2.841  22.326   6.693
 4819POPC   C3B61557   3.080  22.191   7.058
 4819POPC   C4B61558   3.338  22.163   7.452
 4820POPC   NC361559  26.007  20.769   5.326
 4820POPC   PO461560  25.649  20.383   5.628
 4820POPC   GL161561  26.025  20.609   5.825
 4820POPC   GL261562  26.034  20.988   5.780
 4820POPC   C1A61563  26.202  20.494   6.239
 4820POPC   D2A61564  26.209  20.712   6.637
 4820POPC   C3A61565  26.180  20.457   6.999
 4820POPC   C4A61566  26.227  20.730   7.307
 4820POPC   C1B61567  26.035  20.993   6.213
 4820POPC   C2B61568  25.812  21.043   6.582
 4820POPC   C3B61569  25.935  20.995   6.989
 4820POPC   C4B61570  25.701  20.947   7.360
 4821POPC   NC361571  21.095  43.937   5.412
 4821POPC   PO461572  21.745  43.728   5.315
 4821POPC   GL161573  21.537  43.774   5.746
 4821POPC   GL261574  21.381  44.070   5.881
 4821POPC   C1A61575  21.326  43.622   6.159
 4821POPC   D2A61576  21.057  43.642   6.515
 4821POPC   C3A61577  21.267  43.746   6.899
 4821POPC   C4A61578  21.623  43.698   7.160
 4821POPC   C1B61579  21.442  44.062   6.362
 4821POPC   C2B61580  21.638  44.117   6.805
 4821POPC   C3B61581  21.449  44.157   7.215
 4821POPC   C4B61582  21.015  44.095   7.184
 4822POPC   NC361583  36.318   2.551   5.309
 4822POPC   PO461584  36.156   1.870   5.196
 4822POPC   GL161585  36.064   1.916   5.674
 4822POPC   GL261586  35.756   2.124   5.721
 4822POPC   C1A61587  36.238   2.018   6.104
 4822POPC   D2A61588  36.184   1.843   6.521
 4822POPC   C3A61589  36.352   2.047   6.886
 4822POPC   C4A61590  36.264   1.881   7.294
 4822POPC   C1B61591  35.858   2.362   6.110
 4822POPC   C2B61592  36.071   2.385   6.516
 4822POPC   C3B61593  35.852   2.370   6.940
 4822POPC   C4B61594  35.774   2.167   7.326
 4823POPC   NC361595  29.480   7.599   5.433
 4823POPC   PO461596  30.066   7.256   5.527
 4823POPC   GL161597  29.914   7.308   5.911
 4823POPC   GL261598  29.741   7.637   5.920
 4823POPC   C1A61599  30.076   7.200   6.317
 4823POPC   D2A61600  30.092   7.323   6.749
 4823POPC   C3A61601  29.785   7.150   6.979
 4823POPC   C4A61602  29.376   7.286   7.110
 4823POPC   C1B61603  30.133   7.693   6.163
 4823POPC   C2B61604  30.314   7.755   6.572
 4823POPC   C3B61605  30.187   7.771   7.011
 4823POPC   C4B61606  30.137   7.408   7.250
 4824POPC   NC361607  26.926  19.899   5.566
 4824POPC   PO461608  26.459  20.328   5.662
 4824POPC   GL161609  26.664  20.082   5.988
 4824POPC   GL261610  26.850  19.717   6.032
 4824POPC   C1A61611  26.649  19.982   6.407
 4824POPC   D2A61612  26.900  19.663   6.581
 4824POPC   C3A61613  26.821  19.770   7.012
 4824POPC   C4A61614  26.519  20.082   7.186
 4824POPC   C1B61615  27.141  19.366   6.183
 4824POPC   C2B61616  27.342  19.231   6.550
 4824POPC   C3B61617  27.145  19.353   6.933
 4824POPC   C4B61618  26.827  19.301   7.253
 4825POPC   NC361619  25.162  18.672   5.431
 4825POPC   PO461620  25.501  18.091   5.416
 4825POPC   GL161621  25.473  18.384   5.740
 4825POPC   GL261622  25.114  18.313   5.810
 4825POPC   C1A61623  25.507  18.514   6.164
 4825POPC   D2A61624  25.396  18.338   6.564
 4825POPC   C3A61625  25.527  18.483   6.940
 4825POPC   C4A61626  25.351  18.680   7.256
 4825POPC   C1B61627  24.994  18.422   6.222
 4825POPC   C2B61628  24.952  18.152   6.576
 4825POPC   C3B61629  25.048  18.239   6.981
 4825POPC   C4B61630  24.983  17.873   7.233
 4826POPC   NC361631  11.732  30.796   5.464
 4826POPC   PO461632  11.217  30.464   5.303
 4826POPC   GL161633  11.275  30.706   5.704
 4826POPC   GL261634  11.545  30.484   5.804
 4826POPC   C1A61635  11.236  30.841   6.169
 4826POPC   D2A61636  11.025  30.824   6.601
 4826POPC   C3A61637  11.306  30.875   6.964
 4826POPC   C4A61638  11.144  30.893   7.378
 4826POPC   C1B61639  11.375  30.305   6.143
 4826POPC   C2B61640  11.352  30.433   6.550
 4826POPC   C3B61641  11.155  30.361   6.918
 4826POPC   C4B61642  11.379  30.446   7.286
 4827POPC   NC361643  25.719  44.110   5.681
 4827POPC   PO461644  26.308  43.724   5.369
 4827POPC   GL161645  26.221  43.643   5.810
 4827POPC   GL261646  25.880  43.642   5.818
 4827POPC   C1A61647  26.115  43.766   6.262
 4827POPC   D2A61648  25.805  44.069   6.463
 4827POPC   C3A61649  25.870  44.287   6.880
 4827POPC   C4A61650  25.989  44.092   7.278
 4827POPC   C1B61651  25.603  43.657   6.172
 4827POPC   C2B61652  25.454  43.584   6.565
 4827POPC   C3B61653  25.691  43.594   6.904
 4827POPC   C4B61654  25.754  43.641   7.300
 4828POPC   NC361655   4.958   7.941   5.145
 4828POPC   PO461656   5.588   8.214   5.225
 4828POPC   GL161657   5.363   8.295   5.628
 4828POPC   GL261658   5.241   7.964   5.778
 4828POPC   C1A61659   5.130   8.380   6.041
 4828POPC   D2A61660   4.911   8.266   6.434
 4828POPC   C3A61661   5.018   8.431   6.866
 4828POPC   C4A61662   5.043   8.309   7.311
 4828POPC   C1B61663   4.881   7.820   6.099
 4828POPC   C2B61664   4.637   7.815   6.522
 4828POPC   C3B61665   4.799   7.926   6.957
 4828POPC   C4B61666   4.930   7.813   7.383
 4829POPC   NC361667  27.903  24.692   5.377
 4829POPC   PO461668  28.513  24.412   5.429
 4829POPC   GL161669  28.199  24.408   5.754
 4829POPC   GL261670  28.220  24.730   5.866
 4829POPC   C1A61671  28.145  24.389   6.219
 4829POPC   D2A61672  28.340  24.319   6.588
 4829POPC   C3A61673  28.183  24.478   6.937
 4829POPC   C4A61674  28.305  24.324   7.299
 4829POPC   C1B61675  28.545  24.839   6.205
 4829POPC   C2B61676  28.661  24.727   6.630
 4829POPC   C3B61677  28.531  24.841   7.064
 4829POPC   C4B61678  28.159  24.794   7.365
 4830POPC   NC361679  44.713   2.481   5.294
 4830POPC   PO461680  44.525   3.125   5.451
 4830POPC   GL161681  44.683   3.000   5.866
 4830POPC   GL261682  44.583   2.679   5.794
 4830POPC   C1A61683  44.838   2.852   6.301
 4830POPC   D2A61684  44.981   2.546   6.637
 4830POPC   C3A61685  44.802   2.661   7.073
 4830POPC   C4A61686  44.569   3.092   7.143
 4830POPC   C1B61687  44.332   2.751   6.202
 4830POPC   C2B61688  44.454   2.749   6.653
 4830POPC   C3B61689  44.299   2.614   7.042
 4830POPC   C4B61690  44.352   2.748   7.445
 4831POPC   NC361691  29.920  33.959   5.615
 4831POPC   PO461692  29.686  33.413   5.443
 4831POPC   GL161693  29.851  33.474   5.838
 4831POPC   GL261694  30.182  33.561   5.905
 4831POPC   C1A61695  29.792  33.686   6.254
 4831POPC   D2A61696  29.854  34.043   6.580
 4831POPC   C3A61697  29.664  34.024   7.011
 4831POPC   C4A61698  29.340  34.047   7.344
 4831POPC   C1B61699  30.225  33.947   6.199
 4831POPC   C2B61700  30.334  33.864   6.614
 4831POPC   C3B61701  30.124  33.776   6.982
 4831POPC   C4B61702  30.100  33.990   7.336
 4832POPC   NC361703  43.569  21.838   5.324
 4832POPC   PO461704  43.700  22.531   5.351
 4832POPC   GL161705  43.810  22.238   5.730
 4832POPC   GL261706  43.633  21.914   5.805
 4832POPC   C1A61707  43.966  22.062   6.148
 4832POPC   D2A61708  43.820  22.119   6.552
 4832POPC   C3A61709  43.994  21.963   6.929
 4832POPC   C4A61710  44.002  22.141   7.316
 4832POPC   C1B61711  43.445  22.018   6.165
 4832POPC   C2B61712  43.369  21.840   6.533
 4832POPC   C3B61713  43.463  22.003   6.918
 4832POPC   C4B61714  43.492  22.174   7.281
 4833POPC   NC361715  10.321  11.462   5.291
 4833POPC   PO461716  10.569  11.724   5.815
 4833POPC   GL161717  10.657  11.303   5.897
 4833POPC   GL261718  10.322  11.241   5.785
 4833POPC   C1A61719  10.838  11.228   6.323
 4833POPC   D2A61720  10.856  11.584   6.669
 4833POPC   C3A61721  10.870  11.497   7.133
 4833POPC   C4A61722  10.739  11.261   7.526
 4833POPC   C1B61723  10.269  11.343   6.247
 4833POPC   C2B61724  10.444  11.210   6.645
 4833POPC   C3B61725  10.534  11.128   7.055
 4833POPC   C4B61726  10.199  11.168   7.283
 4834POPC   NC361727   5.820   1.382   5.544
 4834POPC   PO461728   5.442   0.751   5.554
 4834POPC   GL161729   5.614   1.027   5.879
 4834POPC   GL261730   5.971   1.012   5.904
 4834POPC   C1A61731   5.744   1.158   6.312
 4834POPC   D2A61732   5.709   0.975   6.693
 4834POPC   C3A61733   5.739   1.261   6.973
 4834POPC   C4A61734   5.897   1.423   7.302
 4834POPC   C1B61735   6.268   1.025   6.270
 4834POPC   C2B61736   6.184   1.184   6.687
 4834POPC   C3B61737   6.232   1.071   7.120
 4834POPC   C4B61738   6.331   0.767   7.434
 4835POPC   NC361739  25.180  19.446   5.451
 4835POPC   PO461740  25.642  18.853   5.414
 4835POPC   GL161741  25.425  19.016   5.763
 4835POPC   GL261742  25.173  18.808   5.921
 4835POPC   C1A61743  25.536  19.029   6.205
 4835POPC   D2A61744  25.523  18.826   6.574
 4835POPC   C3A61745  25.586  19.033   6.938
 4835POPC   C4A61746  25.545  19.185   7.327
 4835POPC   C1B61747  25.045  19.104   6.230
 4835POPC   C2B61748  25.217  19.234   6.634
 4835POPC   C3B61749  25.102  19.112   7.051
 4835POPC   C4B61750  24.724  19.168   7.294
 4836POPC   NC361751   5.754  29.365   5.470
 4836POPC   PO461752   5.729  28.722   5.391
 4836POPC   GL161753   5.758  28.908   5.790
 4836POPC   GL261754   6.072  28.811   5.908
 4836POPC   C1A61755   5.693  29.193   6.141
 4836POPC   D2A61756   5.915  29.294   6.525
 4836POPC   C3A61757   5.701  29.298   6.891
 4836POPC   C4A61758   5.755  28.968   7.151
 4836POPC   C1B61759   6.243  29.164   6.148
 4836POPC   C2B61760   6.392  29.086   6.554
 4836POPC   C3B61761   6.222  29.131   6.987
 4836POPC   C4B61762   6.155  29.084   7.449
 4837POPC   NC361763   3.269   5.578   5.567
 4837POPC   PO461764   3.607   4.994   5.553
 4837POPC   GL161765   3.380   5.190   5.904
 4837POPC   GL261766   3.683   5.270   5.988
 4837POPC   C1A61767   3.392   5.278   6.391
 4837POPC   D2A61768   3.440   5.465   6.808
 4837POPC   C3A61769   3.095   5.357   7.083
 4837POPC   C4A61770   3.128   5.116   7.473
 4837POPC   C1B61771   3.615   4.847   6.217
 4837POPC   C2B61772   3.510   4.791   6.658
 4837POPC   C3B61773   3.499   4.981   7.077
 4837POPC   C4B61774   3.534   5.366   7.326
 4838POPC   NC361775  43.297  44.146   5.597
 4838POPC   PO461776  43.075  43.638   5.349
 4838POPC   GL161777  43.036  43.691   5.802
 4838POPC   GL261778  42.846  43.995   5.914
 4838POPC   C1A61779  43.344  43.563   6.138
 4838POPC   D2A61780  43.483  43.724   6.539
 4838POPC   C3A61781  43.143  43.794   6.811
 4838POPC   C4A61782  43.210  43.748   7.221
 4838POPC   C1B61783  43.103  44.011   6.289
 4838POPC   C2B61784  43.252  44.265   6.627
 4838POPC   C3B61785  43.100  44.277   7.031
 4838POPC   C4B61786  42.796  44.031   7.280
 4839POPC   NC361787  44.338  20.025   5.303
 4839POPC   PO461788  44.960  19.693   5.230
 4839POPC   GL161789  44.736  19.753   5.673
 4839POPC   GL261790  44.370  19.693   5.730
 4839POPC   C1A61791  44.780  19.745   6.141
 4839POPC   D2A61792  44.820  20.028   6.536
 4839POPC   C3A61793  44.811  19.776   6.921
 4839POPC   C4A61794  44.651  20.026   7.262
 4839POPC   C1B61795  44.288  19.824   6.148
 4839POPC   C2B61796  44.437  19.696   6.546
 4839POPC   C3B61797  44.306  19.833   6.933
 4839POPC   C4B61798  44.305  19.601   7.325
 4840POPC   NC361799  10.182  12.100   5.325
 4840POPC   PO461800  10.784  12.385   5.484
 4840POPC   GL161801  10.639  12.223   5.872
 4840POPC   GL261802  10.308  12.199   5.809
 4840POPC   C1A61803  10.515  12.101   6.320
 4840POPC   D2A61804  10.436  12.210   6.739
 4840POPC   C3A61805  10.554  11.894   7.016
 4840POPC   C4A61806  10.424  11.616   7.334
 4840POPC   C1B61807  10.262  12.491   6.135
 4840POPC   C2B61808  10.010  12.495   6.504
 4840POPC   C3B61809   9.935  12.203   6.821
 4840POPC   C4B61810  10.184  12.213   7.217
 4841POPC   NC361811  13.273  12.709   5.435
 4841POPC   PO461812  12.699  12.707   5.357
 4841POPC   GL161813  12.809  12.765   5.754
 4841POPC   GL261814  12.554  12.539   5.824
 4841POPC   C1A61815  13.032  12.772   6.153
 4841POPC   D2A61816  13.305  13.032   6.432
 4841POPC   C3A61817  13.111  13.035   6.834
 4841POPC   C4A61818  12.966  12.640   6.996
 4841POPC   C1B61819  12.485  12.804   6.160
 4841POPC   C2B61820  12.681  12.756   6.546
 4841POPC   C3B61821  12.465  12.649   6.898
 4841POPC   C4B61822  12.526  12.852   7.262
 4842POPC   NC361823  13.847  39.980   5.482
 4842POPC   PO461824  13.278  39.634   5.254
 4842POPC   GL161825  13.198  39.681   5.755
 4842POPC   GL261826  13.330  39.999   5.715
 4842POPC   C1A61827  13.312  39.801   6.231
 4842POPC   D2A61828  13.687  39.915   6.561
 4842POPC   C3A61829  13.642  39.839   7.044
 4842POPC   C4A61830  13.724  39.837   7.499
 4842POPC   C1B61831  13.232  40.285   6.050
 4842POPC   C2B61832  13.292  40.278   6.503
 4842POPC   C3B61833  13.518  40.314   6.886
 4842POPC   C4B61834  13.490  40.241   7.332
 4843POPC   NC361835   6.886  19.578   5.497
 4843POPC   PO461836   6.521  18.998   5.220
 4843POPC   GL161837   6.709  19.097   5.678
 4843POPC   GL261838   6.812  19.376   5.945
 4843POPC   C1A61839   6.905  18.892   6.075
 4843POPC   D2A61840   6.852  19.052   6.475
 4843POPC   C3A61841   6.691  18.907   6.852
 4843POPC   C4A61842   6.705  18.810   7.271
 4843POPC   C1B61843   7.078  19.478   6.309
 4843POPC   C2B61844   7.182  19.322   6.762
 4843POPC   C3B61845   6.904  19.300   7.129
 4843POPC   C4B61846   6.920  19.574   7.476
 4844POPC   NC361847   2.506  26.945   5.613
 4844POPC   PO461848   3.030  26.579   5.291
 4844POPC   GL161849   2.982  26.702   5.741
 4844POPC   GL261850   3.005  27.037   5.835
 4844POPC   C1A61851   2.831  26.630   6.164
 4844POPC   D2A61852   2.663  26.468   6.549
 4844POPC   C3A61853   2.722  26.747   6.905
 4844POPC   C4A61854   2.953  26.666   7.284
 4844POPC   C1B61855   2.695  27.142   6.198
 4844POPC   C2B61856   2.444  27.146   6.587
 4844POPC   C3B61857   2.301  27.087   7.000
 4844POPC   C4B61858   2.551  27.020   7.340
 4845POPC   NC361859  33.665   9.280   5.512
 4845POPC   PO461860  33.896   8.597   5.384
 4845POPC   GL161861  33.945   8.894   5.730
 4845POPC   GL261862  33.628   8.932   5.934
 4845POPC   C1A61863  34.016   9.168   6.124
 4845POPC   D2A61864  33.818   8.997   6.488
 4845POPC   C3A61865  33.826   9.157   6.902
 4845POPC   C4A61866  33.896   8.946   7.247
 4845POPC   C1B61867  33.464   9.277   6.206
 4845POPC   C2B61868  33.339   9.167   6.641
 4845POPC   C3B61869  33.470   8.788   6.824
 4845POPC   C4B61870  33.483   8.634   7.216
 4846POPC   NC361871  30.885  14.576   5.522
 4846POPC   PO461872  30.696  14.045   5.244
 4846POPC   GL161873  30.746  14.110   5.697
 4846POPC   GL261874  30.502  14.421   5.809
 4846POPC   C1A61875  30.764  14.153   6.146
 4846POPC   D2A61876  30.458  14.294   6.473
 4846POPC   C3A61877  30.654  14.182   6.841
 4846POPC   C4A61878  30.734  14.202   7.267
 4846POPC   C1B61879  30.667  14.662   6.172
 4846POPC   C2B61880  30.779  14.704   6.630
 4846POPC   C3B61881  30.652  14.652   7.055
 4846POPC   C4B61882  30.555  14.844   7.443
 4847POPC   NC361883  34.416  24.537   5.368
 4847POPC   PO461884  35.091  24.458   5.456
 4847POPC   GL161885  34.787  24.553   5.755
 4847POPC   GL261886  34.522  24.331   5.845
 4847POPC   C1A61887  34.670  24.691   6.182
 4847POPC   D2A61888  34.521  24.826   6.609
 4847POPC   C3A61889  34.652  24.637   6.997
 4847POPC   C4A61890  34.370  24.609   7.291
 4847POPC   C1B61891  34.373  24.290   6.262
 4847POPC   C2B61892  34.381  24.023   6.607
 4847POPC   C3B61893  34.394  24.165   7.026
 4847POPC   C4B61894  34.526  24.167   7.472
 4848POPC   NC361895  26.812  41.774   5.548
 4848POPC   PO461896  26.680  41.057   5.276
 4848POPC   GL161897  26.862  41.275   5.667
 4848POPC   GL261898  26.570  41.488   5.872
 4848POPC   C1A61899  27.006  41.491   6.107
 4848POPC   D2A61900  26.856  41.784   6.394
 4848POPC   C3A61901  26.870  41.607   6.808
 4848POPC   C4A61902  26.789  41.611   7.249
 4848POPC   C1B61903  26.618  41.158   6.088
 4848POPC   C2B61904  26.758  41.097   6.496
 4848POPC   C3B61905  26.561  41.158   6.879
 4848POPC   C4B61906  26.723  41.126   7.282
 4849POPC   NC361907   2.534   4.929   5.371
 4849POPC   PO461908   2.837   5.559   5.355
 4849POPC   GL161909   2.847   5.315   5.757
 4849POPC   GL261910   2.954   4.950   5.744
 4849POPC   C1A61911   2.579   5.120   6.080
 4849POPC   D2A61912   2.556   4.937   6.505
 4849POPC   C3A61913   2.630   5.216   6.871
 4849POPC   C4A61914   2.660   5.209   7.330
 4849POPC   C1B61915   3.067   4.894   6.207
 4849POPC   C2B61916   3.054   5.018   6.665
 4849POPC   C3B61917   2.983   4.838   7.075
 4849POPC   C4B61918   2.762   4.735   7.486
 4850POPC   NC361919  37.172   7.464   5.182
 4850POPC   PO461920  37.537   7.812   5.695
 4850POPC   GL161921  37.460   7.390   5.958
 4850POPC   GL261922  37.814   7.288   6.109
 4850POPC   C1A61923  37.418   7.275   6.416
 4850POPC   D2A61924  37.780   7.385   6.706
 4850POPC   C3A61925  37.925   7.079   6.986
 4850POPC   C4A61926  37.610   6.994   7.273
 4850POPC   C1B61927  37.721   7.709   6.303
 4850POPC   C2B61928  37.757   8.028   6.599
 4850POPC   C3B61929  37.831   7.868   6.989
 4850POPC   C4B61930  37.755   7.503   7.251
 4851POPC   NC361931   6.792  36.574   5.383
 4851POPC   PO461932   6.492  37.116   5.088
 4851POPC   GL161933   6.536  36.973   5.591
 4851POPC   GL261934   6.910  36.995   5.750
 4851POPC   C1A61935   6.551  36.783   6.055
 4851POPC   D2A61936   6.610  36.653   6.519
 4851POPC   C3A61937   6.395  36.861   6.906
 4851POPC   C4A61938   6.268  36.777   7.360
 4851POPC   C1B61939   7.067  37.049   6.223
 4851POPC   C2B61940   6.887  37.067   6.677
 4851POPC   C3B61941   6.895  36.960   7.138
 4851POPC   C4B61942   7.067  37.153   7.525
 4852POPC   NC361943   0.172  42.639   5.419
 4852POPC   PO461944   0.776  42.358   5.175
 4852POPC   GL161945   0.512  42.274   5.636
 4852POPC   GL261946   0.185  42.301   5.828
 4852POPC   C1A61947   0.583  42.336   6.123
 4852POPC   D2A61948   0.272  42.478   6.415
 4852POPC   C3A61949   0.386  42.624   6.812
 4852POPC   C4A61950   0.384  42.477   7.228
 4852POPC   C1B61951   0.199  41.982   6.165
 4852POPC   C2B61952   0.356  42.004   6.590
 4852POPC   C3B61953   0.107  42.153   6.928
 4852POPC   C4B61954   0.130  42.044   7.351
 4853POPC   NC361955  25.485   2.386   5.276
 4853POPC   PO461956  25.012   2.881   5.426
 4853POPC   GL161957  25.293   2.632   5.761
 4853POPC   GL261958  25.605   2.384   5.778
 4853POPC   C1A61959  25.240   2.658   6.224
 4853POPC   D2A61960  25.182   2.977   6.562
 4853POPC   C3A61961  25.218   2.804   6.972
 4853POPC   C4A61962  25.260   2.884   7.399
 4853POPC   C1B61963  25.630   2.280   6.247
 4853POPC   C2B61964  25.475   2.451   6.673
 4853POPC   C3B61965  25.639   2.511   7.127
 4853POPC   C4B61966  25.626   2.570   7.597
 4854POPC   NC361967  36.062   9.505   5.214
 4854POPC   PO461968  35.966  10.126   5.483
 4854POPC   GL161969  35.989   9.849   5.782
 4854POPC   GL261970  35.829  10.118   5.972
 4854POPC   C1A61971  36.243   9.672   6.138
 4854POPC   D2A61972  36.103   9.736   6.568
 4854POPC   C3A61973  36.253   9.669   6.938
 4854POPC   C4A61974  36.306   9.651   7.349
 4854POPC   C1B61975  35.727   9.811   6.230
 4854POPC   C2B61976  35.662   9.982   6.624
 4854POPC   C3B61977  35.797   9.922   7.026
 4854POPC   C4B61978  35.611   9.902   7.394
 4855POPC   NC361979  42.488  44.484   5.310
 4855POPC   PO461980  42.075  44.902   5.651
 4855POPC   GL161981  42.424  44.841   5.918
 4855POPC   GL261982  42.551  44.522   5.861
 4855POPC   C1A61983  42.449  44.806   6.365
 4855POPC   D2A61984  42.073  44.729   6.626
 4855POPC   C3A61985  42.142  44.535   7.024
 4855POPC   C4A61986  41.979  44.634   7.408
 4855POPC   C1B61987  42.795  44.420   6.235
 4855POPC   C2B61988  42.715  44.278   6.677
 4855POPC   C3B61989  42.657  44.538   7.066
 4855POPC   C4B61990  42.634  44.985   7.246
 4856POPC   NC361991  11.588   4.564   5.068
 4856POPC   PO461992  11.103   4.356   5.449
 4856POPC   GL161993  11.213   4.282   5.844
 4856POPC   GL261994  11.067   4.592   5.940
 4856POPC   C1A61995  11.400   4.325   6.261
 4856POPC   D2A61996  11.507   4.124   6.633
 4856POPC   C3A61997  11.281   4.187   7.002
 4856POPC   C4A61998  11.488   4.301   7.363
 4856POPC   C1B61999  11.112   4.752   6.339
 4856POPC   C2B62000  11.349   4.638   6.723
 4856POPC   C3B62001  11.244   4.713   7.154
 4856POPC   C4B62002  11.275   4.679   7.628
 4857POPC   NC362003  25.633  15.182   5.343
 4857POPC   PO462004  26.227  15.386   5.142
 4857POPC   GL162005  26.063  15.324   5.609
 4857POPC   GL262006  26.052  14.989   5.658
 4857POPC   C1A62007  25.777  15.276   6.004
 4857POPC   D2A62008  25.790  15.240   6.472
 4857POPC   C3A62009  25.872  14.956   6.834
 4857POPC   C4A62010  25.907  15.169   7.240
 4857POPC   C1B62011  26.160  14.995   6.141
 4857POPC   C2B62012  26.291  14.822   6.547
 4857POPC   C3B62013  26.400  14.922   6.949
 4857POPC   C4B62014  26.385  15.055   7.360
 4858POPC   NC362015  14.077  14.753   5.529
 4858POPC   PO462016  14.402  15.366   5.428
 4858POPC   GL162017  14.546  15.170   5.784
 4858POPC   GL262018  14.228  15.191   5.886
 4858POPC   C1A62019  14.717  15.090   6.210
 4858POPC   D2A62020  14.846  15.277   6.630
 4858POPC   C3A62021  14.616  15.137   7.005
 4858POPC   C4A62022  14.356  14.984   7.366
 4858POPC   C1B62023  14.196  15.150   6.315
 4858POPC   C2B62024  14.206  15.258   6.738
 4858POPC   C3B62025  13.956  15.145   7.080
 4858POPC   C4B62026  13.850  15.322   7.477
 4859POPC   NC362027  19.602  13.242   5.557
 4859POPC   PO462028  19.234  13.753   5.301
 4859POPC   GL162029  18.986  13.809   5.666
 4859POPC   GL262030  19.127  14.042   5.931
 4859POPC   C1A62031  18.982  13.582   6.051
 4859POPC   D2A62032  19.102  13.503   6.468
 4859POPC   C3A62033  18.912  13.583   6.878
 4859POPC   C4A62034  18.957  13.476   7.303
 4859POPC   C1B62035  19.382  13.893   6.278
 4859POPC   C2B62036  19.360  13.840   6.733
 4859POPC   C3B62037  19.315  13.829   7.174
 4859POPC   C4B62038  19.342  13.864   7.645
 4860POPC   NC362039  27.858  36.656   5.357
 4860POPC   PO462040  27.437  37.157   5.229
 4860POPC   GL162041  27.547  37.023   5.714
 4860POPC   GL262042  27.921  37.019   5.780
 4860POPC   C1A62043  27.605  36.845   6.166
 4860POPC   D2A62044  27.885  36.845   6.536
 4860POPC   C3A62045  27.778  36.842   6.981
 4860POPC   C4A62046  27.654  36.918   7.461
 4860POPC   C1B62047  27.845  37.288   6.170
 4860POPC   C2B62048  27.678  37.296   6.609
 4860POPC   C3B62049  27.675  37.327   7.041
 4860POPC   C4B62050  27.933  37.405   7.417
 4861POPC   NC362051  35.731   1.742   5.332
 4861POPC   PO462052  35.266   2.189   5.520
 4861POPC   GL162053  35.315   1.844   5.801
 4861POPC   GL262054  35.568   1.632   5.810
 4861POPC   C1A62055  35.260   1.895   6.215
 4861POPC   D2A62056  35.169   2.200   6.498
 4861POPC   C3A62057  35.231   1.966   6.857
 4861POPC   C4A62058  35.288   2.084   7.244
 4861POPC   C1B62059  35.762   1.820   6.160
 4861POPC   C2B62060  35.693   2.036   6.546
 4861POPC   C3B62061  35.837   1.853   6.932
 4861POPC   C4B62062  35.604   1.611   7.221
 4862POPC   NC362063  15.485  34.986   5.554
 4862POPC   PO462064  15.312  34.348   5.310
 4862POPC   GL162065  15.252  34.573   5.736
 4862POPC   GL262066  14.934  34.767   5.852
 4862POPC   C1A62067  15.310  34.608   6.182
 4862POPC   D2A62068  15.098  34.375   6.513
 4862POPC   C3A62069  15.390  34.242   6.835
 4862POPC   C4A62070  15.317  34.490   7.204
 4862POPC   C1B62071  14.839  34.780   6.262
 4862POPC   C2B62072  15.054  34.887   6.581
 4862POPC   C3B62073  15.118  34.877   6.965
 4862POPC   C4B62074  14.856  34.754   7.309
 4863POPC   NC362075   5.128  20.538   5.519
 4863POPC   PO462076   5.485  21.007   5.651
 4863POPC   GL162077   5.215  20.857   5.962
 4863POPC   GL262078   4.868  20.842   5.897
 4863POPC   C1A62079   5.041  20.634   6.351
 4863POPC   D2A62080   5.077  20.299   6.675
 4863POPC   C3A62081   5.211  20.378   7.087
 4863POPC   C4A62082   5.340  20.777   7.189
 4863POPC   C1B62083   4.628  20.945   6.280
 4863POPC   C2B62084   4.711  20.892   6.737
 4863POPC   C3B62085   4.811  20.858   7.188
 4863POPC   C4B62086   4.628  20.949   7.588
 4864POPC   NC362087  21.685  11.775   5.365
 4864POPC   PO462088  21.099  11.349   5.291
 4864POPC   GL162089  21.275  11.362   5.716
 4864POPC   GL262090  21.649  11.425   5.749
 4864POPC   C1A62091  21.365  11.273   6.169
 4864POPC   D2A62092  21.235  11.519   6.547
 4864POPC   C3A62093  21.288  11.260   6.928
 4864POPC   C4A62094  21.015  11.306   7.271
 4864POPC   C1B62095  21.845  11.419   6.177
 4864POPC   C2B62096  21.679  11.285   6.585
 4864POPC   C3B62097  21.767  11.446   6.997
 4864POPC   C4B62098  21.610  11.280   7.361
 4865POPC   NC362099  12.992  20.037   5.340
 4865POPC   PO462100  12.313  19.997   5.405
 4865POPC   GL162101  12.576  19.721   5.703
 4865POPC   GL262102  12.955  19.627   5.666
 4865POPC   C1A62103  12.736  19.817   6.112
 4865POPC   D2A62104  12.658  20.028   6.484
 4865POPC   C3A62105  12.532  19.916   6.905
 4865POPC   C4A62106  12.749  19.964   7.300
 4865POPC   C1B62107  13.196  19.594   6.063
 4865POPC   C2B62108  13.075  19.692   6.481
 4865POPC   C3B62109  13.009  19.719   6.916
 4865POPC   C4B62110  13.099  19.564   7.309
 4866POPC   NC362111  17.865  15.151   5.360
 4866POPC   PO462112  17.184  15.143   5.264
 4866POPC   GL162113  17.349  15.343   5.706
 4866POPC   GL262114  17.667  15.166   5.836
 4866POPC   C1A62115  17.453  15.485   6.182
 4866POPC   D2A62116  17.679  15.234   6.540
 4866POPC   C3A62117  17.506  15.294   6.990
 4866POPC   C4A62118  17.638  15.365   7.431
 4866POPC   C1B62119  17.377  14.974   6.165
 4866POPC   C2B62120  17.239  14.956   6.618
 4866POPC   C3B62121  17.121  14.937   7.056
 4866POPC   C4B62122  17.290  14.978   7.484
 4867POPC   NC362123  33.592  11.580   5.510
 4867POPC   PO462124  33.582  10.897   5.464
 4867POPC   GL162125  33.653  11.200   5.851
 4867POPC   GL262126  34.004  11.370   5.803
 4867POPC   C1A62127  33.756  11.440   6.274
 4867POPC   D2A62128  33.742  11.657   6.722
 4867POPC   C3A62129  33.496  11.445   7.043
 4867POPC   C4A62130  33.395  11.112   7.336
 4867POPC   C1B62131  34.222  11.147   6.152
 4867POPC   C2B62132  34.186  10.982   6.567
 4867POPC   C3B62133  33.922  11.176   6.871
 4867POPC   C4B62134  33.901  11.237   7.309
 4868POPC   NC362135  13.419   0.831   5.362
 4868POPC   PO462136  13.808   0.281   5.502
 4868POPC   GL162137  13.703   0.623   5.764
 4868POPC   GL262138  13.386   0.502   5.811
 4868POPC   C1A62139  13.890   0.789   6.148
 4868POPC   D2A62140  13.760   0.673   6.563
 4868POPC   C3A62141  13.933   0.387   6.832
 4868POPC   C4A62142  13.918   0.529   7.252
 4868POPC   C1B62143  13.651   0.323   6.187
 4868POPC   C2B62144  13.516   0.186   6.609
 4868POPC   C3B62145  13.483   0.237   7.052
 4868POPC   C4B62146  13.579   0.258   7.511
 4869POPC   NC362147  12.681  24.638   5.346
 4869POPC   PO462148  13.327  24.695   5.620
 4869POPC   GL162149  12.931  24.622   5.838
 4869POPC   GL262150  12.841  24.298   5.696
 4869POPC   C1A62151  12.768  24.555   6.281
 4869POPC   D2A62152  12.956  24.664   6.703
 4869POPC   C3A62153  12.760  24.621   7.086
 4869POPC   C4A62154  12.717  24.416   7.466
 4869POPC   C1B62155  13.065  24.181   6.062
 4869POPC   C2B62156  13.097  24.207   6.494
 4869POPC   C3B62157  12.770  24.188   6.798
 4869POPC   C4B62158  12.970  24.110   7.164
 4870POPC   NC362159  12.473  44.296   5.392
 4870POPC   PO462160  13.051  44.753   5.469
 4870POPC   GL162161  12.713  44.805   5.758
 4870POPC   GL262162  12.971  44.814   6.025
 4870POPC   C1A62163  12.466  44.757   6.140
 4870POPC   D2A62164  12.712  44.787   6.501
 4870POPC   C3A62165  12.671  44.584   6.906
 4870POPC   C4A62166  12.698  44.759   7.327
 4870POPC   C1B62167  13.145  44.424   6.207
 4870POPC   C2B62168  13.111  44.229   6.568
 4870POPC   C3B62169  13.265  44.351   6.963
 4870POPC   C4B62170  13.084  44.409   7.344
 4871POPC   NC362171  22.338  25.858   5.494
 4871POPC   PO462172  22.027  26.481   5.308
 4871POPC   GL162173  22.042  26.220   5.735
 4871POPC   GL262174  21.985  25.916   5.964
 4871POPC   C1A62175  22.314  26.269   6.133
 4871POPC   D2A62176  22.466  26.165   6.570
 4871POPC   C3A62177  22.147  26.199   6.895
 4871POPC   C4A62178  22.056  26.191   7.330
 4871POPC   C1B62179  22.252  25.776   6.302
 4871POPC   C2B62180  22.284  25.662   6.741
 4871POPC   C3B62181  22.235  25.697   7.194
 4871POPC   C4B62182  21.971  25.734   7.572
 4872POPC   NC362183   5.415  19.093   5.103
 4872POPC   PO462184   4.840  18.929   5.429
 4872POPC   GL162185   5.057  18.976   5.834
 4872POPC   GL262186   4.853  19.221   5.951
 4872POPC   C1A62187   5.103  18.832   6.299
 4872POPC   D2A62188   5.363  18.718   6.694
 4872POPC   C3A62189   5.248  18.927   7.118
 4872POPC   C4A62190   5.128  19.329   7.232
 4872POPC   C1B62191   4.865  19.290   6.377
 4872POPC   C2B62192   4.935  19.131   6.767
 4872POPC   C3B62193   4.686  19.148   7.139
 4872POPC   C4B62194   4.756  19.303   7.617
 4873POPC   NC362195  32.371  36.625   5.475
 4873POPC   PO462196  32.455  37.268   5.335
 4873POPC   GL162197  32.402  37.070   5.768
 4873POPC   GL262198  32.096  37.109   5.946
 4873POPC   C1A62199  32.461  36.855   6.182
 4873POPC   D2A62200  32.334  36.935   6.583
 4873POPC   C3A62201  32.376  36.709   6.960
 4873POPC   C4A62202  32.087  37.034   7.080
 4873POPC   C1B62203  31.939  36.800   6.269
 4873POPC   C2B62204  31.909  36.673   6.733
 4873POPC   C3B62205  31.713  36.701   7.150
 4873POPC   C4B62206  31.768  36.726   7.584
 4874POPC   NC362207   6.464  26.248   5.713
 4874POPC   PO462208   6.778  26.671   5.254
 4874POPC   GL162209   6.627  26.771   5.724
 4874POPC   GL262210   6.412  27.071   5.782
 4874POPC   C1A62211   6.456  26.726   6.195
 4874POPC   D2A62212   6.637  26.635   6.621
 4874POPC   C3A62213   6.448  26.699   7.040
 4874POPC   C4A62214   6.553  26.548   7.477
 4874POPC   C1B62215   6.173  27.175   6.173
 4874POPC   C2B62216   6.279  27.091   6.585
 4874POPC   C3B62217   6.638  27.144   6.808
 4874POPC   C4B62218   6.613  27.285   7.205
 4875POPC   NC362219  30.175  41.833   5.798
 4875POPC   PO462220  30.638  41.548   5.390
 4875POPC   GL162221  30.640  41.594   5.806
 4875POPC   GL262222  30.384  41.345   5.808
 4875POPC   C1A62223  30.927  41.547   6.151
 4875POPC   D2A62224  30.797  41.461   6.568
 4875POPC   C3A62225  30.787  41.685   6.952
 4875POPC   C4A62226  30.443  41.671   7.258
 4875POPC   C1B62227  30.574  41.154   6.171
 4875POPC   C2B62228  30.522  41.011   6.582
 4875POPC   C3B62229  30.449  41.228   6.989
 4875POPC   C4B62230  30.415  41.122   7.453
 4876POPC   NC362231   2.247  32.546   5.604
 4876POPC   PO462232   1.776  32.111   5.481
 4876POPC   GL162233   1.997  32.134   5.860
 4876POPC   GL262234   1.823  32.447   5.903
 4876POPC   C1A62235   2.102  32.077   6.310
 4876POPC   D2A62236   2.306  32.252   6.682
 4876POPC   C3A62237   2.191  32.071   7.055
 4876POPC   C4A62238   1.754  32.056   7.149
 4876POPC   C1B62239   1.907  32.539   6.324
 4876POPC   C2B62240   1.780  32.335   6.694
 4876POPC   C3B62241   1.716  32.557   7.054
 4876POPC   C4B62242   2.068  32.505   7.278
 4877POPC   NC362243  18.553   3.110   5.179
 4877POPC   PO462244  18.071   2.684   5.461
 4877POPC   GL162245  18.318   2.662   5.825
 4877POPC   GL262246  18.624   2.400   5.800
 4877POPC   C1A62247  18.161   2.846   6.239
 4877POPC   D2A62248  18.116   2.603   6.616
 4877POPC   C3A62249  18.072   2.760   7.039
 4877POPC   C4A62250  17.922   3.177   7.126
 4877POPC   C1B62251  18.588   2.562   6.241
 4877POPC   C2B62252  18.612   2.748   6.663
 4877POPC   C3B62253  18.600   2.574   7.064
 4877POPC   C4B62254  18.375   2.529   7.436
 4878POPC   NC362255  25.230  15.517   5.684
 4878POPC   PO462256  25.190  15.039   5.195
 4878POPC   GL162257  25.148  15.009   5.660
 4878POPC   GL262258  24.878  15.131   5.700
 4878POPC   C1A62259  25.319  15.070   6.134
 4878POPC   D2A62260  25.292  15.390   6.484
 4878POPC   C3A62261  25.375  15.175   6.865
 4878POPC   C4A62262  25.410  15.317   7.250
 4878POPC   C1B62263  24.873  14.851   6.069
 4878POPC   C2B62264  24.820  15.028   6.471
 4878POPC   C3B62265  24.892  14.908   6.887
 4878POPC   C4B62266  25.110  14.863   7.260
 4879POPC   NC362267  23.180   3.837   5.393
 4879POPC   PO462268  22.822   3.340   5.507
 4879POPC   GL162269  22.911   3.710   5.827
 4879POPC   GL262270  23.271   3.665   5.893
 4879POPC   C1A62271  23.002   3.818   6.291
 4879POPC   D2A62272  23.147   3.685   6.685
 4879POPC   C3A62273  22.885   3.530   6.987
 4879POPC   C4A62274  22.843   3.764   7.392
 4879POPC   C1B62275  23.045   3.328   6.154
 4879POPC   C2B62276  23.048   3.171   6.570
 4879POPC   C3B62277  23.318   3.232   6.923
 4879POPC   C4B62278  23.234   3.423   7.328
 4880POPC   NC362279  33.198  21.049   5.564
 4880POPC   PO462280  32.921  20.447   5.484
 4880POPC   GL162281  32.883  20.723   5.825
 4880POPC   GL262282  32.729  20.442   5.998
 4880POPC   C1A62283  32.958  20.856   6.249
 4880POPC   D2A62284  33.221  20.696   6.537
 4880POPC   C3A62285  32.991  20.510   6.850
 4880POPC   C4A62286  32.866  20.693   7.232
 4880POPC   C1B62287  33.171  20.406   6.111
 4880POPC   C2B62288  33.314  20.201   6.503
 4880POPC   C3B62289  33.334  20.125   6.931
 4880POPC   C4B62290  33.234  20.294   7.307
 4881POPC   NC362291  14.739  10.655   5.542
 4881POPC   PO462292  15.429  10.486   5.539
 4881POPC   GL162293  15.134  10.443   5.873
 4881POPC   GL262294  15.046  10.763   5.931
 4881POPC   C1A62295  14.998  10.419   6.322
 4881POPC   D2A62296  14.911  10.369   6.747
 4881POPC   C3A62297  15.198  10.440   7.060
 4881POPC   C4A62298  15.051  10.515   7.483
 4881POPC   C1B62299  14.753  10.900   6.224
 4881POPC   C2B62300  14.640  10.793   6.633
 4881POPC   C3B62301  14.811  10.783   7.038
 4881POPC   C4B62302  14.607  10.783   7.448
 4882POPC   NC362303  25.583  36.201   5.478
 4882POPC   PO462304  26.114  36.143   5.202
 4882POPC   GL162305  26.062  36.272   5.678
 4882POPC   GL262306  26.254  36.050   5.853
 4882POPC   C1A62307  25.978  36.299   6.167
 4882POPC   D2A62308  25.921  36.052   6.558
 4882POPC   C3A62309  25.910  36.168   6.975
 4882POPC   C4A62310  26.217  36.276   7.251
 4882POPC   C1B62311  26.369  35.920   6.274
 4882POPC   C2B62312  26.658  35.860   6.629
 4882POPC   C3B62313  26.523  35.934   7.024
 4882POPC   C4B62314  26.177  35.770   7.182
 4883POPC   NC362315  28.179  10.434   5.625
 4883POPC   PO462316  28.586  10.444   5.142
 4883POPC   GL162317  28.609  10.658   5.724
 4883POPC   GL262318  28.307  10.825   5.931
 4883POPC   C1A62319  28.572  10.511   6.208
 4883POPC   D2A62320  28.241  10.372   6.512
 4883POPC   C3A62321  28.355  10.405   6.958
 4883POPC   C4A62322  28.665  10.676   7.185
 4883POPC   C1B62323  27.995  10.800   6.344
 4883POPC   C2B62324  27.973  10.725   6.806
 4883POPC   C3B62325  28.190  10.872   7.169
 4883POPC   C4B62326  28.026  10.959   7.604
 4884POPC   NC362327  30.468   9.329   5.455
 4884POPC   PO462328  29.894   8.909   5.358
 4884POPC   GL162329  29.806   9.020   5.768
 4884POPC   GL262330  30.100   9.162   5.783
 4884POPC   C1A62331  29.667   8.807   6.146
 4884POPC   D2A62332  29.731   8.575   6.528
 4884POPC   C3A62333  29.723   8.866   6.889
 4884POPC   C4A62334  29.452   8.834   7.254
 4884POPC   C1B62335  30.135   9.002   6.172
 4884POPC   C2B62336  30.129   9.139   6.564
 4884POPC   C3B62337  30.254   9.019   6.942
 4884POPC   C4B62338  30.228   9.184   7.302
 4885POPC   NC362339  32.492  13.334   5.256
 4885POPC   PO462340  31.869  13.532   5.397
 4885POPC   GL162341  32.073  13.508   5.818
 4885POPC   GL262342  31.914  13.263   6.026
 4885POPC   C1A62343  32.343  13.706   6.179
 4885POPC   D2A62344  32.558  13.892   6.575
 4885POPC   C3A62345  32.414  13.923   7.032
 4885POPC   C4A62346  32.323  13.549   7.318
 4885POPC   C1B62347  32.346  13.170   6.139
 4885POPC   C2B62348  32.588  13.360   6.475
 4885POPC   C3B62349  32.346  13.444   6.812
 4885POPC   C4B62350  32.348  13.102   7.079
 4886POPC   NC362351  35.711  37.459   5.337
 4886POPC   PO462352  35.036  37.673   5.458
 4886POPC   GL162353  35.365  37.689   5.756
 4886POPC   GL262354  35.527  37.368   5.801
 4886POPC   C1A62355  35.405  37.704   6.199
 4886POPC   D2A62356  35.250  37.660   6.595
 4886POPC   C3A62357  35.396  37.876   6.899
 4886POPC   C4A62358  35.466  37.790   7.309
 4886POPC   C1B62359  35.754  37.214   6.166
 4886POPC   C2B62360  35.619  37.292   6.583
 4886POPC   C3B62361  35.464  37.351   6.992
 4886POPC   C4B62362  35.585  37.320   7.450
 4887POPC   NC362363   1.693  29.425   5.477
 4887POPC   PO462364   2.396  29.211   5.430
 4887POPC   GL162365   2.071  29.195   5.755
 4887POPC   GL262366   2.016  29.512   5.883
 4887POPC   C1A62367   1.928  28.996   6.154
 4887POPC   D2A62368   1.859  29.146   6.586
 4887POPC   C3A62369   2.018  28.877   6.936
 4887POPC   C4A62370   2.007  28.993   7.377
 4887POPC   C1B62371   2.295  29.340   6.224
 4887POPC   C2B62372   2.361  29.221   6.664
 4887POPC   C3B62373   2.151  29.372   7.052
 4887POPC   C4B62374   2.229  29.624   7.433
 4888POPC   NC362375  16.420  23.918   5.378
 4888POPC   PO462376  16.917  23.413   5.423
 4888POPC   GL162377  16.819  23.720   5.728
 4888POPC   GL262378  16.466  23.677   5.831
 4888POPC   C1A62379  16.832  23.659   6.194
 4888POPC   D2A62380  16.809  23.371   6.555
 4888POPC   C3A62381  16.820  23.592   6.967
 4888POPC   C4A62382  16.827  23.873   7.348
 4888POPC   C1B62383  16.304  23.591   6.248
 4888POPC   C2B62384  16.365  23.688   6.695
 4888POPC   C3B62385  16.373  23.751   7.144
 4888POPC   C4B62386  16.388  23.760   7.613
 4889POPC   NC362387   6.654   4.107   5.402
 4889POPC   PO462388   6.983   4.710   5.451
 4889POPC   GL162389   6.786   4.380   5.823
 4889POPC   GL262390   6.642   3.958   5.883
 4889POPC   C1A62391   6.808   4.249   6.256
 4889POPC   D2A62392   7.007   4.323   6.612
 4889POPC   C3A62393   6.887   4.678   6.855
 4889POPC   C4A62394   6.784   4.746   7.274
 4889POPC   C1B62395   6.508   3.824   6.321
 4889POPC   C2B62396   6.501   4.114   6.687
 4889POPC   C3B62397   6.774   4.230   7.049
 4889POPC   C4B62398   6.470   4.227   7.311
 4890POPC   NC362399  24.966   0.645   5.257
 4890POPC   PO462400  25.329   0.089   5.505
 4890POPC   GL162401  25.050   0.274   5.805
 4890POPC   GL262402  25.024   0.643   5.813
 4890POPC   C1A62403  25.084   0.298   6.249
 4890POPC   D2A62404  25.357   0.360   6.614
 4890POPC   C3A62405  25.055   0.413   6.972
 4890POPC   C4A62406  25.072   0.377   7.446
 4890POPC   C1B62407  25.307   0.755   6.201
 4890POPC   C2B62408  25.297   0.858   6.652
 4890POPC   C3B62409  25.340   0.796   7.127
 4890POPC   C4B62410  25.333   0.803   7.579
 4891POPC   NC362411  10.460  31.233   5.470
 4891POPC   PO462412  10.145  31.850   5.396
 4891POPC   GL162413  10.464  31.684   5.761
 4891POPC   GL262414  10.793  31.578   5.721
 4891POPC   C1A62415  10.406  31.545   6.228
 4891POPC   D2A62416  10.582  31.300   6.584
 4891POPC   C3A62417  10.323  31.199   6.967
 4891POPC   C4A62418  10.120  30.992   7.326
 4891POPC   C1B62419  10.915  31.442   6.157
 4891POPC   C2B62420  10.932  31.661   6.567
 4891POPC   C3B62421  10.936  31.484   6.937
 4891POPC   C4B62422  10.846  31.105   7.016
 4892POPC   NC362423   2.363   5.722   5.396
 4892POPC   PO462424   1.740   6.149   5.437
 4892POPC   GL162425   1.996   6.035   5.775
 4892POPC   GL262426   1.681   6.041   5.985
 4892POPC   C1A62427   2.134   5.848   6.178
 4892POPC   D2A62428   1.900   5.680   6.555
 4892POPC   C3A62429   2.069   5.737   6.971
 4892POPC   C4A62430   2.234   5.998   7.270
 4892POPC   C1B62431   1.435   5.714   6.208
 4892POPC   C2B62432   1.378   5.619   6.655
 4892POPC   C3B62433   1.589   5.913   6.898
 4892POPC   C4B62434   1.721   6.012   7.275
 4893POPC   NC362435   7.272  22.869   5.131
 4893POPC   PO462436   6.660  23.007   5.368
 4893POPC   GL162437   6.636  23.188   5.754
 4893POPC   GL262438   6.651  22.886   5.904
 4893POPC   C1A62439   6.395  23.342   6.110
 4893POPC   D2A62440   6.286  23.077   6.437
 4893POPC   C3A62441   6.306  23.190   6.863
 4893POPC   C4A62442   6.562  22.971   7.162
 4893POPC   C1B62443   6.818  23.059   6.247
 4893POPC   C2B62444   6.751  22.980   6.656
 4893POPC   C3B62445   7.047  22.968   6.957
 4893POPC   C4B62446   7.032  23.131   7.377
 4894POPC   NC362447  31.830  29.795   5.587
 4894POPC   PO462448  32.273  30.113   5.147
 4894POPC   GL162449  32.248  30.088   5.665
 4894POPC   GL262450  32.309  29.749   5.826
 4894POPC   C1A62451  32.000  30.056   6.127
 4894POPC   D2A62452  32.122  29.855   6.522
 4894POPC   C3A62453  32.021  29.898   6.950
 4894POPC   C4A62454  32.213  30.143   7.268
 4894POPC   C1B62455  32.485  29.542   6.211
 4894POPC   C2B62456  32.484  29.527   6.673
 4894POPC   C3B62457  32.510  29.828   7.001
 4894POPC   C4B62458  32.635  29.914   7.455
 4895POPC   NC362459  26.699  23.546   5.377
 4895POPC   PO462460  26.770  24.201   5.614
 4895POPC   GL162461  26.891  23.817   5.853
 4895POPC   GL262462  26.688  23.521   5.904
 4895POPC   C1A62463  26.983  23.814   6.308
 4895POPC   D2A62464  27.062  24.116   6.641
 4895POPC   C3A62465  26.711  24.034   6.862
 4895POPC   C4A62466  26.722  23.787   7.234
 4895POPC   C1B62467  26.598  23.471   6.352
 4895POPC   C2B62468  26.663  23.517   6.788
 4895POPC   C3B62469  26.579  23.257   7.152
 4895POPC   C4B62470  26.504  23.173   7.619
 4896POPC   NC362471  31.963  38.313   5.609
 4896POPC   PO462472  31.330  38.274   5.447
 4896POPC   GL162473  31.442  38.517   5.773
 4896POPC   GL262474  31.237  38.316   5.971
 4896POPC   C1A62475  31.653  38.525   6.181
 4896POPC   D2A62476  31.557  38.318   6.564
 4896POPC   C3A62477  31.674  38.582   6.896
 4896POPC   C4A62478  31.486  38.730   7.271
 4896POPC   C1B62479  31.260  37.992   6.309
 4896POPC   C2B62480  31.288  37.948   6.776
 4896POPC   C3B62481  31.236  38.146   7.173
 4896POPC   C4B62482  31.201  38.408   7.573
 4897POPC   NC362483  44.734   1.059   5.383
 4897POPC   PO462484  44.960   1.698   5.566
 4897POPC   GL162485  44.761   1.365   5.819
 4897POPC   GL262486  44.839   1.028   5.915
 4897POPC   C1A62487  44.882   1.405   6.255
 4897POPC   D2A62488   0.058   1.303   6.641
 4897POPC   C3A62489  44.743   1.207   6.947
 4897POPC   C4A62490  44.336   1.342   7.061
 4897POPC   C1B62491  44.510   1.040   6.254
 4897POPC   C2B62492  44.349   0.948   6.689
 4897POPC   C3B62493  44.338   0.853   7.149
 4897POPC   C4B62494  44.633   1.028   7.447
 4898POPC   NC362495   8.958   7.828   5.480
 4898POPC   PO462496   9.279   8.371   5.439
 4898POPC   GL162497   9.297   8.109   5.803
 4898POPC   GL262498   9.322   7.751   5.889
 4898POPC   C1A62499   9.173   8.240   6.207
 4898POPC   D2A62500   9.012   8.467   6.564
 4898POPC   C3A62501   9.071   8.311   6.980
 4898POPC   C4A62502   8.719   8.376   7.267
 4898POPC   C1B62503   8.976   7.771   6.151
 4898POPC   C2B62504   8.930   7.924   6.555
 4898POPC   C3B62505   8.867   7.825   6.959
 4898POPC   C4B62506   8.975   7.939   7.344
 4899POPC   NC362507  12.407   8.378   5.347
 4899POPC   PO462508  11.724   8.102   5.429
 4899POPC   GL162509  11.937   8.122   5.781
 4899POPC   GL262510  12.119   8.402   5.771
 4899POPC   C1A62511  12.026   7.922   6.161
 4899POPC   D2A62512  12.285   7.911   6.524
 4899POPC   C3A62513  12.072   8.027   6.877
 4899POPC   C4A62514  12.062   7.934   7.304
 4899POPC   C1B62515  12.353   8.308   6.131
 4899POPC   C2B62516  12.203   8.423   6.523
 4899POPC   C3B62517  12.194   8.555   6.900
 4899POPC   C4B62518  11.963   8.420   7.197
 4900POPC   NC362519  44.158  36.564   5.333
 4900POPC   PO462520  43.543  36.828   5.434
 4900POPC   GL162521  43.502  37.025   5.799
 4900POPC   GL262522  43.405  36.758   5.942
 4900POPC   C1A62523  43.663  37.228   6.159
 4900POPC   D2A62524  43.827  37.061   6.524
 4900POPC   C3A62525  43.672  37.127   6.939
 4900POPC   C4A62526  43.837  37.071   7.369
 4900POPC   C1B62527  43.480  36.714   6.332
 4900POPC   C2B62528  43.606  36.654   6.733
 4900POPC   C3B62529  43.533  36.648   7.148
 4900POPC   C4B62530  43.344  36.974   7.354
 4901POPC   NC362531  17.462  44.560   5.250
 4901POPC   PO462532  17.784   0.114   5.313
 4901POPC   GL162533  17.675  44.810   5.685
 4901POPC   GL262534  17.605  44.428   5.726
 4901POPC   C1A62535  17.478  44.749   6.108
 4901POPC   D2A62536  17.645  44.690   6.516
 4901POPC   C3A62537  17.370  44.839   6.839
 4901POPC   C4A62538  17.393  44.763   7.255
 4901POPC   C1B62539  17.797  44.312   6.149
 4901POPC   C2B62540  17.702  44.183   6.589
 4901POPC   C3B62541  17.695  44.416   7.005
 4901POPC   C4B62542  17.734  44.410   7.485
 4902POPC   NC362543  10.227   1.118   5.284
 4902POPC   PO462544   9.573   1.265   5.368
 4902POPC   GL162545   9.708   1.128   5.746
 4902POPC   GL262546   9.974   1.346   5.735
 4902POPC   C1A62547   9.544   1.074   6.165
 4902POPC   D2A62548   9.361   1.008   6.567
 4902POPC   C3A62549   9.651   1.009   6.925
 4902POPC   C4A62550   9.824   0.996   7.327
 4902POPC   C1B62551   9.791   1.514   6.133
 4902POPC   C2B62552   9.752   1.370   6.574
 4902POPC   C3B62553   9.784   1.541   7.008
 4902POPC   C4B62554   9.869   1.560   7.449
 4903POPC   NC362555  17.544  31.761   5.279
 4903POPC   PO462556  16.927  31.743   5.453
 4903POPC   GL162557  17.250  31.741   5.817
 4903POPC   GL262558  17.648  31.840   5.795
 4903POPC   C1A62559  17.178  31.558   6.274
 4903POPC   D2A62560  16.941  31.616   6.695
 4903POPC   C3A62561  17.159  31.592   7.090
 4903POPC   C4A62562  17.048  31.414   7.505
 4903POPC   C1B62563  17.655  31.752   6.255
 4903POPC   C2B62564  17.562  31.674   6.701
 4903POPC   C3B62565  17.641  31.802   7.127
 4903POPC   C4B62566  17.550  31.581   7.516
 4904POPC   NC362567  33.657  15.760   5.294
 4904POPC   PO462568  34.203  16.099   5.553
 4904POPC   GL162569  33.963  15.872   5.895
 4904POPC   GL262570  33.588  15.854   5.873
 4904POPC   C1A62571  33.798  16.025   6.310
 4904POPC   D2A62572  33.999  16.088   6.696
 4904POPC   C3A62573  34.035  15.896   7.119
 4904POPC   C4A62574  33.685  15.993   7.403
 4904POPC   C1B62575  33.710  15.525   6.217
 4904POPC   C2B62576  33.862  15.596   6.604
 4904POPC   C3B62577  33.613  15.767   6.899
 4904POPC   C4B62578  33.654  15.530   7.248
 4905POPC   NC362579  28.261   7.949   5.512
 4905POPC   PO462580  28.405   8.660   5.527
 4905POPC   GL162581  28.410   8.358   5.832
 4905POPC   GL262582  28.061   8.289   5.851
 4905POPC   C1A62583  28.626   8.356   6.234
 4905POPC   D2A62584  28.796   8.542   6.614
 4905POPC   C3A62585  28.638   8.432   7.031
 4905POPC   C4A62586  28.428   8.287   7.431
 4905POPC   C1B62587  28.194   8.054   6.215
 4905POPC   C2B62588  28.369   8.153   6.617
 4905POPC   C3B62589  28.226   8.111   7.015
 4905POPC   C4B62590  28.117   7.851   7.372
 4906POPC   NC362591  32.897  27.420   5.539
 4906POPC   PO462592  32.901  28.105   5.366
 4906POPC   GL162593  33.016  27.899   5.770
 4906POPC   GL262594  33.318  27.772   5.623
 4906POPC   C1A62595  32.973  27.759   6.238
 4906POPC   D2A62596  33.004  27.851   6.685
 4906POPC   C3A62597  32.773  27.720   7.024
 4906POPC   C4A62598  32.746  27.656   7.462
 4906POPC   C1B62599  33.442  27.685   6.046
 4906POPC   C2B62600  33.498  27.716   6.501
 4906POPC   C3B62601  33.335  27.506   6.870
 4906POPC   C4B62602  33.213  27.635   7.275
 4907POPC   NC362603  41.815  19.388   5.479
 4907POPC   PO462604  41.565  18.776   5.425
 4907POPC   GL162605  41.608  19.012   5.819
 4907POPC   GL262606  41.303  18.963   6.011
 4907POPC   C1A62607  41.717  18.900   6.275
 4907POPC   D2A62608  41.782  19.020   6.709
 4907POPC   C3A62609  41.739  18.719   7.026
 4907POPC   C4A62610  41.762  18.766   7.477
 4907POPC   C1B62611  41.249  18.974   6.460
 4907POPC   C2B62612  41.320  18.986   6.910
 4907POPC   C3B62613  41.384  19.217   7.337
 4907POPC   C4B62614  41.251  19.445   7.771
 4908POPC   NC362615  16.145  35.728   5.432
 4908POPC   PO462616  15.570  36.126   5.529
 4908POPC   GL162617  15.857  36.010   5.895
 4908POPC   GL262618  16.134  36.271   6.000
 4908POPC   C1A62619  15.864  35.950   6.365
 4908POPC   D2A62620  15.973  36.223   6.714
 4908POPC   C3A62621  15.771  36.195   7.121
 4908POPC   C4A62622  15.806  36.033   7.552
 4908POPC   C1B62623  16.369  36.068   6.361
 4908POPC   C2B62624  16.280  35.790   6.731
 4908POPC   C3B62625  16.211  35.940   7.141
 4908POPC   C4B62626  16.330  36.320   7.066
 4909POPC   NC362627  20.654  16.303   5.627
 4909POPC   PO462628  20.356  15.763   5.422
 4909POPC   GL162629  20.688  15.751   5.765
 4909POPC   GL262630  20.484  15.957   5.950
 4909POPC   C1A62631  20.859  15.761   6.232
 4909POPC   D2A62632  20.881  16.039   6.642
 4909POPC   C3A62633  20.823  15.858   7.081
 4909POPC   C4A62634  20.756  16.057   7.516
 4909POPC   C1B62635  20.463  16.034   6.363
 4909POPC   C2B62636  20.542  15.681   6.656
 4909POPC   C3B62637  20.328  15.657   7.013
 4909POPC   C4B62638  20.369  16.028   7.206
 4910POPC   NC362639  21.762  27.349   5.351
 4910POPC   PO462640  22.332  27.432   5.258
 4910POPC   GL162641  22.195  27.509   5.695
 4910POPC   GL262642  22.530  27.610   5.773
 4910POPC   C1A62643  22.006  27.628   6.124
 4910POPC   D2A62644  22.129  27.444   6.533
 4910POPC   C3A62645  21.919  27.550   6.921
 4910POPC   C4A62646  22.012  27.346   7.299
 4910POPC   C1B62647  22.468  27.831   6.132
 4910POPC   C2B62648  22.255  27.944   6.487
 4910POPC   C3B62649  22.339  27.843   6.893
 4910POPC   C4B62650  22.266  27.766   7.286
 4911POPC   NC362651  34.997  44.267   5.502
 4911POPC   PO462652  34.693  44.936   5.388
 4911POPC   GL162653  34.771  44.858   5.823
 4911POPC   GL262654  34.701  44.506   5.866
 4911POPC   C1A62655  34.539  44.832   6.226
 4911POPC   D2A62656  34.406  44.676   6.628
 4911POPC   C3A62657  34.663  44.685   6.994
 4911POPC   C4A62658  34.644  44.952   7.347
 4911POPC   C1B62659  34.733  44.373   6.325
 4911POPC   C2B62660  34.521  44.169   6.661
 4911POPC   C3B62661  34.298  44.316   7.022
 4911POPC   C4B62662  34.323  44.518   7.432
 4912POPC   NC362663  19.233   3.212   5.560
 4912POPC   PO462664  19.043   2.692   5.108
 4912POPC   GL162665  19.100   2.694   5.592
 4912POPC   GL262666  19.440   2.764   5.716
 4912POPC   C1A62667  19.078   2.578   6.067
 4912POPC   D2A62668  18.990   2.398   6.510
 4912POPC   C3A62669  19.113   2.568   6.927
 4912POPC   C4A62670  18.960   2.932   7.158
 4912POPC   C1B62671  19.562   2.847   6.151
 4912POPC   C2B62672  19.421   2.776   6.555
 4912POPC   C3B62673  19.597   2.745   6.953
 4912POPC   C4B62674  19.432   2.796   7.304
 4913POPC   NC362675  25.281   1.539   5.576
 4913POPC   PO462676  25.381   0.870   5.351
 4913POPC   GL162677  25.309   1.060   5.728
 4913POPC   GL262678  24.944   1.161   5.641
 4913POPC   C1A62679  25.460   1.241   6.132
 4913POPC   D2A62680  25.382   1.482   6.492
 4913POPC   C3A62681  25.464   1.277   6.875
 4913POPC   C4A62682  25.512   1.259   7.286
 4913POPC   C1B62683  24.950   1.124   6.097
 4913POPC   C2B62684  24.961   1.216   6.543
 4913POPC   C3B62685  24.925   1.033   6.961
 4913POPC   C4B62686  25.009   1.239   7.326
 4914POPC   NC362687  15.743  40.137   5.160
 4914POPC   PO462688  15.116  40.030   5.330
 4914POPC   GL162689  14.882  39.952   5.724
 4914POPC   GL262690  15.029  40.243   5.864
 4914POPC   C1A62691  14.933  39.740   6.163
 4914POPC   D2A62692  15.020  39.580   6.621
 4914POPC   C3A62693  15.069  39.957   6.892
 4914POPC   C4A62694  15.423  40.036   7.190
 4914POPC   C1B62695  15.149  40.347   6.312
 4914POPC   C2B62696  15.305  40.396   6.768
 4914POPC   C3B62697  15.502  40.542   7.189
 4914POPC   C4B62698  15.317  40.542   7.632
 4915POPC   NC362699  13.021  22.710   5.366
 4915POPC   PO462700  12.809  23.346   5.482
 4915POPC   GL162701  12.754  23.028   5.795
 4915POPC   GL262702  12.468  22.834   5.672
 4915POPC   C1A62703  12.983  23.054   6.196
 4915POPC   D2A62704  13.067  22.857   6.611
 4915POPC   C3A62705  12.834  22.970   6.969
 4915POPC   C4A62706  13.108  22.979   7.337
 4915POPC   C1B62707  12.378  22.780   6.108
 4915POPC   C2B62708  12.438  22.859   6.560
 4915POPC   C3B62709  12.500  22.599   6.920
 4915POPC   C4B62710  12.632  22.685   7.332
 4916POPC   NC362711  12.051  42.799   5.322
 4916POPC   PO462712  12.525  43.169   5.538
 4916POPC   GL162713  12.364  42.855   5.777
 4916POPC   GL262714  12.046  43.018   5.835
 4916POPC   C1A62715  12.376  42.916   6.221
 4916POPC   D2A62716  12.209  43.147   6.556
 4916POPC   C3A62717  12.364  43.080   6.970
 4916POPC   C4A62718  12.180  42.868   7.318
 4916POPC   C1B62719  11.898  43.345   6.152
 4916POPC   C2B62720  11.703  43.329   6.579
 4916POPC   C3B62721  11.844  43.078   6.926
 4916POPC   C4B62722  11.995  43.350   7.253
 4917POPC   NC362723  10.436   2.954   5.409
 4917POPC   PO462724  10.712   2.444   5.562
 4917POPC   GL162725  10.636   2.711   5.889
 4917POPC   GL262726  10.873   2.961   5.740
 4917POPC   C1A62727  10.465   2.679   6.348
 4917POPC   D2A62728  10.294   2.472   6.773
 4917POPC   C3A62729  10.435   2.468   7.219
 4917POPC   C4A62730  10.380   2.730   7.617
 4917POPC   C1B62731  10.707   3.127   6.166
 4917POPC   C2B62732  10.783   3.036   6.577
 4917POPC   C3B62733  10.582   2.903   6.960
 4917POPC   C4B62734  10.792   2.814   7.344
 4918POPC   NC362735  16.715  16.675   5.412
 4918POPC   PO462736  17.171  17.187   5.452
 4918POPC   GL162737  16.863  17.022   5.778
 4918POPC   GL262738  16.480  16.930   5.781
 4918POPC   C1A62739  16.706  17.108   6.190
 4918POPC   D2A62740  16.766  16.866   6.513
 4918POPC   C3A62741  16.567  16.985   6.874
 4918POPC   C4A62742  16.669  16.835   7.265
 4918POPC   C1B62743  16.369  16.707   6.186
 4918POPC   C2B62744  16.510  16.437   6.544
 4918POPC   C3B62745  16.416  16.449   6.985
 4918POPC   C4B62746  16.538  16.362   7.413
 4919POPC   NC362747  26.444  35.813   5.150
 4919POPC   PO462748  25.985  35.396   5.516
 4919POPC   GL162749  25.952  35.608   5.894
 4919POPC   GL262750  25.778  35.852   5.779
 4919POPC   C1A62751  26.005  35.560   6.325
 4919POPC   D2A62752  26.194  35.653   6.699
 4919POPC   C3A62753  26.178  35.309   6.977
 4919POPC   C4A62754  26.355  35.063   7.295
 4919POPC   C1B62755  25.622  35.867   6.205
 4919POPC   C2B62756  25.511  35.636   6.542
 4919POPC   C3B62757  25.702  35.688   6.936
 4919POPC   C4B62758  25.807  35.465   7.313
 4920POPC   NC362759  28.579  42.373   5.333
 4920POPC   PO462760  29.260  42.450   5.337
 4920POPC   GL162761  29.240  42.393   5.757
 4920POPC   GL262762  28.899  42.467   5.745
 4920POPC   C1A62763  29.371  42.358   6.190
 4920POPC   D2A62764  29.259  42.523   6.598
 4920POPC   C3A62765  29.249  42.276   6.935
 4920POPC   C4A62766  29.454  42.125   7.314
 4920POPC   C1B62767  28.856  42.333   6.164
 4920POPC   C2B62768  28.814  42.209   6.594
 4920POPC   C3B62769  28.734  42.324   7.018
 4920POPC   C4B62770  28.968  42.291   7.385
 4921POPC   NC362771  44.701  15.769   5.535
 4921POPC   PO462772  44.084  15.931   5.381
 4921POPC   GL162773  44.276  15.816   5.812
 4921POPC   GL262774  44.501  16.091   5.906
 4921POPC   C1A62775  44.462  15.687   6.231
 4921POPC   D2A62776  44.765  15.791   6.564
 4921POPC   C3A62777  44.651  15.853   6.941
 4921POPC   C4A62778  44.622  15.606   7.310
 4921POPC   C1B62779  44.718  16.236   6.291
 4921POPC   C2B62780   0.039  16.284   6.613
 4921POPC   C3B62781   0.096  16.203   7.049
 4921POPC   C4B62782  44.771  16.117   7.347
 4922POPC   NC362783   8.370  17.299   4.915
 4922POPC   PO462784   8.134  17.773   5.364
 4922POPC   GL162785   8.041  17.706   5.794
 4922POPC   GL262786   8.336  17.842   5.918
 4922POPC   C1A62787   8.062  17.376   6.135
 4922POPC   D2A62788   8.182  17.227   6.544
 4922POPC   C3A62789   7.981  17.422   6.881
 4922POPC   C4A62790   7.974  17.449   7.326
 4922POPC   C1B62791   8.434  17.970   6.337
 4922POPC   C2B62792   8.242  17.856   6.716
 4922POPC   C3B62793   8.382  17.767   7.121
 4922POPC   C4B62794   8.734  17.887   7.427
 4923POPC   NC362795  33.161  22.694   5.302
 4923POPC   PO462796  32.888  23.318   5.241
 4923POPC   GL162797  32.828  22.912   5.621
 4923POPC   GL262798  33.195  22.790   5.830
 4923POPC   C1A62799  32.787  22.824   6.086
 4923POPC   D2A62800  33.053  22.966   6.430
 4923POPC   C3A62801  32.848  22.976   6.828
 4923POPC   C4A62802  32.665  22.778   7.189
 4923POPC   C1B62803  33.508  22.935   6.217
 4923POPC   C2B62804  33.529  22.891   6.695
 4923POPC   C3B62805  33.279  22.937   7.085
 4923POPC   C4B62806  33.234  23.039   7.523
 4924POPC   NC362807   5.961  30.958   5.465
 4924POPC   PO462808   5.723  30.385   5.503
 4924POPC   GL162809   5.829  30.626   5.837
 4924POPC   GL262810   5.598  30.921   5.865
 4924POPC   C1A62811   6.030  30.526   6.206
 4924POPC   D2A62812   5.803  30.576   6.569
 4924POPC   C3A62813   5.943  30.340   6.901
 4924POPC   C4A62814   6.082  30.671   7.137
 4924POPC   C1B62815   5.907  31.032   6.210
 4924POPC   C2B62816   5.931  31.193   6.655
 4924POPC   C3B62817   5.761  31.051   7.079
 4924POPC   C4B62818   5.911  30.972   7.538
 4925POPC   NC362819  11.895   6.991   5.427
 4925POPC   PO462820  12.317   6.426   5.539
 4925POPC   GL162821  12.085   6.666   5.776
 4925POPC   GL262822  12.329   6.911   5.820
 4925POPC   C1A62823  11.975   6.797   6.186
 4925POPC   D2A62824  12.133   6.936   6.577
 4925POPC   C3A62825  12.081   6.672   6.919
 4925POPC   C4A62826  12.266   6.650   7.283
 4925POPC   C1B62827  12.440   7.114   6.200
 4925POPC   C2B62828  12.519   7.281   6.624
 4925POPC   C3B62829  12.296   7.165   7.024
 4925POPC   C4B62830  12.398   7.115   7.459
 4926POPC   NC362831  36.438  35.026   5.379
 4926POPC   PO462832  36.830  35.695   5.409
 4926POPC   GL162833  36.680  35.374   5.705
 4926POPC   GL262834  36.975  35.186   5.829
 4926POPC   C1A62835  36.550  35.379   6.142
 4926POPC   D2A62836  36.792  35.456   6.522
 4926POPC   C3A62837  36.567  35.592   6.898
 4926POPC   C4A62838  36.685  35.352   7.255
 4926POPC   C1B62839  37.251  35.174   6.203
 4926POPC   C2B62840  37.292  34.970   6.620
 4926POPC   C3B62841  37.353  35.115   7.052
 4926POPC   C4B62842  37.272  35.548   7.221
 4927POPC   NC362843  34.432   8.795   5.339
 4927POPC   PO462844  34.803   9.394   5.267
 4927POPC   GL162845  34.746   9.103   5.625
 4927POPC   GL262846  34.403   9.144   5.735
 4927POPC   C1A62847  34.803   9.154   6.090
 4927POPC   D2A62848  34.973   9.218   6.482
 4927POPC   C3A62849  34.694   9.146   6.855
 4927POPC   C4A62850  34.638   8.886   7.261
 4927POPC   C1B62851  34.412   8.839   6.078
 4927POPC   C2B62852  34.564   8.785   6.495
 4927POPC   C3B62853  34.287   8.829   6.865
 4927POPC   C4B62854  34.233   8.567   7.218
 4928POPC   NC362855   4.645  13.758   4.936
 4928POPC   PO462856   4.163  13.679   5.355
 4928POPC   GL162857   4.227  13.537   5.809
 4928POPC   GL262858   4.520  13.336   5.900
 4928POPC   C1A62859   4.218  13.521   6.276
 4928POPC   D2A62860   4.108  13.768   6.616
 4928POPC   C3A62861   4.272  13.737   7.039
 4928POPC   C4A62862   4.107  13.793   7.479
 4928POPC   C1B62863   4.372  13.036   6.185
 4928POPC   C2B62864   4.513  13.097   6.609
 4928POPC   C3B62865   4.294  13.216   6.969
 4928POPC   C4B62866   4.032  13.320   7.294
 4929POPC   NC362867  29.189  13.099   5.457
 4929POPC   PO462868  28.844  12.603   5.538
 4929POPC   GL162869  29.057  12.769   5.864
 4929POPC   GL262870  29.436  12.830   5.848
 4929POPC   C1A62871  28.835  12.797   6.241
 4929POPC   D2A62872  28.931  13.019   6.614
 4929POPC   C3A62873  29.058  12.818   6.980
 4929POPC   C4A62874  28.910  12.885   7.375
 4929POPC   C1B62875  29.288  13.009   6.256
 4929POPC   C2B62876  29.424  13.089   6.670
 4929POPC   C3B62877  29.212  13.293   7.027
 4929POPC   C4B62878  29.324  13.150   7.466
 4930POPC   NC362879  31.192  42.824   5.569
 4930POPC   PO462880  30.665  43.162   5.387
 4930POPC   GL162881  30.758  43.002   5.830
 4930POPC   GL262882  31.050  43.179   5.969
 4930POPC   C1A62883  30.536  42.848   6.240
 4930POPC   D2A62884  30.320  42.926   6.674
 4930POPC   C3A62885  30.532  43.053   7.065
 4930POPC   C4A62886  30.441  43.000   7.517
 4930POPC   C1B62887  30.724  43.341   6.264
 4930POPC   C2B62888  30.650  43.420   6.715
 4930POPC   C3B62889  30.524  43.544   7.154
 4930POPC   C4B62890  30.791  43.387   7.510
 4931POPC   NC362891  33.192  33.097   5.220
 4931POPC   PO462892  32.666  32.765   5.370
 4931POPC   GL162893  32.739  32.901   5.797
 4931POPC   GL262894  32.903  33.209   5.709
 4931POPC   C1A62895  32.976  32.881   6.217
 4931POPC   D2A62896  33.348  33.049   6.482
 4931POPC   C3A62897  33.258  33.234   6.908
 4931POPC   C4A62898  32.992  33.054   7.238
 4931POPC   C1B62899  32.755  33.327   6.119
 4931POPC   C2B62900  32.902  33.296   6.541
 4931POPC   C3B62901  32.726  33.348   6.931
 4931POPC   C4B62902  32.531  33.234   7.339
 4932POPC   NC362903  20.175  12.893   5.571
 4932POPC   PO462904  19.761  12.381   5.379
 4932POPC   GL162905  19.635  12.693   5.690
 4932POPC   GL262906  19.912  12.531   5.836
 4932POPC   C1A62907  19.703  12.896   6.127
 4932POPC   D2A62908  19.947  12.941   6.511
 4932POPC   C3A62909  19.655  12.895   6.844
 4932POPC   C4A62910  19.667  12.955   7.264
 4932POPC   C1B62911  20.092  12.528   6.201
 4932POPC   C2B62912  20.220  12.430   6.594
 4932POPC   C3B62913  20.081  12.592   6.950
 4932POPC   C4B62914  20.292  12.488   7.303
 4933POPC   NC362915   9.844  28.439   5.422
 4933POPC   PO462916   9.313  28.016   5.315
 4933POPC   GL162917   9.603  28.128   5.724
 4933POPC   GL262918   9.809  28.416   5.913
 4933POPC   C1A62919   9.510  28.118   6.175
 4933POPC   D2A62920   9.741  28.209   6.533
 4933POPC   C3A62921   9.526  28.182   6.891
 4933POPC   C4A62922   9.440  28.446   7.192
 4933POPC   C1B62923  10.125  28.251   6.176
 4933POPC   C2B62924  10.230  28.369   6.591
 4933POPC   C3B62925  10.031  28.315   6.986
 4933POPC   C4B62926   9.937  28.635   7.252
 4934POPC   NC362927  37.185  28.238   5.362
 4934POPC   PO462928  37.066  28.820   5.623
 4934POPC   GL162929  36.990  28.552   5.948
 4934POPC   GL262930  36.863  28.313   5.755
 4934POPC   C1A62931  36.981  28.492   6.394
 4934POPC   D2A62932  36.839  28.731   6.746
 4934POPC   C3A62933  36.946  28.546   7.143
 4934POPC   C4A62934  37.235  28.736   7.417
 4934POPC   C1B62935  36.817  28.076   6.133
 4934POPC   C2B62936  37.045  28.012   6.537
 4934POPC   C3B62937  36.960  28.026   6.980
 4934POPC   C4B62938  37.059  27.955   7.403
 4935POPC   NC362939  33.374   4.282   5.465
 4935POPC   PO462940  33.984   4.242   5.372
 4935POPC   GL162941  33.802   4.385   5.757
 4935POPC   GL262942  33.584   4.126   5.926
 4935POPC   C1A62943  33.956   4.414   6.171
 4935POPC   D2A62944  33.775   4.202   6.519
 4935POPC   C3A62945  33.902   4.385   6.884
 4935POPC   C4A62946  33.928   4.604   7.261
 4935POPC   C1B62947  33.437   3.827   6.240
 4935POPC   C2B62948  33.574   3.670   6.607
 4935POPC   C3B62949  33.692   3.920   6.946
 4935POPC   C4B62950  33.664   4.182   7.312
 4936POPC   NC362951  31.151   1.114   5.563
 4936POPC   PO462952  31.737   1.452   5.328
 4936POPC   GL162953  31.579   1.325   5.774
 4936POPC   GL262954  31.475   0.966   5.926
 4936POPC   C1A62955  31.477   1.422   6.225
 4936POPC   D2A62956  31.194   1.447   6.598
 4936POPC   C3A62957  31.340   1.161   6.895
 4936POPC   C4A62958  31.491   1.132   7.326
 4936POPC   C1B62959  31.138   1.053   6.248
 4936POPC   C2B62960  30.939   0.972   6.660
 4936POPC   C3B62961  31.013   0.837   7.141
 4936POPC   C4B62962  31.172   0.861   7.615
 4937POPC   NC362963   4.606  21.115   5.559
 4937POPC   PO462964   3.950  21.330   5.458
 4937POPC   GL162965   4.192  21.324   5.811
 4937POPC   GL262966   4.431  21.590   5.736
 4937POPC   C1A62967   4.170  21.182   6.232
 4937POPC   D2A62968   4.171  21.001   6.655
 4937POPC   C3A62969   4.259  21.354   6.926
 4937POPC   C4A62970   4.415  21.386   7.342
 4937POPC   C1B62971   4.316  21.684   6.172
 4937POPC   C2B62972   4.486  21.659   6.594
 4937POPC   C3B62973   4.578  21.761   7.033
 4937POPC   C4B62974   4.598  21.831   7.480
 4938POPC   NC362975  31.679  16.330   5.421
 4938POPC   PO462976  31.044  16.622   5.424
 4938POPC   GL162977  31.126  16.867   5.793
 4938POPC   GL262978  31.482  16.709   5.839
 4938POPC   C1A62979  31.260  16.959   6.226
 4938POPC   D2A62980  31.379  16.692   6.613
 4938POPC   C3A62981  31.359  16.889   7.033
 4938POPC   C4A62982  31.396  16.644   7.382
 4938POPC   C1B62983  31.733  16.750   6.240
 4938POPC   C2B62984  31.839  16.943   6.626
 4938POPC   C3B62985  31.868  16.855   7.061
 4938POPC   C4B62986  31.745  16.986   7.502
 4939POPC   NC362987  35.991  21.682   4.903
 4939POPC   PO462988  35.959  21.104   5.271
 4939POPC   GL162989  35.987  21.257   5.713
 4939POPC   GL262990  35.810  21.588   5.763
 4939POPC   C1A62991  36.224  21.392   6.095
 4939POPC   D2A62992  36.187  21.508   6.528
 4939POPC   C3A62993  36.437  21.362   6.878
 4939POPC   C4A62994  36.299  21.434   7.294
 4939POPC   C1B62995  35.745  21.522   6.207
 4939POPC   C2B62996  35.760  21.234   6.563
 4939POPC   C3B62997  35.893  21.390   6.961
 4939POPC   C4B62998  35.779  21.551   7.393
 4940POPC   NC362999  41.340   2.492   5.178
 4940POPC   PO463000  41.754   2.943   5.471
 4940POPC   GL163001  41.787   2.689   5.855
 4940POPC   GL263002  41.488   2.864   5.960
 4940POPC   C1A63003  41.682   2.549   6.304
 4940POPC   D2A63004  41.790   2.842   6.603
 4940POPC   C3A63005  41.896   2.714   6.999
 4940POPC   C4A63006  41.821   2.895   7.386
 4940POPC   C1B63007  41.243   2.818   6.325
 4940POPC   C2B63008  41.323   2.695   6.753
 4940POPC   C3B63009  41.373   2.825   7.177
 4940POPC   C4B63010  41.371   2.887   7.671
 4941POPC   NC363011  25.503   0.501   5.620
 4941POPC   PO463012  26.125   0.398   5.396
 4941POPC   GL163013  25.956   0.225   5.820
 4941POPC   GL263014  26.170   0.450   6.026
 4941POPC   C1A63015  25.816   0.217   6.302
 4941POPC   D2A63016  26.133   0.326   6.651
 4941POPC   C3A63017  25.998   0.393   7.106
 4941POPC   C4A63018  25.579   0.368   7.340
 4941POPC   C1B63019  25.855   0.716   6.254
 4941POPC   C2B63020  25.762   0.681   6.696
 4941POPC   C3B63021  25.819   0.902   7.059
 4941POPC   C4B63022  25.843   0.801   7.466
 4942POPC   NC363023  19.209  11.756   5.484
 4942POPC   PO463024  18.815  12.274   5.281
 4942POPC   GL163025  18.849  12.224   5.737
 4942POPC   GL263026  18.820  11.872   5.843
 4942POPC   C1A63027  19.054  12.223   6.179
 4942POPC   D2A63028  19.334  12.083   6.545
 4942POPC   C3A63029  19.132  12.150   6.977
 4942POPC   C4A63030  19.334  12.178   7.359
 4942POPC   C1B63031  18.792  11.803   6.332
 4942POPC   C2B63032  18.709  11.985   6.766
 4942POPC   C3B63033  18.688  11.795   7.182
 4942POPC   C4B63034  18.789  11.579   7.601
 4943POPC   NC363035   3.203  20.251   5.468
 4943POPC   PO463036   3.537  20.780   5.202
 4943POPC   GL163037   3.453  20.702   5.660
 4943POPC   GL263038   3.622  20.401   5.774
 4943POPC   C1A63039   3.541  20.814   6.116
 4943POPC   D2A63040   3.670  20.752   6.560
 4943POPC   C3A63041   3.464  20.983   6.870
 4943POPC   C4A63042   3.495  20.787   7.233
 4943POPC   C1B63043   3.271  20.374   6.081
 4943POPC   C2B63044   3.262  20.437   6.505
 4943POPC   C3B63045   3.309  20.385   6.936
 4943POPC   C4B63046   3.179  20.389   7.351
 4944POPC   NC363047  18.446  12.067   4.962
 4944POPC   PO463048  18.127  12.057   5.581
 4944POPC   GL163049  18.375  12.161   5.934
 4944POPC   GL263050  18.267  12.468   5.992
 4944POPC   C1A63051  18.396  12.123   6.383
 4944POPC   D2A63052  18.082  12.133   6.724
 4944POPC   C3A63053  18.187  11.953   7.134
 4944POPC   C4A63054  18.390  11.965   7.556
 4944POPC   C1B63055  18.212  12.579   6.411
 4944POPC   C2B63056  18.286  12.583   6.812
 4944POPC   C3B63057  18.077  12.445   7.159
 4944POPC   C4B63058  18.167  12.424   7.614
 4945POPC   NC363059  20.518  23.278   5.135
 4945POPC   PO463060  20.500  23.892   5.466
 4945POPC   GL163061  20.725  23.746   5.823
 4945POPC   GL263062  21.009  23.960   5.862
 4945POPC   C1A63063  20.577  23.496   6.190
 4945POPC   D2A63064  20.433  23.798   6.469
 4945POPC   C3A63065  20.547  23.746   6.870
 4945POPC   C4A63066  20.379  23.729   7.236
 4945POPC   C1B63067  20.949  23.830   6.294
 4945POPC   C2B63068  20.900  23.494   6.584
 4945POPC   C3B63069  20.887  23.371   6.970
 4945POPC   C4B63070  20.885  23.675   7.270
 4946POPC   NC363071  21.568  28.330   5.371
 4946POPC   PO463072  20.936  28.397   5.437
 4946POPC   GL163073  21.222  28.468   5.826
 4946POPC   GL263074  21.592  28.405   5.851
 4946POPC   C1A63075  21.136  28.648   6.250
 4946POPC   D2A63076  21.127  28.816   6.691
 4946POPC   C3A63077  21.342  28.551   7.010
 4946POPC   C4A63078  21.477  28.208   7.197
 4946POPC   C1B63079  21.680  28.632   6.207
 4946POPC   C2B63080  21.635  28.710   6.643
 4946POPC   C3B63081  21.857  28.624   7.050
 4946POPC   C4B63082  21.692  28.551   7.507
 4947POPC   NC363083  35.857  32.502   5.527
 4947POPC   PO463084  35.262  32.252   5.284
 4947POPC   GL163085  35.267  32.068   5.728
 4947POPC   GL263086  35.630  32.082   5.854
 4947POPC   C1A63087  35.225  32.108   6.182
 4947POPC   D2A63088  35.507  32.297   6.479
 4947POPC   C3A63089  35.484  32.257   6.925
 4947POPC   C4A63090  35.629  32.538   7.244
 4947POPC   C1B63091  35.781  31.863   6.234
 4947POPC   C2B63092  35.856  31.950   6.685
 4947POPC   C3B63093  35.866  31.970   7.122
 4947POPC   C4B63094  35.586  31.987   7.449
 4948POPC   NC363095  42.936  31.609   5.472
 4948POPC   PO463096  43.501  31.251   5.495
 4948POPC   GL163097  43.130  31.187   5.797
 4948POPC   GL263098  43.328  30.903   5.911
 4948POPC   C1A63099  42.913  31.414   6.167
 4948POPC   D2A63100  42.964  31.777   6.473
 4948POPC   C3A63101  42.870  31.673   6.915
 4948POPC   C4A63102  43.187  31.694   7.232
 4948POPC   C1B63103  43.212  31.012   6.315
 4948POPC   C2B63104  43.100  31.288   6.645
 4948POPC   C3B63105  43.126  31.205   7.070
 4948POPC   C4B63106  43.212  31.233   7.522
 4949POPC   NC363107  37.674  16.378   5.295
 4949POPC   PO463108  37.866  17.029   5.233
 4949POPC   GL163109  37.791  16.780   5.639
 4949POPC   GL263110  38.082  16.817   5.864
 4949POPC   C1A63111  37.621  16.757   6.080
 4949POPC   D2A63112  37.785  16.974   6.454
 4949POPC   C3A63113  37.806  16.769   6.859
 4949POPC   C4A63114  37.810  16.877   7.290
 4949POPC   C1B63115  38.070  16.568   6.260
 4949POPC   C2B63116  37.761  16.321   6.486
 4949POPC   C3B63117  37.558  16.315   6.873
 4949POPC   C4B63118  37.603  16.408   7.277
 4950POPC   NC363119  26.499  22.249   5.518
 4950POPC   PO463120  25.880  22.174   5.322
 4950POPC   GL163121  26.034  22.163   5.742
 4950POPC   GL263122  25.713  22.151   5.865
 4950POPC   C1A63123  26.260  22.335   6.148
 4950POPC   D2A63124  26.418  22.451   6.584
 4950POPC   C3A63125  26.112  22.401   6.923
 4950POPC   C4A63126  26.173  22.167   7.279
 4950POPC   C1B63127  25.868  22.029   6.282
 4950POPC   C2B63128  25.953  21.951   6.732
 4950POPC   C3B63129  25.719  22.069   7.115
 4950POPC   C4B63130  25.762  21.999   7.584
 4951POPC   NC363131  29.839  10.152   5.650
 4951POPC   PO463132  30.198  10.685   5.499
 4951POPC   GL163133  29.992  10.661   5.895
 4951POPC   GL263134  29.685  10.601   5.850
 4951POPC   C1A63135  29.894  10.527   6.320
 4951POPC   D2A63136  29.947  10.695   6.718
 4951POPC   C3A63137  30.058  10.483   7.092
 4951POPC   C4A63138  30.434  10.683   7.300
 4951POPC   C1B63139  29.533  10.853   6.140
 4951POPC   C2B63140  29.417  10.719   6.562
 4951POPC   C3B63141  29.539  10.537   6.964
 4951POPC   C4B63142  29.632  10.436   7.384
 4952POPC   NC363143  37.069  22.093   5.662
 4952POPC   PO463144  36.609  22.532   5.593
 4952POPC   GL163145  36.775  22.398   5.961
 4952POPC   GL263146  36.624  22.053   5.945
 4952POPC   C1A63147  37.007  22.289   6.341
 4952POPC   D2A63148  36.844  22.203   6.757
 4952POPC   C3A63149  37.061  22.173   7.144
 4952POPC   C4A63150  37.357  22.472   7.231
 4952POPC   C1B63151  36.493  22.206   6.348
 4952POPC   C2B63152  36.328  22.239   6.767
 4952POPC   C3B63153  36.534  22.125   7.176
 4952POPC   C4B63154  36.513  22.029   7.657
 4953POPC   NC363155   8.660  40.547   5.508
 4953POPC   PO463156   8.875  41.210   5.342
 4953POPC   GL163157   9.069  41.072   5.792
 4953POPC   GL263158   9.116  40.700   5.716
 4953POPC   C1A63159   8.936  40.980   6.277
 4953POPC   D2A63160   8.781  40.585   6.485
 4953POPC   C3A63161   8.791  40.578   6.933
 4953POPC   C4A63162   8.623  40.871   7.227
 4953POPC   C1B63163   9.292  40.666   6.122
 4953POPC   C2B63164   9.344  40.811   6.563
 4953POPC   C3B63165   9.283  40.711   7.011
 4953POPC   C4B63166   9.147  40.884   7.404
 4954POPC   NC363167   5.219   2.032   5.512
 4954POPC   PO463168   4.721   2.437   5.313
 4954POPC   GL163169   4.903   2.272   5.823
 4954POPC   GL263170   4.977   1.917   5.935
 4954POPC   C1A63171   5.107   2.229   6.310
 4954POPC   D2A63172   5.132   1.888   6.666
 4954POPC   C3A63173   5.115   2.011   7.127
 4954POPC   C4A63174   5.013   2.235   7.484
 4954POPC   C1B63175   5.363   1.781   6.196
 4954POPC   C2B63176   5.539   1.564   6.568
 4954POPC   C3B63177   5.510   1.719   6.988
 4954POPC   C4B63178   5.407   1.601   7.362
 4955POPC   NC363179  19.318  14.184   5.461
 4955POPC   PO463180  18.728  14.557   5.264
 4955POPC   GL163181  18.848  14.356   5.642
 4955POPC   GL263182  18.618  14.133   5.815
 4955POPC   C1A63183  18.967  14.506   6.073
 4955POPC   D2A63184  19.091  14.425   6.514
 4955POPC   C3A63185  19.078  14.689   6.869
 4955POPC   C4A63186  19.215  14.602   7.260
 4955POPC   C1B63187  18.625  13.946   6.206
 4955POPC   C2B63188  18.894  13.964   6.534
 4955POPC   C3B63189  18.976  14.137   6.954
 4955POPC   C4B63190  19.005  14.165   7.404
 4956POPC   NC363191  41.131  42.565   5.390
 4956POPC   PO463192  40.565  42.199   5.203
 4956POPC   GL163193  40.690  42.386   5.656
 4956POPC   GL263194  41.002  42.428   5.853
 4956POPC   C1A63195  40.662  42.249   6.153
 4956POPC   D2A63196  40.674  42.105   6.579
 4956POPC   C3A63197  40.721  42.419   6.894
 4956POPC   C4A63198  40.901  42.455   7.301
 4956POPC   C1B63199  41.169  42.144   6.182
 4956POPC   C2B63200  41.195  42.061   6.607
 4956POPC   C3B63201  41.005  42.001   6.999
 4956POPC   C4B63202  41.186  42.034   7.403
 4957POPC   NC363203  14.022  34.410   5.430
 4957POPC   PO463204  13.479  34.765   5.409
 4957POPC   GL163205  13.461  34.511   5.794
 4957POPC   GL263206  13.716  34.266   5.850
 4957POPC   C1A63207  13.508  34.526   6.267
 4957POPC   D2A63208  13.566  34.493   6.730
 4957POPC   C3A63209  13.250  34.455   7.070
 4957POPC   C4A63210  13.059  34.827   7.300
 4957POPC   C1B63211  14.024  34.451   6.139
 4957POPC   C2B63212  14.044  34.609   6.573
 4957POPC   C3B63213  14.026  34.480   7.010
 4957POPC   C4B63214  13.682  34.657   7.244
 4958POPC   NC363215  16.781  21.641   5.330
 4958POPC   PO463216  16.244  21.789   5.675
 4958POPC   GL163217  16.590  21.571   5.813
 4958POPC   GL263218  16.721  21.240   5.695
 4958POPC   C1A63219  16.529  21.377   6.199
 4958POPC   D2A63220  16.674  21.504   6.601
 4958POPC   C3A63221  16.468  21.404   6.980
 4958POPC   C4A63222  16.626  21.595   7.340
 4958POPC   C1B63223  16.946  21.134   6.074
 4958POPC   C2B63224  16.826  21.023   6.515
 4958POPC   C3B63225  16.922  21.185   6.959
 4958POPC   C4B63226  17.244  21.172   7.323
 4959POPC   NC363227  18.975  26.151   5.239
 4959POPC   PO463228  19.387  25.715   5.630
 4959POPC   GL163229  19.006  25.829   5.832
 4959POPC   GL263230  18.955  26.155   5.765
 4959POPC   C1A63231  18.942  25.783   6.283
 4959POPC   D2A63232  19.144  25.720   6.698
 4959POPC   C3A63233  18.960  25.817   7.065
 4959POPC   C4A63234  19.019  25.991   7.475
 4959POPC   C1B63235  19.174  26.215   6.166
 4959POPC   C2B63236  19.013  26.205   6.597
 4959POPC   C3B63237  19.075  26.310   7.044
 4959POPC   C4B63238  18.797  26.454   7.334
 4960POPC   NC363239  20.942  18.270   5.431
 4960POPC   PO463240  20.388  17.876   5.539
 4960POPC   GL163241  20.501  18.274   5.800
 4960POPC   GL263242  20.816  18.329   5.900
 4960POPC   C1A63243  20.379  18.475   6.226
 4960POPC   D2A63244  20.185  18.332   6.626
 4960POPC   C3A63245  20.380  18.324   7.049
 4960POPC   C4A63246  20.569  18.089   7.414
 4960POPC   C1B63247  20.726  18.125   6.267
 4960POPC   C2B63248  20.719  18.278   6.651
 4960POPC   C3B63249  20.907  18.220   7.038
 4960POPC   C4B63250  20.856  18.500   7.383
 4961POPC   NC363251   3.482  29.637   5.483
 4961POPC   PO463252   3.660  28.982   5.347
 4961POPC   GL163253   3.687  29.066   5.767
 4961POPC   GL263254   3.993  28.893   5.806
 4961POPC   C1A63255   3.483  29.220   6.146
 4961POPC   D2A63256   3.672  29.290   6.541
 4961POPC   C3A63257   3.554  29.165   6.955
 4961POPC   C4A63258   3.753  29.314   7.355
 4961POPC   C1B63259   3.907  28.922   6.254
 4961POPC   C2B63260   3.826  28.646   6.614
 4961POPC   C3B63261   3.516  28.610   6.936
 4961POPC   C4B63262   3.676  28.817   7.312
 4962POPC   NC363263   9.259  13.692   5.365
 4962POPC   PO463264   8.583  13.708   5.347
 4962POPC   GL163265   8.689  13.534   5.774
 4962POPC   GL263266   9.061  13.512   5.838
 4962POPC   C1A63267   8.765  13.455   6.243
 4962POPC   D2A63268   8.906  13.468   6.659
 4962POPC   C3A63269   8.996  13.784   6.949
 4962POPC   C4A63270   8.690  13.860   7.285
 4962POPC   C1B63271   9.219  13.700   6.257
 4962POPC   C2B63272   9.428  13.853   6.655
 4962POPC   C3B63273   9.502  13.671   7.060
 4962POPC   C4B63274   9.230  13.734   7.421
 4963POPC   NC363275  20.929  11.796   5.514
 4963POPC   PO463276  21.375  12.214   5.221
 4963POPC   GL163277  21.261  12.204   5.686
 4963POPC   GL263278  21.388  11.884   5.809
 4963POPC   C1A63279  21.472  12.346   6.124
 4963POPC   D2A63280  21.580  12.258   6.577
 4963POPC   C3A63281  21.279  12.018   6.836
 4963POPC   C4A63282  21.065  12.126   7.224
 4963POPC   C1B63283  21.650  11.882   6.195
 4963POPC   C2B63284  21.737  11.782   6.618
 4963POPC   C3B63285  21.751  11.962   7.040
 4963POPC   C4B63286  21.835  11.744   7.418
 4964POPC   NC363287  15.689   2.205   5.654
 4964POPC   PO463288  16.333   2.173   5.393
 4964POPC   GL163289  16.180   1.955   5.777
 4964POPC   GL263290  15.889   1.727   5.823
 4964POPC   C1A63291  16.239   2.034   6.216
 4964POPC   D2A63292  15.914   2.236   6.471
 4964POPC   C3A63293  15.972   2.255   6.904
 4964POPC   C4A63294  16.319   2.175   7.125
 4964POPC   C1B63295  15.836   1.741   6.286
 4964POPC   C2B63296  16.079   1.777   6.704
 4964POPC   C3B63297  15.947   1.797   7.177
 4964POPC   C4B63298  15.644   1.787   7.552
 4965POPC   NC363299  21.439   0.705   5.436
 4965POPC   PO463300  21.060   0.139   5.383
 4965POPC   GL163301  21.298   0.299   5.713
 4965POPC   GL263302  21.287   0.021   5.849
 4965POPC   C1A63303  21.387   0.451   6.142
 4965POPC   D2A63304  21.606   0.419   6.534
 4965POPC   C3A63305  21.425   0.506   6.910
 4965POPC   C4A63306  21.635   0.558   7.278
 4965POPC   C1B63307  21.038   0.078   6.199
 4965POPC   C2B63308  21.097   0.256   6.583
 4965POPC   C3B63309  21.144   0.072   6.978
 4965POPC   C4B63310  20.951   0.029   7.317
 4966POPC   NC363311   5.319  16.147   5.458
 4966POPC   PO463312   4.870  15.628   5.452
 4966POPC   GL163313   5.105  15.736   5.839
 4966POPC   GL263314   5.110  16.095   5.930
 4966POPC   C1A63315   4.993  15.709   6.261
 4966POPC   D2A63316   4.944  15.884   6.679
 4966POPC   C3A63317   5.160  15.791   7.039
 4966POPC   C4A63318   5.279  16.092   7.326
 4966POPC   C1B63319   4.838  16.205   6.280
 4966POPC   C2B63320   4.719  16.381   6.693
 4966POPC   C3B63321   4.810  16.209   7.100
 4966POPC   C4B63322   4.629  15.802   7.162
 4967POPC   NC363323  41.187  36.000   5.535
 4967POPC   PO463324  40.588  36.218   5.342
 4967POPC   GL163325  40.663  35.964   5.716
 4967POPC   GL263326  40.342  35.833   5.838
 4967POPC   C1A63327  40.875  35.974   6.149
 4967POPC   D2A63328  41.054  36.191   6.518
 4967POPC   C3A63329  40.836  36.180   6.901
 4967POPC   C4A63330  40.947  35.973   7.271
 4967POPC   C1B63331  40.428  36.202   6.124
 4967POPC   C2B63332  40.440  36.165   6.556
 4967POPC   C3B63333  40.336  36.325   6.958
 4967POPC   C4B63334  40.433  36.013   7.243
 4968POPC   NC363335  32.661   7.358   5.300
 4968POPC   PO463336  33.231   7.167   5.524
 4968POPC   GL163337  33.012   7.275   5.876
 4968POPC   GL263338  32.849   7.587   5.738
 4968POPC   C1A63339  33.030   7.249   6.338
 4968POPC   D2A63340  32.916   7.468   6.703
 4968POPC   C3A63341  32.903   7.246   7.089
 4968POPC   C4A63342  32.844   7.249   7.592
 4968POPC   C1B63343  32.658   7.560   6.139
 4968POPC   C2B63344  32.458   7.689   6.492
 4968POPC   C3B63345  32.582   7.817   6.873
 4968POPC   C4B63346  32.568   7.590   7.241
 4969POPC   NC363347  34.007  15.319   5.651
 4969POPC   PO463348  33.603  15.079   5.224
 4969POPC   GL163349  33.714  14.925   5.753
 4969POPC   GL263350  34.075  14.885   5.898
 4969POPC   C1A63351  33.670  14.972   6.237
 4969POPC   D2A63352  33.810  15.073   6.692
 4969POPC   C3A63353  33.499  15.092   7.071
 4969POPC   C4A63354  33.600  15.130   7.549
 4969POPC   C1B63355  34.143  15.213   6.254
 4969POPC   C2B63356  34.308  15.338   6.649
 4969POPC   C3B63357  34.106  15.378   7.022
 4969POPC   C4B63358  33.989  14.990   7.203
 4970POPC   NC363359  15.557  42.886   5.617
 4970POPC   PO463360  16.113  43.121   5.374
 4970POPC   GL163361  16.076  42.933   5.765
 4970POPC   GL263362  15.953  43.239   5.909
 4970POPC   C1A63363  15.934  42.763   6.174
 4970POPC   D2A63364  15.751  42.826   6.592
 4970POPC   C3A63365  16.034  42.961   6.934
 4970POPC   C4A63366  16.221  42.820   7.328
 4970POPC   C1B63367  15.609  43.193   6.236
 4970POPC   C2B63368  15.402  43.220   6.681
 4970POPC   C3B63369  15.605  43.256   7.123
 4970POPC   C4B63370  15.792  43.347   7.564
 4971POPC   NC363371  37.555  39.572   5.549
 4971POPC   PO463372  37.505  40.094   5.171
 4971POPC   GL163373  37.624  40.150   5.677
 4971POPC   GL263374  37.810  39.873   5.859
 4971POPC   C1A63375  37.584  40.136   6.192
 4971POPC   D2A63376  37.552  40.187   6.649
 4971POPC   C3A63377  37.619  39.923   7.023
 4971POPC   C4A63378  37.704  40.071   7.440
 4971POPC   C1B63379  38.062  39.946   6.286
 4971POPC   C2B63380  38.046  40.026   6.744
 4971POPC   C3B63381  38.132  39.936   7.179
 4971POPC   C4B63382  37.983  39.556   7.387
 4972POPC   NC363383  43.614  43.267   5.484
 4972POPC   PO463384  44.315  42.950   5.489
 4972POPC   GL163385  44.200  43.112   5.884
 4972POPC   GL263386  43.834  43.114   5.934
 4972POPC   C1A63387  44.146  42.896   6.285
 4972POPC   D2A63388  44.337  42.827   6.685
 4972POPC   C3A63389  44.157  43.169   6.898
 4972POPC   C4A63390  43.880  42.972   7.125
 4972POPC   C1B63391  43.802  43.320   6.322
 4972POPC   C2B63392  43.662  43.280   6.737
 4972POPC   C3B63393  43.697  43.510   7.104
 4972POPC   C4B63394  43.551  43.504   7.509
 4973POPC   NC363395  25.390  29.521   5.637
 4973POPC   PO463396  25.311  30.001   5.247
 4973POPC   GL163397  25.157  30.073   5.685
 4973POPC   GL263398  25.044  29.781   5.868
 4973POPC   C1A63399  25.247  30.159   6.125
 4973POPC   D2A63400  25.139  29.960   6.486
 4973POPC   C3A63401  25.294  29.945   6.870
 4973POPC   C4A63402  25.272  29.950   7.288
 4973POPC   C1B63403  24.875  29.629   6.221
 4973POPC   C2B63404  24.853  29.574   6.666
 4973POPC   C3B63405  25.021  29.524   7.092
 4973POPC   C4B63406  24.972  29.614   7.539
 4974POPC   NC363407  26.041  12.393   5.398
 4974POPC   PO463408  25.840  11.762   5.493
 4974POPC   GL163409  26.040  11.962   5.852
 4974POPC   GL263410  26.219  12.265   5.837
 4974POPC   C1A63411  25.978  12.123   6.271
 4974POPC   D2A63412  26.010  12.007   6.666
 4974POPC   C3A63413  25.851  12.059   7.069
 4974POPC   C4A63414  26.028  12.097   7.433
 4974POPC   C1B63415  26.361  12.480   6.174
 4974POPC   C2B63416  26.420  12.300   6.570
 4974POPC   C3B63417  26.213  12.380   6.929
 4974POPC   C4B63418  26.315  12.472   7.276
 4975POPC   NC363419  13.219  34.089   5.553
 4975POPC   PO463420  13.841  33.937   5.473
 4975POPC   GL163421  13.821  33.750   5.879
 4975POPC   GL263422  13.478  33.813   5.938
 4975POPC   C1A63423  13.817  33.962   6.294
 4975POPC   D2A63424  13.664  33.993   6.736
 4975POPC   C3A63425  13.873  33.818   7.099
 4975POPC   C4A63426  13.813  33.396   7.282
 4975POPC   C1B63427  13.341  33.710   6.355
 4975POPC   C2B63428  13.281  33.651   6.796
 4975POPC   C3B63429  13.379  33.682   7.212
 4975POPC   C4B63430  13.287  33.688   7.641
 4976POPC   NC363431  30.670   5.683   5.337
 4976POPC   PO463432  30.947   6.324   5.264
 4976POPC   GL163433  30.824   6.090   5.638
 4976POPC   GL263434  30.463   6.015   5.693
 4976POPC   C1A63435  30.941   5.850   6.015
 4976POPC   D2A63436  30.898   6.024   6.423
 4976POPC   C3A63437  31.062   5.788   6.767
 4976POPC   C4A63438  31.081   6.065   7.151
 4976POPC   C1B63439  30.452   5.735   6.089
 4976POPC   C2B63440  30.585   5.621   6.513
 4976POPC   C3B63441  30.588   5.916   6.876
 4976POPC   C4B63442  30.307   5.889   7.226
 4977POPC   NC363443  36.968  44.832   5.448
 4977POPC   PO463444  37.213  44.310   5.045
 4977POPC   GL163445  37.201  44.377   5.682
 4977POPC   GL263446  36.850  44.282   5.823
 4977POPC   C1A63447  37.091  44.593   6.140
 4977POPC   D2A63448  37.238  44.886   6.508
 4977POPC   C3A63449  37.128  44.787   6.940
 4977POPC   C4A63450  37.108  44.394   7.172
 4977POPC   C1B63451  36.589  44.422   6.210
 4977POPC   C2B63452  36.573  44.650   6.628
 4977POPC   C3B63453  36.622  44.501   7.071
 4977POPC   C4B63454  36.807  44.541   7.550
 4978POPC   NC363455  19.422  32.710   5.356
 4978POPC   PO463456  19.034  33.303   5.368
 4978POPC   GL163457  18.887  33.379   5.808
 4978POPC   GL263458  18.872  33.027   5.872
 4978POPC   C1A63459  18.820  33.302   6.281
 4978POPC   D2A63460  18.952  32.930   6.479
 4978POPC   C3A63461  18.906  32.866   6.900
 4978POPC   C4A63462  18.903  33.198   7.186
 4978POPC   C1B63463  19.276  32.901   6.059
 4978POPC   C2B63464  19.440  32.782   6.474
 4978POPC   C3B63465  19.406  33.019   6.850
 4978POPC   C4B63466  19.313  32.903   7.245
 4979POPC   NC363467  44.882  14.977   5.541
 4979POPC   PO463468  44.368  15.376   5.596
 4979POPC   GL163469  44.711  15.385   5.859
 4979POPC   GL263470  44.642  15.089   5.975
 4979POPC   C1A63471  44.905  15.431   6.232
 4979POPC   D2A63472  44.631  15.279   6.518
 4979POPC   C3A63473  44.781  15.354   6.900
 4979POPC   C4A63474  44.747  15.090   7.247
 4979POPC   C1B63475  44.435  14.818   6.225
 4979POPC   C2B63476  44.306  14.861   6.641
 4979POPC   C3B63477  44.385  14.781   7.069
 4979POPC   C4B63478  44.451  14.741   7.529
 4980POPC   NC363479  28.675  27.769   5.131
 4980POPC   PO463480  28.263  27.348   5.444
 4980POPC   GL163481  28.304  27.468   5.861
 4980POPC   GL263482  28.527  27.756   5.891
 4980POPC   C1A63483  28.471  27.357   6.265
 4980POPC   D2A63484  28.685  27.117   6.580
 4980POPC   C3A63485  28.623  27.359   6.957
 4980POPC   C4A63486  28.230  27.313   7.230
 4980POPC   C1B63487  28.335  27.874   6.311
 4980POPC   C2B63488  28.246  27.784   6.773
 4980POPC   C3B63489  28.455  27.778   7.193
 4980POPC   C4B63490  28.649  27.922   7.603
 4981POPC   NC363491  26.905   8.910   5.371
 4981POPC   PO463492  26.259   8.888   5.315
 4981POPC   GL163493  26.565   8.943   5.731
 4981POPC   GL263494  26.936   8.796   5.856
 4981POPC   C1A63495  26.749   9.172   6.122
 4981POPC   D2A63496  26.641   9.161   6.542
 4981POPC   C3A63497  26.921   9.124   6.877
 4981POPC   C4A63498  26.778   8.945   7.261
 4981POPC   C1B63499  27.183   8.851   6.269
 4981POPC   C2B63500  27.371   8.823   6.716
 4981POPC   C3B63501  27.259   8.848   7.164
 4981POPC   C4B63502  27.086   8.637   7.542
 4982POPC   NC363503   9.797  42.162   5.363
 4982POPC   PO463504   9.337  42.608   5.321
 4982POPC   GL163505   9.522  42.404   5.721
 4982POPC   GL263506   9.898  42.497   5.799
 4982POPC   C1A63507   9.601  42.239   6.153
 4982POPC   D2A63508   9.759  42.394   6.577
 4982POPC   C3A63509   9.664  42.215   6.997
 4982POPC   C4A63510   9.514  42.192   7.446
 4982POPC   C1B63511  10.123  42.262   6.175
 4982POPC   C2B63512  10.104  41.979   6.578
 4982POPC   C3B63513  10.128  41.957   7.054
 4982POPC   C4B63514  10.035  42.178   7.492
 4983POPC   NC363515  25.201  34.341   5.576
 4983POPC   PO463516  24.956  33.861   5.200
 4983POPC   GL163517  25.138  33.849   5.669
 4983POPC   GL263518  25.481  33.994   5.821
 4983POPC   C1A63519  25.127  33.740   6.130
 4983POPC   D2A63520  25.276  33.683   6.592
 4983POPC   C3A63521  25.116  33.849   7.008
 4983POPC   C4A63522  25.307  33.721   7.450
 4983POPC   C1B63523  25.468  34.079   6.300
 4983POPC   C2B63524  25.462  34.141   6.758
 4983POPC   C3B63525  25.515  34.185   7.221
 4983POPC   C4B63526  25.812  34.152   7.577
 4984POPC   NC363527  20.143  30.688   5.296
 4984POPC   PO463528  20.224  31.313   5.339
 4984POPC   GL163529  20.438  30.907   5.689
 4984POPC   GL263530  20.659  31.037   5.943
 4984POPC   C1A63531  20.573  30.576   6.079
 4984POPC   D2A63532  20.637  30.466   6.541
 4984POPC   C3A63533  20.566  30.773   6.901
 4984POPC   C4A63534  20.608  30.629   7.298
 4984POPC   C1B63535  20.658  30.976   6.404
 4984POPC   C2B63536  21.001  30.862   6.670
 4984POPC   C3B63537  21.031  30.899   7.111
 4984POPC   C4B63538  20.994  30.892   7.553
 4985POPC   NC363539  31.480  13.317   5.218
 4985POPC   PO463540  31.599  12.621   5.390
 4985POPC   GL163541  31.312  12.738   5.803
 4985POPC   GL263542  31.449  13.002   6.053
 4985POPC   C1A63543  31.368  12.553   6.251
 4985POPC   D2A63544  31.524  12.782   6.625
 4985POPC   C3A63545  31.251  12.747   6.984
 4985POPC   C4A63546  31.270  12.473   7.338
 4985POPC   C1B63547  31.493  13.323   6.359
 4985POPC   C2B63548  31.865  13.372   6.590
 4985POPC   C3B63549  31.855  13.122   6.958
 4985POPC   C4B63550  31.512  13.099   7.254
 4986POPC   NC363551   1.745   8.147   5.362
 4986POPC   PO463552   2.336   8.500   5.411
 4986POPC   GL163553   2.124   8.268   5.767
 4986POPC   GL263554   2.451   8.144   5.907
 4986POPC   C1A63555   2.052   8.002   6.181
 4986POPC   D2A63556   2.078   7.805   6.606
 4986POPC   C3A63557   2.006   8.124   6.935
 4986POPC   C4A63558   1.643   8.238   7.144
 4986POPC   C1B63559   2.280   8.487   6.202
 4986POPC   C2B63560   2.335   8.466   6.642
 4986POPC   C3B63561   2.226   8.597   7.012
 4986POPC   C4B63562   2.014   8.507   7.339
 4987POPC   NC363563  24.573  11.652   5.614
 4987POPC   PO463564  24.210  12.311   5.554
 4987POPC   GL163565  24.512  12.155   5.906
 4987POPC   GL263566  24.298  11.923   5.933
 4987POPC   C1A63567  24.539  12.060   6.374
 4987POPC   D2A63568  24.292  12.335   6.664
 4987POPC   C3A63569  24.291  12.247   7.068
 4987POPC   C4A63570  24.698  12.108   7.180
 4987POPC   C1B63571  24.333  11.595   6.226
 4987POPC   C2B63572  24.273  11.523   6.619
 4987POPC   C3B63573  24.436  11.756   6.914
 4987POPC   C4B63574  24.366  11.769   7.332
 4988POPC   NC363575   2.708  16.981   5.534
 4988POPC   PO463576   2.456  16.407   5.296
 4988POPC   GL163577   2.569  16.432   5.772
 4988POPC   GL263578   2.597  16.762   5.984
 4988POPC   C1A63579   2.797  16.364   6.188
 4988POPC   D2A63580   2.812  16.662   6.551
 4988POPC   C3A63581   2.690  16.660   6.999
 4988POPC   C4A63582   2.666  17.037   7.261
 4988POPC   C1B63583   3.019  16.922   6.133
 4988POPC   C2B63584   3.238  16.958   6.514
 4988POPC   C3B63585   3.070  17.003   6.917
 4988POPC   C4B63586   3.116  16.774   7.290
 4989POPC   NC363587   6.570  27.102   5.276
 4989POPC   PO463588   6.659  27.762   5.184
 4989POPC   GL163589   6.487  27.574   5.569
 4989POPC   GL263590   6.772  27.427   5.716
 4989POPC   C1A63591   6.437  27.658   6.049
 4989POPC   D2A63592   6.540  27.538   6.489
 4989POPC   C3A63593   6.399  27.666   6.906
 4989POPC   C4A63594   6.617  27.808   7.279
 4989POPC   C1B63595   6.864  27.298   6.171
 4989POPC   C2B63596   7.085  27.421   6.570
 4989POPC   C3B63597   6.941  27.594   6.945
 4989POPC   C4B63598   7.038  27.469   7.385
 4990POPC   NC363599  39.147  19.527   5.385
 4990POPC   PO463600  38.832  18.982   5.290
 4990POPC   GL163601  39.019  18.996   5.691
 4990POPC   GL263602  39.354  19.156   5.703
 4990POPC   C1A63603  39.034  18.966   6.136
 4990POPC   D2A63604  39.227  18.856   6.513
 4990POPC   C3A63605  39.066  19.044   6.854
 4990POPC   C4A63606  39.065  19.093   7.264
 4990POPC   C1B63607  39.517  19.122   6.130
 4990POPC   C2B63608  39.639  19.183   6.574
 4990POPC   C3B63609  39.533  19.116   7.028
 4990POPC   C4B63610  39.437  19.376   7.443
 4991POPC   NC363611  43.760   8.446   5.435
 4991POPC   PO463612  44.100   7.972   5.623
 4991POPC   GL163613  43.755   8.052   5.879
 4991POPC   GL263614  43.691   8.403   5.927
 4991POPC   C1A63615  43.789   7.922   6.318
 4991POPC   D2A63616  43.914   7.718   6.683
 4991POPC   C3A63617  43.856   7.880   7.091
 4991POPC   C4A63618  43.620   7.992   7.441
 4991POPC   C1B63619  43.765   8.422   6.346
 4991POPC   C2B63620  43.905   8.255   6.739
 4991POPC   C3B63621  43.885   8.462   7.145
 4991POPC   C4B63622  43.944   8.744   7.478
 4992POPC   NC363623  19.418  33.654   5.392
 4992POPC   PO463624  18.853  34.057   5.251
 4992POPC   GL163625  18.984  33.871   5.665
 4992POPC   GL263626  19.334  33.948   5.827
 4992POPC   C1A63627  18.908  33.782   6.129
 4992POPC   D2A63628  18.711  33.730   6.557
 4992POPC   C3A63629  18.965  33.620   6.909
 4992POPC   C4A63630  19.179  33.927   7.145
 4992POPC   C1B63631  19.368  33.523   6.047
 4992POPC   C2B63632  19.481  33.344   6.453
 4992POPC   C3B63633  19.581  33.515   6.869
 4992POPC   C4B63634  19.387  33.442   7.244
 4993POPC   NC363635   2.683  24.186   5.158
 4993POPC   PO463636   2.783  23.593   5.526
 4993POPC   GL163637   2.967  23.537   5.903
 4993POPC   GL263638   2.643  23.685   6.018
 4993POPC   C1A63639   2.924  23.418   6.356
 4993POPC   D2A63640   2.904  23.644   6.752
 4993POPC   C3A63641   2.913  23.522   7.175
 4993POPC   C4A63642   2.594  23.760   7.344
 4993POPC   C1B63643   2.987  23.908   6.242
 4993POPC   C2B63644   2.974  24.129   6.587
 4993POPC   C3B63645   2.803  24.147   6.980
 4993POPC   C4B63646   2.929  24.138   7.387
 4994POPC   NC363647  24.589  39.381   5.148
 4994POPC   PO463648  24.899  38.905   5.560
 4994POPC   GL163649  25.221  39.140   5.844
 4994POPC   GL263650  25.532  39.013   5.921
 4994POPC   C1A63651  25.331  39.345   6.264
 4994POPC   D2A63652  25.451  39.617   6.642
 4994POPC   C3A63653  25.350  39.412   7.052
 4994POPC   C4A63654  25.006  39.115   7.133
 4994POPC   C1B63655  25.466  38.827   6.304
 4994POPC   C2B63656  25.328  39.006   6.661
 4994POPC   C3B63657  25.581  38.925   6.963
 4994POPC   C4B63658  25.469  38.932   7.324
 4995POPC   NC363659  36.949   8.329   5.399
 4995POPC   PO463660  36.648   7.709   5.567
 4995POPC   GL163661  36.778   8.053   5.800
 4995POPC   GL263662  36.626   8.352   5.807
 4995POPC   C1A63663  36.888   8.152   6.220
 4995POPC   D2A63664  36.832   7.918   6.603
 4995POPC   C3A63665  36.903   7.995   7.031
 4995POPC   C4A63666  37.169   8.177   7.337
 4995POPC   C1B63667  36.492   8.499   6.192
 4995POPC   C2B63668  36.633   8.449   6.566
 4995POPC   C3B63669  36.889   8.488   6.857
 4995POPC   C4B63670  36.752   8.428   7.235
 4996POPC   NC363671  36.696  36.789   5.445
 4996POPC   PO463672  37.349  36.557   5.444
 4996POPC   GL163673  37.018  36.591   5.785
 4996POPC   GL263674  36.985  36.967   5.830
 4996POPC   C1A63675  36.687  36.661   6.112
 4996POPC   D2A63676  36.644  37.025   6.380
 4996POPC   C3A63677  36.450  37.017   6.784
 4996POPC   C4A63678  36.621  36.780   7.106
 4996POPC   C1B63679  37.137  36.864   6.238
 4996POPC   C2B63680  37.330  36.997   6.603
 4996POPC   C3B63681  37.071  37.000   6.960
 4996POPC   C4B63682  36.786  37.266   7.190
 4997POPC   NC363683  13.926  10.201   5.307
 4997POPC   PO463684  13.560  10.803   5.421
 4997POPC   GL163685  13.329  10.643   5.844
 4997POPC   GL263686  13.481  10.310   6.014
 4997POPC   C1A63687  13.418  10.680   6.328
 4997POPC   D2A63688  13.822  10.515   6.475
 4997POPC   C3A63689  13.907  10.527   6.890
 4997POPC   C4A63690  13.785  10.803   7.207
 4997POPC   C1B63691  13.897  10.091   6.174
 4997POPC   C2B63692  13.841  10.001   6.615
 4997POPC   C3B63693  13.510  10.222   6.829
 4997POPC   C4B63694  13.597  10.319   7.271
 4998POPC   NC363695   8.661  34.731   5.123
 4998POPC   PO463696   9.300  34.839   5.199
 4998POPC   GL163697   9.297  34.794   5.661
 4998POPC   GL263698   9.277  34.419   5.755
 4998POPC   C1A63699   9.048  34.875   6.042
 4998POPC   D2A63700   8.822  34.709   6.396
 4998POPC   C3A63701   9.124  34.630   6.726
 4998POPC   C4A63702   9.148  34.839   7.111
 4998POPC   C1B63703   8.938  34.314   6.071
 4998POPC   C2B63704   8.855  34.201   6.513
 4998POPC   C3B63705   8.821  34.300   6.960
 4998POPC   C4B63706   9.023  34.307   7.353
 4999POPC   NC363707  44.499  42.560   5.247
 4999POPC   PO463708   0.103  42.167   5.342
 4999POPC   GL163709  44.738  42.239   5.605
 4999POPC   GL263710  44.739  42.589   5.697
 4999POPC   C1A63711  44.688  42.239   6.075
 4999POPC   D2A63712  44.817  42.160   6.498
 4999POPC   C3A63713  44.550  42.339   6.826
 4999POPC   C4A63714  44.681  42.242   7.229
 4999POPC   C1B63715  44.944  42.690   6.081
 4999POPC   C2B63716  44.813  42.674   6.527
 4999POPC   C3B63717  44.905  42.663   6.989
 4999POPC   C4B63718  44.543  42.713   7.248
 5000POPC   NC363719  16.552  18.513   5.295
 5000POPC   PO463720  17.188  18.233   5.377
 5000POPC   GL163721  16.822  18.218   5.716
 5000POPC   GL263722  16.641  18.545   5.802
 5000POPC   C1A63723  16.641  18.173   6.165
 5000POPC   D2A63724  16.479  18.019   6.575
 5000POPC   C3A63725  16.716  18.047   6.927
 5000POPC   C4A63726  16.576  18.239   7.265
 5000POPC   C1B63727  16.971  18.561   6.125
 5000POPC   C2B63728  16.953  18.359   6.535
 5000POPC   C3B63729  16.879  18.544   6.912
 5000POPC   C4B63730  17.040  18.482   7.280
 5001POPC   NC363731  12.882  39.817   5.378
 5001POPC   PO463732  12.224  39.989   5.435
 5001POPC   GL163733  12.545  39.925   5.794
 5001POPC   GL263734  12.808  40.175   5.770
 5001POPC   C1A63735  12.756  39.771   6.205
 5001POPC   D2A63736  12.813  39.558   6.641
 5001POPC   C3A63737  12.541  39.625   7.042
 5001POPC   C4A63738  12.394  40.018   7.239
 5001POPC   C1B63739  12.743  40.299   6.218
 5001POPC   C2B63740  12.846  40.103   6.645
 5001POPC   C3B63741  13.042  40.147   7.071
 5001POPC   C4B63742  13.024  40.326   7.516
 5002POPC   NC363743   0.695   6.546   5.474
 5002POPC   PO463744   0.305   7.091   5.517
 5002POPC   GL163745   0.502   6.796   5.862
 5002POPC   GL263746   0.407   6.472   5.894
 5002POPC   C1A63747   0.768   6.576   6.217
 5002POPC   D2A63748   0.715   6.320   6.594
 5002POPC   C3A63749   0.464   6.539   6.919
 5002POPC   C4A63750   0.576   6.719   7.329
 5002POPC   C1B63751   0.263   6.459   6.312
 5002POPC   C2B63752  44.984   6.542   6.644
 5002POPC   C3B63753   0.001   6.332   7.004
 5002POPC   C4B63754   0.131   6.487   7.366
 5003POPC   NC363755  38.257  29.417   5.248
 5003POPC   PO463756  38.666  28.916   5.470
 5003POPC   GL163757  38.433  29.012   5.842
 5003POPC   GL263758  38.190  29.242   5.767
 5003POPC   C1A63759  38.623  29.160   6.239
 5003POPC   D2A63760  38.843  28.995   6.618
 5003POPC   C3A63761  38.685  29.098   7.019
 5003POPC   C4A63762  38.536  28.866   7.367
 5003POPC   C1B63763  38.195  29.466   6.183
 5003POPC   C2B63764  38.263  29.292   6.593
 5003POPC   C3B63765  38.071  29.426   6.961
 5003POPC   C4B63766  38.280  29.303   7.293
 5004POPC   NC363767  31.073   3.988   5.623
 5004POPC   PO463768  31.547   3.437   5.496
 5004POPC   GL163769  31.362   3.515   5.863
 5004POPC   GL263770  31.295   3.161   5.896
 5004POPC   C1A63771  31.465   3.699   6.263
 5004POPC   D2A63772  31.339   3.764   6.684
 5004POPC   C3A63773  31.622   3.712   6.989
 5004POPC   C4A63774  31.595   3.535   7.360
 5004POPC   C1B63775  31.076   3.338   6.253
 5004POPC   C2B63776  30.975   3.346   6.686
 5004POPC   C3B63777  31.285   3.303   7.012
 5004POPC   C4B63778  31.202   3.145   7.420
 5005POPC   NC363779   8.623  24.135   5.460
 5005POPC   PO463780   9.028  24.619   5.387
 5005POPC   GL163781   9.099  24.416   5.762
 5005POPC   GL263782   9.464  24.394   5.826
 5005POPC   C1A63783   8.910  24.230   6.119
 5005POPC   D2A63784   8.794  24.293   6.537
 5005POPC   C3A63785   8.953  24.334   6.942
 5005POPC   C4A63786   8.755  24.667   7.191
 5005POPC   C1B63787   9.368  24.435   6.240
 5005POPC   C2B63788   9.318  24.633   6.639
 5005POPC   C3B63789   9.413  24.528   7.068
 5005POPC   C4B63790   9.317  24.097   7.245
 5006POPC   NC363791  21.110  42.476   5.340
 5006POPC   PO463792  21.720  42.741   5.174
 5006POPC   GL163793  21.682  42.462   5.618
 5006POPC   GL263794  21.375  42.464   5.811
 5006POPC   C1A63795  21.778  42.323   6.101
 5006POPC   D2A63796  21.598  42.106   6.510
 5006POPC   C3A63797  21.707  42.207   6.953
 5006POPC   C4A63798  21.454  42.236   7.348
 5006POPC   C1B63799  21.261  42.266   6.150
 5006POPC   C2B63800  21.169  42.401   6.532
 5006POPC   C3B63801  21.178  42.353   6.936
 5006POPC   C4B63802  21.129  42.620   7.284
 5007POPC   NC363803  32.367   3.132   5.413
 5007POPC   PO463804  32.830   2.618   5.403
 5007POPC   GL163805  33.127   2.678   5.703
 5007POPC   GL263806  33.094   3.043   5.768
 5007POPC   C1A63807  33.037   2.610   6.109
 5007POPC   D2A63808  32.977   2.840   6.464
 5007POPC   C3A63809  32.989   2.635   6.831
 5007POPC   C4A63810  33.154   2.790   7.218
 5007POPC   C1B63811  32.752   3.112   6.083
 5007POPC   C2B63812  32.666   3.227   6.501
 5007POPC   C3B63813  32.904   3.146   6.898
 5007POPC   C4B63814  32.868   3.164   7.355
 5008POPC   NC363815   4.945   1.065   5.576
 5008POPC   PO463816   5.390   1.592   5.544
 5008POPC   GL163817   5.148   1.426   5.881
 5008POPC   GL263818   4.755   1.451   5.874
 5008POPC   C1A63819   5.229   1.151   6.218
 5008POPC   D2A63820   5.195   0.964   6.609
 5008POPC   C3A63821   5.235   1.265   6.900
 5008POPC   C4A63822   5.223   1.147   7.295
 5008POPC   C1B63823   4.886   1.561   6.315
 5008POPC   C2B63824   4.769   1.458   6.747
 5008POPC   C3B63825   4.904   1.556   7.181
 5008POPC   C4B63826   4.783   1.771   7.555
 5009POPC   NC363827   4.624  27.429   4.968
 5009POPC   PO463828   4.529  27.724   5.543
 5009POPC   GL163829   4.501  27.661   5.949
 5009POPC   GL263830   4.751  27.456   6.004
 5009POPC   C1A63831   4.482  27.682   6.396
 5009POPC   D2A63832   4.616  27.520   6.795
 5009POPC   C3A63833   4.200  27.494   7.011
 5009POPC   C4A63834   4.069  27.778   7.343
 5009POPC   C1B63835   4.653  27.198   6.352
 5009POPC   C2B63836   4.399  27.039   6.698
 5009POPC   C3B63837   4.521  27.113   7.129
 5009POPC   C4B63838   4.450  27.403   7.457
 5010POPC   NC363839  40.149  44.879   5.552
 5010POPC   PO463840  39.812  44.329   5.382
 5010POPC   GL163841  39.948  44.470   5.815
 5010POPC   GL263842  39.856  44.836   5.953
 5010POPC   C1A63843  40.109  44.519   6.244
 5010POPC   D2A63844  39.824  44.711   6.521
 5010POPC   C3A63845  39.786  44.458   6.874
 5010POPC   C4A63846  40.031  44.520   7.215
 5010POPC   C1B63847  40.230   0.016   6.169
 5010POPC   C2B63848  40.259   0.026   6.605
 5010POPC   C3B63849  40.270  44.994   7.050
 5010POPC   C4B63850  40.284   0.290   7.422
 5011POPC   NC363851  43.396  35.177   5.243
 5011POPC   PO463852  43.080  35.727   5.406
 5011POPC   GL163853  43.220  35.475   5.760
 5011POPC   GL263854  43.597  35.480   5.741
 5011POPC   C1A63855  43.091  35.399   6.224
 5011POPC   D2A63856  43.036  35.666   6.625
 5011POPC   C3A63857  42.798  35.524   7.018
 5011POPC   C4A63858  42.703  35.156   7.293
 5011POPC   C1B63859  43.620  35.291   6.196
 5011POPC   C2B63860  43.354  35.109   6.548
 5011POPC   C3B63861  43.040  35.102   6.903
 5011POPC   C4B63862  43.210  35.231   7.337
 5012POPC   NC363863   8.540  36.857   5.193
 5012POPC   PO463864   7.944  36.994   5.543
 5012POPC   GL163865   7.978  36.894   5.902
 5012POPC   GL263866   8.333  36.748   5.937
 5012POPC   C1A63867   8.123  37.103   6.255
 5012POPC   D2A63868   8.457  36.981   6.513
 5012POPC   C3A63869   8.363  36.998   6.966
 5012POPC   C4A63870   8.449  37.062   7.406
 5012POPC   C1B63871   8.077  36.578   6.272
 5012POPC   C2B63872   8.005  36.770   6.654
 5012POPC   C3B63873   8.051  36.572   7.024
 5012POPC   C4B63874   8.240  36.610   7.467
 5013POPC   NC363875  18.447  44.463   5.394
 5013POPC   PO463876  18.614   0.044   5.593
 5013POPC   GL163877  18.444  44.720   5.864
 5013POPC   GL263878  18.126  44.517   5.787
 5013POPC   C1A63879  18.481  44.766   6.299
 5013POPC   D2A63880  18.718  44.884   6.634
 5013POPC   C3A63881  18.396  44.804   6.919
 5013POPC   C4A63882  18.454  44.704   7.344
 5013POPC   C1B63883  17.998  44.804   6.126
 5013POPC   C2B63884  18.080   0.027   6.520
 5013POPC   C3B63885  17.884  44.938   6.898
 5013POPC   C4B63886  17.965  44.791   7.261
 5014POPC   NC363887  15.002  17.234   5.254
 5014POPC   PO463888  15.404  16.547   5.307
 5014POPC   GL163889  15.316  16.434   5.721
 5014POPC   GL263890  15.216  16.765   5.763
 5014POPC   C1A63891  15.391  16.450   6.174
 5014POPC   D2A63892  15.196  16.571   6.571
 5014POPC   C3A63893  15.337  16.507   6.981
 5014POPC   C4A63894  15.116  16.364   7.340
 5014POPC   C1B63895  15.277  16.971   6.167
 5014POPC   C2B63896  15.110  17.106   6.560
 5014POPC   C3B63897  15.066  16.974   6.961
 5014POPC   C4B63898  14.787  16.898   7.313
 5015POPC   NC363899  17.382   0.231   5.596
 5015POPC   PO463900  16.857   0.697   5.426
 5015POPC   GL163901  16.770   0.664   5.889
 5015POPC   GL263902  17.023   0.427   5.907
 5015POPC   C1A63903  16.666   0.458   6.314
 5015POPC   D2A63904  16.371   0.285   6.641
 5015POPC   C3A63905  16.365   0.510   7.029
 5015POPC   C4A63906  16.475   0.575   7.452
 5015POPC   C1B63907  17.004   0.052   6.157
 5015POPC   C2B63908  16.836   0.014   6.555
 5015POPC   C3B63909  16.820   0.296   6.896
 5015POPC   C4B63910  16.970   0.043   7.171
 5016POPC   NC363911  19.116  44.965   5.464
 5016POPC   PO463912  18.890  44.334   5.340
 5016POPC   GL163913  18.936  44.582   5.755
 5016POPC   GL263914  19.289  44.590   5.856
 5016POPC   C1A63915  18.938  44.563   6.233
 5016POPC   D2A63916  18.741  44.366   6.615
 5016POPC   C3A63917  18.856  44.565   7.024
 5016POPC   C4A63918  18.943  44.755   7.437
 5016POPC   C1B63919  19.437  44.437   6.260
 5016POPC   C2B63920  19.276  44.535   6.683
 5016POPC   C3B63921  19.372  44.554   7.138
 5016POPC   C4B63922  19.408  44.597   7.592
 5017POPC   NC363923  20.933  27.005   5.414
 5017POPC   PO463924  20.500  26.701   5.087
 5017POPC   GL163925  20.495  26.801   5.596
 5017POPC   GL263926  20.793  26.702   5.800
 5017POPC   C1A63927  20.453  26.919   6.096
 5017POPC   D2A63928  20.604  26.662   6.496
 5017POPC   C3A63929  20.409  26.641   6.932
 5017POPC   C4A63930  20.358  26.955   7.251
 5017POPC   C1B63931  20.980  26.970   6.145
 5017POPC   C2B63932  21.059  26.972   6.594
 5017POPC   C3B63933  20.848  26.911   6.977
 5017POPC   C4B63934  20.986  26.696   7.326
 5018POPC   NC363935  11.996  25.686   5.351
 5018POPC   PO463936  12.285  24.972   5.430
 5018POPC   GL163937  12.046  25.260   5.661
 5018POPC   GL263938  12.332  25.322   5.852
 5018POPC   C1A63939  11.925  25.470   6.080
 5018POPC   D2A63940  12.202  25.411   6.446
 5018POPC   C3A63941  11.949  25.412   6.802
 5018POPC   C4A63942  11.971  25.409   7.206
 5018POPC   C1B63943  12.164  24.977   6.144
 5018POPC   C2B63944  12.011  24.925   6.593
 5018POPC   C3B63945  12.101  24.937   7.052
 5018POPC   C4B63946  11.927  24.991   7.481
 5019POPC   NC363947  22.247   9.407   5.467
 5019POPC   PO463948  21.803   9.873   5.364
 5019POPC   GL163949  21.937   9.707   5.760
 5019POPC   GL263950  22.217   9.849   5.861
 5019POPC   C1A63951  22.001   9.399   6.113
 5019POPC   D2A63952  21.909   9.413   6.558
 5019POPC   C3A63953  22.088   9.367   6.983
 5019POPC   C4A63954  22.140   9.668   7.317
 5019POPC   C1B63955  22.431   9.685   6.193
 5019POPC   C2B63956  22.663   9.792   6.547
 5019POPC   C3B63957  22.587   9.684   6.954
 5019POPC   C4B63958  22.627   9.796   7.337
 5020POPC   NC363959  40.291  44.091   5.498
 5020POPC   PO463960  39.838  43.625   5.671
 5020POPC   GL163961  40.033  43.944   5.935
 5020POPC   GL263962  40.358  43.852   5.932
 5020POPC   C1A63963  40.019  44.040   6.385
 5020POPC   D2A63964  39.695  43.956   6.702
 5020POPC   C3A63965  39.764  44.014   7.146
 5020POPC   C4A63966  39.623  44.304   7.452
 5020POPC   C1B63967  40.426  43.601   6.237
 5020POPC   C2B63968  40.086  43.538   6.498
 5020POPC   C3B63969  39.998  43.608   6.900
 5020POPC   C4B63970  40.180  43.707   7.292
 5021POPC   NC363971   3.334  34.206   5.636
 5021POPC   PO463972   3.469  34.745   5.183
 5021POPC   GL163973   3.774  34.610   5.603
 5021POPC   GL263974   4.021  34.864   5.771
 5021POPC   C1A63975   3.864  34.451   6.071
 5021POPC   D2A63976   3.656  34.551   6.479
 5021POPC   C3A63977   3.397  34.385   6.831
 5021POPC   C4A63978   3.424  34.455   7.285
 5021POPC   C1B63979   3.907  34.949   6.215
 5021POPC   C2B63980   3.959  34.925   6.657
 5021POPC   C3B63981   3.756  34.753   7.015
 5021POPC   C4B63982   3.925  34.913   7.382
 5022POPC   NC363983  31.957  42.997   5.338
 5022POPC   PO463984  31.272  43.291   5.527
 5022POPC   GL163985  31.594  43.089   5.763
 5022POPC   GL263986  31.736  43.411   5.687
 5022POPC   C1A63987  31.451  42.939   6.190
 5022POPC   D2A63988  31.193  43.252   6.478
 5022POPC   C3A63989  31.072  43.181   6.924
 5022POPC   C4A63990  31.314  43.210   7.294
 5022POPC   C1B63991  31.546  43.454   6.118
 5022POPC   C2B63992  31.722  43.244   6.492
 5022POPC   C3B63993  31.630  43.072   6.877
 5022POPC   C4B63994  31.815  43.280   7.207
 5023POPC   NC363995  14.682  26.664   5.497
 5023POPC   PO463996  15.165  27.123   5.329
 5023POPC   GL163997  15.136  26.774   5.730
 5023POPC   GL263998  14.840  26.746   5.951
 5023POPC   C1A63999  15.278  26.591   6.160
 5023POPC   D2A64000  15.357  26.821   6.573
 5023POPC   C3A64001  15.267  26.677   7.011
 5023POPC   C4A64002  15.213  26.925   7.405
 5023POPC   C1B64003  14.896  26.913   6.324
 5023POPC   C2B64004  14.850  26.727   6.702
 5023POPC   C3B64005  14.765  26.906   7.093
 5023POPC   C4B64006  14.665  26.710   7.462
 5024POPC   NC364007   0.704   2.433   5.166
 5024POPC   PO464008   0.093   2.824   5.285
 5024POPC   GL164009   0.351   2.874   5.656
 5024POPC   GL264010   0.697   2.915   5.598
 5024POPC   C1A64011   0.290   2.766   6.084
 5024POPC   D2A64012   0.442   2.813   6.507
 5024POPC   C3A64013   0.291   2.823   6.933
 5024POPC   C4A64014   0.071   3.065   7.198
 5024POPC   C1B64015   0.773   2.941   6.043
 5024POPC   C2B64016   0.916   2.982   6.456
 5024POPC   C3B64017   0.784   2.905   6.874
 5024POPC   C4B64018   0.710   2.933   7.280
 5025POPC   NC364019  24.177  23.815   5.506
 5025POPC   PO464020  24.842  24.183   5.417
 5025POPC   GL164021  24.603  23.995   5.792
 5025POPC   GL264022  24.500  23.641   5.848
 5025POPC   C1A64023  24.473  24.015   6.240
 5025POPC   D2A64024  24.306  24.113   6.629
 5025POPC   C3A64025  24.455  23.942   6.966
 5025POPC   C4A64026  24.244  23.794   7.299
 5025POPC   C1B64027  24.231  23.583   6.233
 5025POPC   C2B64028  24.343  23.540   6.683
 5025POPC   C3B64029  24.213  23.337   7.087
 5025POPC   C4B64030  24.388  23.364   7.539
 5026POPC   NC364031   6.684  16.179   5.543
 5026POPC   PO464032   6.089  16.336   5.779
 5026POPC   GL164033   6.405  16.078   5.950
 5026POPC   GL264034   6.721  16.306   6.027
 5026POPC   C1A64035   6.674  15.824   6.176
 5026POPC   D2A64036   6.594  15.984   6.560
 5026POPC   C3A64037   6.649  16.176   6.949
 5026POPC   C4A64038   6.415  15.925   7.235
 5026POPC   C1B64039   7.053  16.144   6.313
 5026POPC   C2B64040   7.081  15.909   6.701
 5026POPC   C3B64041   6.928  15.772   7.124
 5026POPC   C4B64042   7.044  15.931   7.541
 5027POPC   NC364043  22.713  31.863   5.507
 5027POPC   PO464044  22.978  32.496   5.413
 5027POPC   GL164045  22.952  32.219   5.823
 5027POPC   GL264046  23.104  31.867   5.862
 5027POPC   C1A64047  23.148  32.194   6.256
 5027POPC   D2A64048  23.138  32.131   6.704
 5027POPC   C3A64049  22.808  32.300   6.933
 5027POPC   C4A64050  22.961  32.344   7.299
 5027POPC   C1B64051  22.725  31.891   6.196
 5027POPC   C2B64052  22.596  31.921   6.657
 5027POPC   C3B64053  22.879  31.800   7.014
 5027POPC   C4B64054  23.247  31.923   7.268
 5028POPC   NC364055  13.349  29.939   5.449
 5028POPC   PO464056  14.002  29.699   5.286
 5028POPC   GL164057  13.730  29.676   5.698
 5028POPC   GL264058  13.402  29.589   5.881
 5028POPC   C1A64059  13.777  29.802   6.162
 5028POPC   D2A64060  13.741  29.715   6.614
 5028POPC   C3A64061  13.897  29.974   6.979
 5028POPC   C4A64062  13.776  29.958   7.418
 5028POPC   C1B64063  13.280  29.843   6.240
 5028POPC   C2B64064  13.389  30.114   6.615
 5028POPC   C3B64065  13.429  30.123   7.071
 5028POPC   C4B64066  13.376  30.253   7.501
 5029POPC   NC364067   1.385  16.271   5.339
 5029POPC   PO464068   1.187  16.895   5.251
 5029POPC   GL164069   1.228  16.668   5.674
 5029POPC   GL264070   1.192  16.939   5.870
 5029POPC   C1A64071   1.344  16.566   6.151
 5029POPC   D2A64072   1.457  16.739   6.524
 5029POPC   C3A64073   1.371  16.588   6.923
 5029POPC   C4A64074   1.407  16.730   7.355
 5029POPC   C1B64075   0.939  16.979   6.264
 5029POPC   C2B64076   1.049  17.016   6.667
 5029POPC   C3B64077   1.144  17.050   7.071
 5029POPC   C4B64078   0.876  17.066   7.422
 5030POPC   NC364079  10.610  28.078   5.306
 5030POPC   PO464080  10.269  28.659   5.403
 5030POPC   GL164081  10.440  28.482   5.833
 5030POPC   GL264082  10.667  28.195   5.905
 5030POPC   C1A64083  10.710  28.603   6.219
 5030POPC   D2A64084  10.697  28.776   6.666
 5030POPC   C3A64085  10.457  28.591   7.012
 5030POPC   C4A64086  10.387  28.455   7.457
 5030POPC   C1B64087  10.610  28.122   6.357
 5030POPC   C2B64088  10.658  28.148   6.784
 5030POPC   C3B64089  10.540  28.061   7.181
 5030POPC   C4B64090  10.463  27.931   7.594
 5031POPC   NC364091  27.176  27.793   5.494
 5031POPC   PO464092  26.539  27.850   5.554
 5031POPC   GL164093  26.794  27.529   5.773
 5031POPC   GL264094  26.515  27.298   5.796
 5031POPC   C1A64095  27.044  27.382   6.151
 5031POPC   D2A64096  27.240  27.530   6.560
 5031POPC   C3A64097  26.977  27.424   6.913
 5031POPC   C4A64098  26.744  27.591   7.268
 5031POPC   C1B64099  26.515  27.471   6.215
 5031POPC   C2B64100  26.563  27.289   6.631
 5031POPC   C3B64101  26.405  27.265   7.066
 5031POPC   C4B64102  26.442  27.286   7.563
 5032POPC   NC364103  39.788  37.070   5.262
 5032POPC   PO464104  40.017  36.494   5.257
 5032POPC   GL164105  39.945  36.769   5.644
 5032POPC   GL264106  40.270  36.872   5.767
 5032POPC   C1A64107  39.881  37.017   6.061
 5032POPC   D2A64108  40.019  37.112   6.504
 5032POPC   C3A64109  39.801  37.153   6.907
 5032POPC   C4A64110  39.818  36.955   7.309
 5032POPC   C1B64111  40.423  36.878   6.200
 5032POPC   C2B64112  40.512  37.046   6.618
 5032POPC   C3B64113  40.280  37.017   6.981
 5032POPC   C4B64114  40.286  36.752   7.319
 5033POPC   NC364115   3.363  43.587   5.295
 5033POPC   PO464116   3.421  42.886   5.388
 5033POPC   GL164117   3.475  42.794   5.842
 5033POPC   GL264118   3.584  43.116   5.918
 5033POPC   C1A64119   3.472  42.874   6.320
 5033POPC   D2A64120   3.259  43.077   6.617
 5033POPC   C3A64121   3.429  42.921   6.928
 5033POPC   C4A64122   3.367  42.970   7.312
 5033POPC   C1B64123   3.759  43.366   6.264
 5033POPC   C2B64124   3.635  43.427   6.660
 5033POPC   C3B64125   3.433  43.426   7.030
 5033POPC   C4B64126   3.668  43.535   7.341
 5034POPC   NC364127  32.002  37.275   5.472
 5034POPC   PO464128  32.189  37.964   5.391
 5034POPC   GL164129  32.039  37.754   5.737
 5034POPC   GL264130  32.329  37.574   5.751
 5034POPC   C1A64131  32.041  37.565   6.165
 5034POPC   D2A64132  31.990  37.317   6.533
 5034POPC   C3A64133  32.123  37.543   6.888
 5034POPC   C4A64134  31.965  37.529   7.270
 5034POPC   C1B64135  32.575  37.479   6.113
 5034POPC   C2B64136  32.494  37.443   6.538
 5034POPC   C3B64137  32.632  37.636   6.940
 5034POPC   C4B64138  32.408  37.802   7.307
 5035POPC   NC364139  27.215  26.925   5.427
 5035POPC   PO464140  26.572  26.912   5.429
 5035POPC   GL164141  26.829  26.884   5.795
 5035POPC   GL264142  27.084  26.621   5.815
 5035POPC   C1A64143  26.689  26.974   6.205
 5035POPC   D2A64144  26.436  26.791   6.535
 5035POPC   C3A64145  26.690  26.852   6.916
 5035POPC   C4A64146  26.826  27.094   7.299
 5035POPC   C1B64147  27.231  26.901   6.131
 5035POPC   C2B64148  27.105  27.027   6.545
 5035POPC   C3B64149  27.197  26.942   6.962
 5035POPC   C4B64150  27.073  26.670   7.329
 5036POPC   NC364151  11.076  40.339   5.617
 5036POPC   PO464152  11.281  40.853   5.220
 5036POPC   GL164153  11.210  40.829   5.708
 5036POPC   GL264154  11.374  40.585   5.923
 5036POPC   C1A64155  11.297  41.020   6.159
 5036POPC   D2A64156  11.239  41.140   6.609
 5036POPC   C3A64157  11.336  40.959   7.035
 5036POPC   C4A64158  11.090  40.806   7.368
 5036POPC   C1B64159  11.267  40.529   6.312
 5036POPC   C2B64160  11.448  40.623   6.662
 5036POPC   C3B64161  11.597  40.462   7.020
 5036POPC   C4B64162  11.718  40.596   7.413
 5037POPC   NC364163  35.639  19.207   5.420
 5037POPC   PO464164  35.109  18.765   5.552
 5037POPC   GL164165  35.421  18.899   5.864
 5037POPC   GL264166  35.798  18.869   5.796
 5037POPC   C1A64167  35.388  18.942   6.317
 5037POPC   D2A64168  35.349  19.161   6.686
 5037POPC   C3A64169  35.165  18.986   7.078
 5037POPC   C4A64170  35.537  19.219   7.198
 5037POPC   C1B64171  35.798  18.627   6.185
 5037POPC   C2B64172  35.675  18.524   6.583
 5037POPC   C3B64173  35.586  18.773   6.897
 5037POPC   C4B64174  35.566  18.716   7.314
 5038POPC   NC364175  43.718  26.904   5.458
 5038POPC   PO464176  44.319  26.615   5.791
 5038POPC   GL164177  43.985  26.838   5.880
 5038POPC   GL264178  44.147  27.138   5.966
 5038POPC   C1A64179  43.690  26.789   6.196
 5038POPC   D2A64180  43.719  26.941   6.622
 5038POPC   C3A64181  43.646  26.735   6.998
 5038POPC   C4A64182  43.765  26.834   7.414
 5038POPC   C1B64183  44.173  26.973   6.358
 5038POPC   C2B64184  44.238  27.034   6.771
 5038POPC   C3B64185  44.168  26.845   7.132
 5038POPC   C4B64186  44.230  26.591   7.526
 5039POPC   NC364187  29.732   6.928   5.591
 5039POPC   PO464188  30.104   6.361   5.495
 5039POPC   GL164189  30.053   6.602   5.872
 5039POPC   GL264190  30.233   6.897   5.856
 5039POPC   C1A64191  29.907   6.695   6.292
 5039POPC   D2A64192  29.906   6.419   6.657
 5039POPC   C3A64193  29.870   6.605   7.077
 5039POPC   C4A64194  29.540   6.836   7.280
 5039POPC   C1B64195  30.409   6.786   6.261
 5039POPC   C2B64196  30.241   6.821   6.690
 5039POPC   C3B64197  30.278   6.925   7.116
 5039POPC   C4B64198  30.267   6.578   7.426
 5040POPC   NC364199  29.252  20.454   5.332
 5040POPC   PO464200  28.790  20.920   5.246
 5040POPC   GL164201  28.834  20.638   5.671
 5040POPC   GL264202  29.193  20.623   5.802
 5040POPC   C1A64203  28.885  20.414   6.121
 5040POPC   D2A64204  29.158  20.413   6.529
 5040POPC   C3A64205  29.031  20.777   6.856
 5040POPC   C4A64206  29.133  20.660   7.284
 5040POPC   C1B64207  29.208  20.834   6.219
 5040POPC   C2B64208  29.456  20.858   6.621
 5040POPC   C3B64209  29.464  20.492   6.937
 5040POPC   C4B64210  29.485  20.275   7.354
 5041POPC   NC364211   5.517  15.258   5.265
 5041POPC   PO464212   6.170  15.112   5.294
 5041POPC   GL164213   5.860  15.203   5.660
 5041POPC   GL264214   5.875  15.497   5.877
 5041POPC   C1A64215   5.846  15.047   6.123
 5041POPC   D2A64216   6.022  14.879   6.563
 5041POPC   C3A64217   5.991  15.163   6.914
 5041POPC   C4A64218   5.846  15.173   7.363
 5041POPC   C1B64219   5.507  15.567   6.168
 5041POPC   C2B64220   5.277  15.433   6.576
 5041POPC   C3B64221   5.509  15.400   6.961
 5041POPC   C4B64222   5.560  15.612   7.347
 5042POPC   NC364223  32.225  35.416   5.258
 5042POPC   PO464224  32.599  34.934   5.623
 5042POPC   GL164225  32.403  35.255   5.821
 5042POPC   GL264226  32.100  35.154   6.009
 5042POPC   C1A64227  32.511  35.403   6.224
 5042POPC   D2A64228  32.561  35.201   6.627
 5042POPC   C3A64229  32.320  35.302   6.991
 5042POPC   C4A64230  32.479  35.557   7.291
 5042POPC   C1B64231  32.047  35.336   6.423
 5042POPC   C2B64232  31.810  35.221   6.779
 5042POPC   C3B64233  31.901  35.036   7.182
 5042POPC   C4B64234  32.156  35.238   7.520
 5043POPC   NC364235   6.887  29.194   5.388
 5043POPC   PO464236   6.195  29.503   5.518
 5043POPC   GL164237   6.571  29.403   5.750
 5043POPC   GL264238   6.539  29.038   5.765
 5043POPC   C1A64239   6.848  29.280   6.108
 5043POPC   D2A64240   7.018  29.072   6.492
 5043POPC   C3A64241   6.775  29.076   6.875
 5043POPC   C4A64242   6.653  29.146   7.305
 5043POPC   C1B64243   6.655  28.821   6.168
 5043POPC   C2B64244   6.677  28.607   6.554
 5043POPC   C3B64245   6.453  28.676   6.902
 5043POPC   C4B64246   6.404  28.677   7.325
 5044POPC   NC364247   5.259   6.512   4.936
 5044POPC   PO464248   5.096   6.775   5.619
 5044POPC   GL164249   5.304   6.616   5.970
 5044POPC   GL264250   5.022   6.402   5.995
 5044POPC   C1A64251   5.410   6.525   6.424
 5044POPC   D2A64252   5.555   6.350   6.829
 5044POPC   C3A64253   5.318   6.552   7.123
 5044POPC   C4A64254   5.166   6.959   7.244
 5044POPC   C1B64255   4.962   6.774   6.307
 5044POPC   C2B64256   5.027   6.767   6.756
 5044POPC   C3B64257   4.809   6.583   7.111
 5044POPC   C4B64258   4.432   6.725   7.201
 5045POPC   NC364259  17.078   3.349   5.460
 5045POPC   PO464260  16.687   3.947   5.389
 5045POPC   GL164261  16.668   3.691   5.808
 5045POPC   GL264262  16.752   3.326   5.852
 5045POPC   C1A64263  16.641   3.628   6.273
 5045POPC   D2A64264  16.920   3.809   6.605
 5045POPC   C3A64265  16.701   3.818   7.007
 5045POPC   C4A64266  16.603   3.443   7.246
 5045POPC   C1B64267  17.079   3.378   6.168
 5045POPC   C2B64268  16.931   3.305   6.584
 5045POPC   C3B64269  17.056   3.422   6.987
 5045POPC   C4B64270  17.035   3.164   7.330
 5046POPC   NC364271  38.728  42.060   5.529
 5046POPC   PO464272  38.290  42.501   5.501
 5046POPC   GL164273  38.248  42.134   5.784
 5046POPC   GL264274  38.570  42.162   5.990
 5046POPC   C1A64275  38.167  41.949   6.202
 5046POPC   D2A64276  38.404  42.070   6.577
 5046POPC   C3A64277  38.196  42.180   6.954
 5046POPC   C4A64278  38.311  42.203   7.386
 5046POPC   C1B64279  38.772  42.414   6.287
 5046POPC   C2B64280  38.856  42.299   6.664
 5046POPC   C3B64281  38.689  42.262   7.025
 5046POPC   C4B64282  38.647  42.614   7.281
 5047POPC   NC364283  39.696  15.182   5.419
 5047POPC   PO464284  39.017  14.879   5.399
 5047POPC   GL164285  39.186  14.982   5.831
 5047POPC   GL264286  39.525  15.024   5.877
 5047POPC   C1A64287  39.086  15.201   6.244
 5047POPC   D2A64288  38.881  15.206   6.680
 5047POPC   C3A64289  39.123  15.226   7.086
 5047POPC   C4A64290  39.044  15.072   7.540
 5047POPC   C1B64291  39.620  15.191   6.270
 5047POPC   C2B64292  39.426  15.219   6.638
 5047POPC   C3B64293  39.590  15.025   6.957
 5047POPC   C4B64294  39.541  15.106   7.353
 5048POPC   NC364295  24.950  28.967   5.417
 5048POPC   PO464296  25.567  29.111   5.626
 5048POPC   GL164297  25.395  29.189   6.001
 5048POPC   GL264298  25.063  29.208   5.909
 5048POPC   C1A64299  25.367  29.495   6.309
 5048POPC   D2A64300  25.313  29.349   6.699
 5048POPC   C3A64301  25.546  29.504   7.011
 5048POPC   C4A64302  25.411  29.179   7.244
 5048POPC   C1B64303  25.020  29.131   6.327
 5048POPC   C2B64304  24.859  29.073   6.665
 5048POPC   C3B64305  25.000  28.991   7.020
 5048POPC   C4B64306  24.865  29.126   7.379
 5049POPC   NC364307   5.907  25.559   5.532
 5049POPC   PO464308   5.879  24.920   5.503
 5049POPC   GL164309   5.981  25.146   5.825
 5049POPC   GL264310   5.639  25.220   5.842
 5049POPC   C1A64311   5.998  25.318   6.219
 5049POPC   D2A64312   5.855  25.383   6.652
 5049POPC   C3A64313   6.136  25.287   7.034
 5049POPC   C4A64314   6.208  25.332   7.515
 5049POPC   C1B64315   5.478  25.280   6.255
 5049POPC   C2B64316   5.296  25.450   6.611
 5049POPC   C3B64317   5.497  25.511   7.002
 5049POPC   C4B64318   5.711  25.286   7.348
 5050POPC   NC364319  41.422  37.880   5.259
 5050POPC   PO464320  41.674  37.257   5.137
 5050POPC   GL164321  41.767  37.473   5.610
 5050POPC   GL264322  41.445  37.423   5.800
 5050POPC   C1A64323  41.829  37.612   6.122
 5050POPC   D2A64324  41.770  37.619   6.630
 5050POPC   C3A64325  41.807  37.830   7.070
 5050POPC   C4A64326  41.442  37.863   7.346
 5050POPC   C1B64327  41.257  37.510   6.226
 5050POPC   C2B64328  41.320  37.364   6.642
 5050POPC   C3B64329  41.449  37.448   7.049
 5050POPC   C4B64330  41.554  37.363   7.476
 5051POPC   NC364331  27.468  15.156   5.599
 5051POPC   PO464332  28.086  14.833   5.462
 5051POPC   GL164333  27.932  15.105   5.855
 5051POPC   GL264334  27.722  14.933   6.043
 5051POPC   C1A64335  27.646  15.400   6.206
 5051POPC   D2A64336  27.286  15.302   6.529
 5051POPC   C3A64337  27.437  15.117   6.952
 5051POPC   C4A64338  27.547  15.297   7.380
 5051POPC   C1B64339  27.996  14.800   6.344
 5051POPC   C2B64340  27.924  14.946   6.772
 5051POPC   C3B64341  27.849  14.882   7.212
 5051POPC   C4B64342  27.832  14.917   7.659
 5052POPC   NC364343   2.463   4.251   5.628
 5052POPC   PO464344   2.921   4.567   5.405
 5052POPC   GL164345   2.951   4.388   5.803
 5052POPC   GL264346   2.873   4.019   5.830
 5052POPC   C1A64347   2.973   4.366   6.247
 5052POPC   D2A64348   3.094   4.488   6.667
 5052POPC   C3A64349   2.738   4.416   6.929
 5052POPC   C4A64350   2.445   4.347   7.219
 5052POPC   C1B64351   2.784   3.860   6.230
 5052POPC   C2B64352   2.881   4.012   6.632
 5052POPC   C3B64353   2.818   3.904   7.053
 5052POPC   C4B64354   2.540   3.869   7.395
 5053POPC   NC364355  42.375  15.100   5.359
 5053POPC   PO464356  41.769  15.380   5.394
 5053POPC   GL164357  42.082  15.278   5.733
 5053POPC   GL264358  42.165  14.946   5.822
 5053POPC   C1A64359  42.392  15.365   6.070
 5053POPC   D2A64360  42.505  15.116   6.445
 5053POPC   C3A64361  42.356  15.163   6.860
 5053POPC   C4A64362  42.483  15.094   7.262
 5053POPC   C1B64363  41.996  15.065   6.244
 5053POPC   C2B64364  41.880  15.202   6.674
 5053POPC   C3B64365  41.931  15.089   7.147
 5053POPC   C4B64366  42.077  15.175   7.579
 5054POPC   NC364367   3.286  14.761   5.143
 5054POPC   PO464368   2.811  14.393   5.360
 5054POPC   GL164369   2.739  14.551   5.749
 5054POPC   GL264370   2.673  14.220   5.841
 5054POPC   C1A64371   2.818  14.689   6.186
 5054POPC   D2A64372   2.830  14.939   6.549
 5054POPC   C3A64373   2.828  14.685   6.942
 5054POPC   C4A64374   2.646  14.568   7.340
 5054POPC   C1B64375   2.455  14.238   6.229
 5054POPC   C2B64376   2.650  14.353   6.592
 5054POPC   C3B64377   2.634  14.185   7.011
 5054POPC   C4B64378   2.759  14.016   7.407
 5055POPC   NC364379  27.787  12.120   5.332
 5055POPC   PO464380  27.365  12.574   5.410
 5055POPC   GL164381  27.500  12.277   5.758
 5055POPC   GL264382  27.875  12.214   5.828
 5055POPC   C1A64383  27.554  12.188   6.220
 5055POPC   D2A64384  27.398  11.973   6.588
 5055POPC   C3A64385  27.660  12.086   6.914
 5055POPC   C4A64386  27.551  12.325   7.242
 5055POPC   C1B64387  27.995  11.910   6.194
 5055POPC   C2B64388  28.036  11.772   6.645
 5055POPC   C3B64389  28.076  11.815   7.105
 5055POPC   C4B64390  27.766  11.838   7.394
 5056POPC   NC364391   3.538   2.889   5.344
 5056POPC   PO464392   3.202   2.348   5.475
 5056POPC   GL164393   3.533   2.553   5.744
 5056POPC   GL264394   3.446   2.945   5.826
 5056POPC   C1A64395   3.618   2.638   6.177
 5056POPC   D2A64396   3.322   2.593   6.487
 5056POPC   C3A64397   3.496   2.513   6.854
 5056POPC   C4A64398   3.402   2.501   7.257
 5056POPC   C1B64399   3.498   3.157   6.211
 5056POPC   C2B64400   3.476   3.058   6.639
 5056POPC   C3B64401   3.601   2.969   7.061
 5056POPC   C4B64402   3.527   3.254   7.412
 5057POPC   NC364403   2.707  29.578   5.373
 5057POPC   PO464404   2.473  30.170   5.156
 5057POPC   GL164405   2.565  30.124   5.660
 5057POPC   GL264406   2.637  29.809   5.832
 5057POPC   C1A64407   2.643  30.207   6.160
 5057POPC   D2A64408   2.552  29.980   6.577
 5057POPC   C3A64409   2.788  29.943   6.932
 5057POPC   C4A64410   3.078  29.759   7.197
 5057POPC   C1B64411   2.746  29.635   6.266
 5057POPC   C2B64412   2.815  29.469   6.706
 5057POPC   C3B64413   2.654  29.473   7.138
 5057POPC   C4B64414   2.738  29.589   7.564
 5058POPC   NC364415  42.666  43.835   5.438
 5058POPC   PO464416  42.087  44.267   5.433
 5058POPC   GL164417  42.342  44.065   5.779
 5058POPC   GL264418  42.392  43.707   5.856
 5058POPC   C1A64419  42.421  44.075   6.240
 5058POPC   D2A64420  42.190  44.196   6.620
 5058POPC   C3A64421  42.343  44.055   7.031
 5058POPC   C4A64422  42.314  44.189   7.470
 5058POPC   C1B64423  42.124  43.653   6.212
 5058POPC   C2B64424  42.309  43.667   6.629
 5058POPC   C3B64425  42.279  43.542   7.056
 5058POPC   C4B64426  42.438  43.688   7.490
 5059POPC   NC364427  11.890  24.706   5.522
 5059POPC   PO464428  12.379  24.245   5.407
 5059POPC   GL164429  12.379  24.394   5.875
 5059POPC   GL264430  12.062  24.478   5.944
 5059POPC   C1A64431  12.297  24.372   6.379
 5059POPC   D2A64432  12.331  24.540   6.821
 5059POPC   C3A64433  12.247  24.432   7.285
 5059POPC   C4A64434  12.335  24.175   7.707
 5059POPC   C1B64435  11.793  24.560   6.287
 5059POPC   C2B64436  11.626  24.596   6.717
 5059POPC   C3B64437  11.771  24.537   7.160
 5059POPC   C4B64438  11.814  24.284   7.554
 5060POPC   NC364439   9.146   8.810   5.504
 5060POPC   PO464440   8.586   9.115   5.401
 5060POPC   GL164441   8.458   9.228   5.843
 5060POPC   GL264442   8.775   9.063   5.941
 5060POPC   C1A64443   8.474   9.269   6.310
 5060POPC   D2A64444   8.766   9.004   6.544
 5060POPC   C3A64445   8.686   9.067   6.976
 5060POPC   C4A64446   8.455   8.817   7.243
 5060POPC   C1B64447   9.097   8.808   6.170
 5060POPC   C2B64448   9.297   8.909   6.530
 5060POPC   C3B64449   9.142   8.830   6.927
 5060POPC   C4B64450   9.151   9.177   7.183
 5061POPC   NC364451  23.862  10.722   5.452
 5061POPC   PO464452  23.448  10.104   5.426
 5061POPC   GL164453  23.828  10.257   5.681
 5061POPC   GL264454  24.168  10.140   5.642
 5061POPC   C1A64455  23.967  10.449   6.080
 5061POPC   D2A64456  23.768  10.515   6.496
 5061POPC   C3A64457  23.828  10.647   6.939
 5061POPC   C4A64458  23.539  10.561   7.270
 5061POPC   C1B64459  24.124   9.932   6.048
 5061POPC   C2B64460  24.144  10.093   6.465
 5061POPC   C3B64461  23.914  10.144   6.850
 5061POPC   C4B64462  23.926  10.214   7.287
 5062POPC   NC364463   2.783  38.187   5.529
 5062POPC   PO464464   2.404  37.694   5.160
 5062POPC   GL164465   2.565  37.680   5.627
 5062POPC   GL264466   2.942  37.691   5.655
 5062POPC   C1A64467   2.628  37.888   6.074
 5062POPC   D2A64468   2.472  38.072   6.465
 5062POPC   C3A64469   2.611  37.810   6.805
 5062POPC   C4A64470   2.629  37.751   7.246
 5062POPC   C1B64471   3.076  37.574   6.087
 5062POPC   C2B64472   2.995  37.498   6.542
 5062POPC   C3B64473   2.936  37.399   7.005
 5062POPC   C4B64474   2.945  37.311   7.470
 5063POPC   NC364475  36.627  11.466   5.475
 5063POPC   PO464476  37.139  11.109   5.561
 5063POPC   GL164477  36.991  11.194   5.955
 5063POPC   GL264478  36.910  11.522   5.890
 5063POPC   C1A64479  37.049  11.418   6.353
 5063POPC   D2A64480  36.842  11.428   6.693
 5063POPC   C3A64481  36.845  11.159   7.005
 5063POPC   C4A64482  36.902  11.186   7.399
 5063POPC   C1B64483  36.663  11.746   6.207
 5063POPC   C2B64484  36.454  11.744   6.583
 5063POPC   C3B64485  36.505  11.626   6.993
 5063POPC   C4B64486  36.684  11.658   7.346
 5064POPC   NC364487  23.565  40.950   5.571
 5064POPC   PO464488  23.904  40.531   5.233
 5064POPC   GL164489  24.020  40.841   5.685
 5064POPC   GL264490  23.727  40.604   5.891
 5064POPC   C1A64491  23.910  40.967   6.178
 5064POPC   D2A64492  23.811  41.015   6.657
 5064POPC   C3A64493  23.618  40.821   7.027
 5064POPC   C4A64494  23.659  40.807   7.475
 5064POPC   C1B64495  23.790  40.443   6.330
 5064POPC   C2B64496  24.047  40.511   6.719
 5064POPC   C3B64497  24.040  40.570   7.173
 5064POPC   C4B64498  23.968  40.424   7.596
 5065POPC   NC364499  11.322  29.403   5.366
 5065POPC   PO464500  11.566  28.759   5.502
 5065POPC   GL164501  11.638  29.179   5.722
 5065POPC   GL264502  11.309  29.358   5.872
 5065POPC   C1A64503  11.759  29.327   6.135
 5065POPC   D2A64504  11.719  29.121   6.546
 5065POPC   C3A64505  11.498  29.396   6.857
 5065POPC   C4A64506  11.491  29.357   7.292
 5065POPC   C1B64507  11.011  29.453   6.234
 5065POPC   C2B64508  10.888  29.402   6.678
 5065POPC   C3B64509  11.004  29.305   7.114
 5065POPC   C4B64510  11.232  28.918   7.195
 5066POPC   NC364511  19.527  27.668   5.176
 5066POPC   PO464512  19.928  27.188   5.447
 5066POPC   GL164513  19.692  27.408   5.744
 5066POPC   GL264514  19.742  27.767   5.793
 5066POPC   C1A64515  19.761  27.460   6.209
 5066POPC   D2A64516  20.138  27.472   6.486
 5066POPC   C3A64517  20.073  27.489   6.934
 5066POPC   C4A64518  19.742  27.455   7.236
 5066POPC   C1B64519  20.019  27.899   6.188
 5066POPC   C2B64520  20.047  28.056   6.592
 5066POPC   C3B64521  19.811  27.952   6.949
 5066POPC   C4B64522  20.091  27.937   7.248
 5067POPC   NC364523  39.818  10.868   5.528
 5067POPC   PO464524  40.116  10.240   5.504
 5067POPC   GL164525  40.042  10.505   5.812
 5067POPC   GL264526  39.669  10.530   5.882
 5067POPC   C1A64527  40.151  10.393   6.198
 5067POPC   D2A64528  39.988  10.545   6.562
 5067POPC   C3A64529  40.221  10.522   6.924
 5067POPC   C4A64530  40.285  10.321   7.291
 5067POPC   C1B64531  39.623  10.918   6.165
 5067POPC   C2B64532  39.705  11.039   6.592
 5067POPC   C3B64533  39.806  10.855   6.961
 5067POPC   C4B64534  39.827  10.592   7.289
 5068POPC   NC364535  17.656  27.032   5.383
 5068POPC   PO464536  17.885  26.398   5.471
 5068POPC   GL164537  17.621  26.675   5.808
 5068POPC   GL264538  17.479  27.013   5.871
 5068POPC   C1A64539  17.542  26.582   6.251
 5068POPC   D2A64540  17.481  26.434   6.663
 5068POPC   C3A64541  17.605  26.687   7.007
 5068POPC   C4A64542  17.334  26.914   7.162
 5068POPC   C1B64543  17.478  27.112   6.323
 5068POPC   C2B64544  17.662  27.081   6.718
 5068POPC   C3B64545  17.646  27.301   7.143
 5068POPC   C4B64546  17.315  27.323   7.459
 5069POPC   NC364547  39.222  21.053   5.440
 5069POPC   PO464548  38.965  21.602   5.587
 5069POPC   GL164549  39.169  21.322   5.878
 5069POPC   GL264550  39.524  21.265   5.823
 5069POPC   C1A64551  39.273  21.387   6.289
 5069POPC   D2A64552  39.082  21.338   6.673
 5069POPC   C3A64553  39.281  21.467   7.044
 5069POPC   C4A64554  39.060  21.795   7.201
 5069POPC   C1B64555  39.606  21.001   6.201
 5069POPC   C2B64556  39.432  20.968   6.622
 5069POPC   C3B64557  39.626  21.076   7.018
 5069POPC   C4B64558  39.801  21.237   7.407
 5070POPC   NC364559  21.610  30.164   5.059
 5070POPC   PO464560  21.211  29.672   5.356
 5070POPC   GL164561  21.286  29.914   5.782
 5070POPC   GL264562  21.570  30.182   5.769
 5070POPC   C1A64563  21.102  29.971   6.222
 5070POPC   D2A64564  21.337  29.834   6.609
 5070POPC   C3A64565  21.162  29.940   7.004
 5070POPC   C4A64566  20.851  29.745   7.190
 5070POPC   C1B64567  21.622  30.040   6.216
 5070POPC   C2B64568  21.662  30.258   6.630
 5070POPC   C3B64569  21.495  30.302   7.064
 5070POPC   C4B64570  21.564  29.944   7.377
 5071POPC   NC364571  25.162  23.395   5.525
 5071POPC   PO464572  25.607  22.933   5.394
 5071POPC   GL164573  25.372  22.994   5.755
 5071POPC   GL264574  25.053  22.850   5.609
 5071POPC   C1A64575  25.260  23.245   6.169
 5071POPC   D2A64576  25.007  23.213   6.571
 5071POPC   C3A64577  25.220  23.246   6.941
 5071POPC   C4A64578  25.183  23.061   7.318
 5071POPC   C1B64579  25.070  22.786   6.079
 5071POPC   C2B64580  25.158  22.729   6.526
 5071POPC   C3B64581  24.965  22.759   6.925
 5071POPC   C4B64582  24.971  22.548   7.319
 5072POPC   NC364583   2.930  27.846   5.530
 5072POPC   PO464584   2.833  28.482   5.415
 5072POPC   GL164585   2.673  28.458   5.823
 5072POPC   GL264586   2.663  28.115   5.873
 5072POPC   C1A64587   2.886  28.454   6.229
 5072POPC   D2A64588   3.192  28.369   6.550
 5072POPC   C3A64589   2.975  28.473   6.903
 5072POPC   C4A64590   2.868  28.314   7.249
 5072POPC   C1B64591   2.445  28.189   6.230
 5072POPC   C2B64592   2.259  28.161   6.619
 5072POPC   C3B64593   2.456  28.119   7.002
 5072POPC   C4B64594   2.407  28.501   7.168
 5073POPC   NC364595  18.619  25.221   5.327
 5073POPC   PO464596  18.021  25.408   5.498
 5073POPC   GL164597  18.226  25.415   5.857
 5073POPC   GL264598  18.525  25.607   5.780
 5073POPC   C1A64599  18.132  25.202   6.251
 5073POPC   D2A64600  18.240  25.309   6.671
 5073POPC   C3A64601  18.194  24.989   6.964
 5073POPC   C4A64602  17.960  25.058   7.318
 5073POPC   C1B64603  18.497  25.563   6.252
 5073POPC   C2B64604  18.659  25.598   6.668
 5073POPC   C3B64605  18.461  25.695   6.982
 5073POPC   C4B64606  18.224  25.452   7.180
 5074POPC   NC364607  43.270  36.153   5.067
 5074POPC   PO464608  42.912  36.226   5.673
 5074POPC   GL164609  43.212  35.990   5.876
 5074POPC   GL264610  42.947  35.844   6.056
 5074POPC   C1A64611  43.322  36.048   6.323
 5074POPC   D2A64612  43.204  36.370   6.616
 5074POPC   C3A64613  43.150  36.271   7.058
 5074POPC   C4A64614  43.169  35.846   7.174
 5074POPC   C1B64615  42.795  36.090   6.410
 5074POPC   C2B64616  42.551  35.900   6.763
 5074POPC   C3B64617  42.604  35.978   7.204
 5074POPC   C4B64618  42.882  36.131   7.514
 5075POPC   NC364619  14.844  34.494   5.437
 5075POPC   PO464620  14.233  34.850   5.359
 5075POPC   GL164621  14.402  34.885   5.774
 5075POPC   GL264622  14.449  34.526   5.786
 5075POPC   C1A64623  14.343  34.865   6.249
 5075POPC   D2A64624  14.533  34.828   6.701
 5075POPC   C3A64625  14.358  34.876   7.138
 5075POPC   C4A64626  14.477  34.914   7.609
 5075POPC   C1B64627  14.558  34.367   6.180
 5075POPC   C2B64628  14.454  34.318   6.603
 5075POPC   C3B64629  14.604  34.413   7.013
 5075POPC   C4B64630  14.413  34.446   7.411
 5076POPC   NC364631  29.538  39.586   5.715
 5076POPC   PO464632  29.684  40.243   5.455
 5076POPC   GL164633  29.799  40.288   5.855
 5076POPC   GL264634  29.880  39.931   5.862
 5076POPC   C1A64635  29.996  40.253   6.232
 5076POPC   D2A64636  29.849  39.982   6.529
 5076POPC   C3A64637  29.830  40.248   6.874
 5076POPC   C4A64638  29.854  40.372   7.285
 5076POPC   C1B64639  30.181  39.688   6.111
 5076POPC   C2B64640  30.237  39.586   6.547
 5076POPC   C3B64641  30.116  39.815   6.947
 5076POPC   C4B64642  29.711  39.838   7.161
 5077POPC   NC364643   6.033  14.727   5.513
 5077POPC   PO464644   5.656  14.177   5.477
 5077POPC   GL164645   5.740  14.429   5.809
 5077POPC   GL264646   5.953  14.179   5.900
 5077POPC   C1A64647   5.785  14.542   6.254
 5077POPC   D2A64648   5.623  14.513   6.681
 5077POPC   C3A64649   5.899  14.654   7.033
 5077POPC   C4A64650   6.222  14.429   7.233
 5077POPC   C1B64651   5.653  14.041   6.194
 5077POPC   C2B64652   5.837  14.039   6.574
 5077POPC   C3B64653   5.758  14.129   6.994
 5077POPC   C4B64654   5.435  13.977   7.268
 5078POPC   NC364655  14.597  43.126   5.470
 5078POPC   PO464656  14.099  43.679   5.493
 5078POPC   GL164657  14.096  43.279   5.749
 5078POPC   GL264658  14.306  42.950   5.851
 5078POPC   C1A64659  14.262  43.336   6.158
 5078POPC   D2A64660  14.300  43.143   6.549
 5078POPC   C3A64661  14.321  43.416   6.899
 5078POPC   C4A64662  14.262  43.241   7.291
 5078POPC   C1B64663  14.649  42.835   6.112
 5078POPC   C2B64664  14.722  42.853   6.542
 5078POPC   C3B64665  14.548  42.898   6.946
 5078POPC   C4B64666  14.750  42.862   7.345
 5079POPC   NC364667  10.319  24.635   5.381
 5079POPC   PO464668  10.441  23.992   5.465
 5079POPC   GL164669  10.498  24.360   5.756
 5079POPC   GL264670  10.313  24.163   5.943
 5079POPC   C1A64671  10.312  24.630   6.124
 5079POPC   D2A64672  10.240  24.464   6.530
 5079POPC   C3A64673  10.309  24.676   6.917
 5079POPC   C4A64674  10.481  24.608   7.307
 5079POPC   C1B64675  10.683  24.215   6.196
 5079POPC   C2B64676  10.651  24.091   6.605
 5079POPC   C3B64677  10.536  24.214   6.980
 5079POPC   C4B64678  10.813  24.218   7.324
 5080POPC   NC364679  38.583   7.986   5.150
 5080POPC   PO464680  38.177   8.504   5.360
 5080POPC   GL164681  38.478   8.406   5.735
 5080POPC   GL264682  38.652   8.065   5.717
 5080POPC   C1A64683  38.506   8.333   6.214
 5080POPC   D2A64684  38.312   8.276   6.644
 5080POPC   C3A64685  38.518   8.433   7.083
 5080POPC   C4A64686  38.373   8.446   7.583
 5080POPC   C1B64687  38.849   7.956   6.137
 5080POPC   C2B64688  38.733   7.827   6.586
 5080POPC   C3B64689  38.517   7.938   6.970
 5080POPC   C4B64690  38.593   8.022   7.397
 5081POPC   NC364691  30.144  29.654   5.339
 5081POPC   PO464692  29.800  30.145   5.396
 5081POPC   GL164693  29.758  30.008   5.817
 5081POPC   GL264694  30.095  29.893   5.828
 5081POPC   C1A64695  29.728  30.204   6.230
 5081POPC   D2A64696  29.412  30.320   6.494
 5081POPC   C3A64697  29.514  30.123   6.859
 5081POPC   C4A64698  29.747  29.914   7.172
 5081POPC   C1B64699  30.198  30.015   6.250
 5081POPC   C2B64700  29.971  29.957   6.646
 5081POPC   C3B64701  30.061  29.600   6.906
 5081POPC   C4B64702  30.332  29.488   7.254
 5082POPC   NC364703  35.753   5.388   5.443
 5082POPC   PO464704  35.095   5.241   5.502
 5082POPC   GL164705  35.381   5.061   5.793
 5082POPC   GL264706  35.730   4.947   5.710
 5082POPC   C1A64707  35.307   5.134   6.221
 5082POPC   D2A64708  35.164   4.970   6.593
 5082POPC   C3A64709  35.136   5.248   6.904
 5082POPC   C4A64710  35.204   5.124   7.275
 5082POPC   C1B64711  35.800   5.138   6.106
 5082POPC   C2B64712  35.708   4.983   6.548
 5082POPC   C3B64713  35.580   4.934   6.958
 5082POPC   C4B64714  35.592   4.655   7.339
 5083POPC   NC364715   8.158  34.029   5.420
 5083POPC   PO464716   7.990  33.383   5.521
 5083POPC   GL164717   8.074  33.675   5.831
 5083POPC   GL264718   8.439  33.691   5.874
 5083POPC   C1A64719   7.985  33.864   6.233
 5083POPC   D2A64720   7.987  34.108   6.647
 5083POPC   C3A64721   8.011  33.836   7.027
 5083POPC   C4A64722   7.873  33.367   6.983
 5083POPC   C1B64723   8.478  33.898   6.309
 5083POPC   C2B64724   8.481  33.950   6.770
 5083POPC   C3B64725   8.517  33.993   7.219
 5083POPC   C4B64726   8.594  34.075   7.674
 5084POPC   NC364727  34.245  38.561   5.515
 5084POPC   PO464728  34.857  38.398   5.312
 5084POPC   GL164729  34.664  38.284   5.719
 5084POPC   GL264730  34.338  38.066   5.746
 5084POPC   C1A64731  34.690  38.406   6.156
 5084POPC   D2A64732  34.834  38.638   6.511
 5084POPC   C3A64733  34.667  38.470   6.879
 5084POPC   C4A64734  34.675  38.507   7.298
 5084POPC   C1B64735  34.187  38.260   6.156
 5084POPC   C2B64736  34.169  38.409   6.623
 5084POPC   C3B64737  34.258  38.167   7.017
 5084POPC   C4B64738  34.651  38.003   7.196
 5085POPC   NC364739  12.440  31.024   5.528
 5085POPC   PO464740  12.653  31.726   5.423
 5085POPC   GL164741  12.842  31.371   5.672
 5085POPC   GL264742  13.192  31.233   5.649
 5085POPC   C1A64743  12.724  31.287   6.099
 5085POPC   D2A64744  12.455  31.538   6.402
 5085POPC   C3A64745  12.415  31.463   6.852
 5085POPC   C4A64746  12.571  31.269   7.220
 5085POPC   C1B64747  13.213  31.451   6.070
 5085POPC   C2B64748  13.008  31.481   6.489
 5085POPC   C3B64749  12.978  31.323   6.886
 5085POPC   C4B64750  13.296  31.258   7.164
 5086POPC   NC364751  29.662  34.922   5.699
 5086POPC   PO464752  29.176  34.779   5.217
 5086POPC   GL164753  29.155  34.790   5.717
 5086POPC   GL264754  28.915  34.945   5.956
 5086POPC   C1A64755  29.259  34.633   6.190
 5086POPC   D2A64756  29.163  34.482   6.652
 5086POPC   C3A64757  29.433  34.498   7.048
 5086POPC   C4A64758  29.310  34.545   7.505
 5086POPC   C1B64759  28.845  34.858   6.399
 5086POPC   C2B64760  28.898  34.889   6.855
 5086POPC   C3B64761  28.929  34.603   7.189
 5086POPC   C4B64762  28.668  34.638   7.581
 5087POPC   NC364763   3.965   4.818   5.337
 5087POPC   PO464764   4.627   4.942   5.527
 5087POPC   GL164765   4.405   4.793   5.898
 5087POPC   GL264766   4.045   4.847   5.828
 5087POPC   C1A64767   4.503   4.834   6.362
 5087POPC   D2A64768   4.387   5.242   6.583
 5087POPC   C3A64769   4.444   5.234   7.007
 5087POPC   C4A64770   4.565   4.852   7.215
 5087POPC   C1B64771   4.085   5.064   6.191
 5087POPC   C2B64772   4.009   4.868   6.561
 5087POPC   C3B64773   4.191   4.766   6.883
 5087POPC   C4B64774   4.048   4.959   7.241
 5088POPC   NC364775  39.020  40.399   5.488
 5088POPC   PO464776  39.390  40.943   5.365
 5088POPC   GL164777  39.231  40.865   5.772
 5088POPC   GL264778  38.880  40.946   5.691
 5088POPC   C1A64779  39.331  40.976   6.233
 5088POPC   D2A64780  39.265  41.030   6.684
 5088POPC   C3A64781  39.197  40.679   6.960
 5088POPC   C4A64782  39.493  40.433   7.160
 5088POPC   C1B64783  38.849  40.751   6.090
 5088POPC   C2B64784  38.877  40.763   6.500
 5088POPC   C3B64785  38.715  40.876   6.878
 5088POPC   C4B64786  38.871  40.895   7.304
 5089POPC   NC364787  36.819  42.437   5.354
 5089POPC   PO464788  37.062  41.948   5.590
 5089POPC   GL164789  36.941  42.198   5.898
 5089POPC   GL264790  36.838  42.529   5.864
 5089POPC   C1A64791  37.009  42.273   6.305
 5089POPC   D2A64792  36.875  42.170   6.675
 5089POPC   C3A64793  37.105  42.222   7.026
 5089POPC   C4A64794  36.968  42.218   7.456
 5089POPC   C1B64795  36.696  42.725   6.275
 5089POPC   C2B64796  36.867  42.723   6.677
 5089POPC   C3B64797  36.838  42.670   7.128
 5089POPC   C4B64798  36.855  42.714   7.551
 5090POPC   NC364799  12.338  10.709   5.480
 5090POPC   PO464800  11.753  10.453   5.534
 5090POPC   GL164801  12.067  10.482   5.884
 5090POPC   GL264802  12.364  10.229   5.863
 5090POPC   C1A64803  11.994  10.715   6.294
 5090POPC   D2A64804  11.750  10.622   6.697
 5090POPC   C3A64805  11.972  10.676   7.090
 5090POPC   C4A64806  11.955  10.317   7.359
 5090POPC   C1B64807  12.388  10.353   6.277
 5090POPC   C2B64808  12.294  10.532   6.670
 5090POPC   C3B64809  12.366  10.346   7.029
 5090POPC   C4B64810  12.407  10.530   7.397
 5091POPC   NC364811  25.332  11.694   5.308
 5091POPC   PO464812  24.873  11.220   5.458
 5091POPC   GL164813  25.171  11.273   5.794
 5091POPC   GL264814  25.355  11.560   5.853
 5091POPC   C1A64815  25.326  11.081   6.152
 5091POPC   D2A64816  25.074  11.160   6.503
 5091POPC   C3A64817  25.142  11.006   6.929
 5091POPC   C4A64818  25.164  11.255   7.319
 5091POPC   C1B64819  25.353  11.567   6.340
 5091POPC   C2B64820  25.315  11.487   6.809
 5091POPC   C3B64821  25.619  11.425   7.175
 5091POPC   C4B64822  25.585  11.420   7.652
 5092POPC   NC364823   6.141  16.713   5.517
 5092POPC   PO464824   5.702  17.281   5.448
 5092POPC   GL164825   5.707  17.027   5.819
 5092POPC   GL264826   5.552  16.711   5.848
 5092POPC   C1A64827   5.891  17.005   6.226
 5092POPC   D2A64828   6.122  16.946   6.612
 5092POPC   C3A64829   5.935  16.859   7.008
 5092POPC   C4A64830   6.146  16.905   7.366
 5092POPC   C1B64831   5.630  16.548   6.258
 5092POPC   C2B64832   5.581  16.666   6.699
 5092POPC   C3B64833   5.559  16.502   7.158
 5092POPC   C4B64834   5.432  16.457   7.635
 5093POPC   NC364835  37.422   4.019   5.429
 5093POPC   PO464836  37.832   3.523   5.237
 5093POPC   GL164837  37.674   3.475   5.702
 5093POPC   GL264838  37.416   3.683   5.834
 5093POPC   C1A64839  37.505   3.252   6.098
 5093POPC   D2A64840  37.634   3.258   6.533
 5093POPC   C3A64841  37.463   3.260   6.947
 5093POPC   C4A64842  37.533   3.024   7.329
 5093POPC   C1B64843  37.602   3.733   6.258
 5093POPC   C2B64844  37.407   3.702   6.675
 5093POPC   C3B64845  37.499   3.733   7.123
 5093POPC   C4B64846  37.637   3.542   7.511
 5094POPC   NC364847  31.600  40.544   5.248
 5094POPC   PO464848  31.350  41.046   5.588
 5094POPC   GL164849  31.530  40.844   5.937
 5094POPC   GL264850  31.770  41.015   6.075
 5094POPC   C1A64851  31.393  40.647   6.337
 5094POPC   D2A64852  31.146  40.557   6.714
 5094POPC   C3A64853  31.313  40.823   6.998
 5094POPC   C4A64854  31.310  41.057   7.342
 5094POPC   C1B64855  31.933  40.578   6.169
 5094POPC   C2B64856  31.956  40.388   6.592
 5094POPC   C3B64857  31.917  40.671   6.939
 5094POPC   C4B64858  31.734  40.784   7.301
 5095POPC   NC364859  19.526  15.443   5.479
 5095POPC   PO464860  20.100  15.243   5.232
 5095POPC   GL164861  19.999  15.284   5.690
 5095POPC   GL264862  20.247  15.487   5.837
 5095POPC   C1A64863  19.924  15.167   6.172
 5095POPC   D2A64864  19.750  15.228   6.638
 5095POPC   C3A64865  19.585  14.994   7.061
 5095POPC   C4A64866  19.612  15.189   7.497
 5095POPC   C1B64867  20.231  15.566   6.274
 5095POPC   C2B64868  20.259  15.269   6.654
 5095POPC   C3B64869  20.083  14.978   6.959
 5095POPC   C4B64870  20.058  14.949   7.413
 5096POPC   NC364871  13.393   6.461   5.435
 5096POPC   PO464872  13.832   6.991   5.260
 5096POPC   GL164873  13.889   6.747   5.717
 5096POPC   GL264874  13.571   6.631   5.859
 5096POPC   C1A64875  13.807   6.860   6.224
 5096POPC   D2A64876  13.942   6.772   6.685
 5096POPC   C3A64877  13.716   6.874   7.074
 5096POPC   C4A64878  13.687   6.907   7.555
 5096POPC   C1B64879  13.273   6.708   6.177
 5096POPC   C2B64880  13.215   6.479   6.524
 5096POPC   C3B64881  13.482   6.475   6.850
 5096POPC   C4B64882  13.475   6.497   7.289
 5097POPC   NC364883  43.483  19.651   5.289
 5097POPC   PO464884  43.044  20.154   5.459
 5097POPC   GL164885  43.002  19.770   5.714
 5097POPC   GL264886  43.326  19.725   5.845
 5097POPC   C1A64887  42.937  19.581   6.139
 5097POPC   D2A64888  42.714  19.557   6.528
 5097POPC   C3A64889  42.974  19.750   6.859
 5097POPC   C4A64890  43.013  19.803   7.306
 5097POPC   C1B64891  43.454  19.461   6.216
 5097POPC   C2B64892  43.576  19.532   6.636
 5097POPC   C3B64893  43.424  19.584   7.053
 5097POPC   C4B64894  43.493  19.949   7.328
 5098POPC   NC364895  19.417  23.758   5.322
 5098POPC   PO464896  18.897  23.487   5.633
 5098POPC   GL164897  19.304  23.576   5.816
 5098POPC   GL264898  19.382  23.950   5.838
 5098POPC   C1A64899  19.357  23.406   6.224
 5098POPC   D2A64900  19.544  23.594   6.587
 5098POPC   C3A64901  19.378  23.519   6.965
 5098POPC   C4A64902  19.346  23.770   7.323
 5098POPC   C1B64903  19.241  23.897   6.268
 5098POPC   C2B64904  19.053  23.797   6.668
 5098POPC   C3B64905  18.878  23.628   7.060
 5098POPC   C4B64906  18.855  23.849   7.433
 5099POPC   NC364907  23.903   8.021   5.180
 5099POPC   PO464908  23.500   8.511   5.278
 5099POPC   GL164909  23.744   8.313   5.644
 5099POPC   GL264910  23.465   8.160   5.854
 5099POPC   C1A64911  23.968   8.409   6.064
 5099POPC   D2A64912  23.795   8.358   6.488
 5099POPC   C3A64913  23.922   8.234   6.907
 5099POPC   C4A64914  24.059   8.399   7.276
 5099POPC   C1B64915  23.597   7.948   6.240
 5099POPC   C2B64916  23.508   7.986   6.680
 5099POPC   C3B64917  23.437   8.220   7.051
 5099POPC   C4B64918  23.511   7.855   7.231
 5100POPC   NC364919  28.559  12.210   5.439
 5100POPC   PO464920  27.976  11.745   5.501
 5100POPC   GL164921  28.299  11.930   5.775
 5100POPC   GL264922  28.590  11.761   5.712
 5100POPC   C1A64923  28.422  12.221   6.130
 5100POPC   D2A64924  28.289  12.253   6.585
 5100POPC   C3A64925  28.557  12.313   6.978
 5100POPC   C4A64926  28.400  12.311   7.439
 5100POPC   C1B64927  28.613  11.726   6.136
 5100POPC   C2B64928  28.718  11.977   6.496
 5100POPC   C3B64929  28.521  11.808   6.843
 5100POPC   C4B64930  28.583  11.873   7.266
 5101POPC   NC364931  20.837   7.530   5.466
 5101POPC   PO464932  20.531   6.935   5.525
 5101POPC   GL164933  20.458   7.127   5.921
 5101POPC   GL264934  20.634   7.455   5.936
 5101POPC   C1A64935  20.704   7.066   6.312
 5101POPC   D2A64936  20.934   7.158   6.699
 5101POPC   C3A64937  20.658   7.224   7.071
 5101POPC   C4A64938  20.492   7.160   7.516
 5101POPC   C1B64939  20.906   7.548   6.320
 5101POPC   C2B64940  20.832   7.676   6.770
 5101POPC   C3B64941  20.645   7.718   7.209
 5101POPC   C4B64942  20.592   7.651   7.690
 5102POPC   NC364943  42.506  41.766   5.408
 5102POPC   PO464944  42.204  42.408   5.528
 5102POPC   GL164945  42.288  42.279   5.931
 5102POPC   GL264946  42.504  42.000   5.869
 5102POPC   C1A64947  42.228  42.208   6.374
 5102POPC   D2A64948  42.115  41.997   6.754
 5102POPC   C3A64949  41.986  42.387   6.888
 5102POPC   C4A64950  42.090  42.566   7.274
 5102POPC   C1B64951  42.740  42.219   6.178
 5102POPC   C2B64952  42.737  42.330   6.614
 5102POPC   C3B64953  42.582  42.109   6.975
 5102POPC   C4B64954  42.423  42.135   7.394
 5103POPC   NC364955   9.300  38.801   5.468
 5103POPC   PO464956   8.931  38.234   5.180
 5103POPC   GL164957   8.982  38.336   5.642
 5103POPC   GL264958   8.718  38.112   5.801
 5103POPC   C1A64959   9.004  38.604   6.028
 5103POPC   D2A64960   9.067  38.737   6.456
 5103POPC   C3A64961   9.011  38.402   6.768
 5103POPC   C4A64962   8.967  38.573   7.172
 5103POPC   C1B64963   8.512  37.962   6.150
 5103POPC   C2B64964   8.665  37.898   6.542
 5103POPC   C3B64965   8.573  37.984   6.953
 5103POPC   C4B64966   8.836  38.097   7.287
 5104POPC   NC364967   0.592  23.311   5.460
 5104POPC   PO464968   0.379  22.671   5.396
 5104POPC   GL164969   0.387  22.810   5.780
 5104POPC   GL264970   0.720  22.918   5.901
 5104POPC   C1A64971   0.239  22.822   6.180
 5104POPC   D2A64972   0.533  22.935   6.477
 5104POPC   C3A64973   0.424  22.718   6.798
 5104POPC   C4A64974   0.368  22.731   7.194
 5104POPC   C1B64975   0.445  23.282   6.084
 5104POPC   C2B64976   0.188  23.313   6.456
 5104POPC   C3B64977   0.323  23.219   6.907
 5104POPC   C4B64978   0.616  23.280   7.269
 5105POPC   NC364979  24.912  43.750   5.430
 5105POPC   PO464980  24.178  43.748   5.429
 5105POPC   GL164981  24.358  43.826   5.824
 5105POPC   GL264982  24.676  43.557   5.830
 5105POPC   C1A64983  24.246  44.123   6.223
 5105POPC   D2A64984  24.267  44.278   6.691
 5105POPC   C3A64985  24.179  43.909   6.988
 5105POPC   C4A64986  24.301  43.477   7.111
 5105POPC   C1B64987  24.624  43.706   6.217
 5105POPC   C2B64988  24.462  43.805   6.569
 5105POPC   C3B64989  24.708  44.000   6.842
 5105POPC   C4B64990  24.661  43.885   7.223
 5106POPC   NC364991  30.990  30.169   5.482
 5106POPC   PO464992  30.886  29.451   5.420
 5106POPC   GL164993  30.582  29.743   5.695
 5106POPC   GL264994  30.621  30.071   5.851
 5106POPC   C1A64995  30.653  29.717   6.188
 5106POPC   D2A64996  30.755  29.496   6.577
 5106POPC   C3A64997  30.608  29.745   6.895
 5106POPC   C4A64998  30.763  30.028   7.173
 5106POPC   C1B64999  30.634  30.293   6.261
 5106POPC   C2B65000  30.764  30.362   6.700
 5106POPC   C3B65001  30.517  30.438   7.064
 5106POPC   C4B65002  30.243  30.059   7.089
 5107POPC   NC365003  14.764   3.710   5.494
 5107POPC   PO465004  14.119   3.691   5.339
 5107POPC   GL165005  14.314   3.668   5.766
 5107POPC   GL265006  14.552   3.365   5.827
 5107POPC   C1A65007  14.264   3.524   6.219
 5107POPC   D2A65008  14.254   3.633   6.658
 5107POPC   C3A65009  14.276   3.349   7.003
 5107POPC   C4A65010  14.186   3.531   7.392
 5107POPC   C1B65011  14.781   3.487   6.231
 5107POPC   C2B65012  14.746   3.407   6.701
 5107POPC   C3B65013  14.713   3.532   7.161
 5107POPC   C4B65014  14.777   3.584   7.636
 5108POPC   NC365015  33.497  29.635   5.584
 5108POPC   PO465016  33.873  30.193   5.620
 5108POPC   GL165017  33.726  29.999   5.944
 5108POPC   GL265018  33.880  29.692   5.938
 5108POPC   C1A65019  33.845  30.008   6.357
 5108POPC   D2A65020  33.988  29.877   6.730
 5108POPC   C3A65021  33.698  29.988   7.060
 5108POPC   C4A65022  33.703  29.888   7.498
 5108POPC   C1B65023  33.563  29.594   6.276
 5108POPC   C2B65024  33.490  29.649   6.733
 5108POPC   C3B65025  33.454  29.542   7.188
 5108POPC   C4B65026  33.565  29.390   7.631
 5109POPC   NC365027  14.513  14.075   5.474
 5109POPC   PO465028  14.610  14.766   5.449
 5109POPC   GL165029  14.433  14.532   5.815
 5109POPC   GL265030  14.387  14.180   5.940
 5109POPC   C1A65031  14.305  14.639   6.226
 5109POPC   D2A65032  14.470  14.825   6.610
 5109POPC   C3A65033  14.406  14.635   7.018
 5109POPC   C4A65034  14.482  14.489   7.468
 5109POPC   C1B65035  14.130  14.145   6.280
 5109POPC   C2B65036  14.117  14.338   6.698
 5109POPC   C3B65037  14.203  14.183   7.143
 5109POPC   C4B65038  14.222  13.837   7.499
 5110POPC   NC365039  20.069  24.116   5.446
 5110POPC   PO465040  19.850  23.461   5.331
 5110POPC   GL165041  19.834  23.736   5.698
 5110POPC   GL265042  20.179  23.823   5.863
 5110POPC   C1A65043  19.769  23.737   6.146
 5110POPC   D2A65044  20.032  23.490   6.451
 5110POPC   C3A65045  20.039  23.679   6.847
 5110POPC   C4A65046  19.845  23.638   7.260
 5110POPC   C1B65047  20.137  24.150   6.184
 5110POPC   C2B65048  20.257  24.257   6.629
 5110POPC   C3B65049  20.134  24.133   7.054
 5110POPC   C4B65050  20.053  24.027   7.513
 5111POPC   NC365051   7.001   7.830   5.126
 5111POPC   PO465052   7.497   7.394   5.351
 5111POPC   GL165053   7.541   7.306   5.795
 5111POPC   GL265054   7.204   7.298   5.813
 5111POPC   C1A65055   7.565   7.504   6.237
 5111POPC   D2A65056   7.385   7.612   6.643
 5111POPC   C3A65057   7.708   7.623   6.964
 5111POPC   C4A65058   7.654   7.662   7.375
 5111POPC   C1B65059   7.134   7.211   6.233
 5111POPC   C2B65060   6.844   7.253   6.586
 5111POPC   C3B65061   7.031   7.320   6.990
 5111POPC   C4B65062   7.438   7.215   7.108
 5112POPC   NC365063  25.166  14.052   5.500
 5112POPC   PO465064  25.464  13.456   5.169
 5112POPC   GL165065  25.275  13.541   5.601
 5112POPC   GL265066  25.430  13.764   5.832
 5112POPC   C1A65067  25.149  13.355   6.012
 5112POPC   D2A65068  25.275  13.338   6.470
 5112POPC   C3A65069  25.059  13.541   6.828
 5112POPC   C4A65070  25.111  13.420   7.268
 5112POPC   C1B65071  25.153  13.836   6.194
 5112POPC   C2B65072  25.156  14.023   6.600
 5112POPC   C3B65073  25.328  13.990   7.032
 5112POPC   C4B65074  25.102  13.936   7.434
 5113POPC   NC365075  12.761  12.262   5.432
 5113POPC   PO465076  13.167  11.759   5.514
 5113POPC   GL165077  12.949  11.986   5.804
 5113POPC   GL265078  12.650  11.894   5.832
 5113POPC   C1A65079  12.874  12.240   6.159
 5113POPC   D2A65080  13.030  12.365   6.555
 5113POPC   C3A65081  12.844  12.150   6.929
 5113POPC   C4A65082  12.659  12.341   7.280
 5113POPC   C1B65083  12.494  11.850   6.225
 5113POPC   C2B65084  12.695  11.769   6.612
 5113POPC   C3B65085  12.527  11.674   6.987
 5113POPC   C4B65086  12.472  11.875   7.340
 5114POPC   NC365087  30.389  25.505   5.619
 5114POPC   PO465088  30.948  25.107   5.414
 5114POPC   GL165089  30.756  25.169   5.845
 5114POPC   GL265090  30.859  25.437   6.083
 5114POPC   C1A65091  30.606  25.052   6.288
 5114POPC   D2A65092  30.781  25.315   6.631
 5114POPC   C3A65093  30.788  25.112   7.008
 5114POPC   C4A65094  30.388  25.009   7.063
 5114POPC   C1B65095  30.451  25.535   6.268
 5114POPC   C2B65096  30.268  25.358   6.637
 5114POPC   C3B65097  30.452  25.518   7.010
 5114POPC   C4B65098  30.215  25.611   7.327
 5115POPC   NC365099   8.062  10.643   5.244
 5115POPC   PO465100   7.914  10.090   5.577
 5115POPC   GL165101   8.103  10.428   5.869
 5115POPC   GL265102   8.383  10.213   6.021
 5115POPC   C1A65103   8.289  10.658   6.229
 5115POPC   D2A65104   8.385  10.480   6.640
 5115POPC   C3A65105   8.057  10.591   6.944
 5115POPC   C4A65106   8.051  10.741   7.349
 5115POPC   C1B65107   8.066  10.112   6.328
 5115POPC   C2B65108   7.928  10.122   6.763
 5115POPC   C3B65109   8.061  10.146   7.214
 5115POPC   C4B65110   8.048  10.289   7.640
 5116POPC   NC365111   0.776  14.306   5.633
 5116POPC   PO465112   0.303  14.786   5.604
 5116POPC   GL165113   0.416  14.520   5.937
 5116POPC   GL265114   0.269  14.237   5.845
 5116POPC   C1A65115   0.422  14.375   6.373
 5116POPC   D2A65116   0.768  14.268   6.653
 5116POPC   C3A65117   0.813  14.259   7.113
 5116POPC   C4A65118   0.507  14.119   7.445
 5116POPC   C1B65119   0.029  14.093   6.194
 5116POPC   C2B65120   0.020  14.144   6.663
 5116POPC   C3B65121   0.303  14.304   6.985
 5116POPC   C4B65122   0.252  14.694   7.250
 5117POPC   NC365123  30.214  23.961   5.326
 5117POPC   PO465124  29.735  23.515   5.424
 5117POPC   GL165125  29.714  23.682   5.858
 5117POPC   GL265126  29.424  23.487   5.977
 5117POPC   C1A65127  29.984  23.872   6.220
 5117POPC   D2A65128  30.314  23.859   6.547
 5117POPC   C3A65129  30.122  23.938   6.950
 5117POPC   C4A65130  30.017  23.534   7.110
 5117POPC   C1B65131  29.449  23.856   6.265
 5117POPC   C2B65132  29.664  23.984   6.641
 5117POPC   C3B65133  29.584  23.803   7.044
 5117POPC   C4B65134  29.549  23.522   7.404
 5118POPC   NC365135  44.123   4.829   5.425
 5118POPC   PO465136  43.928   4.193   5.551
 5118POPC   GL165137  43.875   4.465   5.909
 5118POPC   GL265138  44.198   4.448   5.927
 5118POPC   C1A65139  43.605   4.410   6.297
 5118POPC   D2A65140  43.543   4.144   6.703
 5118POPC   C3A65141  43.528   4.305   7.165
 5118POPC   C4A65142  43.590   4.537   7.621
 5118POPC   C1B65143  44.109   4.454   6.362
 5118POPC   C2B65144  43.903   4.517   6.708
 5118POPC   C3B65145  44.022   4.335   7.026
 5118POPC   C4B65146  44.020   4.421   7.376
 5119POPC   NC365147   9.123   1.346   5.266
 5119POPC   PO465148   8.527   1.515   5.460
 5119POPC   GL165149   8.823   1.221   5.761
 5119POPC   GL265150   9.191   1.208   5.751
 5119POPC   C1A65151   8.961   1.065   6.179
 5119POPC   D2A65152   8.899   1.239   6.569
 5119POPC   C3A65153   8.990   1.017   6.935
 5119POPC   C4A65154   8.967   1.132   7.346
 5119POPC   C1B65155   9.252   1.504   6.095
 5119POPC   C2B65156   9.185   1.656   6.525
 5119POPC   C3B65157   9.298   1.422   6.889
 5119POPC   C4B65158   9.435   1.326   7.319
 5120POPC   NC365159  37.513  31.776   5.472
 5120POPC   PO465160  37.685  32.423   5.182
 5120POPC   GL165161  37.738  32.292   5.680
 5120POPC   GL265162  37.657  32.028   5.898
 5120POPC   C1A65163  37.896  32.433   6.129
 5120POPC   D2A65164  37.758  32.263   6.556
 5120POPC   C3A65165  37.890  32.096   6.934
 5120POPC   C4A65166  37.733  32.141   7.377
 5120POPC   C1B65167  37.420  32.232   6.204
 5120POPC   C2B65168  37.276  32.095   6.641
 5120POPC   C3B65169  37.381  32.292   7.049
 5120POPC   C4B65170  37.248  32.227   7.526
 5121POPC   NC365171  37.283  19.737   5.308
 5121POPC   PO465172  36.732  19.976   5.597
 5121POPC   GL165173  37.109  19.871   5.809
 5121POPC   GL265174  36.931  19.585   5.923
 5121POPC   C1A65175  37.202  19.958   6.266
 5121POPC   D2A65176  37.134  19.815   6.710
 5121POPC   C3A65177  36.725  19.847   6.913
 5121POPC   C4A65178  36.683  19.844   7.345
 5121POPC   C1B65179  36.987  19.479   6.347
 5121POPC   C2B65180  36.835  19.352   6.749
 5121POPC   C3B65181  37.003  19.468   7.158
 5121POPC   C4B65182  36.893  19.399   7.585
 5122POPC   NC365183   6.914  17.951   5.473
 5122POPC   PO465184   6.500  17.370   5.532
 5122POPC   GL165185   6.494  17.612   5.901
 5122POPC   GL265186   6.836  17.665   5.900
 5122POPC   C1A65187   6.616  17.685   6.355
 5122POPC   D2A65188   6.780  17.527   6.755
 5122POPC   C3A65189   6.502  17.610   7.104
 5122POPC   C4A65190   6.337  17.556   7.502
 5122POPC   C1B65191   6.910  17.279   6.187
 5122POPC   C2B65192   7.097  17.003   6.518
 5122POPC   C3B65193   7.083  17.155   6.920
 5122POPC   C4B65194   6.956  17.440   7.249
 5123POPC   NC365195  19.787  18.325   5.433
 5123POPC   PO465196  19.834  17.729   5.579
 5123POPC   GL165197  20.017  18.112   5.849
 5123POPC   GL265198  20.027  18.503   5.852
 5123POPC   C1A65199  19.847  18.260   6.259
 5123POPC   D2A65200  19.705  17.997   6.581
 5123POPC   C3A65201  19.890  18.066   6.958
 5123POPC   C4A65202  19.773  17.956   7.355
 5123POPC   C1B65203  19.588  18.624   6.060
 5123POPC   C2B65204  19.388  18.451   6.467
 5123POPC   C3B65205  19.497  18.394   6.912
 5123POPC   C4B65206  19.853  18.570   7.156
 5124POPC   NC365207  42.629   4.946   5.482
 5124POPC   PO465208  42.133   5.322   5.498
 5124POPC   GL165209  42.180   5.074   5.871
 5124POPC   GL265210  42.428   4.827   5.951
 5124POPC   C1A65211  41.946   4.972   6.239
 5124POPC   D2A65212  42.000   4.737   6.656
 5124POPC   C3A65213  42.192   4.984   6.994
 5124POPC   C4A65214  42.422   5.392   7.111
 5124POPC   C1B65215  42.423   4.889   6.379
 5124POPC   C2B65216  42.548   5.183   6.674
 5124POPC   C3B65217  42.716   4.983   7.041
 5124POPC   C4B65218  42.611   4.560   7.100
 5125POPC   NC365219  40.340  33.536   5.513
 5125POPC   PO465220  40.810  33.955   5.212
 5125POPC   GL165221  40.886  33.992   5.676
 5125POPC   GL265222  40.799  33.627   5.785
 5125POPC   C1A65223  40.853  33.979   6.155
 5125POPC   D2A65224  40.960  33.847   6.609
 5125POPC   C3A65225  40.688  33.916   7.000
 5125POPC   C4A65226  40.812  33.907   7.452
 5125POPC   C1B65227  41.070  33.446   6.126
 5125POPC   C2B65228  41.116  33.309   6.555
 5125POPC   C3B65229  40.929  33.456   6.949
 5125POPC   C4B65230  41.044  33.474   7.381
 5126POPC   NC365231   7.133  16.629   5.423
 5126POPC   PO465232   7.408  17.190   5.491
 5126POPC   GL165233   7.258  16.981   5.845
 5126POPC   GL265234   7.610  16.895   5.890
 5126POPC   C1A65235   7.240  16.652   6.170
 5126POPC   D2A65236   7.361  16.469   6.564
 5126POPC   C3A65237   7.362  16.707   6.926
 5126POPC   C4A65238   7.491  16.603   7.339
 5126POPC   C1B65239   7.531  17.110   6.276
 5126POPC   C2B65240   7.550  17.197   6.709
 5126POPC   C3B65241   7.757  16.995   7.063
 5126POPC   C4B65242   7.741  17.025   7.484
 5127POPC   NC365243   9.900  44.218   5.433
 5127POPC   PO465244   9.744  43.521   5.310
 5127POPC   GL165245   9.772  43.631   5.769
 5127POPC   GL265246   9.665  44.000   5.825
 5127POPC   C1A65247   9.829  43.722   6.213
 5127POPC   D2A65248   9.616  43.674   6.604
 5127POPC   C3A65249   9.916  43.685   6.920
 5127POPC   C4A65250  10.071  43.786   7.319
 5127POPC   C1B65251   9.698  44.281   6.194
 5127POPC   C2B65252   9.706  44.186   6.645
 5127POPC   C3B65253   9.512  43.993   7.015
 5127POPC   C4B65254   9.603  43.985   7.455
 5128POPC   NC365255  43.730  40.478   5.570
 5128POPC   PO465256  43.229  40.842   5.197
 5128POPC   GL165257  43.140  40.873   5.697
 5128POPC   GL265258  43.462  40.838   5.848
 5128POPC   C1A65259  43.041  40.613   6.125
 5128POPC   D2A65260  42.822  40.441   6.544
 5128POPC   C3A65261  43.029  40.567   6.949
 5128POPC   C4A65262  43.258  40.500   7.340
 5128POPC   C1B65263  43.511  40.738   6.298
 5128POPC   C2B65264  43.347  40.869   6.710
 5128POPC   C3B65265  43.587  40.821   7.117
 5128POPC   C4B65266  43.559  40.850   7.604
 5129POPC   NC365267  12.317  40.386   5.649
 5129POPC   PO465268  11.663  40.629   5.508
 5129POPC   GL165269  11.755  40.892   5.842
 5129POPC   GL265270  12.086  40.836   5.797
 5129POPC   C1A65271  11.733  40.811   6.269
 5129POPC   D2A65272  11.950  40.761   6.637
 5129POPC   C3A65273  11.862  40.922   7.009
 5129POPC   C4A65274  12.171  40.834   7.298
 5129POPC   C1B65275  12.203  40.624   6.217
 5129POPC   C2B65276  12.402  40.488   6.595
 5129POPC   C3B65277  12.603  40.429   6.995
 5129POPC   C4B65278  12.584  40.556   7.426
 5130POPC   NC365279  38.527  39.535   5.594
 5130POPC   PO465280  38.721  38.903   5.455
 5130POPC   GL165281  38.596  39.068   5.859
 5130POPC   GL265282  38.240  39.136   5.825
 5130POPC   C1A65283  38.481  39.341   6.229
 5130POPC   D2A65284  38.597  39.368   6.643
 5130POPC   C3A65285  38.320  39.488   6.956
 5130POPC   C4A65286  38.602  39.207   7.168
 5130POPC   C1B65287  38.240  38.887   6.202
 5130POPC   C2B65288  38.137  38.990   6.630
 5130POPC   C3B65289  38.145  39.030   7.057
 5130POPC   C4B65290  38.233  39.137   7.507
 5131POPC   NC365291  40.334  21.350   5.451
 5131POPC   PO465292  39.800  21.674   5.451
 5131POPC   GL165293  40.003  21.484   5.824
 5131POPC   GL265294  40.020  21.108   5.771
 5131POPC   C1A65295  39.796  21.513   6.238
 5131POPC   D2A65296  39.630  21.447   6.648
 5131POPC   C3A65297  39.908  21.553   6.959
 5131POPC   C4A65298  39.863  21.730   7.349
 5131POPC   C1B65299  40.117  21.128   6.201
 5131POPC   C2B65300  39.966  21.022   6.624
 5131POPC   C3B65301  40.150  21.120   7.038
 5131POPC   C4B65302  40.303  21.387   7.323
 5132POPC   NC365303  43.223  30.860   5.408
 5132POPC   PO465304  43.040  30.182   5.335
 5132POPC   GL165305  43.148  30.426   5.729
 5132POPC   GL265306  42.888  30.653   5.750
 5132POPC   C1A65307  43.202  30.482   6.169
 5132POPC   D2A65308  42.955  30.606   6.516
 5132POPC   C3A65309  43.080  30.516   6.932
 5132POPC   C4A65310  43.247  30.712   7.284
 5132POPC   C1B65311  42.748  30.906   6.081
 5132POPC   C2B65312  42.685  31.041   6.486
 5132POPC   C3B65313  42.674  30.839   6.879
 5132POPC   C4B65314  42.766  30.929   7.270
 5133POPC   NC365315  27.999  22.174   5.419
 5133POPC   PO465316  28.637  22.413   5.435
 5133POPC   GL165317  28.387  22.318   5.782
 5133POPC   GL265318  28.288  22.643   5.883
 5133POPC   C1A65319  28.228  21.998   6.096
 5133POPC   D2A65320  28.010  21.974   6.510
 5133POPC   C3A65321  28.036  21.885   6.959
 5133POPC   C4A65322  28.311  22.009   7.238
 5133POPC   C1B65323  28.264  22.486   6.294
 5133POPC   C2B65324  28.411  22.332   6.693
 5133POPC   C3B65325  28.416  22.476   7.119
 5133POPC   C4B65326  28.235  22.391   7.548
 5134POPC   NC365327  44.995  20.774   5.230
 5134POPC   PO465328  44.376  20.503   5.290
 5134POPC   GL165329  44.624  20.275   5.655
 5134POPC   GL265330  44.996  20.221   5.571
 5134POPC   C1A65331  44.581  20.271   6.146
 5134POPC   D2A65332  44.470  20.577   6.517
 5134POPC   C3A65333  44.574  20.502   6.972
 5134POPC   C4A65334  44.555  20.746   7.374
 5134POPC   C1B65335   0.025  20.470   5.971
 5134POPC   C2B65336   0.020  20.536   6.428
 5134POPC   C3B65337   0.058  20.686   6.864
 5134POPC   C4B65338   0.047  20.358   7.156
 5135POPC   NC365339  34.936  36.831   5.396
 5135POPC   PO465340  35.613  37.007   5.383
 5135POPC   GL165341  35.599  36.852   5.813
 5135POPC   GL265342  35.242  36.920   5.845
 5135POPC   C1A65343  35.516  36.779   6.272
 5135POPC   D2A65344  35.363  36.867   6.674
 5135POPC   C3A65345  35.644  36.773   6.963
 5135POPC   C4A65346  35.565  36.500   7.287
 5135POPC   C1B65347  35.248  37.221   6.210
 5135POPC   C2B65348  35.014  37.219   6.573
 5135POPC   C3B65349  34.986  37.089   6.974
 5135POPC   C4B65350  35.273  36.945   7.248
 5136POPC   NC365351  34.493  31.112   5.472
 5136POPC   PO465352  34.800  31.723   5.491
 5136POPC   GL165353  34.614  31.496   5.849
 5136POPC   GL265354  34.275  31.643   5.850
 5136POPC   C1A65355  34.831  31.362   6.261
 5136POPC   D2A65356  34.953  31.262   6.707
 5136POPC   C3A65357  34.643  31.470   6.960
 5136POPC   C4A65358  34.675  31.769   7.276
 5136POPC   C1B65359  34.087  31.727   6.301
 5136POPC   C2B65360  34.235  31.806   6.779
 5136POPC   C3B65361  34.239  32.029   7.216
 5136POPC   C4B65362  34.187  31.830   7.658
 5137POPC   NC365363   2.898  41.732   5.246
 5137POPC   PO465364   2.313  41.610   5.611
 5137POPC   GL165365   2.655  41.431   5.842
 5137POPC   GL265366   3.008  41.351   5.658
 5137POPC   C1A65367   2.753  41.571   6.296
 5137POPC   D2A65368   2.548  41.646   6.701
 5137POPC   C3A65369   2.818  41.767   7.053
 5137POPC   C4A65370   2.529  41.924   7.367
 5137POPC   C1B65371   3.056  41.197   6.048
 5137POPC   C2B65372   2.886  41.116   6.425
 5137POPC   C3B65373   2.878  41.268   6.814
 5137POPC   C4B65374   2.665  41.293   7.195
 5138POPC   NC365375  12.491   6.031   5.385
 5138POPC   PO465376  13.135   6.069   5.338
 5138POPC   GL165377  12.969   5.844   5.730
 5138POPC   GL265378  12.611   5.866   5.865
 5138POPC   C1A65379  13.042   5.721   6.181
 5138POPC   D2A65380  13.018   5.986   6.566
 5138POPC   C3A65381  13.125   5.901   6.981
 5138POPC   C4A65382  12.871   5.860   7.332
 5138POPC   C1B65383  12.570   5.843   6.330
 5138POPC   C2B65384  12.624   5.702   6.767
 5138POPC   C3B65385  12.639   6.050   6.922
 5138POPC   C4B65386  12.571   6.265   7.240
 5139POPC   NC365387  35.811  29.061   5.340
 5139POPC   PO465388  35.252  29.353   5.440
 5139POPC   GL165389  35.224  29.402   5.883
 5139POPC   GL265390  34.994  29.676   5.864
 5139POPC   C1A65391  35.366  29.187   6.298
 5139POPC   D2A65392  35.289  29.041   6.745
 5139POPC   C3A65393  35.596  28.947   7.070
 5139POPC   C4A65394  35.287  28.933   7.349
 5139POPC   C1B65395  35.053  29.598   6.337
 5139POPC   C2B65396  35.350  29.547   6.669
 5139POPC   C3B65397  35.355  29.425   7.086
 5139POPC   C4B65398  35.146  29.426   7.479
 5140POPC   NC365399  21.886  41.417   5.412
 5140POPC   PO465400  22.498  41.257   5.367
 5140POPC   GL165401  22.285  41.417   5.778
 5140POPC   GL265402  21.953  41.552   5.882
 5140POPC   C1A65403  22.335  41.582   6.219
 5140POPC   D2A65404  22.453  41.473   6.664
 5140POPC   C3A65405  22.255  41.676   7.020
 5140POPC   C4A65406  22.028  41.512   7.341
 5140POPC   C1B65407  21.880  41.819   6.187
 5140POPC   C2B65408  22.041  41.845   6.587
 5140POPC   C3B65409  21.755  41.690   6.863
 5140POPC   C4B65410  21.634  41.790   7.258
 5141POPC   NC365411  23.270  39.280   5.423
 5141POPC   PO465412  22.652  39.148   5.379
 5141POPC   GL165413  22.866  39.320   5.742
 5141POPC   GL265414  23.077  39.051   5.846
 5141POPC   C1A65415  22.750  39.282   6.180
 5141POPC   D2A65416  22.851  39.083   6.581
 5141POPC   C3A65417  22.689  39.255   6.915
 5141POPC   C4A65418  22.741  39.195   7.318
 5141POPC   C1B65419  23.236  39.190   6.255
 5141POPC   C2B65420  23.355  39.286   6.663
 5141POPC   C3B65421  23.220  39.179   7.056
 5141POPC   C4B65422  23.538  39.319   7.321
 5142POPC   NC365423  19.814   1.026   5.510
 5142POPC   PO465424  20.045   1.625   5.810
 5142POPC   GL165425  19.906   1.250   5.973
 5142POPC   GL265426  19.577   1.285   5.894
 5142POPC   C1A65427  19.932   1.117   6.401
 5142POPC   D2A65428  19.990   1.450   6.699
 5142POPC   C3A65429  19.857   1.487   7.138
 5142POPC   C4A65430  20.165   1.258   7.418
 5142POPC   C1B65431  19.436   1.054   6.243
 5142POPC   C2B65432  19.501   1.139   6.674
 5142POPC   C3B65433  19.340   0.931   7.007
 5142POPC   C4B65434  19.638   1.056   7.278
 5143POPC   NC365435   5.883  36.445   5.402
 5143POPC   PO465436   5.615  35.836   5.223
 5143POPC   GL165437   5.802  35.935   5.670
 5143POPC   GL265438   5.865  36.244   5.868
 5143POPC   C1A65439   5.722  35.844   6.153
 5143POPC   D2A65440   5.969  35.935   6.556
 5143POPC   C3A65441   5.836  35.792   6.975
 5143POPC   C4A65442   5.761  35.865   7.417
 5143POPC   C1B65443   6.166  36.431   6.178
 5143POPC   C2B65444   6.098  36.515   6.613
 5143POPC   C3B65445   5.852  36.312   6.938
 5143POPC   C4B65446   5.974  36.353   7.350
 5144POPC   NC365447  30.262  14.415   5.327
 5144POPC   PO465448  29.699  13.980   5.288
 5144POPC   GL165449  29.836  14.268   5.720
 5144POPC   GL265450  29.665  14.593   5.828
 5144POPC   C1A65451  30.071  14.454   6.114
 5144POPC   D2A65452  29.945  14.457   6.558
 5144POPC   C3A65453  30.191  14.406   6.931
 5144POPC   C4A65454  30.146  14.765   7.186
 5144POPC   C1B65455  29.458  14.714   6.234
 5144POPC   C2B65456  29.408  14.891   6.654
 5144POPC   C3B65457  29.693  14.736   6.957
 5144POPC   C4B65458  29.689  14.729   7.418
 5145POPC   NC365459  37.434  11.491   5.495
 5145POPC   PO465460  38.067  11.274   5.571
 5145POPC   GL165461  37.805  11.477   5.925
 5145POPC   GL265462  37.429  11.493   6.001
 5145POPC   C1A65463  37.789  11.376   6.372
 5145POPC   D2A65464  37.791  10.971   6.625
 5145POPC   C3A65465  37.763  11.150   7.029
 5145POPC   C4A65466  37.997  11.536   7.179
 5145POPC   C1B65467  37.406  11.081   6.245
 5145POPC   C2B65468  37.296  11.117   6.703
 5145POPC   C3B65469  37.308  11.349   7.120
 5145POPC   C4B65470  37.406  11.093   7.493
 5146POPC   NC365471   2.182   1.899   5.517
 5146POPC   PO465472   1.537   2.152   5.278
 5146POPC   GL165473   1.806   2.195   5.718
 5146POPC   GL265474   1.851   1.833   5.882
 5146POPC   C1A65475   1.978   2.179   6.200
 5146POPC   D2A65476   1.853   1.922   6.601
 5146POPC   C3A65477   2.007   2.050   7.030
 5146POPC   C4A65478   1.784   1.907   7.413
 5146POPC   C1B65479   2.144   1.686   6.235
 5146POPC   C2B65480   2.302   1.688   6.688
 5146POPC   C3B65481   2.310   1.501   7.092
 5146POPC   C4B65482   2.284   1.783   7.410
 5147POPC   NC365483  34.347  43.823   5.551
 5147POPC   PO465484  34.964  43.862   5.295
 5147POPC   GL165485  34.809  43.850   5.773
 5147POPC   GL265486  34.966  44.080   5.985
 5147POPC   C1A65487  34.494  43.942   6.168
 5147POPC   D2A65488  34.124  43.841   6.452
 5147POPC   C3A65489  34.179  43.820   6.900
 5147POPC   C4A65490  34.161  43.944   7.328
 5147POPC   C1B65491  34.926  43.694   6.248
 5147POPC   C2B65492  34.577  43.542   6.494
 5147POPC   C3B65493  34.710  43.738   6.847
 5147POPC   C4B65494  34.767  44.104   7.134
 5148POPC   NC365495  44.687  16.785   5.355
 5148POPC   PO465496  44.966  16.174   5.516
 5148POPC   GL165497  44.952  16.534   5.855
 5148POPC   GL265498  44.932  16.931   5.796
 5148POPC   C1A65499  44.927  16.722   6.283
 5148POPC   D2A65500  44.642  16.703   6.600
 5148POPC   C3A65501  44.590  16.370   6.864
 5148POPC   C4A65502  44.786  16.583   7.162
 5148POPC   C1B65503  44.553  17.027   6.074
 5148POPC   C2B65504  44.459  17.170   6.502
 5148POPC   C3B65505  44.628  17.091   6.940
 5148POPC   C4B65506  44.559  16.970   7.362
 5149POPC   NC365507  42.165  12.496   5.371
 5149POPC   PO465508  42.640  12.910   5.588
 5149POPC   GL165509  42.321  12.781   5.815
 5149POPC   GL265510  41.984  12.805   5.865
 5149POPC   C1A65511  42.338  12.960   6.215
 5149POPC   D2A65512  42.682  12.923   6.495
 5149POPC   C3A65513  42.498  12.987   6.894
 5149POPC   C4A65514  42.456  12.919   7.316
 5149POPC   C1B65515  41.850  12.683   6.267
 5149POPC   C2B65516  41.857  12.797   6.696
 5149POPC   C3B65517  42.043  12.714   7.099
 5149POPC   C4B65518  42.046  12.715   7.561
 5150POPC   NC365519  22.580   2.224   5.415
 5150POPC   PO465520  23.176   1.779   5.509
 5150POPC   GL165521  22.928   1.780   5.878
 5150POPC   GL265522  22.718   2.077   5.914
 5150POPC   C1A65523  23.036   1.827   6.327
 5150POPC   D2A65524  23.263   1.666   6.692
 5150POPC   C3A65525  23.171   1.904   7.067
 5150POPC   C4A65526  22.943   2.283   7.235
 5150POPC   C1B65527  22.540   1.748   6.229
 5150POPC   C2B65528  22.647   1.720   6.692
 5150POPC   C3B65529  22.616   1.687   7.142
 5150POPC   C4B65530  22.903   1.761   7.495
 5151POPC   NC365531  42.908  16.687   5.404
 5151POPC   PO465532  43.531  16.760   5.300
 5151POPC   GL165533  43.313  16.963   5.714
 5151POPC   GL265534  42.974  16.885   5.927
 5151POPC   C1A65535  43.376  17.036   6.185
 5151POPC   D2A65536  43.091  17.011   6.553
 5151POPC   C3A65537  43.133  16.697   6.890
 5151POPC   C4A65538  43.319  16.820   7.266
 5151POPC   C1B65539  42.640  16.905   6.302
 5151POPC   C2B65540  42.625  16.940   6.787
 5151POPC   C3B65541  42.775  16.906   7.225
 5151POPC   C4B65542  43.012  17.116   7.567
 5152POPC   NC365543  41.731  24.747   5.510
 5152POPC   PO465544  41.192  24.540   5.456
 5152POPC   GL165545  41.370  24.375   5.801
 5152POPC   GL265546  41.706  24.301   5.849
 5152POPC   C1A65547  41.330  24.408   6.233
 5152POPC   D2A65548  41.427  24.690   6.578
 5152POPC   C3A65549  41.337  24.515   6.969
 5152POPC   C4A65550  41.461  24.508   7.344
 5152POPC   C1B65551  41.721  24.703   6.139
 5152POPC   C2B65552  41.909  24.856   6.523
 5152POPC   C3B65553  41.819  24.664   6.916
 5152POPC   C4B65554  41.923  24.750   7.316
 5153POPC   NC365555  22.921  44.615   5.647
 5153POPC   PO465556  23.044   0.006   5.105
 5153POPC   GL165557  23.228   0.043   5.604
 5153POPC   GL265558  23.376  44.773   5.794
 5153POPC   C1A65559  23.089   0.010   6.120
 5153POPC   D2A65560  22.915  44.677   6.419
 5153POPC   C3A65561  22.898  44.801   6.857
 5153POPC   C4A65562  22.702  44.671   7.254
 5153POPC   C1B65563  23.576  44.876   6.201
 5153POPC   C2B65564  23.391  44.825   6.572
 5153POPC   C3B65565  23.416  44.684   6.970
 5153POPC   C4B65566  23.191  44.565   7.308
 5154POPC   NC365567  29.320  12.387   5.601
 5154POPC   PO465568  28.951  11.907   5.401
 5154POPC   GL165569  29.096  11.915   5.801
 5154POPC   GL265570  28.874  12.183   5.868
 5154POPC   C1A65571  29.118  11.793   6.229
 5154POPC   D2A65572  29.248  11.992   6.605
 5154POPC   C3A65573  29.017  11.831   6.914
 5154POPC   C4A65574  29.090  11.903   7.323
 5154POPC   C1B65575  29.101  12.330   6.216
 5154POPC   C2B65576  29.003  12.459   6.614
 5154POPC   C3B65577  29.108  12.321   7.007
 5154POPC   C4B65578  28.894  12.377   7.367
 5155POPC   NC365579  13.828   4.055   5.425
 5155POPC   PO465580  13.369   4.600   5.371
 5155POPC   GL165581  13.504   4.308   5.719
 5155POPC   GL265582  13.868   4.325   5.853
 5155POPC   C1A65583  13.490   4.081   6.127
 5155POPC   D2A65584  13.350   4.145   6.554
 5155POPC   C3A65585  13.474   4.293   6.966
 5155POPC   C4A65586  13.697   4.433   7.303
 5155POPC   C1B65587  13.975   4.130   6.248
 5155POPC   C2B65588  13.854   4.351   6.613
 5155POPC   C3B65589  14.095   4.451   6.985
 5155POPC   C4B65590  14.180   4.094   7.273
 5156POPC   NC365591  17.618  17.244   5.587
 5156POPC   PO465592  17.938  16.773   5.346
 5156POPC   GL165593  17.708  16.633   5.762
 5156POPC   GL265594  17.372  16.797   5.756
 5156POPC   C1A65595  17.605  16.557   6.232
 5156POPC   D2A65596  17.559  16.371   6.682
 5156POPC   C3A65597  17.578  16.649   7.078
 5156POPC   C4A65598  17.463  16.642   7.549
 5156POPC   C1B65599  17.173  16.851   6.149
 5156POPC   C2B65600  17.273  16.791   6.560
 5156POPC   C3B65601  17.071  16.717   6.916
 5156POPC   C4B65602  17.175  16.960   7.239
 5157POPC   NC365603  43.093  38.813   5.669
 5157POPC   PO465604  43.490  38.443   5.275
 5157POPC   GL165605  43.345  38.365   5.782
 5157POPC   GL265606  42.997  38.293   5.896
 5157POPC   C1A65607  43.250  38.560   6.263
 5157POPC   D2A65608  43.021  38.691   6.675
 5157POPC   C3A65609  43.160  38.501   7.066
 5157POPC   C4A65610  43.494  38.187   7.111
 5157POPC   C1B65611  43.067  38.070   6.312
 5157POPC   C2B65612  43.080  38.066   6.785
 5157POPC   C3B65613  42.778  38.175   7.087
 5157POPC   C4B65614  42.603  38.598   7.183
 5158POPC   NC365615  11.885   3.150   5.626
 5158POPC   PO465616  12.035   2.735   5.125
 5158POPC   GL165617  12.167   2.710   5.593
 5158POPC   GL265618  11.891   2.639   5.790
 5158POPC   C1A65619  12.257   2.855   6.059
 5158POPC   D2A65620  12.069   2.949   6.471
 5158POPC   C3A65621  12.147   2.776   6.889
 5158POPC   C4A65622  12.095   2.998   7.269
 5158POPC   C1B65623  11.700   2.712   6.164
 5158POPC   C2B65624  11.724   2.586   6.568
 5158POPC   C3B65625  11.632   2.814   6.918
 5158POPC   C4B65626  11.770   2.605   7.245
 5159POPC   NC365627  41.228   8.264   5.592
 5159POPC   PO465628  41.835   8.412   5.547
 5159POPC   GL165629  41.827   8.106   5.878
 5159POPC   GL265630  41.535   7.902   5.825
 5159POPC   C1A65631  41.692   8.162   6.315
 5159POPC   D2A65632  41.635   8.513   6.646
 5159POPC   C3A65633  41.770   8.375   7.057
 5159POPC   C4A65634  41.898   7.937   7.058
 5159POPC   C1B65635  41.249   7.924   6.197
 5159POPC   C2B65636  41.211   8.180   6.576
 5159POPC   C3B65637  41.344   8.113   7.010
 5159POPC   C4B65638  41.272   8.108   7.454
 5160POPC   NC365639  36.926  13.883   5.714
 5160POPC   PO465640  36.536  13.486   5.368
 5160POPC   GL165641  36.761  13.309   5.807
 5160POPC   GL265642  37.091  13.419   5.821
 5160POPC   C1A65643  36.687  13.337   6.271
 5160POPC   D2A65644  36.657  13.660   6.594
 5160POPC   C3A65645  36.769  13.595   7.028
 5160POPC   C4A65646  36.598  13.292   7.294
 5160POPC   C1B65647  37.149  13.575   6.255
 5160POPC   C2B65648  37.132  13.482   6.684
 5160POPC   C3B65649  37.285  13.439   7.089
 5160POPC   C4B65650  37.105  13.471   7.512
 5161POPC   NC365651  25.933   0.924   5.342
 5161POPC   PO465652  25.630   1.521   5.271
 5161POPC   GL165653  25.812   1.284   5.673
 5161POPC   GL265654  26.203   1.123   5.737
 5161POPC   C1A65655  25.966   1.326   6.131
 5161POPC   D2A65656  25.829   1.164   6.515
 5161POPC   C3A65657  26.094   1.255   6.841
 5161POPC   C4A65658  25.986   1.453   7.209
 5161POPC   C1B65659  26.312   0.938   6.179
 5161POPC   C2B65660  26.252   0.827   6.626
 5161POPC   C3B65661  26.325   0.872   7.082
 5161POPC   C4B65662  26.247   1.108   7.480
 5162POPC   NC365663  37.829  32.751   5.511
 5162POPC   PO465664  37.583  33.344   5.557
 5162POPC   GL165665  37.611  33.128   5.938
 5162POPC   GL265666  37.535  32.754   5.937
 5162POPC   C1A65667  37.542  33.307   6.354
 5162POPC   D2A65668  37.443  33.459   6.751
 5162POPC   C3A65669  37.769  33.220   6.864
 5162POPC   C4A65670  37.811  33.011   7.194
 5162POPC   C1B65671  37.580  32.771   6.402
 5162POPC   C2B65672  37.891  32.704   6.762
 5162POPC   C3B65673  37.948  32.543   7.174
 5162POPC   C4B65674  37.552  32.631   7.417
 5163POPC   NC365675   8.569   7.314   5.393
 5163POPC   PO465676   9.246   7.461   5.464
 5163POPC   GL165677   8.906   7.402   5.779
 5163POPC   GL265678   9.139   7.266   5.975
 5163POPC   C1A65679   8.681   7.346   6.187
 5163POPC   D2A65680   8.620   7.472   6.629
 5163POPC   C3A65681   8.805   7.332   7.010
 5163POPC   C4A65682   8.666   7.521   7.379
 5163POPC   C1B65683   9.155   7.359   6.390
 5163POPC   C2B65684   9.149   7.107   6.717
 5163POPC   C3B65685   9.315   7.256   7.042
 5163POPC   C4B65686   9.179   7.395   7.391
 5164POPC   NC365687   2.771  28.934   5.492
 5164POPC   PO465688   3.049  29.529   5.668
 5164POPC   GL165689   2.681  29.290   5.880
 5164POPC   GL265690   2.487  28.953   5.902
 5164POPC   C1A65691   2.740  29.100   6.314
 5164POPC   D2A65692   3.025  28.862   6.562
 5164POPC   C3A65693   3.020  28.978   6.986
 5164POPC   C4A65694   3.162  29.264   7.269
 5164POPC   C1B65695   2.394  28.710   6.272
 5164POPC   C2B65696   2.524  28.727   6.707
 5164POPC   C3B65697   2.508  28.983   7.095
 5164POPC   C4B65698   2.736  28.817   7.412
 5165POPC   NC365699  41.612  44.269   5.365
 5165POPC   PO465700  41.402  43.636   5.330
 5165POPC   GL165701  41.398  43.834   5.763
 5165POPC   GL265702  41.581  43.566   5.853
 5165POPC   C1A65703  41.636  43.921   6.199
 5165POPC   D2A65704  41.819  43.819   6.626
 5165POPC   C3A65705  41.822  44.108   7.002
 5165POPC   C4A65706  41.413  44.130   7.236
 5165POPC   C1B65707  41.304  43.529   6.232
 5165POPC   C2B65708  41.396  43.509   6.667
 5165POPC   C3B65709  41.533  43.680   7.052
 5165POPC   C4B65710  41.909  43.726   7.320
 5166POPC   NC365711  28.705  21.909   5.548
 5166POPC   PO465712  29.412  22.120   5.459
 5166POPC   GL165713  29.285  22.277   5.846
 5166POPC   GL265714  28.948  22.239   5.835
 5166POPC   C1A65715  29.204  22.080   6.268
 5166POPC   D2A65716  29.181  21.879   6.699
 5166POPC   C3A65717  29.458  22.017   7.044
 5166POPC   C4A65718  29.188  22.084   7.417
 5166POPC   C1B65719  28.690  22.197   6.197
 5166POPC   C2B65720  28.662  21.910   6.546
 5166POPC   C3B65721  28.750  22.009   6.978
 5166POPC   C4B65722  28.757  21.771   7.356
 5167POPC   NC365723  22.664  43.202   5.562
 5167POPC   PO465724  23.310  42.883   5.420
 5167POPC   GL165725  23.371  42.959   5.861
 5167POPC   GL265726  23.129  43.242   5.858
 5167POPC   C1A65727  23.341  43.108   6.303
 5167POPC   D2A65728  23.000  43.390   6.470
 5167POPC   C3A65729  22.836  43.272   6.878
 5167POPC   C4A65730  23.006  43.178   7.247
 5167POPC   C1B65731  22.841  43.012   6.155
 5167POPC   C2B65732  22.557  43.002   6.509
 5167POPC   C3B65733  22.594  42.781   6.902
 5167POPC   C4B65734  22.789  42.727   7.311
 5168POPC   NC365735  39.445  33.235   5.511
 5168POPC   PO465736  38.989  32.730   5.404
 5168POPC   GL165737  39.073  32.657   5.812
 5168POPC   GL265738  39.428  32.618   5.808
 5168POPC   C1A65739  39.022  32.830   6.223
 5168POPC   D2A65740  39.290  33.006   6.565
 5168POPC   C3A65741  39.093  33.069   6.969
 5168POPC   C4A65742  38.982  32.763   7.267
 5168POPC   C1B65743  39.565  32.770   6.197
 5168POPC   C2B65744  39.716  32.691   6.609
 5168POPC   C3B65745  39.579  32.887   6.998
 5168POPC   C4B65746  39.512  33.245   7.276
 5169POPC   NC365747  22.322  16.028   5.728
 5169POPC   PO465748  22.878  16.150   5.450
 5169POPC   GL165749  22.867  15.964   5.872
 5169POPC   GL265750  23.174  15.774   6.024
 5169POPC   C1A65751  22.935  16.129   6.283
 5169POPC   D2A65752  23.121  15.973   6.643
 5169POPC   C3A65753  23.047  16.191   7.032
 5169POPC   C4A65754  22.792  16.141   7.367
 5169POPC   C1B65755  22.802  15.642   6.293
 5169POPC   C2B65756  22.680  15.707   6.732
 5169POPC   C3B65757  23.005  15.699   7.068
 5169POPC   C4B65758  23.260  15.431   7.303
 5170POPC   NC365759  14.514  16.446   4.877
 5170POPC   PO465760  14.542  16.949   5.354
 5170POPC   GL165761  14.569  16.728   5.753
 5170POPC   GL265762  14.766  16.464   5.751
 5170POPC   C1A65763  14.418  16.533   6.161
 5170POPC   D2A65764  14.239  16.802   6.502
 5170POPC   C3A65765  14.313  16.648   6.928
 5170POPC   C4A65766  14.228  16.717   7.342
 5170POPC   C1B65767  14.903  16.627   6.149
 5170POPC   C2B65768  14.733  16.746   6.556
 5170POPC   C3B65769  14.816  16.555   6.938
 5170POPC   C4B65770  14.627  16.418   7.304
 5171POPC   NC365771  38.756  34.018   5.462
 5171POPC   PO465772  38.120  34.149   5.304
 5171POPC   GL165773  38.161  34.090   5.808
 5171POPC   GL265774  38.497  34.147   5.858
 5171POPC   C1A65775  38.340  33.848   6.221
 5171POPC   D2A65776  38.570  33.654   6.581
 5171POPC   C3A65777  38.437  33.817   6.959
 5171POPC   C4A65778  38.224  33.692   7.314
 5171POPC   C1B65779  38.739  34.212   6.219
 5171POPC   C2B65780  38.810  34.111   6.637
 5171POPC   C3B65781  38.898  34.031   7.083
 5171POPC   C4B65782  38.836  33.759   7.418
 5172POPC   NC365783  30.161   2.817   5.203
 5172POPC   PO465784  30.752   2.840   5.393
 5172POPC   GL165785  30.891   2.739   5.788
 5172POPC   GL265786  30.586   2.599   5.889
 5172POPC   C1A65787  30.908   2.850   6.233
 5172POPC   D2A65788  30.741   2.845   6.642
 5172POPC   C3A65789  30.926   2.929   7.030
 5172POPC   C4A65790  30.771   2.859   7.443
 5172POPC   C1B65791  30.391   2.703   6.271
 5172POPC   C2B65792  30.322   2.536   6.691
 5172POPC   C3B65793  30.495   2.621   7.084
 5172POPC   C4B65794  30.366   2.540   7.513
 5173POPC   NC365795  42.927   8.480   5.335
 5173POPC   PO465796  43.450   8.076   5.377
 5173POPC   GL165797  43.256   8.197   5.758
 5173POPC   GL265798  42.980   8.057   5.896
 5173POPC   C1A65799  43.351   8.125   6.209
 5173POPC   D2A65800  43.309   8.298   6.595
 5173POPC   C3A65801  43.458   8.229   6.991
 5173POPC   C4A65802  43.161   8.216   7.315
 5173POPC   C1B65803  42.841   8.146   6.333
 5173POPC   C2B65804  42.888   7.942   6.757
 5173POPC   C3B65805  42.826   7.849   7.202
 5173POPC   C4B65806  42.692   7.815   7.676
 5174POPC   NC365807  42.586  25.012   5.719
 5174POPC   PO465808  42.198  25.355   5.304
 5174POPC   GL165809  42.257  25.414   5.762
 5174POPC   GL265810  42.585  25.514   5.775
 5174POPC   C1A65811  42.202  25.198   6.196
 5174POPC   D2A65812  42.382  25.110   6.576
 5174POPC   C3A65813  42.157  25.066   6.961
 5174POPC   C4A65814  42.404  24.940   7.314
 5174POPC   C1B65815  42.698  25.412   6.200
 5174POPC   C2B65816  42.592  25.587   6.566
 5174POPC   C3B65817  42.322  25.552   6.914
 5174POPC   C4B65818  42.582  25.507   7.247
 5175POPC   NC365819  30.993  32.926   5.079
 5175POPC   PO465820  30.456  32.933   5.330
 5175POPC   GL165821  30.794  33.045   5.618
 5175POPC   GL265822  30.703  32.801   5.826
 5175POPC   C1A65823  30.830  33.196   6.099
 5175POPC   D2A65824  30.522  33.156   6.466
 5175POPC   C3A65825  30.628  33.057   6.892
 5175POPC   C4A65826  30.521  33.188   7.298
 5175POPC   C1B65827  30.960  32.702   6.125
 5175POPC   C2B65828  30.970  32.887   6.523
 5175POPC   C3B65829  30.971  32.669   6.909
 5175POPC   C4B65830  30.707  32.651   7.285
 5176POPC   NC365831  10.294  39.818   5.274
 5176POPC   PO465832  10.929  39.955   5.420
 5176POPC   GL165833  10.648  40.122   5.792
 5176POPC   GL265834  10.369  39.910   5.906
 5176POPC   C1A65835  10.552  40.233   6.255
 5176POPC   D2A65836  10.454  39.961   6.629
 5176POPC   C3A65837  10.466  40.178   7.032
 5176POPC   C4A65838  10.805  40.210   7.323
 5176POPC   C1B65839  10.687  39.703   6.223
 5176POPC   C2B65840  10.954  39.707   6.624
 5176POPC   C3B65841  10.760  39.766   7.032
 5176POPC   C4B65842  10.285  39.723   7.092
 5177POPC   NC365843  31.768  23.998   5.395
 5177POPC   PO465844  31.233  23.533   5.446
 5177POPC   GL165845  31.364  23.756   5.812
 5177POPC   GL265846  31.719  23.785   5.849
 5177POPC   C1A65847  31.436  23.553   6.210
 5177POPC   D2A65848  31.283  23.390   6.602
 5177POPC   C3A65849  31.529  23.602   6.919
 5177POPC   C4A65850  31.749  23.515   7.291
 5177POPC   C1B65851  31.867  23.870   6.252
 5177POPC   C2B65852  31.845  24.090   6.632
 5177POPC   C3B65853  31.913  23.955   7.046
 5177POPC   C4B65854  31.914  23.934   7.500
 5178POPC   NC365855   1.915  27.773   5.509
 5178POPC   PO465856   2.303  27.225   5.316
 5178POPC   GL165857   2.184  27.392   5.717
 5178POPC   GL265858   1.843  27.387   5.844
 5178POPC   C1A65859   2.234  27.419   6.189
 5178POPC   D2A65860   2.278  27.654   6.598
 5178POPC   C3A65861   2.055  27.553   6.949
 5178POPC   C4A65862   1.729  27.640   7.254
 5178POPC   C1B65863   1.744  27.177   6.238
 5178POPC   C2B65864   1.923  27.086   6.647
 5178POPC   C3B65865   1.759  27.169   7.075
 5178POPC   C4B65866   1.728  27.217   7.546
 5179POPC   NC365867  12.297   4.446   5.499
 5179POPC   PO465868  11.776   4.164   5.205
 5179POPC   GL165869  11.886   4.161   5.689
 5179POPC   GL265870  12.239   4.074   5.829
 5179POPC   C1A65871  11.897   4.425   6.111
 5179POPC   D2A65872  11.845   4.659   6.537
 5179POPC   C3A65873  11.812   4.433   6.942
 5179POPC   C4A65874  11.818   4.010   7.108
 5179POPC   C1B65875  12.341   3.877   6.226
 5179POPC   C2B65876  12.513   4.034   6.620
 5179POPC   C3B65877  12.329   4.217   7.002
 5179POPC   C4B65878  12.622   4.034   7.275
 5180POPC   NC365879  12.405  21.331   5.311
 5180POPC   PO465880  12.011  21.790   5.324
 5180POPC   GL165881  12.060  21.607   5.727
 5180POPC   GL265882  11.783  21.804   5.849
 5180POPC   C1A65883  12.125  21.447   6.168
 5180POPC   D2A65884  12.458  21.306   6.492
 5180POPC   C3A65885  12.323  21.216   6.919
 5180POPC   C4A65886  12.031  21.475   7.171
 5180POPC   C1B65887  11.882  21.913   6.257
 5180POPC   C2B65888  11.904  21.763   6.673
 5180POPC   C3B65889  11.765  21.901   7.071
 5180POPC   C4B65890  11.624  21.655   7.436
 5181POPC   NC365891   7.464  30.950   5.571
 5181POPC   PO465892   7.056  30.453   5.536
 5181POPC   GL165893   7.191  30.657   5.882
 5181POPC   GL265894   7.585  30.610   5.937
 5181POPC   C1A65895   7.269  30.842   6.269
 5181POPC   D2A65896   7.402  30.772   6.664
 5181POPC   C3A65897   7.126  30.480   6.842
 5181POPC   C4A65898   7.163  30.599   7.232
 5181POPC   C1B65899   7.800  30.629   6.360
 5181POPC   C2B65900   7.905  30.727   6.776
 5181POPC   C3B65901   7.702  30.781   7.102
 5181POPC   C4B65902   7.648  30.494   7.374
 5182POPC   NC365903  37.245   9.237   5.494
 5182POPC   PO465904  37.691   8.790   5.537
 5182POPC   GL165905  37.440   8.956   5.877
 5182POPC   GL265906  37.657   9.222   5.841
 5182POPC   C1A65907  37.497   8.802   6.304
 5182POPC   D2A65908  37.354   8.713   6.725
 5182POPC   C3A65909  37.679   8.800   7.055
 5182POPC   C4A65910  37.896   9.175   7.184
 5182POPC   C1B65911  37.773   9.256   6.256
 5182POPC   C2B65912  37.668   9.139   6.674
 5182POPC   C3B65913  37.416   9.233   7.044
 5182POPC   C4B65914  37.466   9.625   7.217
 5183POPC   NC365915  37.186  26.537   5.464
 5183POPC   PO465916  37.411  27.124   5.398
 5183POPC   GL165917  37.689  26.908   5.753
 5183POPC   GL265918  37.564  26.578   5.825
 5183POPC   C1A65919  37.957  26.954   6.169
 5183POPC   D2A65920  37.801  26.882   6.631
 5183POPC   C3A65921  38.023  26.983   7.043
 5183POPC   C4A65922  38.232  26.722   7.403
 5183POPC   C1B65923  37.463  26.821   6.232
 5183POPC   C2B65924  37.302  26.699   6.660
 5183POPC   C3B65925  37.431  26.568   7.075
 5183POPC   C4B65926  37.371  26.379   7.482
 5184POPC   NC365927  25.940   7.599   5.309
 5184POPC   PO465928  25.600   8.183   5.575
 5184POPC   GL165929  25.891   7.870   5.787
 5184POPC   GL265930  25.852   7.469   5.809
 5184POPC   C1A65931  25.862   7.745   6.241
 5184POPC   D2A65932  25.636   7.610   6.629
 5184POPC   C3A65933  25.844   7.845   6.963
 5184POPC   C4A65934  26.158   7.579   7.176
 5184POPC   C1B65935  25.916   7.218   6.250
 5184POPC   C2B65936  25.727   7.110   6.714
 5184POPC   C3B65937  25.750   6.887   7.134
 5184POPC   C4B65938  25.896   6.809   7.575
 5185POPC   NC365939   1.138  25.719   5.736
 5185POPC   PO465940   1.060  25.068   5.604
 5185POPC   GL165941   1.044  25.255   5.997
 5185POPC   GL265942   1.027  24.924   6.123
 5185POPC   C1A65943   1.308  25.444   6.352
 5185POPC   D2A65944   1.277  25.628   6.781
 5185POPC   C3A65945   1.017  25.366   7.026
 5185POPC   C4A65946   1.198  25.510   7.399
 5185POPC   C1B65947   1.405  24.955   6.361
 5185POPC   C2B65948   1.417  25.128   6.782
 5185POPC   C3B65949   1.384  25.068   7.225
 5185POPC   C4B65950   0.998  25.045   7.463
 5186POPC   NC365951   6.008  39.790   5.554
 5186POPC   PO465952   5.802  40.427   5.301
 5186POPC   GL165953   5.812  40.236   5.760
 5186POPC   GL265954   5.762  39.885   5.976
 5186POPC   C1A65955   5.862  40.309   6.214
 5186POPC   D2A65956   5.675  40.047   6.532
 5186POPC   C3A65957   5.867  40.067   6.933
 5186POPC   C4A65958   6.049  40.353   7.219
 5186POPC   C1B65959   5.447  39.673   6.255
 5186POPC   C2B65960   5.454  39.615   6.707
 5186POPC   C3B65961   5.456  39.773   7.121
 5186POPC   C4B65962   5.722  39.928   7.399
 5187POPC   NC365963   3.495  21.188   5.438
 5187POPC   PO465964   3.482  21.876   5.383
 5187POPC   GL165965   3.499  21.602   5.777
 5187POPC   GL265966   3.353  21.264   5.909
 5187POPC   C1A65967   3.743  21.539   6.161
 5187POPC   D2A65968   3.733  21.260   6.509
 5187POPC   C3A65969   3.738  21.423   6.933
 5187POPC   C4A65970   3.880  21.251   7.319
 5187POPC   C1B65971   3.215  21.553   6.220
 5187POPC   C2B65972   3.294  21.503   6.647
 5187POPC   C3B65973   3.192  21.450   7.086
 5187POPC   C4B65974   3.118  21.691   7.469
 5188POPC   NC365975  10.663  10.961   5.497
 5188POPC   PO465976  10.418  10.398   5.270
 5188POPC   GL165977  10.509  10.479   5.705
 5188POPC   GL265978  10.264  10.733   5.730
 5188POPC   C1A65979  10.682  10.507   6.145
 5188POPC   D2A65980  10.531  10.560   6.568
 5188POPC   C3A65981  10.709  10.622   6.989
 5188POPC   C4A65982  10.498  10.375   7.264
 5188POPC   C1B65983  10.284  10.836   6.144
 5188POPC   C2B65984  10.102  10.827   6.532
 5188POPC   C3B65985  10.216  10.760   6.927
 5188POPC   C4B65986  10.077  10.687   7.298
 5189POPC   NC365987  41.268  27.076   5.210
 5189POPC   PO465988  40.884  26.550   5.298
 5189POPC   GL165989  40.906  26.708   5.744
 5189POPC   GL265990  41.114  27.020   5.803
 5189POPC   C1A65991  40.810  26.789   6.191
 5189POPC   D2A65992  40.520  26.909   6.527
 5189POPC   C3A65993  40.702  26.690   6.855
 5189POPC   C4A65994  40.887  26.604   7.219
 5189POPC   C1B65995  41.193  27.207   6.249
 5189POPC   C2B65996  41.023  27.068   6.669
 5189POPC   C3B65997  41.057  27.083   7.138
 5189POPC   C4B65998  41.237  27.045   7.603
 5190POPC   NC365999  16.260  23.163   5.529
 5190POPC   PO466000  15.527  23.009   5.440
 5190POPC   GL166001  15.847  22.944   5.741
 5190POPC   GL266002  15.951  23.231   5.956
 5190POPC   C1A66003  15.880  22.749   6.145
 5190POPC   D2A66004  15.766  22.607   6.572
 5190POPC   C3A66005  15.918  22.881   6.900
 5190POPC   C4A66006  16.029  22.741   7.312
 5190POPC   C1B66007  16.008  23.191   6.428
 5190POPC   C2B66008  16.331  23.186   6.749
 5190POPC   C3B66009  16.265  23.223   7.175
 5190POPC   C4B66010  16.223  23.254   7.622
 5191POPC   NC366011  38.281  40.248   5.419
 5191POPC   PO466012  38.058  39.556   5.554
 5191POPC   GL166013  38.313  39.919   5.826
 5191POPC   GL266014  38.140  40.248   5.896
 5191POPC   C1A66015  38.597  39.864   6.191
 5191POPC   D2A66016  38.529  40.021   6.613
 5191POPC   C3A66017  38.634  39.877   7.036
 5191POPC   C4A66018  38.487  39.628   7.443
 5191POPC   C1B66019  37.980  40.475   6.224
 5191POPC   C2B66020  37.926  40.516   6.635
 5191POPC   C3B66021  37.854  40.407   7.058
 5191POPC   C4B66022  38.126  40.393   7.443
 5192POPC   NC366023  30.669   2.358   5.443
 5192POPC   PO466024  30.383   1.758   5.161
 5192POPC   GL166025  30.638   1.841   5.674
 5192POPC   GL266026  30.826   2.110   5.831
 5192POPC   C1A66027  30.556   1.904   6.186
 5192POPC   D2A66028  30.832   2.097   6.543
 5192POPC   C3A66029  30.850   1.955   6.990
 5192POPC   C4A66030  30.468   2.118   7.187
 5192POPC   C1B66031  31.044   2.358   6.132
 5192POPC   C2B66032  31.223   2.444   6.548
 5192POPC   C3B66033  30.983   2.444   6.929
 5192POPC   C4B66034  30.870   2.343   7.363
 5193POPC   NC366035   0.300  21.637   5.413
 5193POPC   PO466036   0.906  21.294   5.460
 5193POPC   GL166037   0.603  21.348   5.755
 5193POPC   GL266038   0.644  21.699   5.796
 5193POPC   C1A66039   0.514  21.333   6.212
 5193POPC   D2A66040   0.746  21.305   6.639
 5193POPC   C3A66041   0.556  21.318   7.098
 5193POPC   C4A66042   0.727  21.144   7.520
 5193POPC   C1B66043   0.487  21.860   6.176
 5193POPC   C2B66044   0.426  21.721   6.573
 5193POPC   C3B66045   0.510  21.807   6.979
 5193POPC   C4B66046   0.158  21.655   7.223
 5194POPC   NC366047  36.730  17.889   5.545
 5194POPC   PO466048  37.107  17.369   5.486
 5194POPC   GL166049  36.886  17.500   5.852
 5194POPC   GL266050  37.143  17.733   5.845
 5194POPC   C1A66051  36.938  17.470   6.305
 5194POPC   D2A66052  36.756  17.498   6.743
 5194POPC   C3A66053  36.860  17.364   7.195
 5194POPC   C4A66054  36.730  17.206   7.626
 5194POPC   C1B66055  37.273  17.861   6.213
 5194POPC   C2B66056  37.147  17.821   6.611
 5194POPC   C3B66057  37.276  17.627   6.967
 5194POPC   C4B66058  37.340  17.855   7.330
 5195POPC   NC366059  40.644   8.717   5.396
 5195POPC   PO466060  40.936   7.968   5.381
 5195POPC   GL166061  40.788   8.037   5.782
 5195POPC   GL266062  40.559   8.289   5.719
 5195POPC   C1A66063  40.784   8.155   6.205
 5195POPC   D2A66064  40.672   8.227   6.592
 5195POPC   C3A66065  40.899   8.364   6.942
 5195POPC   C4A66066  40.791   8.149   7.294
 5195POPC   C1B66067  40.477   8.543   6.112
 5195POPC   C2B66068  40.297   8.577   6.555
 5195POPC   C3B66069  40.389   8.378   6.982
 5195POPC   C4B66070  40.477   8.545   7.423
 5196POPC   NC366071  42.504  38.914   5.450
 5196POPC   PO466072  41.914  39.106   5.239
 5196POPC   GL166073  42.118  39.288   5.722
 5196POPC   GL266074  42.469  39.390   5.755
 5196POPC   C1A66075  42.040  39.200   6.218
 5196POPC   D2A66076  42.098  39.267   6.682
 5196POPC   C3A66077  42.231  39.046   7.051
 5196POPC   C4A66078  42.093  39.067   7.481
 5196POPC   C1B66079  42.548  39.281   6.193
 5196POPC   C2B66080  42.648  39.287   6.633
 5196POPC   C3B66081  42.466  39.502   6.978
 5196POPC   C4B66082  42.498  39.417   7.414
 5197POPC   NC366083  37.580  30.779   5.466
 5197POPC   PO466084  37.786  30.185   5.358
 5197POPC   GL166085  37.777  30.444   5.807
 5197POPC   GL266086  37.861  30.834   5.907
 5197POPC   C1A66087  37.739  30.496   6.268
 5197POPC   D2A66088  37.916  30.781   6.538
 5197POPC   C3A66089  37.652  30.729   6.869
 5197POPC   C4A66090  37.843  30.617   7.201
 5197POPC   C1B66091  37.758  31.156   6.227
 5197POPC   C2B66092  37.670  31.239   6.669
 5197POPC   C3B66093  37.725  31.161   7.144
 5197POPC   C4B66094  37.603  30.975   7.571
 5198POPC   NC366095   0.592  30.676   5.465
 5198POPC   PO466096   0.081  31.000   5.781
 5198POPC   GL166097   0.302  30.600   5.898
 5198POPC   GL266098   0.636  30.393   5.887
 5198POPC   C1A66099   0.515  30.727   6.262
 5198POPC   D2A66100   0.288  30.921   6.564
 5198POPC   C3A66101   0.297  30.658   6.878
 5198POPC   C4A66102   0.321  30.825   7.254
 5198POPC   C1B66103   0.933  30.446   6.227
 5198POPC   C2B66104   0.858  30.652   6.653
 5198POPC   C3B66105   0.747  30.548   7.104
 5198POPC   C4B66106   0.725  30.748   7.539
 5199POPC   NC366107  34.538  33.194   5.404
 5199POPC   PO466108  34.380  32.593   5.609
 5199POPC   GL166109  34.758  32.910   5.783
 5199POPC   GL266110  34.773  33.309   5.851
 5199POPC   C1A66111  34.927  32.982   6.221
 5199POPC   D2A66112  34.748  32.834   6.610
 5199POPC   C3A66113  34.892  32.982   7.011
 5199POPC   C4A66114  34.623  32.883   7.388
 5199POPC   C1B66115  34.443  33.112   6.131
 5199POPC   C2B66116  34.271  32.816   6.416
 5199POPC   C3B66117  34.244  32.924   6.831
 5199POPC   C4B66118  34.447  33.205   7.058
 5200POPC   NC366119  17.940  13.521   5.496
 5200POPC   PO466120  17.323  13.854   5.444
 5200POPC   GL166121  17.347  13.569   5.799
 5200POPC   GL266122  17.683  13.480   5.927
 5200POPC   C1A66123  17.314  13.578   6.265
 5200POPC   D2A66124  17.557  13.702   6.635
 5200POPC   C3A66125  17.357  13.770   7.005
 5200POPC   C4A66126  17.216  13.441   7.266
 5200POPC   C1B66127  17.882  13.289   6.278
 5200POPC   C2B66128  17.934  13.376   6.705
 5200POPC   C3B66129  17.700  13.377   7.064
 5200POPC   C4B66130  17.674  13.644   7.407
 5201POPC   NC366131  32.721   4.755   5.439
 5201POPC   PO466132  32.969   4.083   5.401
 5201POPC   GL166133  32.866   4.359   5.744
 5201POPC   GL266134  33.130   4.359   5.923
 5201POPC   C1A66135  32.670   4.490   6.147
 5201POPC   D2A66136  32.761   4.707   6.579
 5201POPC   C3A66137  33.019   4.514   6.891
 5201POPC   C4A66138  33.440   4.557   7.045
 5201POPC   C1B66139  33.018   4.123   6.291
 5201POPC   C2B66140  33.277   4.099   6.657
 5201POPC   C3B66141  33.223   4.081   7.074
 5201POPC   C4B66142  32.921   4.078   7.354
 5202POPC   NC366143  30.049   8.443   5.289
 5202POPC   PO466144  29.486   8.051   5.351
 5202POPC   GL166145  29.787   8.152   5.716
 5202POPC   GL266146  29.902   8.509   5.780
 5202POPC   C1A66147  29.787   8.097   6.187
 5202POPC   D2A66148  29.967   8.124   6.605
 5202POPC   C3A66149  29.689   8.211   6.947
 5202POPC   C4A66150  29.876   8.166   7.316
 5202POPC   C1B66151  30.134   8.480   6.174
 5202POPC   C2B66152  30.232   8.597   6.600
 5202POPC   C3B66153  30.093   8.526   6.996
 5202POPC   C4B66154  30.141   8.681   7.401
 5203POPC   NC366155   4.311  43.871   5.439
 5203POPC   PO466156   3.724  43.489   5.593
 5203POPC   GL166157   4.075  43.694   5.860
 5203POPC   GL266158   4.451  43.600   5.880
 5203POPC   C1A66159   4.322  44.000   6.169
 5203POPC   D2A66160   4.264  44.194   6.585
 5203POPC   C3A66161   4.440  44.014   6.972
 5203POPC   C4A66162   4.167  44.169   7.314
 5203POPC   C1B66163   4.258  43.498   6.291
 5203POPC   C2B66164   4.045  43.722   6.639
 5203POPC   C3B66165   4.096  43.663   7.092
 5203POPC   C4B66166   4.526  43.564   7.263
 5204POPC   NC366167  18.884  18.407   5.007
 5204POPC   PO466168  18.993  17.827   5.396
 5204POPC   GL166169  18.843  18.059   5.789
 5204POPC   GL266170  19.114  18.320   5.895
 5204POPC   C1A66171  18.860  17.896   6.224
 5204POPC   D2A66172  19.186  17.962   6.521
 5204POPC   C3A66173  19.041  18.151   6.888
 5204POPC   C4A66174  19.217  18.168   7.333
 5204POPC   C1B66175  18.909  18.398   6.300
 5204POPC   C2B66176  18.787  18.560   6.697
 5204POPC   C3B66177  18.964  18.577   7.138
 5204POPC   C4B66178  19.360  18.658   7.348
 5205POPC   NC366179  30.859  10.273   5.584
 5205POPC   PO466180  30.850  10.920   5.689
 5205POPC   GL166181  30.493  10.788   5.956
 5205POPC   GL266182  30.443  10.414   5.891
 5205POPC   C1A66183  30.426  10.627   6.390
 5205POPC   D2A66184  30.747  10.395   6.678
 5205POPC   C3A66185  30.905  10.573   7.084
 5205POPC   C4A66186  30.900  10.713   7.534
 5205POPC   C1B66187  30.235  10.149   6.222
 5205POPC   C2B66188  30.265  10.171   6.678
 5205POPC   C3B66189  30.477  10.209   7.079
 5205POPC   C4B66190  30.307  10.222   7.477
 5206POPC   NC366191  21.813  24.624   5.177
 5206POPC   PO466192  21.245  24.277   5.315
 5206POPC   GL166193  21.305  24.388   5.777
 5206POPC   GL266194  21.609  24.186   5.823
 5206POPC   C1A66195  21.299  24.625   6.234
 5206POPC   D2A66196  21.126  24.681   6.687
 5206POPC   C3A66197  21.372  24.526   7.060
 5206POPC   C4A66198  21.562  24.431   7.468
 5206POPC   C1B66199  21.359  24.120   6.201
 5206POPC   C2B66200  21.329  24.229   6.616
 5206POPC   C3B66201  21.160  24.021   6.970
 5206POPC   C4B66202  21.153  24.112   7.386
 5207POPC   NC366203   3.199  11.537   5.382
 5207POPC   PO466204   3.807  11.268   5.350
 5207POPC   GL166205   3.661  11.329   5.761
 5207POPC   GL266206   3.406  11.098   5.757
 5207POPC   C1A66207   3.709  11.160   6.202
 5207POPC   D2A66208   3.646  11.380   6.599
 5207POPC   C3A66209   3.757  11.231   6.988
 5207POPC   C4A66210   3.725  11.663   7.174
 5207POPC   C1B66211   3.238  11.357   6.077
 5207POPC   C2B66212   3.140  11.358   6.494
 5207POPC   C3B66213   3.114  11.265   6.922
 5207POPC   C4B66214   3.364  11.295   7.284
 5208POPC   NC366215  39.450  22.714   5.227
 5208POPC   PO466216  40.002  23.066   5.221
 5208POPC   GL166217  39.923  22.836   5.594
 5208POPC   GL266218  40.206  22.981   5.753
 5208POPC   C1A66219  39.870  22.793   6.084
 5208POPC   D2A66220  39.982  22.976   6.506
 5208POPC   C3A66221  39.733  22.960   6.901
 5208POPC   C4A66222  39.657  23.338   7.145
 5208POPC   C1B66223  40.417  22.888   6.167
 5208POPC   C2B66224  40.507  22.947   6.615
 5208POPC   C3B66225  40.250  22.991   6.996
 5208POPC   C4B66226  40.020  22.836   7.344
 5209POPC   NC366227  22.090  44.030   5.419
 5209POPC   PO466228  22.705  43.665   5.588
 5209POPC   GL166229  22.351  43.740   5.925
 5209POPC   GL266230  22.126  44.039   5.922
 5209POPC   C1A66231  22.312  43.935   6.377
 5209POPC   D2A66232  22.624  43.996   6.743
 5209POPC   C3A66233  22.403  43.894   7.130
 5209POPC   C4A66234  21.984  44.061   7.208
 5209POPC   C1B66235  21.834  43.792   6.159
 5209POPC   C2B66236  21.706  43.659   6.562
 5209POPC   C3B66237  22.023  43.650   6.863
 5209POPC   C4B66238  22.068  43.528   7.300
 5210POPC   NC366239  38.262  19.923   5.373
 5210POPC   PO466240  39.004  19.983   5.389
 5210POPC   GL166241  38.679  20.047   5.725
 5210POPC   GL266242  38.532  19.711   5.751
 5210POPC   C1A66243  38.659  19.992   6.196
 5210POPC   D2A66244  38.464  20.052   6.629
 5210POPC   C3A66245  38.694  20.053   7.041
 5210POPC   C4A66246  38.668  19.987   7.498
 5210POPC   C1B66247  38.352  19.571   6.133
 5210POPC   C2B66248  38.549  19.540   6.521
 5210POPC   C3B66249  38.445  19.609   6.937
 5210POPC   C4B66250  38.324  19.438   7.315
 5211POPC   NC366251  31.990  43.758   5.385
 5211POPC   PO466252  32.639  43.555   5.647
 5211POPC   GL166253  32.328  43.690   5.967
 5211POPC   GL266254  31.990  43.812   5.925
 5211POPC   C1A66255  32.196  43.659   6.389
 5211POPC   D2A66256  32.111  43.870   6.731
 5211POPC   C3A66257  32.486  43.808   6.920
 5211POPC   C4A66258  32.647  43.837   7.343
 5211POPC   C1B66259  32.131  44.144   6.265
 5211POPC   C2B66260  32.337  44.334   6.692
 5211POPC   C3B66261  32.336  44.224   7.148
 5211POPC   C4B66262  32.007  43.896   7.223
 5212POPC   NC366263   7.614  38.867   5.611
 5212POPC   PO466264   7.305  38.225   5.512
 5212POPC   GL166265   7.375  38.432   5.868
 5212POPC   GL266266   7.714  38.431   5.855
 5212POPC   C1A66267   7.251  38.345   6.293
 5212POPC   D2A66268   7.295  38.140   6.703
 5212POPC   C3A66269   7.379  38.439   7.060
 5212POPC   C4A66270   7.458  38.202   7.431
 5212POPC   C1B66271   7.698  38.612   6.268
 5212POPC   C2B66272   7.748  38.396   6.658
 5212POPC   C3B66273   7.824  38.208   7.055
 5212POPC   C4B66274   7.804  38.538   7.352
 5213POPC   NC366275  33.002   1.402   5.531
 5213POPC   PO466276  33.402   0.836   5.406
 5213POPC   GL166277  33.257   1.037   5.779
 5213POPC   GL266278  32.885   0.971   5.788
 5213POPC   C1A66279  33.225   1.275   6.171
 5213POPC   D2A66280  33.423   1.296   6.577
 5213POPC   C3A66281  33.259   1.068   6.897
 5213POPC   C4A66282  33.121   1.278   7.261
 5213POPC   C1B66283  32.708   1.101   6.202
 5213POPC   C2B66284  32.810   1.212   6.645
 5213POPC   C3B66285  32.757   0.998   7.042
 5213POPC   C4B66286  32.794   0.987   7.519
 5214POPC   NC366287  28.846  15.967   5.355
 5214POPC   PO466288  29.487  16.235   5.471
 5214POPC   GL166289  29.339  16.081   5.861
 5214POPC   GL266290  29.004  16.130   5.815
 5214POPC   C1A66291  29.200  15.831   6.225
 5214POPC   D2A66292  29.338  15.775   6.661
 5214POPC   C3A66293  29.140  15.786   7.110
 5214POPC   C4A66294  29.217  15.940   7.562
 5214POPC   C1B66295  29.060  16.391   6.148
 5214POPC   C2B66296  29.193  16.267   6.497
 5214POPC   C3B66297  29.191  16.257   6.901
 5214POPC   C4B66298  29.080  16.328   7.292
 5215POPC   NC366299  18.850  21.295   5.422
 5215POPC   PO466300  19.421  21.737   5.321
 5215POPC   GL166301  19.250  21.516   5.716
 5215POPC   GL266302  19.391  21.227   5.843
 5215POPC   C1A66303  19.133  21.510   6.182
 5215POPC   D2A66304  18.971  21.363   6.604
 5215POPC   C3A66305  18.895  21.485   6.985
 5215POPC   C4A66306  19.037  21.818   7.210
 5215POPC   C1B66307  19.614  21.157   6.186
 5215POPC   C2B66308  19.431  21.210   6.511
 5215POPC   C3B66309  19.303  21.055   6.855
 5215POPC   C4B66310  19.214  21.212   7.270
 5216POPC   NC366311  19.712  21.946   5.035
 5216POPC   PO466312  19.847  22.464   5.412
 5216POPC   GL166313  19.801  22.206   5.776
 5216POPC   GL266314  19.798  21.884   5.678
 5216POPC   C1A66315  19.727  22.245   6.164
 5216POPC   D2A66316  19.762  22.114   6.563
 5216POPC   C3A66317  20.048  22.280   6.851
 5216POPC   C4A66318  19.777  22.284   7.201
 5216POPC   C1B66319  20.078  21.888   6.095
 5216POPC   C2B66320  20.176  21.848   6.574
 5216POPC   C3B66321  19.905  21.794   6.956
 5216POPC   C4B66322  20.036  21.764   7.394
 5217POPC   NC366323  11.944  19.730   5.462
 5217POPC   PO466324  11.567  20.217   5.652
 5217POPC   GL166325  11.921  20.094   5.844
 5217POPC   GL266326  11.831  20.283   6.120
 5217POPC   C1A66327  12.215  19.874   6.137
 5217POPC   D2A66328  12.141  19.594   6.493
 5217POPC   C3A66329  12.135  19.600   6.947
 5217POPC   C4A66330  12.274  19.735   7.342
 5217POPC   C1B66331  11.748  19.911   6.372
 5217POPC   C2B66332  11.694  19.848   6.822
 5217POPC   C3B66333  11.745  19.798   7.283
 5217POPC   C4B66334  11.478  19.729   7.661
 5218POPC   NC366335  40.379  22.815   5.273
 5218POPC   PO466336  40.989  22.886   5.309
 5218POPC   GL166337  40.746  22.924   5.667
 5218POPC   GL266338  40.581  22.637   5.730
 5218POPC   C1A66339  40.930  22.958   6.085
 5218POPC   D2A66340  41.099  22.840   6.486
 5218POPC   C3A66341  41.006  23.184   6.764
 5218POPC   C4A66342  40.710  23.193   7.083
 5218POPC   C1B66343  40.776  22.483   6.086
 5218POPC   C2B66344  40.728  22.474   6.520
 5218POPC   C3B66345  40.846  22.701   6.902
 5218POPC   C4B66346  40.685  22.713   7.288
 5219POPC   NC366347  31.965  11.487   5.428
 5219POPC   PO466348  32.597  11.062   5.403
 5219POPC   GL166349  32.350  11.247   5.743
 5219POPC   GL266350  32.328  11.582   5.813
 5219POPC   C1A66351  32.059  11.255   6.103
 5219POPC   D2A66352  31.978  11.247   6.568
 5219POPC   C3A66353  32.197  11.325   6.960
 5219POPC   C4A66354  32.545  11.120   7.160
 5219POPC   C1B66355  32.378  11.630   6.241
 5219POPC   C2B66356  32.339  11.710   6.662
 5219POPC   C3B66357  32.585  11.699   7.022
 5219POPC   C4B66358  32.541  11.581   7.416
 5220POPC   NC366359  31.125  25.569   5.351
 5220POPC   PO466360  31.675  25.238   5.464
 5220POPC   GL166361  31.686  25.335   5.852
 5220POPC   GL266362  31.347  25.502   5.844
 5220POPC   C1A66363  31.652  25.206   6.288
 5220POPC   D2A66364  31.248  25.183   6.481
 5220POPC   C3A66365  31.263  25.256   6.921
 5220POPC   C4A66366  31.625  25.236   7.152
 5220POPC   C1B66367  31.227  25.733   6.228
 5220POPC   C2B66368  31.137  25.677   6.650
 5220POPC   C3B66369  31.295  25.769   7.058
 5220POPC   C4B66370  31.364  25.563   7.461
 5221POPC   NC366371  28.238   6.969   4.877
 5221POPC   PO466372  28.197   7.508   5.334
 5221POPC   GL166373  28.351   7.487   5.736
 5221POPC   GL266374  28.624   7.271   5.839
 5221POPC   C1A66375  28.193   7.540   6.138
 5221POPC   D2A66376  28.291   7.654   6.561
 5221POPC   C3A66377  28.098   7.523   6.957
 5221POPC   C4A66378  28.218   7.147   7.235
 5221POPC   C1B66379  28.734   7.607   6.142
 5221POPC   C2B66380  28.790   7.831   6.526
 5221POPC   C3B66381  28.622   7.819   6.921
 5221POPC   C4B66382  28.517   7.562   7.260
 5222POPC   NC366383  23.579  13.932   5.293
 5222POPC   PO466384  23.808  14.500   5.483
 5222POPC   GL166385  23.957  14.318   5.837
 5222POPC   GL266386  24.116  14.601   5.889
 5222POPC   C1A66387  24.022  14.094   6.200
 5222POPC   D2A66388  23.764  14.200   6.543
 5222POPC   C3A66389  23.886  14.377   6.933
 5222POPC   C4A66390  23.561  14.666   7.092
 5222POPC   C1B66391  23.944  14.626   6.287
 5222POPC   C2B66392  23.883  14.815   6.683
 5222POPC   C3B66393  24.023  14.853   7.105
 5222POPC   C4B66394  23.868  14.620   7.495
 5223POPC   NC366395   7.606  14.994   5.462
 5223POPC   PO466396   7.121  15.405   5.382
 5223POPC   GL166397   7.230  15.253   5.805
 5223POPC   GL266398   7.511  15.457   5.874
 5223POPC   C1A66399   6.978  15.156   6.214
 5223POPC   D2A66400   6.953  14.999   6.662
 5223POPC   C3A66401   7.059  15.260   7.055
 5223POPC   C4A66402   7.118  15.439   7.491
 5223POPC   C1B66403   7.642  15.453   6.296
 5223POPC   C2B66404   7.711  15.241   6.707
 5223POPC   C3B66405   7.586  15.194   7.150
 5223POPC   C4B66406   7.606  15.280   7.581
 5224POPC   NC366407  24.766   7.969   5.471
 5224POPC   PO466408  24.243   8.358   5.346
 5224POPC   GL166409  24.395   8.283   5.769
 5224POPC   GL266410  24.693   8.417   5.846
 5224POPC   C1A66411  24.367   8.118   6.211
 5224POPC   D2A66412  24.316   8.330   6.605
 5224POPC   C3A66413  24.409   8.063   6.962
 5224POPC   C4A66414  24.367   7.979   7.385
 5224POPC   C1B66415  24.528   8.600   6.200
 5224POPC   C2B66416  24.685   8.685   6.574
 5224POPC   C3B66417  24.716   8.496   6.940
 5224POPC   C4B66418  24.581   8.430   7.320
 5225POPC   NC366419  23.974  25.459   5.599
 5225POPC   PO466420  23.546  25.059   5.363
 5225POPC   GL166421  23.583  25.170   5.831
 5225POPC   GL266422  23.606  25.509   6.018
 5225POPC   C1A66423  23.478  25.060   6.274
 5225POPC   D2A66424  23.311  25.007   6.701
 5225POPC   C3A66425  23.496  25.143   7.066
 5225POPC   C4A66426  23.683  24.843   7.311
 5225POPC   C1B66427  23.918  25.413   6.295
 5225POPC   C2B66428  23.821  25.236   6.669
 5225POPC   C3B66429  24.037  25.109   7.020
 5225POPC   C4B66430  23.889  25.414   7.283
 5226POPC   NC366431  28.235   0.370   5.349
 5226POPC   PO466432  27.844   0.826   5.670
 5226POPC   GL166433  28.215   0.580   5.823
 5226POPC   GL266434  28.256   0.179   5.822
 5226POPC   C1A66435  28.507   0.736   6.133
 5226POPC   D2A66436  28.592   0.858   6.553
 5226POPC   C3A66437  28.508   0.642   6.958
 5226POPC   C4A66438  28.200   0.772   7.250
 5226POPC   C1B66439  28.336   0.264   6.237
 5226POPC   C2B66440  28.059   0.339   6.577
 5226POPC   C3B66441  28.056   0.196   6.968
 5226POPC   C4B66442  28.314   0.175   7.269
 5227POPC   NC366443  41.011  43.515   5.100
 5227POPC   PO466444  40.565  43.682   5.499
 5227POPC   GL166445  40.852  43.827   5.787
 5227POPC   GL266446  40.762  44.161   5.810
 5227POPC   C1A66447  40.900  43.840   6.219
 5227POPC   D2A66448  41.200  43.973   6.500
 5227POPC   C3A66449  41.083  43.865   6.900
 5227POPC   C4A66450  40.644  43.793   7.055
 5227POPC   C1B66451  40.552  44.207   6.221
 5227POPC   C2B66452  40.485  43.973   6.587
 5227POPC   C3B66453  40.222  44.084   6.917
 5227POPC   C4B66454  40.416  44.229   7.274
 5228POPC   NC366455   6.425  43.972   5.289
 5228POPC   PO466456   5.846  44.121   5.328
 5228POPC   GL166457   5.798  43.996   5.777
 5228POPC   GL266458   6.071  43.743   5.799
 5228POPC   C1A66459   5.615  44.021   6.226
 5228POPC   D2A66460   5.575  43.757   6.622
 5228POPC   C3A66461   5.657  43.900   7.048
 5228POPC   C4A66462   5.781  43.646   7.400
 5228POPC   C1B66463   6.109  43.886   6.238
 5228POPC   C2B66464   6.047  43.963   6.689
 5228POPC   C3B66465   6.188  43.818   7.103
 5228POPC   C4B66466   6.130  43.995   7.525
 5229POPC   NC366467  29.448  43.855   5.421
 5229POPC   PO466468  28.837  44.209   5.407
 5229POPC   GL166469  28.872  43.874   5.691
 5229POPC   GL266470  29.184  44.010   5.825
 5229POPC   C1A66471  28.872  43.749   6.125
 5229POPC   D2A66472  28.904  43.912   6.542
 5229POPC   C3A66473  28.706  43.762   6.913
 5229POPC   C4A66474  28.944  43.728   7.300
 5229POPC   C1B66475  29.133  44.244   6.201
 5229POPC   C2B66476  29.291  44.248   6.606
 5229POPC   C3B66477  29.194  44.040   6.962
 5229POPC   C4B66478  29.210  44.175   7.361
 5230POPC   NC366479  26.329   2.841   5.350
 5230POPC   PO466480  25.959   2.343   5.366
 5230POPC   GL166481  26.105   2.543   5.764
 5230POPC   GL266482  26.203   2.903   5.871
 5230POPC   C1A66483  26.087   2.525   6.220
 5230POPC   D2A66484  25.981   2.608   6.658
 5230POPC   C3A66485  26.203   2.465   7.034
 5230POPC   C4A66486  26.103   2.607   7.444
 5230POPC   C1B66487  26.293   2.967   6.362
 5230POPC   C2B66488  26.471   2.841   6.797
 5230POPC   C3B66489  26.530   2.852   7.280
 5230POPC   C4B66490  26.333   3.036   7.663
 5231POPC   NC366491   7.549  36.199   5.357
 5231POPC   PO466492   7.096  35.753   5.496
 5231POPC   GL166493   7.336  36.008   5.782
 5231POPC   GL266494   7.126  36.287   5.712
 5231POPC   C1A66495   7.426  36.228   6.188
 5231POPC   D2A66496   7.661  36.395   6.557
 5231POPC   C3A66497   7.542  36.258   6.980
 5231POPC   C4A66498   7.187  36.082   7.213
 5231POPC   C1B66499   7.036  36.562   6.044
 5231POPC   C2B66500   7.146  36.582   6.478
 5231POPC   C3B66501   7.100  36.539   6.912
 5231POPC   C4B66502   7.191  36.570   7.343
 5232POPC   NC366503  19.646  13.697   5.122
 5232POPC   PO466504  20.059  13.330   5.481
 5232POPC   GL166505  19.850  13.666   5.747
 5232POPC   GL266506  19.480  13.681   5.780
 5232POPC   C1A66507  19.932  13.851   6.158
 5232POPC   D2A66508  19.814  14.007   6.558
 5232POPC   C3A66509  19.809  13.745   6.946
 5232POPC   C4A66510  19.817  13.780   7.378
 5232POPC   C1B66511  19.626  13.440   6.174
 5232POPC   C2B66512  19.610  13.373   6.608
 5232POPC   C3B66513  19.414  13.357   6.995
 5232POPC   C4B66514  19.469  13.424   7.425
 5233POPC   NC366515  23.299  35.182   5.391
 5233POPC   PO466516  22.849  35.594   5.433
 5233POPC   GL166517  22.980  35.376   5.786
 5233POPC   GL266518  22.742  35.122   5.773
 5233POPC   C1A66519  22.835  35.513   6.208
 5233POPC   D2A66520  22.619  35.508   6.580
 5233POPC   C3A66521  22.779  35.635   6.967
 5233POPC   C4A66522  22.857  35.483   7.371
 5233POPC   C1B66523  22.898  35.014   6.168
 5233POPC   C2B66524  23.034  35.175   6.570
 5233POPC   C3B66525  22.925  35.128   7.016
 5233POPC   C4B66526  22.840  34.978   7.460
 5234POPC   NC366527   3.611  37.641   5.398
 5234POPC   PO466528   3.245  38.097   5.520
 5234POPC   GL166529   3.489  37.862   5.871
 5234POPC   GL266530   3.539  37.466   5.885
 5234POPC   C1A66531   3.540  37.741   6.337
 5234POPC   D2A66532   3.803  37.630   6.725
 5234POPC   C3A66533   3.525  37.792   7.067
 5234POPC   C4A66534   3.081  37.937   7.056
 5234POPC   C1B66535   3.437  37.236   6.300
 5234POPC   C2B66536   3.413  37.297   6.778
 5234POPC   C3B66537   3.621  37.307   7.201
 5234POPC   C4B66538   3.830  37.384   7.640
 5235POPC   NC366539   0.221   4.003   5.433
 5235POPC   PO466540   0.639   4.506   5.441
 5235POPC   GL166541   0.433   4.316   5.778
 5235POPC   GL266542   0.130   4.113   5.913
 5235POPC   C1A66543   0.460   4.430   6.173
 5235POPC   D2A66544   0.421   4.227   6.539
 5235POPC   C3A66545   0.367   4.545   6.833
 5235POPC   C4A66546   0.356   4.531   7.273
 5235POPC   C1B66547   0.032   3.865   6.277
 5235POPC   C2B66548   0.218   3.767   6.689
 5235POPC   C3B66549   0.336   4.047   7.037
 5235POPC   C4B66550   0.340   4.069   7.489
 5236POPC   NC366551  13.531  33.540   5.488
 5236POPC   PO466552  13.249  33.076   5.165
 5236POPC   GL166553  13.477  33.076   5.661
 5236POPC   GL266554  13.769  32.845   5.711
 5236POPC   C1A66555  13.615  33.305   6.115
 5236POPC   D2A66556  13.727  33.424   6.588
 5236POPC   C3A66557  13.497  33.196   6.943
 5236POPC   C4A66558  13.300  33.172   7.358
 5236POPC   C1B66559  13.902  32.861   6.139
 5236POPC   C2B66560  14.133  33.084   6.475
 5236POPC   C3B66561  13.987  33.028   6.914
 5236POPC   C4B66562  13.819  32.901   7.339
 5237POPC   NC366563  24.390  31.013   5.455
 5237POPC   PO466564  24.754  30.421   5.389
 5237POPC   GL166565  24.418  30.425   5.746
 5237POPC   GL266566  24.082  30.567   5.749
 5237POPC   C1A66567  24.246  30.281   6.174
 5237POPC   D2A66568  24.367  30.509   6.550
 5237POPC   C3A66569  24.583  30.459   6.943
 5237POPC   C4A66570  24.834  30.828   7.134
 5237POPC   C1B66571  24.267  30.803   6.099
 5237POPC   C2B66572  24.162  30.981   6.513
 5237POPC   C3B66573  24.372  30.927   6.905
 5237POPC   C4B66574  24.285  30.920   7.334
 5238POPC   NC366575  12.515   0.902   5.595
 5238POPC   PO466576  12.910   1.457   5.413
 5238POPC   GL166577  12.896   1.546   5.840
 5238POPC   GL266578  12.835   1.169   5.908
 5238POPC   C1A66579  13.008   1.485   6.275
 5238POPC   D2A66580  13.003   1.183   6.595
 5238POPC   C3A66581  12.669   1.220   6.875
 5238POPC   C4A66582  12.727   1.296   7.316
 5238POPC   C1B66583  12.649   0.937   6.301
 5238POPC   C2B66584  12.743   0.737   6.724
 5238POPC   C3B66585  12.968   0.885   7.106
 5238POPC   C4B66586  12.845   0.857   7.570
 5239POPC   NC366587  11.291  24.074   5.749
 5239POPC   PO466588  11.445  24.602   5.403
 5239POPC   GL166589  11.397  24.665   5.838
 5239POPC   GL266590  11.052  24.544   5.845
 5239POPC   C1A66591  11.293  24.703   6.287
 5239POPC   D2A66592  11.105  24.338   6.456
 5239POPC   C3A66593  11.017  24.368   6.866
 5239POPC   C4A66594  11.272  24.601   7.101
 5239POPC   C1B66595  10.800  24.737   6.158
 5239POPC   C2B66596  10.716  24.721   6.602
 5239POPC   C3B66597  10.829  24.833   7.035
 5239POPC   C4B66598  10.945  24.699   7.503
 5240POPC   NC366599  39.844  27.473   5.400
 5240POPC   PO466600  40.195  28.061   5.522
 5240POPC   GL166601  39.972  27.790   5.888
 5240POPC   GL266602  39.897  27.407   5.904
 5240POPC   C1A66603  40.022  27.644   6.346
 5240POPC   D2A66604  40.167  27.716   6.766
 5240POPC   C3A66605  39.821  27.836   6.956
 5240POPC   C4A66606  39.749  27.735   7.388
 5240POPC   C1B66607  40.166  27.176   6.228
 5240POPC   C2B66608  40.082  27.181   6.703
 5240POPC   C3B66609  40.023  27.363   7.147
 5240POPC   C4B66610  39.734  27.235   7.515
 5241POPC   NC366611  36.417   6.983   5.629
 5241POPC   PO466612  35.892   7.406   5.468
 5241POPC   GL166613  36.024   7.509   5.845
 5241POPC   GL266614  36.311   7.437   5.821
 5241POPC   C1A66615  35.905   7.392   6.221
 5241POPC   D2A66616  35.696   7.493   6.557
 5241POPC   C3A66617  36.023   7.668   6.778
 5241POPC   C4A66618  36.174   7.360   7.070
 5241POPC   C1B66619  36.400   7.300   6.217
 5241POPC   C2B66620  36.460   7.560   6.545
 5241POPC   C3B66621  36.585   7.612   6.945
 5241POPC   C4B66622  36.739   7.244   7.058
 5242POPC   NC366623  39.396  39.821   5.405
 5242POPC   PO466624  38.761  39.964   5.514
 5242POPC   GL166625  39.085  39.871   5.844
 5242POPC   GL266626  39.318  40.147   5.880
 5242POPC   C1A66627  39.345  39.784   6.256
 5242POPC   D2A66628  39.406  39.924   6.704
 5242POPC   C3A66629  39.491  39.784   7.135
 5242POPC   C4A66630  39.446  40.067   7.507
 5242POPC   C1B66631  39.008  40.205   6.249
 5242POPC   C2B66632  38.948  40.291   6.695
 5242POPC   C3B66633  39.098  40.123   7.068
 5242POPC   C4B66634  38.992  39.868   7.390
 5243POPC   NC366635  42.231   1.034   5.425
 5243POPC   PO466636  42.837   1.396   5.343
 5243POPC   GL166637  42.680   1.390   5.813
 5243POPC   GL266638  42.403   1.165   5.873
 5243POPC   C1A66639  42.653   1.258   6.294
 5243POPC   D2A66640  42.647   0.845   6.551
 5243POPC   C3A66641  42.568   0.959   6.995
 5243POPC   C4A66642  42.608   1.361   7.214
 5243POPC   C1B66643  42.126   1.278   6.218
 5243POPC   C2B66644  42.210   1.125   6.625
 5243POPC   C3B66645  42.171   1.368   6.997
 5243POPC   C4B66646  41.888   1.386   7.322
 5244POPC   NC366647  23.718   7.020   5.584
 5244POPC   PO466648  23.944   6.349   5.472
 5244POPC   GL166649  23.649   6.395   5.837
 5244POPC   GL266650  23.655   6.742   6.003
 5244POPC   C1A66651  23.486   6.356   6.264
 5244POPC   D2A66652  23.578   6.609   6.636
 5244POPC   C3A66653  23.494   6.431   7.035
 5244POPC   C4A66654  23.338   6.629   7.408
 5244POPC   C1B66655  23.712   7.039   6.355
 5244POPC   C2B66656  23.810   7.077   6.812
 5244POPC   C3B66657  23.793   6.848   7.207
 5244POPC   C4B66658  24.033   6.825   7.593
 5245POPC   NC366659  21.232  10.902   5.184
 5245POPC   PO466660  21.836  10.544   5.361
 5245POPC   GL166661  21.604  10.477   5.734
 5245POPC   GL266662  21.231  10.561   5.711
 5245POPC   C1A66663  21.552  10.511   6.195
 5245POPC   D2A66664  21.458  10.801   6.556
 5245POPC   C3A66665  21.460  10.580   6.925
 5245POPC   C4A66666  21.712  10.526   7.289
 5245POPC   C1B66667  21.055  10.618   6.162
 5245POPC   C2B66668  21.016  10.541   6.624
 5245POPC   C3B66669  20.991  10.827   6.997
 5245POPC   C4B66670  21.296  10.878   7.318
 5246POPC   NC366671  40.756  19.443   5.522
 5246POPC   PO466672  40.962  20.086   5.431
 5246POPC   GL166673  41.000  19.901   5.817
 5246POPC   GL266674  40.660  19.862   5.817
 5246POPC   C1A66675  40.876  20.023   6.238
 5246POPC   D2A66676  40.500  20.006   6.463
 5246POPC   C3A66677  40.654  20.045   6.869
 5246POPC   C4A66678  40.878  20.114   7.260
 5246POPC   C1B66679  40.794  19.536   6.154
 5246POPC   C2B66680  40.589  19.519   6.546
 5246POPC   C3B66681  40.611  19.562   6.982
 5246POPC   C4B66682  40.432  19.755   7.355
 5247POPC   NC366683   6.945   1.903   5.685
 5247POPC   PO466684   6.384   2.063   5.294
 5247POPC   GL166685   6.453   2.108   5.740
 5247POPC   GL266686   6.663   2.357   5.858
 5247POPC   C1A66687   6.511   1.979   6.183
 5247POPC   D2A66688   6.499   2.270   6.545
 5247POPC   C3A66689   6.392   2.060   6.928
 5247POPC   C4A66690   6.797   1.874   7.041
 5247POPC   C1B66691   6.970   2.339   6.238
 5247POPC   C2B66692   7.207   2.229   6.629
 5247POPC   C3B66693   7.131   2.299   7.069
 5247POPC   C4B66694   7.003   2.302   7.540
 5248POPC   NC366695  29.111  22.539   5.425
 5248POPC   PO466696  28.815  23.125   5.463
 5248POPC   GL166697  29.079  22.962   5.773
 5248POPC   GL266698  28.811  22.721   5.808
 5248POPC   C1A66699  29.342  23.000   6.153
 5248POPC   D2A66700  29.094  22.980   6.545
 5248POPC   C3A66701  29.273  22.882   6.905
 5248POPC   C4A66702  29.352  22.999   7.300
 5248POPC   C1B66703  29.032  22.594   6.191
 5248POPC   C2B66704  28.965  22.397   6.587
 5248POPC   C3B66705  29.109  22.371   6.971
 5248POPC   C4B66706  29.051  22.580   7.309
 5249POPC   NC366707   6.846  32.536   5.526
 5249POPC   PO466708   6.377  31.917   5.461
 5249POPC   GL166709   6.614  32.125   5.772
 5249POPC   GL266710   6.506  32.459   5.891
 5249POPC   C1A66711   6.748  32.087   6.184
 5249POPC   D2A66712   6.837  31.986   6.619
 5249POPC   C3A66713   6.722  32.314   6.874
 5249POPC   C4A66714   6.807  32.249   7.285
 5249POPC   C1B66715   6.252  32.611   6.209
 5249POPC   C2B66716   6.125  32.731   6.594
 5249POPC   C3B66717   6.258  32.571   6.962
 5249POPC   C4B66718   6.606  32.711   7.198
 5250POPC   NC366719  39.872  37.734   5.103
 5250POPC   PO466720  40.255  37.161   5.331
 5250POPC   GL166721  40.046  37.347   5.686
 5250POPC   GL266722  39.853  37.674   5.682
 5250POPC   C1A66723  40.124  37.468   6.131
 5250POPC   D2A66724  40.330  37.532   6.526
 5250POPC   C3A66725  40.122  37.550   6.900
 5250POPC   C4A66726  40.292  37.620   7.289
 5250POPC   C1B66727  39.943  37.943   6.067
 5250POPC   C2B66728  40.025  37.958   6.521
 5250POPC   C3B66729  39.895  38.008   6.956
 5250POPC   C4B66730  40.070  38.073   7.392
 5251POPC   NC366731   5.245  11.219   5.441
 5251POPC   PO466732   4.607  11.327   5.584
 5251POPC   GL166733   4.985  11.432   5.876
 5251POPC   GL266734   5.376  11.558   5.810
 5251POPC   C1A66735   5.232  11.206   6.186
 5251POPC   D2A66736   5.416  11.308   6.576
 5251POPC   C3A66737   5.211  11.164   6.952
 5251POPC   C4A66738   5.354  11.188   7.370
 5251POPC   C1B66739   5.270  11.736   6.224
 5251POPC   C2B66740   5.367  11.804   6.655
 5251POPC   C3B66741   5.409  11.616   7.040
 5251POPC   C4B66742   5.018  11.594   7.221
 5252POPC   NC366743  29.617  18.249   5.287
 5252POPC   PO466744  30.241  18.133   5.324
 5252POPC   GL166745  30.161  18.277   5.813
 5252POPC   GL266746  30.126  18.637   5.875
 5252POPC   C1A66747  30.024  18.165   6.282
 5252POPC   D2A66748  29.795  17.879   6.571
 5252POPC   C3A66749  29.665  18.139   6.921
 5252POPC   C4A66750  29.909  18.280   7.265
 5252POPC   C1B66751  29.848  18.650   6.213
 5252POPC   C2B66752  29.894  18.551   6.659
 5252POPC   C3B66753  29.864  18.788   7.052
 5252POPC   C4B66754  29.959  18.741   7.478
 5253POPC   NC366755   3.971  20.871   5.307
 5253POPC   PO466756   4.571  20.620   5.532
 5253POPC   GL166757   4.290  20.766   5.841
 5253POPC   GL266758   4.169  20.407   5.845
 5253POPC   C1A66759   4.065  20.680   6.247
 5253POPC   D2A66760   4.031  20.380   6.594
 5253POPC   C3A66761   4.010  20.591   6.999
 5253POPC   C4A66762   4.264  20.935   7.183
 5253POPC   C1B66763   4.514  20.437   6.187
 5253POPC   C2B66764   4.576  20.239   6.576
 5253POPC   C3B66765   4.655  20.400   6.993
 5253POPC   C4B66766   4.411  20.508   7.353
 5254POPC   NC366767  22.448  26.659   5.447
 5254POPC   PO466768  21.738  26.886   5.477
 5254POPC   GL166769  22.047  27.006   5.655
 5254POPC   GL266770  22.129  26.711   5.839
 5254POPC   C1A66771  22.053  27.137   6.087
 5254POPC   D2A66772  21.905  26.965   6.459
 5254POPC   C3A66773  22.052  27.032   6.878
 5254POPC   C4A66774  22.007  26.652   7.117
 5254POPC   C1B66775  22.398  26.776   6.217
 5254POPC   C2B66776  22.297  26.652   6.641
 5254POPC   C3B66777  22.512  26.635   7.028
 5254POPC   C4B66778  22.452  26.493   7.471
 5255POPC   NC366779   2.177  33.275   5.211
 5255POPC   PO466780   1.865  32.807   5.510
 5255POPC   GL166781   2.145  33.108   5.699
 5255POPC   GL266782   2.416  32.964   5.871
 5255POPC   C1A66783   2.017  33.210   6.099
 5255POPC   D2A66784   1.843  33.064   6.478
 5255POPC   C3A66785   2.028  33.214   6.846
 5255POPC   C4A66786   1.864  33.115   7.226
 5255POPC   C1B66787   2.296  32.853   6.305
 5255POPC   C2B66788   2.163  32.734   6.739
 5255POPC   C3B66789   2.347  32.887   7.106
 5255POPC   C4B66790   2.217  32.908   7.541
 5256POPC   NC366791  16.373   3.597   5.397
 5256POPC   PO466792  15.868   3.247   5.050
 5256POPC   GL166793  15.918   3.390   5.538
 5256POPC   GL266794  15.690   3.472   5.824
 5256POPC   C1A66795  16.172   3.278   5.965
 5256POPC   D2A66796  16.203   3.120   6.439
 5256POPC   C3A66797  16.303   3.400   6.804
 5256POPC   C4A66798  16.184   3.713   7.130
 5256POPC   C1B66799  15.728   3.217   6.224
 5256POPC   C2B66800  15.769   3.346   6.659
 5256POPC   C3B66801  15.682   3.511   7.055
 5256POPC   C4B66802  15.594   3.327   7.439
 5257POPC   NC366803  17.183  13.607   5.091
 5257POPC   PO466804  16.563  13.500   5.340
 5257POPC   GL166805  16.608  13.579   5.755
 5257POPC   GL266806  16.877  13.809   5.704
 5257POPC   C1A66807  16.550  13.387   6.159
 5257POPC   D2A66808  16.325  13.453   6.548
 5257POPC   C3A66809  16.527  13.301   6.901
 5257POPC   C4A66810  16.727  13.288   7.289
 5257POPC   C1B66811  16.857  13.801   6.161
 5257POPC   C2B66812  16.862  13.576   6.558
 5257POPC   C3B66813  16.857  13.677   6.986
 5257POPC   C4B66814  16.516  13.729   7.264
 5258POPC   NC366815   3.077  13.138   5.374
 5258POPC   PO466816   3.673  12.808   5.397
 5258POPC   GL166817   3.594  12.833   5.831
 5258POPC   GL266818   3.374  12.561   5.906
 5258POPC   C1A66819   3.785  13.054   6.182
 5258POPC   D2A66820   3.998  12.956   6.570
 5258POPC   C3A66821   3.762  13.101   6.914
 5258POPC   C4A66822   3.555  13.014   7.296
 5258POPC   C1B66823   3.505  12.637   6.346
 5258POPC   C2B66824   3.331  12.607   6.774
 5258POPC   C3B66825   3.255  12.541   7.227
 5258POPC   C4B66826   3.466  12.626   7.641
 5259POPC   NC366827  32.104  25.365   5.381
 5259POPC   PO466828  32.632  25.008   5.285
 5259POPC   GL166829  32.369  25.070   5.725
 5259POPC   GL266830  32.017  24.932   5.688
 5259POPC   C1A66831  32.155  25.378   6.077
 5259POPC   D2A66832  32.115  25.615   6.503
 5259POPC   C3A66833  32.054  25.354   6.881
 5259POPC   C4A66834  32.245  25.373   7.286
 5259POPC   C1B66835  32.013  24.883   6.116
 5259POPC   C2B66836  32.201  25.047   6.497
 5259POPC   C3B66837  32.207  24.883   6.931
 5259POPC   C4B66838  31.966  24.873   7.305
 5260POPC   NC366839  12.140  16.130   5.521
 5260POPC   PO466840  11.835  16.683   5.596
 5260POPC   GL166841  11.880  16.240   5.940
 5260POPC   GL266842  12.222  15.988   5.989
 5260POPC   C1A66843  11.872  15.943   6.361
 5260POPC   D2A66844  11.813  15.970   6.855
 5260POPC   C3A66845  12.032  16.290   7.102
 5260POPC   C4A66846  12.402  16.341   7.384
 5260POPC   C1B66847  12.517  15.771   6.270
 5260POPC   C2B66848  12.461  15.620   6.694
 5260POPC   C3B66849  12.156  15.590   6.990
 5260POPC   C4B66850  11.805  15.523   7.213
 5261POPC   NC366851   4.232  23.464   5.482
 5261POPC   PO466852   4.662  23.946   5.265
 5261POPC   GL166853   4.441  23.875   5.734
 5261POPC   GL266854   4.056  23.798   5.804
 5261POPC   C1A66855   4.400  23.721   6.195
 5261POPC   D2A66856   4.554  23.616   6.640
 5261POPC   C3A66857   4.343  23.840   6.997
 5261POPC   C4A66858   4.096  24.130   7.252
 5261POPC   C1B66859   3.891  23.638   6.187
 5261POPC   C2B66860   4.018  23.679   6.625
 5261POPC   C3B66861   4.137  23.382   6.976
 5261POPC   C4B66862   3.928  23.421   7.373
 5262POPC   NC366863  25.153  41.171   5.381
 5262POPC   PO466864  24.858  40.545   5.533
 5262POPC   GL166865  25.174  40.520   5.828
 5262POPC   GL266866  25.005  40.253   5.921
 5262POPC   C1A66867  25.306  40.739   6.182
 5262POPC   D2A66868  25.186  41.060   6.441
 5262POPC   C3A66869  25.206  40.947   6.879
 5262POPC   C4A66870  25.375  40.847   7.318
 5262POPC   C1B66871  25.132  40.278   6.319
 5262POPC   C2B66872  25.343  40.466   6.635
 5262POPC   C3B66873  25.168  40.471   7.027
 5262POPC   C4B66874  24.965  40.478   7.396
 5263POPC   NC366875  23.873  30.223   5.431
 5263POPC   PO466876  23.914  30.963   5.406
 5263POPC   GL166877  23.680  30.921   5.776
 5263POPC   GL266878  23.561  30.576   5.773
 5263POPC   C1A66879  23.776  30.838   6.198
 5263POPC   D2A66880  23.628  30.893   6.608
 5263POPC   C3A66881  23.874  30.853   6.947
 5263POPC   C4A66882  23.744  30.757   7.346
 5263POPC   C1B66883  23.729  30.344   6.120
 5263POPC   C2B66884  23.855  30.448   6.540
 5263POPC   C3B66885  23.792  30.347   6.981
 5263POPC   C4B66886  24.166  30.237   7.231
 5264POPC   NC366887   3.754  13.906   5.364
 5264POPC   PO466888   3.167  13.608   5.298
 5264POPC   GL166889   3.267  13.517   5.718
 5264POPC   GL266890   3.087  13.784   5.872
 5264POPC   C1A66891   3.581  13.565   6.098
 5264POPC   D2A66892   3.610  13.785   6.524
 5264POPC   C3A66893   3.751  13.694   6.975
 5264POPC   C4A66894   3.405  13.877   7.207
 5264POPC   C1B66895   3.091  13.440   6.191
 5264POPC   C2B66896   3.376  13.289   6.531
 5264POPC   C3B66897   3.342  13.406   6.966
 5264POPC   C4B66898   3.128  13.419   7.358
 5265POPC   NC366899  38.938  27.875   5.534
 5265POPC   PO466900  39.390  27.470   5.464
 5265POPC   GL166901  39.411  27.737   5.834
 5265POPC   GL266902  39.135  27.967   5.990
 5265POPC   C1A66903  39.509  27.689   6.275
 5265POPC   D2A66904  39.381  27.416   6.629
 5265POPC   C3A66905  39.369  27.607   7.031
 5265POPC   C4A66906  39.076  27.886   7.243
 5265POPC   C1B66907  38.999  27.599   6.172
 5265POPC   C2B66908  38.866  27.415   6.549
 5265POPC   C3B66909  38.867  27.512   6.958
 5265POPC   C4B66910  38.814  27.399   7.363
 5266POPC   NC366911   1.615  23.049   5.398
 5266POPC   PO466912   1.016  23.233   5.608
 5266POPC   GL166913   1.301  23.009   5.861
 5266POPC   GL266914   1.261  22.672   5.764
 5266POPC   C1A66915   1.250  23.113   6.297
 5266POPC   D2A66916   1.487  23.183   6.679
 5266POPC   C3A66917   1.268  23.050   7.071
 5266POPC   C4A66918   0.881  22.793   7.155
 5266POPC   C1B66919   1.159  22.595   6.185
 5266POPC   C2B66920   1.399  22.675   6.551
 5266POPC   C3B66921   1.397  22.564   6.962
 5266POPC   C4B66922   1.616  22.751   7.336
 5267POPC   NC366923  30.087  32.047   5.472
 5267POPC   PO466924  29.664  31.660   5.783
 5267POPC   GL166925  29.960  31.991   5.949
 5267POPC   GL266926  29.848  32.313   5.900
 5267POPC   C1A66927  30.223  32.147   6.289
 5267POPC   D2A66928  30.100  32.301   6.695
 5267POPC   C3A66929  29.906  32.127   7.068
 5267POPC   C4A66930  30.051  32.038   7.492
 5267POPC   C1B66931  29.704  32.202   6.353
 5267POPC   C2B66932  29.613  32.434   6.749
 5267POPC   C3B66933  29.721  32.594   7.162
 5267POPC   C4B66934  29.647  32.358   7.560
 5268POPC   NC366935   0.666  37.690   5.554
 5268POPC   PO466936  44.993  37.732   5.493
 5268POPC   GL166937   0.157  37.713   5.892
 5268POPC   GL266938   0.372  38.004   5.859
 5268POPC   C1A66939   0.341  37.630   6.322
 5268POPC   D2A66940   0.318  37.881   6.726
 5268POPC   C3A66941   0.326  37.729   7.158
 5268POPC   C4A66942   0.377  37.895   7.562
 5268POPC   C1B66943   0.701  37.971   6.149
 5268POPC   C2B66944   0.778  37.809   6.515
 5268POPC   C3B66945   0.787  37.823   6.951
 5268POPC   C4B66946   0.794  37.612   7.329
 5269POPC   NC366947  30.078  20.852   5.488
 5269POPC   PO466948  29.662  20.238   5.404
 5269POPC   GL166949  29.823  20.482   5.767
 5269POPC   GL266950  29.663  20.812   5.770
 5269POPC   C1A66951  30.153  20.516   6.120
 5269POPC   D2A66952  30.345  20.612   6.516
 5269POPC   C3A66953  30.214  20.414   6.927
 5269POPC   C4A66954  30.152  20.637   7.346
 5269POPC   C1B66955  29.739  20.792   6.200
 5269POPC   C2B66956  29.852  20.555   6.572
 5269POPC   C3B66957  29.869  20.786   6.949
 5269POPC   C4B66958  29.654  20.774   7.342
 5270POPC   NC366959   6.365  41.391   5.526
 5270POPC   PO466960   6.956  41.528   5.699
 5270POPC   GL166961   6.680  41.397   5.927
 5270POPC   GL266962   6.504  41.694   5.910
 5270POPC   C1A66963   6.735  41.221   6.286
 5270POPC   D2A66964   6.836  41.394   6.626
 5270POPC   C3A66965   6.669  41.144   6.931
 5270POPC   C4A66966   6.450  41.180   7.306
 5270POPC   C1B66967   6.581  41.738   6.318
 5270POPC   C2B66968   6.493  41.906   6.681
 5270POPC   C3B66969   6.781  41.780   6.962
 5270POPC   C4B66970   6.914  41.803   7.338
 5271POPC   NC366971  11.174  30.009   5.200
 5271POPC   PO466972  11.717  29.652   5.474
 5271POPC   GL166973  11.502  29.958   5.681
 5271POPC   GL266974  11.854  30.074   5.809
 5271POPC   C1A66975  11.146  29.885   5.980
 5271POPC   D2A66976  11.000  30.025   6.415
 5271POPC   C3A66977  11.215  29.845   6.777
 5271POPC   C4A66978  11.320  29.881   7.224
 5271POPC   C1B66979  11.660  29.855   6.151
 5271POPC   C2B66980  11.707  30.060   6.507
 5271POPC   C3B66981  11.631  30.152   6.904
 5271POPC   C4B66982  11.793  30.149   7.275
 5272POPC   NC366983  27.671  23.310   5.406
 5272POPC   PO466984  27.906  22.652   5.524
 5272POPC   GL166985  27.773  22.764   5.919
 5272POPC   GL266986  27.568  23.045   5.864
 5272POPC   C1A66987  27.467  22.661   6.231
 5272POPC   D2A66988  27.345  22.778   6.665
 5272POPC   C3A66989  27.612  22.767   7.053
 5272POPC   C4A66990  28.012  22.776   7.286
 5272POPC   C1B66991  27.685  23.129   6.310
 5272POPC   C2B66992  27.554  23.283   6.721
 5272POPC   C3B66993  27.637  23.283   7.173
 5272POPC   C4B66994  27.452  23.466   7.605
 5273POPC   NC366995  20.068  11.901   5.640
 5273POPC   PO466996  20.605  11.964   5.194
 5273POPC   GL166997  20.711  12.240   5.622
 5273POPC   GL266998  20.395  12.323   5.807
 5273POPC   C1A66999  20.899  12.170   6.073
 5273POPC   D2A67000  20.854  11.985   6.526
 5273POPC   C3A67001  20.693  12.272   6.883
 5273POPC   C4A67002  20.780  12.564   7.246
 5273POPC   C1B67003  20.415  12.112   6.239
 5273POPC   C2B67004  20.362  11.918   6.642
 5273POPC   C3B67005  20.615  11.779   6.993
 5273POPC   C4B67006  20.583  12.043   7.358
 5274POPC   NC367007   6.842   5.123   5.331
 5274POPC   PO467008   6.327   5.464   5.471
 5274POPC   GL167009   6.658   5.383   5.766
 5274POPC   GL267010   6.755   5.037   5.834
 5274POPC   C1A67011   6.786   5.450   6.203
 5274POPC   D2A67012   6.895   5.415   6.651
 5274POPC   C3A67013   6.689   5.143   6.961
 5274POPC   C4A67014   6.557   5.235   7.397
 5274POPC   C1B67015   6.772   4.765   6.210
 5274POPC   C2B67016   6.510   4.600   6.517
 5274POPC   C3B67017   6.385   4.587   6.941
 5274POPC   C4B67018   6.262   4.855   7.248
 5275POPC   NC367019  20.357  31.629   5.036
 5275POPC   PO467020  19.789  31.524   5.513
 5275POPC   GL167021  19.834  31.695   5.885
 5275POPC   GL267022  19.845  31.374   6.086
 5275POPC   C1A67023  19.664  31.773   6.304
 5275POPC   D2A67024  19.918  31.577   6.604
 5275POPC   C3A67025  19.805  31.654   6.996
 5275POPC   C4A67026  19.687  31.330   7.268
 5275POPC   C1B67027  20.189  31.200   6.316
 5275POPC   C2B67028  20.321  31.261   6.691
 5275POPC   C3B67029  20.157  31.240   7.077
 5275POPC   C4B67030  20.134  30.895   7.346
 5276POPC   NC367031  13.256  23.516   5.471
 5276POPC   PO467032  13.882  23.885   5.431
 5276POPC   GL167033  13.670  23.682   5.783
 5276POPC   GL267034  13.380  23.825   5.873
 5276POPC   C1A67035  13.797  23.747   6.230
 5276POPC   D2A67036  14.068  23.788   6.572
 5276POPC   C3A67037  13.851  23.653   6.909
 5276POPC   C4A67038  13.741  23.727   7.300
 5276POPC   C1B67039  13.412  23.431   6.170
 5276POPC   C2B67040  13.435  23.526   6.632
 5276POPC   C3B67041  13.337  23.786   7.024
 5276POPC   C4B67042  13.326  23.943   7.483
 5277POPC   NC367043  35.536  43.276   5.462
 5277POPC   PO467044  34.945  42.869   5.415
 5277POPC   GL167045  35.101  42.980   5.837
 5277POPC   GL267046  35.482  43.022   5.885
 5277POPC   C1A67047  35.232  42.823   6.261
 5277POPC   D2A67048  35.409  43.012   6.639
 5277POPC   C3A67049  35.114  42.887   6.973
 5277POPC   C4A67050  34.952  42.866   7.412
 5277POPC   C1B67051  35.379  43.352   6.224
 5277POPC   C2B67052  35.433  43.559   6.607
 5277POPC   C3B67053  35.378  43.376   7.014
 5277POPC   C4B67054  35.652  43.471   7.306
 5278POPC   NC367055  14.030   2.164   5.407
 5278POPC   PO467056  13.367   2.126   5.472
 5278POPC   GL167057  13.536   1.898   5.814
 5278POPC   GL267058  13.826   1.652   5.800
 5278POPC   C1A67059  13.402   1.809   6.224
 5278POPC   D2A67060  13.371   1.617   6.627
 5278POPC   C3A67061  13.451   1.895   6.962
 5278POPC   C4A67062  13.569   1.980   7.397
 5278POPC   C1B67063  13.930   1.754   6.248
 5278POPC   C2B67064  13.894   1.642   6.702
 5278POPC   C3B67065  13.966   1.871   7.097
 5278POPC   C4B67066  13.998   1.756   7.552
 5279POPC   NC367067  32.708  11.552   5.465
 5279POPC   PO467068  33.068  12.166   5.385
 5279POPC   GL167069  32.994  12.047   5.807
 5279POPC   GL267070  32.832  11.729   5.923
 5279POPC   C1A67071  33.085  12.085   6.235
 5279POPC   D2A67072  33.319  11.850   6.525
 5279POPC   C3A67073  33.302  11.950   6.968
 5279POPC   C4A67074  33.290  12.302   7.244
 5279POPC   C1B67075  32.867  11.645   6.365
 5279POPC   C2B67076  32.796  11.992   6.658
 5279POPC   C3B67077  32.833  12.176   7.048
 5279POPC   C4B67078  32.972  11.899   7.380
 5280POPC   NC367079   5.440  28.325   5.371
 5280POPC   PO467080   4.804  28.612   5.576
 5280POPC   GL167081   5.079  28.376   5.824
 5280POPC   GL267082   5.367  28.568   5.828
 5280POPC   C1A67083   5.006  28.390   6.270
 5280POPC   D2A67084   5.138  28.311   6.678
 5280POPC   C3A67085   4.943  28.521   7.012
 5280POPC   C4A67086   5.054  28.280   7.357
 5280POPC   C1B67087   5.391  28.747   6.237
 5280POPC   C2B67088   5.539  28.628   6.667
 5280POPC   C3B67089   5.456  28.529   7.119
 5280POPC   C4B67090   5.407  28.543   7.600
 5281POPC   NC367091   7.820  37.444   5.561
 5281POPC   PO467092   8.263  37.993   5.484
 5281POPC   GL167093   8.157  37.765   5.816
 5281POPC   GL267094   8.470  37.572   5.818
 5281POPC   C1A67095   8.059  37.690   6.249
 5281POPC   D2A67096   8.229  37.628   6.674
 5281POPC   C3A67097   8.104  37.788   7.064
 5281POPC   C4A67098   8.376  37.859   7.432
 5281POPC   C1B67099   8.528  37.449   6.285
 5281POPC   C2B67100   8.664  37.382   6.739
 5281POPC   C3B67101   8.573  37.488   7.141
 5281POPC   C4B67102   8.827  37.622   7.478
 5282POPC   NC367103  32.656  43.030   5.548
 5282POPC   PO467104  32.225  43.385   5.239
 5282POPC   GL167105  32.213  43.284   5.671
 5282POPC   GL267106  32.190  42.950   5.795
 5282POPC   C1A67107  32.034  43.304   6.085
 5282POPC   D2A67108  32.233  43.135   6.453
 5282POPC   C3A67109  32.142  43.365   6.812
 5282POPC   C4A67110  32.285  43.456   7.206
 5282POPC   C1B67111  31.954  42.813   6.141
 5282POPC   C2B67112  31.951  42.721   6.587
 5282POPC   C3B67113  32.108  42.889   6.986
 5282POPC   C4B67114  31.799  42.779   7.302
 5283POPC   NC367115   8.536   6.419   5.396
 5283POPC   PO467116   8.167   7.053   5.322
 5283POPC   GL167117   8.411   6.883   5.692
 5283POPC   GL267118   8.415   6.532   5.862
 5283POPC   C1A67119   8.384   6.932   6.151
 5283POPC   D2A67120   8.152   6.895   6.526
 5283POPC   C3A67121   8.431   7.024   6.811
 5283POPC   C4A67122   8.444   7.063   7.225
 5283POPC   C1B67123   8.150   6.466   6.234
 5283POPC   C2B67124   8.126   6.376   6.674
 5283POPC   C3B67125   8.333   6.549   7.017
 5283POPC   C4B67126   8.596   6.248   7.182
 5284POPC   NC367127  26.325   1.843   5.297
 5284POPC   PO467128  26.970   1.688   5.333
 5284POPC   GL167129  26.772   1.710   5.782
 5284POPC   GL267130  27.032   1.921   5.937
 5284POPC   C1A67131  26.622   1.905   6.228
 5284POPC   D2A67132  26.652   2.233   6.583
 5284POPC   C3A67133  26.587   2.096   7.008
 5284POPC   C4A67134  26.876   1.812   7.176
 5284POPC   C1B67135  27.136   2.001   6.394
 5284POPC   C2B67136  27.114   2.129   6.833
 5284POPC   C3B67137  27.160   2.224   7.278
 5284POPC   C4B67138  27.034   2.451   7.655
 5285POPC   NC367139  10.773  44.663   5.235
 5285POPC   PO467140  10.101  44.655   5.354
 5285POPC   GL167141  10.359  44.653   5.753
 5285POPC   GL267142  10.729  44.740   5.753
 5285POPC   C1A67143  10.447  44.663   6.225
 5285POPC   D2A67144  10.407  44.540   6.685
 5285POPC   C3A67145  10.458  44.763   7.087
 5285POPC   C4A67146  10.318  44.471   7.382
 5285POPC   C1B67147  10.942  44.555   6.123
 5285POPC   C2B67148  10.888  44.647   6.549
 5285POPC   C3B67149  10.924  44.573   6.982
 5285POPC   C4B67150  10.809  44.521   7.404
 5286POPC   NC367151  22.270  37.505   4.917
 5286POPC   PO467152  21.905  37.751   5.483
 5286POPC   GL167153  22.005  37.671   5.892
 5286POPC   GL267154  22.270  37.468   5.861
 5286POPC   C1A67155  22.057  37.889   6.300
 5286POPC   D2A67156  22.117  38.063   6.713
 5286POPC   C3A67157  22.094  37.758   7.039
 5286POPC   C4A67158  21.854  37.667   7.428
 5286POPC   C1B67159  22.508  37.747   6.151
 5286POPC   C2B67160  22.456  37.690   6.588
 5286POPC   C3B67161  22.599  37.871   6.957
 5286POPC   C4B67162  22.444  37.918   7.370
 5287POPC   NC367163  10.587  37.859   5.328
 5287POPC   PO467164  10.363  37.281   5.516
 5287POPC   GL167165  10.536  37.585   5.789
 5287POPC   GL267166  10.489  37.962   5.798
 5287POPC   C1A67167  10.474  37.495   6.217
 5287POPC   D2A67168  10.497  37.740   6.600
 5287POPC   C3A67169  10.672  37.528   6.924
 5287POPC   C4A67170  10.531  37.359   7.320
 5287POPC   C1B67171  10.317  37.972   6.178
 5287POPC   C2B67172  10.052  38.046   6.496
 5287POPC   C3B67173  10.192  38.055   6.897
 5287POPC   C4B67174  10.404  37.865   7.202
 5288POPC   NC367175   3.164   9.931   5.423
 5288POPC   PO467176   3.773   9.632   5.357
 5288POPC   GL167177   3.576   9.501   5.767
 5288POPC   GL267178   3.205   9.562   5.800
 5288POPC   C1A67179   3.498   9.477   6.221
 5288POPC   D2A67180   3.292   9.350   6.562
 5288POPC   C3A67181   3.404   9.529   6.919
 5288POPC   C4A67182   3.759   9.505   7.192
 5288POPC   C1B67183   3.411   9.939   6.044
 5288POPC   C2B67184   3.500   9.928   6.503
 5288POPC   C3B67185   3.649   9.975   6.930
 5288POPC   C4B67186   3.418   9.849   7.318
 5289POPC   NC367187  31.592  20.862   5.404
 5289POPC   PO467188  31.311  20.224   5.604
 5289POPC   GL167189  31.484  20.580   5.826
 5289POPC   GL267190  31.811  20.420   5.822
 5289POPC   C1A67191  31.357  20.793   6.218
 5289POPC   D2A67192  31.583  20.696   6.619
 5289POPC   C3A67193  31.515  20.942   6.939
 5289POPC   C4A67194  31.388  20.762   7.278
 5289POPC   C1B67195  31.667  20.351   6.249
 5289POPC   C2B67196  31.236  20.338   6.461
 5289POPC   C3B67197  31.239  20.396   6.922
 5289POPC   C4B67198  31.592  20.283   7.187
 5290POPC   NC367199  17.272  34.646   5.286
 5290POPC   PO467200  17.855  34.236   5.361
 5290POPC   GL167201  17.569  34.434   5.662
 5290POPC   GL267202  17.210  34.498   5.770
 5290POPC   C1A67203  17.652  34.597   6.059
 5290POPC   D2A67204  17.695  34.428   6.453
 5290POPC   C3A67205  17.700  34.644   6.869
 5290POPC   C4A67206  17.690  34.425   7.273
 5290POPC   C1B67207  17.145  34.442   6.205
 5290POPC   C2B67208  17.217  34.581   6.621
 5290POPC   C3B67209  17.220  34.858   6.972
 5290POPC   C4B67210  17.339  34.799   7.406
 5291POPC   NC367211  26.596  18.138   5.416
 5291POPC   PO467212  27.156  18.548   5.625
 5291POPC   GL167213  26.738  18.528   5.747
 5291POPC   GL267214  26.810  18.198   5.863
 5291POPC   C1A67215  26.695  18.579   6.198
 5291POPC   D2A67216  26.946  18.371   6.513
 5291POPC   C3A67217  26.798  18.386   6.914
 5291POPC   C4A67218  26.906  18.247   7.307
 5291POPC   C1B67219  26.500  18.049   6.130
 5291POPC   C2B67220  26.605  17.867   6.511
 5291POPC   C3B67221  26.464  17.976   6.911
 5291POPC   C4B67222  26.572  17.855   7.275
 5292POPC   NC367223  13.626  11.764   5.498
 5292POPC   PO467224  13.591  12.393   5.407
 5292POPC   GL167225  13.729  12.195   5.801
 5292POPC   GL267226  13.438  11.986   5.940
 5292POPC   C1A67227  13.820  12.113   6.256
 5292POPC   D2A67228  13.953  11.992   6.646
 5292POPC   C3A67229  13.820  12.088   7.038
 5292POPC   C4A67230  13.780  11.823   7.421
 5292POPC   C1B67231  13.410  12.410   6.157
 5292POPC   C2B67232  13.551  12.549   6.579
 5292POPC   C3B67233  13.375  12.320   6.937
 5292POPC   C4B67234  13.353  12.039   7.268
 5293POPC   NC367235  37.281  21.132   5.484
 5293POPC   PO467236  37.989  21.400   5.512
 5293POPC   GL167237  37.609  21.483   5.755
 5293POPC   GL267238  37.555  21.158   5.894
 5293POPC   C1A67239  37.470  21.561   6.199
 5293POPC   D2A67240  37.633  21.590   6.645
 5293POPC   C3A67241  37.371  21.406   6.965
 5293POPC   C4A67242  37.228  21.672   7.292
 5293POPC   C1B67243  37.901  21.200   6.162
 5293POPC   C2B67244  37.941  21.149   6.593
 5293POPC   C3B67245  37.852  21.228   7.024
 5293POPC   C4B67246  37.749  21.604   7.240
 5294POPC   NC367247  25.206  30.451   5.320
 5294POPC   PO467248  25.708  30.669   5.558
 5294POPC   GL167249  25.486  30.562   5.942
 5294POPC   GL267250  25.136  30.579   5.831
 5294POPC   C1A67251  25.508  30.483   6.424
 5294POPC   D2A67252  25.525  30.410   6.877
 5294POPC   C3A67253  25.358  30.753   7.060
 5294POPC   C4A67254  25.276  30.947   7.432
 5294POPC   C1B67255  25.013  30.593   6.278
 5294POPC   C2B67256  25.039  30.420   6.701
 5294POPC   C3B67257  25.050  30.373   7.153
 5294POPC   C4B67258  25.037  30.516   7.578
 5295POPC   NC367259  21.555   7.764   5.520
 5295POPC   PO467260  21.161   7.198   5.393
 5295POPC   GL167261  21.237   7.450   5.794
 5295POPC   GL267262  21.575   7.327   5.854
 5295POPC   C1A67263  21.408   7.646   6.205
 5295POPC   D2A67264  21.403   7.519   6.656
 5295POPC   C3A67265  21.588   7.617   7.083
 5295POPC   C4A67266  21.184   7.733   7.141
 5295POPC   C1B67267  21.318   7.156   6.237
 5295POPC   C2B67268  21.427   7.009   6.630
 5295POPC   C3B67269  21.341   7.155   7.050
 5295POPC   C4B67270  21.424   7.064   7.474
 5296POPC   NC367271  33.229  37.138   5.450
 5296POPC   PO467272  32.953  36.484   5.385
 5296POPC   GL167273  33.168  36.711   5.736
 5296POPC   GL267274  32.828  36.793   5.777
 5296POPC   C1A67275  33.353  36.903   6.119
 5296POPC   D2A67276  33.335  37.078   6.539
 5296POPC   C3A67277  33.130  36.836   6.887
 5296POPC   C4A67278  32.863  36.872   7.269
 5296POPC   C1B67279  32.890  37.089   6.074
 5296POPC   C2B67280  32.829  37.045   6.511
 5296POPC   C3B67281  32.660  37.140   6.913
 5296POPC   C4B67282  32.463  37.303   7.288
 5297POPC   NC367283  40.054  19.543   5.182
 5297POPC   PO467284  40.006  20.174   5.377
 5297POPC   GL167285  40.163  20.033   5.765
 5297POPC   GL267286  40.206  19.654   5.684
 5297POPC   C1A67287  40.043  20.123   6.217
 5297POPC   D2A67288  39.743  20.063   6.583
 5297POPC   C3A67289  39.863  20.196   7.015
 5297POPC   C4A67290  40.292  20.215   7.172
 5297POPC   C1B67291  40.300  19.665   6.115
 5297POPC   C2B67292  40.089  19.666   6.481
 5297POPC   C3B67293  40.178  19.814   6.861
 5297POPC   C4B67294  39.914  19.710   7.189
 5298POPC   NC367295  20.884  29.965   5.467
 5298POPC   PO467296  20.318  30.335   5.529
 5298POPC   GL167297  20.370  29.988   5.851
 5298POPC   GL267298  20.410  29.622   5.784
 5298POPC   C1A67299  20.552  29.861   6.274
 5298POPC   D2A67300  20.749  29.950   6.687
 5298POPC   C3A67301  20.529  30.157   7.044
 5298POPC   C4A67302  20.638  30.113   7.468
 5298POPC   C1B67303  20.251  29.451   6.174
 5298POPC   C2B67304  20.143  29.622   6.609
 5298POPC   C3B67305  20.376  29.663   6.980
 5298POPC   C4B67306  20.428  29.648   7.426
 5299POPC   NC367307  28.195  29.337   5.374
 5299POPC   PO467308  28.069  28.670   5.500
 5299POPC   GL167309  28.222  28.979   5.756
 5299POPC   GL267310  27.968  28.901   5.972
 5299POPC   C1A67311  28.396  29.273   6.046
 5299POPC   D2A67312  28.535  29.303   6.455
 5299POPC   C3A67313  28.267  29.265   6.792
 5299POPC   C4A67314  28.434  29.198   7.166
 5299POPC   C1B67315  28.070  29.003   6.380
 5299POPC   C2B67316  28.037  28.799   6.763
 5299POPC   C3B67317  27.954  28.999   7.157
 5299POPC   C4B67318  27.947  29.438   7.276
 5300POPC   NC367319  42.453  14.033   5.469
 5300POPC   PO467320  42.300  14.617   5.416
 5300POPC   GL167321  42.215  14.424   5.807
 5300POPC   GL267322  42.116  14.100   5.867
 5300POPC   C1A67323  42.171  14.528   6.224
 5300POPC   D2A67324  42.126  14.734   6.614
 5300POPC   C3A67325  42.457  14.656   6.857
 5300POPC   C4A67326  42.451  14.559   7.260
 5300POPC   C1B67327  42.409  14.021   6.186
 5300POPC   C2B67328  42.415  13.895   6.618
 5300POPC   C3B67329  42.267  14.167   6.945
 5300POPC   C4B67330  42.092  14.172   7.367
 5301POPC   NC367331  18.336  14.371   5.458
 5301POPC   PO467332  18.476  15.031   5.486
 5301POPC   GL167333  18.226  14.849   5.784
 5301POPC   GL267334  18.456  14.617   5.882
 5301POPC   C1A67335  18.088  14.790   6.224
 5301POPC   D2A67336  18.237  14.805   6.668
 5301POPC   C3A67337  18.042  14.499   6.950
 5301POPC   C4A67338  18.212  14.196   7.216
 5301POPC   C1B67339  18.508  14.454   6.296
 5301POPC   C2B67340  18.613  14.405   6.724
 5301POPC   C3B67341  18.639  14.503   7.150
 5301POPC   C4B67342  18.324  14.814   7.237
 5302POPC   NC367343  14.561  13.088   5.625
 5302POPC   PO467344  14.307  12.569   5.209
 5302POPC   GL167345  14.302  12.624   5.690
 5302POPC   GL267346  14.112  12.942   5.797
 5302POPC   C1A67347  14.422  12.726   6.159
 5302POPC   D2A67348  14.404  12.926   6.580
 5302POPC   C3A67349  14.533  12.645   6.913
 5302POPC   C4A67350  14.360  12.451   7.294
 5302POPC   C1B67351  14.210  13.242   6.169
 5302POPC   C2B67352  14.137  13.430   6.573
 5302POPC   C3B67353  14.117  13.223   6.941
 5302POPC   C4B67354  14.320  12.982   7.220
 5303POPC   NC367355  23.171   9.754   5.559
 5303POPC   PO467356  22.496   9.798   5.444
 5303POPC   GL167357  22.732   9.784   5.811
 5303POPC   GL267358  22.678   9.417   5.795
 5303POPC   C1A67359  22.978   9.975   6.165
 5303POPC   D2A67360  22.926  10.235   6.540
 5303POPC   C3A67361  22.996   9.999   6.924
 5303POPC   C4A67362  23.126   9.820   7.330
 5303POPC   C1B67363  22.890   9.448   6.184
 5303POPC   C2B67364  22.938   9.318   6.596
 5303POPC   C3B67365  23.093   9.487   6.934
 5303POPC   C4B67366  22.950   9.349   7.281
 5304POPC   NC367367  44.955  22.550   5.580
 5304POPC   PO467368  44.899  21.896   5.337
 5304POPC   GL167369  44.698  22.132   5.759
 5304POPC   GL267370  44.336  22.267   5.869
 5304POPC   C1A67371  44.706  22.281   6.227
 5304POPC   D2A67372  44.754  22.394   6.686
 5304POPC   C3A67373  44.575  22.062   6.994
 5304POPC   C4A67374  44.482  22.026   7.459
 5304POPC   C1B67375  44.254  22.484   6.311
 5304POPC   C2B67376  44.235  22.414   6.782
 5304POPC   C3B67377  44.364  22.484   7.231
 5304POPC   C4B67378  44.224  22.454   7.684
 5305POPC   NC367379  42.689  35.823   5.620
 5305POPC   PO467380  42.370  35.277   5.348
 5305POPC   GL167381  42.279  35.377   5.758
 5305POPC   GL267382  42.128  35.694   5.742
 5305POPC   C1A67383  42.443  35.300   6.163
 5305POPC   D2A67384  42.681  35.259   6.551
 5305POPC   C3A67385  42.403  35.205   6.885
 5305POPC   C4A67386  42.243  34.930   7.192
 5305POPC   C1B67387  41.985  35.596   6.165
 5305POPC   C2B67388  42.194  35.538   6.556
 5305POPC   C3B67389  42.111  35.640   6.985
 5305POPC   C4B67390  42.360  35.525   7.310
 5306POPC   NC367391   4.509  33.073   5.139
 5306POPC   PO467392   4.058  33.095   5.678
 5306POPC   GL167393   4.341  32.828   5.852
 5306POPC   GL267394   4.659  32.624   5.777
 5306POPC   C1A67395   4.376  32.920   6.261
 5306POPC   D2A67396   4.115  32.886   6.593
 5306POPC   C3A67397   4.353  33.044   6.892
 5306POPC   C4A67398   4.463  33.163   7.262
 5306POPC   C1B67399   4.803  32.649   6.228
 5306POPC   C2B67400   4.627  32.702   6.649
 5306POPC   C3B67401   4.738  32.778   7.110
 5306POPC   C4B67402   4.653  32.807   7.588
 5307POPC   NC367403  18.486  27.543   5.340
 5307POPC   PO467404  18.608  28.149   5.423
 5307POPC   GL167405  18.335  27.898   5.738
 5307POPC   GL267406  18.170  27.568   5.745
 5307POPC   C1A67407  18.352  27.707   6.193
 5307POPC   D2A67408  18.141  27.802   6.591
 5307POPC   C3A67409  18.450  27.780   6.954
 5307POPC   C4A67410  18.409  27.779   7.383
 5307POPC   C1B67411  17.948  27.371   6.112
 5307POPC   C2B67412  18.105  27.266   6.535
 5307POPC   C3B67413  18.075  27.444   6.942
 5307POPC   C4B67414  18.190  27.319   7.341
 5308POPC   NC367415  28.922  17.425   5.286
 5308POPC   PO467416  29.469  17.767   5.362
 5308POPC   GL167417  29.349  17.517   5.755
 5308POPC   GL267418  29.003  17.421   5.789
 5308POPC   C1A67419  29.309  17.493   6.225
 5308POPC   D2A67420  29.246  17.789   6.597
 5308POPC   C3A67421  29.177  17.565   6.979
 5308POPC   C4A67422  29.147  17.158   7.188
 5308POPC   C1B67423  28.869  17.219   6.163
 5308POPC   C2B67424  28.943  17.174   6.609
 5308POPC   C3B67425  28.704  17.350   6.932
 5308POPC   C4B67426  28.778  17.500   7.343
 5309POPC   NC367427   6.566  13.357   5.432
 5309POPC   PO467428   6.868  13.914   5.192
 5309POPC   GL167429   6.642  13.811   5.656
 5309POPC   GL267430   6.797  13.504   5.858
 5309POPC   C1A67431   6.625  13.876   6.150
 5309POPC   D2A67432   6.859  13.714   6.545
 5309POPC   C3A67433   6.741  13.785   7.005
 5309POPC   C4A67434   6.685  13.744   7.467
 5309POPC   C1B67435   6.580  13.356   6.254
 5309POPC   C2B67436   6.509  13.390   6.729
 5309POPC   C3B67437   6.381  13.441   7.176
 5309POPC   C4B67438   6.578  13.279   7.600
 5310POPC   NC367439  21.486  37.437   5.370
 5310POPC   PO467440  21.234  38.017   5.626
 5310POPC   GL167441  21.494  37.731   5.830
 5310POPC   GL267442  21.370  37.393   5.887
 5310POPC   C1A67443  21.610  37.654   6.255
 5310POPC   D2A67444  21.796  37.622   6.648
 5310POPC   C3A67445  21.560  37.725   7.006
 5310POPC   C4A67446  21.395  37.978   7.346
 5310POPC   C1B67447  21.138  37.458   6.288
 5310POPC   C2B67448  21.200  37.410   6.753
 5310POPC   C3B67449  21.138  37.473   7.204
 5310POPC   C4B67450  21.173  37.125   7.531
 5311POPC   NC367451  27.239   0.437   5.392
 5311POPC   PO467452  27.819   0.315   5.161
 5311POPC   GL167453  27.795   0.285   5.623
 5311POPC   GL267454  27.485   0.239   5.787
 5311POPC   C1A67455  27.841   0.342   6.102
 5311POPC   D2A67456  27.594   0.537   6.426
 5311POPC   C3A67457  27.575   0.369   6.835
 5311POPC   C4A67458  27.742   0.523   7.227
 5311POPC   C1B67459  27.205   0.427   6.095
 5311POPC   C2B67460  27.085   0.248   6.490
 5311POPC   C3B67461  27.042   0.353   6.900
 5311POPC   C4B67462  27.283   0.287   7.259
 5312POPC   NC367463  22.762   2.917   5.340
 5312POPC   PO467464  22.215   2.530   5.404
 5312POPC   GL167465  22.149   2.766   5.792
 5312POPC   GL267466  22.319   3.097   5.709
 5312POPC   C1A67467  21.988   2.763   6.227
 5312POPC   D2A67468  22.033   2.976   6.619
 5312POPC   C3A67469  22.026   2.697   6.963
 5312POPC   C4A67470  21.996   2.482   7.348
 5312POPC   C1B67471  22.279   3.215   6.170
 5312POPC   C2B67472  22.503   3.196   6.596
 5312POPC   C3B67473  22.369   3.062   7.026
 5312POPC   C4B67474  22.438   3.021   7.504
 5313POPC   NC367475   7.416   4.560   5.489
 5313POPC   PO467476   7.072   4.021   5.596
 5313POPC   GL167477   7.412   4.191   5.888
 5313POPC   GL267478   7.578   4.550   5.959
 5313POPC   C1A67479   7.437   4.054   6.315
 5313POPC   D2A67480   7.643   3.945   6.679
 5313POPC   C3A67481   7.327   4.077   6.934
 5313POPC   C4A67482   7.121   3.865   7.243
 5313POPC   C1B67483   7.285   4.555   6.246
 5313POPC   C2B67484   7.484   4.494   6.638
 5313POPC   C3B67485   7.351   4.587   7.054
 5313POPC   C4B67486   7.411   4.298   7.386
 5314POPC   NC367487   7.489  15.695   5.412
 5314POPC   PO467488   7.124  16.247   5.660
 5314POPC   GL167489   7.318  15.941   5.856
 5314POPC   GL267490   7.026  15.727   5.799
 5314POPC   C1A67491   7.553  15.963   6.238
 5314POPC   D2A67492   7.693  15.849   6.647
 5314POPC   C3A67493   7.469  16.120   6.972
 5314POPC   C4A67494   7.098  16.295   7.162
 5314POPC   C1B67495   7.149  15.633   6.232
 5314POPC   C2B67496   7.252  15.427   6.611
 5314POPC   C3B67497   7.405  15.616   6.982
 5314POPC   C4B67498   7.491  15.775   7.364
 5315POPC   NC367499  31.815  26.924   5.678
 5315POPC   PO467500  31.160  26.733   5.514
 5315POPC   GL167501  31.424  26.618   5.844
 5315POPC   GL267502  31.777  26.454   5.874
 5315POPC   C1A67503  31.400  26.768   6.250
 5315POPC   D2A67504  31.410  26.508   6.572
 5315POPC   C3A67505  31.328  26.667   6.968
 5315POPC   C4A67506  31.297  26.992   7.278
 5315POPC   C1B67507  31.886  26.595   6.307
 5315POPC   C2B67508  31.786  26.835   6.674
 5315POPC   C3B67509  31.760  27.020   7.068
 5315POPC   C4B67510  31.694  26.646   7.329
 5316POPC   NC367511  13.413  19.282   5.505
 5316POPC   PO467512  13.817  18.936   5.156
 5316POPC   GL167513  13.817  18.978   5.656
 5316POPC   GL267514  13.574  18.773   5.812
 5316POPC   C1A67515  13.736  19.235   6.103
 5316POPC   D2A67516  13.671  19.030   6.558
 5316POPC   C3A67517  13.764  19.182   6.996
 5316POPC   C4A67518  13.503  19.275   7.346
 5316POPC   C1B67519  13.914  18.774   6.162
 5316POPC   C2B67520  14.053  18.686   6.615
 5316POPC   C3B67521  13.810  18.675   6.997
 5316POPC   C4B67522  13.456  18.778   7.238
 5317POPC   NC367523  44.527   3.379   5.073
 5317POPC   PO467524  44.869   3.709   5.510
 5317POPC   GL167525  44.703   3.521   5.864
 5317POPC   GL267526  44.350   3.419   5.843
 5317POPC   C1A67527  44.832   3.376   6.282
 5317POPC   D2A67528   0.049   3.255   6.691
 5317POPC   C3A67529  44.939   3.530   7.075
 5317POPC   C4A67530  44.928   3.398   7.557
 5317POPC   C1B67531  44.386   3.713   6.230
 5317POPC   C2B67532  44.576   3.849   6.642
 5317POPC   C3B67533  44.404   3.941   7.055
 5317POPC   C4B67534  44.554   3.664   7.387
 5318POPC   NC367535  37.778   0.140   5.568
 5318POPC   PO467536  37.527   0.852   5.547
 5318POPC   GL167537  37.752   0.611   5.812
 5318POPC   GL267538  37.440   0.437   5.862
 5318POPC   C1A67539  37.866   0.508   6.231
 5318POPC   D2A67540  37.604   0.469   6.610
 5318POPC   C3A67541  37.714   0.563   7.017
 5318POPC   C4A67542  37.425   0.783   7.286
 5318POPC   C1B67543  37.497   0.180   6.194
 5318POPC   C2B67544  37.805   0.020   6.487
 5318POPC   C3B67545  37.636  44.967   6.881
 5318POPC   C4B67546  37.603   0.109   7.246
 5319POPC   NC367547  26.935  12.417   5.483
 5319POPC   PO467548  27.087  11.814   5.366
 5319POPC   GL167549  27.055  11.960   5.796
 5319POPC   GL267550  26.705  12.111   5.847
 5319POPC   C1A67551  27.079  12.295   6.120
 5319POPC   D2A67552  26.907  12.407   6.501
 5319POPC   C3A67553  26.906  12.065   6.768
 5319POPC   C4A67554  27.176  12.019   7.134
 5319POPC   C1B67555  26.453  11.926   6.206
 5319POPC   C2B67556  26.461  11.771   6.653
 5319POPC   C3B67557  26.473  11.943   7.076
 5319POPC   C4B67558  26.754  12.270   7.206
 5320POPC   NC367559  41.082  16.907   5.525
 5320POPC   PO467560  40.635  16.525   5.551
 5320POPC   GL167561  40.737  16.817   5.896
 5320POPC   GL267562  41.056  16.978   6.014
 5320POPC   C1A67563  40.557  16.978   6.258
 5320POPC   D2A67564  40.532  16.769   6.626
 5320POPC   C3A67565  40.497  16.939   7.025
 5320POPC   C4A67566  40.534  16.630   7.333
 5320POPC   C1B67567  41.078  16.869   6.421
 5320POPC   C2B67568  40.998  16.941   6.832
 5320POPC   C3B67569  40.962  16.895   7.251
 5320POPC   C4B67570  41.169  17.024   7.613
 5321POPC   NC367571  16.983  33.266   5.352
 5321POPC   PO467572  16.725  32.655   5.498
 5321POPC   GL167573  16.850  32.878   5.874
 5321POPC   GL267574  16.762  33.201   5.789
 5321POPC   C1A67575  16.850  32.820   6.332
 5321POPC   D2A67576  16.566  32.793   6.721
 5321POPC   C3A67577  16.751  32.881   7.114
 5321POPC   C4A67578  17.165  32.890   7.236
 5321POPC   C1B67579  16.826  33.335   6.202
 5321POPC   C2B67580  16.848  33.213   6.632
 5321POPC   C3B67581  17.035  33.310   6.971
 5321POPC   C4B67582  17.024  33.527   7.302
 5322POPC   NC367583  10.298   0.396   5.502
 5322POPC   PO467584  10.842   0.110   5.368
 5322POPC   GL167585  10.741   0.276   5.774
 5322POPC   GL267586  10.422   0.131   5.935
 5322POPC   C1A67587  10.625   0.582   6.099
 5322POPC   D2A67588  10.432   0.744   6.484
 5322POPC   C3A67589  10.662   0.606   6.831
 5322POPC   C4A67590  10.610   0.478   7.250
 5322POPC   C1B67591  10.763   0.077   6.265
 5322POPC   C2B67592  10.668   0.092   6.722
 5322POPC   C3B67593  10.277   0.234   6.955
 5322POPC   C4B67594  10.172   0.142   7.390
 5323POPC   NC367595  39.237  16.199   5.360
 5323POPC   PO467596  39.422  15.530   5.568
 5323POPC   GL167597  39.441  15.855   5.900
 5323POPC   GL267598  39.433  16.229   5.841
 5323POPC   C1A67599  39.401  15.752   6.363
 5323POPC   D2A67600  39.150  15.647   6.742
 5323POPC   C3A67601  39.145  15.785   7.177
 5323POPC   C4A67602  39.250  15.529   7.516
 5323POPC   C1B67603  39.088  16.369   6.109
 5323POPC   C2B67604  39.058  16.172   6.515
 5323POPC   C3B67605  39.360  16.128   6.860
 5323POPC   C4B67606  39.263  16.292   7.272
 5324POPC   NC367607   9.915  35.483   5.403
 5324POPC   PO467608   9.297  35.734   5.496
 5324POPC   GL167609   9.620  35.605   5.798
 5324POPC   GL267610   9.824  35.289   5.874
 5324POPC   C1A67611   9.821  35.691   6.187
 5324POPC   D2A67612  10.117  35.607   6.518
 5324POPC   C3A67613  10.010  35.695   6.940
 5324POPC   C4A67614   9.801  35.668   7.337
 5324POPC   C1B67615   9.462  35.225   6.125
 5324POPC   C2B67616   9.458  35.288   6.576
 5324POPC   C3B67617   9.639  35.290   6.996
 5324POPC   C4B67618   9.490  35.135   7.371
 5325POPC   NC367619  17.178  37.084   5.429
 5325POPC   PO467620  16.564  37.035   5.518
 5325POPC   GL167621  16.684  36.836   5.893
 5325POPC   GL267622  16.996  36.978   5.894
 5325POPC   C1A67623  16.682  36.902   6.352
 5325POPC   D2A67624  16.696  36.782   6.774
 5325POPC   C3A67625  16.638  37.142   7.028
 5325POPC   C4A67626  16.667  37.314   7.435
 5325POPC   C1B67627  17.195  36.721   6.170
 5325POPC   C2B67628  17.134  36.565   6.550
 5325POPC   C3B67629  17.199  36.727   6.946
 5325POPC   C4B67630  16.996  36.877   7.275
 5326POPC   NC367631   9.273  20.018   5.410
 5326POPC   PO467632   8.692  19.685   5.555
 5326POPC   GL167633   8.848  19.957   5.892
 5326POPC   GL267634   9.194  20.003   5.921
 5326POPC   C1A67635   8.912  20.106   6.344
 5326POPC   D2A67636   9.077  19.940   6.738
 5326POPC   C3A67637   8.811  19.926   7.101
 5326POPC   C4A67638   8.794  19.912   7.582
 5326POPC   C1B67639   9.178  19.696   6.260
 5326POPC   C2B67640   9.353  19.533   6.622
 5326POPC   C3B67641   9.459  19.705   6.990
 5326POPC   C4B67642   9.230  19.800   7.335
 5327POPC   NC367643  17.874  21.521   5.347
 5327POPC   PO467644  18.502  21.613   5.465
 5327POPC   GL167645  18.377  21.361   5.815
 5327POPC   GL267646  18.719  21.387   5.913
 5327POPC   C1A67647  18.091  21.224   6.170
 5327POPC   D2A67648  18.018  21.024   6.586
 5327POPC   C3A67649  17.995  21.302   6.982
 5327POPC   C4A67650  18.119  21.629   7.348
 5327POPC   C1B67651  18.579  21.318   6.310
 5327POPC   C2B67652  18.485  21.212   6.730
 5327POPC   C3B67653  18.467  21.297   7.181
 5327POPC   C4B67654  18.693  21.565   7.490
 5328POPC   NC367655   3.610  10.840   5.344
 5328POPC   PO467656   3.175  10.361   5.585
 5328POPC   GL167657   3.540  10.434   5.828
 5328POPC   GL267658   3.738  10.737   5.895
 5328POPC   C1A67659   3.614  10.370   6.255
 5328POPC   D2A67660   3.438  10.427   6.658
 5328POPC   C3A67661   3.734  10.534   6.969
 5328POPC   C4A67662   3.532  10.340   7.278
 5328POPC   C1B67663   3.354  10.799   6.187
 5328POPC   C2B67664   3.406  10.936   6.627
 5328POPC   C3B67665   3.326  10.821   7.072
 5328POPC   C4B67666   3.638  10.841   7.411
 5329POPC   NC367667  21.788  32.251   5.597
 5329POPC   PO467668  22.250  31.825   5.549
 5329POPC   GL167669  22.051  31.958   5.937
 5329POPC   GL267670  21.691  31.861   5.976
 5329POPC   C1A67671  22.255  32.152   6.321
 5329POPC   D2A67672  22.377  32.452   6.661
 5329POPC   C3A67673  22.296  32.296   7.073
 5329POPC   C4A67674  22.428  31.919   7.207
 5329POPC   C1B67675  21.734  32.229   6.255
 5329POPC   C2B67676  21.873  32.570   6.542
 5329POPC   C3B67677  21.963  32.687   6.947
 5329POPC   C4B67678  21.858  32.451   7.315
 5330POPC   NC367679   6.481  43.210   5.465
 5330POPC   PO467680   6.789  42.598   5.458
 5330POPC   GL167681   6.710  42.864   5.786
 5330POPC   GL267682   6.339  42.871   5.815
 5330POPC   C1A67683   6.874  43.044   6.184
 5330POPC   D2A67684   6.902  43.312   6.560
 5330POPC   C3A67685   6.816  43.149   6.987
 5330POPC   C4A67686   6.513  43.391   7.289
 5330POPC   C1B67687   6.462  42.742   6.212
 5330POPC   C2B67688   6.438  43.028   6.523
 5330POPC   C3B67689   6.305  43.156   6.894
 5330POPC   C4B67690   6.431  42.882   7.222
 5331POPC   NC367691  41.613  28.133   5.524
 5331POPC   PO467692  41.647  28.727   5.637
 5331POPC   GL167693  41.759  28.489   5.934
 5331POPC   GL267694  41.491  28.253   6.041
 5331POPC   C1A67695  41.747  28.568   6.348
 5331POPC   D2A67696  41.461  28.447   6.616
 5331POPC   C3A67697  41.573  28.684   6.912
 5331POPC   C4A67698  41.717  28.476   7.214
 5331POPC   C1B67699  41.921  28.071   6.196
 5331POPC   C2B67700  42.155  28.014   6.582
 5331POPC   C3B67701  41.945  27.981   7.002
 5331POPC   C4B67702  41.838  28.014   7.425
 5332POPC   NC367703   3.223  19.306   5.215
 5332POPC   PO467704   3.860  19.120   5.371
 5332POPC   GL167705   3.842  19.086   5.816
 5332POPC   GL267706   3.476  19.061   5.853
 5332POPC   C1A67707   3.868  18.942   6.227
 5332POPC   D2A67708   3.549  18.832   6.527
 5332POPC   C3A67709   3.720  18.971   6.895
 5332POPC   C4A67710   3.759  18.992   7.317
 5332POPC   C1B67711   3.438  19.263   6.266
 5332POPC   C2B67712   3.397  19.323   6.709
 5332POPC   C3B67713   3.226  19.063   7.055
 5332POPC   C4B67714   3.112  19.221   7.464
 5333POPC   NC367715  37.742  38.212   5.040
 5333POPC   PO467716  37.860  38.648   5.532
 5333POPC   GL167717  37.784  38.619   5.929
 5333POPC   GL267718  37.480  38.464   5.871
 5333POPC   C1A67719  37.805  38.692   6.372
 5333POPC   D2A67720  37.951  38.462   6.719
 5333POPC   C3A67721  37.959  38.578   7.154
 5333POPC   C4A67722  37.634  38.556   7.443
 5333POPC   C1B67723  37.633  38.231   6.249
 5333POPC   C2B67724  37.455  38.393   6.610
 5333POPC   C3B67725  37.543  38.329   6.984
 5333POPC   C4B67726  37.868  38.077   7.158
 5334POPC   NC367727   1.676  13.897   5.481
 5334POPC   PO467728   2.347  13.952   5.457
 5334POPC   GL167729   2.092  13.789   5.805
 5334POPC   GL267730   1.765  13.643   5.918
 5334POPC   C1A67731   2.190  13.668   6.213
 5334POPC   D2A67732   1.870  13.527   6.477
 5334POPC   C3A67733   2.017  13.420   6.882
 5334POPC   C4A67734   2.119  13.380   7.333
 5334POPC   C1B67735   1.776  14.043   6.112
 5334POPC   C2B67736   1.736  14.051   6.525
 5334POPC   C3B67737   1.604  13.777   6.854
 5334POPC   C4B67738   1.625  13.498   7.205
 5335POPC   NC367739  28.484  21.130   5.554
 5335POPC   PO467740  28.214  21.751   5.413
 5335POPC   GL167741  28.302  21.551   5.803
 5335POPC   GL267742  28.142  21.223   5.913
 5335POPC   C1A67743  28.428  21.543   6.228
 5335POPC   D2A67744  28.251  21.527   6.631
 5335POPC   C3A67745  28.463  21.566   6.986
 5335POPC   C4A67746  28.259  21.528   7.371
 5335POPC   C1B67747  28.050  20.988   6.288
 5335POPC   C2B67748  27.947  21.112   6.699
 5335POPC   C3B67749  28.173  21.111   7.064
 5335POPC   C4B67750  28.062  20.750   7.255
 5336POPC   NC367751  25.901  18.454   5.378
 5336POPC   PO467752  26.179  17.899   5.449
 5336POPC   GL167753  25.924  18.079   5.738
 5336POPC   GL267754  26.204  18.303   5.777
 5336POPC   C1A67755  25.816  18.124   6.165
 5336POPC   D2A67756  25.889  18.349   6.579
 5336POPC   C3A67757  25.895  18.135   6.988
 5336POPC   C4A67758  25.825  18.426   7.361
 5336POPC   C1B67759  26.193  18.465   6.174
 5336POPC   C2B67760  26.391  18.347   6.561
 5336POPC   C3B67761  26.289  18.449   6.992
 5336POPC   C4B67762  26.491  18.539   7.332
 5337POPC   NC367763  27.318  24.083   5.729
 5337POPC   PO467764  27.527  24.484   5.203
 5337POPC   GL167765  27.656  24.458   5.731
 5337POPC   GL267766  27.726  24.222   5.986
 5337POPC   C1A67767  27.754  24.716   6.132
 5337POPC   D2A67768  27.642  24.865   6.550
 5337POPC   C3A67769  27.512  24.572   6.866
 5337POPC   C4A67770  27.750  24.579   7.205
 5337POPC   C1B67771  27.646  24.289   6.425
 5337POPC   C2B67772  27.881  24.095   6.757
 5337POPC   C3B67773  27.878  24.064   7.189
 5337POPC   C4B67774  27.504  24.193   7.403
 5338POPC   NC367775   4.173  31.162   5.424
 5338POPC   PO467776   4.168  31.766   5.051
 5338POPC   GL167777   4.310  31.660   5.529
 5338POPC   GL267778   4.039  31.776   5.747
 5338POPC   C1A67779   4.433  31.446   6.001
 5338POPC   D2A67780   4.343  31.239   6.457
 5338POPC   C3A67781   4.489  31.423   6.870
 5338POPC   C4A67782   4.534  31.427   7.331
 5338POPC   C1B67783   3.940  31.534   6.141
 5338POPC   C2B67784   3.851  31.441   6.572
 5338POPC   C3B67785   3.995  31.440   6.996
 5338POPC   C4B67786   4.151  31.745   7.254
 5339POPC   NC367787   9.351  19.303   5.485
 5339POPC   PO467788   8.890  18.902   5.407
 5339POPC   GL167789   8.886  19.077   5.813
 5339POPC   GL267790   9.000  19.416   5.843
 5339POPC   C1A67791   8.788  18.925   6.226
 5339POPC   D2A67792   8.908  19.033   6.634
 5339POPC   C3A67793   9.082  18.789   6.916
 5339POPC   C4A67794   8.994  18.923   7.275
 5339POPC   C1B67795   8.756  19.433   6.200
 5339POPC   C2B67796   8.829  19.518   6.615
 5339POPC   C3B67797   8.998  19.426   7.023
 5339POPC   C4B67798   8.758  19.431   7.407
 5340POPC   NC367799  19.992  31.116   5.678
 5340POPC   PO467800  19.699  30.531   5.428
 5340POPC   GL167801  19.957  30.608   5.781
 5340POPC   GL267802  19.690  30.760   5.921
 5340POPC   C1A67803  20.082  30.497   6.205
 5340POPC   D2A67804  20.186  30.740   6.577
 5340POPC   C3A67805  20.120  30.538   6.984
 5340POPC   C4A67806  19.749  30.407   7.254
 5340POPC   C1B67807  19.765  30.906   6.312
 5340POPC   C2B67808  19.819  31.096   6.701
 5340POPC   C3B67809  19.722  30.876   7.047
 5340POPC   C4B67810  19.615  30.876   7.487
 5341POPC   NC367811   8.695  27.690   5.505
 5341POPC   PO467812   9.138  27.278   5.635
 5341POPC   GL167813   9.017  27.595   5.890
 5341POPC   GL267814   9.326  27.729   5.843
 5341POPC   C1A67815   8.886  27.558   6.320
 5341POPC   D2A67816   9.115  27.426   6.663
 5341POPC   C3A67817   8.778  27.277   6.859
 5341POPC   C4A67818   8.703  27.661   7.075
 5341POPC   C1B67819   9.416  27.617   6.261
 5341POPC   C2B67820   9.582  27.710   6.671
 5341POPC   C3B67821   9.339  27.717   7.046
 5341POPC   C4B67822   9.130  27.382   7.218
 5342POPC   NC367823  11.578  39.487   5.469
 5342POPC   PO467824  11.079  38.987   5.368
 5342POPC   GL167825  11.219  38.910   5.790
 5342POPC   GL267826  11.561  38.964   5.843
 5342POPC   C1A67827  11.221  39.184   6.164
 5342POPC   D2A67828  11.348  39.310   6.582
 5342POPC   C3A67829  11.319  39.126   6.978
 5342POPC   C4A67830  11.069  39.387   7.223
 5342POPC   C1B67831  11.743  39.183   6.226
 5342POPC   C2B67832  11.786  39.563   6.538
 5342POPC   C3B67833  11.605  39.577   6.978
 5342POPC   C4B67834  11.701  39.264   7.304
 5343POPC   NC367835  28.047   2.613   5.421
 5343POPC   PO467836  27.581   3.096   5.532
 5343POPC   GL167837  27.775   2.933   5.920
 5343POPC   GL267838  27.819   2.593   5.878
 5343POPC   C1A67839  27.628   2.819   6.343
 5343POPC   D2A67840  27.490   2.453   6.598
 5343POPC   C3A67841  27.385   2.604   7.029
 5343POPC   C4A67842  27.209   2.844   7.384
 5343POPC   C1B67843  27.974   2.459   6.266
 5343POPC   C2B67844  27.976   2.518   6.727
 5343POPC   C3B67845  27.881   2.561   7.178
 5343POPC   C4B67846  27.544   2.472   7.518
 5344POPC   NC367847  10.071  30.320   5.351
 5344POPC   PO467848   9.876  29.606   5.396
 5344POPC   GL167849   9.944  29.776   5.775
 5344POPC   GL267850   9.723  30.054   5.649
 5344POPC   C1A67851   9.992  29.580   6.198
 5344POPC   D2A67852   9.868  29.478   6.639
 5344POPC   C3A67853  10.133  29.736   6.901
 5344POPC   C4A67854  10.013  30.036   7.240
 5344POPC   C1B67855   9.555  29.924   6.063
 5344POPC   C2B67856   9.803  29.991   6.459
 5344POPC   C3B67857   9.649  29.917   6.864
 5344POPC   C4B67858   9.481  30.019   7.248
 5345POPC   NC367859  18.965  24.329   5.386
 5345POPC   PO467860  19.014  25.003   5.272
 5345POPC   GL167861  19.080  24.806   5.706
 5345POPC   GL267862  18.834  24.573   5.859
 5345POPC   C1A67863  19.188  24.897   6.160
 5345POPC   D2A67864  19.067  24.782   6.612
 5345POPC   C3A67865  19.285  24.656   7.014
 5345POPC   C4A67866  19.014  24.701   7.379
 5345POPC   C1B67867  19.104  24.397   6.221
 5345POPC   C2B67868  19.298  24.282   6.642
 5345POPC   C3B67869  19.121  24.160   7.072
 5345POPC   C4B67870  19.175  24.230   7.534
 5346POPC   NC367871  35.134  44.681   4.822
 5346POPC   PO467872  35.420  44.422   5.337
 5346POPC   GL167873  35.264  44.663   5.696
 5346POPC   GL267874  35.588  44.689   5.879
 5346POPC   C1A67875  35.154  44.572   6.118
 5346POPC   D2A67876  35.406  44.465   6.475
 5346POPC   C3A67877  35.281  44.709   6.816
 5346POPC   C4A67878  35.126  44.799   7.213
 5346POPC   C1B67879  35.491  44.941   6.265
 5346POPC   C2B67880  35.679   0.016   6.671
 5346POPC   C3B67881  35.535   0.066   7.098
 5346POPC   C4B67882  35.486  44.960   7.541
 5347POPC   NC367883  19.229   3.341   4.618
 5347POPC   PO467884  19.269   3.597   5.281
 5347POPC   GL167885  19.091   3.658   5.766
 5347POPC   GL267886  19.166   3.936   5.959
 5347POPC   C1A67887  18.922   3.499   6.160
 5347POPC   D2A67888  18.997   3.624   6.563
 5347POPC   C3A67889  19.081   3.390   6.940
 5347POPC   C4A67890  19.074   3.369   7.395
 5347POPC   C1B67891  19.388   3.931   6.359
 5347POPC   C2B67892  19.379   3.857   6.804
 5347POPC   C3B67893  19.304   3.784   7.202
 5347POPC   C4B67894  19.061   4.080   7.446
 5348POPC   NC367895  40.555   1.417   5.191
 5348POPC   PO467896  41.013   1.077   5.562
 5348POPC   GL167897  40.772   1.394   5.788
 5348POPC   GL267898  40.408   1.347   5.816
 5348POPC   C1A67899  40.732   1.364   6.233
 5348POPC   D2A67900  40.714   1.474   6.635
 5348POPC   C3A67901  40.976   1.256   6.912
 5348POPC   C4A67902  41.088   1.412   7.293
 5348POPC   C1B67903  40.297   1.081   6.214
 5348POPC   C2B67904  40.437   1.022   6.646
 5348POPC   C3B67905  40.479   1.248   7.034
 5348POPC   C4B67906  40.624   1.105   7.431
 5349POPC   NC367907  26.113  30.453   5.440
 5349POPC   PO467908  26.662  30.887   5.617
 5349POPC   GL167909  26.270  30.739   5.921
 5349POPC   GL267910  26.001  30.481   5.923
 5349POPC   C1A67911  25.943  30.821   6.295
 5349POPC   D2A67912  25.692  30.915   6.702
 5349POPC   C3A67913  25.863  30.774   7.130
 5349POPC   C4A67914  26.200  30.795   7.468
 5349POPC   C1B67915  25.965  30.306   6.287
 5349POPC   C2B67916  25.987  30.473   6.686
 5349POPC   C3B67917  26.049  30.305   7.080
 5349POPC   C4B67918  26.007  30.315   7.505
 5350POPC   NC367919  35.447  43.928   5.306
 5350POPC   PO467920  35.138  43.467   5.636
 5350POPC   GL167921  35.376  43.786   5.878
 5350POPC   GL267922  35.436  44.158   5.787
 5350POPC   C1A67923  35.340  43.974   6.303
 5350POPC   D2A67924  35.061  44.097   6.630
 5350POPC   C3A67925  35.196  43.855   6.945
 5350POPC   C4A67926  35.099  43.707   7.300
 5350POPC   C1B67927  35.724  44.235   6.134
 5350POPC   C2B67928  35.793  44.045   6.571
 5350POPC   C3B67929  35.654  44.091   7.012
 5350POPC   C4B67930  35.261  44.301   7.176
 5351POPC   NC367931   7.863  25.395   5.299
 5351POPC   PO467932   8.333  24.930   5.294
 5351POPC   GL167933   8.276  25.239   5.640
 5351POPC   GL267934   7.934  25.336   5.787
 5351POPC   C1A67935   8.332  25.184   6.096
 5351POPC   D2A67936   8.441  25.351   6.494
 5351POPC   C3A67937   8.299  25.207   6.910
 5351POPC   C4A67938   8.406  25.021   7.310
 5351POPC   C1B67939   7.962  25.539   6.178
 5351POPC   C2B67940   7.956  25.490   6.610
 5351POPC   C3B67941   7.867  25.584   7.001
 5351POPC   C4B67942   7.951  25.280   7.274
 5352POPC   NC367943   5.622  10.576   5.376
 5352POPC   PO467944   6.318  10.296   5.350
 5352POPC   GL167945   6.164  10.477   5.764
 5352POPC   GL267946   5.797  10.603   5.847
 5352POPC   C1A67947   6.055  10.400   6.220
 5352POPC   D2A67948   5.944  10.633   6.582
 5352POPC   C3A67949   5.781  10.438   6.932
 5352POPC   C4A67950   6.012  10.445   7.289
 5352POPC   C1B67951   5.649  10.867   6.221
 5352POPC   C2B67952   5.454  10.799   6.662
 5352POPC   C3B67953   5.382  10.717   7.111
 5352POPC   C4B67954   5.651  10.789   7.464
 5353POPC   NC367955  33.001  41.352   5.395
 5353POPC   PO467956  33.151  40.702   5.260
 5353POPC   GL167957  32.998  40.680   5.687
 5353POPC   GL267958  33.029  40.978   5.761
 5353POPC   C1A67959  32.957  40.493   6.070
 5353POPC   D2A67960  33.087  40.670   6.439
 5353POPC   C3A67961  32.980  40.641   6.860
 5353POPC   C4A67962  33.127  40.890   7.193
 5353POPC   C1B67963  32.766  40.985   6.132
 5353POPC   C2B67964  32.652  40.927   6.544
 5353POPC   C3B67965  32.714  41.116   6.922
 5353POPC   C4B67966  32.640  41.031   7.307
 5354POPC   NC367967  44.407  43.425   5.501
 5354POPC   PO467968  44.832  42.911   5.286
 5354POPC   GL167969  44.739  43.095   5.736
 5354POPC   GL267970  44.835  43.407   5.875
 5354POPC   C1A67971  44.635  43.076   6.195
 5354POPC   D2A67972  44.543  43.276   6.561
 5354POPC   C3A67973  44.673  43.122   6.969
 5354POPC   C4A67974  44.421  43.193   7.347
 5354POPC   C1B67975  44.926  43.554   6.315
 5354POPC   C2B67976  44.950  43.584   6.787
 5354POPC   C3B67977  44.937  43.486   7.231
 5354POPC   C4B67978  44.731  43.437   7.669
 5355POPC   NC367979   2.898  41.867   5.741
 5355POPC   PO467980   2.685  42.326   5.253
 5355POPC   GL167981   2.512  42.405   5.761
 5355POPC   GL267982   2.748  42.661   5.960
 5355POPC   C1A67983   2.612  42.319   6.268
 5355POPC   D2A67984   2.744  42.714   6.533
 5355POPC   C3A67985   2.981  42.635   6.909
 5355POPC   C4A67986   2.754  42.316   7.128
 5355POPC   C1B67987   3.125  42.515   6.283
 5355POPC   C2B67988   3.347  42.342   6.673
 5355POPC   C3B67989   3.224  42.112   7.081
 5355POPC   C4B67990   3.022  42.002   7.501
 5356POPC   NC367991  23.717  27.065   5.381
 5356POPC   PO467992  23.573  26.418   5.347
 5356POPC   GL167993  23.588  26.692   5.699
 5356POPC   GL267994  23.295  26.925   5.675
 5356POPC   C1A67995  23.902  26.830   6.020
 5356POPC   D2A67996  24.121  26.768   6.440
 5356POPC   C3A67997  23.844  26.734   6.825
 5356POPC   C4A67998  23.817  26.898   7.242
 5356POPC   C1B67999  23.406  26.922   6.108
 5356POPC   C2B68000  23.410  26.879   6.536
 5356POPC   C3B68001  23.464  27.085   6.918
 5356POPC   C4B68002  23.312  26.863   7.286
 5357POPC   NC368003  10.119  23.660   5.476
 5357POPC   PO468004   9.456  23.839   5.384
 5357POPC   GL168005   9.721  23.947   5.772
 5357POPC   GL268006   9.994  23.763   5.956
 5357POPC   C1A68007   9.596  23.899   6.235
 5357POPC   D2A68008   9.716  23.641   6.594
 5357POPC   C3A68009   9.666  23.894   6.927
 5357POPC   C4A68010   9.795  23.821   7.319
 5357POPC   C1B68011  10.046  23.421   6.263
 5357POPC   C2B68012  10.200  23.382   6.692
 5357POPC   C3B68013   9.954  23.399   7.098
 5357POPC   C4B68014   9.811  23.309   7.543
 5358POPC   NC368015  11.562  28.281   5.534
 5358POPC   PO468016  10.895  28.384   5.504
 5358POPC   GL168017  11.157  28.424   5.842
 5358POPC   GL268018  11.236  28.069   5.866
 5358POPC   C1A68019  11.479  28.552   6.165
 5358POPC   D2A68020  11.678  28.472   6.568
 5358POPC   C3A68021  11.656  28.711   6.958
 5358POPC   C4A68022  11.439  28.455   7.245
 5358POPC   C1B68023  11.125  28.192   6.288
 5358POPC   C2B68024  11.136  28.356   6.677
 5358POPC   C3B68025  11.121  28.110   7.030
 5358POPC   C4B68026  10.997  28.242   7.419
 5359POPC   NC368027   4.599  16.833   5.569
 5359POPC   PO468028   3.922  16.692   5.537
 5359POPC   GL168029   4.177  16.526   5.830
 5359POPC   GL268030   4.496  16.392   5.911
 5359POPC   C1A68031   4.100  16.513   6.243
 5359POPC   D2A68032   4.249  16.599   6.641
 5359POPC   C3A68033   3.966  16.572   6.995
 5359POPC   C4A68034   4.139  16.738   7.375
 5359POPC   C1B68035   4.608  16.681   6.233
 5359POPC   C2B68036   4.745  16.886   6.590
 5359POPC   C3B68037   4.522  16.951   6.954
 5359POPC   C4B68038   4.659  16.697   7.237
 5360POPC   NC368039  21.013  34.572   4.998
 5360POPC   PO468040  21.535  34.346   5.391
 5360POPC   GL168041  21.440  34.483   5.772
 5360POPC   GL268042  21.104  34.548   5.706
 5360POPC   C1A68043  21.541  34.604   6.188
 5360POPC   D2A68044  21.710  34.864   6.508
 5360POPC   C3A68045  21.550  34.659   6.843
 5360POPC   C4A68046  21.356  34.804   7.221
 5360POPC   C1B68047  21.109  34.249   6.088
 5360POPC   C2B68048  21.193  34.355   6.523
 5360POPC   C3B68049  21.106  34.440   6.940
 5360POPC   C4B68050  21.058  34.384   7.355
 5361POPC   NC368051  35.065  39.848   5.406
 5361POPC   PO468052  35.596  40.227   5.394
 5361POPC   GL168053  35.375  40.134   5.761
 5361POPC   GL268054  35.367  39.797   5.816
 5361POPC   C1A68055  35.275  40.108   6.220
 5361POPC   D2A68056  35.301  39.928   6.655
 5361POPC   C3A68057  35.485  40.026   7.097
 5361POPC   C4A68058  35.442  40.217   7.534
 5361POPC   C1B68059  35.475  39.605   6.198
 5361POPC   C2B68060  35.402  39.416   6.571
 5361POPC   C3B68061  35.287  39.539   6.984
 5361POPC   C4B68062  35.336  39.654   7.425
 5362POPC   NC368063   4.766   8.677   5.063
 5362POPC   PO468064   4.193   8.872   5.455
 5362POPC   GL168065   4.125   9.151   5.848
 5362POPC   GL268066   4.406   9.388   5.745
 5362POPC   C1A68067   4.037   9.111   6.331
 5362POPC   D2A68068   4.032   9.025   6.772
 5362POPC   C3A68069   4.346   8.753   6.932
 5362POPC   C4A68070   4.549   8.794   7.336
 5362POPC   C1B68071   4.451   9.365   6.189
 5362POPC   C2B68072   4.528   9.115   6.556
 5362POPC   C3B68073   4.477   9.252   6.959
 5362POPC   C4B68074   4.206   9.172   7.242
 5363POPC   NC368075  15.658  16.937   5.442
 5363POPC   PO468076  16.220  16.620   5.398
 5363POPC   GL168077  15.943  16.659   5.782
 5363POPC   GL268078  15.983  17.014   5.824
 5363POPC   C1A68079  15.898  16.530   6.245
 5363POPC   D2A68080  16.058  16.653   6.670
 5363POPC   C3A68081  15.896  16.420   7.063
 5363POPC   C4A68082  15.602  16.442   7.420
 5363POPC   C1B68083  15.793  17.024   6.201
 5363POPC   C2B68084  15.609  16.850   6.562
 5363POPC   C3B68085  15.675  16.877   6.985
 5363POPC   C4B68086  15.490  17.222   7.064
 5364POPC   NC368087  26.912  28.975   5.397
 5364POPC   PO468088  27.171  29.484   5.731
 5364POPC   GL168089  26.807  29.227   5.897
 5364POPC   GL268090  26.748  28.910   5.921
 5364POPC   C1A68091  26.634  29.192   6.345
 5364POPC   D2A68092  26.736  28.993   6.698
 5364POPC   C3A68093  26.901  29.311   6.950
 5364POPC   C4A68094  26.843  29.306   7.390
 5364POPC   C1B68095  27.067  28.954   6.267
 5364POPC   C2B68096  27.243  29.021   6.679
 5364POPC   C3B68097  27.107  28.895   7.132
 5364POPC   C4B68098  27.165  28.977   7.599
 5365POPC   NC368099   1.761  12.064   5.562
 5365POPC   PO468100   2.325  12.371   5.720
 5365POPC   GL168101   2.091  12.112   6.014
 5365POPC   GL268102   1.959  11.785   5.940
 5365POPC   C1A68103   2.017  12.013   6.449
 5365POPC   D2A68104   1.714  12.066   6.809
 5365POPC   C3A68105   1.919  12.169   7.220
 5365POPC   C4A68106   1.956  12.202   7.680
 5365POPC   C1B68107   2.241  11.594   6.230
 5365POPC   C2B68108   2.319  11.654   6.664
 5365POPC   C3B68109   2.047  11.715   7.018
 5365POPC   C4B68110   2.180  11.768   7.435
 5366POPC   NC368111  26.381  29.377   5.519
 5366POPC   PO468112  25.804  29.138   5.137
 5366POPC   GL168113  26.047  29.034   5.662
 5366POPC   GL268114  25.817  28.879   5.991
 5366POPC   C1A68115  26.226  29.100   6.099
 5366POPC   D2A68116  26.097  29.199   6.543
 5366POPC   C3A68117  26.356  29.266   6.897
 5366POPC   C4A68118  26.364  29.449   7.273
 5366POPC   C1B68119  25.671  28.969   6.356
 5366POPC   C2B68120  25.801  28.759   6.686
 5366POPC   C3B68121  25.853  29.000   7.015
 5366POPC   C4B68122  26.179  28.955   7.267
 5367POPC   NC368123  13.173  39.242   5.481
 5367POPC   PO468124  13.706  39.590   5.680
 5367POPC   GL168125  13.565  39.399   6.008
 5367POPC   GL268126  13.457  39.120   5.890
 5367POPC   C1A68127  13.597  39.413   6.432
 5367POPC   D2A68128  13.328  39.584   6.733
 5367POPC   C3A68129  13.523  39.348   7.059
 5367POPC   C4A68130  13.972  39.257   7.118
 5367POPC   C1B68131  13.648  38.926   6.247
 5367POPC   C2B68132  13.636  38.965   6.702
 5367POPC   C3B68133  13.551  38.849   7.135
 5367POPC   C4B68134  13.815  38.719   7.492
 5368POPC   NC368135   3.000  33.507   5.409
 5368POPC   PO468136   2.808  34.164   5.376
 5368POPC   GL168137   2.717  33.861   5.727
 5368POPC   GL268138   2.460  33.592   5.638
 5368POPC   C1A68139   2.799  33.959   6.178
 5368POPC   D2A68140   2.991  34.095   6.587
 5368POPC   C3A68141   2.862  33.797   6.870
 5368POPC   C4A68142   2.633  33.785   7.259
 5368POPC   C1B68143   2.465  33.470   6.064
 5368POPC   C2B68144   2.630  33.560   6.471
 5368POPC   C3B68145   2.384  33.578   6.875
 5368POPC   C4B68146   2.323  33.356   7.296
 5369POPC   NC368147  37.989  27.996   5.617
 5369POPC   PO468148  37.636  28.422   5.298
 5369POPC   GL168149  37.452  28.431   5.739
 5369POPC   GL268150  37.721  28.316   5.873
 5369POPC   C1A68151  37.316  28.184   6.116
 5369POPC   D2A68152  37.523  28.197   6.497
 5369POPC   C3A68153  37.310  28.376   6.813
 5369POPC   C4A68154  37.377  28.284   7.233
 5369POPC   C1B68155  37.700  28.570   6.200
 5369POPC   C2B68156  37.852  28.578   6.614
 5369POPC   C3B68157  37.839  28.386   7.002
 5369POPC   C4B68158  37.722  28.611   7.365
 5370POPC   NC368159   4.734   7.010   5.434
 5370POPC   PO468160   4.351   7.457   5.490
 5370POPC   GL168161   4.373   7.282   5.850
 5370POPC   GL268162   4.032   7.166   5.866
 5370POPC   C1A68163   4.315   7.493   6.235
 5370POPC   D2A68164   4.154   7.526   6.630
 5370POPC   C3A68165   4.475   7.534   6.945
 5370POPC   C4A68166   4.444   7.691   7.353
 5370POPC   C1B68167   4.234   6.979   6.233
 5370POPC   C2B68168   4.072   6.864   6.606
 5370POPC   C3B68169   4.174   7.110   6.924
 5370POPC   C4B68170   4.001   7.490   7.137
 5371POPC   NC368171  23.265   2.217   5.606
 5371POPC   PO468172  23.827   1.925   5.454
 5371POPC   GL168173  23.730   1.815   5.857
 5371POPC   GL268174  23.412   1.896   5.969
 5371POPC   C1A68175  23.796   2.026   6.262
 5371POPC   D2A68176  24.007   2.020   6.611
 5371POPC   C3A68177  23.721   1.923   6.900
 5371POPC   C4A68178  23.824   1.814   7.263
 5371POPC   C1B68179  23.336   2.237   6.300
 5371POPC   C2B68180  23.370   2.275   6.753
 5371POPC   C3B68181  23.554   2.310   7.172
 5371POPC   C4B68182  23.414   2.051   7.512
 5372POPC   NC368183  25.525  22.474   5.380
 5372POPC   PO468184  24.908  22.408   5.355
 5372POPC   GL168185  25.148  22.372   5.769
 5372POPC   GL268186  24.793  22.400   5.874
 5372POPC   C1A68187  25.454  22.464   6.171
 5372POPC   D2A68188  25.633  22.534   6.626
 5372POPC   C3A68189  25.374  22.434   7.003
 5372POPC   C4A68190  25.194  22.002   7.135
 5372POPC   C1B68191  24.970  22.309   6.276
 5372POPC   C2B68192  24.963  22.262   6.730
 5372POPC   C3B68193  24.709  22.166   7.108
 5372POPC   C4B68194  24.858  22.090   7.550
 5373POPC   NC368195  29.443  42.856   5.476
 5373POPC   PO468196  29.041  43.417   5.467
 5373POPC   GL168197  29.227  43.215   5.796
 5373POPC   GL268198  29.149  42.894   5.871
 5373POPC   C1A68199  29.304  43.282   6.211
 5373POPC   D2A68200  29.329  43.642   6.453
 5373POPC   C3A68201  29.195  43.532   6.861
 5373POPC   C4A68202  29.162  43.239   7.197
 5373POPC   C1B68203  29.035  42.825   6.260
 5373POPC   C2B68204  29.136  43.020   6.649
 5373POPC   C3B68205  29.033  42.780   7.012
 5373POPC   C4B68206  29.356  42.652   7.255
 5374POPC   NC368207  37.825  21.881   5.463
 5374POPC   PO468208  37.400  22.388   5.548
 5374POPC   GL168209  37.562  22.192   5.889
 5374POPC   GL268210  37.899  22.229   5.822
 5374POPC   C1A68211  37.495  22.068   6.318
 5374POPC   D2A68212  37.366  22.212   6.715
 5374POPC   C3A68213  37.558  22.028   7.050
 5374POPC   C4A68214  37.523  22.047   7.482
 5374POPC   C1B68215  37.952  22.315   6.269
 5374POPC   C2B68216  37.910  22.192   6.715
 5374POPC   C3B68217  37.860  22.478   7.108
 5374POPC   C4B68218  37.790  22.461   7.547
 5375POPC   NC368219  30.596  36.177   5.386
 5375POPC   PO468220  31.174  36.522   5.465
 5375POPC   GL168221  30.923  36.196   5.769
 5375POPC   GL268222  30.660  36.441   5.834
 5375POPC   C1A68223  30.693  36.114   6.210
 5375POPC   D2A68224  30.309  36.065   6.464
 5375POPC   C3A68225  30.393  35.931   6.891
 5375POPC   C4A68226  30.297  35.925   7.324
 5375POPC   C1B68227  31.011  36.522   6.128
 5375POPC   C2B68228  31.037  36.324   6.525
 5375POPC   C3B68229  30.944  36.427   6.943
 5375POPC   C4B68230  30.661  36.275   7.232
 5376POPC   NC368231  12.475  11.491   5.581
 5376POPC   PO468232  11.803  11.451   5.502
 5376POPC   GL168233  12.051  11.460   5.891
 5376POPC   GL268234  12.287  11.146   5.905
 5376POPC   C1A68235  12.070  11.333   6.328
 5376POPC   D2A68236  11.924  11.112   6.673
 5376POPC   C3A68237  11.807  11.455   6.913
 5376POPC   C4A68238  12.010  11.767   7.152
 5376POPC   C1B68239  12.578  11.338   6.221
 5376POPC   C2B68240  12.494  11.281   6.660
 5376POPC   C3B68241  12.270  11.229   7.052
 5376POPC   C4B68242  12.295  10.999   7.462
 5377POPC   NC368243  28.204  35.821   5.388
 5377POPC   PO468244  27.657  36.192   5.337
 5377POPC   GL168245  27.756  36.005   5.720
 5377POPC   GL268246  27.742  36.349   5.887
 5377POPC   C1A68247  27.638  35.905   6.147
 5377POPC   D2A68248  27.379  36.017   6.484
 5377POPC   C3A68249  27.517  35.979   6.896
 5377POPC   C4A68250  27.458  35.965   7.335
 5377POPC   C1B68251  27.751  36.379   6.343
 5377POPC   C2B68252  27.507  36.467   6.722
 5377POPC   C3B68253  27.557  36.437   7.169
 5377POPC   C4B68254  27.972  36.499   7.350
 5378POPC   NC368255  11.641   8.560   5.534
 5378POPC   PO468256  11.385   9.133   5.296
 5378POPC   GL168257  11.381   8.975   5.722
 5378POPC   GL268258  11.589   9.240   5.827
 5378POPC   C1A68259  11.181   8.918   6.142
 5378POPC   D2A68260  11.050   8.972   6.568
 5378POPC   C3A68261  11.263   8.857   6.940
 5378POPC   C4A68262  11.124   8.809   7.381
 5378POPC   C1B68263  11.670   8.979   6.203
 5378POPC   C2B68264  11.734   8.716   6.587
 5378POPC   C3B68265  11.774   8.854   7.011
 5378POPC   C4B68266  11.525   9.136   7.249
 5379POPC   NC368267  33.824  39.806   5.339
 5379POPC   PO468268  33.722  40.391   5.506
 5379POPC   GL168269  33.688  40.036   5.804
 5379POPC   GL268270  34.011  39.828   5.844
 5379POPC   C1A68271  33.747  39.977   6.257
 5379POPC   D2A68272  33.711  39.756   6.632
 5379POPC   C3A68273  33.523  39.938   7.015
 5379POPC   C4A68274  33.587  40.112   7.446
 5379POPC   C1B68275  33.947  39.498   6.197
 5379POPC   C2B68276  34.100  39.401   6.620
 5379POPC   C3B68277  34.016  39.620   7.018
 5379POPC   C4B68278  34.015  40.061   7.144
 5380POPC   NC368279  29.818   1.691   5.213
 5380POPC   PO468280  30.227   2.081   5.548
 5380POPC   GL168281  29.970   2.044   5.881
 5380POPC   GL268282  29.777   1.790   5.741
 5380POPC   C1A68283  30.028   2.098   6.317
 5380POPC   D2A68284  30.288   1.990   6.659
 5380POPC   C3A68285  30.022   1.964   7.013
 5380POPC   C4A68286  29.992   2.295   7.279
 5380POPC   C1B68287  29.637   1.787   6.183
 5380POPC   C2B68288  29.547   1.914   6.601
 5380POPC   C3B68289  29.565   1.734   6.985
 5380POPC   C4B68290  29.691   1.807   7.387
 5381POPC   NC368291   1.702  24.038   5.274
 5381POPC   PO468292   2.381  23.865   5.306
 5381POPC   GL168293   2.134  23.697   5.747
 5381POPC   GL268294   1.824  23.919   5.778
 5381POPC   C1A68295   2.164  23.557   6.173
 5381POPC   D2A68296   2.472  23.640   6.496
 5381POPC   C3A68297   2.332  23.750   6.919
 5381POPC   C4A68298   2.144  23.496   7.256
 5381POPC   C1B68299   1.792  24.006   6.207
 5381POPC   C2B68300   1.991  23.866   6.545
 5381POPC   C3B68301   1.878  23.549   6.805
 5381POPC   C4B68302   1.789  23.842   7.113
 5382POPC   NC368303  38.570   2.518   5.473
 5382POPC   PO468304  38.202   3.025   5.494
 5382POPC   GL168305  38.369   2.838   5.854
 5382POPC   GL268306  38.694   2.946   5.771
 5382POPC   C1A68307  38.327   2.894   6.305
 5382POPC   D2A68308  38.131   3.144   6.637
 5382POPC   C3A68309  38.197   2.994   7.047
 5382POPC   C4A68310  38.226   2.600   7.204
 5382POPC   C1B68311  38.855   2.898   6.205
 5382POPC   C2B68312  38.716   2.803   6.642
 5382POPC   C3B68313  38.707   2.833   7.105
 5382POPC   C4B68314  38.683   2.516   7.408
 5383POPC   NC368315  35.551  15.079   5.500
 5383POPC   PO468316  35.004  15.514   5.424
 5383POPC   GL168317  35.258  15.398   5.777
 5383POPC   GL268318  35.490  15.606   5.921
 5383POPC   C1A68319  35.288  15.167   6.183
 5383POPC   D2A68320  35.144  15.015   6.591
 5383POPC   C3A68321  35.260  15.200   6.970
 5383POPC   C4A68322  35.464  14.951   7.270
 5383POPC   C1B68323  35.727  15.444   6.255
 5383POPC   C2B68324  35.661  15.129   6.579
 5383POPC   C3B68325  35.818  15.180   6.978
 5383POPC   C4B68326  35.631  15.561   7.088
 5384POPC   NC368327  14.243  43.956   5.157
 5384POPC   PO468328  14.784  43.490   5.234
 5384POPC   GL168329  14.584  43.792   5.599
 5384POPC   GL268330  14.528  43.543   5.772
 5384POPC   C1A68331  14.285  43.848   6.083
 5384POPC   D2A68332  14.005  44.045   6.397
 5384POPC   C3A68333  14.201  43.944   6.830
 5384POPC   C4A68334  14.068  44.015   7.259
 5384POPC   C1B68335  14.778  43.781   6.081
 5384POPC   C2B68336  14.632  43.793   6.505
 5384POPC   C3B68337  14.771  43.873   6.908
 5384POPC   C4B68338  14.551  43.766   7.244
 5385POPC   NC368339   6.945  37.562   5.371
 5385POPC   PO468340   6.565  38.071   5.542
 5385POPC   GL168341   6.502  37.783   5.880
 5385POPC   GL268342   6.593  37.436   5.816
 5385POPC   C1A68343   6.650  37.777   6.296
 5385POPC   D2A68344   6.920  37.689   6.641
 5385POPC   C3A68345   6.689  37.815   6.966
 5385POPC   C4A68346   6.593  38.022   7.338
 5385POPC   C1B68347   6.585  37.271   6.244
 5385POPC   C2B68348   6.462  37.414   6.649
 5385POPC   C3B68349   6.556  37.325   7.071
 5385POPC   C4B68350   6.762  37.544   7.398
 5386POPC   NC368351  39.784   2.176   5.595
 5386POPC   PO468352  40.290   1.779   5.325
 5386POPC   GL168353  40.140   1.817   5.765
 5386POPC   GL268354  40.295   2.129   5.785
 5386POPC   C1A68355  39.999   2.031   6.196
 5386POPC   D2A68356  39.887   1.888   6.601
 5386POPC   C3A68357  39.782   2.179   6.926
 5386POPC   C4A68358  39.902   1.989   7.290
 5386POPC   C1B68359  40.406   2.308   6.209
 5386POPC   C2B68360  40.170   2.335   6.610
 5386POPC   C3B68361  40.288   2.225   7.033
 5386POPC   C4B68362  40.268   2.240   7.497
 5387POPC   NC368363  32.688  37.653   5.411
 5387POPC   PO468364  33.384  37.623   5.440
 5387POPC   GL168365  33.094  37.536   5.768
 5387POPC   GL268366  32.891  37.820   5.825
 5387POPC   C1A68367  33.204  37.459   6.197
 5387POPC   D2A68368  32.990  37.535   6.560
 5387POPC   C3A68369  33.155  37.575   6.952
 5387POPC   C4A68370  32.982  37.366   7.292
 5387POPC   C1B68371  32.946  37.914   6.206
 5387POPC   C2B68372  32.769  38.001   6.574
 5387POPC   C3B68373  32.900  38.060   6.979
 5387POPC   C4B68374  32.934  37.862   7.355
 5388POPC   NC368375  20.983  22.954   5.450
 5388POPC   PO468376  21.616  22.679   5.434
 5388POPC   GL168377  21.509  22.828   5.832
 5388POPC   GL268378  21.209  22.636   5.778
 5388POPC   C1A68379  21.545  23.007   6.272
 5388POPC   D2A68380  21.205  23.070   6.607
 5388POPC   C3A68381  21.333  23.035   7.003
 5388POPC   C4A68382  21.661  23.217   7.272
 5388POPC   C1B68383  21.082  22.824   6.166
 5388POPC   C2B68384  20.972  22.591   6.551
 5388POPC   C3B68385  21.076  22.494   6.969
 5388POPC   C4B68386  21.079  22.721   7.308
 5389POPC   NC368387   3.790  16.246   5.530
 5389POPC   PO468388   3.244  15.942   5.436
 5389POPC   GL168389   3.437  16.008   5.847
 5389POPC   GL268390   3.649  15.732   5.805
 5389POPC   C1A68391   3.589  16.084   6.286
 5389POPC   D2A68392   3.927  16.155   6.565
 5389POPC   C3A68393   3.770  16.069   6.937
 5389POPC   C4A68394   3.583  15.979   7.325
 5389POPC   C1B68395   3.443  15.596   6.211
 5389POPC   C2B68396   3.465  15.732   6.664
 5389POPC   C3B68397   3.406  15.564   7.094
 5389POPC   C4B68398   3.563  15.505   7.566
 5390POPC   NC368399   5.950  15.914   5.599
 5390POPC   PO468400   5.645  16.500   5.400
 5390POPC   GL168401   5.601  16.204   5.867
 5390POPC   GL268402   5.849  15.996   6.080
 5390POPC   C1A68403   5.414  16.059   6.311
 5390POPC   D2A68404   5.640  15.796   6.612
 5390POPC   C3A68405   5.634  16.006   6.981
 5390POPC   C4A68406   5.978  16.175   7.207
 5390POPC   C1B68407   6.164  15.738   6.271
 5390POPC   C2B68408   6.244  15.602   6.699
 5390POPC   C3B68409   5.984  15.654   7.064
 5390POPC   C4B68410   6.040  15.641   7.510
 5391POPC   NC368411   9.639   7.741   5.495
 5391POPC   PO468412   9.954   7.202   5.346
 5391POPC   GL168413   9.924   7.192   5.769
 5391POPC   GL268414   9.619   7.314   5.812
 5391POPC   C1A68415  10.137   7.177   6.164
 5391POPC   D2A68416  10.372   7.381   6.503
 5391POPC   C3A68417  10.100   7.412   6.861
 5391POPC   C4A68418   9.776   7.498   7.175
 5391POPC   C1B68419   9.666   7.514   6.227
 5391POPC   C2B68420   9.565   7.497   6.681
 5391POPC   C3B68421   9.364   7.768   7.043
 5391POPC   C4B68422   9.428   7.811   7.507
 5392POPC   NC368423  15.111  38.766   5.430
 5392POPC   PO468424  15.212  38.109   5.543
 5392POPC   GL168425  15.150  38.418   5.813
 5392POPC   GL268426  15.485  38.563   5.721
 5392POPC   C1A68427  15.037  38.537   6.222
 5392POPC   D2A68428  15.280  38.509   6.608
 5392POPC   C3A68429  15.104  38.291   6.934
 5392POPC   C4A68430  14.909  38.593   7.166
 5392POPC   C1B68431  15.555  38.409   6.154
 5392POPC   C2B68432  15.772  38.592   6.524
 5392POPC   C3B68433  15.698  38.537   6.960
 5392POPC   C4B68434  15.412  38.497   7.295
 5393POPC   NC368435   3.715  19.510   5.584
 5393POPC   PO468436   3.161  19.831   5.289
 5393POPC   GL168437   3.401  19.933   5.784
 5393POPC   GL268438   3.453  19.702   6.021
 5393POPC   C1A68439   3.659  20.106   6.227
 5393POPC   D2A68440   3.772  19.893   6.595
 5393POPC   C3A68441   3.735  20.120   6.951
 5393POPC   C4A68442   3.460  19.982   7.263
 5393POPC   C1B68443   3.195  19.909   6.331
 5393POPC   C2B68444   3.265  19.862   6.768
 5393POPC   C3B68445   3.172  19.578   7.094
 5393POPC   C4B68446   3.545  19.447   7.280
 5394POPC   NC368447   8.360  10.197   5.518
 5394POPC   PO468448   8.086   9.612   5.246
 5394POPC   GL168449   8.032   9.603   5.722
 5394POPC   GL268450   8.331   9.712   5.707
 5394POPC   C1A68451   7.956   9.539   6.177
 5394POPC   D2A68452   8.157   9.620   6.587
 5394POPC   C3A68453   7.975   9.650   7.030
 5394POPC   C4A68454   8.027   9.702   7.494
 5394POPC   C1B68455   8.458   9.735   6.128
 5394POPC   C2B68456   8.552   9.997   6.487
 5394POPC   C3B68457   8.407   9.960   6.882
 5394POPC   C4B68458   8.498   9.858   7.280
 5395POPC   NC368459  19.570  20.600   5.428
 5395POPC   PO468460  20.135  20.278   5.483
 5395POPC   GL168461  19.942  20.569   5.829
 5395POPC   GL268462  19.657  20.783   5.867
 5395POPC   C1A68463  19.973  20.744   6.249
 5395POPC   D2A68464  19.766  20.858   6.631
 5395POPC   C3A68465  20.002  20.800   7.042
 5395POPC   C4A68466  20.284  20.839   7.388
 5395POPC   C1B68467  19.412  20.688   6.220
 5395POPC   C2B68468  19.310  20.466   6.573
 5395POPC   C3B68469  19.489  20.524   6.939
 5395POPC   C4B68470  19.531  20.816   7.218
 5396POPC   NC368471  33.776  16.288   5.660
 5396POPC   PO468472  33.682  16.945   5.442
 5396POPC   GL168473  33.942  16.864   5.839
 5396POPC   GL268474  34.175  16.569   5.833
 5396POPC   C1A68475  33.897  17.047   6.286
 5396POPC   D2A68476  33.526  17.009   6.581
 5396POPC   C3A68477  33.630  16.977   7.002
 5396POPC   C4A68478  33.978  16.798   7.139
 5396POPC   C1B68479  33.967  16.543   6.266
 5396POPC   C2B68480  33.809  16.577   6.689
 5396POPC   C3B68481  33.746  16.349   7.067
 5396POPC   C4B68482  33.918  16.411   7.532
 5397POPC   NC368483  27.989  19.077   5.270
 5397POPC   PO468484  27.417  18.808   5.195
 5397POPC   GL168485  27.543  18.907   5.648
 5397POPC   GL268486  27.733  19.246   5.729
 5397POPC   C1A68487  27.642  18.878   6.109
 5397POPC   D2A68488  27.814  19.001   6.516
 5397POPC   C3A68489  27.599  18.941   6.905
 5397POPC   C4A68490  27.375  19.020   7.246
 5397POPC   C1B68491  27.672  19.446   6.168
 5397POPC   C2B68492  27.847  19.513   6.592
 5397POPC   C3B68493  27.661  19.432   7.020
 5397POPC   C4B68494  27.766  19.299   7.461
 5398POPC   NC368495  16.912  35.180   5.065
 5398POPC   PO468496  16.491  35.429   5.547
 5398POPC   GL168497  16.613  35.600   5.902
 5398POPC   GL268498  16.334  35.813   5.901
 5398POPC   C1A68499  16.911  35.392   6.200
 5398POPC   D2A68500  16.994  35.066   6.509
 5398POPC   C3A68501  16.926  35.279   6.881
 5398POPC   C4A68502  16.781  35.196   7.264
 5398POPC   C1B68503  16.221  35.599   6.231
 5398POPC   C2B68504  16.460  35.332   6.468
 5398POPC   C3B68505  16.428  35.316   6.888
 5398POPC   C4B68506  16.308  35.464   7.248
 5399POPC   NC368507  16.140  13.565   5.165
 5399POPC   PO468508  15.697  13.356   5.464
 5399POPC   GL168509  16.037  13.538   5.695
 5399POPC   GL268510  15.968  13.869   5.826
 5399POPC   C1A68511  15.998  13.461   6.141
 5399POPC   D2A68512  15.912  13.760   6.480
 5399POPC   C3A68513  15.832  13.571   6.877
 5399POPC   C4A68514  16.102  13.333   7.156
 5399POPC   C1B68515  16.332  13.835   6.122
 5399POPC   C2B68516  16.487  13.957   6.509
 5399POPC   C3B68517  16.263  13.859   6.870
 5399POPC   C4B68518  16.021  13.853   7.281
 5400POPC   NC368519   5.799   9.621   5.612
 5400POPC   PO468520   5.449  10.116   5.338
 5400POPC   GL168521   5.571  10.100   5.792
 5400POPC   GL268522   5.945  10.026   5.899
 5400POPC   C1A68523   5.563   9.946   6.229
 5400POPC   D2A68524   5.688   9.605   6.499
 5400POPC   C3A68525   5.702   9.741   6.934
 5400POPC   C4A68526   5.791   9.954   7.328
 5400POPC   C1B68527   6.111   9.844   6.346
 5400POPC   C2B68528   6.128   9.504   6.740
 5400POPC   C3B68529   6.093   9.526   7.239
 5400POPC   C4B68530   6.249   9.482   7.723
 5401POPC   NC368531  15.446  41.579   5.447
 5401POPC   PO468532  14.793  41.757   5.474
 5401POPC   GL168533  15.028  41.541   5.784
 5401POPC   GL268534  15.227  41.797   5.851
 5401POPC   C1A68535  15.056  41.498   6.224
 5401POPC   D2A68536  14.868  41.573   6.617
 5401POPC   C3A68537  15.009  41.319   6.970
 5401POPC   C4A68538  15.288  41.375   7.325
 5401POPC   C1B68539  15.241  42.010   6.214
 5401POPC   C2B68540  15.108  42.034   6.599
 5401POPC   C3B68541  15.137  41.855   6.965
 5401POPC   C4B68542  15.210  41.985   7.357
 5402POPC   NC368543  34.289  26.257   5.401
 5402POPC   PO468544  34.853  26.032   5.164
 5402POPC   GL168545  34.667  26.030   5.651
 5402POPC   GL268546  34.548  26.358   5.831
 5402POPC   C1A68547  34.527  25.941   6.119
 5402POPC   D2A68548  34.482  25.850   6.601
 5402POPC   C3A68549  34.742  26.069   6.934
 5402POPC   C4A68550  34.754  26.324   7.305
 5402POPC   C1B68551  34.157  26.464   6.077
 5402POPC   C2B68552  34.004  26.376   6.516
 5402POPC   C3B68553  34.259  26.286   6.873
 5402POPC   C4B68554  34.313  26.551   7.238
 5403POPC   NC368555  44.469  24.008   4.978
 5403POPC   PO468556  44.820  23.600   5.373
 5403POPC   GL168557  44.717  23.832   5.798
 5403POPC   GL268558  44.399  24.043   5.777
 5403POPC   C1A68559  44.884  23.774   6.251
 5403POPC   D2A68560  44.774  23.550   6.633
 5403POPC   C3A68561  44.810  23.770   7.000
 5403POPC   C4A68562   0.063  23.545   7.221
 5403POPC   C1B68563  44.369  23.851   6.198
 5403POPC   C2B68564  44.485  23.965   6.612
 5403POPC   C3B68565  44.331  23.914   7.057
 5403POPC   C4B68566  44.549  23.853   7.476
 5404POPC   NC368567  21.449  22.247   5.410
 5404POPC   PO468568  20.804  22.096   5.453
 5404POPC   GL168569  21.138  22.133   5.816
 5404POPC   GL268570  21.536  22.075   5.873
 5404POPC   C1A68571  21.276  22.346   6.211
 5404POPC   D2A68572  21.281  22.193   6.623
 5404POPC   C3A68573  21.538  22.255   6.996
 5404POPC   C4A68574  21.434  22.354   7.412
 5404POPC   C1B68575  21.455  21.851   6.282
 5404POPC   C2B68576  21.420  21.729   6.737
 5404POPC   C3B68577  21.345  21.824   7.185
 5404POPC   C4B68578  21.693  21.919   7.484
 5405POPC   NC368579   4.631  29.832   5.477
 5405POPC   PO468580   3.965  29.872   5.456
 5405POPC   GL168581   4.186  29.853   5.834
 5405POPC   GL268582   4.460  29.632   5.914
 5405POPC   C1A68583   4.034  29.978   6.222
 5405POPC   D2A68584   4.023  30.168   6.604
 5405POPC   C3A68585   4.067  29.904   6.930
 5405POPC   C4A68586   4.342  29.910   7.252
 5405POPC   C1B68587   4.596  29.984   6.148
 5405POPC   C2B68588   4.492  29.960   6.568
 5405POPC   C3B68589   4.499  29.603   6.845
 5405POPC   C4B68590   4.759  29.606   7.188
 5406POPC   NC368591  26.363  24.380   5.702
 5406POPC   PO468592  25.807  24.417   5.300
 5406POPC   GL168593  25.738  24.410   5.735
 5406POPC   GL268594  25.919  24.122   5.733
 5406POPC   C1A68595  25.902  24.517   6.162
 5406POPC   D2A68596  25.981  24.419   6.610
 5406POPC   C3A68597  25.759  24.745   6.837
 5406POPC   C4A68598  25.693  24.866   7.270
 5406POPC   C1B68599  25.830  24.014   6.159
 5406POPC   C2B68600  25.653  24.007   6.567
 5406POPC   C3B68601  25.821  23.987   6.976
 5406POPC   C4B68602  25.899  24.391   7.162
 5407POPC   NC368603   9.191   4.396   5.381
 5407POPC   PO468604   8.537   4.412   5.404
 5407POPC   GL168605   8.792   4.308   5.798
 5407POPC   GL268606   9.075   4.089   5.777
 5407POPC   C1A68607   8.861   4.128   6.232
 5407POPC   D2A68608   8.872   4.376   6.615
 5407POPC   C3A68609   8.974   4.119   6.956
 5407POPC   C4A68610   8.762   4.141   7.328
 5407POPC   C1B68611   9.249   4.393   6.078
 5407POPC   C2B68612   9.362   4.339   6.528
 5407POPC   C3B68613   9.280   4.521   6.939
 5407POPC   C4B68614   9.226   4.357   7.357
 5408POPC   NC368615  38.638  35.894   5.146
 5408POPC   PO468616  38.161  36.183   5.559
 5408POPC   GL168617  38.457  36.283   5.843
 5408POPC   GL268618  38.593  35.955   5.827
 5408POPC   C1A68619  38.627  36.281   6.268
 5408POPC   D2A68620  38.630  36.461   6.694
 5408POPC   C3A68621  38.512  36.191   7.046
 5408POPC   C4A68622  38.217  36.119   7.352
 5408POPC   C1B68623  38.265  35.910   6.171
 5408POPC   C2B68624  38.307  35.915   6.608
 5408POPC   C3B68625  38.113  35.808   6.970
 5408POPC   C4B68626  38.338  35.648   7.311
 5409POPC   NC368627   4.549  33.974   5.571
 5409POPC   PO468628   4.204  33.416   5.216
 5409POPC   GL168629   4.276  33.555   5.690
 5409POPC   GL268630   4.056  33.823   5.814
 5409POPC   C1A68631   4.454  33.642   6.148
 5409POPC   D2A68632   4.346  33.418   6.543
 5409POPC   C3A68633   4.407  33.570   6.969
 5409POPC   C4A68634   4.177  33.559   7.385
 5409POPC   C1B68635   4.088  34.018   6.227
 5409POPC   C2B68636   4.283  33.932   6.615
 5409POPC   C3B68637   4.208  34.038   7.023
 5409POPC   C4B68638   3.858  33.948   7.280
 5410POPC   NC368639  38.052   1.630   5.518
 5410POPC   PO468640  38.485   2.094   5.307
 5410POPC   GL168641  38.655   2.092   5.744
 5410POPC   GL268642  38.487   1.804   5.776
 5410POPC   C1A68643  38.532   2.197   6.167
 5410POPC   D2A68644  38.275   2.303   6.541
 5410POPC   C3A68645  38.458   2.209   6.946
 5410POPC   C4A68646  38.521   2.021   7.338
 5410POPC   C1B68647  38.596   1.673   6.154
 5410POPC   C2B68648  38.551   1.851   6.558
 5410POPC   C3B68649  38.603   1.699   6.935
 5410POPC   C4B68650  38.933   1.726   7.209
 5411POPC   NC368651   2.267  24.159   5.635
 5411POPC   PO468652   1.780  24.604   5.611
 5411POPC   GL168653   1.977  24.450   5.913
 5411POPC   GL268654   2.293  24.657   5.899
 5411POPC   C1A68655   2.145  24.377   6.282
 5411POPC   D2A68656   2.142  24.580   6.623
 5411POPC   C3A68657   1.844  24.318   6.775
 5411POPC   C4A68658   1.815  24.353   7.151
 5411POPC   C1B68659   1.985  24.870   6.200
 5411POPC   C2B68660   1.872  25.019   6.602
 5411POPC   C3B68661   1.814  24.843   6.987
 5411POPC   C4B68662   2.189  24.761   7.186
 5412POPC   NC368663   9.966  15.474   5.171
 5412POPC   PO468664   9.536  15.966   5.410
 5412POPC   GL168665   9.450  15.803   5.861
 5412POPC   GL268666   9.339  15.477   5.724
 5412POPC   C1A68667   9.582  15.815   6.358
 5412POPC   D2A68668   9.722  16.113   6.752
 5412POPC   C3A68669   9.941  16.328   7.142
 5412POPC   C4A68670   9.819  16.507   7.583
 5412POPC   C1B68671   9.241  15.455   6.196
 5412POPC   C2B68672   9.229  15.536   6.650
 5412POPC   C3B68673   9.521  15.674   6.979
 5412POPC   C4B68674   9.963  15.684   7.161
 5413POPC   NC368675  27.103  24.303   5.286
 5413POPC   PO468676  26.575  24.702   5.417
 5413POPC   GL168677  26.717  24.703   5.863
 5413POPC   GL268678  27.072  24.550   5.866
 5413POPC   C1A68679  26.834  24.821   6.258
 5413POPC   D2A68680  27.138  24.611   6.505
 5413POPC   C3A68681  26.980  24.562   6.933
 5413POPC   C4A68682  27.041  24.213   7.198
 5413POPC   C1B68683  26.832  24.316   6.225
 5413POPC   C2B68684  26.596  24.482   6.572
 5413POPC   C3B68685  26.401  24.443   6.952
 5413POPC   C4B68686  26.303  24.086   7.169
 5414POPC   NC368687   2.172  16.062   5.429
 5414POPC   PO468688   1.531  15.764   5.339
 5414POPC   GL168689   1.825  15.848   5.772
 5414POPC   GL268690   2.081  16.128   5.923
 5414POPC   C1A68691   2.042  15.738   6.230
 5414POPC   D2A68692   1.957  16.004   6.605
 5414POPC   C3A68693   2.073  15.956   7.056
 5414POPC   C4A68694   1.879  16.086   7.430
 5414POPC   C1B68695   2.304  16.300   6.316
 5414POPC   C2B68696   2.354  16.315   6.781
 5414POPC   C3B68697   2.327  16.370   7.254
 5414POPC   C4B68698   2.261  16.366   7.697
 5415POPC   NC368699  20.272  36.417   5.371
 5415POPC   PO468700  20.940  36.312   5.499
 5415POPC   GL168701  20.727  36.107   5.814
 5415POPC   GL268702  20.359  36.082   5.851
 5415POPC   C1A68703  20.726  36.069   6.241
 5415POPC   D2A68704  20.481  36.277   6.561
 5415POPC   C3A68705  20.656  36.162   6.942
 5415POPC   C4A68706  20.852  36.218   7.307
 5415POPC   C1B68707  20.259  35.902   6.297
 5415POPC   C2B68708  20.400  35.771   6.704
 5415POPC   C3B68709  20.220  35.799   7.103
 5415POPC   C4B68710  20.348  36.065   7.438
 5416POPC   NC368711  44.495   1.671   5.494
 5416POPC   PO468712  44.625   2.111   5.045
 5416POPC   GL168713  44.626   2.133   5.632
 5416POPC   GL268714  44.664   1.855   5.935
 5416POPC   C1A68715  44.519   2.285   6.093
 5416POPC   D2A68716  44.527   2.031   6.444
 5416POPC   C3A68717  44.593   2.259   6.813
 5416POPC   C4A68718  44.572   2.185   7.258
 5416POPC   C1B68719  44.398   1.571   6.167
 5416POPC   C2B68720  44.496   1.489   6.583
 5416POPC   C3B68721  44.510   1.776   6.916
 5416POPC   C4B68722  44.740   1.632   7.259
 5417POPC   NC368723  40.284  42.683   5.377
 5417POPC   PO468724  39.973  42.140   5.502
 5417POPC   GL168725  39.877  42.384   5.836
 5417POPC   GL268726  40.234  42.436   5.884
 5417POPC   C1A68727  39.688  42.306   6.244
 5417POPC   D2A68728  39.773  42.495   6.657
 5417POPC   C3A68729  40.047  42.329   6.989
 5417POPC   C4A68730  39.938  42.337   7.441
 5417POPC   C1B68731  40.201  42.430   6.329
 5417POPC   C2B68732  40.270  42.713   6.646
 5417POPC   C3B68733  40.371  42.756   7.046
 5417POPC   C4B68734  40.407  42.477   7.336
 5418POPC   NC368735  19.864  24.732   5.214
 5418POPC   PO468736  19.577  24.191   5.429
 5418POPC   GL168737  19.791  24.410   5.758
 5418POPC   GL268738  19.479  24.537   5.892
 5418POPC   C1A68739  19.925  24.668   6.126
 5418POPC   D2A68740  20.078  24.740   6.562
 5418POPC   C3A68741  19.841  24.532   6.906
 5418POPC   C4A68742  19.991  24.509   7.356
 5418POPC   C1B68743  19.619  24.249   6.213
 5418POPC   C2B68744  19.789  24.052   6.562
 5418POPC   C3B68745  19.623  23.979   6.931
 5418POPC   C4B68746  19.606  24.213   7.254
 5419POPC   NC368747  24.270  29.325   5.434
 5419POPC   PO468748  24.948  29.444   5.476
 5419POPC   GL168749  24.614  29.426   5.824
 5419POPC   GL268750  24.495  29.081   5.831
 5419POPC   C1A68751  24.530  29.270   6.280
 5419POPC   D2A68752  24.353  29.091   6.641
 5419POPC   C3A68753  24.530  29.274   7.009
 5419POPC   C4A68754  24.326  29.197   7.376
 5419POPC   C1B68755  24.780  28.788   6.050
 5419POPC   C2B68756  24.783  28.611   6.475
 5419POPC   C3B68757  24.607  28.692   6.909
 5419POPC   C4B68758  24.743  28.641   7.335
 5420POPC   NC368759   4.462   6.162   5.386
 5420POPC   PO468760   4.872   6.678   5.140
 5420POPC   GL168761   4.638   6.555   5.641
 5420POPC   GL268762   4.327   6.751   5.775
 5420POPC   C1A68763   4.548   6.492   6.132
 5420POPC   D2A68764   4.536   6.631   6.581
 5420POPC   C3A68765   4.270   6.395   6.856
 5420POPC   C4A68766   4.120   6.347   7.304
 5420POPC   C1B68767   4.033   6.530   6.119
 5420POPC   C2B68768   3.859   6.387   6.532
 5420POPC   C3B68769   3.790   6.581   6.933
 5420POPC   C4B68770   3.948   6.844   7.276
 5421POPC   NC368771  42.965  15.767   5.412
 5421POPC   PO468772  42.627  16.341   5.219
 5421POPC   GL168773  42.809  16.183   5.686
 5421POPC   GL268774  43.183  16.041   5.789
 5421POPC   C1A68775  42.855  16.075   6.164
 5421POPC   D2A68776  42.726  15.972   6.579
 5421POPC   C3A68777  42.956  16.003   6.929
 5421POPC   C4A68778  43.290  16.217   7.121
 5421POPC   C1B68779  43.277  15.765   6.186
 5421POPC   C2B68780  43.234  15.662   6.656
 5421POPC   C3B68781  43.321  15.676   7.125
 5421POPC   C4B68782  43.465  15.664   7.567
 5422POPC   NC368783  15.510  35.075   5.021
 5422POPC   PO468784  14.981  35.008   5.412
 5422POPC   GL168785  15.125  35.263   5.775
 5422POPC   GL268786  15.018  35.595   5.848
 5422POPC   C1A68787  15.213  35.199   6.221
 5422POPC   D2A68788  15.501  35.149   6.599
 5422POPC   C3A68789  15.453  35.292   7.021
 5422POPC   C4A68790  15.282  35.132   7.362
 5422POPC   C1B68791  15.168  35.705   6.247
 5422POPC   C2B68792  15.244  35.607   6.673
 5422POPC   C3B68793  15.049  35.643   7.090
 5422POPC   C4B68794  15.074  35.551   7.544
 5423POPC   NC368795  42.592  19.997   5.441
 5423POPC   PO468796  42.380  19.357   5.448
 5423POPC   GL168797  42.421  19.643   5.775
 5423POPC   GL268798  42.168  19.924   5.733
 5423POPC   C1A68799  42.479  19.826   6.172
 5423POPC   D2A68800  42.397  19.961   6.598
 5423POPC   C3A68801  42.482  19.701   6.961
 5423POPC   C4A68802  42.511  19.795   7.368
 5423POPC   C1B68803  41.999  19.690   6.064
 5423POPC   C2B68804  41.957  19.615   6.472
 5423POPC   C3B68805  41.978  19.799   6.848
 5423POPC   C4B68806  42.048  19.592   7.218
 5424POPC   NC368807  17.161  15.832   5.562
 5424POPC   PO468808  17.777  15.840   5.666
 5424POPC   GL168809  17.633  16.128   5.948
 5424POPC   GL268810  17.286  16.283   5.871
 5424POPC   C1A68811  17.682  15.973   6.360
 5424POPC   D2A68812  17.587  15.708   6.669
 5424POPC   C3A68813  17.707  15.865   7.036
 5424POPC   C4A68814  17.514  16.188   7.311
 5424POPC   C1B68815  17.200  15.965   6.200
 5424POPC   C2B68816  17.074  15.730   6.566
 5424POPC   C3B68817  17.183  15.860   6.960
 5424POPC   C4B68818  17.300  15.720   7.315
 5425POPC   NC368819  22.636  44.795   5.190
 5425POPC   PO468820  21.949  44.715   5.385
 5425POPC   GL168821  22.126  44.543   5.793
 5425POPC   GL268822  22.072  44.813   5.996
 5425POPC   C1A68823  22.401  44.491   6.208
 5425POPC   D2A68824  22.411  44.695   6.657
 5425POPC   C3A68825  22.316  44.427   7.034
 5425POPC   C4A68826  22.359  44.300   7.483
 5425POPC   C1B68827  21.882  44.520   6.292
 5425POPC   C2B68828  21.904  44.562   6.738
 5425POPC   C3B68829  21.778  44.548   7.153
 5425POPC   C4B68830  21.766  44.357   7.583
 5426POPC   NC368831   2.066   3.407   5.435
 5426POPC   PO468832   2.111   3.993   5.525
 5426POPC   GL168833   2.243   3.690   5.871
 5426POPC   GL268834   2.181   3.312   5.938
 5426POPC   C1A68835   2.052   3.631   6.301
 5426POPC   D2A68836   2.055   3.350   6.635
 5426POPC   C3A68837   1.967   3.529   7.022
 5426POPC   C4A68838   2.128   3.501   7.415
 5426POPC   C1B68839   1.796   3.174   6.130
 5426POPC   C2B68840   1.599   3.164   6.527
 5426POPC   C3B68841   1.775   3.056   7.002
 5426POPC   C4B68842   1.734   3.138   7.491
 5427POPC   NC368843  38.297  21.076   5.389
 5427POPC   PO468844  38.261  20.397   5.459
 5427POPC   GL168845  38.454  20.676   5.764
 5427POPC   GL268846  38.349  20.416   5.979
 5427POPC   C1A68847  38.546  20.828   6.213
 5427POPC   D2A68848  38.348  20.838   6.644
 5427POPC   C3A68849  38.572  20.802   7.037
 5427POPC   C4A68850  38.664  20.488   7.377
 5427POPC   C1B68851  38.059  20.569   6.294
 5427POPC   C2B68852  38.018  20.325   6.640
 5427POPC   C3B68853  38.266  20.384   7.000
 5427POPC   C4B68854  38.238  20.212   7.387
 5428POPC   NC368855  28.972  39.178   5.394
 5428POPC   PO468856  29.624  39.300   5.368
 5428POPC   GL168857  29.315  39.129   5.758
 5428POPC   GL268858  28.926  39.052   5.873
 5428POPC   C1A68859  29.277  39.147   6.227
 5428POPC   D2A68860  29.002  39.044   6.610
 5428POPC   C3A68861  29.215  38.966   7.037
 5428POPC   C4A68862  29.128  39.125   7.452
 5428POPC   C1B68863  28.781  39.413   6.158
 5428POPC   C2B68864  28.704  39.525   6.616
 5428POPC   C3B68865  28.830  39.347   7.031
 5428POPC   C4B68866  28.813  39.516   7.461
 5429POPC   NC368867  22.716  39.809   5.449
 5429POPC   PO468868  22.909  40.430   5.298
 5429POPC   GL168869  22.985  40.186   5.730
 5429POPC   GL268870  23.115  39.837   5.786
 5429POPC   C1A68871  22.879  40.143   6.190
 5429POPC   D2A68872  22.819  40.051   6.649
 5429POPC   C3A68873  23.024  40.171   7.062
 5429POPC   C4A68874  22.765  39.976   7.389
 5429POPC   C1B68875  23.209  39.705   6.209
 5429POPC   C2B68876  22.960  39.576   6.560
 5429POPC   C3B68877  22.974  39.666   6.982
 5429POPC   C4B68878  23.089  39.585   7.368
 5430POPC   NC368879  36.583  24.927   5.618
 5430POPC   PO468880  36.032  25.272   5.652
 5430POPC   GL168881  35.944  24.933   5.917
 5430POPC   GL268882  36.281  25.030   6.048
 5430POPC   C1A68883  35.910  24.877   6.356
 5430POPC   D2A68884  35.945  25.201   6.666
 5430POPC   C3A68885  35.857  25.272   7.079
 5430POPC   C4A68886  36.070  25.581   7.336
 5430POPC   C1B68887  36.310  25.398   6.370
 5430POPC   C2B68888  36.381  25.466   6.845
 5430POPC   C3B68889  36.419  25.234   7.224
 5430POPC   C4B68890  36.709  25.024   7.522
 5431POPC   NC368891  35.205  18.308   5.470
 5431POPC   PO468892  35.809  18.510   5.408
 5431POPC   GL168893  35.581  18.369   5.816
 5431POPC   GL268894  35.397  18.055   5.918
 5431POPC   C1A68895  35.297  18.462   6.201
 5431POPC   D2A68896  35.157  18.611   6.637
 5431POPC   C3A68897  35.220  18.431   7.058
 5431POPC   C4A68898  35.213  18.385   7.526
 5431POPC   C1B68899  35.632  18.070   6.338
 5431POPC   C2B68900  35.518  18.035   6.831
 5431POPC   C3B68901  35.178  17.943   7.195
 5431POPC   C4B68902  35.114  17.894   7.680
 5432POPC   NC368903   3.443  26.798   5.296
 5432POPC   PO468904   3.850  27.027   5.662
 5432POPC   GL168905   3.496  26.820   5.825
 5432POPC   GL268906   3.599  26.509   5.693
 5432POPC   C1A68907   3.297  26.881   6.229
 5432POPC   D2A68908   3.132  26.691   6.592
 5432POPC   C3A68909   3.300  26.871   6.952
 5432POPC   C4A68910   3.612  26.835   7.251
 5432POPC   C1B68911   3.769  26.519   6.137
 5432POPC   C2B68912   3.625  26.556   6.544
 5432POPC   C3B68913   3.807  26.432   6.903
 5432POPC   C4B68914   3.960  26.448   7.290
 5433POPC   NC368915  16.401   4.277   5.614
 5433POPC   PO468916  17.046   4.644   5.474
 5433POPC   GL168917  16.913   4.303   5.728
 5433POPC   GL268918  16.725   4.503   5.968
 5433POPC   C1A68919  16.917   4.069   6.146
 5433POPC   D2A68920  16.683   4.254   6.507
 5433POPC   C3A68921  16.848   4.422   6.890
 5433POPC   C4A68922  16.796   4.249   7.281
 5433POPC   C1B68923  16.409   4.638   6.287
 5433POPC   C2B68924  16.399   4.625   6.740
 5433POPC   C3B68925  16.339   4.293   7.038
 5433POPC   C4B68926  16.169   4.427   7.422
 5434POPC   NC368927   7.840  13.360   5.667
 5434POPC   PO468928   8.326  12.949   5.419
 5434POPC   GL168929   8.301  13.148   5.799
 5434POPC   GL268930   8.012  12.887   5.850
 5434POPC   C1A68931   8.339  13.055   6.228
 5434POPC   D2A68932   8.153  12.711   6.451
 5434POPC   C3A68933   8.196  12.752   6.880
 5434POPC   C4A68934   8.446  12.989   7.172
 5434POPC   C1B68935   7.804  13.029   6.212
 5434POPC   C2B68936   7.907  13.133   6.590
 5434POPC   C3B68937   7.717  13.099   6.959
 5434POPC   C4B68938   7.946  13.123   7.295
 5435POPC   NC368939   2.193   7.134   5.325
 5435POPC   PO468940   1.944   7.732   5.274
 5435POPC   GL168941   2.043   7.578   5.719
 5435POPC   GL268942   2.235   7.290   5.791
 5435POPC   C1A68943   1.839   7.310   6.095
 5435POPC   D2A68944   1.750   7.103   6.516
 5435POPC   C3A68945   1.826   7.394   6.860
 5435POPC   C4A68946   1.892   7.309   7.287
 5435POPC   C1B68947   2.318   7.523   6.159
 5435POPC   C2B68948   2.240   7.301   6.530
 5435POPC   C3B68949   2.365   7.395   6.929
 5435POPC   C4B68950   2.173   7.712   7.173
 5436POPC   NC368951  35.114  27.608   5.412
 5436POPC   PO468952  35.718  27.814   5.366
 5436POPC   GL168953  35.528  27.554   5.684
 5436POPC   GL268954  35.448  27.844   5.819
 5436POPC   C1A68955  35.506  27.401   6.120
 5436POPC   D2A68956  35.297  27.334   6.518
 5436POPC   C3A68957  35.493  27.427   6.924
 5436POPC   C4A68958  35.131  27.661   7.018
 5436POPC   C1B68959  35.305  27.883   6.225
 5436POPC   C2B68960  35.431  27.860   6.629
 5436POPC   C3B68961  35.561  27.990   7.032
 5436POPC   C4B68962  35.212  28.093   7.278
 5437POPC   NC368963  16.767   2.399   5.425
 5437POPC   PO468964  16.587   3.140   5.405
 5437POPC   GL168965  16.558   2.847   5.694
 5437POPC   GL268966  16.907   2.815   5.733
 5437POPC   C1A68967  16.543   2.929   6.112
 5437POPC   D2A68968  16.673   2.878   6.525
 5437POPC   C3A68969  16.653   3.019   6.937
 5437POPC   C4A68970  16.716   2.738   7.256
 5437POPC   C1B68971  17.067   2.866   6.168
 5437POPC   C2B68972  17.216   2.856   6.582
 5437POPC   C3B68973  17.136   2.614   6.939
 5437POPC   C4B68974  17.203   2.667   7.370
 5438POPC   NC368975  28.531  37.999   5.327
 5438POPC   PO468976  28.148  37.472   5.573
 5438POPC   GL168977  28.425  37.764   5.769
 5438POPC   GL268978  28.156  37.950   5.775
 5438POPC   C1A68979  28.593  37.692   6.162
 5438POPC   D2A68980  28.446  37.848   6.573
 5438POPC   C3A68981  28.584  37.564   6.877
 5438POPC   C4A68982  28.540  37.318   7.238
 5438POPC   C1B68983  28.098  37.741   6.180
 5438POPC   C2B68984  27.923  37.722   6.584
 5438POPC   C3B68985  28.087  37.585   6.937
 5438POPC   C4B68986  28.261  37.767   7.260
 5439POPC   NC368987  21.195  17.338   5.547
 5439POPC   PO468988  21.971  17.491   5.472
 5439POPC   GL168989  21.704  17.537   5.823
 5439POPC   GL268990  21.412  17.720   5.773
 5439POPC   C1A68991  21.622  17.387   6.223
 5439POPC   D2A68992  21.433  17.529   6.585
 5439POPC   C3A68993  21.618  17.431   6.951
 5439POPC   C4A68994  21.541  17.316   7.351
 5439POPC   C1B68995  21.373  17.834   6.178
 5439POPC   C2B68996  21.047  17.846   6.549
 5439POPC   C3B68997  21.190  17.744   6.977
 5439POPC   C4B68998  21.494  17.815   7.315
 5440POPC   NC368999  27.851  16.056   5.307
 5440POPC   PO469000  27.815  15.526   5.565
 5440POPC   GL169001  27.830  15.915   5.831
 5440POPC   GL269002  27.606  16.199   5.779
 5440POPC   C1A69003  27.807  16.074   6.265
 5440POPC   D2A69004  27.709  16.221   6.697
 5440POPC   C3A69005  27.713  15.845   6.971
 5440POPC   C4A69006  27.694  15.773   7.428
 5440POPC   C1B69007  27.372  15.880   6.065
 5440POPC   C2B69008  27.396  15.831   6.521
 5440POPC   C3B69009  27.223  16.010   6.916
 5440POPC   C4B69010  27.315  16.100   7.346
 5441POPC   NC369011   6.228   3.676   5.419
 5441POPC   PO469012   5.670   3.440   5.680
 5441POPC   GL169013   5.962   3.606   5.987
 5441POPC   GL269014   6.331   3.534   5.897
 5441POPC   C1A69015   5.988   3.834   6.402
 5441POPC   D2A69016   6.161   3.716   6.824
 5441POPC   C3A69017   5.888   3.786   7.204
 5441POPC   C4A69018   5.883   3.981   7.615
 5441POPC   C1B69019   6.258   3.368   6.304
 5441POPC   C2B69020   5.883   3.355   6.532
 5441POPC   C3B69021   5.765   3.328   6.954
 5441POPC   C4B69022   6.097   3.321   7.223
 5442POPC   NC369023   7.241  34.593   5.728
 5442POPC   PO469024   7.756  34.119   5.634
 5442POPC   GL169025   7.649  34.393   5.976
 5442POPC   GL269026   7.679  34.753   5.929
 5442POPC   C1A69027   7.318  34.387   6.339
 5442POPC   D2A69028   7.501  34.313   6.744
 5442POPC   C3A69029   7.303  34.536   7.095
 5442POPC   C4A69030   7.230  34.349   7.484
 5442POPC   C1B69031   7.692  34.704   6.381
 5442POPC   C2B69032   7.586  34.831   6.761
 5442POPC   C3B69033   7.816  34.594   7.049
 5442POPC   C4B69034   7.706  34.565   7.495
 5443POPC   NC369035  33.445  37.984   5.125
 5443POPC   PO469036  33.776  38.457   5.503
 5443POPC   GL169037  33.624  38.565   5.882
 5443POPC   GL269038  33.355  38.757   5.805
 5443POPC   C1A69039  33.729  38.439   6.280
 5443POPC   D2A69040  33.562  38.393   6.660
 5443POPC   C3A69041  33.789  38.429   7.031
 5443POPC   C4A69042  33.806  38.140   7.381
 5443POPC   C1B69043  33.394  38.853   6.274
 5443POPC   C2B69044  33.439  38.866   6.744
 5443POPC   C3B69045  33.496  38.864   7.183
 5443POPC   C4B69046  33.583  38.573   7.510
 5444POPC   NC369047  38.499  28.599   5.157
 5444POPC   PO469048  38.506  27.932   5.384
 5444POPC   GL169049  38.496  28.186   5.779
 5444POPC   GL269050  38.221  28.448   5.808
 5444POPC   C1A69051  38.635  28.321   6.214
 5444POPC   D2A69052  38.809  28.435   6.646
 5444POPC   C3A69053  38.753  28.261   7.080
 5444POPC   C4A69054  38.669  28.331   7.539
 5444POPC   C1B69055  38.109  28.241   6.219
 5444POPC   C2B69056  38.293  28.307   6.618
 5444POPC   C3B69057  38.359  28.565   6.962
 5444POPC   C4B69058  38.213  28.468   7.362
 5445POPC   NC369059  34.405  11.568   5.409
 5445POPC   PO469060  34.449  10.913   5.479
 5445POPC   GL169061  34.683  11.007   5.842
 5445POPC   GL269062  34.589  11.356   5.837
 5445POPC   C1A69063  34.802  11.160   6.257
 5445POPC   D2A69064  34.612  11.228   6.662
 5445POPC   C3A69065  34.796  11.212   7.082
 5445POPC   C4A69066  34.713  11.239   7.566
 5445POPC   C1B69067  34.477  11.571   6.218
 5445POPC   C2B69068  34.204  11.521   6.562
 5445POPC   C3B69069  34.318  11.475   6.998
 5445POPC   C4B69070  34.276  11.608   7.412
 5446POPC   NC369071   5.430  29.878   5.354
 5446POPC   PO469072   4.883  30.263   5.518
 5446POPC   GL169073   5.108  30.070   5.875
 5446POPC   GL269074   5.004  29.735   5.887
 5446POPC   C1A69075   5.084  29.986   6.346
 5446POPC   D2A69076   4.962  29.844   6.758
 5446POPC   C3A69077   5.085  30.024   7.154
 5446POPC   C4A69078   5.205  30.255   7.534
 5446POPC   C1B69079   5.440  29.704   6.109
 5446POPC   C2B69080   5.609  29.723   6.522
 5446POPC   C3B69081   5.447  29.746   6.928
 5446POPC   C4B69082   5.252  29.460   7.199
 5447POPC   NC369083   9.614  34.531   5.349
 5447POPC   PO469084  10.342  34.250   5.421
 5447POPC   GL169085   9.922  34.284   5.714
 5447POPC   GL269086   9.745  34.605   5.840
 5447POPC   C1A69087   9.890  34.306   6.216
 5447POPC   D2A69088  10.112  34.329   6.643
 5447POPC   C3A69089   9.884  34.301   7.046
 5447POPC   C4A69090   9.459  34.429   7.114
 5447POPC   C1B69091   9.774  34.830   6.272
 5447POPC   C2B69092   9.659  34.799   6.755
 5447POPC   C3B69093   9.816  34.777   7.203
 5447POPC   C4B69094  10.131  34.684   7.533
 5448POPC   NC369095  20.590  43.074   5.453
 5448POPC   PO469096  21.147  43.503   5.571
 5448POPC   GL169097  20.910  43.196   5.823
 5448POPC   GL269098  20.896  42.828   5.763
 5448POPC   C1A69099  20.675  43.096   6.189
 5448POPC   D2A69100  20.721  43.238   6.591
 5448POPC   C3A69101  20.382  43.343   6.853
 5448POPC   C4A69102  20.470  43.320   7.288
 5448POPC   C1B69103  20.980  42.690   6.151
 5448POPC   C2B69104  20.732  42.704   6.526
 5448POPC   C3B69105  20.745  42.831   7.000
 5448POPC   C4B69106  20.891  43.063   7.388
 5449POPC   NC369107  34.882  17.512   5.589
 5449POPC   PO469108  34.270  17.751   5.369
 5449POPC   GL169109  34.399  17.627   5.782
 5449POPC   GL269110  34.416  17.262   5.726
 5449POPC   C1A69111  34.606  17.705   6.213
 5449POPC   D2A69112  34.584  17.947   6.621
 5449POPC   C3A69113  34.715  17.785   6.993
 5449POPC   C4A69114  34.602  17.663   7.365
 5449POPC   C1B69115  34.504  17.170   6.163
 5449POPC   C2B69116  34.631  17.217   6.595
 5449POPC   C3B69117  34.453  17.326   7.004
 5449POPC   C4B69118  34.613  17.135   7.408
 5450POPC   NC369119   0.592  15.164   5.563
 5450POPC   PO469120   0.012  15.428   5.452
 5450POPC   GL169121   0.244  15.396   5.840
 5450POPC   GL269122   0.173  15.110   5.957
 5450POPC   C1A69123   0.425  15.446   6.276
 5450POPC   D2A69124   0.191  15.248   6.621
 5450POPC   C3A69125   0.248  15.190   7.070
 5450POPC   C4A69126   0.507  15.464   7.342
 5450POPC   C1B69127   0.414  14.907   6.258
 5450POPC   C2B69128   0.328  14.756   6.681
 5450POPC   C3B69129   0.649  14.696   6.919
 5450POPC   C4B69130   0.707  14.988   7.165
 5451POPC   NC369131  11.986  13.713   5.354
 5451POPC   PO469132  11.364  13.582   5.593
 5451POPC   GL169133  11.747  13.625   5.873
 5451POPC   GL269134  12.125  13.715   5.842
 5451POPC   C1A69135  11.926  13.679   6.295
 5451POPC   D2A69136  12.098  13.491   6.613
 5451POPC   C3A69137  11.838  13.576   6.928
 5451POPC   C4A69138  11.840  13.461   7.313
 5451POPC   C1B69139  12.426  13.629   6.191
 5451POPC   C2B69140  12.556  13.679   6.617
 5451POPC   C3B69141  12.376  13.615   7.057
 5451POPC   C4B69142  12.225  13.880   7.405
 5452POPC   NC369143  20.609  28.096   5.530
 5452POPC   PO469144  20.473  28.803   5.440
 5452POPC   GL169145  20.391  28.517   5.764
 5452POPC   GL269146  20.714  28.530   5.895
 5452POPC   C1A69147  20.373  28.281   6.172
 5452POPC   D2A69148  20.617  28.334   6.550
 5452POPC   C3A69149  20.410  28.273   6.914
 5452POPC   C4A69150  20.381  28.365   7.322
 5452POPC   C1B69151  20.883  28.169   6.133
 5452POPC   C2B69152  20.993  27.968   6.536
 5452POPC   C3B69153  21.010  28.104   6.958
 5452POPC   C4B69154  20.851  28.501   7.056
 5453POPC   NC369155   0.613  43.961   5.508
 5453POPC   PO469156  44.933  43.758   5.535
 5453POPC   GL169157   0.291  43.628   5.763
 5453POPC   GL269158   0.204  43.956   5.938
 5453POPC   C1A69159   0.453  43.581   6.196
 5453POPC   D2A69160   0.293  43.870   6.504
 5453POPC   C3A69161   0.372  43.854   6.940
 5453POPC   C4A69162   0.515  43.695   7.331
 5453POPC   C1B69163   0.561  44.122   6.156
 5453POPC   C2B69164   0.587  44.296   6.584
 5453POPC   C3B69165   0.289  44.371   6.924
 5453POPC   C4B69166   0.356  44.195   7.335
 5454POPC   NC369167   6.098  34.898   5.456
 5454POPC   PO469168   5.673  34.316   5.426
 5454POPC   GL169169   5.684  34.630   5.795
 5454POPC   GL269170   5.829  34.969   5.875
 5454POPC   C1A69171   5.797  34.638   6.239
 5454POPC   D2A69172   5.681  34.888   6.565
 5454POPC   C3A69173   5.771  34.708   6.968
 5454POPC   C4A69174   5.596  34.498   7.305
 5454POPC   C1B69175   6.131  35.043   6.219
 5454POPC   C2B69176   6.172  34.919   6.673
 5454POPC   C3B69177   6.202  34.970   7.118
 5454POPC   C4B69178   6.218  35.043   7.547
 5455POPC   NC369179  28.795  44.606   5.166
 5455POPC   PO469180  28.251  44.902   5.383
 5455POPC   GL169181  28.334  44.654   5.742
 5455POPC   GL269182  28.111  44.403   5.664
 5455POPC   C1A69183  28.458  44.731   6.196
 5455POPC   D2A69184  28.387  44.922   6.620
 5455POPC   C3A69185  28.593  44.761   6.991
 5455POPC   C4A69186  28.422  44.682   7.387
 5455POPC   C1B69187  28.061  44.384   6.110
 5455POPC   C2B69188  28.134  44.476   6.539
 5455POPC   C3B69189  28.086  44.654   6.953
 5455POPC   C4B69190  27.863  44.424   7.233
 5456POPC   NC369191  10.701  28.789   5.523
 5456POPC   PO469192  10.818  29.423   5.516
 5456POPC   GL169193  10.657  29.205   5.860
 5456POPC   GL269194  10.343  29.013   5.814
 5456POPC   C1A69195  10.593  29.124   6.290
 5456POPC   D2A69196  10.348  29.317   6.591
 5456POPC   C3A69197  10.486  29.335   7.005
 5456POPC   C4A69198  10.376  29.591   7.335
 5456POPC   C1B69199  10.221  28.768   6.208
 5456POPC   C2B69200  10.099  28.870   6.627
 5456POPC   C3B69201  10.024  29.091   7.005
 5456POPC   C4B69202  10.316  28.972   7.334
 5457POPC   NC369203   3.769  33.332   5.408
 5457POPC   PO469204   3.329  32.865   5.310
 5457POPC   GL169205   3.485  32.952   5.721
 5457POPC   GL269206   3.372  33.278   5.726
 5457POPC   C1A69207   3.572  32.769   6.146
 5457POPC   D2A69208   3.463  32.839   6.608
 5457POPC   C3A69209   3.770  32.760   6.948
 5457POPC   C4A69210   3.957  33.130   7.178
 5457POPC   C1B69211   3.255  33.184   6.182
 5457POPC   C2B69212   3.089  33.188   6.637
 5457POPC   C3B69213   3.278  33.138   7.069
 5457POPC   C4B69214   3.230  33.192   7.542
 5458POPC   NC369215  14.601  22.356   5.546
 5458POPC   PO469216  14.418  21.695   5.428
 5458POPC   GL169217  14.370  21.942   5.820
 5458POPC   GL269218  14.677  22.064   5.953
 5458POPC   C1A69219  14.326  22.102   6.293
 5458POPC   D2A69220  14.580  22.161   6.683
 5458POPC   C3A69221  14.320  22.094   7.037
 5458POPC   C4A69222  14.072  22.039   7.397
 5458POPC   C1B69223  14.758  22.423   6.254
 5458POPC   C2B69224  14.679  22.655   6.632
 5458POPC   C3B69225  14.592  22.527   7.066
 5458POPC   C4B69226  14.504  22.299   7.478
 5459POPC   NC369227   2.366  34.072   5.426
 5459POPC   PO469228   2.001  33.679   5.040
 5459POPC   GL169229   1.965  33.742   5.537
 5459POPC   GL269230   1.997  34.059   5.753
 5459POPC   C1A69231   1.865  33.674   6.027
 5459POPC   D2A69232   2.092  33.585   6.453
 5459POPC   C3A69233   1.883  33.707   6.874
 5459POPC   C4A69234   1.596  33.577   7.233
 5459POPC   C1B69235   2.298  33.945   6.110
 5459POPC   C2B69236   2.440  34.011   6.568
 5459POPC   C3B69237   2.279  34.057   7.005
 5459POPC   C4B69238   2.079  33.783   7.350
 5460POPC   NC369239   8.995  42.279   5.377
 5460POPC   PO469240   8.477  42.760   5.454
 5460POPC   GL169241   8.784  42.509   5.768
 5460POPC   GL269242   9.084  42.694   5.776
 5460POPC   C1A69243   9.074  42.268   6.082
 5460POPC   D2A69244   9.242  42.399   6.510
 5460POPC   C3A69245   9.138  42.313   6.942
 5460POPC   C4A69246   9.007  42.184   7.347
 5460POPC   C1B69247   8.931  42.729   6.232
 5460POPC   C2B69248   8.947  42.821   6.692
 5460POPC   C3B69249   8.783  42.667   7.101
 5460POPC   C4B69250   8.679  42.551   7.551
 5461POPC   NC369251   3.848  27.537   5.592
 5461POPC   PO469252   3.108  27.439   5.405
 5461POPC   GL169253   3.360  27.644   5.787
 5461POPC   GL269254   3.461  27.331   5.906
 5461POPC   C1A69255   3.598  27.795   6.198
 5461POPC   D2A69256   3.928  27.716   6.534
 5461POPC   C3A69257   3.728  27.747   6.938
 5461POPC   C4A69258   3.554  27.780   7.350
 5461POPC   C1B69259   3.612  27.296   6.331
 5461POPC   C2B69260   3.454  27.346   6.738
 5461POPC   C3B69261   3.564  27.315   7.161
 5461POPC   C4B69262   3.483  27.203   7.611
 5462POPC   NC369263  42.072   1.890   5.498
 5462POPC   PO469264  42.671   2.132   5.385
 5462POPC   GL169265  42.450   2.084   5.808
 5462POPC   GL269266  42.143   2.297   5.854
 5462POPC   C1A69267  42.307   1.772   6.148
 5462POPC   D2A69268  42.391   1.599   6.574
 5462POPC   C3A69269  42.429   1.813   6.969
 5462POPC   C4A69270  42.266   1.738   7.384
 5462POPC   C1B69271  41.962   2.138   6.242
 5462POPC   C2B69272  42.066   2.023   6.656
 5462POPC   C3B69273  42.078   2.183   7.103
 5462POPC   C4B69274  41.889   2.050   7.479
 5463POPC   NC369275  42.882  43.223   5.401
 5463POPC   PO469276  43.502  42.837   5.405
 5463POPC   GL169277  43.369  42.917   5.855
 5463POPC   GL269278  43.075  43.168   5.899
 5463POPC   C1A69279  43.357  43.040   6.304
 5463POPC   D2A69280  43.114  43.322   6.570
 5463POPC   C3A69281  43.222  43.300   6.989
 5463POPC   C4A69282  43.407  43.059   7.280
 5463POPC   C1B69283  42.831  42.991   6.269
 5463POPC   C2B69284  42.897  42.821   6.711
 5463POPC   C3B69285  42.818  43.026   7.129
 5463POPC   C4B69286  42.768  43.491   7.144
 5464POPC   NC369287  34.603  15.725   5.616
 5464POPC   PO469288  34.936  16.247   5.441
 5464POPC   GL169289  34.879  16.347   5.908
 5464POPC   GL269290  34.575  16.218   5.875
 5464POPC   C1A69291  34.782  16.073   6.320
 5464POPC   D2A69292  34.441  15.822   6.563
 5464POPC   C3A69293  34.529  15.742   6.995
 5464POPC   C4A69294  34.837  16.013   7.228
 5464POPC   C1B69295  34.297  16.173   6.217
 5464POPC   C2B69296  34.421  16.349   6.623
 5464POPC   C3B69297  34.255  16.376   7.030
 5464POPC   C4B69298  34.341  16.185   7.397
 5465POPC   NC369299   5.634  40.886   5.376
 5465POPC   PO469300   6.156  40.677   5.688
 5465POPC   GL169301   5.796  40.809   5.882
 5465POPC   GL269302   5.501  40.629   5.806
 5465POPC   C1A69303   5.821  40.794   6.323
 5465POPC   D2A69304   5.789  40.527   6.689
 5465POPC   C3A69305   5.834  40.779   7.013
 5465POPC   C4A69306   5.954  41.155   7.180
 5465POPC   C1B69307   5.330  40.737   6.165
 5465POPC   C2B69308   5.416  40.890   6.602
 5465POPC   C3B69309   5.338  40.745   7.000
 5465POPC   C4B69310   5.247  40.973   7.384
 5466POPC   NC369311  41.002   5.549   5.560
 5466POPC   PO469312  40.661   6.212   5.434
 5466POPC   GL169313  40.897   6.047   5.800
 5466POPC   GL269314  41.211   6.160   5.978
 5466POPC   C1A69315  40.620   5.970   6.148
 5466POPC   D2A69316  40.532   5.781   6.521
 5466POPC   C3A69317  40.626   5.959   6.917
 5466POPC   C4A69318  40.566   5.643   7.225
 5466POPC   C1B69319  41.091   5.788   6.249
 5466POPC   C2B69320  41.048   5.636   6.635
 5466POPC   C3B69321  41.026   5.635   7.044
 5466POPC   C4B69322  41.002   5.969   7.303
 5467POPC   NC369323  31.208  26.563   5.089
 5467POPC   PO469324  30.681  26.967   5.232
 5467POPC   GL169325  30.685  26.749   5.673
 5467POPC   GL269326  30.398  26.806   5.857
 5467POPC   C1A69327  30.862  26.810   6.117
 5467POPC   D2A69328  30.931  26.691   6.570
 5467POPC   C3A69329  30.895  26.948   6.952
 5467POPC   C4A69330  30.845  26.814   7.409
 5467POPC   C1B69331  30.373  26.924   6.288
 5467POPC   C2B69332  30.436  26.792   6.700
 5467POPC   C3B69333  30.396  26.674   7.108
 5467POPC   C4B69334  30.365  26.942   7.437
 5468POPC   NC369335  38.655  37.693   5.117
 5468POPC   PO469336  39.421  37.614   5.262
 5468POPC   GL169337  39.210  37.705   5.722
 5468POPC   GL269338  39.440  37.919   5.950
 5468POPC   C1A69339  39.071  37.612   6.175
 5468POPC   D2A69340  39.042  37.306   6.537
 5468POPC   C3A69341  39.297  37.348   6.938
 5468POPC   C4A69342  39.245  37.499   7.363
 5468POPC   C1B69343  39.572  37.697   6.317
 5468POPC   C2B69344  39.494  37.780   6.731
 5468POPC   C3B69345  39.336  37.930   7.112
 5468POPC   C4B69346  39.581  37.885   7.491
 5469POPC   NC369347  19.888  19.501   5.729
 5469POPC   PO469348  19.856  18.789   5.458
 5469POPC   GL169349  19.878  18.999   5.838
 5469POPC   GL269350  19.580  19.129   5.969
 5469POPC   C1A69351  20.019  18.845   6.241
 5469POPC   D2A69352  19.823  18.699   6.619
 5469POPC   C3A69353  19.713  19.029   6.913
 5469POPC   C4A69354  19.702  19.039   7.383
 5469POPC   C1B69355  19.803  19.289   6.332
 5469POPC   C2B69356  19.970  19.455   6.701
 5469POPC   C3B69357  19.901  19.462   7.132
 5469POPC   C4B69358  19.865  19.496   7.560
 5470POPC   NC369359  27.042  37.250   4.984
 5470POPC   PO469360  26.534  36.973   5.368
 5470POPC   GL169361  26.634  37.065   5.767
 5470POPC   GL269362  27.000  37.055   5.798
 5470POPC   C1A69363  26.602  36.906   6.156
 5470POPC   D2A69364  26.727  36.703   6.544
 5470POPC   C3A69365  26.814  36.923   6.912
 5470POPC   C4A69366  26.685  36.946   7.345
 5470POPC   C1B69367  27.099  36.901   6.232
 5470POPC   C2B69368  27.316  36.940   6.637
 5470POPC   C3B69369  27.289  36.984   7.090
 5470POPC   C4B69370  27.108  36.650   7.329
 5471POPC   NC369371  38.278  31.135   5.529
 5471POPC   PO469372  38.166  31.758   5.304
 5471POPC   GL169373  38.448  31.638   5.762
 5471POPC   GL269374  38.640  31.328   5.868
 5471POPC   C1A69375  38.515  31.640   6.278
 5471POPC   D2A69376  38.344  31.864   6.684
 5471POPC   C3A69377  38.565  31.821   7.056
 5471POPC   C4A69378  38.788  31.446   7.185
 5471POPC   C1B69379  38.304  31.141   6.157
 5471POPC   C2B69380  38.169  31.270   6.529
 5471POPC   C3B69381  38.424  31.389   6.835
 5471POPC   C4B69382  38.262  31.399   7.239
 5472POPC   NC369383  12.377  26.157   5.332
 5472POPC   PO469384  11.723  26.146   5.310
 5472POPC   GL169385  11.993  26.202   5.668
 5472POPC   GL269386  12.105  25.904   5.838
 5472POPC   C1A69387  11.997  26.368   6.091
 5472POPC   D2A69388  11.845  26.380   6.516
 5472POPC   C3A69389  12.128  26.228   6.820
 5472POPC   C4A69390  12.126  26.243   7.275
 5472POPC   C1B69391  12.211  25.916   6.292
 5472POPC   C2B69392  12.503  25.893   6.656
 5472POPC   C3B69393  12.293  25.787   7.048
 5472POPC   C4B69394  12.281  25.814   7.496
 5473POPC   NC369395  43.510  22.979   5.342
 5473POPC   PO469396  42.866  22.866   5.480
 5473POPC   GL169397  43.162  22.928   5.818
 5473POPC   GL269398  43.433  23.211   5.783
 5473POPC   C1A69399  42.922  22.837   6.204
 5473POPC   D2A69400  42.889  22.598   6.572
 5473POPC   C3A69401  42.955  22.898   6.873
 5473POPC   C4A69402  42.899  22.793   7.278
 5473POPC   C1B69403  43.562  23.027   6.197
 5473POPC   C2B69404  43.345  22.872   6.510
 5473POPC   C3B69405  43.497  22.924   6.884
 5473POPC   C4B69406  43.386  22.984   7.250
 5474POPC   NC369407   4.590  20.148   5.612
 5474POPC   PO469408   4.162  19.657   5.502
 5474POPC   GL169409   4.210  19.882   5.844
 5474POPC   GL269410   3.898  19.947   5.834
 5474POPC   C1A69411   4.185  20.042   6.243
 5474POPC   D2A69412   4.261  19.799   6.576
 5474POPC   C3A69413   4.245  20.048   6.923
 5474POPC   C4A69414   4.437  20.016   7.277
 5474POPC   C1B69415   3.919  19.604   6.181
 5474POPC   C2B69416   3.898  19.352   6.548
 5474POPC   C3B69417   3.953  19.497   6.934
 5474POPC   C4B69418   3.962  19.765   7.238
 5475POPC   NC369419  24.936  41.934   5.463
 5475POPC   PO469420  25.450  41.550   5.467
 5475POPC   GL169421  25.339  41.571   5.881
 5475POPC   GL269422  25.681  41.618   5.941
 5475POPC   C1A69423  25.173  41.599   6.303
 5475POPC   D2A69424  25.041  41.799   6.693
 5475POPC   C3A69425  25.028  41.424   6.956
 5475POPC   C4A69426  25.261  41.347   7.338
 5475POPC   C1B69427  25.633  41.348   6.304
 5475POPC   C2B69428  25.489  41.357   6.711
 5475POPC   C3B69429  25.643  41.171   7.035
 5475POPC   C4B69430  25.766  41.352   7.363
 5476POPC   NC369431   9.166  14.990   5.248
 5476POPC   PO469432   8.706  15.427   5.440
 5476POPC   GL169433   8.949  15.145   5.703
 5476POPC   GL269434   8.873  14.808   5.636
 5476POPC   C1A69435   9.255  14.972   6.027
 5476POPC   D2A69436   9.090  15.028   6.471
 5476POPC   C3A69437   9.310  15.082   6.873
 5476POPC   C4A69438   9.197  15.310   7.252
 5476POPC   C1B69439   8.766  14.806   6.073
 5476POPC   C2B69440   8.785  14.613   6.495
 5476POPC   C3B69441   8.865  14.705   6.904
 5476POPC   C4B69442   9.161  14.750   7.234
 5477POPC   NC369443  32.978   3.578   5.478
 5477POPC   PO469444  32.392   3.760   5.208
 5477POPC   GL169445  32.719   3.880   5.820
 5477POPC   GL269446  33.100   3.830   5.882
 5477POPC   C1A69447  32.760   3.664   6.228
 5477POPC   D2A69448  33.039   3.620   6.617
 5477POPC   C3A69449  32.938   3.637   7.080
 5477POPC   C4A69450  32.938   3.623   7.563
 5477POPC   C1B69451  33.193   3.394   6.149
 5477POPC   C2B69452  33.335   3.199   6.569
 5477POPC   C3B69453  33.372   3.361   7.007
 5477POPC   C4B69454  33.346   3.247   7.463
 5478POPC   NC369455  18.216  24.952   5.612
 5478POPC   PO469456  18.452  24.328   5.326
 5478POPC   GL169457  18.314  24.371   5.765
 5478POPC   GL269458  18.079  24.076   5.766
 5478POPC   C1A69459  18.306  24.627   6.203
 5478POPC   D2A69460  18.550  24.902   6.556
 5478POPC   C3A69461  18.606  24.682   6.986
 5478POPC   C4A69462  18.235  24.458   7.192
 5478POPC   C1B69463  18.234  24.090   6.201
 5478POPC   C2B69464  18.214  24.173   6.662
 5478POPC   C3B69465  18.006  24.014   7.038
 5478POPC   C4B69466  17.999  24.137   7.539
 5479POPC   NC369467  29.639  36.422   5.127
 5479POPC   PO469468  30.160  36.094   5.275
 5479POPC   GL169469  30.122  36.076   5.735
 5479POPC   GL269470  30.409  35.940   5.845
 5479POPC   C1A69471  29.874  36.084   6.155
 5479POPC   D2A69472  29.732  36.271   6.567
 5479POPC   C3A69473  29.993  36.270   6.945
 5479POPC   C4A69474  29.970  36.291   7.410
 5479POPC   C1B69475  30.168  35.688   6.141
 5479POPC   C2B69476  29.926  35.694   6.554
 5479POPC   C3B69477  29.895  35.777   7.020
 5479POPC   C4B69478  29.756  35.764   7.478
 5480POPC   NC369479   4.555  10.870   5.530
 5480POPC   PO469480   4.581  10.215   5.300
 5480POPC   GL169481   4.281  10.331   5.686
 5480POPC   GL269482   4.348  10.599   5.918
 5480POPC   C1A69483   4.100  10.223   6.131
 5480POPC   D2A69484   4.013  10.364   6.568
 5480POPC   C3A69485   4.119  10.175   6.954
 5480POPC   C4A69486   4.122  10.434   7.330
 5480POPC   C1B69487   4.161  10.757   6.257
 5480POPC   C2B69488   4.381  10.761   6.635
 5480POPC   C3B69489   4.209  10.828   7.019
 5480POPC   C4B69490   4.467  10.813   7.368
 5481POPC   NC369491   6.756  18.626   5.418
 5481POPC   PO469492   6.368  18.024   5.386
 5481POPC   GL169493   6.570  18.117   5.804
 5481POPC   GL269494   6.864  18.325   5.845
 5481POPC   C1A69495   6.572  18.218   6.258
 5481POPC   D2A69496   6.816  18.489   6.553
 5481POPC   C3A69497   6.709  18.383   6.989
 5481POPC   C4A69498   6.385  18.102   7.148
 5481POPC   C1B69499   7.030  18.028   6.198
 5481POPC   C2B69500   6.921  17.996   6.655
 5481POPC   C3B69501   6.899  17.928   7.113
 5481POPC   C4B69502   6.683  17.908   7.529
 5482POPC   NC369503  40.008  14.104   5.323
 5482POPC   PO469504  39.757  14.771   5.201
 5482POPC   GL169505  39.854  14.697   5.665
 5482POPC   GL269506  40.142  14.454   5.748
 5482POPC   C1A69507  39.808  14.639   6.127
 5482POPC   D2A69508  39.661  14.331   6.460
 5482POPC   C3A69509  39.575  14.476   6.893
 5482POPC   C4A69510  39.845  14.669   7.205
 5482POPC   C1B69511  40.115  14.218   6.168
 5482POPC   C2B69512  40.082  13.995   6.564
 5482POPC   C3B69513  40.019  14.213   6.946
 5482POPC   C4B69514  40.325  14.451   7.145
 5483POPC   NC369515  25.812   1.911   5.442
 5483POPC   PO469516  26.221   1.387   5.284
 5483POPC   GL169517  26.165   1.653   5.743
 5483POPC   GL269518  25.807   1.735   5.893
 5483POPC   C1A69519  26.155   2.039   6.051
 5483POPC   D2A69520  26.159   2.110   6.513
 5483POPC   C3A69521  25.851   2.133   6.833
 5483POPC   C4A69522  26.010   2.016   7.234
 5483POPC   C1B69523  25.784   1.784   6.335
 5483POPC   C2B69524  25.803   1.647   6.743
 5483POPC   C3B69525  25.577   1.753   7.109
 5483POPC   C4B69526  25.533   2.092   7.424
 5484POPC   NC369527   9.504  39.762   5.654
 5484POPC   PO469528   9.071  40.221   5.384
 5484POPC   GL169529   8.965  40.209   5.807
 5484POPC   GL269530   9.072  39.896   5.881
 5484POPC   C1A69531   9.094  40.214   6.258
 5484POPC   D2A69532   9.207  40.309   6.669
 5484POPC   C3A69533   8.957  40.059   6.942
 5484POPC   C4A69534   9.021  40.019   7.357
 5484POPC   C1B69535   9.279  39.693   6.262
 5484POPC   C2B69536   9.424  39.728   6.692
 5484POPC   C3B69537   9.248  39.626   7.094
 5484POPC   C4B69538   9.136  39.557   7.530
 5485POPC   NC369539  27.717  14.434   5.406
 5485POPC   PO469540  27.286  14.798   5.852
 5485POPC   GL169541  27.561  14.452   5.897
 5485POPC   GL269542  27.937  14.513   5.856
 5485POPC   C1A69543  27.499  14.347   6.313
 5485POPC   D2A69544  27.337  14.669   6.629
 5485POPC   C3A69545  27.439  14.595   7.052
 5485POPC   C4A69546  27.486  14.232   7.281
 5485POPC   C1B69547  27.998  14.286   6.241
 5485POPC   C2B69548  27.847  14.428   6.676
 5485POPC   C3B69549  27.961  14.368   7.088
 5485POPC   C4B69550  27.931  14.439   7.537
 5486POPC   NC369551  43.483  38.969   5.252
 5486POPC   PO469552  42.875  39.198   5.500
 5486POPC   GL169553  42.998  39.264   5.891
 5486POPC   GL269554  43.342  39.277   5.756
 5486POPC   C1A69555  43.035  39.091   6.313
 5486POPC   D2A69556  43.220  39.311   6.670
 5486POPC   C3A69557  43.160  39.054   7.019
 5486POPC   C4A69558  42.744  39.071   7.098
 5486POPC   C1B69559  43.401  39.426   6.169
 5486POPC   C2B69560  43.396  39.770   6.444
 5486POPC   C3B69561  43.397  39.755   6.888
 5486POPC   C4B69562  43.437  39.454   7.166
 5487POPC   NC369563   6.918   5.777   5.449
 5487POPC   PO469564   6.453   6.272   5.403
 5487POPC   GL169565   6.548   6.224   5.837
 5487POPC   GL269566   6.646   5.884   5.897
 5487POPC   C1A69567   6.791   6.292   6.236
 5487POPC   D2A69568   6.814   5.924   6.507
 5487POPC   C3A69569   6.915   6.028   6.924
 5487POPC   C4A69570   6.969   5.918   7.348
 5487POPC   C1B69571   6.362   5.777   6.230
 5487POPC   C2B69572   6.357   5.696   6.673
 5487POPC   C3B69573   6.613   5.640   7.055
 5487POPC   C4B69574   6.524   5.742   7.491
 5488POPC   NC369575  39.088   3.929   5.428
 5488POPC   PO469576  39.496   3.405   5.415
 5488POPC   GL169577  39.257   3.566   5.742
 5488POPC   GL269578  38.879   3.496   5.686
 5488POPC   C1A69579  39.410   3.779   6.094
 5488POPC   D2A69580  39.422   3.772   6.537
 5488POPC   C3A69581  39.321   3.486   6.842
 5488POPC   C4A69582  39.315   3.703   7.221
 5488POPC   C1B69583  38.890   3.696   6.086
 5488POPC   C2B69584  38.918   3.784   6.510
 5488POPC   C3B69585  38.855   3.695   6.931
 5488POPC   C4B69586  38.959   3.321   7.195
 5489POPC   NC369587  31.321  17.949   5.517
 5489POPC   PO469588  31.674  18.589   5.436
 5489POPC   GL169589  31.486  18.330   5.789
 5489POPC   GL269590  31.694  18.022   5.924
 5489POPC   C1A69591  31.259  18.208   6.151
 5489POPC   D2A69592  31.557  18.177   6.457
 5489POPC   C3A69593  31.458  18.202   6.867
 5489POPC   C4A69594  31.430  18.290   7.277
 5489POPC   C1B69595  31.860  17.798   6.326
 5489POPC   C2B69596  31.880  17.902   6.781
 5489POPC   C3B69597  31.663  17.849   7.151
 5489POPC   C4B69598  31.696  17.953   7.573
 5490POPC   NC369599  23.532  24.176   5.483
 5490POPC   PO469600  23.738  23.581   5.474
 5490POPC   GL169601  23.767  23.866   5.821
 5490POPC   GL269602  23.414  23.853   5.918
 5490POPC   C1A69603  23.911  24.009   6.218
 5490POPC   D2A69604  23.910  23.798   6.599
 5490POPC   C3A69605  23.882  23.980   6.972
 5490POPC   C4A69606  23.747  23.752   7.336
 5490POPC   C1B69607  23.474  23.726   6.359
 5490POPC   C2B69608  23.386  23.874   6.821
 5490POPC   C3B69609  23.364  24.043   7.249
 5490POPC   C4B69610  23.514  24.008   7.707
 5491POPC   NC369611   6.286  29.842   5.198
 5491POPC   PO469612   6.843  29.657   5.362
 5491POPC   GL169613   6.670  29.945   5.670
 5491POPC   GL269614   6.352  29.880   5.842
 5491POPC   C1A69615   6.758  30.119   6.089
 5491POPC   D2A69616   6.566  30.105   6.515
 5491POPC   C3A69617   6.840  29.968   6.834
 5491POPC   C4A69618   6.893  30.156   7.197
 5491POPC   C1B69619   6.519  29.660   6.217
 5491POPC   C2B69620   6.595  29.538   6.656
 5491POPC   C3B69621   6.450  29.586   7.077
 5491POPC   C4B69622   6.363  29.527   7.522
 5492POPC   NC369623   4.722  40.681   5.022
 5492POPC   PO469624   5.201  40.735   5.399
 5492POPC   GL169625   4.927  40.734   5.720
 5492POPC   GL269626   5.001  40.409   5.846
 5492POPC   C1A69627   4.852  40.941   6.087
 5492POPC   D2A69628   4.937  40.786   6.501
 5492POPC   C3A69629   4.937  41.017   6.892
 5492POPC   C4A69630   4.705  41.066   7.271
 5492POPC   C1B69631   4.675  40.466   6.185
 5492POPC   C2B69632   4.593  40.361   6.607
 5492POPC   C3B69633   4.921  40.454   6.903
 5492POPC   C4B69634   5.018  40.519   7.344
 5493POPC   NC369635  34.810  22.593   5.420
 5493POPC   PO469636  34.391  23.118   5.534
 5493POPC   GL169637  34.427  22.998   5.971
 5493POPC   GL269638  34.492  22.666   5.860
 5493POPC   C1A69639  34.434  23.013   6.448
 5493POPC   D2A69640  34.124  23.062   6.792
 5493POPC   C3A69641  34.219  22.734   7.069
 5493POPC   C4A69642  34.483  22.896   7.376
 5493POPC   C1B69643  34.547  22.525   6.272
 5493POPC   C2B69644  34.824  22.574   6.633
 5493POPC   C3B69645  34.788  22.399   7.051
 5493POPC   C4B69646  34.525  22.382   7.426
 5494POPC   NC369647  23.540  32.349   5.355
 5494POPC   PO469648  24.158  32.504   5.552
 5494POPC   GL169649  23.807  32.317   5.809
 5494POPC   GL269650  23.428  32.389   5.846
 5494POPC   C1A69651  23.616  31.985   6.092
 5494POPC   D2A69652  23.476  31.815   6.483
 5494POPC   C3A69653  23.660  32.098   6.797
 5494POPC   C4A69654  23.730  32.048   7.234
 5494POPC   C1B69655  23.588  32.466   6.276
 5494POPC   C2B69656  23.476  32.608   6.693
 5494POPC   C3B69657  23.429  32.449   7.102
 5494POPC   C4B69658  23.407  32.381   7.547
 5495POPC   NC369659  22.129  24.956   5.673
 5495POPC   PO469660  22.234  24.415   5.270
 5495POPC   GL169661  22.340  24.483   5.734
 5495POPC   GL269662  22.122  24.244   5.939
 5495POPC   C1A69663  22.313  24.623   6.225
 5495POPC   D2A69664  22.146  24.530   6.677
 5495POPC   C3A69665  22.177  24.526   7.169
 5495POPC   C4A69666  22.061  24.344   7.600
 5495POPC   C1B69667  21.800  24.434   6.255
 5495POPC   C2B69668  21.649  24.674   6.626
 5495POPC   C3B69669  21.847  24.867   6.997
 5495POPC   C4B69670  21.860  24.835   7.440
 5496POPC   NC369671  11.066  39.505   5.299
 5496POPC   PO469672  10.383  39.270   5.258
 5496POPC   GL169673  10.370  39.140   5.698
 5496POPC   GL269674  10.196  38.827   5.696
 5496POPC   C1A69675  10.602  39.172   6.109
 5496POPC   D2A69676  10.828  39.203   6.505
 5496POPC   C3A69677  10.586  39.338   6.831
 5496POPC   C4A69678  10.537  39.321   7.264
 5496POPC   C1B69679  10.127  38.970   6.145
 5496POPC   C2B69680  10.330  38.958   6.584
 5496POPC   C3B69681  10.356  38.880   7.052
 5496POPC   C4B69682  10.241  38.988   7.513
 5497POPC   NC369683  35.973  44.776   5.357
 5497POPC   PO469684  36.586  44.379   5.364
 5497POPC   GL169685  36.415  44.606   5.753
 5497POPC   GL269686  36.086  44.505   5.882
 5497POPC   C1A69687  36.363  44.892   6.158
 5497POPC   D2A69688  36.191   0.039   6.589
 5497POPC   C3A69689  36.203  44.806   6.986
 5497POPC   C4A69690  36.484  44.900   7.329
 5497POPC   C1B69691  35.932  44.662   6.314
 5497POPC   C2B69692  35.845  44.530   6.738
 5497POPC   C3B69693  35.706  44.595   7.155
 5497POPC   C4B69694  35.824  44.582   7.573
 5498POPC   NC369695  34.616  28.304   5.397
 5498POPC   PO469696  34.515  28.814   5.848
 5498POPC   GL169697  34.397  28.358   5.859
 5498POPC   GL269698  34.651  28.092   5.867
 5498POPC   C1A69699  34.302  28.198   6.253
 5498POPC   D2A69700  34.494  28.426   6.600
 5498POPC   C3A69701  34.232  28.489   6.941
 5498POPC   C4A69702  34.446  28.346   7.257
 5498POPC   C1B69703  34.869  28.201   6.266
 5498POPC   C2B69704  34.980  28.139   6.724
 5498POPC   C3B69705  34.755  27.986   7.101
 5498POPC   C4B69706  34.775  28.128   7.569
 5499POPC   NC369707  17.875  43.739   5.475
 5499POPC   PO469708  17.343  44.125   5.344
 5499POPC   GL169709  17.444  43.929   5.729
 5499POPC   GL269710  17.135  43.890   5.869
 5499POPC   C1A69711  17.568  43.758   6.142
 5499POPC   D2A69712  17.477  43.680   6.577
 5499POPC   C3A69713  17.750  43.784   6.916
 5499POPC   C4A69714  17.647  43.940   7.294
 5499POPC   C1B69715  17.293  44.218   6.155
 5499POPC   C2B69716  17.223  44.372   6.563
 5499POPC   C3B69717  17.288  44.122   6.929
 5499POPC   C4B69718  17.258  44.292   7.305
 5500POPC   NC369719  28.016   8.880   5.415
 5500POPC   PO469720  27.344   8.927   5.502
 5500POPC   GL169721  27.626   8.949   5.819
 5500POPC   GL269722  27.660   8.613   5.823
 5500POPC   C1A69723  27.802   9.089   6.211
 5500POPC   D2A69724  27.894   8.939   6.607
 5500POPC   C3A69725  27.772   9.152   6.960
 5500POPC   C4A69726  27.598   9.206   7.356
 5500POPC   C1B69727  27.643   8.602   6.275
 5500POPC   C2B69728  27.775   8.453   6.687
 5500POPC   C3B69729  27.703   8.648   7.093
 5500POPC   C4B69730  27.611   8.716   7.547
 5501POPC   NC369731  20.279  31.741   5.528
 5501POPC   PO469732  20.739  31.248   5.466
 5501POPC   GL169733  20.625  31.530   5.816
 5501POPC   GL269734  20.318  31.420   5.893
 5501POPC   C1A69735  20.689  31.465   6.233
 5501POPC   D2A69736  20.903  31.535   6.560
 5501POPC   C3A69737  20.763  31.277   6.905
 5501POPC   C4A69738  20.606  31.139   7.305
 5501POPC   C1B69739  20.236  31.715   6.219
 5501POPC   C2B69740  20.435  31.758   6.608
 5501POPC   C3B69741  20.301  31.752   7.015
 5501POPC   C4B69742  20.111  31.635   7.419
 5502POPC   NC369743  32.557   8.799   5.526
 5502POPC   PO469744  32.565   9.497   5.474
 5502POPC   GL169745  32.251   9.186   5.787
 5502POPC   GL269746  32.299   8.807   5.947
 5502POPC   C1A69747  32.024   9.111   6.238
 5502POPC   D2A69748  32.100   9.059   6.711
 5502POPC   C3A69749  32.103   8.839   7.138
 5502POPC   C4A69750  32.099   8.952   7.575
 5502POPC   C1B69751  32.525   8.687   6.331
 5502POPC   C2B69752  32.455   8.646   6.782
 5502POPC   C3B69753  32.356   8.393   7.140
 5502POPC   C4B69754  32.212   8.443   7.590
 5503POPC   NC369755  10.246  36.440   5.241
 5503POPC   PO469756  10.825  36.178   5.450
 5503POPC   GL169757  10.610  36.067   5.797
 5503POPC   GL269758  10.314  36.217   5.731
 5503POPC   C1A69759  10.652  36.180   6.202
 5503POPC   D2A69760  10.596  36.478   6.523
 5503POPC   C3A69761  10.682  36.245   6.906
 5503POPC   C4A69762  10.587  36.360   7.299
 5503POPC   C1B69763  10.142  36.117   6.149
 5503POPC   C2B69764  10.304  36.069   6.574
 5503POPC   C3B69765  10.183  36.190   6.965
 5503POPC   C4B69766  10.216  35.980   7.324
 5504POPC   NC369767  11.882   7.666   5.505
 5504POPC   PO469768  12.326   7.235   5.422
 5504POPC   GL169769  12.124   7.378   5.854
 5504POPC   GL269770  11.791   7.238   5.937
 5504POPC   C1A69771  12.096   7.454   6.321
 5504POPC   D2A69772  11.804   7.667   6.592
 5504POPC   C3A69773  11.924   7.533   7.008
 5504POPC   C4A69774  12.014   7.439   7.436
 5504POPC   C1B69775  11.685   7.164   6.408
 5504POPC   C2B69776  11.716   7.055   6.866
 5504POPC   C3B69777  11.889   6.977   7.297
 5504POPC   C4B69778  11.765   7.105   7.739
 5505POPC   NC369779  17.433  20.292   5.320
 5505POPC   PO469780  17.802  20.902   5.394
 5505POPC   GL169781  17.669  20.573   5.688
 5505POPC   GL269782  17.286  20.476   5.766
 5505POPC   C1A69783  17.640  20.597   6.129
 5505POPC   D2A69784  17.712  20.426   6.542
 5505POPC   C3A69785  17.784  20.690   6.912
 5505POPC   C4A69786  17.565  20.755   7.307
 5505POPC   C1B69787  17.107  20.658   6.115
 5505POPC   C2B69788  17.313  20.879   6.438
 5505POPC   C3B69789  17.276  20.829   6.876
 5505POPC   C4B69790  17.012  20.743   7.232
 5506POPC   NC369791  17.338  22.023   5.404
 5506POPC   PO469792  17.405  22.694   5.350
 5506POPC   GL169793  17.553  22.381   5.692
 5506POPC   GL269794  17.274  22.283   5.863
 5506POPC   C1A69795  17.711  22.246   6.126
 5506POPC   D2A69796  17.556  22.338   6.569
 5506POPC   C3A69797  17.737  22.384   6.993
 5506POPC   C4A69798  17.733  22.033   7.314
 5506POPC   C1B69799  17.314  21.940   6.176
 5506POPC   C2B69800  17.245  21.892   6.610
 5506POPC   C3B69801  17.319  22.076   6.992
 5506POPC   C4B69802  17.178  22.166   7.389
 5507POPC   NC369803  21.009  32.418   5.444
 5507POPC   PO469804  21.486  31.912   5.507
 5507POPC   GL169805  21.201  32.041   5.821
 5507POPC   GL269806  21.347  32.378   5.872
 5507POPC   C1A69807  21.197  32.140   6.279
 5507POPC   D2A69808  21.395  32.368   6.595
 5507POPC   C3A69809  21.680  32.185   6.882
 5507POPC   C4A69810  21.432  31.895   7.125
 5507POPC   C1B69811  21.152  32.649   6.201
 5507POPC   C2B69812  20.937  32.574   6.615
 5507POPC   C3B69813  21.031  32.349   7.040
 5507POPC   C4B69814  20.876  32.449   7.475
 5508POPC   NC369815  43.375  15.124   5.334
 5508POPC   PO469816  42.769  15.355   5.307
 5508POPC   GL169817  43.013  15.334   5.697
 5508POPC   GL269818  42.860  15.620   5.897
 5508POPC   C1A69819  43.182  15.266   6.119
 5508POPC   D2A69820  43.329  15.171   6.531
 5508POPC   C3A69821  43.098  15.178   6.915
 5508POPC   C4A69822  42.898  14.794   7.091
 5508POPC   C1B69823  42.808  15.536   6.352
 5508POPC   C2B69824  42.716  15.527   6.818
 5508POPC   C3B69825  42.864  15.495   7.249
 5508POPC   C4B69826  42.961  15.602   7.685
 5509POPC   NC369827  34.070  18.767   5.319
 5509POPC   PO469828  33.536  19.085   5.362
 5509POPC   GL169829  33.670  19.084   5.794
 5509POPC   GL269830  33.329  19.071   5.884
 5509POPC   C1A69831  33.890  18.903   6.192
 5509POPC   D2A69832  34.018  18.757   6.629
 5509POPC   C3A69833  34.017  19.044   6.994
 5509POPC   C4A69834  33.999  18.928   7.429
 5509POPC   C1B69835  33.524  19.254   6.258
 5509POPC   C2B69836  33.571  19.042   6.634
 5509POPC   C3B69837  33.539  19.241   6.985
 5509POPC   C4B69838  33.687  19.312   7.340
 5510POPC   NC369839   6.017  38.959   5.502
 5510POPC   PO469840   5.598  39.555   5.570
 5510POPC   GL169841   5.958  39.384   5.869
 5510POPC   GL269842   6.137  39.057   5.976
 5510POPC   C1A69843   5.906  39.375   6.316
 5510POPC   D2A69844   5.967  39.640   6.657
 5510POPC   C3A69845   5.833  39.415   6.998
 5510POPC   C4A69846   5.892  39.453   7.419
 5510POPC   C1B69847   5.830  38.856   6.227
 5510POPC   C2B69848   5.848  38.956   6.649
 5510POPC   C3B69849   6.051  38.941   7.002
 5510POPC   C4B69850   5.715  38.897   7.253
 5511POPC   NC369851  35.528  22.315   5.315
 5511POPC   PO469852  35.035  21.920   5.529
 5511POPC   GL169853  35.440  22.036   5.786
 5511POPC   GL269854  35.611  22.369   5.821
 5511POPC   C1A69855  35.596  22.045   6.219
 5511POPC   D2A69856  35.344  22.157   6.574
 5511POPC   C3A69857  35.474  22.044   6.961
 5511POPC   C4A69858  35.290  22.158   7.322
 5511POPC   C1B69859  35.346  22.499   6.171
 5511POPC   C2B69860  35.352  22.688   6.592
 5511POPC   C3B69861  35.261  22.592   7.045
 5511POPC   C4B69862  35.392  22.643   7.559
 5512POPC   NC369863   4.906  27.422   5.522
 5512POPC   PO469864   5.006  28.042   5.301
 5512POPC   GL169865   4.978  27.883   5.747
 5512POPC   GL269866   5.243  27.645   5.858
 5512POPC   C1A69867   4.941  27.882   6.200
 5512POPC   D2A69868   5.089  27.790   6.600
 5512POPC   C3A69869   4.935  27.910   7.010
 5512POPC   C4A69870   5.188  27.811   7.399
 5512POPC   C1B69871   5.196  27.299   6.172
 5512POPC   C2B69872   5.129  27.215   6.602
 5512POPC   C3B69873   5.205  27.442   6.965
 5512POPC   C4B69874   4.903  27.438   7.249
 5513POPC   NC369875  31.839  10.534   5.500
 5513POPC   PO469876  31.342  10.160   5.264
 5513POPC   GL169877  31.427  10.230   5.736
 5513POPC   GL269878  31.685  10.414   5.966
 5513POPC   C1A69879  31.291  10.250   6.214
 5513POPC   D2A69880  31.556  10.466   6.544
 5513POPC   C3A69881  31.413  10.599   6.973
 5513POPC   C4A69882  31.282  10.915   7.282
 5513POPC   C1B69883  31.818  10.101   6.289
 5513POPC   C2B69884  32.053  10.166   6.643
 5513POPC   C3B69885  31.840  10.316   6.961
 5513POPC   C4B69886  31.609  10.166   7.247
 5514POPC   NC369887  14.646   9.876   5.390
 5514POPC   PO469888  13.988   9.676   5.219
 5514POPC   GL169889  14.276   9.556   5.576
 5514POPC   GL269890  14.303   9.897   5.792
 5514POPC   C1A69891  14.442   9.469   6.017
 5514POPC   D2A69892  14.451   9.711   6.435
 5514POPC   C3A69893  14.235   9.744   6.820
 5514POPC   C4A69894  14.031  10.048   7.106
 5514POPC   C1B69895  14.716   9.937   6.059
 5514POPC   C2B69896  14.880   9.941   6.500
 5514POPC   C3B69897  14.694   9.917   6.888
 5514POPC   C4B69898  14.481   9.852   7.295
 5515POPC   NC369899  25.472   8.395   5.173
 5515POPC   PO469900  26.026   8.068   5.286
 5515POPC   GL169901  26.055   8.394   5.670
 5515POPC   GL269902  26.368   8.468   5.798
 5515POPC   C1A69903  25.937   8.449   6.148
 5515POPC   D2A69904  25.961   8.178   6.540
 5515POPC   C3A69905  25.938   8.387   6.935
 5515POPC   C4A69906  25.772   8.332   7.361
 5515POPC   C1B69907  26.344   8.179   6.186
 5515POPC   C2B69908  26.497   8.159   6.564
 5515POPC   C3B69909  26.442   8.230   6.957
 5515POPC   C4B69910  26.221   8.083   7.277
 5516POPC   NC369911  41.108  43.413   5.626
 5516POPC   PO469912  40.602  43.040   5.400
 5516POPC   GL169913  40.557  42.902   5.797
 5516POPC   GL269914  40.928  42.932   5.831
 5516POPC   C1A69915  40.620  42.735   6.196
 5516POPC   D2A69916  40.949  42.594   6.465
 5516POPC   C3A69917  40.893  42.895   6.809
 5516POPC   C4A69918  40.796  42.966   7.240
 5516POPC   C1B69919  40.811  43.231   6.186
 5516POPC   C2B69920  40.882  43.447   6.588
 5516POPC   C3B69921  40.998  43.386   7.032
 5516POPC   C4B69922  41.031  43.685   7.391
 5517POPC   NC369923  43.848  17.034   5.525
 5517POPC   PO469924  43.859  17.702   5.232
 5517POPC   GL169925  43.829  17.623   5.712
 5517POPC   GL269926  43.682  17.326   5.907
 5517POPC   C1A69927  44.028  17.604   6.149
 5517POPC   D2A69928  43.953  17.858   6.549
 5517POPC   C3A69929  43.854  17.658   6.933
 5517POPC   C4A69930  43.754  17.514   7.327
 5517POPC   C1B69931  43.899  17.138   6.286
 5517POPC   C2B69932  43.974  17.207   6.722
 5517POPC   C3B69933  43.713  17.095   7.073
 5517POPC   C4B69934  43.624  17.122   7.586
 5518POPC   NC369935  40.118   6.317   5.498
 5518POPC   PO469936  39.801   5.721   5.297
 5518POPC   GL169937  39.930   5.738   5.741
 5518POPC   GL269938  39.778   6.062   5.852
 5518POPC   C1A69939  40.176   5.622   6.132
 5518POPC   D2A69940  40.128   5.421   6.546
 5518POPC   C3A69941  40.157   5.701   6.888
 5518POPC   C4A69942  40.070   5.648   7.297
 5518POPC   C1B69943  39.767   6.205   6.289
 5518POPC   C2B69944  39.666   6.286   6.733
 5518POPC   C3B69945  39.858   6.091   7.109
 5518POPC   C4B69946  39.841   6.269   7.543
 5519POPC   NC369947  41.662   6.968   5.501
 5519POPC   PO469948  41.810   6.288   5.394
 5519POPC   GL169949  41.781   6.529   5.785
 5519POPC   GL269950  41.461   6.627   5.940
 5519POPC   C1A69951  41.817   6.433   6.238
 5519POPC   D2A69952  41.468   6.418   6.550
 5519POPC   C3A69953  41.590   6.406   6.982
 5519POPC   C4A69954  41.353   6.328   7.372
 5519POPC   C1B69955  41.589   6.904   6.301
 5519POPC   C2B69956  41.553   6.878   6.758
 5519POPC   C3B69957  41.267   6.784   7.113
 5519POPC   C4B69958  41.059   6.794   7.513
 5520POPC   NC369959   3.242   8.356   5.494
 5520POPC   PO469960   3.823   8.054   5.572
 5520POPC   GL169961   3.526   8.150   5.858
 5520POPC   GL269962   3.395   7.821   5.867
 5520POPC   C1A69963   3.645   8.402   6.228
 5520POPC   D2A69964   3.963   8.554   6.520
 5520POPC   C3A69965   3.831   8.559   6.946
 5520POPC   C4A69966   4.028   8.657   7.336
 5520POPC   C1B69967   3.673   7.879   6.252
 5520POPC   C2B69968   3.591   8.119   6.654
 5520POPC   C3B69969   3.682   8.076   7.095
 5520POPC   C4B69970   3.641   8.224   7.520
 5521POPC   NC369971  26.040  20.137   5.614
 5521POPC   PO469972  25.800  19.533   5.496
 5521POPC   GL169973  25.995  19.704   5.872
 5521POPC   GL269974  26.361  19.661   5.874
 5521POPC   C1A69975  26.128  19.894   6.279
 5521POPC   D2A69976  26.256  19.780   6.713
 5521POPC   C3A69977  26.030  19.917   7.077
 5521POPC   C4A69978  26.098  19.958   7.522
 5521POPC   C1B69979  26.458  19.493   6.311
 5521POPC   C2B69980  26.544  19.379   6.792
 5521POPC   C3B69981  26.397  19.556   7.210
 5521POPC   C4B69982  26.351  19.506   7.674
 5522POPC   NC369983   9.559   2.757   5.461
 5522POPC   PO469984   8.901   2.440   5.512
 5522POPC   GL169985   9.155   2.658   5.807
 5522POPC   GL269986   9.363   2.403   5.948
 5522POPC   C1A69987   8.954   2.980   6.080
 5522POPC   D2A69988   8.661   3.059   6.422
 5522POPC   C3A69989   8.907   3.234   6.716
 5522POPC   C4A69990   9.070   3.032   7.049
 5522POPC   C1B69991   9.206   2.604   6.310
 5522POPC   C2B69992   9.330   2.735   6.710
 5522POPC   C3B69993   9.143   2.531   7.070
 5522POPC   C4B69994   8.737   2.397   7.216
 5523POPC   NC369995   9.653  25.191   5.432
 5523POPC   PO469996  10.080  25.747   5.476
 5523POPC   GL169997   9.952  25.450   5.830
 5523POPC   GL269998   9.584  25.447   5.876
 5523POPC   C1A69999   9.878  25.323   6.295
 5523POPC   D2A70000   9.980  25.503   6.728
 5523POPC   C3A70001   9.790  25.280   7.102
 5523POPC   C4A70002   9.865  25.124   7.551
 5523POPC   C1B70003   9.360  25.478   6.278
 5523POPC   C2B70004   9.447  25.376   6.712
 5523POPC   C3B70005   9.263  25.453   7.117
 5523POPC   C4B70006   9.521  25.481   7.496
 5524POPC   NC370007  27.011  18.916   5.401
 5524POPC   PO470008  26.768  19.468   5.573
 5524POPC   GL170009  26.720  19.207   5.939
 5524POPC   GL270010  26.982  18.958   5.913
 5524POPC   C1A70011  26.758  19.100   6.409
 5524POPC   D2A70012  26.567  18.802   6.698
 5524POPC   C3A70013  26.446  18.985   7.088
 5524POPC   C4A70014  26.507  19.024   7.541
 5524POPC   C1B70015  27.153  18.820   6.302
 5524POPC   C2B70016  27.059  18.862   6.774
 5524POPC   C3B70017  26.929  18.781   7.209
 5524POPC   C4B70018  27.219  18.574   7.521
 5525POPC   NC370019   9.342  23.466   5.651
 5525POPC   PO470020   8.811  23.711   5.357
 5525POPC   GL170021   8.880  23.830   5.775
 5525POPC   GL270022   9.214  23.925   5.846
 5525POPC   C1A70023   8.590  23.811   6.123
 5525POPC   D2A70024   8.621  23.546   6.471
 5525POPC   C3A70025   8.719  23.830   6.789
 5525POPC   C4A70026   8.956  23.751   7.154
 5525POPC   C1B70027   9.085  23.762   6.265
 5525POPC   C2B70028   9.209  23.725   6.685
 5525POPC   C3B70029   9.393  23.461   6.976
 5525POPC   C4B70030   9.382  23.550   7.381
 5526POPC   NC370031  32.045   1.128   5.441
 5526POPC   PO470032  32.638   1.018   5.309
 5526POPC   GL170033  32.396   0.842   5.704
 5526POPC   GL270034  32.310   1.170   5.880
 5526POPC   C1A70035  32.271   0.759   6.172
 5526POPC   D2A70036  32.257   1.135   6.485
 5526POPC   C3A70037  32.347   1.286   6.898
 5526POPC   C4A70038  32.676   1.482   7.123
 5526POPC   C1B70039  31.908   1.129   6.121
 5526POPC   C2B70040  31.734   1.086   6.545
 5526POPC   C3B70041  31.826   1.283   6.951
 5526POPC   C4B70042  32.060   1.465   7.280
 5527POPC   NC370043   8.408   1.034   5.527
 5527POPC   PO470044   8.381   0.287   5.555
 5527POPC   GL170045   8.122   0.455   5.851
 5527POPC   GL270046   7.905   0.766   5.772
 5527POPC   C1A70047   8.253   0.382   6.262
 5527POPC   D2A70048   8.065   0.297   6.620
 5527POPC   C3A70049   8.347   0.289   6.890
 5527POPC   C4A70050   8.569   0.140   7.218
 5527POPC   C1B70051   8.065   0.855   6.178
 5527POPC   C2B70052   8.159   0.803   6.597
 5527POPC   C3B70053   8.033   0.699   6.990
 5527POPC   C4B70054   8.303   0.577   7.314
 5528POPC   NC370055  44.957  24.865   5.505
 5528POPC   PO470056  44.599  24.296   5.317
 5528POPC   GL170057  44.774  24.386   5.724
 5528POPC   GL270058  44.593  24.641   5.811
 5528POPC   C1A70059  44.719  24.266   6.163
 5528POPC   D2A70060  44.661  24.498   6.562
 5528POPC   C3A70061  44.650  24.315   6.968
 5528POPC   C4A70062  44.853  24.471   7.324
 5528POPC   C1B70063  44.468  24.808   6.198
 5528POPC   C2B70064  44.236  24.787   6.602
 5528POPC   C3B70065  44.411  24.784   7.011
 5528POPC   C4B70066  44.176  24.822   7.383
 5529POPC   NC370067  39.276  13.724   5.523
 5529POPC   PO470068  39.703  14.197   5.651
 5529POPC   GL170069  39.495  13.926   5.946
 5529POPC   GL270070  39.522  13.547   5.982
 5529POPC   C1A70071  39.145  13.770   6.238
 5529POPC   D2A70072  39.226  13.554   6.648
 5529POPC   C3A70073  39.096  13.756   7.031
 5529POPC   C4A70074  38.968  13.513   7.370
 5529POPC   C1B70075  39.639  13.791   6.403
 5529POPC   C2B70076  39.633  13.858   6.861
 5529POPC   C3B70077  39.554  13.508   7.130
 5529POPC   C4B70078  39.776  13.232   7.390
 5530POPC   NC370079  27.464   0.995   5.470
 5530POPC   PO470080  27.929   1.442   5.421
 5530POPC   GL170081  27.947   1.322   5.866
 5530POPC   GL270082  27.591   1.244   5.901
 5530POPC   C1A70083  27.838   1.389   6.333
 5530POPC   D2A70084  27.601   1.091   6.641
 5530POPC   C3A70085  27.721   1.097   7.094
 5530POPC   C4A70086  27.815   0.985   7.503
 5530POPC   C1B70087  27.335   0.953   6.172
 5530POPC   C2B70088  27.163   0.761   6.560
 5530POPC   C3B70089  27.322   0.775   6.991
 5530POPC   C4B70090  27.226   1.075   7.262
 5531POPC   NC370091  34.902  15.150   5.167
 5531POPC   PO470092  34.455  15.174   5.645
 5531POPC   GL170093  34.806  15.150   5.875
 5531POPC   GL270094  35.060  14.923   5.784
 5531POPC   C1A70095  34.753  15.170   6.298
 5531POPC   D2A70096  34.822  15.420   6.648
 5531POPC   C3A70097  34.694  15.146   6.956
 5531POPC   C4A70098  34.489  15.248   7.336
 5531POPC   C1B70099  34.973  14.689   6.188
 5531POPC   C2B70100  34.767  14.675   6.628
 5531POPC   C3B70101  35.008  14.718   7.030
 5531POPC   C4B70102  34.970  14.991   7.374
 5532POPC   NC370103  18.611  17.710   4.926
 5532POPC   PO470104  18.149  17.385   5.386
 5532POPC   GL170105  18.287  17.439   5.831
 5532POPC   GL270106  18.418  17.758   5.984
 5532POPC   C1A70107  17.988  17.489   6.155
 5532POPC   D2A70108  17.986  17.366   6.567
 5532POPC   C3A70109  18.131  17.644   6.902
 5532POPC   C4A70110  18.035  17.477   7.292
 5532POPC   C1B70111  18.404  17.650   6.428
 5532POPC   C2B70112  18.474  17.297   6.728
 5532POPC   C3B70113  18.527  17.408   7.146
 5532POPC   C4B70114  18.538  17.591   7.534
 5533POPC   NC370115  24.686  12.427   5.523
 5533POPC   PO470116  24.810  13.038   5.433
 5533POPC   GL170117  24.638  13.119   5.847
 5533POPC   GL270118  24.579  12.765   5.886
 5533POPC   C1A70119  24.409  13.096   6.257
 5533POPC   D2A70120  24.380  12.863   6.641
 5533POPC   C3A70121  24.479  13.068   7.035
 5533POPC   C4A70122  24.748  13.060   7.412
 5533POPC   C1B70123  24.585  12.561   6.274
 5533POPC   C2B70124  24.797  12.596   6.683
 5533POPC   C3B70125  24.667  12.610   7.117
 5533POPC   C4B70126  24.713  12.481   7.556
 5534POPC   NC370127  19.644  21.342   5.383
 5534POPC   PO470128  19.973  20.842   5.399
 5534POPC   GL170129  20.066  21.084   5.786
 5534POPC   GL270130  19.878  21.400   5.825
 5534POPC   C1A70131  20.124  21.227   6.222
 5534POPC   D2A70132  19.878  21.447   6.539
 5534POPC   C3A70133  19.793  21.265   6.941
 5534POPC   C4A70134  19.949  21.231   7.357
 5534POPC   C1B70135  19.626  21.659   6.112
 5534POPC   C2B70136  19.442  21.739   6.504
 5534POPC   C3B70137  19.387  21.573   6.894
 5534POPC   C4B70138  19.564  21.578   7.291
 5535POPC   NC370139  25.158  16.136   5.410
 5535POPC   PO470140  25.638  15.668   5.498
 5535POPC   GL170141  25.395  15.962   5.839
 5535POPC   GL270142  25.080  16.221   5.905
 5535POPC   C1A70143  25.200  15.863   6.248
 5535POPC   D2A70144  25.259  16.017   6.633
 5535POPC   C3A70145  25.254  15.714   6.964
 5535POPC   C4A70146  25.489  15.953   7.257
 5535POPC   C1B70147  24.764  16.141   6.259
 5535POPC   C2B70148  24.755  15.955   6.689
 5535POPC   C3B70149  24.992  16.139   7.063
 5535POPC   C4B70150  25.019  16.152   7.499
 5536POPC   NC370151   9.605  14.544   5.242
 5536POPC   PO470152   9.707  13.870   5.305
 5536POPC   GL170153   9.702  14.193   5.636
 5536POPC   GL270154  10.003  14.164   5.837
 5536POPC   C1A70155   9.594  14.405   6.043
 5536POPC   D2A70156   9.489  14.589   6.465
 5536POPC   C3A70157   9.716  14.398   6.821
 5536POPC   C4A70158   9.602  14.428   7.253
 5536POPC   C1B70159  10.113  14.386   6.193
 5536POPC   C2B70160  10.322  14.366   6.561
 5536POPC   C3B70161  10.275  14.452   6.958
 5536POPC   C4B70162  10.128  14.499   7.337
 5537POPC   NC370163  39.988  34.072   5.444
 5537POPC   PO470164  40.102  34.657   5.283
 5537POPC   GL170165  39.963  34.593   5.736
 5537POPC   GL270166  40.012  34.254   5.913
 5537POPC   C1A70167  40.021  34.704   6.185
 5537POPC   D2A70168  40.121  34.443   6.566
 5537POPC   C3A70169  40.068  34.651   6.972
 5537POPC   C4A70170  40.353  34.678   7.307
 5537POPC   C1B70171  39.767  34.222   6.253
 5537POPC   C2B70172  39.619  34.380   6.645
 5537POPC   C3B70173  39.849  34.179   6.958
 5537POPC   C4B70174  40.172  34.216   7.240
 5538POPC   NC370175   2.432  15.179   5.453
 5538POPC   PO470176   3.029  15.027   5.434
 5538POPC   GL170177   2.795  15.077   5.836
 5538POPC   GL270178   2.722  15.418   5.835
 5538POPC   C1A70179   2.480  15.168   6.196
 5538POPC   D2A70180   2.259  15.296   6.579
 5538POPC   C3A70181   2.495  15.092   6.894
 5538POPC   C4A70182   2.672  15.114   7.274
 5538POPC   C1B70183   2.914  15.478   6.214
 5538POPC   C2B70184   2.767  15.447   6.630
 5538POPC   C3B70185   2.888  15.535   7.051
 5538POPC   C4B70186   3.111  15.337   7.429
 5539POPC   NC370187  28.637  18.436   5.379
 5539POPC   PO470188  28.042  18.147   5.394
 5539POPC   GL170189  28.260  18.339   5.724
 5539POPC   GL270190  28.337  18.010   5.860
 5539POPC   C1A70191  28.164  18.644   6.053
 5539POPC   D2A70192  27.910  18.505   6.407
 5539POPC   C3A70193  27.980  18.610   6.841
 5539POPC   C4A70194  28.181  18.408   7.182
 5539POPC   C1B70195  28.324  18.196   6.257
 5539POPC   C2B70196  28.327  18.226   6.699
 5539POPC   C3B70197  28.644  18.293   6.998
 5539POPC   C4B70198  28.609  18.244   7.454
 5540POPC   NC370199  35.886  20.643   5.190
 5540POPC   PO470200  36.423  20.212   5.210
 5540POPC   GL170201  36.392  20.434   5.632
 5540POPC   GL270202  36.354  20.807   5.556
 5540POPC   C1A70203  36.456  20.396   6.087
 5540POPC   D2A70204  36.141  20.501   6.408
 5540POPC   C3A70205  36.135  20.437   6.862
 5540POPC   C4A70206  35.817  20.634   7.124
 5540POPC   C1B70207  36.307  20.884   6.007
 5540POPC   C2B70208  36.236  21.006   6.442
 5540POPC   C3B70209  36.129  20.952   6.863
 5540POPC   C4B70210  36.429  20.929   7.202
 5541POPC   NC370211   2.939  39.173   5.469
 5541POPC   PO470212   2.654  39.845   5.477
 5541POPC   GL170213   2.744  39.509   5.803
 5541POPC   GL270214   2.523  39.184   5.760
 5541POPC   C1A70215   2.853  39.264   6.164
 5541POPC   D2A70216   3.166  39.213   6.470
 5541POPC   C3A70217   3.033  39.330   6.896
 5541POPC   C4A70218   3.167  39.155   7.276
 5541POPC   C1B70219   2.398  39.007   6.145
 5541POPC   C2B70220   2.488  39.129   6.539
 5541POPC   C3B70221   2.413  39.016   6.956
 5541POPC   C4B70222   2.655  39.239   7.251
 5542POPC   NC370223  31.665   0.272   5.548
 5542POPC   PO470224  31.120   0.651   5.679
 5542POPC   GL170225  31.361   0.373   5.956
 5542POPC   GL270226  31.725   0.509   5.987
 5542POPC   C1A70227  31.371   0.302   6.387
 5542POPC   D2A70228  31.377   0.712   6.580
 5542POPC   C3A70229  31.617   0.748   6.931
 5542POPC   C4A70230  31.493   0.612   7.312
 5542POPC   C1B70231  31.832   0.537   6.400
 5542POPC   C2B70232  31.749   0.279   6.762
 5542POPC   C3B70233  31.979   0.427   7.103
 5542POPC   C4B70234  31.956   0.834   7.317
 5543POPC   NC370235  36.883  13.181   5.346
 5543POPC   PO470236  36.874  12.566   5.171
 5543POPC   GL170237  36.817  12.763   5.623
 5543POPC   GL270238  37.127  12.903   5.718
 5543POPC   C1A70239  36.736  12.859   6.082
 5543POPC   D2A70240  36.563  12.763   6.499
 5543POPC   C3A70241  36.865  12.580   6.774
 5543POPC   C4A70242  37.072  12.472   7.137
 5543POPC   C1B70243  37.203  13.060   6.135
 5543POPC   C2B70244  37.025  13.005   6.506
 5543POPC   C3B70245  36.800  13.092   6.863
 5543POPC   C4B70246  37.032  13.020   7.241
 5544POPC   NC370247  13.269  44.315   5.383
 5544POPC   PO470248  12.679  43.825   5.427
 5544POPC   GL170249  12.990  43.962   5.725
 5544POPC   GL270250  12.872  44.307   5.795
 5544POPC   C1A70251  13.054  43.886   6.165
 5544POPC   D2A70252  12.921  43.702   6.539
 5544POPC   C3A70253  13.107  43.858   6.905
 5544POPC   C4A70254  13.103  43.729   7.285
 5544POPC   C1B70255  12.670  44.264   6.236
 5544POPC   C2B70256  12.614  44.090   6.692
 5544POPC   C3B70257  12.729  44.121   7.143
 5544POPC   C4B70258  12.665  44.298   7.612
 5545POPC   NC370259  31.081  37.163   5.111
 5545POPC   PO470260  30.667  36.855   5.502
 5545POPC   GL170261  30.761  36.953   5.915
 5545POPC   GL270262  30.442  36.890   6.025
 5545POPC   C1A70263  30.740  37.193   6.300
 5545POPC   D2A70264  30.459  37.040   6.632
 5545POPC   C3A70265  30.698  36.875   6.951
 5545POPC   C4A70266  30.714  36.884   7.376
 5545POPC   C1B70267  30.594  36.622   6.379
 5545POPC   C2B70268  30.465  36.449   6.769
 5545POPC   C3B70269  30.304  36.624   7.154
 5545POPC   C4B70270  30.388  36.535   7.580
 5546POPC   NC370271  41.341  41.592   5.468
 5546POPC   PO470272  42.063  41.639   5.376
 5546POPC   GL170273  41.806  41.547   5.765
 5546POPC   GL270274  41.550  41.788   5.896
 5546POPC   C1A70275  41.776  41.424   6.205
 5546POPC   D2A70276  41.864  41.285   6.623
 5546POPC   C3A70277  41.812  41.553   6.969
 5546POPC   C4A70278  41.782  41.465   7.412
 5546POPC   C1B70279  41.299  41.635   6.247
 5546POPC   C2B70280  41.386  41.485   6.676
 5546POPC   C3B70281  41.300  41.593   7.112
 5546POPC   C4B70282  40.882  41.618   7.339
 5547POPC   NC370283  14.157  18.650   5.307
 5547POPC   PO470284  14.221  19.270   5.553
 5547POPC   GL170285  14.429  19.177   5.876
 5547POPC   GL270286  14.312  18.826   5.811
 5547POPC   C1A70287  14.359  19.335   6.295
 5547POPC   D2A70288  14.079  19.365   6.639
 5547POPC   C3A70289  14.256  19.393   7.069
 5547POPC   C4A70290  14.348  19.206   7.470
 5547POPC   C1B70291  14.415  18.824   6.250
 5547POPC   C2B70292  14.478  18.996   6.673
 5547POPC   C3B70293  14.251  18.887   7.057
 5547POPC   C4B70294  14.158  18.531   7.380
 5548POPC   NC370295  10.877  33.141   5.302
 5548POPC   PO470296  11.575  32.960   5.164
 5548POPC   GL170297  11.310  33.245   5.563
 5548POPC   GL270298  11.107  32.974   5.751
 5548POPC   C1A70299  11.369  33.297   6.068
 5548POPC   D2A70300  11.249  33.292   6.488
 5548POPC   C3A70301  11.542  33.220   6.787
 5548POPC   C4A70302  11.457  33.122   7.221
 5548POPC   C1B70303  11.156  32.848   6.185
 5548POPC   C2B70304  11.474  32.785   6.477
 5548POPC   C3B70305  11.240  32.798   6.819
 5548POPC   C4B70306  11.013  32.812   7.220
 5549POPC   NC370307  33.341  26.311   5.565
 5549POPC   PO470308  33.057  26.992   5.485
 5549POPC   GL170309  33.273  26.826   5.828
 5549POPC   GL270310  33.029  26.594   5.896
 5549POPC   C1A70311  33.226  26.837   6.297
 5549POPC   D2A70312  33.018  26.673   6.646
 5549POPC   C3A70313  33.119  26.959   6.951
 5549POPC   C4A70314  33.371  26.715   7.176
 5549POPC   C1B70315  32.729  26.834   6.201
 5549POPC   C2B70316  32.644  27.006   6.629
 5549POPC   C3B70317  32.655  26.741   7.042
 5549POPC   C4B70318  32.743  26.842   7.497
 5550POPC   NC370319  28.660  24.825   5.561
 5550POPC   PO470320  28.902  25.455   5.566
 5550POPC   GL170321  28.938  25.223   5.914
 5550POPC   GL270322  29.071  24.913   5.841
 5550POPC   C1A70323  28.993  25.066   6.322
 5550POPC   D2A70324  29.007  25.082   6.734
 5550POPC   C3A70325  29.264  25.387   6.913
 5550POPC   C4A70326  28.981  25.243   7.246
 5550POPC   C1B70327  29.411  24.808   6.100
 5550POPC   C2B70328  29.571  24.960   6.470
 5550POPC   C3B70329  29.444  24.885   6.898
 5550POPC   C4B70330  29.466  25.093   7.262
 5551POPC   NC370331   9.882  13.479   5.166
 5551POPC   PO470332   9.284  13.230   5.474
 5551POPC   GL170333   9.637  13.421   5.641
 5551POPC   GL270334   9.555  13.728   5.794
 5551POPC   C1A70335   9.816  13.378   6.066
 5551POPC   D2A70336   9.783  13.557   6.466
 5551POPC   C3A70337   9.909  13.425   6.851
 5551POPC   C4A70338  10.018  13.540   7.256
 5551POPC   C1B70339   9.678  13.938   6.173
 5551POPC   C2B70340   9.941  14.025   6.561
 5551POPC   C3B70341  10.008  14.007   7.029
 5551POPC   C4B70342   9.731  13.968   7.404
 5552POPC   NC370343  37.819  42.592   5.540
 5552POPC   PO470344  37.809  41.935   5.468
 5552POPC   GL170345  37.545  42.177   5.755
 5552POPC   GL270346  37.304  42.424   5.594
 5552POPC   C1A70347  37.746  42.347   6.156
 5552POPC   D2A70348  37.898  42.223   6.547
 5552POPC   C3A70349  37.718  42.400   6.910
 5552POPC   C4A70350  37.830  42.382   7.331
 5552POPC   C1B70351  37.314  42.584   6.043
 5552POPC   C2B70352  37.374  42.597   6.505
 5552POPC   C3B70353  37.301  42.682   6.943
 5552POPC   C4B70354  37.347  42.515   7.375
 5553POPC   NC370355  27.814  21.547   5.275
 5553POPC   PO470356  28.045  20.887   5.416
 5553POPC   GL170357  27.701  21.232   5.654
 5553POPC   GL270358  27.789  21.579   5.803
 5553POPC   C1A70359  27.474  21.274   6.107
 5553POPC   D2A70360  27.433  21.121   6.584
 5553POPC   C3A70361  27.328  21.349   6.982
 5553POPC   C4A70362  27.318  21.259   7.425
 5553POPC   C1B70363  27.889  21.519   6.273
 5553POPC   C2B70364  27.721  21.561   6.731
 5553POPC   C3B70365  27.782  21.421   7.219
 5553POPC   C4B70366  27.888  21.421   7.706
 5554POPC   NC370367  24.540  22.653   5.467
 5554POPC   PO470368  24.717  23.388   5.412
 5554POPC   GL170369  24.792  23.212   5.856
 5554POPC   GL270370  24.603  22.901   5.907
 5554POPC   C1A70371  24.601  23.245   6.288
 5554POPC   D2A70372  24.484  23.050   6.705
 5554POPC   C3A70373  24.690  23.148   7.103
 5554POPC   C4A70374  24.707  22.937   7.486
 5554POPC   C1B70375  24.646  22.717   6.335
 5554POPC   C2B70376  24.531  22.530   6.725
 5554POPC   C3B70377  24.475  22.628   7.149
 5554POPC   C4B70378  24.483  22.495   7.597
 5555POPC   NC370379   7.202  26.834   5.339
 5555POPC   PO470380   7.739  26.570   5.513
 5555POPC   GL170381   7.437  26.805   5.809
 5555POPC   GL270382   7.100  27.015   5.793
 5555POPC   C1A70383   7.435  27.003   6.239
 5555POPC   D2A70384   7.549  27.153   6.677
 5555POPC   C3A70385   7.539  26.856   7.020
 5555POPC   C4A70386   7.762  26.770   7.392
 5555POPC   C1B70387   6.969  26.788   6.173
 5555POPC   C2B70388   7.079  26.909   6.615
 5555POPC   C3B70389   7.089  27.090   7.041
 5555POPC   C4B70390   6.908  26.945   7.450
 5556POPC   NC370391  19.684   4.317   5.414
 5556POPC   PO470392  20.388   4.215   5.595
 5556POPC   GL170393  20.180   4.345   5.958
 5556POPC   GL270394  19.896   4.507   5.848
 5556POPC   C1A70395  19.842   4.234   6.266
 5556POPC   D2A70396  19.796   4.108   6.688
 5556POPC   C3A70397  20.032   4.313   7.028
 5556POPC   C4A70398  19.832   4.470   7.400
 5556POPC   C1B70399  19.525   4.661   6.107
 5556POPC   C2B70400  19.446   4.847   6.532
 5556POPC   C3B70401  19.536   4.705   6.969
 5556POPC   C4B70402  19.340   4.706   7.371
 5557POPC   NC370403   5.891   0.762   5.458
 5557POPC   PO470404   5.871   0.105   5.506
 5557POPC   GL170405   5.799   0.188   5.919
 5557POPC   GL270406   5.775   0.521   5.898
 5557POPC   C1A70407   5.755   0.183   6.352
 5557POPC   D2A70408   5.958   0.180   6.749
 5557POPC   C3A70409   5.715   0.211   7.104
 5557POPC   C4A70410   5.579   0.372   7.461
 5557POPC   C1B70411   5.923   0.657   6.285
 5557POPC   C2B70412   6.145   0.657   6.655
 5557POPC   C3B70413   5.944   0.653   7.042
 5557POPC   C4B70414   5.782   0.898   7.330
 5558POPC   NC370415  32.593  26.465   5.476
 5558POPC   PO470416  32.350  25.763   5.323
 5558POPC   GL170417  32.265  25.795   5.771
 5558POPC   GL270418  32.181  26.140   5.816
 5558POPC   C1A70419  32.459  25.899   6.186
 5558POPC   D2A70420  32.555  25.909   6.631
 5558POPC   C3A70421  32.307  25.776   6.964
 5558POPC   C4A70422  32.414  25.907   7.368
 5558POPC   C1B70423  31.988  26.112   6.211
 5558POPC   C2B70424  32.078  26.136   6.643
 5558POPC   C3B70425  32.373  26.267   6.967
 5558POPC   C4B70426  32.005  26.199   7.214
 5559POPC   NC370427  31.029  43.678   5.651
 5559POPC   PO470428  31.543  43.722   5.202
 5559POPC   GL170429  31.532  43.879   5.664
 5559POPC   GL270430  31.316  44.154   5.697
 5559POPC   C1A70431  31.558  43.966   6.142
 5559POPC   D2A70432  31.636  43.759   6.539
 5559POPC   C3A70433  31.556  43.907   6.962
 5559POPC   C4A70434  31.562  43.693   7.364
 5559POPC   C1B70435  31.158  44.272   6.116
 5559POPC   C2B70436  31.265  44.174   6.554
 5559POPC   C3B70437  31.188  44.260   7.010
 5559POPC   C4B70438  31.451  44.332   7.390
 5560POPC   NC370439   4.298   2.293   5.222
 5560POPC   PO470440   3.962   1.786   5.301
 5560POPC   GL170441   4.238   1.980   5.645
 5560POPC   GL270442   4.393   2.308   5.707
 5560POPC   C1A70443   4.470   1.951   6.050
 5560POPC   D2A70444   4.344   1.977   6.490
 5560POPC   C3A70445   4.652   1.955   6.839
 5560POPC   C4A70446   4.543   2.118   7.236
 5560POPC   C1B70447   4.009   2.316   5.987
 5560POPC   C2B70448   3.902   2.292   6.434
 5560POPC   C3B70449   4.000   2.295   6.876
 5560POPC   C4B70450   4.001   2.161   7.318
 5561POPC   NC370451  13.337  18.445   5.431
 5561POPC   PO470452  13.962  18.286   5.517
 5561POPC   GL170453  13.897  18.350   5.903
 5561POPC   GL270454  13.564  18.242   5.886
 5561POPC   C1A70455  14.167  18.339   6.262
 5561POPC   D2A70456  14.134  18.128   6.637
 5561POPC   C3A70457  13.738  18.206   6.828
 5561POPC   C4A70458  13.649  18.284   7.275
 5561POPC   C1B70459  13.552  18.123   6.330
 5561POPC   C2B70460  13.324  17.916   6.681
 5561POPC   C3B70461  13.222  18.025   7.096
 5561POPC   C4B70462  13.185  18.143   7.523
 5562POPC   NC370463  17.351   1.976   5.355
 5562POPC   PO470464  17.980   1.748   5.386
 5562POPC   GL170465  17.687   1.908   5.749
 5562POPC   GL270466  17.312   1.825   5.838
 5562POPC   C1A70467  17.674   1.962   6.206
 5562POPC   D2A70468  17.887   2.145   6.559
 5562POPC   C3A70469  17.765   1.966   6.982
 5562POPC   C4A70470  17.466   1.699   7.231
 5562POPC   C1B70471  17.146   2.079   6.166
 5562POPC   C2B70472  17.085   1.974   6.612
 5562POPC   C3B70473  17.273   2.112   6.981
 5562POPC   C4B70474  17.227   2.160   7.413
 5563POPC   NC370475  41.494  27.370   5.677
 5563POPC   PO470476  41.530  26.761   5.423
 5563POPC   GL170477  41.573  26.804   5.817
 5563POPC   GL270478  41.871  26.990   5.784
 5563POPC   C1A70479  41.338  26.727   6.205
 5563POPC   D2A70480  41.158  26.577   6.584
 5563POPC   C3A70481  41.359  26.675   6.962
 5563POPC   C4A70482  41.565  26.995   7.212
 5563POPC   C1B70483  41.901  26.842   6.205
 5563POPC   C2B70484  41.687  26.887   6.591
 5563POPC   C3B70485  41.887  26.734   6.937
 5563POPC   C4B70486  42.101  26.916   7.265
 5564POPC   NC370487  10.124  33.795   5.370
 5564POPC   PO470488   9.501  34.054   5.419
 5564POPC   GL170489   9.676  33.822   5.788
 5564POPC   GL270490   9.472  33.530   5.910
 5564POPC   C1A70491   9.761  33.791   6.252
 5564POPC   D2A70492   9.643  34.027   6.651
 5564POPC   C3A70493   9.751  33.812   7.054
 5564POPC   C4A70494   9.927  33.906   7.448
 5564POPC   C1B70495   9.371  33.417   6.332
 5564POPC   C2B70496   9.515  33.474   6.756
 5564POPC   C3B70497   9.347  33.505   7.191
 5564POPC   C4B70498   9.173  33.367   7.594
 5565POPC   NC370499   5.517  12.152   5.481
 5565POPC   PO470500   5.025  11.658   5.414
 5565POPC   GL170501   5.069  11.969   5.810
 5565POPC   GL270502   5.336  12.189   5.949
 5565POPC   C1A70503   4.866  12.158   6.166
 5565POPC   D2A70504   4.877  12.017   6.590
 5565POPC   C3A70505   5.010  12.272   6.938
 5565POPC   C4A70506   4.860  12.288   7.366
 5565POPC   C1B70507   5.328  12.232   6.400
 5565POPC   C2B70508   5.438  12.494   6.731
 5565POPC   C3B70509   5.478  12.379   7.136
 5565POPC   C4B70510   5.328  12.042   7.290
 5566POPC   NC370511   4.268  41.375   4.997
 5566POPC   PO470512   4.550  41.785   5.425
 5566POPC   GL170513   4.184  41.800   5.726
 5566POPC   GL270514   4.210  41.474   5.870
 5566POPC   C1A70515   4.104  41.867   6.185
 5566POPC   D2A70516   4.340  41.662   6.531
 5566POPC   C3A70517   4.298  41.809   6.941
 5566POPC   C4A70518   4.653  41.833   7.246
 5566POPC   C1B70519   4.560  41.404   6.105
 5566POPC   C2B70520   4.745  41.293   6.491
 5566POPC   C3B70521   4.636  41.427   6.906
 5566POPC   C4B70522   4.320  41.407   7.251
 5567POPC   NC370523  10.878  35.733   5.499
 5567POPC   PO470524  10.664  35.181   5.451
 5567POPC   GL170525  10.330  35.352   5.746
 5567POPC   GL270526  10.173  35.699   5.805
 5567POPC   C1A70527  10.246  35.240   6.189
 5567POPC   D2A70528  10.496  35.260   6.596
 5567POPC   C3A70529  10.377  35.272   7.038
 5567POPC   C4A70530  10.401  35.502   7.425
 5567POPC   C1B70531  10.483  35.700   6.143
 5567POPC   C2B70532  10.699  35.742   6.538
 5567POPC   C3B70533  10.536  35.754   6.954
 5567POPC   C4B70534  10.749  35.878   7.321
 5568POPC   NC370535   7.363   7.757   5.639
 5568POPC   PO470536   7.154   8.276   5.232
 5568POPC   GL170537   7.229   8.252   5.746
 5568POPC   GL270538   7.621   8.260   5.872
 5568POPC   C1A70539   7.317   8.035   6.213
 5568POPC   D2A70540   7.497   8.262   6.571
 5568POPC   C3A70541   7.487   8.099   6.953
 5568POPC   C4A70542   7.276   7.953   7.243
 5568POPC   C1B70543   7.839   8.057   6.273
 5568POPC   C2B70544   7.944   8.060   6.733
 5568POPC   C3B70545   7.933   8.061   7.190
 5568POPC   C4B70546   7.850   8.057   7.621
 5569POPC   NC370547  30.097  40.472   5.501
 5569POPC   PO470548  29.719  41.164   5.424
 5569POPC   GL170549  29.807  40.825   5.757
 5569POPC   GL270550  30.170  40.867   5.826
 5569POPC   C1A70551  29.801  40.767   6.241
 5569POPC   D2A70552  29.946  41.039   6.626
 5569POPC   C3A70553  30.061  40.873   7.040
 5569POPC   C4A70554  29.968  40.859   7.479
 5569POPC   C1B70555  30.309  40.691   6.224
 5569POPC   C2B70556  30.147  40.563   6.622
 5569POPC   C3B70557  30.286  40.409   7.025
 5569POPC   C4B70558  30.404  40.617   7.397
 5570POPC   NC370559  25.867  38.175   5.694
 5570POPC   PO470560  26.130  38.757   5.315
 5570POPC   GL170561  26.192  38.599   5.787
 5570POPC   GL270562  26.387  38.322   5.865
 5570POPC   C1A70563  26.017  38.476   6.252
 5570POPC   D2A70564  25.913  38.686   6.645
 5570POPC   C3A70565  25.905  38.473   7.071
 5570POPC   C4A70566  26.029  38.352   7.515
 5570POPC   C1B70567  26.476  38.268   6.298
 5570POPC   C2B70568  26.242  38.239   6.718
 5570POPC   C3B70569  26.403  38.218   7.172
 5570POPC   C4B70570  26.432  38.098   7.667
 5571POPC   NC370571  31.374   7.671   5.412
 5571POPC   PO470572  31.377   8.356   5.234
 5571POPC   GL170573  31.575   8.327   5.669
 5571POPC   GL270574  31.673   7.972   5.736
 5571POPC   C1A70575  31.458   8.221   6.123
 5571POPC   D2A70576  31.256   8.094   6.514
 5571POPC   C3A70577  31.430   8.397   6.804
 5571POPC   C4A70578  31.381   8.400   7.226
 5571POPC   C1B70579  31.840   7.863   6.141
 5571POPC   C2B70580  31.769   8.048   6.552
 5571POPC   C3B70581  31.577   7.941   6.966
 5571POPC   C4B70582  31.715   7.800   7.370
 5572POPC   NC370583  40.184   0.554   5.430
 5572POPC   PO470584  39.739   0.158   5.567
 5572POPC   GL170585  39.962   0.398   5.910
 5572POPC   GL270586  40.307   0.513   5.921
 5572POPC   C1A70587  40.023   0.434   6.372
 5572POPC   D2A70588  39.780   0.220   6.689
 5572POPC   C3A70589  39.922   0.377   7.062
 5572POPC   C4A70590  39.833   0.740   7.246
 5572POPC   C1B70591  40.501   0.623   6.314
 5572POPC   C2B70592  40.408   0.505   6.739
 5572POPC   C3B70593  40.303   0.763   7.085
 5572POPC   C4B70594  40.247   0.787   7.549
 5573POPC   NC370595  18.746  36.959   5.495
 5573POPC   PO470596  19.157  36.464   5.417
 5573POPC   GL170597  19.087  36.703   5.803
 5573POPC   GL270598  18.943  36.992   5.967
 5573POPC   C1A70599  18.976  36.550   6.224
 5573POPC   D2A70600  19.018  36.794   6.608
 5573POPC   C3A70601  18.925  36.610   6.998
 5573POPC   C4A70602  19.083  36.677   7.441
 5573POPC   C1B70603  18.691  37.082   6.331
 5573POPC   C2B70604  18.537  36.944   6.730
 5573POPC   C3B70605  18.733  37.057   7.134
 5573POPC   C4B70606  18.922  37.173   7.529
 5574POPC   NC370607  37.194  10.643   5.483
 5574POPC   PO470608  37.865  10.434   5.571
 5574POPC   GL170609  37.674  10.206   5.909
 5574POPC   GL270610  37.383  10.379   5.880
 5574POPC   C1A70611  37.766  10.191   6.376
 5574POPC   D2A70612  38.029  10.442   6.666
 5574POPC   C3A70613  37.980  10.391   7.085
 5574POPC   C4A70614  37.820  10.700   7.312
 5574POPC   C1B70615  37.407  10.558   6.295
 5574POPC   C2B70616  37.498  10.541   6.730
 5574POPC   C3B70617  37.390  10.765   7.084
 5574POPC   C4B70618  37.338  10.593   7.512
 5575POPC   NC370619  43.416  24.565   5.397
 5575POPC   PO470620  42.807  24.473   5.230
 5575POPC   GL170621  43.022  24.313   5.644
 5575POPC   GL270622  43.298  24.492   5.881
 5575POPC   C1A70623  42.905  24.246   6.101
 5575POPC   D2A70624  42.753  24.326   6.531
 5575POPC   C3A70625  42.864  24.198   6.928
 5575POPC   C4A70626  43.141  24.260   7.284
 5575POPC   C1B70627  43.178  24.621   6.313
 5575POPC   C2B70628  43.188  24.612   6.742
 5575POPC   C3B70629  43.296  24.876   7.062
 5575POPC   C4B70630  43.273  24.722   7.472
 5576POPC   NC370631  16.469  31.663   5.494
 5576POPC   PO470632  15.797  31.562   5.554
 5576POPC   GL170633  16.107  31.706   5.867
 5576POPC   GL270634  16.293  31.415   5.921
 5576POPC   C1A70635  16.025  31.651   6.308
 5576POPC   D2A70636  15.661  31.577   6.580
 5576POPC   C3A70637  15.769  31.545   7.004
 5576POPC   C4A70638  16.180  31.562   7.164
 5576POPC   C1B70639  16.250  31.182   6.327
 5576POPC   C2B70640  15.979  31.183   6.692
 5576POPC   C3B70641  15.910  31.066   7.136
 5576POPC   C4B70642  16.241  31.071   7.468
 5577POPC   NC370643  36.669  12.223   4.952
 5577POPC   PO470644  37.051  11.754   5.362
 5577POPC   GL170645  36.888  11.988   5.716
 5577POPC   GL270646  36.718  12.274   5.643
 5577POPC   C1A70647  37.090  12.007   6.115
 5577POPC   D2A70648  37.071  12.142   6.550
 5577POPC   C3A70649  37.131  11.824   6.879
 5577POPC   C4A70650  37.087  11.957   7.294
 5577POPC   C1B70651  36.670  12.314   6.111
 5577POPC   C2B70652  36.547  12.244   6.550
 5577POPC   C3B70653  36.708  12.103   6.956
 5577POPC   C4B70654  36.623  12.177   7.395
 5578POPC   NC370655  39.341   5.720   5.301
 5578POPC   PO470656  38.909   6.144   5.507
 5578POPC   GL170657  39.266   5.973   5.751
 5578POPC   GL270658  39.415   5.640   5.802
 5578POPC   C1A70659  39.301   6.022   6.192
 5578POPC   D2A70660  39.159   6.154   6.600
 5578POPC   C3A70661  39.184   5.775   6.851
 5578POPC   C4A70662  39.147   5.718   7.292
 5578POPC   C1B70663  39.667   5.661   6.190
 5578POPC   C2B70664  39.707   5.775   6.624
 5578POPC   C3B70665  39.638   5.591   7.032
 5578POPC   C4B70666  39.619   5.770   7.461
 5579POPC   NC370667  40.652  27.901   5.582
 5579POPC   PO470668  41.157  27.508   5.377
 5579POPC   GL170669  40.848  27.466   5.780
 5579POPC   GL270670  40.429  27.510   5.834
 5579POPC   C1A70671  40.706  27.302   6.193
 5579POPC   D2A70672  40.501  27.429   6.530
 5579POPC   C3A70673  40.649  27.351   6.913
 5579POPC   C4A70674  40.529  27.428   7.315
 5579POPC   C1B70675  40.481  27.816   6.199
 5579POPC   C2B70676  40.615  27.945   6.616
 5579POPC   C3B70677  40.605  27.889   7.071
 5579POPC   C4B70678  40.311  27.867   7.424
 5580POPC   NC370679  40.452  10.578   5.440
 5580POPC   PO470680  40.899  10.142   5.342
 5580POPC   GL170681  40.864  10.418   5.705
 5580POPC   GL270682  41.221  10.525   5.776
 5580POPC   C1A70683  40.639  10.607   6.075
 5580POPC   D2A70684  40.862  10.663   6.437
 5580POPC   C3A70685  40.677  10.721   6.808
 5580POPC   C4A70686  40.709  10.631   7.231
 5580POPC   C1B70687  41.087  10.292   6.146
 5580POPC   C2B70688  41.101  10.234   6.574
 5580POPC   C3B70689  41.155  10.570   6.853
 5580POPC   C4B70690  41.248  10.582   7.238
 5581POPC   NC370691   0.804  43.170   5.657
 5581POPC   PO470692   1.292  42.890   5.287
 5581POPC   GL170693   1.227  42.991   5.823
 5581POPC   GL270694   1.366  43.259   5.956
 5581POPC   C1A70695   0.966  43.243   6.245
 5581POPC   D2A70696   1.029  43.394   6.633
 5581POPC   C3A70697   1.001  42.997   6.807
 5581POPC   C4A70698   1.093  42.831   7.162
 5581POPC   C1B70699   1.352  42.935   6.345
 5581POPC   C2B70700   1.506  42.958   6.772
 5581POPC   C3B70701   1.531  43.181   7.137
 5581POPC   C4B70702   1.880  43.471   7.284
 5582POPC   NC370703  43.069  33.431   5.358
 5582POPC   PO470704  42.841  32.770   5.408
 5582POPC   GL170705  43.082  32.889   5.751
 5582POPC   GL270706  43.094  33.226   5.831
 5582POPC   C1A70707  43.139  32.840   6.191
 5582POPC   D2A70708  42.968  32.770   6.572
 5582POPC   C3A70709  43.186  32.664   6.937
 5582POPC   C4A70710  43.102  32.868   7.308
 5582POPC   C1B70711  43.307  33.319   6.208
 5582POPC   C2B70712  43.253  33.428   6.648
 5582POPC   C3B70713  43.304  33.293   7.085
 5582POPC   C4B70714  43.144  33.316   7.507
 5583POPC   NC370715   6.262  32.353   5.440
 5583POPC   PO470716   5.671  32.099   5.328
 5583POPC   GL170717   5.894  32.053   5.726
 5583POPC   GL270718   5.959  32.376   5.862
 5583POPC   C1A70719   5.725  32.009   6.148
 5583POPC   D2A70720   5.847  32.309   6.436
 5583POPC   C3A70721   5.810  32.196   6.854
 5583POPC   C4A70722   5.871  32.366   7.260
 5583POPC   C1B70723   6.225  32.088   6.123
 5583POPC   C2B70724   6.328  32.125   6.558
 5583POPC   C3B70725   6.287  32.071   7.002
 5583POPC   C4B70726   6.325  32.309   7.432
 5584POPC   NC370727   3.643  17.098   5.524
 5584POPC   PO470728   3.075  16.672   5.510
 5584POPC   GL170729   3.416  16.748   5.814
 5584POPC   GL270730   3.647  16.496   5.950
 5584POPC   C1A70731   3.619  16.955   6.172
 5584POPC   D2A70732   3.723  16.720   6.541
 5584POPC   C3A70733   3.581  16.939   6.905
 5584POPC   C4A70734   3.645  16.853   7.292
 5584POPC   C1B70735   3.308  16.501   6.261
 5584POPC   C2B70736   3.336  16.330   6.681
 5584POPC   C3B70737   3.440  16.425   7.112
 5584POPC   C4B70738   3.256  16.352   7.547
 5585POPC   NC370739  31.994  26.063   5.361
 5585POPC   PO470740  31.290  26.135   5.247
 5585POPC   GL170741  31.451  26.093   5.689
 5585POPC   GL270742  31.730  25.878   5.783
 5585POPC   C1A70743  31.447  26.195   6.149
 5585POPC   D2A70744  31.552  26.017   6.543
 5585POPC   C3A70745  31.604  26.199   6.917
 5585POPC   C4A70746  31.393  26.236   7.276
 5585POPC   C1B70747  31.723  25.689   6.205
 5585POPC   C2B70748  31.635  25.550   6.689
 5585POPC   C3B70749  31.798  25.724   7.131
 5585POPC   C4B70750  31.766  25.847   7.591
 5586POPC   NC370751  29.450   3.253   5.567
 5586POPC   PO470752  29.147   2.671   5.491
 5586POPC   GL170753  29.223   2.662   5.923
 5586POPC   GL270754  29.158   3.021   5.957
 5586POPC   C1A70755  29.406   2.793   6.331
 5586POPC   D2A70756  29.195   3.070   6.579
 5586POPC   C3A70757  29.149   2.952   6.989
 5586POPC   C4A70758  29.179   2.566   7.179
 5586POPC   C1B70759  28.830   2.860   6.243
 5586POPC   C2B70760  28.723   2.933   6.666
 5586POPC   C3B70761  28.702   2.716   7.040
 5586POPC   C4B70762  28.713   2.820   7.440
 5587POPC   NC370763   0.402  16.094   5.376
 5587POPC   PO470764   0.879  15.600   5.535
 5587POPC   GL170765   0.616  15.837   5.763
 5587POPC   GL270766   0.247  15.889   5.811
 5587POPC   C1A70767   0.618  15.976   6.155
 5587POPC   D2A70768   0.500  16.314   6.392
 5587POPC   C3A70769   0.541  16.256   6.819
 5587POPC   C4A70770   0.623  15.917   7.129
 5587POPC   C1B70771   0.129  15.911   6.237
 5587POPC   C2B70772   0.283  15.802   6.663
 5587POPC   C3B70773   0.128  15.697   7.081
 5587POPC   C4B70774   0.206  15.897   7.487
 5588POPC   NC370775  10.198  14.032   5.388
 5588POPC   PO470776  10.777  14.386   5.453
 5588POPC   GL170777  10.517  14.241   5.737
 5588POPC   GL270778  10.392  14.553   5.801
 5588POPC   C1A70779  10.560  14.103   6.155
 5588POPC   D2A70780  10.806  14.239   6.500
 5588POPC   C3A70781  10.677  14.093   6.895
 5588POPC   C4A70782  10.643  14.234   7.312
 5588POPC   C1B70783  10.713  14.592   6.118
 5588POPC   C2B70784  10.664  14.739   6.521
 5588POPC   C3B70785  10.769  14.606   6.910
 5588POPC   C4B70786  10.589  14.726   7.294
 5589POPC   NC370787   3.659  24.850   5.371
 5589POPC   PO470788   3.235  24.339   5.090
 5589POPC   GL170789   3.284  24.390   5.590
 5589POPC   GL270790   3.620  24.538   5.781
 5589POPC   C1A70791   3.222  24.338   6.061
 5589POPC   D2A70792   3.238  24.554   6.476
 5589POPC   C3A70793   3.337  24.377   6.858
 5589POPC   C4A70794   3.317  24.448   7.271
 5589POPC   C1B70795   3.865  24.672   6.173
 5589POPC   C2B70796   3.750  24.609   6.613
 5589POPC   C3B70797   3.805  24.537   7.056
 5589POPC   C4B70798   3.694  24.813   7.383
 5590POPC   NC370799  16.077   4.521   5.152
 5590POPC   PO470800  16.011   3.910   5.529
 5590POPC   GL170801  15.748   4.249   5.770
 5590POPC   GL270802  15.542   4.016   5.989
 5590POPC   C1A70803  15.834   4.495   6.192
 5590POPC   D2A70804  15.962   4.372   6.646
 5590POPC   C3A70805  15.924   4.619   7.036
 5590POPC   C4A70806  15.776   4.734   7.503
 5590POPC   C1B70807  15.679   3.753   6.328
 5590POPC   C2B70808  15.877   3.859   6.720
 5590POPC   C3B70809  15.842   4.087   7.097
 5590POPC   C4B70810  15.610   3.877   7.415
 5591POPC   NC370811  23.070  42.461   5.518
 5591POPC   PO470812  22.506  42.256   5.403
 5591POPC   GL170813  22.685  42.243   5.846
 5591POPC   GL270814  23.041  42.220   5.977
 5591POPC   C1A70815  22.693  42.417   6.301
 5591POPC   D2A70816  22.992  42.346   6.656
 5591POPC   C3A70817  22.777  42.312   7.040
 5591POPC   C4A70818  22.622  42.112   7.406
 5591POPC   C1B70819  23.157  42.615   6.228
 5591POPC   C2B70820  23.051  42.862   6.628
 5591POPC   C3B70821  23.188  42.728   7.020
 5591POPC   C4B70822  23.306  42.281   7.101
 5592POPC   NC370823   8.451  15.023   5.452
 5592POPC   PO470824   7.866  15.392   5.490
 5592POPC   GL170825   7.927  15.140   5.876
 5592POPC   GL270826   8.271  14.995   5.911
 5592POPC   C1A70827   8.087  15.234   6.302
 5592POPC   D2A70828   8.188  15.446   6.646
 5592POPC   C3A70829   8.120  15.212   7.020
 5592POPC   C4A70830   7.929  15.526   7.298
 5592POPC   C1B70831   8.569  15.265   6.139
 5592POPC   C2B70832   8.585  15.126   6.566
 5592POPC   C3B70833   8.754  15.218   6.965
 5592POPC   C4B70834   8.665  14.954   7.306
 5593POPC   NC370835   8.854  21.727   5.488
 5593POPC   PO470836   9.169  21.173   5.347
 5593POPC   GL170837   9.108  21.394   5.765
 5593POPC   GL270838   9.236  21.754   5.835
 5593POPC   C1A70839   8.898  21.564   6.159
 5593POPC   D2A70840   8.983  21.430   6.568
 5593POPC   C3A70841   8.734  21.284   6.900
 5593POPC   C4A70842   8.859  21.279   7.323
 5593POPC   C1B70843   9.401  21.743   6.307
 5593POPC   C2B70844   9.329  21.714   6.793
 5593POPC   C3B70845   8.979  21.722   7.094
 5593POPC   C4B70846   8.982  21.747   7.578
 5594POPC   NC370847  37.885  39.106   5.466
 5594POPC   PO470848  37.155  39.176   5.354
 5594POPC   GL170849  37.425  38.976   5.721
 5594POPC   GL270850  37.703  39.137   5.925
 5594POPC   C1A70851  37.365  38.872   6.183
 5594POPC   D2A70852  37.580  39.120   6.533
 5594POPC   C3A70853  37.639  38.895   6.926
 5594POPC   C4A70854  37.740  39.038   7.338
 5594POPC   C1B70855  37.830  39.473   6.182
 5594POPC   C2B70856  37.735  39.652   6.568
 5594POPC   C3B70857  37.790  39.422   6.936
 5594POPC   C4B70858  37.491  39.472   7.252
 5595POPC   NC370859  40.933  29.937   5.609
 5595POPC   PO470860  40.215  29.667   5.535
 5595POPC   GL170861  40.476  29.828   5.915
 5595POPC   GL270862  40.617  30.177   6.002
 5595POPC   C1A70863  40.680  29.793   6.354
 5595POPC   D2A70864  40.772  30.062   6.743
 5595POPC   C3A70865  40.784  29.817   7.132
 5595POPC   C4A70866  40.440  29.598   7.355
 5595POPC   C1B70867  41.029  30.167   6.282
 5595POPC   C2B70868  41.255  30.280   6.698
 5595POPC   C3B70869  41.217  30.270   7.170
 5595POPC   C4B70870  41.040  30.158   7.616
 5596POPC   NC370871  34.173   6.132   5.315
 5596POPC   PO470872  33.626   5.584   5.563
 5596POPC   GL170873  33.706   5.838   5.987
 5596POPC   GL270874  34.090   6.018   5.991
 5596POPC   C1A70875  33.489   5.961   6.371
 5596POPC   D2A70876  33.677   6.075   6.763
 5596POPC   C3A70877  33.648   5.775   7.090
 5596POPC   C4A70878  33.375   5.444   7.229
 5596POPC   C1B70879  34.023   5.968   6.395
 5596POPC   C2B70880  34.234   6.056   6.782
 5596POPC   C3B70881  34.052   6.086   7.148
 5596POPC   C4B70882  33.639   6.256   7.235
 5597POPC   NC370883   7.825  41.758   5.455
 5597POPC   PO470884   7.183  41.567   5.220
 5597POPC   GL170885   7.439  41.458   5.705
 5597POPC   GL270886   7.207  41.185   5.939
 5597POPC   C1A70887   7.452  41.617   6.187
 5597POPC   D2A70888   7.361  41.893   6.568
 5597POPC   C3A70889   7.438  41.786   6.960
 5597POPC   C4A70890   7.463  41.959   7.353
 5597POPC   C1B70891   7.399  41.130   6.299
 5597POPC   C2B70892   7.345  41.364   6.647
 5597POPC   C3B70893   7.137  41.348   7.027
 5597POPC   C4B70894   7.340  41.449   7.337
 5598POPC   NC370895  20.422  22.464   5.343
 5598POPC   PO470896  20.119  21.832   5.222
 5598POPC   GL170897  20.297  22.069   5.656
 5598POPC   GL270898  20.239  22.435   5.835
 5598POPC   C1A70899  20.566  22.092   6.069
 5598POPC   D2A70900  20.625  22.089   6.545
 5598POPC   C3A70901  20.916  21.969   6.896
 5598POPC   C4A70902  20.924  22.136   7.315
 5598POPC   C1B70903  20.205  22.362   6.318
 5598POPC   C2B70904  20.443  22.556   6.650
 5598POPC   C3B70905  20.563  22.352   7.007
 5598POPC   C4B70906  20.255  22.262   7.338
 5599POPC   NC370907  30.862  21.472   5.506
 5599POPC   PO470908  30.285  21.245   5.603
 5599POPC   GL170909  30.601  21.224   5.898
 5599POPC   GL270910  30.952  21.072   5.831
 5599POPC   C1A70911  30.510  21.390   6.282
 5599POPC   D2A70912  30.290  21.547   6.590
 5599POPC   C3A70913  30.443  21.345   6.931
 5599POPC   C4A70914  30.693  21.426   7.269
 5599POPC   C1B70915  31.013  21.363   6.193
 5599POPC   C2B70916  30.883  21.655   6.550
 5599POPC   C3B70917  31.049  21.693   6.978
 5599POPC   C4B70918  31.188  21.319   7.230
 5600POPC   NC370919   7.709  34.639   5.420
 5600POPC   PO470920   8.341  34.421   5.230
 5600POPC   GL170921   8.134  34.487   5.683
 5600POPC   GL270922   8.152  34.839   5.761
 5600POPC   C1A70923   8.174  34.450   6.162
 5600POPC   D2A70924   8.175  34.629   6.603
 5600POPC   C3A70925   8.294  34.399   6.968
 5600POPC   C4A70926   8.104  34.274   7.341
 5600POPC   C1B70927   8.067  34.963   6.194
 5600POPC   C2B70928   7.981  35.097   6.584
 5600POPC   C3B70929   8.158  35.070   7.002
 5600POPC   C4B70930   8.170  34.790   7.357
 5601POPC   NC370931  30.944  33.543   5.528
 5601POPC   PO470932  30.359  33.871   5.528
 5601POPC   GL170933  30.615  33.845   5.867
 5601POPC   GL270934  30.957  33.819   5.968
 5601POPC   C1A70935  30.593  33.613   6.242
 5601POPC   D2A70936  30.840  33.623   6.581
 5601POPC   C3A70937  30.603  33.573   6.940
 5601POPC   C4A70938  30.534  33.707   7.334
 5601POPC   C1B70939  31.210  33.567   6.196
 5601POPC   C2B70940  31.349  33.497   6.617
 5601POPC   C3B70941  31.125  33.547   7.012
 5601POPC   C4B70942  30.933  33.951   7.159
 5602POPC   NC370943  38.445  11.529   5.525
 5602POPC   PO470944  38.711  10.865   5.493
 5602POPC   GL170945  38.582  11.139   5.867
 5602POPC   GL270946  38.716  11.499   5.961
 5602POPC   C1A70947  38.280  11.245   6.238
 5602POPC   D2A70948  38.178  11.328   6.705
 5602POPC   C3A70949  38.442  11.296   7.068
 5602POPC   C4A70950  38.384  11.347   7.496
 5602POPC   C1B70951  38.768  11.247   6.338
 5602POPC   C2B70952  38.847  11.300   6.732
 5602POPC   C3B70953  38.774  10.930   6.927
 5602POPC   C4B70954  38.851  11.083   7.320
 5603POPC   NC370955  43.875   6.062   5.348
 5603POPC   PO470956  44.096   5.311   5.371
 5603POPC   GL170957  43.936   5.650   5.704
 5603POPC   GL270958  43.726   6.003   5.814
 5603POPC   C1A70959  43.990   5.754   6.148
 5603POPC   D2A70960  43.659   5.777   6.448
 5603POPC   C3A70961  43.851   5.744   6.846
 5603POPC   C4A70962  43.935   5.712   7.268
 5603POPC   C1B70963  43.790   6.231   6.188
 5603POPC   C2B70964  43.840   6.221   6.632
 5603POPC   C3B70965  43.604   6.139   7.014
 5603POPC   C4B70966  43.764   6.430   7.306
 5604POPC   NC370967  32.633  44.008   5.732
 5604POPC   PO470968  33.193  44.043   5.380
 5604POPC   GL170969  33.305  44.002   5.810
 5604POPC   GL270970  33.443  44.348   5.804
 5604POPC   C1A70971  33.193  43.794   6.215
 5604POPC   D2A70972  32.844  43.751   6.543
 5604POPC   C3A70973  32.985  43.668   6.980
 5604POPC   C4A70974  32.926  43.416   7.333
 5604POPC   C1B70975  33.128  44.321   6.157
 5604POPC   C2B70976  33.134  44.188   6.580
 5604POPC   C3B70977  32.871  44.153   6.940
 5604POPC   C4B70978  33.060  44.132   7.345
 5605POPC   NC370979  23.625  27.819   5.467
 5605POPC   PO470980  24.072  27.372   5.353
 5605POPC   GL170981  23.840  27.388   5.805
 5605POPC   GL270982  23.512  27.396   5.988
 5605POPC   C1A70983  23.874  27.690   6.214
 5605POPC   D2A70984  23.831  27.840   6.671
 5605POPC   C3A70985  23.739  27.589   7.047
 5605POPC   C4A70986  23.695  27.758   7.484
 5605POPC   C1B70987  23.480  27.423   6.450
 5605POPC   C2B70988  23.308  27.724   6.775
 5605POPC   C3B70989  23.256  27.694   7.218
 5605POPC   C4B70990  23.445  27.329   7.390
 5606POPC   NC370991  39.626  10.145   5.417
 5606POPC   PO470992  39.012   9.912   5.453
 5606POPC   GL170993  39.254   9.768   5.803
 5606POPC   GL270994  39.001   9.517   5.846
 5606POPC   C1A70995  39.417   9.755   6.200
 5606POPC   D2A70996  39.279   9.899   6.593
 5606POPC   C3A70997  39.437   9.718   6.962
 5606POPC   C4A70998  39.508   9.531   7.368
 5606POPC   C1B70999  38.866   9.672   6.228
 5606POPC   C2B71000  38.689   9.739   6.622
 5606POPC   C3B71001  38.782   9.571   7.037
 5606POPC   C4B71002  39.057   9.790   7.305
 5607POPC   NC371003   2.211  44.626   4.927
 5607POPC   PO471004   1.633  44.511   5.389
 5607POPC   GL171005   1.715  44.455   5.827
 5607POPC   GL271006   1.943  44.762   5.842
 5607POPC   C1A71007   1.659  44.655   6.264
 5607POPC   D2A71008   2.033  44.857   6.484
 5607POPC   C3A71009   2.144  44.862   6.906
 5607POPC   C4A71010   1.924  44.666   7.227
 5607POPC   C1B71011   2.119  44.459   6.141
 5607POPC   C2B71012   1.967  44.369   6.560
 5607POPC   C3B71013   2.183  44.325   6.929
 5607POPC   C4B71014   2.335  44.358   7.322
 5608POPC   NC371015  18.544  17.716   5.492
 5608POPC   PO471016  18.167  18.381   5.296
 5608POPC   GL171017  18.326  18.198   5.699
 5608POPC   GL271018  18.013  18.102   5.889
 5608POPC   C1A71019  18.449  18.243   6.153
 5608POPC   D2A71020  18.335  18.138   6.594
 5608POPC   C3A71021  18.514  18.203   7.005
 5608POPC   C4A71022  18.302  18.004   7.361
 5608POPC   C1B71023  17.943  18.320   6.301
 5608POPC   C2B71024  17.906  18.401   6.731
 5608POPC   C3B71025  18.004  18.361   7.152
 5608POPC   C4B71026  18.026  18.648   7.485
 5609POPC   NC371027  15.017  21.023   5.594
 5609POPC   PO471028  15.156  20.321   5.513
 5609POPC   GL171029  15.192  20.600   5.861
 5609POPC   GL271030  15.408  20.902   5.898
 5609POPC   C1A71031  15.060  20.668   6.276
 5609POPC   D2A71032  14.953  20.373   6.618
 5609POPC   C3A71033  15.152  20.358   7.001
 5609POPC   C4A71034  15.001  20.483   7.379
 5609POPC   C1B71035  15.494  21.011   6.352
 5609POPC   C2B71036  15.235  20.971   6.752
 5609POPC   C3B71037  15.222  20.894   7.205
 5609POPC   C4B71038  15.329  20.876   7.674
 5610POPC   NC371039  31.556  39.550   5.352
 5610POPC   PO471040  31.345  40.152   5.383
 5610POPC   GL171041  31.570  39.896   5.769
 5610POPC   GL271042  31.865  40.101   5.909
 5610POPC   C1A71043  31.510  39.679   6.215
 5610POPC   D2A71044  31.333  39.685   6.665
 5610POPC   C3A71045  31.593  39.854   7.020
 5610POPC   C4A71046  31.558  40.051   7.449
 5610POPC   C1B71047  31.598  40.182   6.228
 5610POPC   C2B71048  31.473  40.176   6.628
 5610POPC   C3B71049  31.513  40.357   7.020
 5610POPC   C4B71050  31.246  40.453   7.353
 5611POPC   NC371051  31.806  41.157   5.569
 5611POPC   PO471052  31.906  41.809   5.354
 5611POPC   GL171053  31.689  41.750   5.772
 5611POPC   GL271054  31.498  41.448   5.880
 5611POPC   C1A71055  31.635  41.850   6.219
 5611POPC   D2A71056  31.647  41.764   6.653
 5611POPC   C3A71057  31.338  41.484   6.789
 5611POPC   C4A71058  31.266  41.546   7.191
 5611POPC   C1B71059  31.477  41.357   6.313
 5611POPC   C2B71060  31.621  41.044   6.606
 5611POPC   C3B71061  31.692  41.182   7.004
 5611POPC   C4B71062  31.686  41.388   7.411
 5612POPC   NC371063  28.600  37.361   5.520
 5612POPC   PO471064  28.325  36.725   5.374
 5612POPC   GL171065  28.430  36.926   5.727
 5612POPC   GL271066  28.506  36.657   5.846
 5612POPC   C1A71067  28.363  37.102   6.140
 5612POPC   D2A71068  28.243  37.333   6.505
 5612POPC   C3A71069  28.231  37.086   6.871
 5612POPC   C4A71070  28.156  36.984   7.291
 5612POPC   C1B71071  28.157  36.621   6.103
 5612POPC   C2B71072  28.321  36.610   6.511
 5612POPC   C3B71073  28.271  36.569   6.944
 5612POPC   C4B71074  28.576  36.689   7.271
 5613POPC   NC371075   1.719  20.069   5.546
 5613POPC   PO471076   2.241  19.613   5.552
 5613POPC   GL171077   1.963  19.667   5.865
 5613POPC   GL271078   1.943  20.021   6.008
 5613POPC   C1A71079   2.020  19.519   6.254
 5613POPC   D2A71080   1.983  19.819   6.517
 5613POPC   C3A71081   2.114  19.748   6.920
 5613POPC   C4A71082   1.983  19.736   7.348
 5613POPC   C1B71083   2.362  19.915   6.136
 5613POPC   C2B71084   2.484  19.910   6.558
 5613POPC   C3B71085   2.427  20.155   6.915
 5613POPC   C4B71086   2.412  19.992   7.308
 5614POPC   NC371087  10.646   8.465   5.516
 5614POPC   PO471088  10.797   7.739   5.385
 5614POPC   GL171089  10.595   7.937   5.768
 5614POPC   GL271090  10.332   8.183   5.790
 5614POPC   C1A71091  10.570   8.090   6.230
 5614POPC   D2A71092  10.821   8.245   6.583
 5614POPC   C3A71093  10.631   8.145   6.978
 5614POPC   C4A71094  10.697   7.903   7.339
 5614POPC   C1B71095  10.164   8.413   6.154
 5614POPC   C2B71096   9.999   8.258   6.523
 5614POPC   C3B71097  10.135   8.281   6.937
 5614POPC   C4B71098  10.295   8.244   7.380
 5615POPC   NC371099  39.243   9.485   5.393
 5615POPC   PO471100  39.510   8.852   5.388
 5615POPC   GL171101  39.395   8.877   5.796
 5615POPC   GL271102  39.409   9.226   5.812
 5615POPC   C1A71103  39.442   8.833   6.234
 5615POPC   D2A71104  39.390   8.969   6.683
 5615POPC   C3A71105  39.177   8.729   7.014
 5615POPC   C4A71106  39.163   8.878   7.449
 5615POPC   C1B71107  39.234   9.289   6.239
 5615POPC   C2B71108  39.110   9.407   6.656
 5615POPC   C3B71109  39.186   9.259   7.082
 5615POPC   C4B71110  38.970   9.332   7.489
 5616POPC   NC371111  17.639  33.764   5.360
 5616POPC   PO471112  17.119  34.205   5.352
 5616POPC   GL171113  17.281  33.977   5.689
 5616POPC   GL271114  17.173  33.631   5.690
 5616POPC   C1A71115  17.509  34.086   6.070
 5616POPC   D2A71116  17.339  34.060   6.485
 5616POPC   C3A71117  17.549  34.140   6.853
 5616POPC   C4A71118  17.353  34.035   7.207
 5616POPC   C1B71119  17.366  33.577   6.096
 5616POPC   C2B71120  17.538  33.454   6.505
 5616POPC   C3B71121  17.428  33.621   6.892
 5616POPC   C4B71122  17.542  33.574   7.300
 5617POPC   NC371123  37.131  12.213   5.321
 5617POPC   PO471124  37.784  12.214   5.384
 5617POPC   GL171125  37.462  12.097   5.721
 5617POPC   GL271126  37.227  12.393   5.788
 5617POPC   C1A71127  37.601  12.000   6.170
 5617POPC   D2A71128  37.983  11.980   6.459
 5617POPC   C3A71129  37.941  11.991   6.921
 5617POPC   C4A71130  37.579  11.858   7.171
 5617POPC   C1B71131  37.136  12.547   6.209
 5617POPC   C2B71132  37.366  12.612   6.589
 5617POPC   C3B71133  37.548  12.345   6.894
 5617POPC   C4B71134  37.522  12.352   7.330
 5618POPC   NC371135  13.503  32.550   5.383
 5618POPC   PO471136  13.600  31.831   5.578
 5618POPC   GL171137  13.752  32.060   5.918
 5618POPC   GL271138  13.878  32.340   5.771
 5618POPC   C1A71139  13.765  32.137   6.378
 5618POPC   D2A71140  13.862  32.052   6.811
 5618POPC   C3A71141  13.503  32.227   7.020
 5618POPC   C4A71142  13.395  32.674   7.143
 5618POPC   C1B71143  14.125  32.393   6.141
 5618POPC   C2B71144  14.075  32.573   6.577
 5618POPC   C3B71145  13.967  32.508   7.037
 5618POPC   C4B71146  14.063  32.448   7.485
 5619POPC   NC371147  21.090  39.994   5.644
 5619POPC   PO471148  20.397  40.096   5.378
 5619POPC   GL171149  20.557  40.108   5.839
 5619POPC   GL271150  20.515  40.455   6.009
 5619POPC   C1A71151  20.810  39.931   6.217
 5619POPC   D2A71152  21.058  39.894   6.581
 5619POPC   C3A71153  20.903  40.127   6.907
 5619POPC   C4A71154  20.654  40.024   7.225
 5619POPC   C1B71155  20.394  40.184   6.368
 5619POPC   C2B71156  20.391  40.007   6.796
 5619POPC   C3B71157  20.157  39.955   7.202
 5619POPC   C4B71158  19.868  39.800   7.510
 5620POPC   NC371159  41.343   6.261   5.483
 5620POPC   PO471160  41.412   5.683   5.726
 5620POPC   GL171161  41.667   5.897   5.939
 5620POPC   GL271162  41.924   6.037   5.809
 5620POPC   C1A71163  41.584   5.978   6.325
 5620POPC   D2A71164  41.577   5.732   6.646
 5620POPC   C3A71165  41.450   5.905   7.004
 5620POPC   C4A71166  41.500   5.525   7.201
 5620POPC   C1B71167  42.096   5.970   6.228
 5620POPC   C2B71168  42.002   6.095   6.624
 5620POPC   C3B71169  42.068   6.198   7.010
 5620POPC   C4B71170  41.831   6.066   7.292
 5621POPC   NC371171  32.353  29.359   5.470
 5621POPC   PO471172  32.729  28.827   5.391
 5621POPC   GL171173  32.539  29.060   5.829
 5621POPC   GL271174  32.173  29.230   5.919
 5621POPC   C1A71175  32.429  29.014   6.277
 5621POPC   D2A71176  32.021  28.934   6.464
 5621POPC   C3A71177  32.091  28.835   6.878
 5621POPC   C4A71178  31.905  28.918   7.264
 5621POPC   C1B71179  31.976  29.426   6.273
 5621POPC   C2B71180  31.857  29.440   6.727
 5621POPC   C3B71181  32.181  29.328   7.045
 5621POPC   C4B71182  32.612  29.364   7.201
 5622POPC   NC371183  33.704  25.178   5.541
 5622POPC   PO471184  33.319  25.726   5.391
 5622POPC   GL171185  33.437  25.498   5.852
 5622POPC   GL271186  33.198  25.442   6.087
 5622POPC   C1A71187  33.591  25.175   6.239
 5622POPC   D2A71188  33.693  24.863   6.612
 5622POPC   C3A71189  33.922  25.024   6.994
 5622POPC   C4A71190  34.049  25.401   7.275
 5622POPC   C1B71191  33.439  25.634   6.420
 5622POPC   C2B71192  33.741  25.419   6.680
 5622POPC   C3B71193  33.601  25.416   7.070
 5622POPC   C4B71194  33.665  25.791   7.256
 5623POPC   NC371195   7.140   0.154   5.615
 5623POPC   PO471196   7.138   0.794   5.470
 5623POPC   GL171197   7.351   0.586   5.801
 5623POPC   GL271198   7.607   0.355   5.778
 5623POPC   C1A71199   7.218   0.456   6.215
 5623POPC   D2A71200   7.130   0.695   6.569
 5623POPC   C3A71201   7.181   0.471   6.928
 5623POPC   C4A71202   7.461   0.506   7.268
 5623POPC   C1B71203   7.737   0.403   6.200
 5623POPC   C2B71204   7.591   0.465   6.606
 5623POPC   C3B71205   7.666   0.196   6.915
 5623POPC   C4B71206   7.936   0.249   7.209
 5624POPC   NC371207  40.700   6.778   5.303
 5624POPC   PO471208  41.279   6.715   5.486
 5624POPC   GL171209  40.960   6.569   5.734
 5624POPC   GL271210  40.808   6.877   5.785
 5624POPC   C1A71211  40.811   6.452   6.156
 5624POPC   D2A71212  40.947   6.185   6.525
 5624POPC   C3A71213  41.031   6.348   6.937
 5624POPC   C4A71214  40.689   6.436   7.227
 5624POPC   C1B71215  41.080   6.892   6.160
 5624POPC   C2B71216  41.077   6.776   6.604
 5624POPC   C3B71217  40.788   6.872   6.948
 5624POPC   C4B71218  40.600   6.940   7.345
 5625POPC   NC371219  33.878  31.612   5.496
 5625POPC   PO471220  33.352  31.200   5.382
 5625POPC   GL171221  33.480  31.475   5.768
 5625POPC   GL271222  33.830  31.411   5.945
 5625POPC   C1A71223  33.477  31.589   6.231
 5625POPC   D2A71224  33.638  31.428   6.598
 5625POPC   C3A71225  33.782  31.592   6.945
 5625POPC   C4A71226  33.734  31.272   7.239
 5625POPC   C1B71227  34.186  31.258   6.197
 5625POPC   C2B71228  34.063  31.166   6.584
 5625POPC   C3B71229  34.182  31.219   6.975
 5625POPC   C4B71230  34.205  31.527   7.246
 5626POPC   NC371231  21.800  40.099   5.172
 5626POPC   PO471232  22.370  40.082   5.595
 5626POPC   GL171233  22.267  39.946   5.959
 5626POPC   GL271234  22.524  39.690   5.906
 5626POPC   C1A71235  22.185  40.142   6.352
 5626POPC   D2A71236  22.407  40.412   6.649
 5626POPC   C3A71237  22.488  40.216   7.025
 5626POPC   C4A71238  22.372  40.309   7.447
 5626POPC   C1B71239  22.559  39.752   6.314
 5626POPC   C2B71240  22.371  39.751   6.678
 5626POPC   C3B71241  22.473  39.684   7.063
 5626POPC   C4B71242  22.249  39.846   7.319
 5627POPC   NC371243  16.827  35.755   5.380
 5627POPC   PO471244  16.350  36.166   5.520
 5627POPC   GL171245  16.732  36.113   5.802
 5627POPC   GL271246  16.978  36.385   5.839
 5627POPC   C1A71247  16.867  35.929   6.219
 5627POPC   D2A71248  16.780  35.703   6.613
 5627POPC   C3A71249  16.843  35.791   7.064
 5627POPC   C4A71250  16.624  35.904   7.445
 5627POPC   C1B71251  16.741  36.417   6.236
 5627POPC   C2B71252  16.749  36.240   6.678
 5627POPC   C3B71253  16.838  36.391   7.103
 5627POPC   C4B71254  16.522  36.717   7.277
 5628POPC   NC371255   0.166  40.749   5.552
 5628POPC   PO471256   0.816  40.787   5.643
 5628POPC   GL171257   0.631  40.533   5.956
 5628POPC   GL271258   0.284  40.649   6.034
 5628POPC   C1A71259   0.633  40.558   6.412
 5628POPC   D2A71260   0.603  40.850   6.764
 5628POPC   C3A71261   0.654  40.596   7.105
 5628POPC   C4A71262   0.530  40.518   7.516
 5628POPC   C1B71263  44.922  40.911   6.210
 5628POPC   C2B71264  44.874  41.093   6.616
 5628POPC   C3B71265   0.126  40.951   6.974
 5628POPC   C4B71266   0.135  40.557   7.180
 5629POPC   NC371267   1.405  20.717   5.335
 5629POPC   PO471268   0.899  20.396   5.582
 5629POPC   GL171269   1.051  20.710   5.904
 5629POPC   GL271270   1.385  20.857   5.803
 5629POPC   C1A71271   0.914  20.869   6.322
 5629POPC   D2A71272   0.909  20.562   6.651
 5629POPC   C3A71273   1.044  20.508   7.060
 5629POPC   C4A71274   1.489  20.353   7.024
 5629POPC   C1B71275   1.478  20.892   6.214
 5629POPC   C2B71276   1.528  20.810   6.674
 5629POPC   C3B71277   1.423  20.846   7.121
 5629POPC   C4B71278   1.311  21.104   7.492
 5630POPC   NC371279   8.255   4.045   5.359
 5630POPC   PO471280   7.893   4.712   5.382
 5630POPC   GL171281   7.944   4.331   5.689
 5630POPC   GL271282   8.268   4.253   5.814
 5630POPC   C1A71283   7.895   4.198   6.161
 5630POPC   D2A71284   8.027   4.303   6.605
 5630POPC   C3A71285   7.808   4.319   7.018
 5630POPC   C4A71286   7.883   4.544   7.417
 5630POPC   C1B71287   8.399   4.321   6.205
 5630POPC   C2B71288   8.476   4.066   6.546
 5630POPC   C3B71289   8.477   4.235   6.900
 5630POPC   C4B71290   8.286   4.297   7.230
 5631POPC   NC371291  36.584  30.693   5.467
 5631POPC   PO471292  37.154  30.596   5.414
 5631POPC   GL171293  37.047  30.653   5.844
 5631POPC   GL271294  37.359  30.686   5.987
 5631POPC   C1A71295  36.960  30.515   6.283
 5631POPC   D2A71296  36.873  30.669   6.706
 5631POPC   C3A71297  36.637  30.564   7.087
 5631POPC   C4A71298  36.614  30.787   7.496
 5631POPC   C1B71299  37.383  30.846   6.423
 5631POPC   C2B71300  37.239  31.023   6.803
 5631POPC   C3B71301  37.112  30.805   7.140
 5631POPC   C4B71302  37.375  30.571   7.367
 5632POPC   NC371303  11.825  14.699   5.380
 5632POPC   PO471304  12.090  14.147   5.544
 5632POPC   GL171305  12.113  14.466   5.867
 5632POPC   GL271306  11.897  14.736   5.869
 5632POPC   C1A71307  12.097  14.422   6.313
 5632POPC   D2A71308  12.259  14.067   6.499
 5632POPC   C3A71309  12.253  14.102   6.935
 5632POPC   C4A71310  12.168  14.371   7.284
 5632POPC   C1B71311  11.649  14.618   6.180
 5632POPC   C2B71312  11.638  14.508   6.579
 5632POPC   C3B71313  11.824  14.535   6.938
 5632POPC   C4B71314  11.691  14.638   7.336
 5633POPC   NC371315  35.708  23.285   5.151
 5633POPC   PO471316  35.324  22.730   5.359
 5633POPC   GL171317  35.211  22.818   5.768
 5633POPC   GL271318  34.887  22.989   5.737
 5633POPC   C1A71319  35.388  23.007   6.141
 5633POPC   D2A71320  35.606  23.170   6.487
 5633POPC   C3A71321  35.391  23.111   6.889
 5633POPC   C4A71322  35.307  23.057   7.290
 5633POPC   C1B71323  34.896  22.889   6.178
 5633POPC   C2B71324  34.986  23.065   6.575
 5633POPC   C3B71325  34.883  22.971   7.014
 5633POPC   C4B71326  34.931  22.724   7.413
 5634POPC   NC371327  39.806  29.473   5.691
 5634POPC   PO471328  39.715  30.116   5.555
 5634POPC   GL171329  39.955  29.921   5.881
 5634POPC   GL271330  40.091  30.198   6.002
 5634POPC   C1A71331  40.075  29.772   6.303
 5634POPC   D2A71332  39.961  29.569   6.708
 5634POPC   C3A71333  40.110  29.875   7.025
 5634POPC   C4A71334  40.321  30.265   6.905
 5634POPC   C1B71335  39.694  30.133   6.242
 5634POPC   C2B71336  39.767  30.039   6.640
 5634POPC   C3B71337  39.655  30.213   6.978
 5634POPC   C4B71338  39.707  30.107   7.329
 5635POPC   NC371339  25.469  26.048   5.366
 5635POPC   PO471340  25.096  26.622   5.387
 5635POPC   GL171341  25.182  26.264   5.750
 5635POPC   GL271342  24.893  26.199   5.985
 5635POPC   C1A71343  25.354  26.089   6.174
 5635POPC   D2A71344  25.212  25.960   6.602
 5635POPC   C3A71345  25.463  25.966   7.029
 5635POPC   C4A71346  25.570  26.150   7.494
 5635POPC   C1B71347  24.919  25.769   6.171
 5635POPC   C2B71348  24.883  25.516   6.547
 5635POPC   C3B71349  24.918  25.687   6.918
 5635POPC   C4B71350  25.076  25.791   7.283
 5636POPC   NC371351   4.207  26.719   5.655
 5636POPC   PO471352   4.657  27.088   5.307
 5636POPC   GL171353   4.603  26.999   5.811
 5636POPC   GL271354   4.296  27.159   5.957
 5636POPC   C1A71355   4.466  26.734   6.237
 5636POPC   D2A71356   4.176  26.561   6.554
 5636POPC   C3A71357   4.372  26.560   6.946
 5636POPC   C4A71358   4.599  26.636   7.293
 5636POPC   C1B71359   4.014  26.980   6.301
 5636POPC   C2B71360   3.856  26.972   6.731
 5636POPC   C3B71361   4.065  26.940   7.108
 5636POPC   C4B71362   3.982  27.201   7.443
 5637POPC   NC371363  34.795  29.282   5.499
 5637POPC   PO471364  34.382  28.827   5.256
 5637POPC   GL171365  34.330  29.227   5.670
 5637POPC   GL271366  34.368  29.569   5.761
 5637POPC   C1A71367  34.674  29.353   6.103
 5637POPC   D2A71368  34.849  29.142   6.495
 5637POPC   C3A71369  34.519  28.946   6.750
 5637POPC   C4A71370  34.527  28.830   7.192
 5637POPC   C1B71371  34.187  29.401   6.193
 5637POPC   C2B71372  34.114  29.362   6.676
 5637POPC   C3B71373  34.434  29.356   7.037
 5637POPC   C4B71374  34.891  29.159   7.099
 5638POPC   NC371375  40.027  13.314   5.407
 5638POPC   PO471376  39.648  13.782   5.248
 5638POPC   GL171377  39.911  13.730   5.673
 5638POPC   GL271378  40.227  13.934   5.751
 5638POPC   C1A71379  40.018  13.565   6.108
 5638POPC   D2A71380  40.261  13.496   6.506
 5638POPC   C3A71381  40.039  13.507   6.889
 5638POPC   C4A71382  40.192  13.506   7.293
 5638POPC   C1B71383  40.454  13.833   6.156
 5638POPC   C2B71384  40.595  13.878   6.580
 5638POPC   C3B71385  40.401  13.885   6.985
 5638POPC   C4B71386  40.278  14.008   7.442
 5639POPC   NC371387   3.776  38.302   5.654
 5639POPC   PO471388   3.378  38.881   5.501
 5639POPC   GL171389   3.513  38.690   5.861
 5639POPC   GL271390   3.306  38.409   5.923
 5639POPC   C1A71391   3.430  38.765   6.293
 5639POPC   D2A71392   3.279  38.538   6.634
 5639POPC   C3A71393   3.344  38.796   6.964
 5639POPC   C4A71394   3.460  38.716   7.377
 5639POPC   C1B71395   3.598  38.267   6.268
 5639POPC   C2B71396   3.735  38.159   6.677
 5639POPC   C3B71397   3.540  38.315   7.043
 5639POPC   C4B71398   3.437  38.165   7.449
 5640POPC   NC371399  12.967  33.133   5.519
 5640POPC   PO471400  12.264  33.227   5.546
 5640POPC   GL171401  12.591  33.281   5.851
 5640POPC   GL271402  12.634  32.911   5.842
 5640POPC   C1A71403  12.874  33.141   6.230
 5640POPC   D2A71404  13.060  33.118   6.684
 5640POPC   C3A71405  12.881  32.909   7.093
 5640POPC   C4A71406  13.058  32.727   7.522
 5640POPC   C1B71407  12.370  32.984   6.209
 5640POPC   C2B71408  12.523  33.128   6.601
 5640POPC   C3B71409  12.337  33.264   6.931
 5640POPC   C4B71410  12.527  33.279   7.313
 5641POPC   NC371411  33.497   8.468   5.615
 5641POPC   PO471412  32.907   8.660   5.254
 5641POPC   GL171413  32.949   8.523   5.736
 5641POPC   GL271414  32.917   8.130   5.817
 5641POPC   C1A71415  32.959   8.437   6.219
 5641POPC   D2A71416  32.771   8.247   6.617
 5641POPC   C3A71417  32.899   8.440   7.030
 5641POPC   C4A71418  33.126   8.284   7.374
 5641POPC   C1B71419  33.046   7.908   6.231
 5641POPC   C2B71420  33.252   7.851   6.651
 5641POPC   C3B71421  33.053   7.842   7.097
 5641POPC   C4B71422  32.690   8.067   7.301
 5642POPC   NC371423  32.505  30.943   5.164
 5642POPC   PO471424  33.005  30.558   5.282
 5642POPC   GL171425  33.070  30.785   5.702
 5642POPC   GL271426  32.758  30.853   5.880
 5642POPC   C1A71427  33.207  30.720   6.153
 5642POPC   D2A71428  33.042  30.844   6.567
 5642POPC   C3A71429  33.254  30.904   6.917
 5642POPC   C4A71430  33.138  30.584   7.168
 5642POPC   C1B71431  32.700  30.644   6.275
 5642POPC   C2B71432  32.814  30.327   6.633
 5642POPC   C3B71433  32.735  30.286   7.086
 5642POPC   C4B71434  32.621  30.714   7.067
 5643POPC   NC371435  13.256  15.322   5.485
 5643POPC   PO471436  13.612  14.759   5.518
 5643POPC   GL171437  13.641  15.087   5.786
 5643POPC   GL271438  13.835  14.911   6.002
 5643POPC   C1A71439  13.525  15.334   6.166
 5643POPC   D2A71440  13.719  15.343   6.591
 5643POPC   C3A71441  13.458  15.298   6.989
 5643POPC   C4A71442  13.353  15.352   7.425
 5643POPC   C1B71443  13.433  14.826   6.187
 5643POPC   C2B71444  13.300  14.998   6.580
 5643POPC   C3B71445  13.340  14.796   6.970
 5643POPC   C4B71446  13.572  14.907   7.343
 5644POPC   NC371447   5.346  34.704   5.406
 5644POPC   PO471448   4.874  34.252   5.394
 5644POPC   GL171449   5.217  34.336   5.744
 5644POPC   GL271450   5.125  34.679   5.858
 5644POPC   C1A71451   5.350  34.384   6.196
 5644POPC   D2A71452   5.214  34.652   6.571
 5644POPC   C3A71453   5.192  34.484   6.995
 5644POPC   C4A71454   4.984  34.158   7.239
 5644POPC   C1B71455   5.350  34.961   6.158
 5644POPC   C2B71456   5.249  35.163   6.575
 5644POPC   C3B71457   5.355  34.995   6.988
 5644POPC   C4B71458   5.256  34.845   7.395
 5645POPC   NC371459  35.955  29.923   5.360
 5645POPC   PO471460  36.447  29.446   5.505
 5645POPC   GL171461  36.197  29.756   5.772
 5645POPC   GL271462  35.980  30.083   5.828
 5645POPC   C1A71463  36.165  29.689   6.181
 5645POPC   D2A71464  36.283  29.494   6.581
 5645POPC   C3A71465  36.262  29.779   6.902
 5645POPC   C4A71466  36.118  29.850   7.283
 5645POPC   C1B71467  35.741  30.195   6.188
 5645POPC   C2B71468  35.870  30.271   6.607
 5645POPC   C3B71469  36.060  30.295   7.017
 5645POPC   C4B71470  35.862  30.261   7.428
 5646POPC   NC371471  33.258  10.775   5.770
 5646POPC   PO471472  32.847  10.445   5.324
 5646POPC   GL171473  32.898  10.375   5.764
 5646POPC   GL271474  33.216  10.346   6.034
 5646POPC   C1A71475  32.719  10.444   6.140
 5646POPC   D2A71476  32.807  10.697   6.461
 5646POPC   C3A71477  32.846  10.513   6.841
 5646POPC   C4A71478  32.752  10.320   7.202
 5646POPC   C1B71479  33.301  10.607   6.414
 5646POPC   C2B71480  33.339  10.448   6.829
 5646POPC   C3B71481  33.264  10.392   7.250
 5646POPC   C4B71482  33.381  10.678   7.589
 5647POPC   NC371483   1.146   2.067   5.505
 5647POPC   PO471484   1.098   2.794   5.295
 5647POPC   GL171485   1.193   2.843   5.705
 5647POPC   GL271486   1.203   2.512   5.775
 5647POPC   C1A71487   1.310   2.920   6.127
 5647POPC   D2A71488   1.336   2.717   6.528
 5647POPC   C3A71489   1.274   2.977   6.846
 5647POPC   C4A71490   1.313   2.951   7.237
 5647POPC   C1B71491   1.064   2.409   6.203
 5647POPC   C2B71492   0.897   2.475   6.617
 5647POPC   C3B71493   1.112   2.520   6.995
 5647POPC   C4B71494   1.018   2.560   7.418
 5648POPC   NC371495   8.215  35.555   5.474
 5648POPC   PO471496   7.750  35.116   5.558
 5648POPC   GL171497   7.886  35.385   5.897
 5648POPC   GL271498   8.214  35.332   5.913
 5648POPC   C1A71499   7.958  35.533   6.335
 5648POPC   D2A71500   8.190  35.546   6.729
 5648POPC   C3A71501   8.063  35.615   7.135
 5648POPC   C4A71502   7.815  35.439   7.429
 5648POPC   C1B71503   8.544  35.098   6.101
 5648POPC   C2B71504   8.489  35.073   6.542
 5648POPC   C3B71505   8.609  34.798   6.867
 5648POPC   C4B71506   8.659  34.969   7.229
 5649POPC   NC371507  21.883  34.660   5.484
 5649POPC   PO471508  22.591  34.805   5.414
 5649POPC   GL171509  22.318  34.776   5.764
 5649POPC   GL271510  22.302  34.424   5.779
 5649POPC   C1A71511  22.074  34.778   6.153
 5649POPC   D2A71512  22.217  34.777   6.587
 5649POPC   C3A71513  21.985  34.905   6.945
 5649POPC   C4A71514  22.118  34.773   7.332
 5649POPC   C1B71515  21.961  34.279   6.046
 5649POPC   C2B71516  21.935  34.366   6.491
 5649POPC   C3B71517  21.993  34.378   6.940
 5649POPC   C4B71518  21.675  34.412   7.280
 5650POPC   NC371519   9.317  30.976   5.333
 5650POPC   PO471520   8.722  30.472   5.383
 5650POPC   GL171521   8.893  30.538   5.784
 5650POPC   GL271522   8.951  30.876   5.749
 5650POPC   C1A71523   9.168  30.667   6.180
 5650POPC   D2A71524   9.051  30.545   6.577
 5650POPC   C3A71525   9.121  30.643   6.987
 5650POPC   C4A71526   8.741  30.670   7.227
 5650POPC   C1B71527   8.704  30.845   6.160
 5650POPC   C2B71528   8.761  30.980   6.591
 5650POPC   C3B71529   8.653  31.148   7.015
 5650POPC   C4B71530   8.686  31.162   7.484
 5651POPC   NC371531  40.175   5.448   5.359
 5651POPC   PO471532  39.863   4.836   5.494
 5651POPC   GL171533  39.848   5.198   5.745
 5651POPC   GL271534  40.201   5.205   5.823
 5651POPC   C1A71535  39.858   5.173   6.188
 5651POPC   D2A71536  39.847   4.862   6.491
 5651POPC   C3A71537  39.857   4.970   6.942
 5651POPC   C4A71538  39.921   5.174   7.375
 5651POPC   C1B71539  40.385   5.037   6.216
 5651POPC   C2B71540  40.307   4.946   6.660
 5651POPC   C3B71541  40.296   5.216   7.041
 5651POPC   C4B71542  40.430   4.996   7.424
 5652POPC   NC371543  14.713  27.271   5.176
 5652POPC   PO471544  14.234  26.757   5.317
 5652POPC   GL171545  14.300  26.761   5.786
 5652POPC   GL271546  14.231  27.095   5.842
 5652POPC   C1A71547  14.422  26.764   6.245
 5652POPC   D2A71548  14.395  26.498   6.633
 5652POPC   C3A71549  14.336  26.606   7.088
 5652POPC   C4A71550  14.186  26.400   7.490
 5652POPC   C1B71551  14.252  27.237   6.258
 5652POPC   C2B71552  14.471  27.091   6.639
 5652POPC   C3B71553  14.242  27.105   7.002
 5652POPC   C4B71554  14.355  27.107   7.419
 5653POPC   NC371555   2.112  18.793   5.396
 5653POPC   PO471556   1.839  18.252   5.052
 5653POPC   GL171557   2.032  18.307   5.574
 5653POPC   GL271558   1.975  18.635   5.851
 5653POPC   C1A71559   2.113  18.206   6.058
 5653POPC   D2A71560   1.917  18.474   6.446
 5653POPC   C3A71561   1.985  18.384   6.907
 5653POPC   C4A71562   1.751  18.101   7.210
 5653POPC   C1B71563   2.330  18.641   6.186
 5653POPC   C2B71564   2.316  18.751   6.645
 5653POPC   C3B71565   2.432  18.653   7.055
 5653POPC   C4B71566   2.300  18.556   7.431
 5654POPC   NC371567  41.859  32.066   5.404
 5654POPC   PO471568  41.216  32.253   5.355
 5654POPC   GL171569  41.305  32.386   5.766
 5654POPC   GL271570  41.675  32.337   5.790
 5654POPC   C1A71571  41.368  32.186   6.166
 5654POPC   D2A71572  41.576  32.120   6.543
 5654POPC   C3A71573  41.593  32.377   6.900
 5654POPC   C4A71574  41.348  32.296   7.238
 5654POPC   C1B71575  41.952  32.179   6.141
 5654POPC   C2B71576  42.067  32.164   6.592
 5654POPC   C3B71577  42.018  32.039   7.014
 5654POPC   C4B71578  41.833  32.213   7.358
 5655POPC   NC371579  44.176  30.557   5.408
 5655POPC   PO471580  43.535  30.519   5.399
 5655POPC   GL171581  43.669  30.536   5.806
 5655POPC   GL271582  44.006  30.614   5.867
 5655POPC   C1A71583  43.696  30.573   6.249
 5655POPC   D2A71584  43.467  30.677   6.621
 5655POPC   C3A71585  43.701  30.635   6.992
 5655POPC   C4A71586  43.942  30.274   6.996
 5655POPC   C1B71587  44.229  30.901   6.172
 5655POPC   C2B71588  44.208  31.114   6.580
 5655POPC   C3B71589  44.032  31.089   6.972
 5655POPC   C4B71590  43.906  30.959   7.340
 5656POPC   NC371591  12.899  43.392   5.403
 5656POPC   PO471592  13.429  43.049   5.425
 5656POPC   GL171593  13.073  43.077   5.789
 5656POPC   GL271594  12.945  43.423   5.902
 5656POPC   C1A71595  13.007  42.915   6.249
 5656POPC   D2A71596  13.255  42.909   6.665
 5656POPC   C3A71597  13.057  42.976   7.098
 5656POPC   C4A71598  13.278  42.990   7.569
 5656POPC   C1B71599  12.697  43.330   6.254
 5656POPC   C2B71600  12.785  43.191   6.670
 5656POPC   C3B71601  12.764  43.405   7.073
 5656POPC   C4B71602  12.472  43.332   7.419
 5657POPC   NC371603  11.890  17.094   5.434
 5657POPC   PO471604  12.255  17.527   5.264
 5657POPC   GL171605  12.198  17.424   5.722
 5657POPC   GL271606  12.058  17.722   5.886
 5657POPC   C1A71607  12.051  17.299   6.179
 5657POPC   D2A71608  12.006  17.397   6.665
 5657POPC   C3A71609  12.229  17.293   7.095
 5657POPC   C4A71610  12.176  17.267   7.572
 5657POPC   C1B71611  11.872  17.770   6.330
 5657POPC   C2B71612  11.620  17.750   6.743
 5657POPC   C3B71613  11.878  17.657   7.107
 5657POPC   C4B71614  12.219  17.748   7.433
 5658POPC   NC371615  24.394  13.382   5.473
 5658POPC   PO471616  24.715  13.970   5.587
 5658POPC   GL171617  24.613  13.664   5.889
 5658POPC   GL271618  24.256  13.698   5.851
 5658POPC   C1A71619  24.737  13.502   6.309
 5658POPC   D2A71620  24.475  13.439   6.673
 5658POPC   C3A71621  24.585  13.559   7.106
 5658POPC   C4A71622  24.700  13.581   7.548
 5658POPC   C1B71623  24.181  13.574   6.258
 5658POPC   C2B71624  24.100  13.805   6.623
 5658POPC   C3B71625  24.229  13.989   6.980
 5658POPC   C4B71626  24.131  13.804   7.344
 5659POPC   NC371627   8.563   4.776   5.714
 5659POPC   PO471628   9.147   4.927   5.475
 5659POPC   GL171629   9.057   4.827   5.869
 5659POPC   GL271630   8.871   5.124   5.960
 5659POPC   C1A71631   8.968   4.772   6.314
 5659POPC   D2A71632   8.983   4.889   6.745
 5659POPC   C3A71633   9.042   5.317   6.890
 5659POPC   C4A71634   9.205   5.442   7.296
 5659POPC   C1B71635   8.513   5.149   6.278
 5659POPC   C2B71636   8.470   5.325   6.719
 5659POPC   C3B71637   8.575   5.020   7.047
 5659POPC   C4B71638   8.762   4.606   7.111
 5660POPC   NC371639  38.685  42.811   5.463
 5660POPC   PO471640  38.259  43.308   5.513
 5660POPC   GL171641  38.291  42.952   5.838
 5660POPC   GL271642  38.536  42.672   5.920
 5660POPC   C1A71643  38.361  43.018   6.293
 5660POPC   D2A71644  38.195  43.098   6.707
 5660POPC   C3A71645  38.500  43.082   7.044
 5660POPC   C4A71646  38.490  43.333   7.413
 5660POPC   C1B71647  38.263  42.495   6.239
 5660POPC   C2B71648  38.359  42.585   6.670
 5660POPC   C3B71649  38.157  42.684   7.053
 5660POPC   C4B71650  38.195  42.711   7.483
 5661POPC   NC371651  39.390  21.945   5.481
 5661POPC   PO471652  39.030  22.577   5.377
 5661POPC   GL171653  39.068  22.274   5.757
 5661POPC   GL271654  38.864  22.469   5.966
 5661POPC   C1A71655  39.188  21.957   6.149
 5661POPC   D2A71656  39.217  21.828   6.641
 5661POPC   C3A71657  39.505  21.957   7.026
 5661POPC   C4A71658  39.410  22.043   7.495
 5661POPC   C1B71659  38.913  22.311   6.398
 5661POPC   C2B71660  38.973  22.247   6.848
 5661POPC   C3B71661  39.137  22.370   7.249
 5661POPC   C4B71662  39.126  22.834   7.445
 5662POPC   NC371663  34.744  34.296   5.072
 5662POPC   PO471664  34.213  34.501   5.398
 5662POPC   GL171665  34.361  34.682   5.784
 5662POPC   GL271666  34.513  34.370   5.877
 5662POPC   C1A71667  34.624  34.795   6.165
 5662POPC   D2A71668  34.870  34.825   6.564
 5662POPC   C3A71669  34.653  34.594   6.896
 5662POPC   C4A71670  34.456  34.585   7.289
 5662POPC   C1B71671  34.245  34.426   6.244
 5662POPC   C2B71672  34.217  34.325   6.691
 5662POPC   C3B71673  33.984  34.450   7.061
 5662POPC   C4B71674  33.963  34.518   7.514
 5663POPC   NC371675  18.387   1.656   5.168
 5663POPC   PO471676  18.402   1.334   5.680
 5663POPC   GL171677  18.184   1.162   6.012
 5663POPC   GL271678  18.490   1.016   6.075
 5663POPC   C1A71679  18.146   1.066   6.467
 5663POPC   D2A71680  18.303   1.308   6.793
 5663POPC   C3A71681  18.360   1.143   7.187
 5663POPC   C4A71682  18.332   1.242   7.618
 5663POPC   C1B71683  18.589   1.299   6.347
 5663POPC   C2B71684  18.654   1.663   6.548
 5663POPC   C3B71685  18.637   1.683   6.971
 5663POPC   C4B71686  18.686   1.500   7.360
 5664POPC   NC371687   5.696  44.552   5.427
 5664POPC   PO471688   6.305  44.467   5.464
 5664POPC   GL171689   6.021  44.488   5.818
 5664POPC   GL271690   5.647  44.463   5.934
 5664POPC   C1A71691   6.010  44.777   6.148
 5664POPC   D2A71692   6.019  44.689   6.567
 5664POPC   C3A71693   6.345  44.843   6.824
 5664POPC   C4A71694   6.176  44.878   7.216
 5664POPC   C1B71695   5.427  44.816   6.145
 5664POPC   C2B71696   5.353  44.971   6.584
 5664POPC   C3B71697   5.613  44.776   6.880
 5664POPC   C4B71698   5.680  44.496   7.213
 5665POPC   NC371699  11.335  31.711   5.401
 5665POPC   PO471700  10.916  31.135   5.482
 5665POPC   GL171701  11.277  31.320   5.767
 5665POPC   GL271702  11.260  31.695   5.878
 5665POPC   C1A71703  11.473  31.365   6.188
 5665POPC   D2A71704  11.263  31.273   6.556
 5665POPC   C3A71705  11.439  31.404   6.918
 5665POPC   C4A71706  11.330  31.382   7.296
 5665POPC   C1B71707  11.244  31.865   6.224
 5665POPC   C2B71708  11.432  31.792   6.583
 5665POPC   C3B71709  11.225  31.887   6.959
 5665POPC   C4B71710  11.030  31.814   7.359
 5666POPC   NC371711  17.984  25.921   5.535
 5666POPC   PO471712  18.531  26.106   5.293
 5666POPC   GL171713  18.438  26.156   5.751
 5666POPC   GL271714  18.214  25.959   5.983
 5666POPC   C1A71715  18.630  26.178   6.168
 5666POPC   D2A71716  18.408  26.025   6.526
 5666POPC   C3A71717  18.572  26.185   6.919
 5666POPC   C4A71718  18.487  26.066   7.351
 5666POPC   C1B71719  17.981  25.715   6.288
 5666POPC   C2B71720  17.879  25.676   6.745
 5666POPC   C3B71721  18.020  25.899   7.148
 5666POPC   C4B71722  18.037  26.018   7.581
 5667POPC   NC371723  41.164  27.885   5.089
 5667POPC   PO471724  41.757  27.700   5.447
 5667POPC   GL171725  41.638  27.785   5.892
 5667POPC   GL271726  41.263  27.837   5.806
 5667POPC   C1A71727  41.500  27.685   6.324
 5667POPC   D2A71728  41.528  27.810   6.771
 5667POPC   C3A71729  41.576  27.609   7.198
 5667POPC   C4A71730  41.668  27.327   7.568
 5667POPC   C1B71731  41.001  27.774   6.179
 5667POPC   C2B71732  40.997  27.576   6.580
 5667POPC   C3B71733  41.071  27.654   7.019
 5667POPC   C4B71734  41.106  27.495   7.440
 5668POPC   NC371735  18.406  26.549   5.410
 5668POPC   PO471736  18.143  27.232   5.361
 5668POPC   GL171737  18.032  26.980   5.764
 5668POPC   GL271738  18.140  26.598   5.858
 5668POPC   C1A71739  17.937  26.882   6.221
 5668POPC   D2A71740  17.985  26.689   6.625
 5668POPC   C3A71741  18.067  26.943   6.976
 5668POPC   C4A71742  17.944  26.867   7.365
 5668POPC   C1B71743  18.391  26.635   6.236
 5668POPC   C2B71744  18.485  26.860   6.616
 5668POPC   C3B71745  18.486  26.685   7.013
 5668POPC   C4B71746  18.132  26.418   7.144
 5669POPC   NC371747  16.688  12.078   5.410
 5669POPC   PO471748  17.268  11.737   5.522
 5669POPC   GL171749  17.010  12.072   5.841
 5669POPC   GL271750  16.676  12.302   5.862
 5669POPC   C1A71751  16.783  12.043   6.271
 5669POPC   D2A71752  16.372  11.909   6.504
 5669POPC   C3A71753  16.537  11.906   6.949
 5669POPC   C4A71754  16.900  11.996   7.261
 5669POPC   C1B71755  16.415  12.386   6.244
 5669POPC   C2B71756  16.574  12.359   6.659
 5669POPC   C3B71757  16.566  12.374   7.116
 5669POPC   C4B71758  16.817  12.504   7.455
 5670POPC   NC371759  12.824  29.435   5.452
 5670POPC   PO471760  13.114  28.763   5.495
 5670POPC   GL171761  12.994  29.098   5.785
 5670POPC   GL271762  12.666  29.020   5.720
 5670POPC   C1A71763  13.064  29.320   6.178
 5670POPC   D2A71764  13.087  28.989   6.487
 5670POPC   C3A71765  13.154  29.042   6.916
 5670POPC   C4A71766  13.069  28.820   7.314
 5670POPC   C1B71767  12.656  29.010   6.174
 5670POPC   C2B71768  12.603  28.867   6.604
 5670POPC   C3B71769  12.658  29.007   7.028
 5670POPC   C4B71770  12.454  29.246   7.284
 5671POPC   NC371771  23.769  14.964   5.477
 5671POPC   PO471772  23.446  15.595   5.619
 5671POPC   GL171773  23.610  15.290   5.916
 5671POPC   GL271774  23.947  15.125   5.912
 5671POPC   C1A71775  23.614  15.047   6.301
 5671POPC   D2A71776  23.348  14.947   6.654
 5671POPC   C3A71777  23.558  15.177   6.958
 5671POPC   C4A71778  23.651  15.094   7.368
 5671POPC   C1B71779  24.007  15.432   6.209
 5671POPC   C2B71780  23.947  15.308   6.615
 5671POPC   C3B71781  24.114  15.357   6.984
 5671POPC   C4B71782  24.092  15.328   7.404
 5672POPC   NC371783   5.741  26.917   5.347
 5672POPC   PO471784   6.044  26.280   5.427
 5672POPC   GL171785   5.865  26.537   5.772
 5672POPC   GL271786   5.928  26.908   5.800
 5672POPC   C1A71787   5.935  26.651   6.230
 5672POPC   D2A71788   6.115  26.618   6.621
 5672POPC   C3A71789   5.884  26.674   6.975
 5672POPC   C4A71790   6.061  26.607   7.363
 5672POPC   C1B71791   5.656  27.066   6.131
 5672POPC   C2B71792   5.745  27.064   6.567
 5672POPC   C3B71793   5.544  27.048   6.963
 5672POPC   C4B71794   5.829  27.051   7.323
 5673POPC   NC371795  25.785  13.618   5.444
 5673POPC   PO471796  26.437  13.445   5.413
 5673POPC   GL171797  26.143  13.465   5.776
 5673POPC   GL271798  25.948  13.791   5.886
 5673POPC   C1A71799  26.156  13.495   6.235
 5673POPC   D2A71800  26.289  13.752   6.600
 5673POPC   C3A71801  26.205  13.552   6.986
 5673POPC   C4A71802  25.997  13.687   7.358
 5673POPC   C1B71803  25.670  13.533   6.209
 5673POPC   C2B71804  25.802  13.416   6.664
 5673POPC   C3B71805  25.591  13.517   7.074
 5673POPC   C4B71806  25.594  13.403   7.545
 5674POPC   NC371807  39.569  41.985   5.358
 5674POPC   PO471808  39.012  42.484   5.466
 5674POPC   GL171809  39.031  42.421   5.829
 5674POPC   GL271810  39.349  42.218   5.800
 5674POPC   C1A71811  39.257  42.604   6.136
 5674POPC   D2A71812  39.280  42.501   6.514
 5674POPC   C3A71813  39.206  42.637   6.905
 5674POPC   C4A71814  39.555  42.457   7.130
 5674POPC   C1B71815  39.149  42.081   6.199
 5674POPC   C2B71816  39.323  42.020   6.614
 5674POPC   C3B71817  39.171  42.096   7.029
 5674POPC   C4B71818  38.959  41.750   7.249
 5675POPC   NC371819  44.780  25.632   5.316
 5675POPC   PO471820  44.466  25.027   5.485
 5675POPC   GL171821  44.674  25.324   5.748
 5675POPC   GL271822  44.375  25.541   5.754
 5675POPC   C1A71823  44.925  25.338   6.149
 5675POPC   D2A71824  44.956  25.569   6.565
 5675POPC   C3A71825  44.912  25.284   6.940
 5675POPC   C4A71826  44.678  25.112   7.295
 5675POPC   C1B71827  44.328  25.301   6.147
 5675POPC   C2B71828  44.550  25.212   6.547
 5675POPC   C3B71829  44.379  25.325   6.959
 5675POPC   C4B71830  44.161  25.318   7.342
 5676POPC   NC371831  37.741  13.598   5.296
 5676POPC   PO471832  37.224  14.068   5.399
 5676POPC   GL171833  37.438  13.778   5.683
 5676POPC   GL271834  37.756  13.895   5.723
 5676POPC   C1A71835  37.613  13.509   6.041
 5676POPC   D2A71836  37.610  13.479   6.499
 5676POPC   C3A71837  37.836  13.398   6.871
 5676POPC   C4A71838  37.747  13.272   7.270
 5676POPC   C1B71839  37.497  14.011   6.143
 5676POPC   C2B71840  37.393  13.925   6.586
 5676POPC   C3B71841  37.615  13.855   6.976
 5676POPC   C4B71842  37.548  13.732   7.419
 5677POPC   NC371843   1.357   1.665   5.099
 5677POPC   PO471844   0.954   1.668   5.667
 5677POPC   GL171845   1.052   1.921   5.995
 5677POPC   GL271846   1.375   2.065   5.943
 5677POPC   C1A71847   0.861   1.957   6.397
 5677POPC   D2A71848   0.899   1.805   6.818
 5677POPC   C3A71849   0.997   2.056   7.156
 5677POPC   C4A71850   1.137   1.913   7.531
 5677POPC   C1B71851   1.429   2.006   6.324
 5677POPC   C2B71852   1.275   2.139   6.671
 5677POPC   C3B71853   1.494   2.080   7.001
 5677POPC   C4B71854   1.427   2.285   7.355
 5678POPC   NC371855  33.702  27.031   5.258
 5678POPC   PO471856  33.824  26.350   5.480
 5678POPC   GL171857  33.734  26.604   5.797
 5678POPC   GL271858  33.902  26.913   5.769
 5678POPC   C1A71859  33.693  26.670   6.235
 5678POPC   D2A71860  33.550  26.648   6.666
 5678POPC   C3A71861  33.872  26.639   6.976
 5678POPC   C4A71862  33.847  26.884   7.338
 5678POPC   C1B71863  34.088  27.003   6.196
 5678POPC   C2B71864  34.081  27.165   6.631
 5678POPC   C3B71865  34.257  27.010   7.029
 5678POPC   C4B71866  34.306  26.989   7.498
 5679POPC   NC371867  13.423   0.025   5.601
 5679POPC   PO471868  13.788  44.528   5.427
 5679POPC   GL171869  13.763  44.652   5.786
 5679POPC   GL271870  13.431  44.558   5.830
 5679POPC   C1A71871  13.842  44.488   6.174
 5679POPC   D2A71872  13.592  44.412   6.509
 5679POPC   C3A71873  13.675  44.664   6.852
 5679POPC   C4A71874  13.880  44.492   7.222
 5679POPC   C1B71875  13.461  44.829   6.225
 5679POPC   C2B71876  13.214  44.754   6.602
 5679POPC   C3B71877  13.121  44.853   7.021
 5679POPC   C4B71878  13.462  44.791   7.287
 5680POPC   NC371879   8.693   1.987   5.425
 5680POPC   PO471880   8.029   2.151   5.234
 5680POPC   GL171881   7.966   2.011   5.681
 5680POPC   GL271882   8.290   1.858   5.790
 5680POPC   C1A71883   7.902   2.132   6.138
 5680POPC   D2A71884   8.130   2.207   6.525
 5680POPC   C3A71885   7.909   2.122   6.903
 5680POPC   C4A71886   8.096   2.063   7.251
 5680POPC   C1B71887   8.247   1.747   6.253
 5680POPC   C2B71888   8.128   1.694   6.695
 5680POPC   C3B71889   8.266   1.607   7.094
 5680POPC   C4B71890   8.572   1.912   7.216
 5681POPC   NC371891  34.886   1.930   5.540
 5681POPC   PO471892  34.268   2.130   5.482
 5681POPC   GL171893  34.468   2.057   5.864
 5681POPC   GL271894  34.411   1.720   5.849
 5681POPC   C1A71895  34.533   2.173   6.308
 5681POPC   D2A71896  34.732   1.969   6.654
 5681POPC   C3A71897  34.711   2.074   7.080
 5681POPC   C4A71898  34.306   2.274   7.050
 5681POPC   C1B71899  34.765   1.723   6.165
 5681POPC   C2B71900  35.018   1.578   6.544
 5681POPC   C3B71901  34.859   1.591   6.962
 5681POPC   C4B71902  35.088   1.640   7.281
 5682POPC   NC371903  26.086  15.764   5.362
 5682POPC   PO471904  26.315  16.372   5.281
 5682POPC   GL171905  26.179  16.181   5.742
 5682POPC   GL271906  25.928  15.911   5.836
 5682POPC   C1A71907  26.021  16.189   6.243
 5682POPC   D2A71908  25.783  16.252   6.661
 5682POPC   C3A71909  25.956  16.161   7.068
 5682POPC   C4A71910  25.947  15.984   7.499
 5682POPC   C1B71911  25.701  15.758   6.220
 5682POPC   C2B71912  25.677  15.726   6.676
 5682POPC   C3B71913  25.858  15.644   7.081
 5682POPC   C4B71914  26.306  15.553   7.192
 5683POPC   NC371915  44.820   6.374   5.447
 5683POPC   PO471916  44.558   6.941   5.629
 5683POPC   GL171917  44.582   6.639   5.906
 5683POPC   GL271918  44.909   6.552   5.930
 5683POPC   C1A71919  44.608   6.768   6.349
 5683POPC   D2A71920  44.379   6.890   6.718
 5683POPC   C3A71921  44.631   6.685   7.030
 5683POPC   C4A71922   0.059   6.888   7.078
 5683POPC   C1B71923  44.731   6.295   6.266
 5683POPC   C2B71924  44.731   6.077   6.639
 5683POPC   C3B71925  44.522   6.136   7.029
 5683POPC   C4B71926  44.751   6.179   7.440
 5684POPC   NC371927  10.214   6.848   5.505
 5684POPC   PO471928  10.765   6.599   5.286
 5684POPC   GL171929  10.670   6.527   5.773
 5684POPC   GL271930  10.939   6.682   5.956
 5684POPC   C1A71931  10.417   6.495   6.188
 5684POPC   D2A71932  10.239   6.624   6.632
 5684POPC   C3A71933  10.370   6.349   7.004
 5684POPC   C4A71934  10.760   6.210   7.201
 5684POPC   C1B71935  10.742   6.975   6.278
 5684POPC   C2B71936  10.760   7.082   6.705
 5684POPC   C3B71937  10.502   6.859   7.013
 5684POPC   C4B71938  10.141   6.996   7.172
 5685POPC   NC371939  21.869   6.316   5.706
 5685POPC   PO471940  22.208   5.820   5.377
 5685POPC   GL171941  22.056   5.740   5.757
 5685POPC   GL271942  22.116   5.399   5.859
 5685POPC   C1A71943  22.215   5.816   6.156
 5685POPC   D2A71944  22.332   5.827   6.571
 5685POPC   C3A71945  22.027   5.954   6.876
 5685POPC   C4A71946  22.219   6.042   7.255
 5685POPC   C1B71947  21.884   5.412   6.245
 5685POPC   C2B71948  22.067   5.396   6.672
 5685POPC   C3B71949  22.133   5.493   7.100
 5685POPC   C4B71950  21.713   5.610   7.142
 5686POPC   NC371951  25.876  28.679   5.083
 5686POPC   PO471952  26.469  28.809   5.503
 5686POPC   GL171953  26.306  28.626   5.912
 5686POPC   GL271954  26.025  28.412   5.878
 5686POPC   C1A71955  26.257  28.370   6.317
 5686POPC   D2A71956  25.999  28.112   6.622
 5686POPC   C3A71957  26.175  28.162   7.027
 5686POPC   C4A71958  26.342  28.487   7.253
 5686POPC   C1B71959  25.726  28.428   6.239
 5686POPC   C2B71960  25.527  28.322   6.629
 5686POPC   C3B71961  25.671  28.220   7.022
 5686POPC   C4B71962  25.836  28.490   7.334
 5687POPC   NC371963  33.621  14.634   5.362
 5687POPC   PO471964  34.131  14.254   5.426
 5687POPC   GL171965  33.916  14.421   5.743
 5687POPC   GL271966  33.650  14.251   5.736
 5687POPC   C1A71967  33.990  14.459   6.167
 5687POPC   D2A71968  33.859  14.568   6.543
 5687POPC   C3A71969  33.848  14.238   6.820
 5687POPC   C4A71970  34.010  14.387   7.204
 5687POPC   C1B71971  33.471  14.508   6.063
 5687POPC   C2B71972  33.387  14.422   6.497
 5687POPC   C3B71973  33.481  14.606   6.906
 5687POPC   C4B71974  33.619  14.665   7.341
 5688POPC   NC371975  23.443  38.296   5.440
 5688POPC   PO471976  24.142  38.259   5.662
 5688POPC   GL171977  23.931  38.469   5.973
 5688POPC   GL271978  23.614  38.501   5.863
 5688POPC   C1A71979  23.715  38.364   6.366
 5688POPC   D2A71980  23.788  38.278   6.800
 5688POPC   C3A71981  23.536  38.174   7.142
 5688POPC   C4A71982  23.653  38.400   7.532
 5688POPC   C1B71983  23.428  38.738   6.152
 5688POPC   C2B71984  23.359  38.776   6.579
 5688POPC   C3B71985  23.375  38.656   6.999
 5688POPC   C4B71986  23.419  38.840   7.425
 5689POPC   NC371987   5.395  42.849   5.523
 5689POPC   PO471988   6.084  42.936   5.378
 5689POPC   GL171989   5.821  43.101   5.732
 5689POPC   GL271990   5.762  42.760   5.853
 5689POPC   C1A71991   5.787  43.421   6.121
 5689POPC   D2A71992   6.015  43.458   6.536
 5689POPC   C3A71993   5.842  43.391   6.955
 5689POPC   C4A71994   6.024  43.211   7.354
 5689POPC   C1B71995   5.977  42.944   6.203
 5689POPC   C2B71996   5.908  42.947   6.627
 5689POPC   C3B71997   5.943  42.820   7.038
 5689POPC   C4B71998   5.701  42.592   7.274
 5690POPC   NC371999  13.430  25.071   5.362
 5690POPC   PO472000  13.837  25.475   5.773
 5690POPC   GL172001  13.599  25.081   5.909
 5690POPC   GL272002  13.232  25.112   5.882
 5690POPC   C1A72003  13.597  25.101   6.356
 5690POPC   D2A72004  13.572  25.490   6.583
 5690POPC   C3A72005  13.515  25.392   6.982
 5690POPC   C4A72006  13.757  25.243   7.256
 5690POPC   C1B72007  13.142  24.912   6.278
 5690POPC   C2B72008  13.199  25.101   6.689
 5690POPC   C3B72009  13.397  24.913   7.029
 5690POPC   C4B72010  13.394  24.990   7.499
 5691POPC   NC372011  18.198   7.199   5.509
 5691POPC   PO472012  18.710   6.828   5.513
 5691POPC   GL172013  18.504   7.085   5.903
 5691POPC   GL272014  18.106   7.243   6.003
 5691POPC   C1A72015  18.500   7.286   6.321
 5691POPC   D2A72016  18.324   7.149   6.696
 5691POPC   C3A72017  18.434   7.320   7.092
 5691POPC   C4A72018  18.493   7.583   7.473
 5691POPC   C1B72019  17.882   7.158   6.428
 5691POPC   C2B72020  17.875   7.140   6.919
 5691POPC   C3B72021  17.950   7.416   7.272
 5691POPC   C4B72022  18.027   7.382   7.718
 5692POPC   NC372023  32.214  17.573   5.430
 5692POPC   PO472024  31.905  17.053   5.696
 5692POPC   GL172025  32.167  17.354   5.900
 5692POPC   GL272026  32.183  17.741   5.947
 5692POPC   C1A72027  32.375  17.425   6.276
 5692POPC   D2A72028  32.305  17.626   6.655
 5692POPC   C3A72029  32.449  17.437   7.044
 5692POPC   C4A72030  32.165  17.202   7.282
 5692POPC   C1B72031  32.565  17.895   6.275
 5692POPC   C2B72032  32.643  17.987   6.769
 5692POPC   C3B72033  32.304  17.949   7.065
 5692POPC   C4B72034  32.099  17.704   7.359
 5693POPC   NC372035  33.565   9.999   5.382
 5693POPC   PO472036  34.069   9.548   5.478
 5693POPC   GL172037  33.742   9.696   5.785
 5693POPC   GL272038  33.644  10.036   5.877
 5693POPC   C1A72039  33.856   9.670   6.203
 5693POPC   D2A72040  33.753   9.518   6.569
 5693POPC   C3A72041  33.963   9.697   6.916
 5693POPC   C4A72042  34.028   9.943   7.288
 5693POPC   C1B72043  33.376   9.840   6.165
 5693POPC   C2B72044  33.265   9.657   6.542
 5693POPC   C3B72045  33.422   9.603   6.958
 5693POPC   C4B72046  33.506   9.930   7.232
 5694POPC   NC372047  19.764   0.255   5.368
 5694POPC   PO472048  20.202   0.707   5.528
 5694POPC   GL172049  19.978   0.397   5.828
 5694POPC   GL272050  19.625   0.413   5.849
 5694POPC   C1A72051  20.016   0.206   6.260
 5694POPC   D2A72052  19.860   0.288   6.690
 5694POPC   C3A72053  19.850   0.726   6.884
 5694POPC   C4A72054  20.066   0.774   7.278
 5694POPC   C1B72055  19.710   0.622   6.247
 5694POPC   C2B72056  19.432   0.616   6.598
 5694POPC   C3B72057  19.449   0.411   6.982
 5694POPC   C4B72058  19.577   0.554   7.321
 5695POPC   NC372059  10.475  32.229   5.379
 5695POPC   PO472060  11.110  32.113   5.411
 5695POPC   GL172061  10.809  32.106   5.779
 5695POPC   GL272062  10.414  32.188   5.872
 5695POPC   C1A72063  10.724  31.929   6.178
 5695POPC   D2A72064  10.477  31.911   6.587
 5695POPC   C3A72065  10.692  31.946   6.985
 5695POPC   C4A72066  10.586  32.071   7.421
 5695POPC   C1B72067  10.446  32.360   6.288
 5695POPC   C2B72068  10.270  32.561   6.644
 5695POPC   C3B72069  10.330  32.339   7.030
 5695POPC   C4B72070  10.072  32.194   7.371
 5696POPC   NC372071  23.204   0.517   5.166
 5696POPC   PO472072  23.897   0.283   5.336
 5696POPC   GL172073  23.728   0.519   5.696
 5696POPC   GL272074  23.562   0.288   5.896
 5696POPC   C1A72075  23.825   0.638   6.155
 5696POPC   D2A72076  23.696   0.680   6.598
 5696POPC   C3A72077  23.952   0.569   6.945
 5696POPC   C4A72078  23.825   0.466   7.328
 5696POPC   C1B72079  23.411   0.353   6.317
 5696POPC   C2B72080  23.222   0.272   6.714
 5696POPC   C3B72081  23.397   0.346   7.096
 5696POPC   C4B72082  23.365   0.245   7.546
 5697POPC   NC372083  36.026  38.391   5.516
 5697POPC   PO472084  36.565  38.743   5.503
 5697POPC   GL172085  36.331  38.594   5.887
 5697POPC   GL272086  36.352  38.217   5.873
 5697POPC   C1A72087  35.969  38.449   6.177
 5697POPC   D2A72088  35.786  38.344   6.599
 5697POPC   C3A72089  36.057  38.484   6.946
 5697POPC   C4A72090  35.960  38.531   7.410
 5697POPC   C1B72091  36.572  38.283   6.247
 5697POPC   C2B72092  36.492  38.380   6.697
 5697POPC   C3B72093  36.487  38.283   7.123
 5697POPC   C4B72094  36.152  38.084   7.292
 5698POPC   NC372095  35.351  34.271   5.362
 5698POPC   PO472096  35.286  34.935   5.498
 5698POPC   GL172097  35.312  34.602   5.761
 5698POPC   GL272098  35.015  34.399   5.739
 5698POPC   C1A72099  35.547  34.385   6.081
 5698POPC   D2A72100  35.544  34.267   6.517
 5698POPC   C3A72101  35.753  34.491   6.869
 5698POPC   C4A72102  35.546  34.543   7.267
 5698POPC   C1B72103  35.038  34.493   6.184
 5698POPC   C2B72104  35.012  34.317   6.594
 5698POPC   C3B72105  35.147  34.418   6.971
 5698POPC   C4B72106  35.028  34.743   7.235
 5699POPC   NC372107  12.795  27.677   5.341
 5699POPC   PO472108  13.316  27.282   5.429
 5699POPC   GL172109  13.092  27.528   5.746
 5699POPC   GL272110  12.718  27.438   5.774
 5699POPC   C1A72111  12.956  27.708   6.144
 5699POPC   D2A72112  12.792  27.520   6.528
 5699POPC   C3A72113  12.839  27.786   6.876
 5699POPC   C4A72114  13.036  27.769   7.261
 5699POPC   C1B72115  12.469  27.379   6.142
 5699POPC   C2B72116  12.295  27.279   6.559
 5699POPC   C3B72117  12.451  27.401   6.960
 5699POPC   C4B72118  12.715  27.382   7.298
 5700POPC   NC372119  10.078  37.200   5.153
 5700POPC   PO472120   9.549  36.875   5.510
 5700POPC   GL172121   9.575  36.888   5.889
 5700POPC   GL272122   9.399  36.598   5.908
 5700POPC   C1A72123   9.723  37.107   6.245
 5700POPC   D2A72124   9.760  36.959   6.593
 5700POPC   C3A72125   9.749  37.181   6.921
 5700POPC   C4A72126  10.005  37.058   7.274
 5700POPC   C1B72127   9.412  36.682   6.316
 5700POPC   C2B72128   9.490  36.544   6.673
 5700POPC   C3B72129   9.389  36.772   7.011
 5700POPC   C4B72130   9.593  36.716   7.358
 5701POPC   NC372131  44.803  32.971   5.288
 5701POPC   PO472132  44.174  33.235   5.314
 5701POPC   GL172133  44.411  32.942   5.702
 5701POPC   GL272134  44.797  32.926   5.786
 5701POPC   C1A72135  44.518  32.782   6.176
 5701POPC   D2A72136  44.540  32.970   6.619
 5701POPC   C3A72137  44.581  33.006   7.101
 5701POPC   C4A72138  44.891  33.148   7.476
 5701POPC   C1B72139   0.042  32.851   6.172
 5701POPC   C2B72140  44.923  32.639   6.542
 5701POPC   C3B72141  44.727  32.529   6.921
 5701POPC   C4B72142  44.860  32.653   7.337
 5702POPC   NC372143   8.106  30.212   5.364
 5702POPC   PO472144   8.235  29.559   5.236
 5702POPC   GL172145   8.258  29.813   5.648
 5702POPC   GL272146   8.458  30.153   5.722
 5702POPC   C1A72147   8.199  29.760   6.094
 5702POPC   D2A72148   8.288  29.823   6.560
 5702POPC   C3A72149   7.905  29.851   6.855
 5702POPC   C4A72150   7.838  29.920   7.326
 5702POPC   C1B72151   8.526  30.129   6.160
 5702POPC   C2B72152   8.600  30.336   6.530
 5702POPC   C3B72153   8.562  30.191   6.951
 5702POPC   C4B72154   8.319  29.856   7.167
 5703POPC   NC372155  23.311  16.044   5.581
 5703POPC   PO472156  23.983  16.182   5.465
 5703POPC   GL172157  23.792  16.218   5.857
 5703POPC   GL272158  23.513  16.451   5.834
 5703POPC   C1A72159  23.767  15.901   6.171
 5703POPC   D2A72160  23.554  15.602   6.435
 5703POPC   C3A72161  23.522  15.703   6.891
 5703POPC   C4A72162  23.855  15.774   7.180
 5703POPC   C1B72163  23.420  16.286   6.236
 5703POPC   C2B72164  23.593  16.130   6.602
 5703POPC   C3B72165  23.529  16.328   6.966
 5703POPC   C4B72166  23.666  16.260   7.302
 5704POPC   NC372167   9.207  32.538   5.494
 5704POPC   PO472168   8.793  32.010   5.159
 5704POPC   GL172169   8.890  32.066   5.627
 5704POPC   GL272170   9.190  31.892   5.741
 5704POPC   C1A72171   8.852  32.228   6.067
 5704POPC   D2A72172   8.839  32.504   6.447
 5704POPC   C3A72173   8.925  32.234   6.801
 5704POPC   C4A72174   8.815  32.203   7.220
 5704POPC   C1B72175   9.199  31.765   6.196
 5704POPC   C2B72176   9.329  31.892   6.625
 5704POPC   C3B72177   9.164  31.829   7.030
 5704POPC   C4B72178   9.249  31.886   7.482
 5705POPC   NC372179  32.620  14.254   5.196
 5705POPC   PO472180  33.192  14.574   5.235
 5705POPC   GL172181  33.171  14.414   5.646
 5705POPC   GL272182  33.016  14.062   5.713
 5705POPC   C1A72183  32.904  14.521   5.957
 5705POPC   D2A72184  32.765  14.409   6.337
 5705POPC   C3A72185  32.971  14.626   6.695
 5705POPC   C4A72186  33.032  14.503   7.133
 5705POPC   C1B72187  33.145  14.102   6.177
 5705POPC   C2B72188  33.018  14.091   6.650
 5705POPC   C3B72189  33.129  13.994   7.079
 5705POPC   C4B72190  33.516  14.176   7.212
 5706POPC   NC372191  31.140  36.981   5.572
 5706POPC   PO472192  31.880  36.805   5.523
 5706POPC   GL172193  31.620  37.026   5.766
 5706POPC   GL272194  31.456  36.748   5.890
 5706POPC   C1A72195  31.643  37.217   6.163
 5706POPC   D2A72196  31.565  37.008   6.572
 5706POPC   C3A72197  31.642  37.264   6.932
 5706POPC   C4A72198  31.606  37.155   7.365
 5706POPC   C1B72199  31.206  36.977   6.202
 5706POPC   C2B72200  31.044  36.854   6.569
 5706POPC   C3B72201  31.204  36.976   6.953
 5706POPC   C4B72202  31.204  36.739   7.277
 5707POPC   NC372203  15.596   8.366   5.392
 5707POPC   PO472204  16.090   8.034   5.144
 5707POPC   GL172205  16.010   8.115   5.643
 5707POPC   GL272206  15.962   7.808   5.894
 5707POPC   C1A72207  15.864   8.261   6.084
 5707POPC   D2A72208  15.687   8.170   6.505
 5707POPC   C3A72209  15.816   8.320   6.904
 5707POPC   C4A72210  16.019   8.332   7.302
 5707POPC   C1B72211  15.969   7.756   6.340
 5707POPC   C2B72212  15.936   7.821   6.786
 5707POPC   C3B72213  15.876   7.856   7.214
 5707POPC   C4B72214  15.779   7.962   7.660
 5708POPC   NC372215  41.575  31.183   5.327
 5708POPC   PO472216  42.021  31.643   5.463
 5708POPC   GL172217  41.667  31.652   5.773
 5708POPC   GL272218  41.536  31.306   5.846
 5708POPC   C1A72219  41.599  31.699   6.239
 5708POPC   D2A72220  41.813  31.677   6.657
 5708POPC   C3A72221  41.545  31.837   6.991
 5708POPC   C4A72222  41.354  31.538   7.221
 5708POPC   C1B72223  41.619  31.171   6.284
 5708POPC   C2B72224  41.696  31.116   6.724
 5708POPC   C3B72225  41.804  31.346   7.078
 5708POPC   C4B72226  41.778  31.227   7.549
 5709POPC   NC372227   4.536  44.890   5.547
 5709POPC   PO472228   4.164  44.377   5.462
 5709POPC   GL172229   4.238  44.649   5.883
 5709POPC   GL272230   4.493  44.962   6.024
 5709POPC   C1A72231   4.475  44.509   6.245
 5709POPC   D2A72232   4.649  44.548   6.653
 5709POPC   C3A72233   4.426  44.513   7.000
 5709POPC   C4A72234   4.638  44.363   7.325
 5709POPC   C1B72235   4.250  44.984   6.350
 5709POPC   C2B72236   4.334  44.954   6.749
 5709POPC   C3B72237   4.169  44.918   7.119
 5709POPC   C4B72238   4.240   0.111   7.462
 5710POPC   NC372239  22.801  22.553   5.381
 5710POPC   PO472240  23.238  22.993   5.251
 5710POPC   GL172241  23.088  23.010   5.703
 5710POPC   GL272242  23.254  23.335   5.818
 5710POPC   C1A72243  22.872  22.949   6.123
 5710POPC   D2A72244  22.961  23.003   6.592
 5710POPC   C3A72245  22.796  22.875   7.005
 5710POPC   C4A72246  22.863  22.788   7.445
 5710POPC   C1B72247  23.332  23.176   6.248
 5710POPC   C2B72248  23.468  23.072   6.675
 5710POPC   C3B72249  23.344  23.093   7.131
 5710POPC   C4B72250  23.235  23.128   7.560
 5711POPC   NC372251  37.029  38.745   5.495
 5711POPC   PO472252  37.394  38.205   5.355
 5711POPC   GL172253  37.045  38.240   5.738
 5711POPC   GL272254  36.853  38.555   5.919
 5711POPC   C1A72255  37.123  38.255   6.216
 5711POPC   D2A72256  36.962  38.458   6.576
 5711POPC   C3A72257  36.988  38.228   6.971
 5711POPC   C4A72258  36.897  38.260   7.419
 5711POPC   C1B72259  36.628  38.773   6.274
 5711POPC   C2B72260  36.627  38.868   6.711
 5711POPC   C3B72261  36.789  38.696   7.063
 5711POPC   C4B72262  37.206  38.625   7.210
 5712POPC   NC372263  36.943  18.141   5.134
 5712POPC   PO472264  36.618  18.483   5.640
 5712POPC   GL172265  36.941  18.559   5.811
 5712POPC   GL272266  37.040  18.220   5.855
 5712POPC   C1A72267  37.098  18.611   6.185
 5712POPC   D2A72268  37.091  18.325   6.510
 5712POPC   C3A72269  37.017  18.562   6.866
 5712POPC   C4A72270  36.808  18.441   7.227
 5712POPC   C1B72271  36.787  17.995   6.180
 5712POPC   C2B72272  36.655  17.990   6.594
 5712POPC   C3B72273  36.852  17.963   7.007
 5712POPC   C4B72274  36.642  17.991   7.382
 5713POPC   NC372275  31.155  11.257   5.601
 5713POPC   PO472276  31.805  11.016   5.495
 5713POPC   GL172277  31.637  11.388   5.810
 5713POPC   GL272278  31.317  11.627   5.895
 5713POPC   C1A72279  31.569  11.306   6.251
 5713POPC   D2A72280  31.499  10.982   6.589
 5713POPC   C3A72281  31.655  11.121   6.987
 5713POPC   C4A72282  31.693  11.519   7.148
 5713POPC   C1B72283  31.093  11.493   6.268
 5713POPC   C2B72284  31.287  11.429   6.673
 5713POPC   C3B72285  31.196  11.396   7.083
 5713POPC   C4B72286  31.260  11.585   7.474
 5714POPC   NC372287  14.554   1.448   5.396
 5714POPC   PO472288  14.618   0.843   5.563
 5714POPC   GL172289  14.447   1.053   5.844
 5714POPC   GL272290  14.197   1.264   5.710
 5714POPC   C1A72291  14.531   1.047   6.263
 5714POPC   D2A72292  14.803   1.159   6.597
 5714POPC   C3A72293  14.611   1.385   6.917
 5714POPC   C4A72294  14.704   1.284   7.313
 5714POPC   C1B72295  14.067   1.279   6.118
 5714POPC   C2B72296  13.985   1.151   6.517
 5714POPC   C3B72297  13.939   1.078   6.946
 5714POPC   C4B72298  14.162   1.389   7.182
 5715POPC   NC372299  41.906  43.435   5.430
 5715POPC   PO472300  41.353  43.044   5.495
 5715POPC   GL172301  41.404  43.092   5.941
 5715POPC   GL272302  41.751  43.093   5.878
 5715POPC   C1A72303  41.260  43.045   6.402
 5715POPC   D2A72304  41.379  43.035   6.846
 5715POPC   C3A72305  41.696  42.788   7.028
 5715POPC   C4A72306  41.780  42.909   7.463
 5715POPC   C1B72307  41.757  43.295   6.293
 5715POPC   C2B72308  41.940  43.308   6.709
 5715POPC   C3B72309  41.808  43.271   7.114
 5715POPC   C4B72310  41.402  43.276   7.339
 5716POPC   NC372311  36.132  34.296   5.516
 5716POPC   PO472312  35.981  34.888   5.430
 5716POPC   GL172313  35.864  34.767   5.852
 5716POPC   GL272314  36.229  34.673   5.924
 5716POPC   C1A72315  35.870  34.702   6.328
 5716POPC   D2A72316  36.204  34.546   6.594
 5716POPC   C3A72317  36.245  34.737   6.974
 5716POPC   C4A72318  35.997  34.774   7.314
 5716POPC   C1B72319  36.142  34.278   6.166
 5716POPC   C2B72320  36.027  34.073   6.567
 5716POPC   C3B72321  36.178  34.192   6.988
 5716POPC   C4B72322  36.058  34.237   7.393
 5717POPC   NC372323  36.186  12.471   5.450
 5717POPC   PO472324  36.022  13.027   5.418
 5717POPC   GL172325  36.072  12.889   5.848
 5717POPC   GL272326  36.348  12.641   5.881
 5717POPC   C1A72327  36.221  13.071   6.275
 5717POPC   D2A72328  36.295  13.260   6.707
 5717POPC   C3A72329  36.310  12.937   7.039
 5717POPC   C4A72330  36.403  12.505   7.055
 5717POPC   C1B72331  36.125  12.555   6.238
 5717POPC   C2B72332  36.081  12.654   6.656
 5717POPC   C3B72333  35.866  12.453   6.995
 5717POPC   C4B72334  35.934  12.661   7.405
 5718POPC   NC372335  44.490  21.626   5.370
 5718POPC   PO472336   0.065  21.222   5.381
 5718POPC   GL172337   0.101  21.388   5.839
 5718POPC   GL272338  44.872  21.628   5.763
 5718POPC   C1A72339  44.946  21.373   6.317
 5718POPC   D2A72340  44.530  21.240   6.576
 5718POPC   C3A72341  44.632  21.107   6.999
 5718POPC   C4A72342   0.072  21.154   7.110
 5718POPC   C1B72343  44.979  21.847   6.111
 5718POPC   C2B72344  44.934  21.901   6.534
 5718POPC   C3B72345  44.834  21.598   6.843
 5718POPC   C4B72346  44.642  21.584   7.251
 5719POPC   NC372347  43.456   9.263   5.663
 5719POPC   PO472348  42.924   9.128   5.235
 5719POPC   GL172349  43.016   8.959   5.670
 5719POPC   GL272350  43.313   8.711   5.651
 5719POPC   C1A72351  42.902   9.020   6.132
 5719POPC   D2A72352  42.865   9.187   6.612
 5719POPC   C3A72353  42.914   9.070   7.076
 5719POPC   C4A72354  42.957   8.715   7.404
 5719POPC   C1B72355  43.268   8.634   6.100
 5719POPC   C2B72356  43.139   8.765   6.519
 5719POPC   C3B72357  43.192   8.667   6.955
 5719POPC   C4B72358  43.431   8.891   7.265
 5720POPC   NC372359  33.170  28.725   5.447
 5720POPC   PO472360  33.767  28.513   5.438
 5720POPC   GL172361  33.408  28.309   5.720
 5720POPC   GL272362  33.026  28.413   5.827
 5720POPC   C1A72363  33.306  28.173   6.163
 5720POPC   D2A72364  33.003  28.304   6.478
 5720POPC   C3A72365  33.156  28.296   6.920
 5720POPC   C4A72366  33.009  28.113   7.313
 5720POPC   C1B72367  32.680  28.549   6.161
 5720POPC   C2B72368  32.523  28.616   6.603
 5720POPC   C3B72369  32.612  28.731   7.041
 5720POPC   C4B72370  32.631  28.469   7.398
 5721POPC   NC372371  32.981  43.633   5.344
 5721POPC   PO472372  33.134  43.051   5.487
 5721POPC   GL172373  32.955  43.206   5.924
 5721POPC   GL272374  32.580  43.221   6.024
 5721POPC   C1A72375  32.945  43.250   6.378
 5721POPC   D2A72376  33.264  43.447   6.600
 5721POPC   C3A72377  33.260  43.246   6.955
 5721POPC   C4A72378  33.181  42.983   7.283
 5721POPC   C1B72379  32.587  42.833   6.212
 5721POPC   C2B72380  32.586  42.801   6.646
 5721POPC   C3B72381  32.705  43.144   6.918
 5721POPC   C4B72382  32.570  43.048   7.315
 5722POPC   NC372383  22.281   0.001   5.558
 5722POPC   PO472384  21.898   0.610   5.500
 5722POPC   GL172385  22.128   0.418   5.772
 5722POPC   GL272386  21.806   0.142   5.711
 5722POPC   C1A72387  22.323   0.380   6.178
 5722POPC   D2A72388  22.120   0.489   6.543
 5722POPC   C3A72389  22.301   0.541   6.925
 5722POPC   C4A72390  22.135   0.714   7.250
 5722POPC   C1B72391  21.848   0.246   6.131
 5722POPC   C2B72392  22.005   0.005   6.469
 5722POPC   C3B72393  22.048   0.073   6.893
 5722POPC   C4B72394  22.399   0.030   7.115
 5723POPC   NC372395  37.554  29.789   5.374
 5723POPC   PO472396  38.267  29.708   5.604
 5723POPC   GL172397  37.888  29.666   5.765
 5723POPC   GL272398  37.729  29.945   5.828
 5723POPC   C1A72399  37.671  29.516   6.114
 5723POPC   D2A72400  37.820  29.571   6.528
 5723POPC   C3A72401  37.569  29.585   6.893
 5723POPC   C4A72402  37.747  29.704   7.269
 5723POPC   C1B72403  37.886  29.991   6.233
 5723POPC   C2B72404  37.698  30.061   6.645
 5723POPC   C3B72405  37.623  30.170   7.085
 5723POPC   C4B72406  37.992  30.172   7.389
 5724POPC   NC372407  36.347  10.437   4.991
 5724POPC   PO472408  36.917  10.346   5.266
 5724POPC   GL172409  36.777  10.416   5.677
 5724POPC   GL272410  36.713  10.788   5.708
 5724POPC   C1A72411  36.939  10.455   6.089
 5724POPC   D2A72412  36.961  10.842   6.361
 5724POPC   C3A72413  36.982  10.718   6.782
 5724POPC   C4A72414  36.922  10.709   7.250
 5724POPC   C1B72415  36.514  10.726   6.103
 5724POPC   C2B72416  36.623  10.465   6.480
 5724POPC   C3B72417  36.539  10.484   6.900
 5724POPC   C4B72418  36.433  10.745   7.252
 5725POPC   NC372419  29.282  23.356   5.468
 5725POPC   PO472420  28.891  23.966   5.435
 5725POPC   GL172421  29.049  23.813   5.801
 5725POPC   GL272422  28.878  23.487   5.833
 5725POPC   C1A72423  28.923  23.893   6.207
 5725POPC   D2A72424  28.789  23.751   6.598
 5725POPC   C3A72425  29.003  23.927   6.951
 5725POPC   C4A72426  29.171  23.864   7.345
 5725POPC   C1B72427  29.002  23.393   6.251
 5725POPC   C2B72428  29.249  23.491   6.616
 5725POPC   C3B72429  29.149  23.434   7.045
 5725POPC   C4B72430  29.089  23.383   7.490
 5726POPC   NC372431  34.123  28.733   5.637
 5726POPC   PO472432  34.137  28.042   5.338
 5726POPC   GL172433  33.915  28.077   5.763
 5726POPC   GL272434  33.882  28.406   5.923
 5726POPC   C1A72435  33.808  28.022   6.217
 5726POPC   D2A72436  33.873  28.280   6.581
 5726POPC   C3A72437  33.717  28.106   6.959
 5726POPC   C4A72438  33.948  28.229   7.307
 5726POPC   C1B72439  33.616  28.589   6.213
 5726POPC   C2B72440  33.517  28.683   6.623
 5726POPC   C3B72441  33.709  28.621   7.002
 5726POPC   C4B72442  33.494  28.478   7.337
 5727POPC   NC372443  33.585  34.014   5.149
 5727POPC   PO472444  34.032  33.617   5.516
 5727POPC   GL172445  33.767  33.896   5.787
 5727POPC   GL272446  34.006  34.065   5.986
 5727POPC   C1A72447  33.637  33.817   6.228
 5727POPC   D2A72448  33.567  33.525   6.558
 5727POPC   C3A72449  33.588  33.697   6.949
 5727POPC   C4A72450  33.478  33.511   7.285
 5727POPC   C1B72451  34.177  33.902   6.302
 5727POPC   C2B72452  33.968  33.851   6.637
 5727POPC   C3B72453  34.024  33.939   7.015
 5727POPC   C4B72454  33.976  33.708   7.413
 5728POPC   NC372455  34.857  26.938   5.413
 5728POPC   PO472456  34.160  27.104   5.362
 5728POPC   GL172457  34.421  26.864   5.704
 5728POPC   GL272458  34.644  27.098   5.844
 5728POPC   C1A72459  34.564  26.751   6.174
 5728POPC   D2A72460  34.379  26.733   6.582
 5728POPC   C3A72461  34.682  26.650   6.890
 5728POPC   C4A72462  34.756  26.847   7.271
 5728POPC   C1B72463  34.890  27.158   6.207
 5728POPC   C2B72464  34.970  26.912   6.535
 5728POPC   C3B72465  35.017  27.099   6.910
 5728POPC   C4B72466  35.067  27.251   7.307
 5729POPC   NC372467  15.232   4.747   5.486
 5729POPC   PO472468  15.034   4.088   5.413
 5729POPC   GL172469  15.197   4.334   5.784
 5729POPC   GL272470  14.984   4.574   5.908
 5729POPC   C1A72471  15.325   4.415   6.243
 5729POPC   D2A72472  15.500   4.184   6.540
 5729POPC   C3A72473  15.471   4.402   6.899
 5729POPC   C4A72474  15.487   4.376   7.322
 5729POPC   C1B72475  14.829   4.353   6.278
 5729POPC   C2B72476  15.009   4.223   6.687
 5729POPC   C3B72477  15.025   4.274   7.114
 5729POPC   C4B72478  15.030   4.568   7.437
 5730POPC   NC372479  20.100   7.258   5.456
 5730POPC   PO472480  19.428   7.510   5.379
 5730POPC   GL172481  19.717   7.359   5.784
 5730POPC   GL272482  20.087   7.504   5.903
 5730POPC   C1A72483  19.844   7.171   6.210
 5730POPC   D2A72484  19.601   7.182   6.597
 5730POPC   C3A72485  19.700   7.130   7.005
 5730POPC   C4A72486  19.648   7.461   7.263
 5730POPC   C1B72487  20.285   7.407   6.342
 5730POPC   C2B72488  20.133   7.387   6.796
 5730POPC   C3B72489  20.168   7.517   7.269
 5730POPC   C4B72490  20.175   7.926   7.522
 5731POPC   NC372491   9.096  15.861   5.472
 5731POPC   PO472492   8.547  16.117   5.390
 5731POPC   GL172493   8.636  15.876   5.788
 5731POPC   GL272494   8.900  15.666   5.904
 5731POPC   C1A72495   8.537  15.777   6.233
 5731POPC   D2A72496   8.658  15.657   6.667
 5731POPC   C3A72497   8.749  15.945   7.026
 5731POPC   C4A72498   9.107  15.811   7.282
 5731POPC   C1B72499   9.037  15.913   6.329
 5731POPC   C2B72500   9.193  16.034   6.786
 5731POPC   C3B72501   9.450  16.160   7.183
 5731POPC   C4B72502   9.376  16.118   7.631
 5732POPC   NC372503  11.831   6.173   5.547
 5732POPC   PO472504  12.206   5.655   5.258
 5732POPC   GL172505  12.090   5.744   5.682
 5732POPC   GL272506  11.722   5.667   5.557
 5732POPC   C1A72507  12.119   5.980   6.130
 5732POPC   D2A72508  12.174   6.302   6.520
 5732POPC   C3A72509  12.147   6.157   6.975
 5732POPC   C4A72510  12.319   5.794   7.244
 5732POPC   C1B72511  11.699   5.674   6.010
 5732POPC   C2B72512  11.778   5.740   6.463
 5732POPC   C3B72513  11.859   5.733   6.909
 5732POPC   C4B72514  11.655   6.086   7.101
 5733POPC   NC372515   6.108  37.969   5.614
 5733POPC   PO472516   5.732  38.566   5.506
 5733POPC   GL172517   5.659  38.256   5.832
 5733POPC   GL272518   5.992  38.326   5.952
 5733POPC   C1A72519   5.649  38.179   6.293
 5733POPC   D2A72520   5.953  38.407   6.572
 5733POPC   C3A72521   5.771  38.490   6.955
 5733POPC   C4A72522   5.431  38.310   7.160
 5733POPC   C1B72523   6.196  38.055   6.263
 5733POPC   C2B72524   6.246  37.950   6.707
 5733POPC   C3B72525   6.192  38.197   7.071
 5733POPC   C4B72526   6.085  38.090   7.519
 5734POPC   NC372527   8.144  26.341   5.428
 5734POPC   PO472528   8.834  26.269   5.438
 5734POPC   GL172529   8.519  26.099   5.719
 5734POPC   GL272530   8.402  25.751   5.633
 5734POPC   C1A72531   8.258  26.193   6.080
 5734POPC   D2A72532   8.291  26.379   6.489
 5734POPC   C3A72533   8.078  26.145   6.803
 5734POPC   C4A72534   8.081  25.989   7.199
 5734POPC   C1B72535   8.469  25.700   6.079
 5734POPC   C2B72536   8.305  25.842   6.459
 5734POPC   C3B72537   8.372  25.713   6.883
 5734POPC   C4B72538   8.369  25.570   7.314
 5735POPC   NC372539   2.505   2.877   5.419
 5735POPC   PO472540   2.461   2.246   5.648
 5735POPC   GL172541   2.734   2.629   5.839
 5735POPC   GL272542   2.550   2.947   5.921
 5735POPC   C1A72543   3.010   2.869   6.170
 5735POPC   D2A72544   2.979   3.000   6.618
 5735POPC   C3A72545   2.972   2.644   6.899
 5735POPC   C4A72546   2.617   2.386   7.082
 5735POPC   C1B72547   2.509   2.883   6.353
 5735POPC   C2B72548   2.481   3.081   6.734
 5735POPC   C3B72549   2.638   2.964   7.124
 5735POPC   C4B72550   2.664   3.032   7.563
 5736POPC   NC372551  40.607  15.595   5.453
 5736POPC   PO472552  40.950  15.057   5.138
 5736POPC   GL172553  40.918  15.202   5.610
 5736POPC   GL272554  40.555  15.188   5.748
 5736POPC   C1A72555  41.004  15.264   6.083
 5736POPC   D2A72556  40.886  15.444   6.502
 5736POPC   C3A72557  40.960  15.201   6.844
 5736POPC   C4A72558  40.928  15.057   7.229
 5736POPC   C1B72559  40.498  15.384   6.173
 5736POPC   C2B72560  40.407  15.290   6.651
 5736POPC   C3B72561  40.518  15.325   7.119
 5736POPC   C4B72562  40.713  15.344   7.577
 5737POPC   NC372563  44.227  24.608   5.410
 5737POPC   PO472564  43.656  24.989   5.347
 5737POPC   GL172565  43.793  24.723   5.762
 5737POPC   GL272566  44.093  24.476   5.866
 5737POPC   C1A72567  43.710  24.482   6.185
 5737POPC   D2A72568  43.691  24.572   6.628
 5737POPC   C3A72569  43.575  24.429   7.059
 5737POPC   C4A72570  43.751  24.444   7.485
 5737POPC   C1B72571  44.229  24.352   6.274
 5737POPC   C2B72572  44.101  24.279   6.684
 5737POPC   C3B72573  44.090  24.395   7.090
 5737POPC   C4B72574  44.369  24.345   7.417
 5738POPC   NC372575   0.102   8.250   5.598
 5738POPC   PO472576   0.676   8.533   5.548
 5738POPC   GL172577   0.530   8.369   5.939
 5738POPC   GL272578   0.472   8.011   5.867
 5738POPC   C1A72579   0.483   8.495   6.395
 5738POPC   D2A72580   0.387   8.411   6.828
 5738POPC   C3A72581   0.638   8.574   7.141
 5738POPC   C4A72582   0.473   8.735   7.480
 5738POPC   C1B72583   0.241   8.051   6.257
 5738POPC   C2B72584   0.415   7.949   6.647
 5738POPC   C3B72585   0.262   7.921   7.054
 5738POPC   C4B72586   0.443   7.718   7.443
 5739POPC   NC372587  27.302   9.434   5.526
 5739POPC   PO472588  27.739  10.018   5.459
 5739POPC   GL172589  27.605   9.781   5.829
 5739POPC   GL272590  27.717   9.455   5.830
 5739POPC   C1A72591  27.600   9.787   6.284
 5739POPC   D2A72592  27.722   9.741   6.698
 5739POPC   C3A72593  27.464   9.934   6.997
 5739POPC   C4A72594  27.676   9.723   7.296
 5739POPC   C1B72595  27.370   9.348   6.150
 5739POPC   C2B72596  27.470   9.295   6.567
 5739POPC   C3B72597  27.338   9.423   6.973
 5739POPC   C4B72598  27.190   9.555   7.373
 5740POPC   NC372599   0.149  18.213   5.580
 5740POPC   PO472600  44.520  18.222   5.365
 5740POPC   GL172601  44.542  18.343   5.795
 5740POPC   GL272602  44.658  18.021   5.861
 5740POPC   C1A72603  44.552  18.413   6.247
 5740POPC   D2A72604  44.521  18.616   6.631
 5740POPC   C3A72605  44.544  18.413   7.017
 5740POPC   C4A72606  44.326  18.319   7.382
 5740POPC   C1B72607  44.884  18.017   6.265
 5740POPC   C2B72608  44.895  18.191   6.685
 5740POPC   C3B72609  44.741  17.946   7.026
 5740POPC   C4B72610  44.535  17.683   7.331
 5741POPC   NC372611  30.249   1.549   5.558
 5741POPC   PO472612  29.628   1.295   5.401
 5741POPC   GL172613  29.868   1.314   5.856
 5741POPC   GL272614  30.203   1.250   6.039
 5741POPC   C1A72615  29.745   1.291   6.268
 5741POPC   D2A72616  29.885   1.082   6.589
 5741POPC   C3A72617  30.083   0.985   6.968
 5741POPC   C4A72618  29.917   0.960   7.414
 5741POPC   C1B72619  30.152   1.599   6.292
 5741POPC   C2B72620  29.947   1.586   6.677
 5741POPC   C3B72621  29.971   1.457   7.112
 5741POPC   C4B72622  30.282   1.313   7.359
 5742POPC   NC372623  14.861  36.855   5.430
 5742POPC   PO472624  14.303  37.196   5.225
 5742POPC   GL172625  14.478  36.916   5.732
 5742POPC   GL272626  14.601  36.573   5.783
 5742POPC   C1A72627  14.243  36.803   6.157
 5742POPC   D2A72628  14.177  37.064   6.548
 5742POPC   C3A72629  14.330  37.123   6.972
 5742POPC   C4A72630  14.158  37.459   7.226
 5742POPC   C1B72631  14.707  36.602   6.237
 5742POPC   C2B72632  14.418  36.570   6.612
 5742POPC   C3B72633  14.383  36.592   7.075
 5742POPC   C4B72634  14.384  36.756   7.539
 5743POPC   NC372635  18.618  32.158   5.134
 5743POPC   PO472636  19.249  32.278   5.387
 5743POPC   GL172637  19.144  32.275   5.800
 5743POPC   GL272638  18.923  32.545   5.701
 5743POPC   C1A72639  19.020  32.077   6.208
 5743POPC   D2A72640  19.069  32.135   6.623
 5743POPC   C3A72641  18.981  31.889   6.960
 5743POPC   C4A72642  19.072  32.111   7.282
 5743POPC   C1B72643  18.832  32.567   6.134
 5743POPC   C2B72644  18.693  32.485   6.540
 5743POPC   C3B72645  18.779  32.379   6.965
 5743POPC   C4B72646  18.879  32.587   7.334
 5744POPC   NC372647   0.613  38.789   5.472
 5744POPC   PO472648   0.019  38.575   5.402
 5744POPC   GL172649   0.316  38.541   5.802
 5744POPC   GL272650   0.698  38.415   5.819
 5744POPC   C1A72651   0.305  38.478   6.258
 5744POPC   D2A72652   0.031  38.567   6.640
 5744POPC   C3A72653   0.142  38.644   7.075
 5744POPC   C4A72654   0.234  38.888   7.469
 5744POPC   C1B72655   0.833  38.443   6.257
 5744POPC   C2B72656   0.609  38.305   6.636
 5744POPC   C3B72657   0.517  38.259   7.067
 5744POPC   C4B72658   0.797  38.129   7.386
 5745POPC   NC372659   8.799   0.246   5.383
 5745POPC   PO472660   8.947   0.911   5.372
 5745POPC   GL172661   8.939   0.709   5.764
 5745POPC   GL272662   9.088   0.387   5.780
 5745POPC   C1A72663   8.738   0.594   6.155
 5745POPC   D2A72664   8.659   0.790   6.553
 5745POPC   C3A72665   8.756   0.568   6.908
 5745POPC   C4A72666   8.864   0.614   7.306
 5745POPC   C1B72667   9.060   0.174   6.183
 5745POPC   C2B72668   8.883   0.091   6.617
 5745POPC   C3B72669   9.053   0.172   7.027
 5745POPC   C4B72670   9.362   0.296   7.327
 5746POPC   NC372671  42.096   7.906   5.439
 5746POPC   PO472672  42.643   8.318   5.644
 5746POPC   GL172673  42.354   8.101   5.850
 5746POPC   GL272674  42.521   7.875   6.015
 5746POPC   C1A72675  42.193   8.279   6.240
 5746POPC   D2A72676  42.076   8.227   6.658
 5746POPC   C3A72677  42.368   8.283   6.970
 5746POPC   C4A72678  42.186   8.336   7.334
 5746POPC   C1B72679  42.122   7.770   6.175
 5746POPC   C2B72680  42.042   7.731   6.586
 5746POPC   C3B72681  42.373   7.772   6.879
 5746POPC   C4B72682  42.330   7.847   7.316
 5747POPC   NC372683  35.971  33.487   5.402
 5747POPC   PO472684  36.643  33.625   5.362
 5747POPC   GL172685  36.230  33.827   5.715
 5747POPC   GL272686  36.066  33.576   5.878
 5747POPC   C1A72687  35.804  33.919   6.110
 5747POPC   D2A72688  35.566  33.763   6.515
 5747POPC   C3A72689  35.682  33.969   6.933
 5747POPC   C4A72690  35.693  33.830   7.355
 5747POPC   C1B72691  36.259  33.744   6.221
 5747POPC   C2B72692  36.309  33.646   6.615
 5747POPC   C3B72693  36.107  33.684   6.952
 5747POPC   C4B72694  36.197  33.752   7.340
 5748POPC   NC372695  41.691  39.430   5.489
 5748POPC   PO472696  41.963  38.824   5.667
 5748POPC   GL172697  41.684  39.030   5.893
 5748POPC   GL272698  41.346  39.108   5.826
 5748POPC   C1A72699  41.561  38.935   6.305
 5748POPC   D2A72700  41.371  39.169   6.618
 5748POPC   C3A72701  41.640  39.045   6.873
 5748POPC   C4A72702  41.605  38.988   7.224
 5748POPC   C1B72703  41.491  39.419   6.174
 5748POPC   C2B72704  41.778  39.606   6.478
 5748POPC   C3B72705  41.687  39.537   6.917
 5748POPC   C4B72706  41.606  39.472   7.340
 5749POPC   NC372707  35.864  36.606   5.384
 5749POPC   PO472708  36.299  37.022   5.474
 5749POPC   GL172709  36.405  36.992   5.857
 5749POPC   GL272710  36.556  37.281   5.920
 5749POPC   C1A72711  36.184  36.820   6.199
 5749POPC   D2A72712  35.955  36.898   6.556
 5749POPC   C3A72713  36.109  36.620   6.848
 5749POPC   C4A72714  36.168  36.540   7.232
 5749POPC   C1B72715  36.247  37.321   6.254
 5749POPC   C2B72716  36.113  37.408   6.662
 5749POPC   C3B72717  35.976  37.181   7.023
 5749POPC   C4B72718  36.289  37.079   7.306
 5750POPC   NC372719  17.020  17.645   5.465
 5750POPC   PO472720  16.383  17.705   5.541
 5750POPC   GL172721  16.610  17.762   5.881
 5750POPC   GL272722  16.855  17.527   5.932
 5750POPC   C1A72723  16.520  17.617   6.286
 5750POPC   D2A72724  16.601  17.479   6.673
 5750POPC   C3A72725  16.392  17.664   7.006
 5750POPC   C4A72726  16.584  17.741   7.438
 5750POPC   C1B72727  17.054  17.435   6.355
 5750POPC   C2B72728  17.034  17.230   6.757
 5750POPC   C3B72729  16.889  17.427   7.112
 5750POPC   C4B72730  16.891  17.285   7.502
 5751POPC   NC372731   8.558  22.888   5.422
 5751POPC   PO472732   8.011  23.262   5.458
 5751POPC   GL172733   7.977  23.082   5.890
 5751POPC   GL272734   8.144  22.740   5.877
 5751POPC   C1A72735   8.188  23.159   6.304
 5751POPC   D2A72736   8.401  23.087   6.697
 5751POPC   C3A72737   8.092  23.005   7.046
 5751POPC   C4A72738   7.918  23.106   7.463
 5751POPC   C1B72739   8.375  22.695   6.261
 5751POPC   C2B72740   8.167  22.625   6.651
 5751POPC   C3B72741   8.445  22.646   6.983
 5751POPC   C4B72742   8.581  22.974   7.259
 5752POPC   NC372743  30.839  39.450   5.465
 5752POPC   PO472744  30.575  38.883   5.547
 5752POPC   GL172745  30.775  39.133   5.859
 5752POPC   GL272746  30.633  39.471   5.920
 5752POPC   C1A72747  30.737  39.174   6.302
 5752POPC   D2A72748  30.564  39.049   6.675
 5752POPC   C3A72749  30.856  39.102   6.995
 5752POPC   C4A72750  30.871  39.156   7.474
 5752POPC   C1B72751  30.679  39.700   6.295
 5752POPC   C2B72752  30.747  39.559   6.706
 5752POPC   C3B72753  30.813  39.582   7.138
 5752POPC   C4B72754  30.573  39.640   7.499
 5753POPC   NC372755  17.409  26.369   5.460
 5753POPC   PO472756  17.551  25.804   5.595
 5753POPC   GL172757  17.508  25.989   5.954
 5753POPC   GL272758  17.758  26.205   5.927
 5753POPC   C1A72759  17.572  26.019   6.388
 5753POPC   D2A72760  17.339  25.938   6.748
 5753POPC   C3A72761  17.526  25.722   7.114
 5753POPC   C4A72762  17.533  25.966   7.502
 5753POPC   C1B72763  17.991  26.301   6.289
 5753POPC   C2B72764  17.934  26.185   6.723
 5753POPC   C3B72765  17.647  26.214   7.091
 5753POPC   C4B72766  17.761  26.423   7.511
 5754POPC   NC372767  15.435  10.950   5.543
 5754POPC   PO472768  16.027  10.636   5.393
 5754POPC   GL172769  15.861  10.747   5.830
 5754POPC   GL272770  15.547  10.773   5.994
 5754POPC   C1A72771  15.927  10.694   6.310
 5754POPC   D2A72772  15.751  10.507   6.719
 5754POPC   C3A72773  16.047  10.379   7.095
 5754POPC   C4A72774  16.262  10.571   7.475
 5754POPC   C1B72775  15.504  10.383   6.238
 5754POPC   C2B72776  15.376  10.143   6.605
 5754POPC   C3B72777  15.604  10.111   7.008
 5754POPC   C4B72778  15.609  10.374   7.378
 5755POPC   NC372779  28.245   1.023   5.533
 5755POPC   PO472780  28.689   1.601   5.558
 5755POPC   GL172781  28.483   1.365   5.844
 5755POPC   GL272782  28.704   1.080   5.779
 5755POPC   C1A72783  28.324   1.209   6.234
 5755POPC   D2A72784  28.139   1.107   6.652
 5755POPC   C3A72785  28.106   1.410   6.984
 5755POPC   C4A72786  28.224   1.284   7.396
 5755POPC   C1B72787  28.839   1.180   6.188
 5755POPC   C2B72788  28.728   1.355   6.584
 5755POPC   C3B72789  28.550   1.170   6.979
 5755POPC   C4B72790  28.665   0.991   7.383
 5756POPC   NC372791  32.846  21.955   5.450
 5756POPC   PO472792  33.403  22.270   5.219
 5756POPC   GL172793  33.204  22.296   5.667
 5756POPC   GL272794  33.234  21.996   5.811
 5756POPC   C1A72795  32.878  22.338   6.069
 5756POPC   D2A72796  32.884  22.513   6.528
 5756POPC   C3A72797  32.710  22.334   6.933
 5756POPC   C4A72798  32.825  22.291   7.357
 5756POPC   C1B72799  33.211  22.032   6.253
 5756POPC   C2B72800  32.972  22.028   6.608
 5756POPC   C3B72801  33.076  21.984   7.031
 5756POPC   C4B72802  32.918  21.698   7.314
 5757POPC   NC372803  37.134  15.176   5.353
 5757POPC   PO472804  36.573  15.564   5.430
 5757POPC   GL172805  36.714  15.323   5.788
 5757POPC   GL272806  37.091  15.257   5.852
 5757POPC   C1A72807  36.711  15.010   6.118
 5757POPC   D2A72808  37.061  14.933   6.426
 5757POPC   C3A72809  36.963  15.053   6.857
 5757POPC   C4A72810  36.761  14.913   7.246
 5757POPC   C1B72811  36.965  15.440   6.246
 5757POPC   C2B72812  36.941  15.632   6.651
 5757POPC   C3B72813  37.170  15.512   6.967
 5757POPC   C4B72814  36.909  15.403   7.244
 5758POPC   NC372815   5.495  22.423   5.611
 5758POPC   PO472816   6.184  22.537   5.546
 5758POPC   GL172817   6.004  22.221   5.850
 5758POPC   GL272818   5.914  21.838   5.783
 5758POPC   C1A72819   6.114  22.033   6.252
 5758POPC   D2A72820   5.873  22.008   6.631
 5758POPC   C3A72821   6.030  22.243   6.990
 5758POPC   C4A72822   5.683  22.484   7.169
 5758POPC   C1B72823   5.651  21.801   6.173
 5758POPC   C2B72824   5.472  21.597   6.510
 5758POPC   C3B72825   5.418  21.866   6.851
 5758POPC   C4B72826   5.651  21.964   7.208
 5759POPC   NC372827  38.653  30.329   5.352
 5759POPC   PO472828  38.145  30.673   5.524
 5759POPC   GL172829  38.483  30.754   5.810
 5759POPC   GL272830  38.591  30.434   5.848
 5759POPC   C1A72831  38.634  30.741   6.244
 5759POPC   D2A72832  38.582  30.942   6.629
 5759POPC   C3A72833  38.236  30.939   6.947
 5759POPC   C4A72834  38.568  30.994   7.285
 5759POPC   C1B72835  38.218  30.477   6.148
 5759POPC   C2B72836  38.166  30.312   6.536
 5759POPC   C3B72837  38.429  30.483   6.820
 5759POPC   C4B72838  38.351  30.547   7.256
 5760POPC   NC372839  33.222  40.290   5.481
 5760POPC   PO472840  33.278  39.608   5.387
 5760POPC   GL172841  33.205  39.832   5.810
 5760POPC   GL272842  32.906  39.975   5.883
 5760POPC   C1A72843  33.232  39.987   6.273
 5760POPC   D2A72844  33.213  39.707   6.657
 5760POPC   C3A72845  32.997  39.775   7.071
 5760POPC   C4A72846  32.849  39.692   7.536
 5760POPC   C1B72847  32.732  40.080   6.277
 5760POPC   C2B72848  32.903  40.121   6.676
 5760POPC   C3B72849  32.742  40.231   7.062
 5760POPC   C4B72850  32.783  40.553   7.376
 5761POPC   NC372851  35.284  15.864   5.331
 5761POPC   PO472852  35.565  16.356   5.596
 5761POPC   GL172853  35.330  16.097   5.876
 5761POPC   GL272854  35.055  15.881   5.802
 5761POPC   C1A72855  35.510  15.977   6.272
 5761POPC   D2A72856  35.666  16.270   6.576
 5761POPC   C3A72857  35.508  16.081   6.943
 5761POPC   C4A72858  35.341  15.917   7.331
 5761POPC   C1B72859  35.058  15.635   6.190
 5761POPC   C2B72860  35.320  15.561   6.556
 5761POPC   C3B72861  35.147  15.708   6.921
 5761POPC   C4B72862  34.921  15.512   7.239
 5762POPC   NC372863  11.714  22.135   5.421
 5762POPC   PO472864  12.286  22.513   5.299
 5762POPC   GL172865  12.060  22.470   5.671
 5762POPC   GL272866  12.145  22.130   5.673
 5762POPC   C1A72867  12.099  22.351   6.110
 5762POPC   D2A72868  12.393  22.339   6.446
 5762POPC   C3A72869  12.192  22.184   6.823
 5762POPC   C4A72870  12.198  22.304   7.249
 5762POPC   C1B72871  12.341  21.907   6.006
 5762POPC   C2B72872  12.372  21.826   6.432
 5762POPC   C3B72873  12.409  21.708   6.841
 5762POPC   C4B72874  12.403  21.832   7.246
 5763POPC   NC372875  36.649   4.942   5.426
 5763POPC   PO472876  36.015   5.041   5.286
 5763POPC   GL172877  36.192   5.200   5.691
 5763POPC   GL272878  36.266   4.898   5.831
 5763POPC   C1A72879  36.284   5.294   6.160
 5763POPC   D2A72880  36.112   5.263   6.573
 5763POPC   C3A72881  36.101   5.323   7.036
 5763POPC   C4A72882  36.257   5.208   7.445
 5763POPC   C1B72883  36.099   4.771   6.254
 5763POPC   C2B72884  36.168   4.739   6.705
 5763POPC   C3B72885  36.064   4.811   7.151
 5763POPC   C4B72886  36.058   4.764   7.600
 5764POPC   NC372887  44.070   7.021   5.581
 5764POPC   PO472888  43.748   6.507   5.321
 5764POPC   GL172889  44.001   6.497   5.708
 5764POPC   GL272890  43.740   6.678   5.877
 5764POPC   C1A72891  44.157   6.579   6.172
 5764POPC   D2A72892  44.323   6.390   6.572
 5764POPC   C3A72893  44.126   6.513   6.958
 5764POPC   C4A72894  44.191   6.847   7.265
 5764POPC   C1B72895  43.678   6.726   6.339
 5764POPC   C2B72896  43.847   6.920   6.733
 5764POPC   C3B72897  43.692   6.935   7.156
 5764POPC   C4B72898  43.527   6.847   7.547
 5765POPC   NC372899  31.589   1.966   5.440
 5765POPC   PO472900  31.084   1.587   5.626
 5765POPC   GL172901  31.302   1.974   5.842
 5765POPC   GL272902  31.603   1.823   5.952
 5765POPC   C1A72903  31.548   2.266   6.162
 5765POPC   D2A72904  31.803   2.160   6.528
 5765POPC   C3A72905  31.721   2.346   6.937
 5765POPC   C4A72906  31.368   2.264   7.214
 5765POPC   C1B72907  31.267   1.888   6.329
 5765POPC   C2B72908  31.337   1.981   6.763
 5765POPC   C3B72909  31.348   1.657   7.061
 5765POPC   C4B72910  31.010   1.399   7.181
 5766POPC   NC372911  44.291  29.884   5.471
 5766POPC   PO472912  44.821  29.559   5.413
 5766POPC   GL172913  44.786  29.904   5.683
 5766POPC   GL272914  44.522  30.111   5.855
 5766POPC   C1A72915  44.855  29.852   6.121
 5766POPC   D2A72916  44.650  30.045   6.453
 5766POPC   C3A72917  44.932  30.191   6.771
 5766POPC   C4A72918  44.875  29.967   7.145
 5766POPC   C1B72919  44.240  29.918   6.153
 5766POPC   C2B72920  44.113  30.051   6.565
 5766POPC   C3B72921  44.414  30.112   6.911
 5766POPC   C4B72922  44.515  30.303   7.300
 5767POPC   NC372923  18.001  23.317   5.333
 5767POPC   PO472924  18.322  22.674   5.546
 5767POPC   GL172925  18.085  22.814   5.836
 5767POPC   GL272926  18.169  23.120   5.790
 5767POPC   C1A72927  17.975  22.672   6.203
 5767POPC   D2A72928  18.247  22.543   6.540
 5767POPC   C3A72929  18.214  22.662   6.949
 5767POPC   C4A72930  18.256  22.879   7.286
 5767POPC   C1B72931  18.278  23.108   6.236
 5767POPC   C2B72932  18.261  23.121   6.677
 5767POPC   C3B72933  18.551  23.186   7.013
 5767POPC   C4B72934  18.377  23.374   7.367
 5768POPC   NC372935  43.248  10.255   5.377
 5768POPC   PO472936  43.202   9.587   5.440
 5768POPC   GL172937  43.099   9.571   5.873
 5768POPC   GL272938  43.403   9.588   6.062
 5768POPC   C1A72939  42.893   9.568   6.263
 5768POPC   D2A72940  43.139   9.691   6.607
 5768POPC   C3A72941  42.993   9.788   7.009
 5768POPC   C4A72942  42.936   9.621   7.427
 5768POPC   C1B72943  43.289   9.258   6.331
 5768POPC   C2B72944  43.369   9.165   6.777
 5768POPC   C3B72945  43.318   9.398   7.141
 5768POPC   C4B72946  43.453   9.617   7.519
 5769POPC   NC372947  16.252  12.619   5.468
 5769POPC   PO472948  15.578  12.433   5.500
 5769POPC   GL172949  15.765  12.735   5.804
 5769POPC   GL272950  16.054  12.555   5.923
 5769POPC   C1A72951  15.667  13.048   6.165
 5769POPC   D2A72952  15.874  13.174   6.558
 5769POPC   C3A72953  15.767  12.977   6.942
 5769POPC   C4A72954  15.706  13.044   7.361
 5769POPC   C1B72955  16.034  12.733   6.332
 5769POPC   C2B72956  16.198  12.746   6.758
 5769POPC   C3B72957  16.062  12.604   7.173
 5769POPC   C4B72958  16.325  12.526   7.552
 5770POPC   NC372959  27.024  11.555   4.984
 5770POPC   PO472960  26.691  11.236   5.466
 5770POPC   GL172961  26.675  11.237   5.898
 5770POPC   GL272962  26.652  11.597   5.849
 5770POPC   C1A72963  26.908  11.046   6.274
 5770POPC   D2A72964  27.101  10.962   6.700
 5770POPC   C3A72965  26.913  11.102   7.131
 5770POPC   C4A72966  27.056  11.200   7.571
 5770POPC   C1B72967  26.859  11.584   6.245
 5770POPC   C2B72968  26.818  11.397   6.644
 5770POPC   C3B72969  26.960  11.586   6.986
 5770POPC   C4B72970  26.803  11.621   7.378
 5771POPC   NC372971   7.179  12.567   5.426
 5771POPC   PO472972   7.653  13.048   5.396
 5771POPC   GL172973   7.488  12.955   5.788
 5771POPC   GL272974   7.551  12.608   5.795
 5771POPC   C1A72975   7.314  12.832   6.198
 5771POPC   D2A72976   7.499  12.787   6.608
 5771POPC   C3A72977   7.240  12.876   6.987
 5771POPC   C4A72978   6.913  12.631   7.192
 5771POPC   C1B72979   7.738  12.520   6.194
 5771POPC   C2B72980   7.816  12.363   6.616
 5771POPC   C3B72981   7.733  12.558   7.010
 5771POPC   C4B72982   7.576  12.766   7.348
 5772POPC   NC372983  29.339  40.903   5.491
 5772POPC   PO472984  28.937  40.422   5.345
 5772POPC   GL172985  29.021  40.624   5.790
 5772POPC   GL272986  29.353  40.535   5.865
 5772POPC   C1A72987  28.957  40.459   6.233
 5772POPC   D2A72988  28.981  40.540   6.693
 5772POPC   C3A72989  29.009  40.884   6.995
 5772POPC   C4A72990  29.013  40.846   7.429
 5772POPC   C1B72991  29.289  40.850   6.206
 5772POPC   C2B72992  29.414  40.876   6.644
 5772POPC   C3B72993  29.514  40.710   7.064
 5772POPC   C4B72994  29.485  40.994   7.417
 5773POPC   NC372995  40.879  21.053   5.506
 5773POPC   PO472996  40.570  21.713   5.314
 5773POPC   GL172997  40.608  21.575   5.799
 5773POPC   GL272998  40.549  21.194   5.885
 5773POPC   C1A72999  40.474  21.535   6.236
 5773POPC   D2A73000  40.330  21.365   6.610
 5773POPC   C3A73001  40.500  21.584   6.917
 5773POPC   C4A73002  40.776  21.641   7.254
 5773POPC   C1B73003  40.588  20.968   6.295
 5773POPC   C2B73004  40.487  20.885   6.707
 5773POPC   C3B73005  40.656  21.038   7.109
 5773POPC   C4B73006  40.703  21.069   7.557
 5774POPC   NC373007   5.642   8.671   5.344
 5774POPC   PO473008   6.065   9.329   5.341
 5774POPC   GL173009   5.996   8.985   5.732
 5774POPC   GL273010   5.722   8.727   5.835
 5774POPC   C1A73011   5.959   8.951   6.228
 5774POPC   D2A73012   5.782   9.041   6.656
 5774POPC   C3A73013   6.025   9.054   7.044
 5774POPC   C4A73014   6.023   9.082   7.502
 5774POPC   C1B73015   5.484   8.710   6.209
 5774POPC   C2B73016   5.495   8.591   6.630
 5774POPC   C3B73017   5.414   8.814   6.971
 5774POPC   C4B73018   5.583   8.831   7.347
 5775POPC   NC373019  16.405  20.925   5.428
 5775POPC   PO473020  17.041  20.606   5.347
 5775POPC   GL173021  16.767  20.655   5.698
 5775POPC   GL273022  16.721  20.325   5.806
 5775POPC   C1A73023  16.600  20.773   6.113
 5775POPC   D2A73024  16.448  20.659   6.516
 5775POPC   C3A73025  16.597  20.791   6.902
 5775POPC   C4A73026  16.514  20.631   7.287
 5775POPC   C1B73027  16.732  20.292   6.237
 5775POPC   C2B73028  16.919  20.487   6.608
 5775POPC   C3B73029  16.804  20.311   7.017
 5775POPC   C4B73030  16.867  20.337   7.480
 5776POPC   NC373031  16.196  11.069   5.289
 5776POPC   PO473032  15.608  11.456   5.374
 5776POPC   GL173033  15.713  11.314   5.799
 5776POPC   GL273034  16.080  11.213   5.812
 5776POPC   C1A73035  15.756  11.194   6.226
 5776POPC   D2A73036  15.662  11.019   6.625
 5776POPC   C3A73037  15.893  11.128   6.994
 5776POPC   C4A73038  15.632  11.209   7.336
 5776POPC   C1B73039  16.203  11.450   6.207
 5776POPC   C2B73040  16.001  11.490   6.605
 5776POPC   C3B73041  16.076  11.643   7.015
 5776POPC   C4B73042  16.077  11.439   7.401
 5777POPC   NC373043  12.681  17.697   5.332
 5777POPC   PO473044  13.063  17.259   5.579
 5777POPC   GL173045  12.984  17.634   5.829
 5777POPC   GL273046  12.608  17.736   5.844
 5777POPC   C1A73047  13.276  17.671   6.217
 5777POPC   D2A73048  13.408  17.397   6.595
 5777POPC   C3A73049  13.251  17.488   7.010
 5777POPC   C4A73050  13.088  17.620   7.388
 5777POPC   C1B73051  12.396  17.680   6.280
 5777POPC   C2B73052  12.399  17.709   6.762
 5777POPC   C3B73053  12.638  17.605   7.141
 5777POPC   C4B73054  12.675  17.326   7.498
 5778POPC   NC373055   6.985  35.338   5.314
 5778POPC   PO473056   6.354  35.472   5.512
 5778POPC   GL173057   6.507  35.408   5.898
 5778POPC   GL273058   6.823  35.329   5.816
 5778POPC   C1A73059   6.724  35.600   6.256
 5778POPC   D2A73060   6.978  35.536   6.654
 5778POPC   C3A73061   6.827  35.617   7.083
 5778POPC   C4A73062   6.527  35.392   7.346
 5778POPC   C1B73063   7.039  35.195   6.245
 5778POPC   C2B73064   7.088  34.989   6.635
 5778POPC   C3B73065   7.139  35.067   7.071
 5778POPC   C4B73066   6.993  35.287   7.474
 5779POPC   NC373067  34.983  40.892   5.176
 5779POPC   PO473068  34.401  41.119   5.414
 5779POPC   GL173069  34.591  40.963   5.759
 5779POPC   GL273070  34.938  41.034   5.720
 5779POPC   C1A73071  34.411  40.812   6.163
 5779POPC   D2A73072  34.569  40.637   6.549
 5779POPC   C3A73073  34.434  40.803   6.919
 5779POPC   C4A73074  34.256  40.577   7.253
 5779POPC   C1B73075  34.914  40.883   6.160
 5779POPC   C2B73076  35.008  40.879   6.598
 5779POPC   C3B73077  34.954  40.758   7.000
 5779POPC   C4B73078  34.745  40.617   7.319
 5780POPC   NC373079  31.330  24.986   5.634
 5780POPC   PO473080  31.218  24.348   5.459
 5780POPC   GL173081  31.523  24.275   5.807
 5780POPC   GL273082  31.620  24.617   5.897
 5780POPC   C1A73083  31.482  24.212   6.272
 5780POPC   D2A73084  31.419  24.386   6.719
 5780POPC   C3A73085  31.414  24.110   7.097
 5780POPC   C4A73086  31.151  24.187   7.477
 5780POPC   C1B73087  31.498  24.727   6.326
 5780POPC   C2B73088  31.591  24.888   6.760
 5780POPC   C3B73089  31.475  24.736   7.183
 5780POPC   C4B73090  31.556  24.810   7.640
 5781POPC   NC373091  27.953   3.343   5.416
 5781POPC   PO473092  28.303   3.930   5.640
 5781POPC   GL173093  28.328   3.483   5.822
 5781POPC   GL273094  28.008   3.385   5.933
 5781POPC   C1A73095  28.417   3.246   6.247
 5781POPC   D2A73096  28.538   3.441   6.662
 5781POPC   C3A73097  28.676   3.246   7.071
 5781POPC   C4A73098  28.522   3.271   7.487
 5781POPC   C1B73099  28.137   3.682   6.264
 5781POPC   C2B73100  28.165   3.824   6.694
 5781POPC   C3B73101  28.277   3.638   7.116
 5781POPC   C4B73102  28.035   3.350   7.368
 5782POPC   NC373103  11.522  35.177   5.507
 5782POPC   PO473104  11.355  35.864   5.439
 5782POPC   GL173105  11.343  35.607   5.808
 5782POPC   GL273106  11.088  35.348   5.761
 5782POPC   C1A73107  11.403  35.332   6.189
 5782POPC   D2A73108  11.474  35.001   6.524
 5782POPC   C3A73109  11.378  35.239   6.884
 5782POPC   C4A73110  11.401  35.234   7.324
 5782POPC   C1B73111  10.861  35.347   6.155
 5782POPC   C2B73112  10.994  35.220   6.553
 5782POPC   C3B73113  10.873  35.111   6.974
 5782POPC   C4B73114  10.874  35.352   7.355
 5783POPC   NC373115  38.995  11.974   5.077
 5783POPC   PO473116  39.350  12.292   5.564
 5783POPC   GL173117  39.207  12.247   5.946
 5783POPC   GL273118  39.110  11.944   5.893
 5783POPC   C1A73119  39.167  12.177   6.374
 5783POPC   D2A73120  38.988  11.928   6.649
 5783POPC   C3A73121  38.867  12.229   6.943
 5783POPC   C4A73122  38.871  12.046   7.320
 5783POPC   C1B73123  39.530  11.889   6.174
 5783POPC   C2B73124  39.561  11.904   6.613
 5783POPC   C3B73125  39.336  12.013   7.004
 5783POPC   C4B73126  39.482  11.866   7.390
 5784POPC   NC373127   4.498  32.071   5.163
 5784POPC   PO473128   4.316  32.703   5.334
 5784POPC   GL173129   4.214  32.368   5.657
 5784POPC   GL273130   4.483  32.135   5.684
 5784POPC   C1A73131   4.189  32.437   6.125
 5784POPC   D2A73132   4.332  32.281   6.527
 5784POPC   C3A73133   4.403  32.406   6.991
 5784POPC   C4A73134   4.225  32.699   7.279
 5784POPC   C1B73135   4.402  31.960   6.084
 5784POPC   C2B73136   4.334  31.748   6.449
 5784POPC   C3B73137   4.389  31.905   6.848
 5784POPC   C4B73138   4.685  31.916   7.162
 5785POPC   NC373139  17.862   5.765   5.152
 5785POPC   PO473140  18.443   6.047   5.347
 5785POPC   GL173141  18.427   5.880   5.743
 5785POPC   GL273142  18.079   5.842   5.673
 5785POPC   C1A73143  18.532   5.837   6.183
 5785POPC   D2A73144  18.590   5.612   6.570
 5785POPC   C3A73145  18.555   5.836   6.949
 5785POPC   C4A73146  18.594   5.687   7.351
 5785POPC   C1B73147  18.033   6.011   6.109
 5785POPC   C2B73148  18.189   5.962   6.546
 5785POPC   C3B73149  18.014   6.025   6.937
 5785POPC   C4B73150  18.118   5.902   7.343
 5786POPC   NC373151  28.165   9.802   5.357
 5786POPC   PO473152  28.609  10.166   5.637
 5786POPC   GL173153  28.479   9.895   5.935
 5786POPC   GL273154  28.109   9.913   5.899
 5786POPC   C1A73155  28.458   9.801   6.374
 5786POPC   D2A73156  28.242   9.918   6.760
 5786POPC   C3A73157  28.542   9.836   7.088
 5786POPC   C4A73158  28.549   9.720   7.524
 5786POPC   C1B73159  28.049   9.551   6.201
 5786POPC   C2B73160  28.119   9.409   6.635
 5786POPC   C3B73161  28.105   9.527   7.078
 5786POPC   C4B73162  28.058   9.479   7.521
 5787POPC   NC373163  38.176  41.690   5.365
 5787POPC   PO473164  38.737  41.567   5.528
 5787POPC   GL173165  38.485  41.658   5.870
 5787POPC   GL273166  38.243  41.398   5.792
 5787POPC   C1A73167  38.682  41.748   6.288
 5787POPC   D2A73168  38.853  41.797   6.719
 5787POPC   C3A73169  38.511  41.742   6.999
 5787POPC   C4A73170  38.456  41.298   7.068
 5787POPC   C1B73171  38.120  41.418   6.194
 5787POPC   C2B73172  38.250  41.561   6.582
 5787POPC   C3B73173  38.016  41.539   6.940
 5787POPC   C4B73174  37.978  41.847   7.248
 5788POPC   NC373175  16.291  36.628   5.490
 5788POPC   PO473176  15.690  36.844   5.196
 5788POPC   GL173177  15.773  36.910   5.656
 5788POPC   GL273178  15.517  36.709   5.791
 5788POPC   C1A73179  16.008  36.772   6.081
 5788POPC   D2A73180  16.264  36.589   6.457
 5788POPC   C3A73181  16.144  36.762   6.875
 5788POPC   C4A73182  16.144  37.049   7.223
 5788POPC   C1B73183  15.560  37.016   6.135
 5788POPC   C2B73184  15.735  36.994   6.538
 5788POPC   C3B73185  15.761  37.165   6.927
 5788POPC   C4B73186  15.598  37.306   7.299
 5789POPC   NC373187  42.342  30.548   5.229
 5789POPC   PO473188  42.753  31.090   5.413
 5789POPC   GL173189  42.405  30.842   5.681
 5789POPC   GL273190  42.376  30.443   5.729
 5789POPC   C1A73191  42.186  30.736   6.087
 5789POPC   D2A73192  42.378  30.648   6.475
 5789POPC   C3A73193  42.190  30.628   6.882
 5789POPC   C4A73194  42.330  30.677   7.305
 5789POPC   C1B73195  42.220  30.200   6.122
 5789POPC   C2B73196  42.096  30.219   6.561
 5789POPC   C3B73197  42.113  30.138   6.996
 5789POPC   C4B73198  41.928  30.371   7.307
 5790POPC   NC373199  12.319  26.859   5.290
 5790POPC   PO473200  11.729  26.811   5.587
 5790POPC   GL173201  12.105  27.049   5.765
 5790POPC   GL273202  12.482  26.972   5.778
 5790POPC   C1A73203  11.974  27.209   6.157
 5790POPC   D2A73204  11.711  27.112   6.503
 5790POPC   C3A73205  11.897  27.023   6.902
 5790POPC   C4A73206  11.790  26.690   7.205
 5790POPC   C1B73207  12.343  26.851   6.211
 5790POPC   C2B73208  12.303  26.689   6.641
 5790POPC   C3B73209  12.271  26.718   7.087
 5790POPC   C4B73210  12.322  27.049   7.349
 5791POPC   NC373211  43.554  28.329   5.605
 5791POPC   PO473212  42.982  27.971   5.402
 5791POPC   GL173213  43.044  28.103   5.846
 5791POPC   GL273214  43.118  28.470   5.924
 5791POPC   C1A73215  43.105  28.082   6.310
 5791POPC   D2A73216  43.103  28.318   6.710
 5791POPC   C3A73217  43.109  28.160   7.124
 5791POPC   C4A73218  43.445  28.127   7.362
 5791POPC   C1B73219  42.834  28.562   6.299
 5791POPC   C2B73220  42.838  28.742   6.741
 5791POPC   C3B73221  42.882  28.607   7.172
 5791POPC   C4B73222  42.917  28.823   7.574
 5792POPC   NC373223  35.753   6.331   5.196
 5792POPC   PO473224  36.340   6.518   5.570
 5792POPC   GL173225  36.107   6.656   5.920
 5792POPC   GL273226  35.941   6.992   5.898
 5792POPC   C1A73227  36.154   6.430   6.305
 5792POPC   D2A73228  36.337   6.549   6.674
 5792POPC   C3A73229  36.135   6.492   7.053
 5792POPC   C4A73230  36.407   6.284   7.327
 5792POPC   C1B73231  36.045   6.929   6.368
 5792POPC   C2B73232  35.885   6.989   6.805
 5792POPC   C3B73233  35.955   6.937   7.267
 5792POPC   C4B73234  35.807   6.910   7.744
 5793POPC   NC373235  24.582  17.931   4.963
 5793POPC   PO473236  24.766  18.372   5.397
 5793POPC   GL173237  24.573  18.154   5.725
 5793POPC   GL273238  24.313  18.373   5.918
 5793POPC   C1A73239  24.633  18.068   6.159
 5793POPC   D2A73240  24.506  18.348   6.499
 5793POPC   C3A73241  24.550  18.227   6.929
 5793POPC   C4A73242  24.533  18.342   7.349
 5793POPC   C1B73243  24.134  18.096   6.270
 5793POPC   C2B73244  24.144  18.038   6.702
 5793POPC   C3B73245  23.998  17.962   7.129
 5793POPC   C4B73246  24.116  18.110   7.547
 5794POPC   NC373247  31.469   2.958   5.439
 5794POPC   PO473248  31.193   2.289   5.394
 5794POPC   GL173249  31.364   2.527   5.758
 5794POPC   GL273250  31.719   2.620   5.755
 5794POPC   C1A73251  31.406   2.760   6.170
 5794POPC   D2A73252  31.283   2.950   6.602
 5794POPC   C3A73253  31.403   2.772   7.029
 5794POPC   C4A73254  31.664   3.020   7.322
 5794POPC   C1B73255  31.934   2.591   6.158
 5794POPC   C2B73256  31.734   2.686   6.540
 5794POPC   C3B73257  31.875   2.844   6.880
 5794POPC   C4B73258  32.032   2.699   7.205
 5795POPC   NC373259   3.736  30.265   5.370
 5795POPC   PO473260   3.141  29.849   5.234
 5795POPC   GL173261   3.256  30.063   5.638
 5795POPC   GL273262   3.615  30.023   5.808
 5795POPC   C1A73263   3.196  30.179   6.075
 5795POPC   D2A73264   3.052  30.076   6.506
 5795POPC   C3A73265   3.320  30.099   6.903
 5795POPC   C4A73266   3.446  30.086   7.352
 5795POPC   C1B73267   3.543  29.792   6.195
 5795POPC   C2B73268   3.660  29.787   6.631
 5795POPC   C3B73269   3.604  29.694   7.063
 5795POPC   C4B73270   3.865  29.817   7.433
 5796POPC   NC373271  38.549  22.571   5.462
 5796POPC   PO473272  38.272  21.925   5.393
 5796POPC   GL173273  38.589  22.074   5.688
 5796POPC   GL273274  38.393  22.303   5.870
 5796POPC   C1A73275  38.657  21.957   6.130
 5796POPC   D2A73276  38.443  22.101   6.514
 5796POPC   C3A73277  38.604  21.885   6.884
 5796POPC   C4A73278  38.678  22.121   7.248
 5796POPC   C1B73279  38.409  22.561   6.234
 5796POPC   C2B73280  38.189  22.615   6.629
 5796POPC   C3B73281  38.331  22.360   6.966
 5796POPC   C4B73282  38.308  22.464   7.413
 5797POPC   NC373283  28.537  14.606   5.441
 5797POPC   PO473284  28.106  14.073   5.496
 5797POPC   GL173285  28.385  14.275   5.804
 5797POPC   GL273286  28.708  14.161   5.880
 5797POPC   C1A73287  28.460  14.562   6.163
 5797POPC   D2A73288  28.352  14.419   6.585
 5797POPC   C3A73289  28.454  14.569   6.990
 5797POPC   C4A73290  28.402  14.405   7.374
 5797POPC   C1B73291  28.697  13.928   6.254
 5797POPC   C2B73292  28.690  14.047   6.676
 5797POPC   C3B73293  28.386  14.048   6.965
 5797POPC   C4B73294  28.577  13.946   7.312
 5798POPC   NC373295  13.337  20.975   5.338
 5798POPC   PO473296  13.676  21.559   5.244
 5798POPC   GL173297  13.492  21.324   5.676
 5798POPC   GL273298  13.597  21.073   5.917
 5798POPC   C1A73299  13.361  21.450   6.143
 5798POPC   D2A73300  13.433  21.842   6.411
 5798POPC   C3A73301  13.567  21.665   6.789
 5798POPC   C4A73302  13.258  21.586   7.096
 5798POPC   C1B73303  13.860  21.308   6.233
 5798POPC   C2B73304  13.852  21.228   6.684
 5798POPC   C3B73305  13.594  21.188   7.042
 5798POPC   C4B73306  13.625  21.383   7.436
 5799POPC   NC373307  14.957   7.532   5.569
 5799POPC   PO473308  14.187   7.387   5.494
 5799POPC   GL173309  14.293   7.596   5.898
 5799POPC   GL273310  14.649   7.626   5.976
 5799POPC   C1A73311  14.312   7.523   6.359
 5799POPC   D2A73312  14.358   7.669   6.761
 5799POPC   C3A73313  14.134   7.641   7.108
 5799POPC   C4A73314  13.981   7.276   7.140
 5799POPC   C1B73315  14.705   7.207   6.181
 5799POPC   C2B73316  14.858   6.994   6.616
 5799POPC   C3B73317  14.752   7.021   7.039
 5799POPC   C4B73318  14.593   7.408   7.143
 5800POPC   NC373319  13.288   2.662   5.483
 5800POPC   PO473320  13.889   2.950   5.274
 5800POPC   GL173321  13.739   2.810   5.706
 5800POPC   GL273322  13.735   2.431   5.744
 5800POPC   C1A73323  13.621   2.724   6.170
 5800POPC   D2A73324  13.921   2.675   6.542
 5800POPC   C3A73325  13.755   2.866   6.927
 5800POPC   C4A73326  13.395   3.038   7.151
 5800POPC   C1B73327  13.712   2.227   6.164
 5800POPC   C2B73328  13.406   2.235   6.525
 5800POPC   C3B73329  13.447   2.417   6.954
 5800POPC   C4B73330  13.508   2.487   7.409
 5801POPC   NC373331   3.300  38.491   5.280
 5801POPC   PO473332   2.675  38.631   5.375
 5801POPC   GL173333   2.696  38.671   5.801
 5801POPC   GL273334   3.007  38.854   5.874
 5801POPC   C1A73335   2.454  38.494   6.144
 5801POPC   D2A73336   2.451  38.622   6.563
 5801POPC   C3A73337   2.728  38.380   6.805
 5801POPC   C4A73338   2.587  38.249   7.175
 5801POPC   C1B73339   2.892  38.758   6.302
 5801POPC   C2B73340   2.877  38.874   6.737
 5801POPC   C3B73341   2.832  38.757   7.150
 5801POPC   C4B73342   3.059  38.420   7.247
 5802POPC   NC373343  36.522  28.170   5.389
 5802POPC   PO473344  35.933  28.621   5.424
 5802POPC   GL173345  36.048  28.419   5.776
 5802POPC   GL273346  36.376  28.484   5.778
 5802POPC   C1A73347  35.979  28.493   6.226
 5802POPC   D2A73348  35.812  28.291   6.610
 5802POPC   C3A73349  35.915  28.518   6.978
 5802POPC   C4A73350  36.111  28.163   7.116
 5802POPC   C1B73351  36.507  28.567   6.205
 5802POPC   C2B73352  36.331  28.556   6.648
 5802POPC   C3B73353  36.429  28.582   7.091
 5802POPC   C4B73354  36.590  28.210   7.342
 5803POPC   NC373355   6.677  44.268   5.621
 5803POPC   PO473356   6.705  43.600   5.346
 5803POPC   GL173357   6.617  43.728   5.760
 5803POPC   GL273358   6.910  43.543   5.887
 5803POPC   C1A73359   6.625  43.905   6.203
 5803POPC   D2A73360   6.545  43.812   6.657
 5803POPC   C3A73361   6.635  44.085   7.024
 5803POPC   C4A73362   6.627  43.920   7.425
 5803POPC   C1B73363   7.110  43.738   6.257
 5803POPC   C2B73364   7.079  43.773   6.694
 5803POPC   C3B73365   6.887  43.643   7.050
 5803POPC   C4B73366   6.990  43.522   7.480
 5804POPC   NC373367  30.813   1.600   5.252
 5804POPC   PO473368  30.858   0.985   5.228
 5804POPC   GL173369  30.705   1.012   5.740
 5804POPC   GL273370  30.664   1.339   5.809
 5804POPC   C1A73371  30.609   0.982   6.202
 5804POPC   D2A73372  30.392   1.202   6.548
 5804POPC   C3A73373  30.588   1.177   6.956
 5804POPC   C4A73374  30.493   0.874   7.228
 5804POPC   C1B73375  30.805   1.454   6.235
 5804POPC   C2B73376  30.676   1.614   6.632
 5804POPC   C3B73377  30.440   1.648   7.009
 5804POPC   C4B73378  30.652   1.673   7.412
 5805POPC   NC373379  18.383  12.427   5.483
 5805POPC   PO473380  18.236  13.140   5.389
 5805POPC   GL173381  18.237  12.887   5.714
 5805POPC   GL273382  18.581  12.826   5.711
 5805POPC   C1A73383  18.368  12.972   6.145
 5805POPC   D2A73384  18.293  13.067   6.552
 5805POPC   C3A73385  18.512  13.034   6.915
 5805POPC   C4A73386  18.451  12.779   7.280
 5805POPC   C1B73387  18.724  12.613   6.090
 5805POPC   C2B73388  18.719  12.730   6.524
 5805POPC   C3B73389  18.781  12.561   6.924
 5805POPC   C4B73390  18.573  12.293   7.208
 5806POPC   NC373391  33.826  22.115   5.330
 5806POPC   PO473392  34.338  21.808   5.546
 5806POPC   GL173393  34.102  22.163   5.826
 5806POPC   GL273394  33.734  22.265   5.794
 5806POPC   C1A73395  33.905  22.197   6.277
 5806POPC   D2A73396  33.680  21.991   6.619
 5806POPC   C3A73397  33.925  21.955   7.001
 5806POPC   C4A73398  34.021  22.291   7.288
 5806POPC   C1B73399  33.473  22.441   6.082
 5806POPC   C2B73400  33.387  22.443   6.503
 5806POPC   C3B73401  33.266  22.447   6.923
 5806POPC   C4B73402  33.525  22.207   7.196
 5807POPC   NC373403  15.074   5.570   5.521
 5807POPC   PO473404  15.375   6.258   5.458
 5807POPC   GL173405  15.116   6.029   5.839
 5807POPC   GL273406  14.918   5.683   5.973
 5807POPC   C1A73407  15.105   5.968   6.323
 5807POPC   D2A73408  15.221   5.763   6.696
 5807POPC   C3A73409  15.116   6.049   6.998
 5807POPC   C4A73410  15.336   5.974   7.316
 5807POPC   C1B73411  15.219   5.445   6.269
 5807POPC   C2B73412  15.148   5.242   6.693
 5807POPC   C3B73413  15.038   5.398   7.097
 5807POPC   C4B73414  15.278   5.501   7.462
 5808POPC   NC373415  20.620  13.301   5.279
 5808POPC   PO473416  20.470  12.615   5.368
 5808POPC   GL173417  20.653  12.859   5.769
 5808POPC   GL273418  20.378  12.914   6.021
 5808POPC   C1A73419  20.844  13.041   6.195
 5808POPC   D2A73420  21.167  12.934   6.516
 5808POPC   C3A73421  21.008  13.008   6.903
 5808POPC   C4A73422  20.859  13.172   7.259
 5808POPC   C1B73423  20.606  12.588   6.233
 5808POPC   C2B73424  20.693  12.709   6.641
 5808POPC   C3B73425  20.494  12.911   6.988
 5808POPC   C4B73426  20.105  13.129   7.056
 5809POPC   NC373427  35.541  10.282   5.562
 5809POPC   PO473428  35.607   9.661   5.152
 5809POPC   GL173429  35.533   9.599   5.631
 5809POPC   GL273430  35.416   9.872   5.799
 5809POPC   C1A73431  35.253   9.467   6.026
 5809POPC   D2A73432  35.381   9.537   6.495
 5809POPC   C3A73433  35.357   9.570   6.967
 5809POPC   C4A73434  35.025   9.749   7.288
 5809POPC   C1B73435  35.286  10.063   6.183
 5809POPC   C2B73436  35.163  10.022   6.586
 5809POPC   C3B73437  35.282  10.073   6.972
 5809POPC   C4B73438  35.288  10.290   7.301
 5810POPC   NC373439  35.165  35.078   4.999
 5810POPC   PO473440  35.290  35.554   5.448
 5810POPC   GL173441  35.286  35.322   5.862
 5810POPC   GL273442  35.041  35.048   5.949
 5810POPC   C1A73443  35.204  35.405   6.304
 5810POPC   D2A73444  35.468  35.383   6.687
 5810POPC   C3A73445  35.434  35.706   7.013
 5810POPC   C4A73446  35.204  35.695   7.399
 5810POPC   C1B73447  35.391  34.895   6.185
 5810POPC   C2B73448  35.390  34.749   6.603
 5810POPC   C3B73449  35.437  34.958   6.997
 5810POPC   C4B73450  35.515  35.204   7.360
 5811POPC   NC373451  17.742  19.719   5.532
 5811POPC   PO473452  17.122  19.939   5.378
 5811POPC   GL173453  17.333  19.875   5.809
 5811POPC   GL273454  17.606  20.096   5.868
 5811POPC   C1A73455  17.534  19.755   6.252
 5811POPC   D2A73456  17.771  19.923   6.647
 5811POPC   C3A73457  17.760  19.670   7.055
 5811POPC   C4A73458  17.521  19.662   7.475
 5811POPC   C1B73459  17.323  20.216   6.229
 5811POPC   C2B73460  17.279  20.135   6.676
 5811POPC   C3B73461  17.318  20.324   7.105
 5811POPC   C4B73462  17.336  20.136   7.537
 5812POPC   NC373463  35.885  25.651   5.851
 5812POPC   PO473464  35.749  26.233   5.559
 5812POPC   GL173465  36.084  26.189   5.913
 5812POPC   GL273466  36.468  26.260   5.838
 5812POPC   C1A73467  36.067  26.091   6.375
 5812POPC   D2A73468  36.020  25.812   6.763
 5812POPC   C3A73469  36.260  25.978   7.121
 5812POPC   C4A73470  36.313  25.958   7.601
 5812POPC   C1B73471  36.380  26.536   6.179
 5812POPC   C2B73472  36.329  26.504   6.609
 5812POPC   C3B73473  36.554  26.344   6.929
 5812POPC   C4B73474  36.575  26.317   7.353
 5813POPC   NC373475  17.680   2.921   5.369
 5813POPC   PO473476  17.244   2.425   5.403
 5813POPC   GL173477  17.408   2.662   5.763
 5813POPC   GL273478  17.375   3.036   5.807
 5813POPC   C1A73479  17.521   2.488   6.154
 5813POPC   D2A73480  17.409   2.361   6.541
 5813POPC   C3A73481  17.649   2.492   6.864
 5813POPC   C4A73482  17.632   2.411   7.258
 5813POPC   C1B73483  17.598   2.996   6.222
 5813POPC   C2B73484  17.723   2.958   6.672
 5813POPC   C3B73485  17.459   3.000   7.060
 5813POPC   C4B73486  17.558   3.006   7.532
 5814POPC   NC373487  20.143   3.538   5.592
 5814POPC   PO473488  20.876   3.700   5.401
 5814POPC   GL173489  20.645   3.692   5.740
 5814POPC   GL273490  20.649   3.346   5.790
 5814POPC   C1A73491  20.797   3.654   6.172
 5814POPC   D2A73492  20.587   3.642   6.581
 5814POPC   C3A73493  20.796   3.616   6.973
 5814POPC   C4A73494  20.783   3.905   7.263
 5814POPC   C1B73495  20.391   3.336   6.170
 5814POPC   C2B73496  20.387   3.164   6.588
 5814POPC   C3B73497  20.402   3.317   7.003
 5814POPC   C4B73498  20.644   3.119   7.326
 5815POPC   NC373499   4.768  12.038   5.424
 5815POPC   PO473500   4.153  12.203   5.422
 5815POPC   GL173501   4.265  12.202   5.829
 5815POPC   GL273502   4.506  11.915   5.859
 5815POPC   C1A73503   4.186  12.083   6.251
 5815POPC   D2A73504   4.334  12.062   6.667
 5815POPC   C3A73505   4.091  12.156   7.046
 5815POPC   C4A73506   4.352  12.207   7.403
 5815POPC   C1B73507   4.633  11.665   6.232
 5815POPC   C2B73508   4.596  11.606   6.700
 5815POPC   C3B73509   4.644  11.907   7.069
 5815POPC   C4B73510   4.628  11.803   7.536
 5816POPC   NC373511  42.113   2.636   5.432
 5816POPC   PO473512  42.740   2.979   5.306
 5816POPC   GL173513  42.648   2.753   5.706
 5816POPC   GL273514  42.321   2.841   5.829
 5816POPC   C1A73515  42.729   2.770   6.166
 5816POPC   D2A73516  42.617   2.913   6.583
 5816POPC   C3A73517  42.299   3.001   6.871
 5816POPC   C4A73518  42.569   2.946   7.216
 5816POPC   C1B73519  42.170   2.710   6.229
 5816POPC   C2B73520  42.219   2.519   6.626
 5816POPC   C3B73521  42.442   2.507   7.007
 5816POPC   C4B73522  42.219   2.590   7.399
 5817POPC   NC373523   1.992   8.833   5.376
 5817POPC   PO473524   1.827   9.463   5.373
 5817POPC   GL173525   1.910   9.175   5.768
 5817POPC   GL273526   1.900   8.797   5.864
 5817POPC   C1A73527   2.161   9.121   6.177
 5817POPC   D2A73528   2.017   8.890   6.554
 5817POPC   C3A73529   2.154   9.094   6.960
 5817POPC   C4A73530   1.959   8.998   7.347
 5817POPC   C1B73531   1.768   8.442   6.118
 5817POPC   C2B73532   1.788   8.418   6.578
 5817POPC   C3B73533   1.721   8.704   6.945
 5817POPC   C4B73534   1.521   8.688   7.351
 5818POPC   NC373535   2.045   0.908   5.512
 5818POPC   PO473536   1.640   1.431   5.389
 5818POPC   GL173537   1.688   1.315   5.805
 5818POPC   GL273538   1.429   1.571   5.877
 5818POPC   C1A73539   2.018   1.183   6.144
 5818POPC   D2A73540   2.023   0.880   6.504
 5818POPC   C3A73541   2.009   1.032   6.951
 5818POPC   C4A73542   2.064   0.991   7.423
 5818POPC   C1B73543   1.656   1.536   6.260
 5818POPC   C2B73544   1.892   1.406   6.602
 5818POPC   C3B73545   1.823   1.568   6.989
 5818POPC   C4B73546   1.683   1.282   7.244
 5819POPC   NC373547  15.402  13.023   5.567
 5819POPC   PO473548  14.793  12.771   5.367
 5819POPC   GL173549  14.980  12.833   5.804
 5819POPC   GL273550  15.239  12.601   5.844
 5819POPC   C1A73551  15.125  12.939   6.240
 5819POPC   D2A73552  14.953  12.831   6.654
 5819POPC   C3A73553  15.214  12.872   7.026
 5819POPC   C4A73554  15.174  13.053   7.423
 5819POPC   C1B73555  15.502  12.574   6.203
 5819POPC   C2B73556  15.480  12.719   6.613
 5819POPC   C3B73557  15.541  12.487   7.034
 5819POPC   C4B73558  15.371  12.591   7.432
 5820POPC   NC373559   3.842  41.449   5.515
 5820POPC   PO473560   3.295  41.758   5.505
 5820POPC   GL173561   3.409  41.543   5.893
 5820POPC   GL273562   3.720  41.495   5.996
 5820POPC   C1A73563   3.310  41.508   6.345
 5820POPC   D2A73564   3.269  41.819   6.656
 5820POPC   C3A73565   3.363  41.610   7.013
 5820POPC   C4A73566   3.264  41.206   7.120
 5820POPC   C1B73567   3.968  41.385   6.338
 5820POPC   C2B73568   3.893  41.481   6.782
 5820POPC   C3B73569   3.770  41.267   7.165
 5820POPC   C4B73570   3.952  41.347   7.589
 5821POPC   NC373571  41.229  40.640   5.643
 5821POPC   PO473572  41.557  41.149   5.465
 5821POPC   GL173573  41.733  41.005   5.858
 5821POPC   GL273574  41.682  40.639   5.885
 5821POPC   C1A73575  41.666  40.916   6.305
 5821POPC   D2A73576  41.346  40.938   6.628
 5821POPC   C3A73577  41.512  41.108   7.006
 5821POPC   C4A73578  41.816  40.937   7.200
 5821POPC   C1B73579  41.395  40.454   6.219
 5821POPC   C2B73580  41.301  40.379   6.616
 5821POPC   C3B73581  41.534  40.555   6.940
 5821POPC   C4B73582  41.351  40.711   7.308
 5822POPC   NC373583  40.212  35.896   5.341
 5822POPC   PO473584  39.547  35.939   5.146
 5822POPC   GL173585  39.798  36.155   5.634
 5822POPC   GL273586  40.161  36.301   5.704
 5822POPC   C1A73587  39.939  36.026   6.125
 5822POPC   D2A73588  39.929  36.160   6.587
 5822POPC   C3A73589  39.970  35.942   6.994
 5822POPC   C4A73590  39.669  35.998   7.339
 5822POPC   C1B73591  40.030  36.529   6.110
 5822POPC   C2B73592  40.159  36.619   6.551
 5822POPC   C3B73593  39.921  36.633   6.923
 5822POPC   C4B73594  39.890  36.439   7.323
 5823POPC   NC373595  32.565  28.077   5.044
 5823POPC   PO473596  32.256  27.585   5.355
 5823POPC   GL173597  32.183  27.414   5.746
 5823POPC   GL273598  31.885  27.557   5.797
 5823POPC   C1A73599  32.288  27.570   6.171
 5823POPC   D2A73600  32.546  27.556   6.549
 5823POPC   C3A73601  32.293  27.675   6.889
 5823POPC   C4A73602  32.285  27.507   7.305
 5823POPC   C1B73603  31.791  27.398   6.210
 5823POPC   C2B73604  31.771  27.599   6.616
 5823POPC   C3B73605  31.830  27.548   7.053
 5823POPC   C4B73606  31.934  27.851   7.360
 5824POPC   NC373607  44.421  13.184   5.508
 5824POPC   PO473608  44.992  13.520   5.480
 5824POPC   GL173609  44.730  13.682   5.820
 5824POPC   GL273610  44.340  13.662   5.787
 5824POPC   C1A73611  44.608  13.765   6.258
 5824POPC   D2A73612  44.336  13.816   6.624
 5824POPC   C3A73613  44.441  13.580   6.990
 5824POPC   C4A73614  44.775  13.502   7.324
 5824POPC   C1B73615  44.200  13.417   6.162
 5824POPC   C2B73616  44.362  13.256   6.587
 5824POPC   C3B73617  44.242  13.127   7.028
 5824POPC   C4B73618  44.415  13.102   7.440
 5825POPC   NC373619  25.724  16.994   5.535
 5825POPC   PO473620  25.290  16.582   5.291
 5825POPC   GL173621  25.374  16.623   5.729
 5825POPC   GL273622  25.665  16.401   5.802
 5825POPC   C1A73623  25.457  16.809   6.135
 5825POPC   D2A73624  25.366  17.065   6.501
 5825POPC   C3A73625  25.266  16.909   6.913
 5825POPC   C4A73626  25.420  17.049   7.282
 5825POPC   C1B73627  25.502  16.297   6.218
 5825POPC   C2B73628  25.356  16.518   6.586
 5825POPC   C3B73629  25.447  16.449   7.047
 5825POPC   C4B73630  25.141  16.620   7.346
 5826POPC   NC373631  12.458   1.398   5.266
 5826POPC   PO473632  12.028   1.003   5.545
 5826POPC   GL173633  12.085   1.309   5.828
 5826POPC   GL273634  12.390   1.498   5.762
 5826POPC   C1A73635  12.038   1.211   6.253
 5826POPC   D2A73636  12.248   1.039   6.605
 5826POPC   C3A73637  12.007   1.205   6.885
 5826POPC   C4A73638  12.009   1.209   7.296
 5826POPC   C1B73639  12.499   1.418   6.190
 5826POPC   C2B73640  12.394   1.552   6.596
 5826POPC   C3B73641  12.339   1.563   7.053
 5826POPC   C4B73642  12.286   1.591   7.496
 5827POPC   NC373643  40.173  16.482   5.487
 5827POPC   PO473644  39.665  16.980   5.287
 5827POPC   GL173645  39.890  16.882   5.702
 5827POPC   GL273646  39.830  16.560   5.873
 5827POPC   C1A73647  40.037  16.906   6.153
 5827POPC   D2A73648  39.953  16.675   6.515
 5827POPC   C3A73649  39.957  16.925   6.861
 5827POPC   C4A73650  40.023  16.809   7.248
 5827POPC   C1B73651  40.185  16.396   6.128
 5827POPC   C2B73652  40.277  16.272   6.544
 5827POPC   C3B73653  40.251  16.467   6.930
 5827POPC   C4B73654  40.321  16.179   7.226
 5828POPC   NC373655  41.518  17.707   5.483
 5828POPC   PO473656  41.837  17.120   5.516
 5828POPC   GL173657  41.715  17.389   5.837
 5828POPC   GL273658  41.378  17.355   5.833
 5828POPC   C1A73659  41.839  17.567   6.224
 5828POPC   D2A73660  41.705  17.428   6.612
 5828POPC   C3A73661  41.856  17.617   6.968
 5828POPC   C4A73662  41.697  17.790   7.352
 5828POPC   C1B73663  41.318  17.554   6.220
 5828POPC   C2B73664  41.181  17.376   6.612
 5828POPC   C3B73665  41.302  17.302   7.059
 5828POPC   C4B73666  41.281  17.515   7.474
 5829POPC   NC373667  31.123  22.391   5.387
 5829POPC   PO473668  31.690  22.143   5.230
 5829POPC   GL173669  31.596  22.236   5.714
 5829POPC   GL273670  31.238  22.239   5.850
 5829POPC   C1A73671  31.593  22.089   6.181
 5829POPC   D2A73672  31.412  21.878   6.571
 5829POPC   C3A73673  31.689  22.020   6.901
 5829POPC   C4A73674  31.655  22.182   7.311
 5829POPC   C1B73675  31.290  22.523   6.189
 5829POPC   C2B73676  31.446  22.408   6.588
 5829POPC   C3B73677  31.331  22.405   6.999
 5829POPC   C4B73678  31.115  22.723   7.249
 5830POPC   NC373679  15.116  23.212   5.592
 5830POPC   PO473680  15.225  23.729   5.256
 5830POPC   GL173681  15.234  23.710   5.701
 5830POPC   GL273682  15.523  23.454   5.765
 5830POPC   C1A73683  15.031  23.929   6.082
 5830POPC   D2A73684  15.035  24.116   6.508
 5830POPC   C3A73685  15.235  23.917   6.832
 5830POPC   C4A73686  15.184  23.947   7.209
 5830POPC   C1B73687  15.302  23.487   6.166
 5830POPC   C2B73688  15.050  23.575   6.518
 5830POPC   C3B73689  15.130  23.435   6.954
 5830POPC   C4B73690  15.459  23.530   7.250
 5831POPC   NC373691  44.692  31.994   5.470
 5831POPC   PO473692  44.524  32.619   5.307
 5831POPC   GL173693  44.593  32.452   5.704
 5831POPC   GL273694  44.954  32.440   5.656
 5831POPC   C1A73695  44.415  32.265   6.084
 5831POPC   D2A73696  44.419  32.405   6.512
 5831POPC   C3A73697  44.488  32.079   6.832
 5831POPC   C4A73698  44.450  32.218   7.223
 5831POPC   C1B73699  44.905  32.361   6.106
 5831POPC   C2B73700  44.846  32.141   6.481
 5831POPC   C3B73701   0.015  31.999   6.836
 5831POPC   C4B73702  44.999  32.192   7.232
 5832POPC   NC373703   9.004  25.861   5.348
 5832POPC   PO473704   9.357  26.392   5.227
 5832POPC   GL173705   9.279  26.261   5.723
 5832POPC   GL273706   8.967  26.346   5.908
 5832POPC   C1A73707   9.262  26.044   6.179
 5832POPC   D2A73708   9.176  26.309   6.571
 5832POPC   C3A73709   9.105  26.110   6.998
 5832POPC   C4A73710   8.817  25.792   7.144
 5832POPC   C1B73711   8.745  26.126   6.261
 5832POPC   C2B73712   8.680  26.081   6.706
 5832POPC   C3B73713   8.543  26.209   7.118
 5832POPC   C4B73714   8.802  26.215   7.503
 5833POPC   NC373715  43.244  42.351   5.072
 5833POPC   PO473716  42.974  42.805   5.560
 5833POPC   GL173717  43.016  42.516   5.849
 5833POPC   GL273718  43.067  42.203   5.651
 5833POPC   C1A73719  43.127  42.559   6.277
 5833POPC   D2A73720  43.414  42.346   6.543
 5833POPC   C3A73721  43.188  42.242   6.908
 5833POPC   C4A73722  42.992  42.521   7.163
 5833POPC   C1B73723  43.254  42.101   6.071
 5833POPC   C2B73724  43.077  41.954   6.481
 5833POPC   C3B73725  42.982  41.779   6.875
 5833POPC   C4B73726  42.953  42.002   7.318
 5834POPC   NC373727   9.451  12.813   5.608
 5834POPC   PO473728   9.971  12.487   5.488
 5834POPC   GL173729   9.811  12.457   5.889
 5834POPC   GL273730   9.457  12.422   5.945
 5834POPC   C1A73731   9.909  12.853   6.114
 5834POPC   D2A73732   9.814  13.051   6.487
 5834POPC   C3A73733   9.856  12.907   6.898
 5834POPC   C4A73734   9.667  13.156   7.226
 5834POPC   C1B73735   9.530  12.609   6.332
 5834POPC   C2B73736   9.374  12.824   6.678
 5834POPC   C3B73737   9.412  12.746   7.063
 5834POPC   C4B73738   9.683  12.461   7.178
 5835POPC   NC373739  40.392   4.760   5.485
 5835POPC   PO473740  40.145   4.068   5.553
 5835POPC   GL173741  40.276   4.426   5.889
 5835POPC   GL273742  40.032   4.723   5.978
 5835POPC   C1A73743  40.304   4.518   6.360
 5835POPC   D2A73744  40.041   4.465   6.745
 5835POPC   C3A73745  40.259   4.646   7.085
 5835POPC   C4A73746  40.482   4.450   7.448
 5835POPC   C1B73747  39.812   4.402   6.265
 5835POPC   C2B73748  39.568   4.243   6.589
 5835POPC   C3B73749  39.679   4.030   6.964
 5835POPC   C4B73750  39.880   4.307   7.227
 5836POPC   NC373751  12.657  42.288   5.501
 5836POPC   PO473752  13.313  42.229   5.358
 5836POPC   GL173753  13.099  42.211   5.780
 5836POPC   GL273754  12.939  42.562   5.833
 5836POPC   C1A73755  13.176  42.364   6.228
 5836POPC   D2A73756  13.003  42.473   6.649
 5836POPC   C3A73757  12.686  42.193   6.833
 5836POPC   C4A73758  12.539  42.135   7.256
 5836POPC   C1B73759  12.667  42.497   6.225
 5836POPC   C2B73760  12.533  42.683   6.656
 5836POPC   C3B73761  12.606  42.635   7.120
 5836POPC   C4B73762  12.486  42.537   7.575
 5837POPC   NC373763  15.117  24.170   5.305
 5837POPC   PO473764  15.433  24.733   5.538
 5837POPC   GL173765  15.358  24.399   5.748
 5837POPC   GL273766  15.011  24.401   5.757
 5837POPC   C1A73767  15.314  24.420   6.193
 5837POPC   D2A73768  15.218  24.601   6.575
 5837POPC   C3A73769  15.408  24.386   6.903
 5837POPC   C4A73770  15.291  24.435   7.316
 5837POPC   C1B73771  14.779  24.385   6.148
 5837POPC   C2B73772  14.717  24.549   6.576
 5837POPC   C3B73773  14.893  24.414   6.975
 5837POPC   C4B73774  14.782  24.184   7.357
 5838POPC   NC373775  28.720   9.020   5.511
 5838POPC   PO473776  28.117   9.335   5.379
 5838POPC   GL173777  28.152   9.161   5.833
 5838POPC   GL273778  28.119   8.805   5.914
 5838POPC   C1A73779  28.318   9.080   6.284
 5838POPC   D2A73780  28.668   9.051   6.588
 5838POPC   C3A73781  28.577   8.960   6.999
 5838POPC   C4A73782  28.492   9.262   7.305
 5838POPC   C1B73783  28.150   8.572   6.290
 5838POPC   C2B73784  28.294   8.640   6.694
 5838POPC   C3B73785  28.191   8.635   7.114
 5838POPC   C4B73786  28.058   8.974   7.352
 5839POPC   NC373787   5.354  18.420   5.565
 5839POPC   PO473788   4.953  17.940   5.517
 5839POPC   GL173789   5.018  18.180   5.901
 5839POPC   GL273790   4.853  18.503   5.870
 5839POPC   C1A73791   5.269  18.305   6.283
 5839POPC   D2A73792   5.252  18.206   6.726
 5839POPC   C3A73793   4.851  18.092   6.907
 5839POPC   C4A73794   4.785  18.051   7.346
 5839POPC   C1B73795   4.769  18.415   6.320
 5839POPC   C2B73796   4.875  18.594   6.738
 5839POPC   C3B73797   4.946  18.519   7.186
 5839POPC   C4B73798   4.830  18.830   7.487
 5840POPC   NC373799   4.202  37.396   5.392
 5840POPC   PO473800   3.976  37.999   5.357
 5840POPC   GL173801   3.993  37.696   5.754
 5840POPC   GL273802   4.354  37.568   5.870
 5840POPC   C1A73803   4.027  37.652   6.228
 5840POPC   D2A73804   4.369  37.585   6.539
 5840POPC   C3A73805   4.274  37.775   6.931
 5840POPC   C4A73806   3.993  37.650   7.234
 5840POPC   C1B73807   4.586  37.875   6.162
 5840POPC   C2B73808   4.801  37.912   6.541
 5840POPC   C3B73809   4.790  37.723   6.916
 5840POPC   C4B73810   4.640  37.829   7.284
 5841POPC   NC373811   6.035   2.348   5.201
 5841POPC   PO473812   5.439   2.500   5.431
 5841POPC   GL173813   5.701   2.176   5.661
 5841POPC   GL273814   5.437   2.230   5.907
 5841POPC   C1A73815   5.995   1.929   5.970
 5841POPC   D2A73816   6.084   1.957   6.461
 5841POPC   C3A73817   5.992   1.724   6.852
 5841POPC   C4A73818   6.054   1.882   7.293
 5841POPC   C1B73819   5.672   2.213   6.222
 5841POPC   C2B73820   5.613   2.076   6.615
 5841POPC   C3B73821   5.764   2.188   6.997
 5841POPC   C4B73822   5.598   2.070   7.409
 5842POPC   NC373823   9.005   5.374   5.478
 5842POPC   PO473824   8.833   6.034   5.342
 5842POPC   GL173825   8.854   5.935   5.803
 5842POPC   GL273826   8.722   5.609   5.899
 5842POPC   C1A73827   9.160   5.908   6.171
 5842POPC   D2A73828   9.255   5.748   6.604
 5842POPC   C3A73829   9.092   6.010   6.924
 5842POPC   C4A73830   8.972   5.890   7.338
 5842POPC   C1B73831   8.813   5.566   6.311
 5842POPC   C2B73832   8.716   5.899   6.557
 5842POPC   C3B73833   8.629   5.798   6.956
 5842POPC   C4B73834   8.682   5.482   7.213
 5843POPC   NC373835  41.878   9.519   5.476
 5843POPC   PO473836  41.311   9.749   5.175
 5843POPC   GL173837  41.387   9.848   5.693
 5843POPC   GL273838  41.709   9.726   5.912
 5843POPC   C1A73839  41.300   9.825   6.188
 5843POPC   D2A73840  41.622   9.839   6.530
 5843POPC   C3A73841  41.541   9.744   6.971
 5843POPC   C4A73842  41.198   9.642   7.225
 5843POPC   C1B73843  41.607   9.405   6.239
 5843POPC   C2B73844  41.392   9.374   6.613
 5843POPC   C3B73845  41.376   9.218   7.010
 5843POPC   C4B73846  41.666   9.250   7.308
 5844POPC   NC373847   0.864  40.328   5.513
 5844POPC   PO473848   0.139  40.255   5.529
 5844POPC   GL173849   0.343  40.104   5.883
 5844POPC   GL273850   0.459  39.748   5.803
 5844POPC   C1A73851   0.706  40.029   6.174
 5844POPC   D2A73852   0.798  39.783   6.560
 5844POPC   C3A73853   0.685  40.033   6.897
 5844POPC   C4A73854   0.422  40.131   7.188
 5844POPC   C1B73855   0.270  39.745   6.242
 5844POPC   C2B73856   0.213  39.975   6.649
 5844POPC   C3B73857   0.005  39.867   7.062
 5844POPC   C4B73858   0.232  39.733   7.443
 5845POPC   NC373859  37.985   0.898   5.421
 5845POPC   PO473860  38.458   1.344   5.588
 5845POPC   GL173861  38.222   1.294   5.908
 5845POPC   GL273862  38.335   0.948   5.954
 5845POPC   C1A73863  38.257   1.285   6.331
 5845POPC   D2A73864  38.377   1.074   6.701
 5845POPC   C3A73865  38.324   1.254   7.101
 5845POPC   C4A73866  38.529   1.506   7.415
 5845POPC   C1B73867  38.712   0.939   6.280
 5845POPC   C2B73868  38.816   0.823   6.748
 5845POPC   C3B73869  38.697   0.895   7.208
 5845POPC   C4B73870  38.892   0.881   7.637
 5846POPC   NC373871  22.266  29.827   5.394
 5846POPC   PO473872  21.964  30.329   5.343
 5846POPC   GL173873  22.113  30.140   5.780
 5846POPC   GL273874  22.446  29.980   5.836
 5846POPC   C1A73875  22.142  30.047   6.250
 5846POPC   D2A73876  21.961  29.801   6.601
 5846POPC   C3A73877  21.941  30.019   7.011
 5846POPC   C4A73878  22.058  29.816   7.386
 5846POPC   C1B73879  22.485  29.663   6.178
 5846POPC   C2B73880  22.539  29.836   6.606
 5846POPC   C3B73881  22.445  29.891   7.041
 5846POPC   C4B73882  22.339  30.233   7.338
 5847POPC   NC373883   6.708   1.611   5.276
 5847POPC   PO473884   6.204   1.099   5.467
 5847POPC   GL173885   6.403   1.282   5.833
 5847POPC   GL273886   6.395   1.607   5.798
 5847POPC   C1A73887   6.663   1.367   6.222
 5847POPC   D2A73888   6.781   1.067   6.469
 5847POPC   C3A73889   6.684   1.174   6.849
 5847POPC   C4A73890   6.743   1.146   7.232
 5847POPC   C1B73891   6.197   1.529   6.241
 5847POPC   C2B73892   6.451   1.615   6.661
 5847POPC   C3B73893   6.410   1.551   7.152
 5847POPC   C4B73894   6.325   1.603   7.646
 5848POPC   NC373895  27.902  28.402   5.174
 5848POPC   PO473896  27.604  27.955   5.541
 5848POPC   GL173897  27.445  28.255   5.799
 5848POPC   GL273898  27.772  28.386   5.920
 5848POPC   C1A73899  27.265  28.309   6.189
 5848POPC   D2A73900  27.196  28.087   6.571
 5848POPC   C3A73901  27.274  28.302   6.952
 5848POPC   C4A73902  27.488  28.228   7.291
 5848POPC   C1B73903  27.972  28.486   6.321
 5848POPC   C2B73904  27.960  28.294   6.746
 5848POPC   C3B73905  27.928  28.464   7.157
 5848POPC   C4B73906  28.012  28.670   7.561
 5849POPC   NC373907  44.499  28.008   5.554
 5849POPC   PO473908  43.935  28.175   5.391
 5849POPC   GL173909  44.142  28.298   5.800
 5849POPC   GL273910  43.974  28.604   5.853
 5849POPC   C1A73911  44.004  28.268   6.264
 5849POPC   D2A73912  43.579  28.247   6.501
 5849POPC   C3A73913  43.681  28.303   6.950
 5849POPC   C4A73914  44.075  28.129   7.170
 5849POPC   C1B73915  43.743  28.757   6.211
 5849POPC   C2B73916  43.861  28.656   6.599
 5849POPC   C3B73917  44.189  28.529   6.868
 5849POPC   C4B73918  44.269  28.722   7.257
 5850POPC   NC373919  31.122  15.373   5.091
 5850POPC   PO473920  30.634  14.937   5.352
 5850POPC   GL173921  30.533  14.994   5.776
 5850POPC   GL273922  30.877  15.059   5.851
 5850POPC   C1A73923  30.351  15.070   6.207
 5850POPC   D2A73924  30.278  14.896   6.661
 5850POPC   C3A73925  30.516  15.133   6.993
 5850POPC   C4A73926  30.610  15.342   7.422
 5850POPC   C1B73927  30.905  15.101   6.306
 5850POPC   C2B73928  31.010  15.239   6.727
 5850POPC   C3B73929  31.237  15.479   7.061
 5850POPC   C4B73930  31.157  15.406   7.514
 5851POPC   NC373931  43.569  29.830   5.087
 5851POPC   PO473932  43.951  30.168   5.567
 5851POPC   GL173933  43.801  29.905   5.882
 5851POPC   GL273934  43.534  30.088   6.026
 5851POPC   C1A73935  43.804  29.706   6.304
 5851POPC   D2A73936  43.694  29.706   6.743
 5851POPC   C3A73937  44.018  29.745   7.008
 5851POPC   C4A73938  44.126  29.973   7.345
 5851POPC   C1B73939  43.554  30.139   6.459
 5851POPC   C2B73940  43.472  30.156   6.867
 5851POPC   C3B73941  43.625  29.966   7.238
 5851POPC   C4B73942  43.676  30.224   7.572
 5852POPC   NC373943  43.058  39.747   5.449
 5852POPC   PO473944  43.569  40.078   5.739
 5852POPC   GL173945  43.208  39.849   5.939
 5852POPC   GL273946  42.837  39.751   5.902
 5852POPC   C1A73947  43.042  40.086   6.275
 5852POPC   D2A73948  43.259  40.211   6.673
 5852POPC   C3A73949  43.075  40.080   7.100
 5852POPC   C4A73950  43.366  39.915   7.421
 5852POPC   C1B73951  42.921  39.598   6.305
 5852POPC   C2B73952  42.898  39.760   6.698
 5852POPC   C3B73953  42.949  39.571   7.083
 5852POPC   C4B73954  42.875  39.747   7.472
 5853POPC   NC373955  35.127   8.335   5.263
 5853POPC   PO473956  35.735   8.070   5.375
 5853POPC   GL173957  35.556   8.215   5.755
 5853POPC   GL273958  35.256   8.454   5.738
 5853POPC   C1A73959  35.310   8.191   6.174
 5853POPC   D2A73960  35.144   8.345   6.568
 5853POPC   C3A73961  35.150   8.161   6.950
 5853POPC   C4A73962  35.477   8.193   7.230
 5853POPC   C1B73963  35.556   8.617   6.037
 5853POPC   C2B73964  35.592   8.556   6.462
 5853POPC   C3B73965  35.546   8.573   6.897
 5853POPC   C4B73966  35.867   8.803   7.118
 5854POPC   NC373967  39.852  17.404   5.268
 5854POPC   PO473968  40.392  17.718   5.361
 5854POPC   GL173969  40.178  17.600   5.730
 5854POPC   GL273970  39.860  17.738   5.675
 5854POPC   C1A73971  40.211  17.382   6.142
 5854POPC   D2A73972  40.014  17.363   6.539
 5854POPC   C3A73973  40.218  17.357   6.916
 5854POPC   C4A73974  39.955  17.339   7.241
 5854POPC   C1B73975  39.857  17.772   6.123
 5854POPC   C2B73976  39.728  17.899   6.526
 5854POPC   C3B73977  39.879  17.751   6.908
 5854POPC   C4B73978  39.728  17.783   7.327
 5855POPC   NC373979  22.743  16.620   5.391
 5855POPC   PO473980  23.301  16.840   5.590
 5855POPC   GL173981  22.983  16.687   5.878
 5855POPC   GL273982  22.684  16.454   5.865
 5855POPC   C1A73983  22.972  16.645   6.312
 5855POPC   D2A73984  23.185  16.517   6.655
 5855POPC   C3A73985  23.064  16.702   7.071
 5855POPC   C4A73986  23.140  16.950   7.496
 5855POPC   C1B73987  22.522  16.407   6.272
 5855POPC   C2B73988  22.698  16.344   6.690
 5855POPC   C3B73989  22.578  16.541   7.076
 5855POPC   C4B73990  22.731  16.651   7.484
 5856POPC   NC373991  29.280  29.157   5.413
 5856POPC   PO473992  28.618  29.152   5.417
 5856POPC   GL173993  28.853  29.007   5.832
 5856POPC   GL273994  29.262  28.984   5.888
 5856POPC   C1A73995  28.945  29.061   6.269
 5856POPC   D2A73996  29.036  29.447   6.484
 5856POPC   C3A73997  28.905  29.288   6.858
 5856POPC   C4A73998  29.119  29.301   7.258
 5856POPC   C1B73999  29.441  29.218   6.255
 5856POPC   C2B74000  29.359  29.095   6.687
 5856POPC   C3B74001  29.444  28.942   7.103
 5856POPC   C4B74002  29.484  29.064   7.558
 5857POPC   NC374003  30.681  16.945   5.424
 5857POPC   PO474004  30.459  16.371   5.658
 5857POPC   GL174005  30.617  16.684   5.875
 5857POPC   GL274006  30.369  16.912   5.819
 5857POPC   C1A74007  30.829  16.692   6.250
 5857POPC   D2A74008  30.923  16.926   6.628
 5857POPC   C3A74009  30.951  16.620   6.928
 5857POPC   C4A74010  30.874  16.758   7.319
 5857POPC   C1B74011  30.201  16.935   6.226
 5857POPC   C2B74012  30.424  16.775   6.560
 5857POPC   C3B74013  30.482  16.821   6.985
 5857POPC   C4B74014  30.371  16.882   7.415
 5858POPC   NC374015  19.068   2.262   5.297
 5858POPC   PO474016  19.239   1.619   5.435
 5858POPC   GL174017  19.078   1.963   5.721
 5858POPC   GL274018  19.323   2.246   5.735
 5858POPC   C1A74019  18.924   2.034   6.142
 5858POPC   D2A74020  19.112   1.881   6.546
 5858POPC   C3A74021  18.951   2.083   6.921
 5858POPC   C4A74022  18.960   1.928   7.322
 5858POPC   C1B74023  19.523   2.339   6.121
 5858POPC   C2B74024  19.473   2.248   6.534
 5858POPC   C3B74025  19.574   2.235   6.938
 5858POPC   C4B74026  19.375   2.245   7.305
 5859POPC   NC374027  38.785  20.459   5.403
 5859POPC   PO474028  39.456  20.640   5.393
 5859POPC   GL174029  39.204  20.446   5.710
 5859POPC   GL274030  38.994  20.728   5.800
 5859POPC   C1A74031  39.100  20.344   6.147
 5859POPC   D2A74032  39.239  20.478   6.572
 5859POPC   C3A74033  39.002  20.481   6.976
 5859POPC   C4A74034  39.147  20.618   7.415
 5859POPC   C1B74035  39.082  20.888   6.212
 5859POPC   C2B74036  38.896  20.875   6.629
 5859POPC   C3B74037  39.098  20.975   7.036
 5859POPC   C4B74038  39.309  21.086   7.425
 5860POPC   NC374039  31.696  19.943   5.634
 5860POPC   PO474040  31.860  19.388   5.698
 5860POPC   GL174041  31.589  19.573   5.986
 5860POPC   GL274042  31.273  19.660   5.803
 5860POPC   C1A74043  31.461  19.893   6.267
 5860POPC   D2A74044  31.569  20.015   6.673
 5860POPC   C3A74045  31.808  19.719   6.858
 5860POPC   C4A74046  31.659  19.778   7.238
 5860POPC   C1B74047  31.079  19.575   6.209
 5860POPC   C2B74048  31.073  19.802   6.631
 5860POPC   C3B74049  31.205  19.891   7.069
 5860POPC   C4B74050  31.236  19.540   7.403
 5861POPC   NC374051  42.194   0.359   5.695
 5861POPC   PO474052  42.593   0.739   5.473
 5861POPC   GL174053  42.559   0.666   5.937
 5861POPC   GL274054  42.511   0.321   6.109
 5861POPC   C1A74055  42.213   0.770   6.217
 5861POPC   D2A74056  41.944   0.678   6.556
 5861POPC   C3A74057  42.205   0.590   6.883
 5861POPC   C4A74058  42.439   0.481   7.240
 5861POPC   C1B74059  42.093   0.235   6.329
 5861POPC   C2B74060  41.864   0.199   6.730
 5861POPC   C3B74061  42.107   0.076   7.086
 5861POPC   C4B74062  42.102   0.140   7.508
 5862POPC   NC374063  19.044  20.490   5.169
 5862POPC   PO474064  19.322  21.011   5.404
 5862POPC   GL174065  19.161  20.726   5.719
 5862POPC   GL274066  18.949  20.953   5.791
 5862POPC   C1A74067  18.939  20.526   6.100
 5862POPC   D2A74068  18.797  20.301   6.488
 5862POPC   C3A74069  18.904  20.445   6.904
 5862POPC   C4A74070  19.077  20.484   7.298
 5862POPC   C1B74071  19.025  21.024   6.202
 5862POPC   C2B74072  18.919  20.843   6.579
 5862POPC   C3B74073  18.832  20.954   7.022
 5862POPC   C4B74074  18.783  21.042   7.486
 5863POPC   NC374075  26.327  42.554   5.446
 5863POPC   PO474076  25.783  42.235   5.177
 5863POPC   GL174077  25.901  42.286   5.671
 5863POPC   GL274078  26.219  42.323   5.883
 5863POPC   C1A74079  25.775  42.423   6.115
 5863POPC   D2A74080  25.719  42.633   6.531
 5863POPC   C3A74081  25.752  42.329   6.887
 5863POPC   C4A74082  26.157  42.213   7.066
 5863POPC   C1B74083  26.453  42.058   6.199
 5863POPC   C2B74084  26.519  42.063   6.659
 5863POPC   C3B74085  26.646  42.050   7.080
 5863POPC   C4B74086  26.422  41.916   7.427
 5864POPC   NC374087  21.838  14.305   5.449
 5864POPC   PO474088  22.424  14.015   5.572
 5864POPC   GL174089  22.090  14.192   5.925
 5864POPC   GL274090  21.702  14.207   5.922
 5864POPC   C1A74091  21.911  14.186   6.393
 5864POPC   D2A74092  21.900  14.371   6.800
 5864POPC   C3A74093  22.268  14.235   6.991
 5864POPC   C4A74094  22.389  14.008   7.396
 5864POPC   C1B74095  21.859  14.604   6.134
 5864POPC   C2B74096  21.750  14.780   6.537
 5864POPC   C3B74097  21.740  14.822   6.991
 5864POPC   C4B74098  21.870  14.681   7.397
 5865POPC   NC374099  23.182   0.580   5.682
 5865POPC   PO474100  22.736   0.067   5.563
 5865POPC   GL174101  22.747   0.415   5.888
 5865POPC   GL274102  22.570   0.763   5.955
 5865POPC   C1A74103  22.806   0.384   6.335
 5865POPC   D2A74104  22.552   0.200   6.630
 5865POPC   C3A74105  22.778   0.327   6.955
 5865POPC   C4A74106  22.970   0.096   7.268
 5865POPC   C1B74107  22.927   0.859   6.216
 5865POPC   C2B74108  23.138   0.735   6.533
 5865POPC   C3B74109  23.056   0.770   6.934
 5865POPC   C4B74110  23.030   0.599   7.321
 5866POPC   NC374111  13.596  42.624   5.421
 5866POPC   PO474112  13.903  42.103   5.319
 5866POPC   GL174113  13.636  42.074   5.761
 5866POPC   GL274114  13.567  42.395   5.869
 5866POPC   C1A74115  13.599  42.068   6.269
 5866POPC   D2A74116  13.697  42.136   6.721
 5866POPC   C3A74117  13.379  42.260   7.006
 5866POPC   C4A74118  13.320  42.103   7.414
 5866POPC   C1B74119  13.865  42.490   6.188
 5866POPC   C2B74120  13.741  42.651   6.593
 5866POPC   C3B74121  13.920  42.565   6.959
 5866POPC   C4B74122  13.835  42.312   7.270
 5867POPC   NC374123  14.213  40.899   5.333
 5867POPC   PO474124  13.659  40.534   5.464
 5867POPC   GL174125  13.708  40.759   5.847
 5867POPC   GL274126  13.603  41.095   5.813
 5867POPC   C1A74127  13.557  40.636   6.245
 5867POPC   D2A74128  13.408  40.771   6.631
 5867POPC   C3A74129  13.807  40.752   6.844
 5867POPC   C4A74130  13.901  40.525   7.206
 5867POPC   C1B74131  13.432  41.117   6.229
 5867POPC   C2B74132  13.657  41.203   6.626
 5867POPC   C3B74133  13.557  41.187   7.050
 5867POPC   C4B74134  13.435  41.121   7.518
 5868POPC   NC374135  18.226  43.565   5.012
 5868POPC   PO474136  18.089  44.162   5.356
 5868POPC   GL174137  18.314  44.016   5.697
 5868POPC   GL274138  18.594  44.203   5.826
 5868POPC   C1A74139  18.345  43.789   6.087
 5868POPC   D2A74140  18.545  43.875   6.496
 5868POPC   C3A74141  18.271  43.828   6.870
 5868POPC   C4A74142  18.160  43.885   7.312
 5868POPC   C1B74143  18.327  44.293   6.206
 5868POPC   C2B74144  18.131  44.485   6.597
 5868POPC   C3B74145  18.202  44.342   7.041
 5868POPC   C4B74146  18.587  44.157   7.207
 5869POPC   NC374147  40.460  36.670   5.328
 5869POPC   PO474148  40.948  37.128   5.548
 5869POPC   GL174149  40.799  36.912   5.866
 5869POPC   GL274150  40.666  36.539   5.780
 5869POPC   C1A74151  40.922  37.035   6.296
 5869POPC   D2A74152  41.079  36.919   6.689
 5869POPC   C3A74153  41.038  37.131   7.059
 5869POPC   C4A74154  40.654  37.265   7.215
 5869POPC   C1B74155  40.860  36.517   6.177
 5869POPC   C2B74156  40.712  36.586   6.578
 5869POPC   C3B74157  40.709  36.711   6.997
 5869POPC   C4B74158  40.698  36.433   7.325
 5870POPC   NC374159   8.634  22.225   5.341
 5870POPC   PO474160   9.229  21.943   5.332
 5870POPC   GL174161   9.049  22.215   5.670
 5870POPC   GL274162   8.728  22.054   5.824
 5870POPC   C1A74163   9.125  22.156   6.119
 5870POPC   D2A74164   9.002  22.020   6.522
 5870POPC   C3A74165   9.237  22.221   6.864
 5870POPC   C4A74166   9.140  22.178   7.279
 5870POPC   C1B74167   8.543  22.178   6.185
 5870POPC   C2B74168   8.572  22.318   6.591
 5870POPC   C3B74169   8.731  22.176   6.955
 5870POPC   C4B74170   8.655  22.348   7.333
 5871POPC   NC374171  24.026  32.973   5.579
 5871POPC   PO474172  24.591  33.074   5.243
 5871POPC   GL174173  24.510  32.943   5.744
 5871POPC   GL274174  24.279  32.714   5.975
 5871POPC   C1A74175  24.461  33.099   6.225
 5871POPC   D2A74176  24.496  32.866   6.647
 5871POPC   C3A74177  24.839  33.007   6.965
 5871POPC   C4A74178  25.006  32.890   7.402
 5871POPC   C1B74179  23.968  32.880   6.272
 5871POPC   C2B74180  23.999  33.063   6.672
 5871POPC   C3B74181  24.189  32.946   7.060
 5871POPC   C4B74182  24.525  33.099   7.358
 5872POPC   NC374183   0.014  24.062   5.430
 5872POPC   PO474184   0.661  23.779   5.464
 5872POPC   GL174185   0.536  23.845   5.889
 5872POPC   GL274186   0.209  24.004   5.892
 5872POPC   C1A74187   0.424  23.756   6.332
 5872POPC   D2A74188   0.265  23.719   6.754
 5872POPC   C3A74189   0.483  23.787   7.125
 5872POPC   C4A74190   0.412  23.661   7.560
 5872POPC   C1B74191   0.210  24.216   6.262
 5872POPC   C2B74192   0.006  24.131   6.629
 5872POPC   C3B74193   0.156  24.167   7.038
 5872POPC   C4B74194   0.052  24.011   7.439
 5873POPC   NC374195   5.088   2.692   5.202
 5873POPC   PO474196   5.176   3.327   5.294
 5873POPC   GL174197   5.119   2.886   5.662
 5873POPC   GL274198   4.785   2.747   5.728
 5873POPC   C1A74199   5.262   2.682   6.088
 5873POPC   D2A74200   5.491   2.583   6.503
 5873POPC   C3A74201   5.293   2.406   6.854
 5873POPC   C4A74202   5.108   2.622   7.194
 5873POPC   C1B74203   4.771   2.829   6.206
 5873POPC   C2B74204   5.010   2.793   6.615
 5873POPC   C3B74205   5.061   3.076   6.969
 5873POPC   C4B74206   4.912   3.104   7.368
 5874POPC   NC374207  15.440  19.541   5.490
 5874POPC   PO474208  14.886  19.589   5.593
 5874POPC   GL174209  15.109  19.815   5.866
 5874POPC   GL274210  15.424  19.993   5.798
 5874POPC   C1A74211  15.223  19.674   6.275
 5874POPC   D2A74212  15.476  19.539   6.622
 5874POPC   C3A74213  15.351  19.349   7.013
 5874POPC   C4A74214  15.173  19.470   7.396
 5874POPC   C1B74215  15.238  20.182   6.200
 5874POPC   C2B74216  15.346  20.036   6.626
 5874POPC   C3B74217  15.371  19.867   7.037
 5874POPC   C4B74218  15.111  19.980   7.377
 5875POPC   NC374219  14.822  37.817   5.432
 5875POPC   PO474220  14.318  37.389   5.721
 5875POPC   GL174221  14.477  37.801   5.846
 5875POPC   GL274222  14.855  37.910   5.931
 5875POPC   C1A74223  14.248  37.853   6.256
 5875POPC   D2A74224  14.113  37.609   6.638
 5875POPC   C3A74225  14.392  37.790   6.939
 5875POPC   C4A74226  14.269  37.945   7.338
 5875POPC   C1B74227  14.732  37.626   6.245
 5875POPC   C2B74228  14.589  37.439   6.611
 5875POPC   C3B74229  14.781  37.382   6.973
 5875POPC   C4B74230  14.797  37.664   7.277
 5876POPC   NC374231  39.507  36.373   5.277
 5876POPC   PO474232  38.964  35.941   5.472
 5876POPC   GL174233  39.167  35.988   5.834
 5876POPC   GL274234  39.310  36.317   5.779
 5876POPC   C1A74235  39.059  35.950   6.237
 5876POPC   D2A74236  39.079  36.277   6.533
 5876POPC   C3A74237  39.018  36.116   6.930
 5876POPC   C4A74238  39.282  35.785   7.093
 5876POPC   C1B74239  39.494  36.274   6.192
 5876POPC   C2B74240  39.542  36.496   6.594
 5876POPC   C3B74241  39.479  36.339   7.017
 5876POPC   C4B74242  39.388  36.457   7.466
 5877POPC   NC374243  29.613  31.255   5.559
 5877POPC   PO474244  30.114  31.610   5.291
 5877POPC   GL174245  30.106  31.378   5.787
 5877POPC   GL274246  29.988  31.528   6.136
 5877POPC   C1A74247  30.116  31.072   6.217
 5877POPC   D2A74248  29.955  31.099   6.647
 5877POPC   C3A74249  29.959  31.520   6.861
 5877POPC   C4A74250  30.285  31.783   7.067
 5877POPC   C1B74251  29.621  31.261   6.290
 5877POPC   C2B74252  29.490  31.276   6.705
 5877POPC   C3B74253  29.498  31.417   7.108
 5877POPC   C4B74254  29.851  31.553   7.396
 5878POPC   NC374255  22.395  15.090   5.614
 5878POPC   PO474256  21.829  15.510   5.383
 5878POPC   GL174257  21.900  15.318   5.823
 5878POPC   GL274258  22.037  15.023   5.950
 5878POPC   C1A74259  21.952  15.365   6.306
 5878POPC   D2A74260  21.965  15.210   6.739
 5878POPC   C3A74261  22.405  15.216   6.843
 5878POPC   C4A74262  22.582  15.462   7.175
 5878POPC   C1B74263  22.210  14.938   6.366
 5878POPC   C2B74264  22.300  14.699   6.692
 5878POPC   C3B74265  22.229  14.748   7.054
 5878POPC   C4B74266  22.129  15.105   7.249
 5879POPC   NC374267   2.421  28.289   5.383
 5879POPC   PO474268   1.832  28.223   5.414
 5879POPC   GL174269   2.111  28.203   5.798
 5879POPC   GL274270   2.186  27.880   5.928
 5879POPC   C1A74271   1.968  28.353   6.219
 5879POPC   D2A74272   1.617  28.398   6.507
 5879POPC   C3A74273   1.685  28.445   6.938
 5879POPC   C4A74274   1.939  28.467   7.340
 5879POPC   C1B74275   1.897  27.822   6.253
 5879POPC   C2B74276   1.776  27.924   6.675
 5879POPC   C3B74277   1.960  28.044   7.052
 5879POPC   C4B74278   2.192  27.892   7.387
 5880POPC   NC374279   0.016  19.080   5.101
 5880POPC   PO474280  44.551  19.256   5.498
 5880POPC   GL174281  44.671  19.221   5.869
 5880POPC   GL274282  44.677  18.852   5.801
 5880POPC   C1A74283  44.479  19.313   6.212
 5880POPC   D2A74284  44.516  19.119   6.580
 5880POPC   C3A74285  44.463  19.331   6.923
 5880POPC   C4A74286  44.623  19.153   7.243
 5880POPC   C1B74287  44.780  18.849   6.223
 5880POPC   C2B74288   0.016  18.773   6.591
 5880POPC   C3B74289  44.875  18.800   7.001
 5880POPC   C4B74290  44.697  18.683   7.447
 5881POPC   NC374291  33.061  10.856   5.275
 5881POPC   PO474292  33.152  11.443   5.591
 5881POPC   GL174293  32.868  11.204   5.865
 5881POPC   GL274294  32.710  10.860   5.853
 5881POPC   C1A74295  33.021  11.126   6.286
 5881POPC   D2A74296  33.301  11.332   6.563
 5881POPC   C3A74297  33.034  11.538   6.851
 5881POPC   C4A74298  32.972  11.377   7.259
 5881POPC   C1B74299  32.507  11.065   6.226
 5881POPC   C2B74300  32.632  11.263   6.623
 5881POPC   C3B74301  32.953  11.032   6.848
 5881POPC   C4B74302  32.967  10.806   7.231
 5882POPC   NC374303  40.780  24.585   5.247
 5882POPC   PO474304  40.219  24.519   5.466
 5882POPC   GL174305  40.645  24.497   5.749
 5882POPC   GL274306  40.936  24.732   5.859
 5882POPC   C1A74307  40.803  24.370   6.188
 5882POPC   D2A74308  41.003  24.384   6.613
 5882POPC   C3A74309  40.871  24.302   7.043
 5882POPC   C4A74310  41.029  24.256   7.462
 5882POPC   C1B74311  41.015  24.842   6.327
 5882POPC   C2B74312  41.003  24.872   6.818
 5882POPC   C3B74313  40.998  24.758   7.283
 5882POPC   C4B74314  41.166  24.675   7.728
 5883POPC   NC374315  43.047  27.689   5.029
 5883POPC   PO474316  43.504  27.281   5.272
 5883POPC   GL174317  43.337  27.609   5.612
 5883POPC   GL274318  42.974  27.590   5.753
 5883POPC   C1A74319  43.338  27.606   6.089
 5883POPC   D2A74320  43.171  27.597   6.501
 5883POPC   C3A74321  43.369  27.844   6.811
 5883POPC   C4A74322  43.308  27.654   7.214
 5883POPC   C1B74323  42.836  27.355   6.134
 5883POPC   C2B74324  42.857  27.203   6.580
 5883POPC   C3B74325  42.875  27.413   6.970
 5883POPC   C4B74326  42.787  27.772   7.185
 5884POPC   NC374327   7.384  31.800   5.401
 5884POPC   PO474328   7.271  31.204   5.225
 5884POPC   GL174329   7.496  31.419   5.696
 5884POPC   GL274330   7.312  31.690   5.884
 5884POPC   C1A74331   7.500  31.322   6.164
 5884POPC   D2A74332   7.278  31.260   6.547
 5884POPC   C3A74333   7.475  31.229   6.946
 5884POPC   C4A74334   7.226  31.307   7.303
 5884POPC   C1B74335   7.489  31.804   6.302
 5884POPC   C2B74336   7.353  31.711   6.757
 5884POPC   C3B74337   7.386  31.781   7.209
 5884POPC   C4B74338   7.036  31.843   7.519
 5885POPC   NC374339   9.278  23.457   5.127
 5885POPC   PO474340   9.019  22.805   5.350
 5885POPC   GL174341   8.901  22.788   5.791
 5885POPC   GL274342   8.644  22.553   5.827
 5885POPC   C1A74343   8.792  23.066   6.166
 5885POPC   D2A74344   9.063  23.249   6.490
 5885POPC   C3A74345   8.861  23.306   6.873
 5885POPC   C4A74346   9.005  23.239   7.261
 5885POPC   C1B74347   8.874  22.570   6.244
 5885POPC   C2B74348   8.824  22.786   6.624
 5885POPC   C3B74349   8.960  22.641   7.002
 5885POPC   C4B74350   9.003  22.703   7.401
 5886POPC   NC374351  19.055  28.257   5.317
 5886POPC   PO474352  19.130  27.519   5.387
 5886POPC   GL174353  19.192  27.397   5.877
 5886POPC   GL274354  19.406  27.117   6.038
 5886POPC   C1A74355  19.272  27.528   6.329
 5886POPC   D2A74356  19.525  27.486   6.734
 5886POPC   C3A74357  19.296  27.680   7.080
 5886POPC   C4A74358  19.150  28.095   7.245
 5886POPC   C1B74359  19.243  27.041   6.458
 5886POPC   C2B74360  18.875  27.192   6.668
 5886POPC   C3B74361  18.575  27.232   6.997
 5886POPC   C4B74362  18.872  27.392   7.296
 5887POPC   NC374363  39.117  17.211   5.434
 5887POPC   PO474364  39.530  17.739   5.274
 5887POPC   GL174365  39.370  17.589   5.672
 5887POPC   GL274366  39.553  17.276   5.720
 5887POPC   C1A74367  39.212  17.492   6.112
 5887POPC   D2A74368  39.025  17.265   6.485
 5887POPC   C3A74369  39.015  17.494   6.872
 5887POPC   C4A74370  38.890  17.765   7.191
 5887POPC   C1B74371  39.672  17.281   6.165
 5887POPC   C2B74372  39.503  17.436   6.575
 5887POPC   C3B74373  39.495  17.409   7.019
 5887POPC   C4B74374  39.554  17.044   7.255
 5888POPC   NC374375  21.577  26.445   5.582
 5888POPC   PO474376  21.169  25.971   5.233
 5888POPC   GL174377  21.113  25.851   5.711
 5888POPC   GL274378  21.485  25.962   5.802
 5888POPC   C1A74379  21.148  25.857   6.173
 5888POPC   D2A74380  21.159  26.211   6.490
 5888POPC   C3A74381  21.307  26.065   6.879
 5888POPC   C4A74382  21.209  25.978   7.300
 5888POPC   C1B74383  21.611  26.093   6.260
 5888POPC   C2B74384  21.773  25.910   6.684
 5888POPC   C3B74385  21.702  25.866   7.154
 5888POPC   C4B74386  21.624  26.110   7.581
 5889POPC   NC374387  40.715  39.247   5.376
 5889POPC   PO474388  41.264  39.560   5.581
 5889POPC   GL174389  40.907  39.439   5.848
 5889POPC   GL274390  40.814  39.083   5.845
 5889POPC   C1A74391  40.684  39.380   6.255
 5889POPC   D2A74392  40.866  39.387   6.656
 5889POPC   C3A74393  40.641  39.474   7.016
 5889POPC   C4A74394  40.784  39.545   7.428
 5889POPC   C1B74395  41.052  39.010   6.223
 5889POPC   C2B74396  40.940  38.878   6.622
 5889POPC   C3B74397  41.011  39.045   7.023
 5889POPC   C4B74398  40.702  39.059   7.327
 5890POPC   NC374399  35.505  21.139   5.387
 5890POPC   PO474400  34.842  21.316   5.426
 5890POPC   GL174401  35.174  21.254   5.746
 5890POPC   GL274402  35.297  21.538   5.766
 5890POPC   C1A74403  35.402  21.159   6.148
 5890POPC   D2A74404  35.248  21.110   6.591
 5890POPC   C3A74405  35.497  21.029   6.976
 5890POPC   C4A74406  35.434  21.157   7.387
 5890POPC   C1B74407  35.247  21.678   6.187
 5890POPC   C2B74408  35.435  21.642   6.598
 5890POPC   C3B74409  35.419  21.540   7.016
 5890POPC   C4B74410  35.209  21.639   7.382
 5891POPC   NC374411  25.915  38.109   5.206
 5891POPC   PO474412  25.758  37.407   5.515
 5891POPC   GL174413  25.849  37.381   5.933
 5891POPC   GL274414  26.004  37.709   5.883
 5891POPC   C1A74415  26.095  37.444   6.330
 5891POPC   D2A74416  26.170  37.702   6.712
 5891POPC   C3A74417  26.055  37.460   7.060
 5891POPC   C4A74418  26.267  37.230   7.378
 5891POPC   C1B74419  26.060  37.960   6.273
 5891POPC   C2B74420  25.775  38.083   6.608
 5891POPC   C3B74421  25.796  37.935   7.028
 5891POPC   C4B74422  26.069  37.883   7.346
 5892POPC   NC374423  31.130  43.525   5.147
 5892POPC   PO474424  30.851  44.113   5.509
 5892POPC   GL174425  30.669  44.175   5.915
 5892POPC   GL274426  30.674  43.815   6.015
 5892POPC   C1A74427  30.707  44.164   6.383
 5892POPC   D2A74428  30.585  43.924   6.706
 5892POPC   C3A74429  30.737  43.994   7.108
 5892POPC   C4A74430  30.647  43.874   7.565
 5892POPC   C1B74431  31.045  43.763   6.305
 5892POPC   C2B74432  31.105  43.709   6.745
 5892POPC   C3B74433  31.091  43.653   7.180
 5892POPC   C4B74434  31.146  43.951   7.516
 5893POPC   NC374435  10.224  41.743   5.583
 5893POPC   PO474436  10.874  41.633   5.421
 5893POPC   GL174437  10.696  41.489   5.792
 5893POPC   GL274438  10.781  41.129   5.800
 5893POPC   C1A74439  10.502  41.599   6.203
 5893POPC   D2A74440  10.594  41.816   6.577
 5893POPC   C3A74441  10.682  41.674   6.984
 5893POPC   C4A74442  10.386  41.468   7.180
 5893POPC   C1B74443  10.860  41.237   6.219
 5893POPC   C2B74444  10.775  41.341   6.607
 5893POPC   C3B74445  10.768  41.101   6.964
 5893POPC   C4B74446  10.751  41.164   7.377
 5894POPC   NC374447  15.514  26.787   5.393
 5894POPC   PO474448  16.248  26.812   5.452
 5894POPC   GL174449  15.882  26.826   5.787
 5894POPC   GL274450  15.678  26.534   5.833
 5894POPC   C1A74451  15.785  26.798   6.273
 5894POPC   D2A74452  16.128  26.741   6.612
 5894POPC   C3A74453  16.039  26.827   7.073
 5894POPC   C4A74454  16.180  27.220   7.311
 5894POPC   C1B74455  16.107  26.465   6.087
 5894POPC   C2B74456  16.306  26.302   6.449
 5894POPC   C3B74457  16.176  26.240   6.881
 5894POPC   C4B74458  16.225  26.422   7.319
 5895POPC   NC374459   4.150  10.001   5.268
 5895POPC   PO474460   4.768   9.703   5.426
 5895POPC   GL174461   4.524   9.903   5.738
 5895POPC   GL274462   4.149   9.826   5.785
 5895POPC   C1A74463   4.486   9.900   6.197
 5895POPC   D2A74464   4.466   9.686   6.600
 5895POPC   C3A74465   4.639   9.899   6.969
 5895POPC   C4A74466   4.415  10.017   7.348
 5895POPC   C1B74467   3.998   9.631   6.197
 5895POPC   C2B74468   3.953   9.548   6.672
 5895POPC   C3B74469   4.196   9.665   7.067
 5895POPC   C4B74470   4.146   9.573   7.559
 5896POPC   NC374471  34.092  21.415   5.538
 5896POPC   PO474472  33.587  21.710   5.307
 5896POPC   GL174473  33.788  21.743   5.750
 5896POPC   GL274474  33.789  21.337   5.917
 5896POPC   C1A74475  34.039  21.723   6.143
 5896POPC   D2A74476  33.995  21.553   6.547
 5896POPC   C3A74477  33.719  21.503   6.862
 5896POPC   C4A74478  33.600  21.165   7.138
 5896POPC   C1B74479  34.052  21.137   6.219
 5896POPC   C2B74480  34.191  21.079   6.624
 5896POPC   C3B74481  34.087  21.183   7.028
 5896POPC   C4B74482  34.163  21.101   7.472
 5897POPC   NC374483  27.709  37.446   5.463
 5897POPC   PO474484  27.264  37.889   5.365
 5897POPC   GL174485  27.457  37.819   5.739
 5897POPC   GL274486  27.308  37.490   5.812
 5897POPC   C1A74487  27.601  37.769   6.155
 5897POPC   D2A74488  27.414  37.848   6.553
 5897POPC   C3A74489  27.639  38.056   6.866
 5897POPC   C4A74490  27.740  37.827   7.228
 5897POPC   C1B74491  27.320  37.355   6.255
 5897POPC   C2B74492  27.138  37.422   6.685
 5897POPC   C3B74493  27.294  37.677   7.038
 5897POPC   C4B74494  27.436  37.457   7.459
 5898POPC   NC374495  44.071  32.765   5.329
 5898POPC   PO474496  43.610  32.195   5.185
 5898POPC   GL174497  43.753  32.259   5.631
 5898POPC   GL274498  43.886  32.567   5.747
 5898POPC   C1A74499  43.908  32.124   6.057
 5898POPC   D2A74500  44.146  31.976   6.439
 5898POPC   C3A74501  43.987  32.138   6.844
 5898POPC   C4A74502  44.008  31.963   7.285
 5898POPC   C1B74503  44.037  32.619   6.137
 5898POPC   C2B74504  43.988  32.672   6.566
 5898POPC   C3B74505  44.218  32.627   6.933
 5898POPC   C4B74506  43.979  32.468   7.243
 5899POPC   NC374507  17.476  25.371   5.459
 5899POPC   PO474508  17.874  24.790   5.351
 5899POPC   GL174509  17.723  25.045   5.772
 5899POPC   GL274510  17.715  25.437   5.908
 5899POPC   C1A74511  17.622  25.067   6.225
 5899POPC   D2A74512  17.463  24.915   6.602
 5899POPC   C3A74513  17.663  25.170   6.925
 5899POPC   C4A74514  17.484  25.252   7.320
 5899POPC   C1B74515  17.434  25.549   6.257
 5899POPC   C2B74516  17.299  25.434   6.684
 5899POPC   C3B74517  17.058  25.503   7.075
 5899POPC   C4B74518  17.178  25.607   7.501
 5900POPC   NC374519  11.039   8.866   5.115
 5900POPC   PO474520  10.433   8.887   5.437
 5900POPC   GL174521  10.421   8.818   5.863
 5900POPC   GL274522  10.795   8.819   5.850
 5900POPC   C1A74523  10.306   8.970   6.291
 5900POPC   D2A74524  10.564   9.123   6.633
 5900POPC   C3A74525  10.775   8.994   7.021
 5900POPC   C4A74526  10.663   9.020   7.450
 5900POPC   C1B74527  10.707   8.630   6.261
 5900POPC   C2B74528  10.433   8.586   6.633
 5900POPC   C3B74529  10.431   8.647   7.087
 5900POPC   C4B74530  10.711   8.519   7.373
 5901POPC   NC374531   4.597   4.444   5.501
 5901POPC   PO474532   3.901   4.369   5.415
 5901POPC   GL174533   4.067   4.328   5.809
 5901POPC   GL274534   4.393   4.276   5.924
 5901POPC   C1A74535   4.040   4.512   6.208
 5901POPC   D2A74536   4.299   4.373   6.502
 5901POPC   C3A74537   4.174   4.235   6.899
 5901POPC   C4A74538   4.049   4.446   7.267
 5901POPC   C1B74539   4.731   4.244   6.190
 5901POPC   C2B74540   4.833   4.461   6.535
 5901POPC   C3B74541   4.616   4.471   6.895
 5901POPC   C4B74542   4.559   4.356   7.303
 5902POPC   NC374543  14.919   9.085   5.462
 5902POPC   PO474544  15.269   8.621   5.197
 5902POPC   GL174545  15.160   8.655   5.661
 5902POPC   GL274546  14.795   8.654   5.762
 5902POPC   C1A74547  15.217   8.833   6.097
 5902POPC   D2A74548  15.194   9.070   6.481
 5902POPC   C3A74549  15.143   8.897   6.881
 5902POPC   C4A74550  15.270   9.209   7.139
 5902POPC   C1B74551  14.716   8.982   6.100
 5902POPC   C2B74552  14.732   8.901   6.528
 5902POPC   C3B74553  14.626   8.913   6.932
 5902POPC   C4B74554  14.833   9.002   7.285
 5903POPC   NC374555   9.902   3.696   5.452
 5903POPC   PO474556   9.518   3.188   5.269
 5903POPC   GL174557   9.687   3.261   5.696
 5903POPC   GL274558   9.362   3.149   5.814
 5903POPC   C1A74559   9.688   3.494   6.145
 5903POPC   D2A74560   9.527   3.738   6.549
 5903POPC   C3A74561   9.580   3.591   7.000
 5903POPC   C4A74562   9.934   3.731   7.226
 5903POPC   C1B74563   9.451   3.050   6.266
 5903POPC   C2B74564   9.634   3.214   6.649
 5903POPC   C3B74565   9.971   3.265   6.990
 5903POPC   C4B74566   9.835   3.261   7.430
 5904POPC   NC374567  14.359  23.871   5.420
 5904POPC   PO474568  14.378  23.222   5.414
 5904POPC   GL174569  14.141  23.437   5.770
 5904POPC   GL274570  14.148  23.812   5.867
 5904POPC   C1A74571  14.236  23.468   6.209
 5904POPC   D2A74572  14.536  23.535   6.516
 5904POPC   C3A74573  14.361  23.501   6.897
 5904POPC   C4A74574  14.243  23.666   7.266
 5904POPC   C1B74575  14.502  23.920   6.126
 5904POPC   C2B74576  14.513  24.079   6.537
 5904POPC   C3B74577  14.714  23.924   6.895
 5904POPC   C4B74578  14.768  23.668   7.240
 5905POPC   NC374579  30.204  43.204   5.345
 5905POPC   PO474580  29.912  43.818   5.330
 5905POPC   GL174581  29.981  43.773   5.776
 5905POPC   GL274582  29.664  43.830   5.899
 5905POPC   C1A74583  30.182  43.963   6.153
 5905POPC   D2A74584  30.105  44.137   6.570
 5905POPC   C3A74585  30.141  43.876   6.953
 5905POPC   C4A74586  30.016  43.770   7.359
 5905POPC   C1B74587  29.655  44.039   6.300
 5905POPC   C2B74588  29.663  43.903   6.752
 5905POPC   C3B74589  29.677  44.082   7.172
 5905POPC   C4B74590  29.592  43.954   7.617
 5906POPC   NC374591   5.830  23.930   5.314
 5906POPC   PO474592   6.307  23.453   5.442
 5906POPC   GL174593   6.021  23.612   5.739
 5906POPC   GL274594   6.105  23.975   5.773
 5906POPC   C1A74595   5.765  23.507   6.106
 5906POPC   D2A74596   5.922  23.453   6.528
 5906POPC   C3A74597   5.662  23.676   6.804
 5906POPC   C4A74598   5.675  23.619   7.244
 5906POPC   C1B74599   6.141  23.832   6.203
 5906POPC   C2B74600   6.059  23.993   6.614
 5906POPC   C3B74601   6.075  23.905   7.051
 5906POPC   C4B74602   5.924  24.103   7.409
 5907POPC   NC374603  27.831  19.920   5.345
 5907POPC   PO474604  27.283  20.248   5.511
 5907POPC   GL174605  27.523  19.962   5.764
 5907POPC   GL274606  27.334  19.644   5.795
 5907POPC   C1A74607  27.794  19.976   6.138
 5907POPC   D2A74608  27.685  20.134   6.553
 5907POPC   C3A74609  27.823  19.911   6.930
 5907POPC   C4A74610  27.673  19.795   7.388
 5907POPC   C1B74611  27.309  19.840   6.216
 5907POPC   C2B74612  27.399  19.722   6.625
 5907POPC   C3B74613  27.325  19.850   7.003
 5907POPC   C4B74614  27.155  19.992   7.353
 5908POPC   NC374615  17.971  24.315   5.286
 5908POPC   PO474616  17.269  24.211   5.391
 5908POPC   GL174617  17.492  24.529   5.661
 5908POPC   GL274618  17.818  24.515   5.761
 5908POPC   C1A74619  17.375  24.657   6.086
 5908POPC   D2A74620  17.366  24.388   6.451
 5908POPC   C3A74621  17.302  24.491   6.877
 5908POPC   C4A74622  17.207  24.186   7.221
 5908POPC   C1B74623  17.783  24.330   6.138
 5908POPC   C2B74624  17.861  24.571   6.511
 5908POPC   C3B74625  17.800  24.663   6.941
 5908POPC   C4B74626  17.684  24.352   7.180
 5909POPC   NC374627  14.307   2.893   5.463
 5909POPC   PO474628  14.318   2.290   5.730
 5909POPC   GL174629  14.432   2.549   6.014
 5909POPC   GL274630  14.109   2.668   6.043
 5909POPC   C1A74631  14.580   2.564   6.431
 5909POPC   D2A74632  14.681   2.598   6.883
 5909POPC   C3A74633  14.727   3.020   7.069
 5909POPC   C4A74634  14.530   3.138   7.461
 5909POPC   C1B74635  14.327   2.997   6.252
 5909POPC   C2B74636  14.401   2.991   6.671
 5909POPC   C3B74637  14.250   2.827   7.082
 5909POPC   C4B74638  13.928   2.762   7.398
 5910POPC   NC374639  15.787  34.172   5.351
 5910POPC   PO474640  15.848  34.871   5.279
 5910POPC   GL174641  15.975  34.599   5.613
 5910POPC   GL274642  16.178  34.828   5.804
 5910POPC   C1A74643  15.829  34.471   6.043
 5910POPC   D2A74644  15.750  34.752   6.406
 5910POPC   C3A74645  15.686  34.708   6.863
 5910POPC   C4A74646  15.803  34.397   7.168
 5910POPC   C1B74647  16.269  34.662   6.210
 5910POPC   C2B74648  16.142  34.426   6.534
 5910POPC   C3B74649  16.205  34.562   6.925
 5910POPC   C4B74650  16.243  34.713   7.341
 5911POPC   NC374651  14.134  36.053   5.462
 5911POPC   PO474652  14.736  35.960   5.595
 5911POPC   GL174653  14.442  36.081   5.903
 5911POPC   GL274654  14.201  35.818   5.963
 5911POPC   C1A74655  14.377  36.123   6.354
 5911POPC   D2A74656  14.324  36.088   6.788
 5911POPC   C3A74657  14.101  35.827   7.096
 5911POPC   C4A74658  14.270  36.161   7.359
 5911POPC   C1B74659  14.617  35.698   6.191
 5911POPC   C2B74660  14.755  35.765   6.605
 5911POPC   C3B74661  14.570  35.689   6.983
 5911POPC   C4B74662  14.630  35.762   7.389
 5912POPC   NC374663   9.805   1.700   5.333
 5912POPC   PO474664   9.772   2.339   5.660
 5912POPC   GL174665   9.652   1.966   5.780
 5912POPC   GL274666   9.992   1.848   5.780
 5912POPC   C1A74667   9.500   1.946   6.190
 5912POPC   D2A74668   9.656   1.859   6.575
 5912POPC   C3A74669   9.452   1.915   6.955
 5912POPC   C4A74670   9.654   2.039   7.305
 5912POPC   C1B74671  10.139   1.880   6.189
 5912POPC   C2B74672  10.151   1.721   6.611
 5912POPC   C3B74673  10.013   1.999   6.929
 5912POPC   C4B74674  10.152   2.053   7.323
 5913POPC   NC374675   5.633  26.029   5.392
 5913POPC   PO474676   6.296  25.828   5.494
 5913POPC   GL174677   5.952  25.974   5.825
 5913POPC   GL274678   5.744  25.703   5.987
 5913POPC   C1A74679   5.724  26.180   6.163
 5913POPC   D2A74680   5.670  26.361   6.577
 5913POPC   C3A74681   5.930  26.183   6.894
 5913POPC   C4A74682   5.779  26.192   7.337
 5913POPC   C1B74683   6.049  25.814   6.338
 5913POPC   C2B74684   6.196  25.743   6.769
 5913POPC   C3B74685   5.941  25.739   7.145
 5913POPC   C4B74686   6.039  25.828   7.562
 5914POPC   NC374687  20.729   1.408   5.388
 5914POPC   PO474688  20.080   1.405   5.311
 5914POPC   GL174689  20.349   1.210   5.685
 5914POPC   GL274690  20.708   1.307   5.871
 5914POPC   C1A74691  20.371   1.028   6.126
 5914POPC   D2A74692  20.455   1.200   6.540
 5914POPC   C3A74693  20.341   1.033   6.925
 5914POPC   C4A74694  20.631   0.987   7.257
 5914POPC   C1B74695  21.007   1.414   6.204
 5914POPC   C2B74696  21.014   1.262   6.601
 5914POPC   C3B74697  20.806   1.336   6.940
 5914POPC   C4B74698  20.812   1.644   7.235
 5915POPC   NC374699  28.970  11.456   5.496
 5915POPC   PO474700  29.303  10.924   5.446
 5915POPC   GL174701  29.115  11.067   5.820
 5915POPC   GL274702  29.224  11.396   5.935
 5915POPC   C1A74703  28.817  11.205   6.151
 5915POPC   D2A74704  28.825  11.462   6.536
 5915POPC   C3A74705  29.078  11.321   6.873
 5915POPC   C4A74706  28.893  11.438   7.233
 5915POPC   C1B74707  29.266  11.242   6.366
 5915POPC   C2B74708  29.463  11.527   6.625
 5915POPC   C3B74709  29.486  11.672   7.032
 5915POPC   C4B74710  29.399  11.343   7.308
 5916POPC   NC374711   6.711   0.933   5.618
 5916POPC   PO474712   6.664   0.243   5.699
 5916POPC   GL174713   6.308   0.273   5.974
 5916POPC   GL274714   6.304   0.630   5.922
 5916POPC   C1A74715   6.369   0.193   6.416
 5916POPC   D2A74716   6.820   0.170   6.586
 5916POPC   C3A74717   6.737   0.160   6.996
 5916POPC   C4A74718   6.349   0.347   7.059
 5916POPC   C1B74719   6.619   0.619   6.286
 5916POPC   C2B74720   6.654   0.645   6.758
 5916POPC   C3B74721   6.780   0.644   7.194
 5916POPC   C4B74722   7.036   0.695   7.593
 5917POPC   NC374723  21.936  23.060   5.498
 5917POPC   PO474724  22.581  22.941   5.431
 5917POPC   GL174725  22.349  22.926   5.819
 5917POPC   GL274726  22.033  22.697   5.858
 5917POPC   C1A74727  22.239  23.037   6.244
 5917POPC   D2A74728  21.964  22.942   6.600
 5917POPC   C3A74729  22.104  23.136   7.001
 5917POPC   C4A74730  22.371  23.001   7.366
 5917POPC   C1B74731  21.752  22.541   6.217
 5917POPC   C2B74732  21.532  22.644   6.641
 5917POPC   C3B74733  21.732  22.734   7.069
 5917POPC   C4B74734  21.919  22.579   7.461
 5918POPC   NC374735   8.482  20.124   5.547
 5918POPC   PO474736   8.250  20.834   5.420
 5918POPC   GL174737   8.018  20.795   5.801
 5918POPC   GL274738   7.999  20.424   5.753
 5918POPC   C1A74739   8.149  20.937   6.234
 5918POPC   D2A74740   8.455  20.886   6.573
 5918POPC   C3A74741   8.328  20.762   7.001
 5918POPC   C4A74742   8.088  20.515   7.342
 5918POPC   C1B74743   8.257  20.434   6.096
 5918POPC   C2B74744   8.202  20.256   6.472
 5918POPC   C3B74745   8.229  20.267   6.920
 5918POPC   C4B74746   8.575  20.365   7.241
 5919POPC   NC374747  42.989   7.810   5.435
 5919POPC   PO474748  43.033   7.192   5.182
 5919POPC   GL174749  43.106   7.301   5.658
 5919POPC   GL274750  42.939   7.555   5.872
 5919POPC   C1A74751  43.152   7.193   6.132
 5919POPC   D2A74752  42.864   7.231   6.484
 5919POPC   C3A74753  43.012   7.433   6.850
 5919POPC   C4A74754  43.203   7.258   7.227
 5919POPC   C1B74755  43.085   7.683   6.304
 5919POPC   C2B74756  43.379   7.780   6.658
 5919POPC   C3B74757  43.316   7.760   7.102
 5919POPC   C4B74758  43.188   7.744   7.551
 5920POPC   NC374759  20.719  26.026   5.383
 5920POPC   PO474760  21.148  26.348   5.750
 5920POPC   GL174761  20.764  26.182   5.924
 5920POPC   GL274762  20.426  26.291   5.808
 5920POPC   C1A74763  20.693  26.020   6.340
 5920POPC   D2A74764  20.797  25.920   6.764
 5920POPC   C3A74765  20.842  26.277   7.044
 5920POPC   C4A74766  20.700  26.303   7.481
 5920POPC   C1B74767  20.219  26.053   6.181
 5920POPC   C2B74768  20.324  26.192   6.655
 5920POPC   C3B74769  20.340  26.171   7.123
 5920POPC   C4B74770  20.187  26.490   7.429
 5921POPC   NC374771  32.666  40.707   5.326
 5921POPC   PO474772  31.981  40.814   5.291
 5921POPC   GL174773  32.168  40.822   5.733
 5921POPC   GL274774  32.495  40.699   5.799
 5921POPC   C1A74775  32.256  41.008   6.153
 5921POPC   D2A74776  32.146  40.873   6.543
 5921POPC   C3A74777  32.208  41.100   6.918
 5921POPC   C4A74778  32.107  41.149   7.312
 5921POPC   C1B74779  32.468  40.551   6.207
 5921POPC   C2B74780  32.507  40.449   6.614
 5921POPC   C3B74781  32.466  40.667   6.969
 5921POPC   C4B74782  32.273  40.678   7.348
 5922POPC   NC374783  34.837  10.649   5.486
 5922POPC   PO474784  34.277  10.240   5.357
 5922POPC   GL174785  34.374  10.489   5.762
 5922POPC   GL274786  34.659  10.353   5.861
 5922POPC   C1A74787  34.476  10.697   6.191
 5922POPC   D2A74788  34.715  10.741   6.580
 5922POPC   C3A74789  34.511  10.723   6.969
 5922POPC   C4A74790  34.362  11.024   7.268
 5922POPC   C1B74791  34.807  10.247   6.272
 5922POPC   C2B74792  34.720  10.242   6.713
 5922POPC   C3B74793  34.807  10.245   7.124
 5922POPC   C4B74794  34.847  10.273   7.550
 5923POPC   NC374795   9.939  39.146   5.336
 5923POPC   PO474796   9.318  39.420   5.406
 5923POPC   GL174797   9.586  39.251   5.755
 5923POPC   GL274798   9.929  39.393   5.786
 5923POPC   C1A74799   9.692  39.291   6.223
 5923POPC   D2A74800   9.797  39.055   6.607
 5923POPC   C3A74801   9.595  39.269   6.943
 5923POPC   C4A74802   9.463  39.209   7.326
 5923POPC   C1B74803  10.175  39.500   6.163
 5923POPC   C2B74804  10.129  39.518   6.607
 5923POPC   C3B74805  10.091  39.287   6.963
 5923POPC   C4B74806   9.950  39.365   7.352
 5924POPC   NC374807  12.385  15.586   5.612
 5924POPC   PO474808  12.082  15.061   5.233
 5924POPC   GL174809  11.996  15.217   5.720
 5924POPC   GL274810  12.121  15.459   6.022
 5924POPC   C1A74811  11.779  15.123   6.156
 5924POPC   D2A74812  11.943  14.897   6.517
 5924POPC   C3A74813  11.847  15.066   6.930
 5924POPC   C4A74814  12.092  15.091   7.305
 5924POPC   C1B74815  12.065  15.396   6.478
 5924POPC   C2B74816  12.330  15.135   6.768
 5924POPC   C3B74817  12.543  15.264   7.099
 5924POPC   C4B74818  12.395  15.486   7.435
 5925POPC   NC374819   0.621  31.635   5.373
 5925POPC   PO474820   0.185  31.167   5.289
 5925POPC   GL174821   0.493  31.289   5.721
 5925POPC   GL274822   0.537  31.649   5.904
 5925POPC   C1A74823   0.493  31.252   6.204
 5925POPC   D2A74824   0.749  31.170   6.543
 5925POPC   C3A74825   0.636  31.063   6.929
 5925POPC   C4A74826   0.468  31.304   7.240
 5925POPC   C1B74827   0.639  31.706   6.402
 5925POPC   C2B74828   0.476  31.635   6.833
 5925POPC   C3B74829   0.265  31.759   7.227
 5925POPC   C4B74830   0.437  31.728   7.676
 5926POPC   NC374831  10.173  43.386   5.508
 5926POPC   PO474832  10.777  43.142   5.511
 5926POPC   GL174833  10.616  43.020   5.926
 5926POPC   GL274834  10.311  43.199   6.018
 5926POPC   C1A74835  10.428  42.707   6.194
 5926POPC   D2A74836  10.150  42.719   6.553
 5926POPC   C3A74837  10.293  42.858   6.968
 5926POPC   C4A74838  10.459  42.904   7.416
 5926POPC   C1B74839  10.276  43.498   6.358
 5926POPC   C2B74840  10.398  43.553   6.787
 5926POPC   C3B74841  10.233  43.329   7.150
 5926POPC   C4B74842  10.263  43.381   7.614
 5927POPC   NC374843  21.308  23.837   5.473
 5927POPC   PO474844  20.840  23.393   5.453
 5927POPC   GL174845  21.172  23.456   5.825
 5927POPC   GL274846  21.514  23.693   5.913
 5927POPC   C1A74847  21.294  23.445   6.266
 5927POPC   D2A74848  21.387  23.735   6.568
 5927POPC   C3A74849  21.358  23.546   6.949
 5927POPC   C4A74850  21.412  23.670   7.336
 5927POPC   C1B74851  21.799  23.898   6.256
 5927POPC   C2B74852  21.837  24.041   6.695
 5927POPC   C3B74853  21.653  24.072   7.117
 5927POPC   C4B74854  21.727  23.970   7.580
 5928POPC   NC374855  33.087  18.929   5.403
 5928POPC   PO474856  33.060  19.501   5.778
 5928POPC   GL174857  32.820  19.170   5.943
 5928POPC   GL274858  32.723  18.817   5.810
 5928POPC   C1A74859  33.027  19.140   6.316
 5928POPC   D2A74860  33.065  19.338   6.685
 5928POPC   C3A74861  33.066  19.070   7.039
 5928POPC   C4A74862  33.315  18.963   7.365
 5928POPC   C1B74863  32.663  18.799   6.281
 5928POPC   C2B74864  32.577  19.117   6.580
 5928POPC   C3B74865  32.584  19.204   6.994
 5928POPC   C4B74866  32.576  18.876   7.245
 5929POPC   NC374867  42.897  17.307   5.598
 5929POPC   PO474868  43.509  17.331   5.421
 5929POPC   GL174869  43.273  17.591   5.768
 5929POPC   GL274870  43.417  17.887   5.912
 5929POPC   C1A74871  43.066  17.474   6.193
 5929POPC   D2A74872  42.715  17.378   6.492
 5929POPC   C3A74873  42.864  17.371   6.913
 5929POPC   C4A74874  42.953  17.718   7.190
 5929POPC   C1B74875  43.538  17.668   6.266
 5929POPC   C2B74876  43.497  17.360   6.592
 5929POPC   C3B74877  43.367  17.488   7.010
 5929POPC   C4B74878  43.439  17.916   7.248
 5930POPC   NC374879  40.897  31.903   5.624
 5930POPC   PO474880  41.106  31.260   5.336
 5930POPC   GL174881  41.031  31.358   5.779
 5930POPC   GL274882  40.726  31.479   5.884
 5930POPC   C1A74883  41.134  31.453   6.237
 5930POPC   D2A74884  41.277  31.437   6.689
 5930POPC   C3A74885  40.905  31.505   6.968
 5930POPC   C4A74886  40.477  31.384   7.150
 5930POPC   C1B74887  40.644  31.719   6.271
 5930POPC   C2B74888  40.558  31.959   6.663
 5930POPC   C3B74889  40.582  31.870   7.113
 5930POPC   C4B74890  40.956  31.830   7.381
 5931POPC   NC374891  30.043  33.129   5.399
 5931POPC   PO474892  30.100  32.503   5.459
 5931POPC   GL174893  29.916  32.824   5.792
 5931POPC   GL274894  30.211  32.929   5.890
 5931POPC   C1A74895  29.912  33.150   6.218
 5931POPC   D2A74896  30.094  33.416   6.573
 5931POPC   C3A74897  30.092  33.263   7.006
 5931POPC   C4A74898  29.842  33.065   7.362
 5931POPC   C1B74899  29.988  32.652   6.269
 5931POPC   C2B74900  30.046  32.817   6.706
 5931POPC   C3B74901  30.220  32.786   7.133
 5931POPC   C4B74902  30.093  32.586   7.509
 5932POPC   NC374903  14.062   9.233   5.097
 5932POPC   PO474904  14.527   8.845   5.357
 5932POPC   GL174905  14.335   9.010   5.749
 5932POPC   GL274906  14.314   8.691   5.981
 5932POPC   C1A74907  14.084   9.116   6.126
 5932POPC   D2A74908  14.345   9.218   6.460
 5932POPC   C3A74909  14.256   9.228   6.864
 5932POPC   C4A74910  14.405   9.318   7.255
 5932POPC   C1B74911  14.376   8.545   6.455
 5932POPC   C2B74912  14.726   8.425   6.788
 5932POPC   C3B74913  14.655   8.513   7.241
 5932POPC   C4B74914  14.326   8.824   7.371
 5933POPC   NC374915   2.588   1.130   5.307
 5933POPC   PO474916   2.956   0.690   5.260
 5933POPC   GL174917   2.845   0.947   5.718
 5933POPC   GL274918   2.518   1.102   5.840
 5933POPC   C1A74919   2.982   1.242   6.069
 5933POPC   D2A74920   3.117   1.168   6.454
 5933POPC   C3A74921   2.915   1.240   6.824
 5933POPC   C4A74922   2.987   1.189   7.243
 5933POPC   C1B74923   2.567   1.051   6.296
 5933POPC   C2B74924   2.424   1.183   6.696
 5933POPC   C3B74925   2.503   1.029   7.143
 5933POPC   C4B74926   2.707   0.882   7.567
 5934POPC   NC374927  19.820   6.299   5.433
 5934POPC   PO474928  19.719   6.979   5.417
 5934POPC   GL174929  19.741   6.831   5.834
 5934POPC   GL274930  19.603   6.533   5.818
 5934POPC   C1A74931  19.813   6.659   6.264
 5934POPC   D2A74932  19.937   6.797   6.658
 5934POPC   C3A74933  20.083   6.526   6.963
 5934POPC   C4A74934  19.807   6.676   7.236
 5934POPC   C1B74935  19.350   6.434   6.153
 5934POPC   C2B74936  19.315   6.378   6.569
 5934POPC   C3B74937  19.412   6.571   6.939
 5934POPC   C4B74938  19.354   6.412   7.344
 5935POPC   NC374939  15.905  41.118   5.058
 5935POPC   PO474940  15.749  40.530   5.411
 5935POPC   GL174941  15.847  40.502   5.879
 5935POPC   GL274942  15.523  40.667   5.919
 5935POPC   C1A74943  16.074  40.686   6.300
 5935POPC   D2A74944  16.222  40.881   6.744
 5935POPC   C3A74945  16.005  40.771   7.144
 5935POPC   C4A74946  16.122  40.946   7.582
 5935POPC   C1B74947  15.665  40.999   6.215
 5935POPC   C2B74948  15.720  40.936   6.644
 5935POPC   C3B74949  15.646  41.144   7.009
 5935POPC   C4B74950  15.633  40.988   7.408
 5936POPC   NC374951  14.738   4.412   5.213
 5936POPC   PO474952  14.121   4.492   5.353
 5936POPC   GL174953  14.328   4.229   5.658
 5936POPC   GL274954  14.668   4.198   5.730
 5936POPC   C1A74955  14.369   4.386   6.083
 5936POPC   D2A74956  14.371   4.320   6.539
 5936POPC   C3A74957  14.604   4.512   6.877
 5936POPC   C4A74958  14.568   4.455   7.292
 5936POPC   C1B74959  14.582   3.936   6.101
 5936POPC   C2B74960  14.668   3.892   6.527
 5936POPC   C3B74961  14.588   4.000   6.951
 5936POPC   C4B74962  14.707   3.999   7.388
 5937POPC   NC374963  41.459   0.927   5.533
 5937POPC   PO474964  41.895   1.455   5.495
 5937POPC   GL174965  41.678   1.274   5.840
 5937POPC   GL274966  41.906   1.005   5.851
 5937POPC   C1A74967  41.307   1.250   6.155
 5937POPC   D2A74968  41.248   1.482   6.542
 5937POPC   C3A74969  41.477   1.395   6.944
 5937POPC   C4A74970  41.495   1.100   7.283
 5937POPC   C1B74971  41.665   0.892   6.193
 5937POPC   C2B74972  41.570   1.039   6.592
 5937POPC   C3B74973  41.841   0.993   6.947
 5937POPC   C4B74974  42.135   0.936   7.268
 5938POPC   NC374975  33.503   0.359   5.428
 5938POPC   PO474976  34.135   0.618   5.323
 5938POPC   GL174977  33.978   0.493   5.711
 5938POPC   GL274978  33.694   0.692   5.791
 5938POPC   C1A74979  34.076   0.552   6.140
 5938POPC   D2A74980  33.897   0.453   6.540
 5938POPC   C3A74981  34.079   0.576   6.900
 5938POPC   C4A74982  33.947   0.261   7.133
 5938POPC   C1B74983  33.552   0.587   6.171
 5938POPC   C2B74984  33.536   0.798   6.548
 5938POPC   C3B74985  33.524   0.577   6.925
 5938POPC   C4B74986  33.679   0.636   7.321
 5939POPC   NC374987  35.423  10.079   5.123
 5939POPC   PO474988  35.392  10.708   5.403
 5939POPC   GL174989  35.372  10.708   5.807
 5939POPC   GL274990  35.153  10.443   5.859
 5939POPC   C1A74991  35.532  10.524   6.190
 5939POPC   D2A74992  35.671  10.715   6.545
 5939POPC   C3A74993  35.601  10.488   6.918
 5939POPC   C4A74994  35.508  10.738   7.282
 5939POPC   C1B74995  35.034  10.693   6.185
 5939POPC   C2B74996  35.178  10.530   6.580
 5939POPC   C3B74997  35.089  10.662   6.983
 5939POPC   C4B74998  34.852  10.747   7.349
 5940POPC   NC374999  27.447  43.775   5.556
 5940POPC   PO475000  27.663  44.368   5.411
 5940POPC   GL175001  27.655  44.205   5.822
 5940POPC   GL275002  27.917  43.929   5.809
 5940POPC   C1A75003  27.676  44.074   6.259
 5940POPC   D2A75004  27.581  43.785   6.575
 5940POPC   C3A75005  27.650  43.978   6.974
 5940POPC   C4A75006  27.358  44.013   7.247
 5940POPC   C1B75007  27.952  43.656   6.186
 5940POPC   C2B75008  27.905  43.378   6.553
 5940POPC   C3B75009  27.746  43.484   6.967
 5940POPC   C4B75010  27.741  43.593   7.404
 5941POPC   NC375011  11.152   6.502   5.498
 5941POPC   PO475012  11.779   6.558   5.305
 5941POPC   GL175013  11.575   6.685   5.724
 5941POPC   GL275014  11.330   6.961   5.723
 5941POPC   C1A75015  11.473   6.631   6.178
 5941POPC   D2A75016  11.687   6.604   6.597
 5941POPC   C3A75017  11.434   6.589   6.994
 5941POPC   C4A75018  11.240   6.377   7.379
 5941POPC   C1B75019  11.230   7.092   6.145
 5941POPC   C2B75020  11.269   6.931   6.581
 5941POPC   C3B75021  11.188   7.051   7.001
 5941POPC   C4B75022  10.951   6.795   7.244
 5942POPC   NC375023  13.447  24.281   5.455
 5942POPC   PO475024  13.882  24.832   5.243
 5942POPC   GL175025  13.840  24.596   5.691
 5942POPC   GL275026  13.776  24.221   5.821
 5942POPC   C1A75027  13.805  24.650   6.159
 5942POPC   D2A75028  13.539  24.607   6.547
 5942POPC   C3A75029  13.810  24.634   6.896
 5942POPC   C4A75030  13.760  24.670   7.290
 5942POPC   C1B75031  13.558  24.193   6.221
 5942POPC   C2B75032  13.586  24.053   6.658
 5942POPC   C3B75033  13.490  24.265   7.062
 5942POPC   C4B75034  13.226  24.536   7.308
 5943POPC   NC375035  24.690  25.513   5.396
 5943POPC   PO475036  24.258  25.001   5.470
 5943POPC   GL175037  24.550  25.157   5.774
 5943POPC   GL275038  24.451  25.486   5.845
 5943POPC   C1A75039  24.526  24.998   6.186
 5943POPC   D2A75040  24.284  25.092   6.530
 5943POPC   C3A75041  24.534  25.212   6.840
 5943POPC   C4A75042  24.524  24.984   7.221
 5943POPC   C1B75043  24.454  25.506   6.264
 5943POPC   C2B75044  24.276  25.715   6.588
 5943POPC   C3B75045  24.227  25.633   6.987
 5943POPC   C4B75046  24.569  25.525   7.241
 5944POPC   NC375047  10.950   7.305   5.524
 5944POPC   PO475048  11.565   7.332   5.462
 5944POPC   GL175049  11.381   7.546   5.796
 5944POPC   GL275050  11.078   7.736   5.807
 5944POPC   C1A75051  11.405   7.564   6.231
 5944POPC   D2A75052  11.164   7.430   6.574
 5944POPC   C3A75053  11.420   7.498   6.896
 5944POPC   C4A75054  11.528   7.314   7.275
 5944POPC   C1B75055  11.054   7.928   6.195
 5944POPC   C2B75056  11.266   7.949   6.571
 5944POPC   C3B75057  11.094   7.892   6.966
 5944POPC   C4B75058  11.102   7.605   7.290
 5945POPC   NC375059   7.868  17.302   5.491
 5945POPC   PO475060   7.299  17.715   5.580
 5945POPC   GL175061   7.311  17.495   5.951
 5945POPC   GL275062   7.615  17.421   5.905
 5945POPC   C1A75063   7.266  17.559   6.421
 5945POPC   D2A75064   7.300  17.676   6.861
 5945POPC   C3A75065   7.468  17.404   7.182
 5945POPC   C4A75066   7.313  17.342   7.599
 5945POPC   C1B75067   7.703  17.754   6.187
 5945POPC   C2B75068   7.732  17.910   6.609
 5945POPC   C3B75069   7.823  17.871   7.046
 5945POPC   C4B75070   7.636  17.802   7.450
 5946POPC   NC375071  39.966  31.264   5.434
 5946POPC   PO475072  40.558  31.710   5.351
 5946POPC   GL175073  40.257  31.604   5.727
 5946POPC   GL275074  40.266  31.231   5.859
 5946POPC   C1A75075  40.139  31.616   6.191
 5946POPC   D2A75076  40.300  31.498   6.622
 5946POPC   C3A75077  40.050  31.704   6.948
 5946POPC   C4A75078  39.760  31.499   7.244
 5946POPC   C1B75079  39.862  31.157   6.102
 5946POPC   C2B75080  39.639  31.007   6.479
 5946POPC   C3B75081  39.770  31.089   6.905
 5946POPC   C4B75082  40.059  31.096   7.244
 5947POPC   NC375083  16.242   6.767   5.014
 5947POPC   PO475084  16.830   6.690   5.358
 5947POPC   GL175085  16.798   6.652   5.806
 5947POPC   GL275086  17.022   6.414   5.803
 5947POPC   C1A75087  16.644   6.773   6.229
 5947POPC   D2A75088  16.486   6.979   6.601
 5947POPC   C3A75089  16.529   6.715   6.951
 5947POPC   C4A75090  16.690   6.734   7.336
 5947POPC   C1B75091  17.091   6.497   6.235
 5947POPC   C2B75092  16.921   6.409   6.629
 5947POPC   C3B75093  17.023   6.418   7.059
 5947POPC   C4B75094  16.850   6.255   7.426
 5948POPC   NC375095  15.123  42.459   5.307
 5948POPC   PO475096  15.566  42.018   5.548
 5948POPC   GL175097  15.309  42.327   5.787
 5948POPC   GL275098  14.933  42.257   5.864
 5948POPC   C1A75099  15.409  42.509   6.193
 5948POPC   D2A75100  15.549  42.297   6.587
 5948POPC   C3A75101  15.313  42.338   6.972
 5948POPC   C4A75102  15.337  42.476   7.389
 5948POPC   C1B75103  14.902  42.417   6.327
 5948POPC   C2B75104  14.862  42.448   6.807
 5948POPC   C3B75105  14.842  42.361   7.258
 5948POPC   C4B75106  14.724  42.043   7.569
 5949POPC   NC375107  21.638  15.003   5.434
 5949POPC   PO475108  21.052  15.451   5.460
 5949POPC   GL175109  21.372  15.311   5.757
 5949POPC   GL275110  21.214  14.983   5.765
 5949POPC   C1A75111  21.536  15.068   6.139
 5949POPC   D2A75112  21.285  14.973   6.511
 5949POPC   C3A75113  21.433  15.194   6.825
 5949POPC   C4A75114  21.664  15.288   7.196
 5949POPC   C1B75115  20.943  14.824   6.116
 5949POPC   C2B75116  20.940  14.597   6.533
 5949POPC   C3B75117  20.951  14.788   6.946
 5949POPC   C4B75118  21.283  14.906   7.209
 5950POPC   NC375119  14.289  17.994   5.367
 5950POPC   PO475120  14.623  18.633   5.337
 5950POPC   GL175121  14.507  18.375   5.711
 5950POPC   GL275122  14.339  18.101   5.856
 5950POPC   C1A75123  14.677  18.390   6.161
 5950POPC   D2A75124  14.561  18.485   6.607
 5950POPC   C3A75125  14.482  18.303   7.021
 5950POPC   C4A75126  14.106  18.051   7.161
 5950POPC   C1B75127  14.486  17.923   6.237
 5950POPC   C2B75128  14.614  17.951   6.670
 5950POPC   C3B75129  14.538  17.775   7.083
 5950POPC   C4B75130  14.416  17.851   7.524
 5951POPC   NC375131  22.451  35.319   5.363
 5951POPC   PO475132  21.848  35.145   5.535
 5951POPC   GL175133  22.206  35.274   5.808
 5951POPC   GL275134  22.474  35.541   5.826
 5951POPC   C1A75135  22.407  35.169   6.199
 5951POPC   D2A75136  22.176  35.263   6.574
 5951POPC   C3A75137  22.427  35.152   6.922
 5951POPC   C4A75138  22.396  35.260   7.342
 5951POPC   C1B75139  22.190  35.627   6.170
 5951POPC   C2B75140  22.186  35.769   6.582
 5951POPC   C3B75141  22.209  35.611   7.000
 5951POPC   C4B75142  21.998  35.767   7.360
 5952POPC   NC375143   1.413   6.509   5.369
 5952POPC   PO475144   0.899   6.963   5.418
 5952POPC   GL175145   1.030   6.777   5.805
 5952POPC   GL275146   1.375   6.836   5.767
 5952POPC   C1A75147   1.173   6.881   6.248
 5952POPC   D2A75148   1.160   6.594   6.583
 5952POPC   C3A75149   0.981   6.601   6.963
 5952POPC   C4A75150   1.151   6.724   7.306
 5952POPC   C1B75151   1.368   6.461   6.053
 5952POPC   C2B75152   1.631   6.608   6.375
 5952POPC   C3B75153   1.630   6.669   6.816
 5952POPC   C4B75154   1.468   6.400   7.088
 5953POPC   NC375155  42.245  16.207   4.936
 5953POPC   PO475156  42.159  15.988   5.544
 5953POPC   GL175157  42.150  15.778   5.868
 5953POPC   GL275158  41.810  15.661   5.888
 5953POPC   C1A75159  42.373  15.881   6.229
 5953POPC   D2A75160  42.247  16.125   6.604
 5953POPC   C3A75161  42.412  15.974   6.988
 5953POPC   C4A75162  42.277  16.096   7.395
 5953POPC   C1B75163  41.966  15.562   6.293
 5953POPC   C2B75164  42.222  15.602   6.633
 5953POPC   C3B75165  42.073  15.587   7.046
 5953POPC   C4B75166  42.387  15.597   7.352
 5954POPC   NC375167  44.026  35.701   5.489
 5954POPC   PO475168  43.835  35.146   5.386
 5954POPC   GL175169  44.080  35.182   5.737
 5954POPC   GL275170  44.072  35.480   5.970
 5954POPC   C1A75171  44.052  34.971   6.121
 5954POPC   D2A75172  44.118  35.069   6.528
 5954POPC   C3A75173  43.807  35.265   6.755
 5954POPC   C4A75174  43.764  35.288   7.254
 5954POPC   C1B75175  43.755  35.777   6.150
 5954POPC   C2B75176  43.613  35.719   6.581
 5954POPC   C3B75177  43.867  35.725   6.989
 5954POPC   C4B75178  44.155  35.946   7.281
 5955POPC   NC375179  15.781   6.108   5.298
 5955POPC   PO475180  15.561   5.462   5.319
 5955POPC   GL175181  15.570   5.788   5.665
 5955POPC   GL275182  15.929   5.876   5.763
 5955POPC   C1A75183  15.554   5.962   6.093
 5955POPC   D2A75184  15.702   5.869   6.495
 5955POPC   C3A75185  15.677   5.930   6.934
 5955POPC   C4A75186  15.768   5.723   7.346
 5955POPC   C1B75187  16.081   6.066   6.185
 5955POPC   C2B75188  16.191   5.945   6.641
 5955POPC   C3B75189  16.188   5.831   7.092
 5955POPC   C4B75190  16.229   5.470   7.420
 5956POPC   NC375191  32.381   2.375   5.504
 5956POPC   PO475192  31.946   2.947   5.386
 5956POPC   GL175193  32.207   2.801   5.767
 5956POPC   GL275194  32.573   2.697   5.856
 5956POPC   C1A75195  32.222   3.023   6.136
 5956POPC   D2A75196  32.173   3.077   6.561
 5956POPC   C3A75197  32.443   2.880   6.856
 5956POPC   C4A75198  32.403   3.009   7.273
 5956POPC   C1B75199  32.509   2.669   6.322
 5956POPC   C2B75200  32.203   2.492   6.613
 5956POPC   C3B75201  32.340   2.354   7.003
 5956POPC   C4B75202  32.677   2.559   7.218
 5957POPC   NC375203  30.175  38.689   5.672
 5957POPC   PO475204  29.717  38.192   5.513
 5957POPC   GL175205  29.791  38.407   5.918
 5957POPC   GL275206  30.135  38.274   5.962
 5957POPC   C1A75207  29.996  38.612   6.321
 5957POPC   D2A75208  30.250  38.610   6.714
 5957POPC   C3A75209  29.987  38.728   7.071
 5957POPC   C4A75210  29.950  38.529   7.473
 5957POPC   C1B75211  30.354  38.212   6.352
 5957POPC   C2B75212  30.322  38.076   6.774
 5957POPC   C3B75213  30.274  38.235   7.184
 5957POPC   C4B75214  30.383  38.308   7.630
 5958POPC   NC375215  23.107  24.980   5.464
 5958POPC   PO475216  22.662  25.527   5.371
 5958POPC   GL175217  22.826  25.477   5.804
 5958POPC   GL275218  22.958  25.149   5.907
 5958POPC   C1A75219  23.120  25.553   6.160
 5958POPC   D2A75220  23.348  25.493   6.561
 5958POPC   C3A75221  23.111  25.496   6.976
 5958POPC   C4A75222  22.772  25.272   7.221
 5958POPC   C1B75223  22.776  24.858   6.186
 5958POPC   C2B75224  22.653  24.810   6.586
 5958POPC   C3B75225  22.875  24.847   6.932
 5958POPC   C4B75226  22.631  24.761   7.257
 5959POPC   NC375227  36.870  31.436   5.321
 5959POPC   PO475228  37.380  31.520   5.105
 5959POPC   GL175229  37.243  31.386   5.635
 5959POPC   GL275230  37.030  31.610   5.934
 5959POPC   C1A75231  37.254  31.196   6.081
 5959POPC   D2A75232  36.898  31.084   6.386
 5959POPC   C3A75233  36.765  31.165   6.825
 5959POPC   C4A75234  36.892  31.267   7.215
 5959POPC   C1B75235  36.760  31.637   6.366
 5959POPC   C2B75236  36.755  31.679   6.862
 5959POPC   C3B75237  36.571  31.680   7.309
 5959POPC   C4B75238  36.381  31.632   7.752
 5960POPC   NC375239  13.370  35.901   5.489
 5960POPC   PO475240  13.778  36.405   5.539
 5960POPC   GL175241  13.763  36.060   5.859
 5960POPC   GL275242  13.521  35.835   6.005
 5960POPC   C1A75243  13.870  36.025   6.316
 5960POPC   D2A75244  13.940  36.387   6.586
 5960POPC   C3A75245  13.869  36.287   7.008
 5960POPC   C4A75246  13.470  36.278   7.182
 5960POPC   C1B75247  13.270  35.529   6.253
 5960POPC   C2B75248  13.375  35.366   6.644
 5960POPC   C3B75249  13.649  35.578   6.898
 5960POPC   C4B75250  13.431  35.777   7.213
 5961POPC   NC375251   4.747  44.466   5.306
 5961POPC   PO475252   5.319  44.324   5.555
 5961POPC   GL175253   4.984  44.334   5.818
 5961POPC   GL275254   4.887  44.660   5.851
 5961POPC   C1A75255   5.115  44.278   6.237
 5961POPC   D2A75256   5.307  44.456   6.595
 5961POPC   C3A75257   5.077  44.607   6.967
 5961POPC   C4A75258   5.161  44.388   7.368
 5961POPC   C1B75259   4.933  44.756   6.294
 5961POPC   C2B75260   4.827   0.022   6.660
 5961POPC   C3B75261   4.705   0.017   7.113
 5961POPC   C4B75262   4.907  44.834   7.479
 5962POPC   NC375263  14.005   7.832   5.516
 5962POPC   PO475264  13.626   8.431   5.486
 5962POPC   GL175265  13.538   8.218   5.876
 5962POPC   GL275266  13.446   8.542   5.970
 5962POPC   C1A75267  13.685   8.007   6.287
 5962POPC   D2A75268  13.848   7.811   6.694
 5962POPC   C3A75269  13.853   8.077   7.086
 5962POPC   C4A75270  13.707   8.029   7.551
 5962POPC   C1B75271  13.432   8.443   6.385
 5962POPC   C2B75272  13.503   8.682   6.757
 5962POPC   C3B75273  13.544   8.479   7.118
 5962POPC   C4B75274  13.299   8.104   7.247
 5963POPC   NC375275  38.595  13.181   5.308
 5963POPC   PO475276  38.193  12.683   5.500
 5963POPC   GL175277  38.386  12.774   5.900
 5963POPC   GL275278  38.746  12.762   5.764
 5963POPC   C1A75279  38.206  12.832   6.333
 5963POPC   D2A75280  38.245  13.175   6.633
 5963POPC   C3A75281  38.211  13.057   7.052
 5963POPC   C4A75282  38.576  13.169   7.309
 5963POPC   C1B75283  38.788  12.506   6.150
 5963POPC   C2B75284  38.621  12.590   6.558
 5963POPC   C3B75285  38.596  12.725   6.968
 5963POPC   C4B75286  38.870  12.755   7.290
 5964POPC   NC375287   7.573  27.794   5.648
 5964POPC   PO475288   8.232  27.667   5.463
 5964POPC   GL175289   8.167  27.757   5.867
 5964POPC   GL275290   8.517  27.854   5.983
 5964POPC   C1A75291   8.127  27.515   6.277
 5964POPC   D2A75292   8.427  27.568   6.630
 5964POPC   C3A75293   8.281  27.359   7.019
 5964POPC   C4A75294   7.866  27.241   7.162
 5964POPC   C1B75295   8.184  28.008   6.299
 5964POPC   C2B75296   8.104  27.953   6.707
 5964POPC   C3B75297   8.222  27.852   7.094
 5964POPC   C4B75298   8.466  27.918   7.439
 5965POPC   NC375299  22.311  25.233   5.253
 5965POPC   PO475300  21.893  25.686   5.533
 5965POPC   GL175301  22.187  25.457   5.817
 5965POPC   GL275302  22.442  25.200   5.963
 5965POPC   C1A75303  22.042  25.328   6.223
 5965POPC   D2A75304  22.001  25.063   6.544
 5965POPC   C3A75305  21.808  25.356   6.820
 5965POPC   C4A75306  21.823  25.352   7.251
 5965POPC   C1B75307  22.642  25.403   6.291
 5965POPC   C2B75308  22.695  25.322   6.703
 5965POPC   C3B75309  22.357  25.141   6.918
 5965POPC   C4B75310  22.273  25.108   7.315
 5966POPC   NC375311  24.410  34.839   5.564
 5966POPC   PO475312  24.775  34.311   5.408
 5966POPC   GL175313  24.648  34.444   5.828
 5966POPC   GL275314  24.289  34.367   5.829
 5966POPC   C1A75315  24.695  34.472   6.300
 5966POPC   D2A75316  24.468  34.680   6.648
 5966POPC   C3A75317  24.573  34.567   7.035
 5966POPC   C4A75318  24.541  34.229   7.263
 5966POPC   C1B75319  24.265  34.696   6.177
 5966POPC   C2B75320  24.046  34.921   6.458
 5966POPC   C3B75321  24.018  34.829   6.872
 5966POPC   C4B75322  24.254  34.890   7.243
 5967POPC   NC375323  34.104  41.484   5.330
 5967POPC   PO475324  33.653  41.946   5.574
 5967POPC   GL175325  33.812  41.617   5.773
 5967POPC   GL275326  33.494  41.548   5.908
 5967POPC   C1A75327  33.952  41.524   6.192
 5967POPC   D2A75328  33.900  41.751   6.595
 5967POPC   C3A75329  34.029  41.534   6.970
 5967POPC   C4A75330  33.955  41.708   7.399
 5967POPC   C1B75331  33.463  41.613   6.324
 5967POPC   C2B75332  33.623  41.313   6.598
 5967POPC   C3B75333  33.547  41.118   6.963
 5967POPC   C4B75334  33.603  41.399   7.242
 5968POPC   NC375335   7.569  10.912   5.375
 5968POPC   PO475336   7.382  11.556   5.298
 5968POPC   GL175337   7.294  11.313   5.690
 5968POPC   GL275338   7.635  11.290   5.782
 5968POPC   C1A75339   7.232  11.272   6.171
 5968POPC   D2A75340   7.251  11.092   6.608
 5968POPC   C3A75341   7.207  11.275   6.995
 5968POPC   C4A75342   7.283  11.361   7.402
 5968POPC   C1B75343   7.707  11.467   6.213
 5968POPC   C2B75344   7.727  11.308   6.644
 5968POPC   C3B75345   7.670  11.480   7.044
 5968POPC   C4B75346   7.624  11.725   7.408
 5969POPC   NC375347  21.384  25.573   5.409
 5969POPC   PO475348  21.860  25.065   5.315
 5969POPC   GL175349  21.694  25.200   5.738
 5969POPC   GL275350  21.646  25.491   5.921
 5969POPC   C1A75351  21.641  25.014   6.173
 5969POPC   D2A75352  21.402  25.129   6.538
 5969POPC   C3A75353  21.377  25.052   6.970
 5969POPC   C4A75354  21.078  25.041   7.298
 5969POPC   C1B75355  21.581  25.573   6.348
 5969POPC   C2B75356  21.207  25.616   6.622
 5969POPC   C3B75357  21.003  25.479   6.985
 5969POPC   C4B75358  21.333  25.486   7.247
 5970POPC   NC375359  33.546  18.188   5.542
 5970POPC   PO475360  34.152  18.414   5.595
 5970POPC   GL175361  33.977  18.148   5.892
 5970POPC   GL275362  33.891  17.839   5.711
 5970POPC   C1A75363  33.820  18.329   6.302
 5970POPC   D2A75364  33.581  18.450   6.678
 5970POPC   C3A75365  33.632  18.679   7.074
 5970POPC   C4A75366  33.426  18.468   7.453
 5970POPC   C1B75367  33.677  17.794   6.119
 5970POPC   C2B75368  33.827  17.867   6.536
 5970POPC   C3B75369  33.628  17.972   6.908
 5970POPC   C4B75370  33.781  18.205   7.227
 5971POPC   NC375371   5.434  43.903   5.403
 5971POPC   PO475372   4.737  44.008   5.312
 5971POPC   GL175373   4.912  43.819   5.719
 5971POPC   GL275374   5.255  43.898   5.872
 5971POPC   C1A75375   4.825  43.856   6.174
 5971POPC   D2A75376   4.791  44.065   6.579
 5971POPC   C3A75377   5.093  44.039   6.932
 5971POPC   C4A75378   4.961  43.903   7.349
 5971POPC   C1B75379   5.283  43.617   6.218
 5971POPC   C2B75380   5.092  43.573   6.641
 5971POPC   C3B75381   5.288  43.523   7.084
 5971POPC   C4B75382   5.315  43.590   7.563
 5972POPC   NC375383  13.963  25.834   5.532
 5972POPC   PO475384  14.494  26.196   5.553
 5972POPC   GL175385  14.271  26.077   5.872
 5972POPC   GL275386  14.427  26.314   6.059
 5972POPC   C1A75387  14.073  25.996   6.258
 5972POPC   D2A75388  14.370  25.963   6.574
 5972POPC   C3A75389  14.303  26.112   6.963
 5972POPC   C4A75390  13.890  26.193   7.130
 5972POPC   C1B75391  14.792  26.383   6.325
 5972POPC   C2B75392  14.810  26.167   6.692
 5972POPC   C3B75393  14.802  26.356   7.050
 5972POPC   C4B75394  14.649  26.216   7.398
 5973POPC   NC375395  30.042  39.477   5.416
 5973POPC   PO475396  29.763  38.903   5.732
 5973POPC   GL175397  29.897  39.260   5.888
 5973POPC   GL275398  30.235  39.193   5.802
 5973POPC   C1A75399  29.796  39.407   6.311
 5973POPC   D2A75400  29.745  39.522   6.751
 5973POPC   C3A75401  29.715  39.285   7.142
 5973POPC   C4A75402  29.625  39.428   7.579
 5973POPC   C1B75403  30.236  39.109   6.242
 5973POPC   C2B75404  30.043  39.089   6.638
 5973POPC   C3B75405  30.197  39.298   6.962
 5973POPC   C4B75406  30.443  39.226   7.244
 5974POPC   NC375407  40.973   9.311   5.604
 5974POPC   PO475408  41.146   8.694   5.440
 5974POPC   GL175409  40.948   8.837   5.797
 5974POPC   GL275410  40.951   8.540   5.911
 5974POPC   C1A75411  40.731   8.981   6.157
 5974POPC   D2A75412  40.552   9.189   6.510
 5974POPC   C3A75413  40.881   9.246   6.829
 5974POPC   C4A75414  40.863   9.285   7.267
 5974POPC   C1B75415  41.038   8.573   6.307
 5974POPC   C2B75416  40.779   8.732   6.596
 5974POPC   C3B75417  40.576   8.847   6.928
 5974POPC   C4B75418  40.844   8.804   7.203
 5975POPC   NC375419  23.128  37.667   5.404
 5975POPC   PO475420  22.407  37.477   5.379
 5975POPC   GL175421  22.732  37.617   5.699
 5975POPC   GL275422  22.950  37.325   5.750
 5975POPC   C1A75423  23.020  37.721   6.081
 5975POPC   D2A75424  22.941  37.885   6.512
 5975POPC   C3A75425  23.118  37.772   6.904
 5975POPC   C4A75426  22.957  37.902   7.320
 5975POPC   C1B75427  22.690  37.277   6.088
 5975POPC   C2B75428  22.639  37.203   6.509
 5975POPC   C3B75429  22.746  37.378   6.892
 5975POPC   C4B75430  22.981  37.417   7.249
 5976POPC   NC375431  35.018   4.713   5.610
 5976POPC   PO475432  35.549   4.260   5.403
 5976POPC   GL175433  35.493   4.270   5.849
 5976POPC   GL275434  35.430   4.557   5.851
 5976POPC   C1A75435  35.434   4.135   6.298
 5976POPC   D2A75436  35.607   3.971   6.717
 5976POPC   C3A75437  35.412   4.173   7.085
 5976POPC   C4A75438  35.112   3.993   7.360
 5976POPC   C1B75439  35.559   4.642   6.231
 5976POPC   C2B75440  35.455   4.526   6.670
 5976POPC   C3B75441  35.164   4.630   7.035
 5976POPC   C4B75442  35.133   4.509   7.477
 5977POPC   NC375443  36.052  14.200   5.584
 5977POPC   PO475444  35.953  14.845   5.470
 5977POPC   GL175445  36.161  14.670   5.822
 5977POPC   GL275446  36.456  14.432   5.883
 5977POPC   C1A75447  36.022  14.460   6.182
 5977POPC   D2A75448  36.147  14.498   6.566
 5977POPC   C3A75449  35.963  14.291   6.879
 5977POPC   C4A75450  36.088  14.283   7.256
 5977POPC   C1B75451  36.417  14.130   6.266
 5977POPC   C2B75452  36.435  14.103   6.729
 5977POPC   C3B75453  36.555  14.168   7.158
 5977POPC   C4B75454  36.387  14.093   7.638
 5978POPC   NC375455  25.725  28.676   5.568
 5978POPC   PO475456  25.118  28.457   5.392
 5978POPC   GL175457  25.335  28.413   5.762
 5978POPC   GL275458  25.265  28.741   5.803
 5978POPC   C1A75459  25.272  28.183   6.128
 5978POPC   D2A75460  25.065  28.189   6.511
 5978POPC   C3A75461  25.047  28.415   6.898
 5978POPC   C4A75462  25.234  28.276   7.269
 5978POPC   C1B75463  25.262  28.683   6.231
 5978POPC   C2B75464  25.289  28.793   6.645
 5978POPC   C3B75465  25.441  28.700   7.054
 5978POPC   C4B75466  25.216  28.753   7.425
 5979POPC   NC375467  20.753  34.956   5.537
 5979POPC   PO475468  20.777  34.278   5.320
 5979POPC   GL175469  20.667  34.318   5.782
 5979POPC   GL275470  20.627  34.642   5.927
 5979POPC   C1A75471  20.616  34.248   6.237
 5979POPC   D2A75472  20.690  34.412   6.638
 5979POPC   C3A75473  20.643  34.244   7.060
 5979POPC   C4A75474  20.317  34.522   7.200
 5979POPC   C1B75475  20.954  34.710   6.251
 5979POPC   C2B75476  20.920  34.862   6.700
 5979POPC   C3B75477  20.877  34.977   7.137
 5979POPC   C4B75478  20.954  34.837   7.552
 5980POPC   NC375479  43.285  25.292   5.304
 5980POPC   PO475480  43.003  24.846   5.655
 5980POPC   GL175481  43.071  25.322   5.763
 5980POPC   GL275482  43.347  25.631   5.717
 5980POPC   C1A75483  43.200  25.365   6.147
 5980POPC   D2A75484  43.055  25.115   6.505
 5980POPC   C3A75485  42.938  25.295   6.912
 5980POPC   C4A75486  42.923  25.107   7.331
 5980POPC   C1B75487  43.515  25.772   6.129
 5980POPC   C2B75488  43.423  25.561   6.541
 5980POPC   C3B75489  43.397  25.647   6.934
 5980POPC   C4B75490  43.359  25.374   7.227
 5981POPC   NC375491  19.005   4.806   5.464
 5981POPC   PO475492  19.145   5.387   5.200
 5981POPC   GL175493  19.225   5.247   5.645
 5981POPC   GL275494  18.885   5.174   5.800
 5981POPC   C1A75495  19.318   5.167   6.116
 5981POPC   D2A75496  19.087   5.226   6.523
 5981POPC   C3A75497  19.185   5.115   6.968
 5981POPC   C4A75498  19.062   5.400   7.332
 5981POPC   C1B75499  18.870   4.860   6.149
 5981POPC   C2B75500  18.925   4.707   6.590
 5981POPC   C3B75501  18.736   4.824   6.984
 5981POPC   C4B75502  18.876   4.930   7.377
 5982POPC   NC375503  24.845   2.438   5.613
 5982POPC   PO475504  24.293   2.756   5.290
 5982POPC   GL175505  24.475   2.804   5.701
 5982POPC   GL275506  24.621   3.123   5.672
 5982POPC   C1A75507  24.336   2.860   6.144
 5982POPC   D2A75508  24.206   2.894   6.600
 5982POPC   C3A75509  24.296   2.638   6.967
 5982POPC   C4A75510  24.093   2.263   7.154
 5982POPC   C1B75511  24.820   3.047   6.075
 5982POPC   C2B75512  24.745   2.773   6.433
 5982POPC   C3B75513  24.725   2.909   6.848
 5982POPC   C4B75514  24.762   2.745   7.227
 5983POPC   NC375515  19.962  14.801   5.306
 5983POPC   PO475516  19.772  14.058   5.379
 5983POPC   GL175517  19.930  14.207   5.767
 5983POPC   GL275518  19.629  14.151   5.886
 5983POPC   C1A75519  20.005  14.367   6.200
 5983POPC   D2A75520  20.180  14.368   6.621
 5983POPC   C3A75521  19.982  14.250   6.982
 5983POPC   C4A75522  20.071  14.442   7.335
 5983POPC   C1B75523  19.488  14.399   6.193
 5983POPC   C2B75524  19.621  14.494   6.604
 5983POPC   C3B75525  19.469  14.292   6.944
 5983POPC   C4B75526  19.580  14.221   7.345
 5984POPC   NC375527  34.120  29.986   5.306
 5984POPC   PO475528  34.743  29.746   5.412
 5984POPC   GL175529  34.615  30.041   5.744
 5984POPC   GL275530  34.276  30.058   5.893
 5984POPC   C1A75531  34.780  30.104   6.165
 5984POPC   D2A75532  34.878  30.022   6.595
 5984POPC   C3A75533  34.505  29.943   6.886
 5984POPC   C4A75534  34.183  29.900   7.200
 5984POPC   C1B75535  34.338  29.881   6.306
 5984POPC   C2B75536  34.562  29.580   6.535
 5984POPC   C3B75537  34.866  29.567   6.825
 5984POPC   C4B75538  34.773  29.662   7.240
 5985POPC   NC375539   4.281  38.343   5.157
 5985POPC   PO475540   3.996  38.722   5.608
 5985POPC   GL175541   4.218  38.470   5.919
 5985POPC   GL275542   4.246  38.120   5.855
 5985POPC   C1A75543   4.574  38.393   6.209
 5985POPC   D2A75544   4.779  38.542   6.581
 5985POPC   C3A75545   4.418  38.742   6.778
 5985POPC   C4A75546   4.322  38.871   7.207
 5985POPC   C1B75547   4.124  38.147   6.300
 5985POPC   C2B75548   4.381  38.205   6.666
 5985POPC   C3B75549   4.338  38.344   7.082
 5985POPC   C4B75550   3.947  38.460   7.314
 5986POPC   NC375551   2.592  26.400   5.139
 5986POPC   PO475552   2.907  25.867   5.397
 5986POPC   GL175553   2.618  26.113   5.721
 5986POPC   GL275554   2.864  26.134   6.022
 5986POPC   C1A75555   2.382  26.156   6.144
 5986POPC   D2A75556   2.596  25.954   6.495
 5986POPC   C3A75557   2.526  26.121   6.923
 5986POPC   C4A75558   2.752  26.177   7.285
 5986POPC   C1B75559   3.185  25.841   6.197
 5986POPC   C2B75560   3.166  25.654   6.605
 5986POPC   C3B75561   3.081  25.754   7.043
 5986POPC   C4B75562   3.280  25.952   7.349
 5987POPC   NC375563   8.314  15.699   5.422
 5987POPC   PO475564   7.822  16.108   5.267
 5987POPC   GL175565   7.865  15.896   5.698
 5987POPC   GL275566   8.156  16.067   5.743
 5987POPC   C1A75567   8.023  15.774   6.150
 5987POPC   D2A75568   8.198  15.968   6.548
 5987POPC   C3A75569   8.117  15.852   6.959
 5987POPC   C4A75570   8.410  15.597   7.145
 5987POPC   C1B75571   8.230  16.282   6.122
 5987POPC   C2B75572   8.351  16.467   6.511
 5987POPC   C3B75573   8.325  16.312   6.931
 5987POPC   C4B75574   8.421  16.248   7.351
 5988POPC   NC375575   8.024  31.553   5.338
 5988POPC   PO475576   8.622  31.273   5.465
 5988POPC   GL175577   8.299  31.367   5.785
 5988POPC   GL275578   8.291  31.044   5.931
 5988POPC   C1A75579   8.072  31.507   6.202
 5988POPC   D2A75580   7.860  31.624   6.613
 5988POPC   C3A75581   8.154  31.695   6.944
 5988POPC   C4A75582   8.316  31.444   7.271
 5988POPC   C1B75583   7.909  31.033   6.089
 5988POPC   C2B75584   7.795  31.131   6.515
 5988POPC   C3B75585   8.008  31.206   6.905
 5988POPC   C4B75586   7.865  31.209   7.336
 5989POPC   NC375587   8.617  29.353   5.410
 5989POPC   PO475588   9.140  28.952   5.220
 5989POPC   GL175589   9.060  29.096   5.659
 5989POPC   GL275590   9.008  28.815   5.786
 5989POPC   C1A75591   9.073  29.143   6.177
 5989POPC   D2A75592   8.966  29.350   6.614
 5989POPC   C3A75593   9.055  29.220   7.047
 5989POPC   C4A75594   9.270  29.242   7.456
 5989POPC   C1B75595   8.698  28.785   6.142
 5989POPC   C2B75596   8.669  28.914   6.587
 5989POPC   C3B75597   8.666  28.888   7.053
 5989POPC   C4B75598   8.794  29.116   7.480
 5990POPC   NC375599  34.003  17.365   5.390
 5990POPC   PO475600  33.376  17.743   5.527
 5990POPC   GL175601  33.599  17.396   5.731
 5990POPC   GL275602  33.914  17.366   5.884
 5990POPC   C1A75603  33.461  17.280   6.135
 5990POPC   D2A75604  33.452  17.514   6.505
 5990POPC   C3A75605  33.710  17.458   6.856
 5990POPC   C4A75606  33.484  17.415   7.248
 5990POPC   C1B75607  34.116  17.541   6.203
 5990POPC   C2B75608  34.243  17.560   6.600
 5990POPC   C3B75609  34.177  17.789   6.963
 5990POPC   C4B75610  33.891  17.714   7.279
 5991POPC   NC375611  41.076   5.010   5.221
 5991POPC   PO475612  40.564   5.217   5.473
 5991POPC   GL175613  40.825   5.110   5.798
 5991POPC   GL275614  41.042   4.820   5.702
 5991POPC   C1A75615  40.905   5.253   6.237
 5991POPC   D2A75616  40.667   5.294   6.621
 5991POPC   C3A75617  40.727   5.002   6.938
 5991POPC   C4A75618  40.837   5.214   7.271
 5991POPC   C1B75619  40.888   4.730   6.117
 5991POPC   C2B75620  40.991   4.817   6.538
 5991POPC   C3B75621  41.125   4.702   6.951
 5991POPC   C4B75622  40.892   4.700   7.325
 5992POPC   NC375623  44.038  25.220   5.483
 5992POPC   PO475624  44.039  25.859   5.505
 5992POPC   GL175625  43.846  25.546   5.820
 5992POPC   GL275626  43.616  25.220   5.794
 5992POPC   C1A75627  43.807  25.362   6.242
 5992POPC   D2A75628  44.031  25.275   6.593
 5992POPC   C3A75629  43.848  25.427   6.957
 5992POPC   C4A75630  43.783  25.645   7.355
 5992POPC   C1B75631  43.517  24.963   6.161
 5992POPC   C2B75632  43.558  25.057   6.621
 5992POPC   C3B75633  43.829  24.917   6.981
 5992POPC   C4B75634  43.712  25.023   7.393
 5993POPC   NC375635  24.642  27.340   5.528
 5993POPC   PO475636  24.415  26.657   5.331
 5993POPC   GL175637  24.448  26.754   5.768
 5993POPC   GL275638  24.278  27.067   5.762
 5993POPC   C1A75639  24.563  26.552   6.188
 5993POPC   D2A75640  24.649  26.548   6.632
 5993POPC   C3A75641  24.342  26.683   6.918
 5993POPC   C4A75642  24.340  26.901   7.296
 5993POPC   C1B75643  24.571  27.058   6.142
 5993POPC   C2B75644  24.504  27.090   6.592
 5993POPC   C3B75645  24.766  26.986   6.944
 5993POPC   C4B75646  24.766  27.149   7.345
 5994POPC   NC375647  30.433  11.108   5.559
 5994POPC   PO475648  30.878  11.629   5.583
 5994POPC   GL175649  30.702  11.378   5.919
 5994POPC   GL275650  30.356  11.484   5.951
 5994POPC   C1A75651  30.700  11.122   6.332
 5994POPC   D2A75652  30.962  11.002   6.732
 5994POPC   C3A75653  30.783  11.076   7.152
 5994POPC   C4A75654  30.787  11.437   7.385
 5994POPC   C1B75655  30.558  11.608   6.352
 5994POPC   C2B75656  30.557  11.423   6.788
 5994POPC   C3B75657  30.351  11.517   7.189
 5994POPC   C4B75658  30.360  11.517   7.681
 5995POPC   NC375659  18.639  31.328   5.359
 5995POPC   PO475660  18.321  31.906   5.407
 5995POPC   GL175661  18.193  31.636   5.697
 5995POPC   GL275662  18.518  31.597   5.775
 5995POPC   C1A75663  18.162  31.634   6.153
 5995POPC   D2A75664  18.088  31.865   6.512
 5995POPC   C3A75665  18.083  31.678   6.891
 5995POPC   C4A75666  18.112  31.764   7.330
 5995POPC   C1B75667  18.680  31.615   6.171
 5995POPC   C2B75668  18.504  31.508   6.573
 5995POPC   C3B75669  18.577  31.571   7.019
 5995POPC   C4B75670  18.948  31.463   7.252
 5996POPC   NC375671  39.537  20.130   5.457
 5996POPC   PO475672  39.616  19.441   5.335
 5996POPC   GL175673  39.500  19.684   5.741
 5996POPC   GL275674  39.126  19.780   5.834
 5996POPC   C1A75675  39.493  19.968   6.130
 5996POPC   D2A75676  39.190  19.953   6.494
 5996POPC   C3A75677  39.337  20.080   6.918
 5996POPC   C4A75678  39.143  20.114   7.318
 5996POPC   C1B75679  38.886  19.481   6.072
 5996POPC   C2B75680  39.034  19.374   6.474
 5996POPC   C3B75681  38.978  19.584   6.881
 5996POPC   C4B75682  38.830  19.542   7.300
 5997POPC   NC375683   3.800  39.154   5.547
 5997POPC   PO475684   3.250  39.508   5.484
 5997POPC   GL175685   3.405  39.337   5.891
 5997POPC   GL275686   3.713  39.119   6.033
 5997POPC   C1A75687   3.573  39.512   6.294
 5997POPC   D2A75688   3.664  39.165   6.569
 5997POPC   C3A75689   3.546  39.298   6.951
 5997POPC   C4A75690   3.685  39.310   7.362
 5997POPC   C1B75691   3.952  38.810   6.282
 5997POPC   C2B75692   3.852  38.677   6.708
 5997POPC   C3B75693   3.839  38.907   7.091
 5997POPC   C4B75694   3.890  38.907   7.573
 5998POPC   NC375695  36.446  37.439   5.418
 5998POPC   PO475696  35.987  37.927   5.501
 5998POPC   GL175697  36.242  37.700   5.785
 5998POPC   GL275698  36.052  37.394   5.780
 5998POPC   C1A75699  36.399  37.795   6.176
 5998POPC   D2A75700  36.198  38.029   6.481
 5998POPC   C3A75701  36.322  37.872   6.859
 5998POPC   C4A75702  36.351  37.565   7.183
 5998POPC   C1B75703  35.901  37.699   6.148
 5998POPC   C2B75704  35.772  37.783   6.583
 5998POPC   C3B75705  35.871  37.693   7.033
 5998POPC   C4B75706  35.945  37.693   7.505
 5999POPC   NC375707  29.412  37.614   5.603
 5999POPC   PO475708  28.862  37.683   5.276
 5999POPC   GL175709  28.948  37.968   5.665
 5999POPC   GL275710  29.303  38.107   5.796
 5999POPC   C1A75711  28.905  38.092   6.104
 5999POPC   D2A75712  28.955  37.841   6.488
 5999POPC   C3A75713  28.977  37.891   6.910
 5999POPC   C4A75714  29.040  37.513   7.115
 5999POPC   C1B75715  29.382  37.911   6.220
 5999POPC   C2B75716  29.439  37.952   6.688
 5999POPC   C3B75717  29.535  37.634   7.041
 5999POPC   C4B75718  29.616  37.589   7.507
 6000POPC   NC375719  42.167  17.428   5.588
 6000POPC   PO475720  42.799  17.752   5.522
 6000POPC   GL175721  42.513  17.788   5.839
 6000POPC   GL275722  42.562  17.428   5.953
 6000POPC   C1A75723  42.493  17.802   6.280
 6000POPC   D2A75724  42.248  17.676   6.618
 6000POPC   C3A75725  42.448  17.749   7.015
 6000POPC   C4A75726  42.174  17.649   7.359
 6000POPC   C1B75727  42.264  17.280   6.243
 6000POPC   C2B75728  42.160  17.166   6.661
 6000POPC   C3B75729  42.307  17.268   7.034
 6000POPC   C4B75730  42.604  17.370   7.351
 6001POPC   NC375731  43.915  42.748   5.589
 6001POPC   PO475732  44.111  42.228   5.236
 6001POPC   GL175733  43.867  42.222   5.647
 6001POPC   GL275734  43.547  42.414   5.755
 6001POPC   C1A75735  43.938  42.146   6.100
 6001POPC   D2A75736  44.200  42.386   6.407
 6001POPC   C3A75737  44.004  42.425   6.810
 6001POPC   C4A75738  44.170  42.349   7.192
 6001POPC   C1B75739  43.667  42.620   6.170
 6001POPC   C2B75740  43.716  42.796   6.589
 6001POPC   C3B75741  43.517  42.642   6.968
 6001POPC   C4B75742  43.633  42.239   7.174
 6002POPC   NC375743  41.841   4.967   5.453
 6002POPC   PO475744  41.339   5.415   5.267
 6002POPC   GL175745  41.413   5.169   5.657
 6002POPC   GL275746  41.718   5.293   5.847
 6002POPC   C1A75747  41.359   5.003   6.095
 6002POPC   D2A75748  41.382   5.267   6.471
 6002POPC   C3A75749  41.203   5.193   6.873
 6002POPC   C4A75750  41.309   5.058   7.314
 6002POPC   C1B75751  41.822   5.483   6.250
 6002POPC   C2B75752  41.862   5.261   6.652
 6002POPC   C3B75753  41.686   5.065   6.973
 6002POPC   C4B75754  41.798   4.861   7.345
 6003POPC   NC375755  14.968  39.548   5.390
 6003POPC   PO475756  15.409  39.089   5.502
 6003POPC   GL175757  15.188  38.961   5.882
 6003POPC   GL275758  14.888  39.174   5.839
 6003POPC   C1A75759  15.398  38.896   6.274
 6003POPC   D2A75760  15.386  39.123   6.657
 6003POPC   C3A75761  15.281  38.885   7.001
 6003POPC   C4A75762  15.172  38.902   7.467
 6003POPC   C1B75763  14.963  39.179   6.285
 6003POPC   C2B75764  14.881  38.997   6.679
 6003POPC   C3B75765  14.909  39.232   7.048
 6003POPC   C4B75766  15.049  39.610   7.241
 6004POPC   NC375767   1.120  17.295   5.474
 6004POPC   PO475768   1.571  17.757   5.581
 6004POPC   GL175769   1.372  17.441   5.894
 6004POPC   GL275770   1.001  17.405   5.973
 6004POPC   C1A75771   1.428  17.178   6.263
 6004POPC   D2A75772   1.528  17.215   6.712
 6004POPC   C3A75773   1.248  17.523   6.893
 6004POPC   C4A75774   1.089  17.511   7.283
 6004POPC   C1B75775   0.804  17.683   6.275
 6004POPC   C2B75776   0.726  17.881   6.687
 6004POPC   C3B75777   0.684  17.745   7.136
 6004POPC   C4B75778   0.788  17.755   7.624
 6005POPC   NC375779  11.158  24.973   5.361
 6005POPC   PO475780  11.609  25.458   5.447
 6005POPC   GL175781  11.542  25.132   5.704
 6005POPC   GL275782  11.201  25.176   5.832
 6005POPC   C1A75783  11.650  25.033   6.134
 6005POPC   D2A75784  11.556  25.181   6.560
 6005POPC   C3A75785  11.585  25.038   7.011
 6005POPC   C4A75786  11.215  25.075   7.281
 6005POPC   C1B75787  11.377  25.490   6.123
 6005POPC   C2B75788  11.310  25.639   6.550
 6005POPC   C3B75789  11.425  25.539   6.984
 6005POPC   C4B75790  11.220  25.730   7.339
 6006POPC   NC375791  32.517   4.120   5.463
 6006POPC   PO475792  32.027   4.216   5.092
 6006POPC   GL175793  32.040   4.238   5.597
 6006POPC   GL275794  32.178   3.951   5.801
 6006POPC   C1A75795  32.144   4.447   6.024
 6006POPC   D2A75796  32.014   4.535   6.466
 6006POPC   C3A75797  32.170   4.301   6.833
 6006POPC   C4A75798  32.152   4.438   7.269
 6006POPC   C1B75799  32.255   4.008   6.259
 6006POPC   C2B75800  31.976   3.845   6.610
 6006POPC   C3B75801  32.135   3.796   7.014
 6006POPC   C4B75802  32.427   3.999   7.287
 6007POPC   NC375803  32.977  25.686   5.705
 6007POPC   PO475804  33.225  25.068   5.670
 6007POPC   GL175805  32.851  25.095   5.971
 6007POPC   GL275806  32.661  25.420   5.984
 6007POPC   C1A75807  32.959  25.116   6.419
 6007POPC   D2A75808  33.290  25.188   6.724
 6007POPC   C3A75809  33.105  25.253   7.126
 6007POPC   C4A75810  32.694  25.099   7.329
 6007POPC   C1B75811  32.561  25.416   6.410
 6007POPC   C2B75812  32.574  25.304   6.844
 6007POPC   C3B75813  32.737  25.582   7.171
 6007POPC   C4B75814  32.724  25.538   7.631
 6008POPC   NC375815  18.166   4.591   5.405
 6008POPC   PO475816  18.333   3.905   5.450
 6008POPC   GL175817  18.210   4.267   5.783
 6008POPC   GL275818  18.434   4.555   5.857
 6008POPC   C1A75819  18.237   4.270   6.247
 6008POPC   D2A75820  18.372   4.033   6.631
 6008POPC   C3A75821  18.191   4.099   7.039
 6008POPC   C4A75822  18.231   4.240   7.462
 6008POPC   C1B75823  18.347   4.772   6.237
 6008POPC   C2B75824  18.405   4.577   6.659
 6008POPC   C3B75825  18.224   4.604   7.074
 6008POPC   C4B75826  17.981   4.904   7.293
 6009POPC   NC375827  21.015  35.830   5.478
 6009POPC   PO475828  20.404  35.661   5.457
 6009POPC   GL175829  20.635  35.593   5.852
 6009POPC   GL275830  20.817  35.276   5.919
 6009POPC   C1A75831  20.691  35.563   6.309
 6009POPC   D2A75832  20.659  35.300   6.675
 6009POPC   C3A75833  20.927  35.470   6.961
 6009POPC   C4A75834  20.734  35.747   7.225
 6009POPC   C1B75835  20.583  35.041   6.243
 6009POPC   C2B75836  20.356  34.838   6.581
 6009POPC   C3B75837  20.381  34.969   6.992
 6009POPC   C4B75838  20.482  35.331   7.160
 6010POPC   NC375839   3.736  22.981   5.412
 6010POPC   PO475840   3.166  22.782   5.664
 6010POPC   GL175841   3.426  23.134   5.819
 6010POPC   GL275842   3.823  23.189   5.888
 6010POPC   C1A75843   3.457  23.122   6.254
 6010POPC   D2A75844   3.371  22.933   6.657
 6010POPC   C3A75845   3.259  23.147   7.093
 6010POPC   C4A75846   3.112  23.143   7.552
 6010POPC   C1B75847   3.910  22.867   6.231
 6010POPC   C2B75848   3.838  22.669   6.635
 6010POPC   C3B75849   3.459  22.481   6.830
 6010POPC   C4B75850   3.470  22.634   7.245
 6011POPC   NC375851  16.745  34.194   5.066
 6011POPC   PO475852  16.706  33.638   5.429
 6011POPC   GL175853  16.691  33.702   5.864
 6011POPC   GL275854  16.405  33.553   5.928
 6011POPC   C1A75855  16.951  33.874   6.175
 6011POPC   D2A75856  17.053  33.659   6.547
 6011POPC   C3A75857  16.947  33.865   6.932
 6011POPC   C4A75858  16.580  33.773   7.207
 6011POPC   C1B75859  16.469  33.710   6.334
 6011POPC   C2B75860  16.548  33.624   6.725
 6011POPC   C3B75861  16.510  33.314   7.021
 6011POPC   C4B75862  16.404  33.342   7.477
 6012POPC   NC375863  15.820  21.619   5.574
 6012POPC   PO475864  16.397  21.371   5.316
 6012POPC   GL175865  16.179  21.285   5.780
 6012POPC   GL275866  15.832  21.188   5.862
 6012POPC   C1A75867  16.011  21.453   6.245
 6012POPC   D2A75868  15.700  21.550   6.588
 6012POPC   C3A75869  15.823  21.674   7.020
 6012POPC   C4A75870  16.084  21.436   7.356
 6012POPC   C1B75871  16.137  20.974   6.171
 6012POPC   C2B75872  16.272  21.138   6.563
 6012POPC   C3B75873  15.993  21.205   6.870
 6012POPC   C4B75874  16.192  20.988   7.145
 6013POPC   NC375875  13.400  17.559   5.509
 6013POPC   PO475876  13.963  17.288   5.448
 6013POPC   GL175877  13.871  17.497   5.803
 6013POPC   GL275878  13.899  17.834   5.734
 6013POPC   C1A75879  13.731  17.378   6.199
 6013POPC   D2A75880  13.925  17.210   6.575
 6013POPC   C3A75881  13.709  17.222   6.985
 6013POPC   C4A75882  13.558  17.315   7.402
 6013POPC   C1B75883  13.965  17.870   6.177
 6013POPC   C2B75884  13.789  17.733   6.577
 6013POPC   C3B75885  13.698  17.736   7.005
 6013POPC   C4B75886  13.573  17.813   7.413
 6014POPC   NC375887  15.603  25.164   5.622
 6014POPC   PO475888  15.871  25.532   5.127
 6014POPC   GL175889  15.879  25.582   5.702
 6014POPC   GL275890  16.045  25.421   6.000
 6014POPC   C1A75891  15.622  25.620   6.155
 6014POPC   D2A75892  15.624  25.496   6.611
 6014POPC   C3A75893  15.807  25.261   6.953
 6014POPC   C4A75894  16.203  25.120   7.077
 6014POPC   C1B75895  15.764  25.117   6.251
 6014POPC   C2B75896  15.537  24.981   6.619
 6014POPC   C3B75897  15.477  24.869   7.061
 6014POPC   C4B75898  15.816  24.951   7.386
 6015POPC   NC375899   2.319  13.465   5.492
 6015POPC   PO475900   2.678  12.842   5.302
 6015POPC   GL175901   2.817  12.798   5.756
 6015POPC   GL275902   3.098  13.026   5.863
 6015POPC   C1A75903   2.614  12.873   6.175
 6015POPC   D2A75904   2.456  12.709   6.582
 6015POPC   C3A75905   2.693  12.698   6.987
 6015POPC   C4A75906   2.464  12.972   7.281
 6015POPC   C1B75907   3.107  12.927   6.268
 6015POPC   C2B75908   2.946  13.000   6.657
 6015POPC   C3B75909   3.093  12.987   7.076
 6015POPC   C4B75910   3.094  12.947   7.535
 6016POPC   NC375911  25.493  27.048   5.357
 6016POPC   PO475912  24.806  27.138   5.142
 6016POPC   GL175913  25.033  27.057   5.636
 6016POPC   GL275914  24.983  26.735   5.895
 6016POPC   C1A75915  25.067  27.207   6.089
 6016POPC   D2A75916  24.977  26.937   6.454
 6016POPC   C3A75917  25.283  26.928   6.794
 6016POPC   C4A75918  25.230  26.946   7.224
 6016POPC   C1B75919  25.321  26.605   6.258
 6016POPC   C2B75920  25.496  26.446   6.697
 6016POPC   C3B75921  25.341  26.456   7.144
 6016POPC   C4B75922  25.379  26.623   7.586
 6017POPC   NC375923  21.823  31.569   5.508
 6017POPC   PO475924  22.225  31.183   5.205
 6017POPC   GL175925  22.196  31.224   5.691
 6017POPC   GL275926  21.870  31.139   5.825
 6017POPC   C1A75927  22.165  31.495   6.100
 6017POPC   D2A75928  21.936  31.766   6.421
 6017POPC   C3A75929  22.105  31.828   6.832
 6017POPC   C4A75930  22.106  31.521   7.194
 6017POPC   C1B75931  21.703  31.353   6.204
 6017POPC   C2B75932  22.018  31.247   6.523
 6017POPC   C3B75933  22.101  31.090   6.905
 6017POPC   C4B75934  21.903  31.037   7.275
 6018POPC   NC375935  42.063  38.402   5.530
 6018POPC   PO475936  42.763  38.513   5.485
 6018POPC   GL175937  42.532  38.560   5.861
 6018POPC   GL275938  42.385  38.883   5.943
 6018POPC   C1A75939  42.696  38.654   6.276
 6018POPC   D2A75940  42.507  38.753   6.685
 6018POPC   C3A75941  42.316  38.349   6.839
 6018POPC   C4A75942  42.306  38.180   7.258
 6018POPC   C1B75943  42.162  38.667   6.286
 6018POPC   C2B75944  41.990  38.729   6.703
 6018POPC   C3B75945  41.979  38.617   7.154
 6018POPC   C4B75946  41.745  38.667   7.558
 6019POPC   NC375947   5.357  16.943   5.428
 6019POPC   PO475948   4.887  16.434   5.593
 6019POPC   GL175949   5.037  16.608   5.949
 6019POPC   GL275950   5.068  16.922   5.858
 6019POPC   C1A75951   5.139  16.580   6.389
 6019POPC   D2A75952   5.224  16.309   6.735
 6019POPC   C3A75953   5.094  16.646   6.961
 6019POPC   C4A75954   5.162  16.783   7.344
 6019POPC   C1B75955   5.349  17.001   6.205
 6019POPC   C2B75956   5.255  17.072   6.625
 6019POPC   C3B75957   5.452  17.046   7.024
 6019POPC   C4B75958   5.344  17.253   7.388
 6020POPC   NC375959  31.615  36.407   5.492
 6020POPC   PO475960  31.616  35.726   5.663
 6020POPC   GL175961  31.349  35.865   6.006
 6020POPC   GL275962  31.402  36.233   5.971
 6020POPC   C1A75963  31.473  36.008   6.451
 6020POPC   D2A75964  31.873  36.158   6.678
 6020POPC   C3A75965  31.880  36.213   7.140
 6020POPC   C4A75966  31.603  35.950   7.447
 6020POPC   C1B75967  31.491  36.525   6.341
 6020POPC   C2B75968  31.423  36.531   6.774
 6020POPC   C3B75969  31.385  36.287   7.145
 6020POPC   C4B75970  31.397  36.384   7.609
 6021POPC   NC375971  10.705   4.596   5.537
 6021POPC   PO475972  10.286   3.989   5.546
 6021POPC   GL175973  10.334   4.198   5.972
 6021POPC   GL275974  10.649   4.283   5.928
 6021POPC   C1A75975  10.424   4.212   6.433
 6021POPC   D2A75976  10.328   4.419   6.817
 6021POPC   C3A75977  10.084   4.250   7.161
 6021POPC   C4A75978  10.262   4.017   7.502
 6021POPC   C1B75979  10.902   4.152   6.232
 6021POPC   C2B75980  10.942   4.348   6.610
 6021POPC   C3B75981  10.802   4.481   7.012
 6021POPC   C4B75982  10.965   4.346   7.394
 6022POPC   NC375983  42.143  33.801   5.297
 6022POPC   PO475984  42.590  34.349   5.385
 6022POPC   GL175985  42.320  34.074   5.689
 6022POPC   GL275986  42.424  33.696   5.728
 6022POPC   C1A75987  42.264  33.968   6.134
 6022POPC   D2A75988  42.529  33.875   6.495
 6022POPC   C3A75989  42.461  33.597   6.814
 6022POPC   C4A75990  42.466  33.652   7.241
 6022POPC   C1B75991  42.380  33.473   6.147
 6022POPC   C2B75992  42.084  33.600   6.476
 6022POPC   C3B75993  41.952  33.600   6.915
 6022POPC   C4B75994  41.977  33.702   7.351
 6023POPC   NC375995  20.370   5.707   5.422
 6023POPC   PO475996  20.982   6.128   5.431
 6023POPC   GL175997  20.695   5.911   5.790
 6023POPC   GL275998  20.310   5.821   5.918
 6023POPC   C1A75999  20.684   5.779   6.229
 6023POPC   D2A76000  20.533   5.614   6.590
 6023POPC   C3A76001  20.711   5.850   6.893
 6023POPC   C4A76002  20.641   5.735   7.245
 6023POPC   C1B76003  20.268   6.096   6.289
 6023POPC   C2B76004  20.297   6.113   6.735
 6023POPC   C3B76005  20.267   6.087   7.187
 6023POPC   C4B76006  20.590   6.191   7.518
 6024POPC   NC376007  27.867  25.345   5.435
 6024POPC   PO476008  27.419  24.880   5.597
 6024POPC   GL176009  27.619  25.160   5.863
 6024POPC   GL276010  27.443  25.442   5.729
 6024POPC   C1A76011  27.694  25.353   6.258
 6024POPC   D2A76012  27.998  25.460   6.578
 6024POPC   C3A76013  27.758  25.476   6.961
 6024POPC   C4A76014  27.557  25.098   7.176
 6024POPC   C1B76015  27.260  25.586   6.117
 6024POPC   C2B76016  27.114  25.474   6.538
 6024POPC   C3B76017  27.240  25.490   6.967
 6024POPC   C4B76018  27.431  25.605   7.351
 6025POPC   NC376019   2.736  10.412   5.488
 6025POPC   PO476020   2.301  10.851   5.526
 6025POPC   GL176021   2.513  10.594   5.906
 6025POPC   GL276022   2.908  10.600   5.939
 6025POPC   C1A76023   2.616  10.605   6.364
 6025POPC   D2A76024   2.966  10.702   6.671
 6025POPC   C3A76025   2.892  10.529   7.077
 6025POPC   C4A76026   2.451  10.475   7.143
 6025POPC   C1B76027   3.061  10.327   6.293
 6025POPC   C2B76028   2.771  10.208   6.645
 6025POPC   C3B76029   2.632   9.991   7.027
 6025POPC   C4B76030   2.496  10.060   7.461
 6026POPC   NC376031  13.197  35.089   5.563
 6026POPC   PO476032  12.587  35.023   5.302
 6026POPC   GL176033  12.719  35.192   5.724
 6026POPC   GL276034  12.920  35.524   5.761
 6026POPC   C1A76035  12.910  35.168   6.145
 6026POPC   D2A76036  12.868  35.382   6.539
 6026POPC   C3A76037  12.937  35.174   6.885
 6026POPC   C4A76038  12.720  35.279   7.228
 6026POPC   C1B76039  12.756  35.694   6.153
 6026POPC   C2B76040  12.642  35.851   6.586
 6026POPC   C3B76041  12.613  35.785   7.055
 6026POPC   C4B76042  12.544  35.911   7.524
 6027POPC   NC376043  38.189   7.069   5.204
 6027POPC   PO476044  38.612   6.567   5.260
 6027POPC   GL176045  38.638   6.532   5.749
 6027POPC   GL276046  38.827   6.830   5.875
 6027POPC   C1A76047  38.430   6.600   6.172
 6027POPC   D2A76048  38.260   6.864   6.530
 6027POPC   C3A76049  38.253   6.626   6.908
 6027POPC   C4A76050  38.168   6.349   7.240
 6027POPC   C1B76051  38.902   6.711   6.313
 6027POPC   C2B76052  38.744   6.760   6.718
 6027POPC   C3B76053  38.712   6.703   7.141
 6027POPC   C4B76054  38.939   6.816   7.487
 6028POPC   NC376055   2.310  12.819   5.577
 6028POPC   PO476056   1.854  13.358   5.514
 6028POPC   GL176057   2.084  13.207   5.879
 6028POPC   GL276058   1.962  12.846   5.946
 6028POPC   C1A76059   2.175  13.131   6.315
 6028POPC   D2A76060   1.937  12.956   6.642
 6028POPC   C3A76061   1.956  12.953   7.102
 6028POPC   C4A76062   1.713  13.080   7.479
 6028POPC   C1B76063   1.918  12.521   6.282
 6028POPC   C2B76064   2.021  12.453   6.706
 6028POPC   C3B76065   2.236  12.524   7.048
 6028POPC   C4B76066   2.131  12.606   7.437
 6029POPC   NC376067  18.439  18.710   5.535
 6029POPC   PO476068  18.476  19.440   5.373
 6029POPC   GL176069  18.257  19.199   5.709
 6029POPC   GL276070  18.574  19.108   5.822
 6029POPC   C1A76071  18.179  19.124   6.177
 6029POPC   D2A76072  18.394  19.155   6.574
 6029POPC   C3A76073  18.155  19.267   6.943
 6029POPC   C4A76074  18.225  19.089   7.321
 6029POPC   C1B76075  18.613  18.819   6.180
 6029POPC   C2B76076  18.321  18.652   6.461
 6029POPC   C3B76077  18.298  18.721   6.886
 6029POPC   C4B76078  18.479  18.659   7.241
 6030POPC   NC376079  15.507   3.840   5.511
 6030POPC   PO476080  15.022   3.334   5.576
 6030POPC   GL176081  15.187   3.590   5.838
 6030POPC   GL276082  15.041   3.865   5.878
 6030POPC   C1A76083  15.289   3.457   6.212
 6030POPC   D2A76084  15.225   3.220   6.562
 6030POPC   C3A76085  15.193   3.342   6.984
 6030POPC   C4A76086  15.077   3.238   7.398
 6030POPC   C1B76087  15.114   3.932   6.264
 6030POPC   C2B76088  15.208   3.743   6.623
 6030POPC   C3B76089  15.359   3.898   6.964
 6030POPC   C4B76090  15.141   3.759   7.291
 6031POPC   NC376091  22.766  29.343   5.135
 6031POPC   PO476092  23.125  28.919   5.447
 6031POPC   GL176093  22.931  28.983   5.836
 6031POPC   GL276094  23.294  28.953   5.930
 6031POPC   C1A76095  22.642  29.125   6.185
 6031POPC   D2A76096  22.726  29.012   6.610
 6031POPC   C3A76097  22.739  29.295   6.954
 6031POPC   C4A76098  22.623  29.115   7.328
 6031POPC   C1B76099  23.173  29.111   6.302
 6031POPC   C2B76100  23.415  29.145   6.640
 6031POPC   C3B76101  23.176  28.965   6.906
 6031POPC   C4B76102  23.131  29.126   7.251
 6032POPC   NC376103  30.941  44.588   5.462
 6032POPC   PO476104  31.577  44.819   5.467
 6032POPC   GL176105  31.488  44.619   5.853
 6032POPC   GL276106  31.762  44.350   5.867
 6032POPC   C1A76107  31.308  44.755   6.271
 6032POPC   D2A76108  31.453  44.634   6.692
 6032POPC   C3A76109  31.337  44.770   7.083
 6032POPC   C4A76110  31.490   0.114   7.300
 6032POPC   C1B76111  31.725  44.454   6.284
 6032POPC   C2B76112  31.798  44.264   6.659
 6032POPC   C3B76113  31.851  44.400   7.069
 6032POPC   C4B76114  31.979  44.334   7.501
 6033POPC   NC376115  28.600  39.776   5.545
 6033POPC   PO476116  27.991  40.137   5.498
 6033POPC   GL176117  28.101  40.103   5.925
 6033POPC   GL276118  28.445  40.043   5.938
 6033POPC   C1A76119  28.029  40.078   6.356
 6033POPC   D2A76120  27.880  40.241   6.713
 6033POPC   C3A76121  27.996  40.039   7.090
 6033POPC   C4A76122  27.817  40.322   7.390
 6033POPC   C1B76123  28.534  40.111   6.333
 6033POPC   C2B76124  28.432  39.990   6.755
 6033POPC   C3B76125  28.528  40.115   7.182
 6033POPC   C4B76126  28.475  39.898   7.589
 6034POPC   NC376127  26.191  43.272   5.407
 6034POPC   PO476128  25.807  42.740   5.442
 6034POPC   GL176129  26.129  42.859   5.775
 6034POPC   GL276130  26.071  43.159   5.883
 6034POPC   C1A76131  26.177  42.751   6.219
 6034POPC   D2A76132  26.212  42.486   6.599
 6034POPC   C3A76133  26.086  42.751   6.951
 6034POPC   C4A76134  26.252  42.892   7.349
 6034POPC   C1B76135  25.974  43.268   6.271
 6034POPC   C2B76136  26.170  43.177   6.643
 6034POPC   C3B76137  26.123  43.310   7.045
 6034POPC   C4B76138  25.781  43.120   7.243
 6035POPC   NC376139   8.169  43.024   5.234
 6035POPC   PO476140   8.555  43.491   5.237
 6035POPC   GL176141   8.331  43.357   5.684
 6035POPC   GL276142   8.139  43.014   5.749
 6035POPC   C1A76143   8.085  43.358   6.119
 6035POPC   D2A76144   8.022  43.121   6.526
 6035POPC   C3A76145   7.871  43.307   6.930
 6035POPC   C4A76146   8.163  43.421   7.259
 6035POPC   C1B76147   7.910  42.802   6.100
 6035POPC   C2B76148   7.795  42.644   6.530
 6035POPC   C3B76149   7.967  42.728   6.958
 6035POPC   C4B76150   8.206  42.593   7.312
 6036POPC   NC376151  36.119   0.749   5.540
 6036POPC   PO476152  35.934   1.388   5.563
 6036POPC   GL176153  36.027   1.122   5.935
 6036POPC   GL276154  35.855   0.796   5.984
 6036POPC   C1A76155  36.147   1.266   6.354
 6036POPC   D2A76156  36.440   1.208   6.708
 6036POPC   C3A76157  36.283   1.379   7.123
 6036POPC   C4A76158  36.333   1.470   7.590
 6036POPC   C1B76159  35.730   0.954   6.371
 6036POPC   C2B76160  35.944   1.021   6.770
 6036POPC   C3B76161  36.263   0.860   7.048
 6036POPC   C4B76162  36.014   0.716   7.332
 6037POPC   NC376163  19.462  36.830   5.449
 6037POPC   PO476164  20.102  36.849   5.395
 6037POPC   GL176165  20.000  36.683   5.830
 6037POPC   GL276166  19.637  36.650   5.882
 6037POPC   C1A76167  19.881  36.858   6.277
 6037POPC   D2A76168  19.712  37.220   6.545
 6037POPC   C3A76169  19.788  37.106   6.986
 6037POPC   C4A76170  19.811  36.669   7.138
 6037POPC   C1B76171  19.393  36.831   6.219
 6037POPC   C2B76172  19.524  36.752   6.662
 6037POPC   C3B76173  19.337  36.894   7.049
 6037POPC   C4B76174  19.517  36.929   7.454
 6038POPC   NC376175  19.699   1.596   5.503
 6038POPC   PO476176  19.922   2.283   5.352
 6038POPC   GL176177  19.807   2.067   5.803
 6038POPC   GL276178  19.539   1.812   5.930
 6038POPC   C1A76179  19.872   2.004   6.293
 6038POPC   D2A76180  20.175   2.131   6.597
 6038POPC   C3A76181  20.051   1.937   6.941
 6038POPC   C4A76182  19.865   1.987   7.299
 6038POPC   C1B76183  19.582   1.567   6.321
 6038POPC   C2B76184  19.600   1.767   6.705
 6038POPC   C3B76185  19.364   1.773   7.043
 6038POPC   C4B76186  19.449   1.755   7.456
 6039POPC   NC376187   6.891   6.479   5.383
 6039POPC   PO476188   6.506   6.961   5.297
 6039POPC   GL176189   6.507   6.726   5.716
 6039POPC   GL276190   6.856   6.659   5.847
 6039POPC   C1A76191   6.340   6.558   6.159
 6039POPC   D2A76192   6.380   6.252   6.517
 6039POPC   C3A76193   6.514   6.377   6.943
 6039POPC   C4A76194   6.506   6.242   7.384
 6039POPC   C1B76195   6.759   6.859   6.211
 6039POPC   C2B76196   6.756   6.726   6.610
 6039POPC   C3B76197   6.636   6.962   6.953
 6039POPC   C4B76198   6.606   6.762   7.292
 6040POPC   NC376199  35.838  41.359   5.349
 6040POPC   PO476200  36.129  41.898   5.513
 6040POPC   GL176201  36.183  41.688   5.874
 6040POPC   GL276202  36.254  41.326   5.905
 6040POPC   C1A76203  36.131  41.797   6.289
 6040POPC   D2A76204  36.124  41.544   6.649
 6040POPC   C3A76205  36.218  41.731   7.024
 6040POPC   C4A76206  36.099  42.040   7.292
 6040POPC   C1B76207  35.853  41.373   6.169
 6040POPC   C2B76208  35.748  41.209   6.597
 6040POPC   C3B76209  35.855  41.109   7.053
 6040POPC   C4B76210  35.886  41.223   7.522
 6041POPC   NC376211  29.464  18.933   5.522
 6041POPC   PO476212  29.041  19.469   5.557
 6041POPC   GL176213  29.094  19.113   5.859
 6041POPC   GL276214  28.919  18.783   5.785
 6041POPC   C1A76215  29.040  19.126   6.313
 6041POPC   D2A76216  28.757  19.272   6.667
 6041POPC   C3A76217  28.953  19.183   7.060
 6041POPC   C4A76218  29.393  19.055   7.173
 6041POPC   C1B76219  28.941  18.619   6.225
 6041POPC   C2B76220  28.903  18.767   6.666
 6041POPC   C3B76221  28.969  18.665   7.093
 6041POPC   C4B76222  29.025  18.845   7.458
 6042POPC   NC376223  29.298  44.472   5.577
 6042POPC   PO476224  29.144  44.925   5.111
 6042POPC   GL176225  29.185  44.968   5.631
 6042POPC   GL276226  29.523  44.897   5.791
 6042POPC   C1A76227  29.054  44.861   6.127
 6042POPC   D2A76228  28.892  44.596   6.540
 6042POPC   C3A76229  29.069  44.551   7.015
 6042POPC   C4A76230  29.020  44.635   7.525
 6042POPC   C1B76231  29.500  44.625   6.181
 6042POPC   C2B76232  29.409  44.747   6.592
 6042POPC   C3B76233  29.600  44.529   6.934
 6042POPC   C4B76234  29.494  44.587   7.347
 6043POPC   NC376235  10.803  30.656   5.393
 6043POPC   PO476236  10.170  30.854   5.486
 6043POPC   GL176237  10.504  30.852   5.798
 6043POPC   GL276238  10.334  31.136   5.954
 6043POPC   C1A76239  10.680  30.886   6.224
 6043POPC   D2A76240  10.469  30.809   6.621
 6043POPC   C3A76241  10.697  30.621   6.958
 6043POPC   C4A76242  10.862  30.438   7.332
 6043POPC   C1B76243  10.126  30.772   6.178
 6043POPC   C2B76244  10.054  30.484   6.524
 6043POPC   C3B76245  10.122  30.616   6.937
 6043POPC   C4B76246  10.337  30.527   7.312
 6044POPC   NC376247  11.156   2.278   5.570
 6044POPC   PO476248  11.230   1.601   5.616
 6044POPC   GL176249  11.479   1.798   5.927
 6044POPC   GL276250  11.573   2.133   5.828
 6044POPC   C1A76251  11.334   1.807   6.370
 6044POPC   D2A76252  10.961   1.892   6.670
 6044POPC   C3A76253  11.079   1.808   7.107
 6044POPC   C4A76254  11.503   1.648   7.250
 6044POPC   C1B76255  11.379   2.316   6.184
 6044POPC   C2B76256  11.288   2.274   6.586
 6044POPC   C3B76257  11.454   2.321   6.950
 6044POPC   C4B76258  11.335   2.176   7.324
 6045POPC   NC376259  41.383  20.203   5.648
 6045POPC   PO476260  41.558  20.714   5.162
 6045POPC   GL176261  41.659  20.738   5.684
 6045POPC   GL276262  41.404  20.580   5.978
 6045POPC   C1A76263  41.794  20.815   6.166
 6045POPC   D2A76264  41.549  20.684   6.561
 6045POPC   C3A76265  41.657  20.752   6.985
 6045POPC   C4A76266  41.956  20.533   7.210
 6045POPC   C1B76267  41.243  20.339   6.366
 6045POPC   C2B76268  41.177  20.318   6.846
 6045POPC   C3B76269  41.358  20.382   7.290
 6045POPC   C4B76270  41.286  20.469   7.756
 6046POPC   NC376271   4.086  33.845   5.295
 6046POPC   PO476272   3.399  33.780   5.438
 6046POPC   GL176273   3.453  33.779   5.899
 6046POPC   GL276274   3.123  33.653   5.947
 6046POPC   C1A76275   3.526  34.053   6.301
 6046POPC   D2A76276   3.804  34.091   6.688
 6046POPC   C3A76277   3.894  33.661   6.864
 6046POPC   C4A76278   3.616  33.502   7.188
 6046POPC   C1B76279   3.156  33.647   6.397
 6046POPC   C2B76280   3.392  33.803   6.754
 6046POPC   C3B76281   3.336  33.945   7.160
 6046POPC   C4B76282   3.101  33.589   7.258
 6047POPC   NC376283  32.004  19.506   5.286
 6047POPC   PO476284  32.318  18.938   5.446
 6047POPC   GL176285  32.321  19.180   5.814
 6047POPC   GL276286  32.235  18.894   6.022
 6047POPC   C1A76287  32.261  19.369   6.221
 6047POPC   D2A76288  32.081  19.328   6.623
 6047POPC   C3A76289  32.142  18.949   6.878
 6047POPC   C4A76290  32.146  19.144   7.276
 6047POPC   C1B76291  31.857  19.033   6.271
 6047POPC   C2B76292  31.630  18.954   6.625
 6047POPC   C3B76293  31.706  19.213   6.952
 6047POPC   C4B76294  31.672  19.290   7.335
 6048POPC   NC376295  40.318  41.850   5.380
 6048POPC   PO476296  39.717  41.533   5.277
 6048POPC   GL176297  39.869  41.495   5.704
 6048POPC   GL276298  39.954  41.789   5.864
 6048POPC   C1A76299  39.827  41.320   6.157
 6048POPC   D2A76300  39.758  41.186   6.620
 6048POPC   C3A76301  39.790  41.388   7.066
 6048POPC   C4A76302  39.818  41.872   7.178
 6048POPC   C1B76303  40.306  41.496   5.988
 6048POPC   C2B76304  40.380  41.438   6.437
 6048POPC   C3B76305  40.238  41.286   6.836
 6048POPC   C4B76306  40.240  41.585   7.187
 6049POPC   NC376307  35.902  27.389   5.321
 6049POPC   PO476308  36.563  27.637   5.531
 6049POPC   GL176309  36.101  27.680   5.745
 6049POPC   GL276310  35.962  27.347   5.817
 6049POPC   C1A76311  35.875  27.758   6.197
 6049POPC   D2A76312  35.927  27.792   6.702
 6049POPC   C3A76313  36.244  27.694   7.024
 6049POPC   C4A76314  36.289  27.828   7.483
 6049POPC   C1B76315  36.203  27.358   6.142
 6049POPC   C2B76316  35.976  27.333   6.500
 6049POPC   C3B76317  36.010  27.251   6.919
 6049POPC   C4B76318  35.963  26.948   7.212
 6050POPC   NC376319  37.852  34.524   5.299
 6050POPC   PO476320  37.203  34.845   5.503
 6050POPC   GL176321  37.423  34.718   5.927
 6050POPC   GL276322  37.832  34.643   5.971
 6050POPC   C1A76323  37.524  34.543   6.337
 6050POPC   D2A76324  37.873  34.540   6.606
 6050POPC   C3A76325  37.669  34.532   6.987
 6050POPC   C4A76326  37.802  34.515   7.430
 6050POPC   C1B76327  37.879  34.187   6.233
 6050POPC   C2B76328  38.089  34.064   6.632
 6050POPC   C3B76329  38.047  34.174   7.091
 6050POPC   C4B76330  37.986  34.063   7.561
 6051POPC   NC376331   2.184   6.449   5.511
 6051POPC   PO476332   1.741   6.945   5.383
 6051POPC   GL176333   1.959   6.850   5.765
 6051POPC   GL276334   1.805   6.539   5.823
 6051POPC   C1A76335   2.142   6.896   6.190
 6051POPC   D2A76336   2.097   6.679   6.594
 6051POPC   C3A76337   2.052   6.934   6.973
 6051POPC   C4A76338   2.192   6.915   7.425
 6051POPC   C1B76339   2.053   6.377   6.159
 6051POPC   C2B76340   1.875   6.182   6.509
 6051POPC   C3B76341   1.978   6.268   6.907
 6051POPC   C4B76342   1.955   6.465   7.285
 6052POPC   NC376343  18.109  37.115   5.030
 6052POPC   PO476344  18.407  36.645   5.444
 6052POPC   GL176345  18.571  36.607   5.872
 6052POPC   GL276346  18.424  36.906   5.935
 6052POPC   C1A76347  18.465  36.553   6.334
 6052POPC   D2A76348  18.112  36.568   6.653
 6052POPC   C3A76349  18.215  36.648   7.100
 6052POPC   C4A76350  17.997  36.855   7.485
 6052POPC   C1B76351  18.179  36.979   6.316
 6052POPC   C2B76352  18.010  37.073   6.712
 6052POPC   C3B76353  18.226  37.147   7.076
 6052POPC   C4B76354  18.439  37.502   7.240
 6053POPC   NC376355  23.066  12.019   5.285
 6053POPC   PO476356  22.563  12.335   5.476
 6053POPC   GL176357  22.786  12.327   5.864
 6053POPC   GL276358  22.710  11.973   5.916
 6053POPC   C1A76359  23.035  12.196   6.260
 6053POPC   D2A76360  22.959  11.830   6.552
 6053POPC   C3A76361  22.981  11.992   6.980
 6053POPC   C4A76362  22.997  12.426   7.046
 6053POPC   C1B76363  22.526  12.126   6.276
 6053POPC   C2B76364  22.656  12.231   6.654
 6053POPC   C3B76365  22.466  12.165   6.998
 6053POPC   C4B76366  22.592  12.297   7.348
 6054POPC   NC376367  40.042  35.117   5.348
 6054POPC   PO476368  39.839  35.664   5.604
 6054POPC   GL176369  40.143  35.338   5.818
 6054POPC   GL276370  40.327  34.989   5.767
 6054POPC   C1A76371  40.164  35.318   6.262
 6054POPC   D2A76372  39.973  35.609   6.541
 6054POPC   C3A76373  39.906  35.376   6.894
 6054POPC   C4A76374  39.813  35.529   7.267
 6054POPC   C1B76375  40.537  34.978   6.165
 6054POPC   C2B76376  40.349  34.896   6.558
 6054POPC   C3B76377  40.362  35.086   6.946
 6054POPC   C4B76378  40.072  35.086   7.295
 6055POPC   NC376379  19.024  43.899   5.320
 6055POPC   PO476380  19.342  43.284   5.479
 6055POPC   GL176381  19.119  43.668   5.760
 6055POPC   GL276382  18.728  43.702   5.713
 6055POPC   C1A76383  18.957  43.939   6.125
 6055POPC   D2A76384  19.174  44.059   6.488
 6055POPC   C3A76385  19.098  44.112   6.920
 6055POPC   C4A76386  19.221  43.815   7.200
 6055POPC   C1B76387  18.741  43.482   6.140
 6055POPC   C2B76388  18.918  43.521   6.561
 6055POPC   C3B76389  18.772  43.714   6.956
 6055POPC   C4B76390  18.775  43.698   7.413
 6056POPC   NC376391  14.704  13.158   5.126
 6056POPC   PO476392  14.195  13.384   5.507
 6056POPC   GL176393  14.327  13.651   5.839
 6056POPC   GL276394  14.681  13.550   5.846
 6056POPC   C1A76395  14.451  13.728   6.281
 6056POPC   D2A76396  14.376  13.909   6.687
 6056POPC   C3A76397  14.589  13.843   7.063
 6056POPC   C4A76398  14.470  13.481   7.245
 6056POPC   C1B76399  14.721  13.292   6.254
 6056POPC   C2B76400  14.633  13.363   6.708
 6056POPC   C3B76401  14.785  13.128   7.079
 6056POPC   C4B76402  14.701  13.124   7.552
 6057POPC   NC376403  43.931  15.530   5.516
 6057POPC   PO476404  43.775  15.011   5.137
 6057POPC   GL176405  43.856  15.061   5.652
 6057POPC   GL276406  44.160  14.951   5.806
 6057POPC   C1A76407  43.685  15.195   6.066
 6057POPC   D2A76408  43.696  15.520   6.409
 6057POPC   C3A76409  43.651  15.391   6.849
 6057POPC   C4A76410  43.821  15.464   7.224
 6057POPC   C1B76411  44.170  15.244   6.207
 6057POPC   C2B76412  44.142  15.377   6.634
 6057POPC   C3B76413  44.296  15.324   7.020
 6057POPC   C4B76414  44.201  15.153   7.385
 6058POPC   NC376415  22.915  30.331   5.164
 6058POPC   PO476416  23.101  29.676   5.258
 6058POPC   GL176417  22.932  29.868   5.678
 6058POPC   GL276418  23.203  29.885   5.880
 6058POPC   C1A76419  22.827  30.030   6.173
 6058POPC   D2A76420  23.013  30.097   6.577
 6058POPC   C3A76421  22.879  30.180   7.006
 6058POPC   C4A76422  22.949  29.759   7.181
 6058POPC   C1B76423  23.388  29.989   6.235
 6058POPC   C2B76424  23.569  30.029   6.604
 6058POPC   C3B76425  23.366  30.008   6.936
 6058POPC   C4B76426  23.336  30.105   7.295
 6059POPC   NC376427  23.921  28.784   5.456
 6059POPC   PO476428  23.572  28.270   5.376
 6059POPC   GL176429  23.595  28.465   5.752
 6059POPC   GL276430  23.963  28.397   5.799
 6059POPC   C1A76431  23.336  28.462   6.121
 6059POPC   D2A76432  23.413  28.676   6.495
 6059POPC   C3A76433  23.376  28.502   6.915
 6059POPC   C4A76434  23.475  28.154   7.186
 6059POPC   C1B76435  23.849  28.509   6.220
 6059POPC   C2B76436  23.802  28.384   6.634
 6059POPC   C3B76437  23.871  28.466   7.033
 6059POPC   C4B76438  23.968  28.056   7.179
 6060POPC   NC376439  12.200  30.890   4.999
 6060POPC   PO476440  12.136  30.694   5.646
 6060POPC   GL176441  12.059  30.876   5.964
 6060POPC   GL276442  11.706  30.956   5.965
 6060POPC   C1A76443  12.202  30.861   6.369
 6060POPC   D2A76444  12.143  31.016   6.772
 6060POPC   C3A76445  12.339  30.820   7.125
 6060POPC   C4A76446  12.254  30.574   7.478
 6060POPC   C1B76447  11.782  30.579   6.266
 6060POPC   C2B76448  11.966  30.489   6.685
 6060POPC   C3B76449  11.868  30.611   7.119
 6060POPC   C4B76450  11.777  30.543   7.608
 6061POPC   NC376451  28.376  20.732   5.135
 6061POPC   PO476452  28.037  20.302   5.474
 6061POPC   GL176453  28.153  20.439   5.878
 6061POPC   GL276454  28.318  20.742   5.856
 6061POPC   C1A76455  28.199  20.448   6.339
 6061POPC   D2A76456  28.236  20.682   6.741
 6061POPC   C3A76457  28.304  20.356   7.043
 6061POPC   C4A76458  28.061  20.127   7.316
 6061POPC   C1B76459  28.558  20.804   6.251
 6061POPC   C2B76460  28.664  20.477   6.576
 6061POPC   C3B76461  28.801  20.358   6.981
 6061POPC   C4B76462  28.606  20.752   7.200
 6062POPC   NC376463  18.080   3.524   5.577
 6062POPC   PO476464  18.797   3.372   5.469
 6062POPC   GL176465  18.550   3.596   5.839
 6062POPC   GL276466  18.263   3.806   5.958
 6062POPC   C1A76467  18.397   3.473   6.312
 6062POPC   D2A76468  18.209   3.166   6.659
 6062POPC   C3A76469  18.460   3.105   7.044
 6062POPC   C4A76470  18.577   3.360   7.387
 6062POPC   C1B76471  17.996   3.828   6.332
 6062POPC   C2B76472  18.000   3.662   6.759
 6062POPC   C3B76473  18.192   3.600   7.175
 6062POPC   C4B76474  18.284   3.764   7.642
 6063POPC   NC376475  35.619  28.261   5.473
 6063POPC   PO476476  35.047  28.094   5.403
 6063POPC   GL176477  35.145  28.252   5.814
 6063POPC   GL276478  34.932  28.524   5.776
 6063POPC   C1A76479  35.442  28.371   6.167
 6063POPC   D2A76480  35.534  28.685   6.492
 6063POPC   C3A76481  35.398  28.489   6.908
 6063POPC   C4A76482  35.550  28.451   7.346
 6063POPC   C1B76483  35.109  28.759   6.123
 6063POPC   C2B76484  35.025  28.633   6.519
 6063POPC   C3B76485  34.920  28.676   6.904
 6063POPC   C4B76486  34.956  28.524   7.275
 6064POPC   NC376487   1.090   8.336   5.471
 6064POPC   PO476488   1.604   7.883   5.702
 6064POPC   GL176489   1.337   8.174   5.911
 6064POPC   GL276490   0.981   8.096   5.898
 6064POPC   C1A76491   1.347   8.213   6.354
 6064POPC   D2A76492   1.529   7.950   6.694
 6064POPC   C3A76493   1.228   8.031   6.982
 6064POPC   C4A76494   1.128   8.429   7.126
 6064POPC   C1B76495   0.793   8.096   6.292
 6064POPC   C2B76496   0.868   8.275   6.682
 6064POPC   C3B76497   0.734   8.082   7.048
 6064POPC   C4B76498   0.910   7.903   7.372
 6065POPC   NC376499  41.527  38.891   5.398
 6065POPC   PO476500  41.290  38.320   5.199
 6065POPC   GL176501  41.541  38.257   5.596
 6065POPC   GL276502  41.559  38.541   5.758
 6065POPC   C1A76503  41.682  38.152   6.048
 6065POPC   D2A76504  41.691  38.430   6.405
 6065POPC   C3A76505  41.745  38.273   6.806
 6065POPC   C4A76506  41.570  38.327   7.195
 6065POPC   C1B76507  41.303  38.545   6.095
 6065POPC   C2B76508  41.166  38.440   6.507
 6065POPC   C3B76509  41.297  38.632   6.913
 6065POPC   C4B76510  41.245  38.681   7.391
 6066POPC   NC376511  19.468  19.038   5.473
 6066POPC   PO476512  18.909  18.762   5.310
 6066POPC   GL176513  19.027  18.846   5.737
 6066POPC   GL276514  19.088  19.195   5.807
 6066POPC   C1A76515  19.140  18.835   6.162
 6066POPC   D2A76516  19.415  18.969   6.446
 6066POPC   C3A76517  19.257  18.847   6.826
 6066POPC   C4A76518  19.220  19.104   7.180
 6066POPC   C1B76519  18.872  19.272   6.180
 6066POPC   C2B76520  18.904  19.101   6.563
 6066POPC   C3B76521  18.746  18.992   6.948
 6066POPC   C4B76522  18.733  19.125   7.350
 6067POPC   NC376523  38.179  10.796   5.563
 6067POPC   PO476524  38.396  10.091   5.498
 6067POPC   GL176525  38.383  10.396   5.814
 6067POPC   GL276526  38.691  10.589   5.921
 6067POPC   C1A76527  38.299  10.429   6.232
 6067POPC   D2A76528  38.525  10.273   6.574
 6067POPC   C3A76529  38.477  10.467   6.957
 6067POPC   C4A76530  38.409  10.303   7.383
 6067POPC   C1B76531  38.730  10.717   6.338
 6067POPC   C2B76532  38.380  10.849   6.586
 6067POPC   C3B76533  38.180  10.870   6.975
 6067POPC   C4B76534  38.382  10.845   7.363
 6068POPC   NC376535  40.719  18.796   5.169
 6068POPC   PO476536  41.048  19.104   5.608
 6068POPC   GL176537  40.787  19.026   5.920
 6068POPC   GL276538  40.487  19.215   5.899
 6068POPC   C1A76539  40.747  19.051   6.363
 6068POPC   D2A76540  40.648  19.082   6.783
 6068POPC   C3A76541  40.904  19.153   7.122
 6068POPC   C4A76542  40.910  19.153   7.557
 6068POPC   C1B76543  40.354  18.828   6.125
 6068POPC   C2B76544  40.375  18.695   6.583
 6068POPC   C3B76545  40.298  18.844   7.038
 6068POPC   C4B76546  40.430  19.213   7.283
 6069POPC   NC376547  20.380  34.050   5.458
 6069POPC   PO476548  20.899  33.608   5.406
 6069POPC   GL176549  20.864  33.808   5.847
 6069POPC   GL276550  20.526  33.851   5.908
 6069POPC   C1A76551  20.822  33.791   6.328
 6069POPC   D2A76552  21.003  33.914   6.746
 6069POPC   C3A76553  20.945  33.701   7.166
 6069POPC   C4A76554  20.811  33.961   7.541
 6069POPC   C1B76555  20.252  33.884   6.249
 6069POPC   C2B76556  20.361  34.014   6.643
 6069POPC   C3B76557  20.199  34.012   7.040
 6069POPC   C4B76558  20.441  33.746   7.268
 6070POPC   NC376559  33.794  43.026   5.383
 6070POPC   PO476560  33.937  43.644   5.445
 6070POPC   GL176561  33.776  43.327   5.797
 6070POPC   GL276562  33.524  43.022   5.808
 6070POPC   C1A76563  33.951  43.086   6.142
 6070POPC   D2A76564  34.113  43.252   6.521
 6070POPC   C3A76565  34.068  42.969   6.873
 6070POPC   C4A76566  34.041  42.891   7.315
 6070POPC   C1B76567  33.437  43.161   6.202
 6070POPC   C2B76568  33.575  42.996   6.591
 6070POPC   C3B76569  33.591  42.860   7.011
 6070POPC   C4B76570  33.653  43.222   7.266
 6071POPC   NC376571  18.813   3.828   5.386
 6071POPC   PO476572  19.205   4.395   5.439
 6071POPC   GL176573  18.933   4.389   5.800
 6071POPC   GL276574  18.696   4.104   5.798
 6071POPC   C1A76575  19.090   4.381   6.221
 6071POPC   D2A76576  19.334   4.361   6.625
 6071POPC   C3A76577  19.087   4.416   7.011
 6071POPC   C4A76578  18.682   4.368   7.215
 6071POPC   C1B76579  18.698   3.974   6.212
 6071POPC   C2B76580  18.882   4.119   6.596
 6071POPC   C3B76581  18.880   3.936   6.969
 6071POPC   C4B76582  18.610   3.871   7.282
 6072POPC   NC376583  12.703  34.627   5.106
 6072POPC   PO476584  12.859  33.989   5.290
 6072POPC   GL176585  12.946  34.495   5.528
 6072POPC   GL276586  12.659  34.659   5.637
 6072POPC   C1A76587  13.022  34.652   5.999
 6072POPC   D2A76588  12.844  34.501   6.365
 6072POPC   C3A76589  12.893  34.655   6.782
 6072POPC   C4A76590  12.678  34.539   7.145
 6072POPC   C1B76591  12.520  34.793   6.050
 6072POPC   C2B76592  12.578  34.954   6.465
 6072POPC   C3B76593  12.477  34.953   6.878
 6072POPC   C4B76594  12.284  34.978   7.230
 6073POPC   NC376595  13.279  40.802   5.528
 6073POPC   PO476596  12.665  40.492   5.363
 6073POPC   GL176597  12.800  40.727   5.764
 6073POPC   GL276598  12.562  40.983   5.908
 6073POPC   C1A76599  13.034  40.766   6.180
 6073POPC   D2A76600  12.898  40.616   6.594
 6073POPC   C3A76601  13.062  40.661   6.985
 6073POPC   C4A76602  13.428  40.727   7.180
 6073POPC   C1B76603  12.588  40.962   6.358
 6073POPC   C2B76604  12.952  41.135   6.590
 6073POPC   C3B76605  13.025  41.200   7.029
 6073POPC   C4B76606  12.643  40.961   7.111
 6074POPC   NC376607  30.497   4.156   5.337
 6074POPC   PO476608  30.590   4.795   5.433
 6074POPC   GL176609  30.720   4.512   5.797
 6074POPC   GL276610  30.484   4.263   5.848
 6074POPC   C1A76611  30.830   4.299   6.218
 6074POPC   D2A76612  30.588   4.171   6.606
 6074POPC   C3A76613  30.734   4.288   7.031
 6074POPC   C4A76614  30.903   4.202   7.449
 6074POPC   C1B76615  30.366   4.511   6.245
 6074POPC   C2B76616  30.300   4.586   6.696
 6074POPC   C3B76617  30.261   4.505   7.137
 6074POPC   C4B76618  30.544   4.570   7.500
 6075POPC   NC376619   3.391   4.585   5.538
 6075POPC   PO476620   3.349   3.956   5.606
 6075POPC   GL176621   3.360   4.133   5.981
 6075POPC   GL276622   3.592   4.384   5.982
 6075POPC   C1A76623   3.411   4.138   6.417
 6075POPC   D2A76624   3.753   4.337   6.635
 6075POPC   C3A76625   3.584   4.423   7.039
 6075POPC   C4A76626   3.181   4.261   7.126
 6075POPC   C1B76627   3.856   4.032   6.197
 6075POPC   C2B76628   3.939   3.846   6.628
 6075POPC   C3B76629   3.790   3.946   7.069
 6075POPC   C4B76630   3.811   4.063   7.517
 6076POPC   NC376631  11.809  33.346   5.603
 6076POPC   PO476632  11.243  33.830   5.529
 6076POPC   GL176633  11.254  33.754   5.913
 6076POPC   GL276634  11.620  33.726   5.924
 6076POPC   C1A76635  11.005  33.731   6.309
 6076POPC   D2A76636  11.012  33.884   6.732
 6076POPC   C3A76637  11.266  33.616   6.939
 6076POPC   C4A76638  11.436  33.612   7.352
 6076POPC   C1B76639  11.526  33.717   6.357
 6076POPC   C2B76640  11.511  34.016   6.670
 6076POPC   C3B76641  11.514  34.034   7.097
 6076POPC   C4B76642  11.653  34.233   7.432
 6077POPC   NC376643  20.795  24.218   5.331
 6077POPC   PO476644  20.280  24.596   5.383
 6077POPC   GL176645  20.398  24.369   5.775
 6077POPC   GL276646  20.763  24.406   5.831
 6077POPC   C1A76647  20.431  24.579   6.207
 6077POPC   D2A76648  20.612  24.661   6.625
 6077POPC   C3A76649  20.356  24.621   6.994
 6077POPC   C4A76650  20.421  24.766   7.405
 6077POPC   C1B76651  20.880  24.336   6.279
 6077POPC   C2B76652  20.771  24.150   6.667
 6077POPC   C3B76653  20.679  24.205   7.108
 6077POPC   C4B76654  20.861  24.613   7.145
 6078POPC   NC376655  42.579  27.913   5.584
 6078POPC   PO476656  42.024  28.250   5.333
 6078POPC   GL176657  42.217  28.322   5.760
 6078POPC   GL276658  42.588  28.387   5.833
 6078POPC   C1A76659  42.231  28.488   6.192
 6078POPC   D2A76660  42.411  28.482   6.585
 6078POPC   C3A76661  42.124  28.442   6.898
 6078POPC   C4A76662  42.201  28.396   7.327
 6078POPC   C1B76663  42.583  28.108   6.219
 6078POPC   C2B76664  42.687  27.996   6.646
 6078POPC   C3B76665  42.583  28.212   7.016
 6078POPC   C4B76666  42.677  28.239   7.470
 6079POPC   NC376667  19.856  19.949   5.332
 6079POPC   PO476668  19.450  19.479   5.598
 6079POPC   GL176669  19.568  19.814   5.929
 6079POPC   GL276670  19.668  20.145   5.821
 6079POPC   C1A76671  19.670  19.807   6.365
 6079POPC   D2A76672  19.616  20.055   6.729
 6079POPC   C3A76673  19.294  20.064   7.034
 6079POPC   C4A76674  19.572  19.846   7.257
 6079POPC   C1B76675  19.750  20.301   6.283
 6079POPC   C2B76676  19.968  20.400   6.710
 6079POPC   C3B76677  19.890  20.313   7.184
 6079POPC   C4B76678  19.529  20.347   7.468
 6080POPC   NC376679  15.685  11.918   5.521
 6080POPC   PO476680  16.274  12.174   5.579
 6080POPC   GL176681  16.165  12.029   5.957
 6080POPC   GL276682  16.055  11.725   5.818
 6080POPC   C1A76683  15.877  12.216   6.245
 6080POPC   D2A76684  15.847  12.382   6.640
 6080POPC   C3A76685  16.129  12.197   6.869
 6080POPC   C4A76686  16.167  12.091   7.291
 6080POPC   C1B76687  15.770  11.721   6.187
 6080POPC   C2B76688  15.708  11.903   6.617
 6080POPC   C3B76689  15.708  11.991   7.065
 6080POPC   C4B76690  15.644  11.713   7.421
 6081POPC   NC376691  27.809  44.820   5.322
 6081POPC   PO476692  27.188  44.973   5.482
 6081POPC   GL176693  27.486  44.719   5.811
 6081POPC   GL276694  27.845  44.814   5.844
 6081POPC   C1A76695  27.577  44.577   6.269
 6081POPC   D2A76696  27.657  44.420   6.729
 6081POPC   C3A76697  27.353  44.522   7.097
 6081POPC   C4A76698  27.143  44.815   7.425
 6081POPC   C1B76699  27.972  44.891   6.284
 6081POPC   C2B76700  27.730  44.917   6.678
 6081POPC   C3B76701  27.670  44.927   7.163
 6081POPC   C4B76702  27.968  44.864   7.525
 6082POPC   NC376703  19.439  22.254   5.453
 6082POPC   PO476704  18.893  22.491   5.712
 6082POPC   GL176705  19.269  22.351   5.952
 6082POPC   GL276706  19.314  22.003   5.910
 6082POPC   C1A76707  19.306  22.310   6.415
 6082POPC   D2A76708  19.112  22.506   6.731
 6082POPC   C3A76709  18.767  22.305   6.950
 6082POPC   C4A76710  19.049  22.336   7.276
 6082POPC   C1B76711  18.960  21.978   6.243
 6082POPC   C2B76712  19.020  21.935   6.700
 6082POPC   C3B76713  19.382  22.084   6.963
 6082POPC   C4B76714  19.428  22.032   7.464
 6083POPC   NC376715  23.886   2.394   5.334
 6083POPC   PO476716  23.714   2.913   5.651
 6083POPC   GL176717  23.957   2.602   5.853
 6083POPC   GL276718  23.693   2.354   5.889
 6083POPC   C1A76719  24.014   2.483   6.301
 6083POPC   D2A76720  23.841   2.473   6.731
 6083POPC   C3A76721  23.771   2.813   6.986
 6083POPC   C4A76722  23.946   3.064   7.282
 6083POPC   C1B76723  23.559   2.690   6.227
 6083POPC   C2B76724  23.382   2.775   6.623
 6083POPC   C3B76725  23.249   2.703   7.038
 6083POPC   C4B76726  23.402   2.952   7.341
 6084POPC   NC376727  43.992  41.780   5.352
 6084POPC   PO476728  43.752  41.081   5.458
 6084POPC   GL176729  43.876  41.454   5.734
 6084POPC   GL276730  43.687  41.763   5.810
 6084POPC   C1A76731  44.071  41.600   6.149
 6084POPC   D2A76732  43.965  41.575   6.607
 6084POPC   C3A76733  43.982  41.895   6.960
 6084POPC   C4A76734  43.879  41.752   7.371
 6084POPC   C1B76735  43.565  41.726   6.270
 6084POPC   C2B76736  43.519  41.860   6.727
 6084POPC   C3B76737  43.403  41.786   7.171
 6084POPC   C4B76738  43.469  41.932   7.600
 6085POPC   NC376739  32.118  13.917   5.502
 6085POPC   PO476740  32.194  14.555   5.300
 6085POPC   GL176741  32.143  14.517   5.768
 6085POPC   GL276742  32.024  14.204   5.928
 6085POPC   C1A76743  32.393  14.718   6.105
 6085POPC   D2A76744  32.449  14.744   6.554
 6085POPC   C3A76745  32.553  14.367   6.789
 6085POPC   C4A76746  32.521  14.478   7.164
 6085POPC   C1B76747  32.194  14.299   6.363
 6085POPC   C2B76748  32.057  14.334   6.808
 6085POPC   C3B76749  32.069  14.258   7.239
 6085POPC   C4B76750  32.047  13.919   7.507
 6086POPC   NC376751  20.995  31.651   5.499
 6086POPC   PO476752  21.480  31.187   5.512
 6086POPC   GL176753  21.381  31.470   5.806
 6086POPC   GL276754  21.085  31.300   5.859
 6086POPC   C1A76755  21.261  31.645   6.200
 6086POPC   D2A76756  21.444  31.804   6.588
 6086POPC   C3A76757  21.712  31.515   6.836
 6086POPC   C4A76758  21.607  31.437   7.253
 6086POPC   C1B76759  21.120  31.144   6.241
 6086POPC   C2B76760  21.347  31.263   6.564
 6086POPC   C3B76761  21.229  31.456   6.930
 6086POPC   C4B76762  21.080  31.399   7.317
 6087POPC   NC376763   0.195  26.540   5.248
 6087POPC   PO476764   0.678  26.939   5.522
 6087POPC   GL176765   0.489  26.719   5.883
 6087POPC   GL276766   0.558  26.353   5.910
 6087POPC   C1A76767   0.378  26.825   6.325
 6087POPC   D2A76768   0.443  26.581   6.714
 6087POPC   C3A76769   0.588  26.834   6.991
 6087POPC   C4A76770   0.493  27.097   7.298
 6087POPC   C1B76771   0.143  26.422   6.105
 6087POPC   C2B76772  44.987  26.561   6.513
 6087POPC   C3B76773   0.056  26.927   6.759
 6087POPC   C4B76774   0.093  26.813   7.144
 6088POPC   NC376775  25.010  16.997   5.382
 6088POPC   PO476776  24.379  16.941   5.495
 6088POPC   GL176777  24.488  16.770   5.880
 6088POPC   GL276778  24.844  16.711   5.818
 6088POPC   C1A76779  24.643  16.653   6.310
 6088POPC   D2A76780  24.835  16.469   6.681
 6088POPC   C3A76781  24.527  16.346   7.017
 6088POPC   C4A76782  24.367  16.606   7.357
 6088POPC   C1B76783  24.992  17.014   6.147
 6088POPC   C2B76784  24.874  17.017   6.613
 6088POPC   C3B76785  24.713  16.837   7.028
 6088POPC   C4B76786  24.564  17.069   7.421
 6089POPC   NC376787  24.299  44.907   5.553
 6089POPC   PO476788  24.484   0.465   5.174
 6089POPC   GL176789  24.555   0.387   5.631
 6089POPC   GL276790  24.221   0.382   5.736
 6089POPC   C1A76791  24.578   0.192   6.080
 6089POPC   D2A76792  24.665   0.104   6.523
 6089POPC   C3A76793  24.404   0.294   6.862
 6089POPC   C4A76794  24.615   0.408   7.234
 6089POPC   C1B76795  24.329   0.669   6.076
 6089POPC   C2B76796  24.247   0.681   6.528
 6089POPC   C3B76797  24.429   0.813   6.950
 6089POPC   C4B76798  24.272   0.763   7.343
 6090POPC   NC376799  24.820  23.781   5.193
 6090POPC   PO476800  25.485  23.691   5.333
 6090POPC   GL176801  25.425  23.921   5.720
 6090POPC   GL276802  25.081  23.846   5.743
 6090POPC   C1A76803  25.366  23.835   6.170
 6090POPC   D2A76804  25.352  23.587   6.546
 6090POPC   C3A76805  25.321  23.803   6.937
 6090POPC   C4A76806  25.221  23.614   7.318
 6090POPC   C1B76807  24.911  23.636   6.121
 6090POPC   C2B76808  24.810  23.708   6.532
 6090POPC   C3B76809  24.843  23.610   6.951
 6090POPC   C4B76810  24.749  23.777   7.356
 6091POPC   NC376811   7.487   1.085   5.501
 6091POPC   PO476812   6.879   1.382   5.643
 6091POPC   GL176813   7.259   1.398   5.873
 6091POPC   GL276814   7.179   1.049   5.947
 6091POPC   C1A76815   7.431   1.355   6.315
 6091POPC   D2A76816   7.226   1.188   6.687
 6091POPC   C3A76817   7.133   1.439   7.039
 6091POPC   C4A76818   7.483   1.406   7.291
 6091POPC   C1B76819   7.543   0.882   6.157
 6091POPC   C2B76820   7.682   0.943   6.547
 6091POPC   C3B76821   7.564   0.897   6.953
 6091POPC   C4B76822   7.197   0.939   7.157
 6092POPC   NC376823  35.725  23.364   5.650
 6092POPC   PO476824  36.149  22.933   5.342
 6092POPC   GL176825  36.121  22.918   5.784
 6092POPC   GL276826  35.752  22.848   5.719
 6092POPC   C1A76827  36.074  23.197   6.196
 6092POPC   D2A76828  36.054  23.360   6.663
 6092POPC   C3A76829  36.280  23.106   7.007
 6092POPC   C4A76830  36.235  22.667   7.039
 6092POPC   C1B76831  35.821  22.747   6.153
 6092POPC   C2B76832  36.055  22.821   6.538
 6092POPC   C3B76833  35.842  22.910   6.848
 6092POPC   C4B76834  35.708  22.736   7.173
 6093POPC   NC376835  18.709  32.065   5.632
 6093POPC   PO476836  18.383  32.539   5.269
 6093POPC   GL176837  18.441  32.408   5.838
 6093POPC   GL276838  18.222  32.101   5.944
 6093POPC   C1A76839  18.244  32.509   6.267
 6093POPC   D2A76840  18.193  32.338   6.631
 6093POPC   C3A76841  18.320  32.582   6.880
 6093POPC   C4A76842  18.368  32.502   7.291
 6093POPC   C1B76843  18.505  32.077   6.266
 6093POPC   C2B76844  18.575  31.994   6.664
 6093POPC   C3B76845  18.398  32.060   7.038
 6093POPC   C4B76846  18.609  31.932   7.407
 6094POPC   NC376847   0.509  41.986   5.162
 6094POPC   PO476848   0.371  41.514   5.528
 6094POPC   GL176849   0.320  41.527   5.928
 6094POPC   GL276850   0.202  41.183   5.910
 6094POPC   C1A76851   0.442  41.534   6.371
 6094POPC   D2A76852   0.808  41.476   6.676
 6094POPC   C3A76853   0.641  41.392   7.087
 6094POPC   C4A76854   0.494  41.712   7.366
 6094POPC   C1B76855  44.936  41.425   6.216
 6094POPC   C2B76856  44.960  41.664   6.577
 6094POPC   C3B76857   0.145  41.618   6.987
 6094POPC   C4B76858   0.182  41.306   7.333
 6095POPC   NC376859  31.136   6.728   5.165
 6095POPC   PO476860  31.693   6.875   5.494
 6095POPC   GL176861  31.493   6.712   5.862
 6095POPC   GL276862  31.718   6.449   5.898
 6095POPC   C1A76863  31.327   6.859   6.283
 6095POPC   D2A76864  31.465   6.728   6.712
 6095POPC   C3A76865  31.190   6.584   7.052
 6095POPC   C4A76866  31.240   6.733   7.448
 6095POPC   C1B76867  31.784   6.602   6.301
 6095POPC   C2B76868  31.843   6.382   6.677
 6095POPC   C3B76869  32.002   6.513   7.044
 6095POPC   C4B76870  31.952   6.451   7.481
 6096POPC   NC376871   4.482  38.759   5.596
 6096POPC   PO476872   4.238  39.391   5.513
 6096POPC   GL176873   4.219  39.175   5.901
 6096POPC   GL276874   4.429  38.934   6.074
 6096POPC   C1A76875   4.125  39.323   6.313
 6096POPC   D2A76876   4.141  39.164   6.726
 6096POPC   C3A76877   4.054  39.459   7.032
 6096POPC   C4A76878   4.205  39.359   7.422
 6096POPC   C1B76879   4.595  39.125   6.456
 6096POPC   C2B76880   4.836  39.044   6.858
 6096POPC   C3B76881   4.750  39.166   7.302
 6096POPC   C4B76882   4.654  39.379   7.716
 6097POPC   NC376883  33.226  21.862   5.067
 6097POPC   PO476884  32.886  21.445   5.494
 6097POPC   GL176885  33.025  21.502   5.867
 6097POPC   GL276886  33.346  21.507   5.758
 6097POPC   C1A76887  33.217  21.280   6.216
 6097POPC   D2A76888  33.426  21.154   6.603
 6097POPC   C3A76889  33.150  21.012   6.936
 6097POPC   C4A76890  33.142  21.233   7.352
 6097POPC   C1B76891  33.532  21.666   6.184
 6097POPC   C2B76892  33.303  21.647   6.567
 6097POPC   C3B76893  33.223  21.515   6.942
 6097POPC   C4B76894  33.449  21.680   7.270
 6098POPC   NC376895  12.792  38.081   5.535
 6098POPC   PO476896  13.081  38.658   5.343
 6098POPC   GL176897  12.844  38.575   5.758
 6098POPC   GL276898  13.061  38.818   5.836
 6098POPC   C1A76899  12.751  38.414   6.178
 6098POPC   D2A76900  12.860  38.272   6.600
 6098POPC   C3A76901  12.641  38.393   7.002
 6098POPC   C4A76902  12.734  38.341   7.450
 6098POPC   C1B76903  13.216  38.643   6.174
 6098POPC   C2B76904  13.259  38.631   6.583
 6098POPC   C3B76905  13.157  38.473   6.958
 6098POPC   C4B76906  13.154  38.577   7.326
 6099POPC   NC376907  18.119  16.109   5.493
 6099POPC   PO476908  18.760  15.846   5.624
 6099POPC   GL176909  18.397  15.838   5.875
 6099POPC   GL276910  18.354  16.163   5.943
 6099POPC   C1A76911  18.269  15.822   6.324
 6099POPC   D2A76912  18.451  15.833   6.739
 6099POPC   C3A76913  18.229  15.692   7.126
 6099POPC   C4A76914  18.343  15.694   7.606
 6099POPC   C1B76915  18.061  16.289   6.252
 6099POPC   C2B76916  18.048  16.163   6.702
 6099POPC   C3B76917  18.104  16.199   7.155
 6099POPC   C4B76918  17.927  15.927   7.478
 6100POPC   NC376919  26.570  38.775   5.453
 6100POPC   PO476920  27.172  38.412   5.618
 6100POPC   GL176921  26.926  38.410   5.974
 6100POPC   GL276922  26.744  38.677   5.904
 6100POPC   C1A76923  26.876  38.572   6.400
 6100POPC   D2A76924  26.723  38.358   6.747
 6100POPC   C3A76925  26.780  38.565   7.086
 6100POPC   C4A76926  27.136  38.654   7.237
 6100POPC   C1B76927  26.441  38.777   6.191
 6100POPC   C2B76928  26.415  38.934   6.558
 6100POPC   C3B76929  26.337  38.724   6.911
 6100POPC   C4B76930  26.323  38.706   7.319
 6101POPC   NC376931   4.959  15.247   5.215
 6101POPC   PO476932   5.490  15.705   5.501
 6101POPC   GL176933   5.372  15.312   5.752
 6101POPC   GL276934   5.084  15.172   5.689
 6101POPC   C1A76935   5.318  15.093   6.158
 6101POPC   D2A76936   5.518  14.981   6.530
 6101POPC   C3A76937   5.269  14.930   6.889
 6101POPC   C4A76938   5.285  15.082   7.305
 6101POPC   C1B76939   4.851  15.245   6.040
 6101POPC   C2B76940   4.827  14.983   6.394
 6101POPC   C3B76941   4.756  15.004   6.817
 6101POPC   C4B76942   4.908  15.342   7.069
 6102POPC   NC376943   8.705  37.837   5.371
 6102POPC   PO476944   8.843  37.238   5.181
 6102POPC   GL176945   9.015  37.487   5.591
 6102POPC   GL276946   9.168  37.854   5.632
 6102POPC   C1A76947   8.932  37.640   6.036
 6102POPC   D2A76948   9.042  37.545   6.462
 6102POPC   C3A76949   9.033  37.750   6.893
 6102POPC   C4A76950   9.313  37.715   7.258
 6102POPC   C1B76951   9.162  38.091   6.064
 6102POPC   C2B76952   9.288  37.995   6.497
 6102POPC   C3B76953   9.418  38.116   6.910
 6102POPC   C4B76954   9.335  38.230   7.302
 6103POPC   NC376955   6.682  33.258   5.516
 6103POPC   PO476956   7.248  32.794   5.516
 6103POPC   GL176957   6.959  32.947   5.825
 6103POPC   GL276958   6.995  32.658   6.015
 6103POPC   C1A76959   6.632  32.984   6.176
 6103POPC   D2A76960   6.563  33.200   6.595
 6103POPC   C3A76961   6.317  33.093   6.961
 6103POPC   C4A76962   6.482  33.181   7.368
 6103POPC   C1B76963   7.149  33.001   6.296
 6103POPC   C2B76964   7.033  32.930   6.698
 6103POPC   C3B76965   6.915  33.101   7.058
 6103POPC   C4B76966   6.996  33.019   7.462
 6104POPC   NC376967  42.259  10.313   5.247
 6104POPC   PO476968  42.916  10.572   5.324
 6104POPC   GL176969  42.545  10.534   5.676
 6104POPC   GL276970  42.286  10.266   5.758
 6104POPC   C1A76971  42.341  10.594   6.128
 6104POPC   D2A76972  41.986  10.625   6.428
 6104POPC   C3A76973  42.115  10.605   6.857
 6104POPC   C4A76974  42.234  10.768   7.261
 6104POPC   C1B76975  42.049  10.145   6.164
 6104POPC   C2B76976  42.066  10.135   6.638
 6104POPC   C3B76977  42.054  10.146   7.119
 6104POPC   C4B76978  42.036   9.961   7.563
 6105POPC   NC376979  11.675  41.101   5.373
 6105POPC   PO476980  12.270  41.410   5.367
 6105POPC   GL176981  12.269  41.438   5.806
 6105POPC   GL276982  11.932  41.362   5.791
 6105POPC   C1A76983  12.078  41.643   6.207
 6105POPC   D2A76984  11.911  41.751   6.624
 6105POPC   C3A76985  12.203  41.906   6.931
 6105POPC   C4A76986  12.189  41.790   7.366
 6105POPC   C1B76987  12.123  41.142   6.185
 6105POPC   C2B76988  12.193  41.232   6.620
 6105POPC   C3B76989  12.102  41.392   7.035
 6105POPC   C4B76990  12.142  41.311   7.482
 6106POPC   NC376991  15.341   7.445   5.097
 6106POPC   PO476992  15.388   7.182   5.638
 6106POPC   GL176993  15.297   7.436   5.937
 6106POPC   GL276994  15.486   7.677   5.776
 6106POPC   C1A76995  15.080   7.530   6.310
 6106POPC   D2A76996  14.795   7.482   6.615
 6106POPC   C3A76997  15.051   7.438   6.929
 6106POPC   C4A76998  15.234   7.221   7.224
 6106POPC   C1B76999  15.480   7.833   6.193
 6106POPC   C2B77000  15.443   7.712   6.648
 6106POPC   C3B77001  15.361   7.805   7.103
 6106POPC   C4B77002  15.543   7.560   7.450
 6107POPC   NC377003  40.621   1.988   5.081
 6107POPC   PO477004  41.239   2.081   5.423
 6107POPC   GL177005  40.832   1.951   5.660
 6107POPC   GL277006  41.014   2.111   5.896
 6107POPC   C1A77007  40.585   1.833   6.075
 6107POPC   D2A77008  40.432   1.900   6.525
 6107POPC   C3A77009  40.705   1.928   6.913
 6107POPC   C4A77010  40.729   2.173   7.304
 6107POPC   C1B77011  41.085   1.719   6.084
 6107POPC   C2B77012  40.959   1.898   6.453
 6107POPC   C3B77013  41.126   2.203   6.714
 6107POPC   C4B77014  41.210   2.106   7.126
 6108POPC   NC377015  44.679  28.448   5.253
 6108POPC   PO477016  44.953  27.896   5.520
 6108POPC   GL177017  44.807  28.153   5.920
 6108POPC   GL277018  44.714  28.493   5.816
 6108POPC   C1A77019  44.569  28.275   6.292
 6108POPC   D2A77020  44.409  28.089   6.663
 6108POPC   C3A77021  44.582  28.126   7.098
 6108POPC   C4A77022  44.783  28.111   7.512
 6108POPC   C1B77023  44.931  28.629   6.223
 6108POPC   C2B77024  44.894  28.766   6.652
 6108POPC   C3B77025  44.714  28.604   7.022
 6108POPC   C4B77026  44.724  28.626   7.468
 6109POPC   NC377027  12.579   6.814   5.375
 6109POPC   PO477028  13.266   6.914   5.536
 6109POPC   GL177029  12.989   6.644   5.752
 6109POPC   GL277030  12.834   6.344   5.657
 6109POPC   C1A77031  12.761   6.732   6.126
 6109POPC   D2A77032  12.881   6.883   6.548
 6109POPC   C3A77033  12.610   6.782   6.883
 6109POPC   C4A77034  12.747   6.786   7.296
 6109POPC   C1B77035  12.895   6.239   6.118
 6109POPC   C2B77036  12.720   6.389   6.552
 6109POPC   C3B77037  12.982   6.427   6.984
 6109POPC   C4B77038  13.002   6.383   7.466
 6110POPC   NC377039  29.018  26.251   5.615
 6110POPC   PO477040  29.514  25.806   5.656
 6110POPC   GL177041  29.271  25.988   5.980
 6110POPC   GL277042  28.969  25.820   5.910
 6110POPC   C1A77043  29.129  26.172   6.374
 6110POPC   D2A77044  29.310  26.341   6.763
 6110POPC   C3A77045  29.133  26.165   7.137
 6110POPC   C4A77046  29.203  26.160   7.595
 6110POPC   C1B77047  29.044  25.594   6.276
 6110POPC   C2B77048  28.825  25.568   6.662
 6110POPC   C3B77049  28.903  25.707   7.066
 6110POPC   C4B77050  29.199  25.709   7.374
 6111POPC   NC377051  15.838  16.340   5.302
 6111POPC   PO477052  15.969  15.738   5.466
 6111POPC   GL177053  15.950  16.045   5.805
 6111POPC   GL277054  16.256  16.262   5.791
 6111POPC   C1A77055  15.748  16.045   6.230
 6111POPC   D2A77056  15.593  16.241   6.609
 6111POPC   C3A77057  15.684  15.969   6.940
 6111POPC   C4A77058  15.862  15.596   7.133
 6111POPC   C1B77059  16.243  16.138   6.227
 6111POPC   C2B77060  16.094  16.132   6.657
 6111POPC   C3B77061  16.205  15.980   7.075
 6111POPC   C4B77062  16.343  15.900   7.487
 6112POPC   NC377063  14.842  18.240   5.273
 6112POPC   PO477064  15.509  18.174   5.414
 6112POPC   GL177065  15.331  18.233   5.804
 6112POPC   GL277066  15.002  18.268   5.770
 6112POPC   C1A77067  15.212  18.485   6.172
 6112POPC   D2A77068  15.286  18.677   6.544
 6112POPC   C3A77069  14.975  18.632   6.869
 6112POPC   C4A77070  15.007  18.417   7.242
 6112POPC   C1B77071  15.021  18.003   6.166
 6112POPC   C2B77072  15.037  18.195   6.578
 6112POPC   C3B77073  15.029  17.989   6.970
 6112POPC   C4B77074  14.912  17.924   7.400
 6113POPC   NC377075  31.007  38.724   5.475
 6113POPC   PO477076  30.494  38.232   5.603
 6113POPC   GL177077  30.725  38.451   5.862
 6113POPC   GL277078  30.534  38.703   6.060
 6113POPC   C1A77079  30.842  38.317   6.266
 6113POPC   D2A77080  30.751  38.567   6.588
 6113POPC   C3A77081  30.729  38.326   6.947
 6113POPC   C4A77082  30.775  38.239   7.352
 6113POPC   C1B77083  31.007  38.776   6.134
 6113POPC   C2B77084  31.258  38.719   6.475
 6113POPC   C3B77085  31.177  38.552   6.873
 6113POPC   C4B77086  30.973  38.694   7.239
 6114POPC   NC377087  13.315  26.824   5.378
 6114POPC   PO477088  12.663  26.527   5.372
 6114POPC   GL177089  12.926  26.643   5.733
 6114POPC   GL277090  13.001  26.988   5.754
 6114POPC   C1A77091  12.838  26.720   6.183
 6114POPC   D2A77092  12.747  27.001   6.561
 6114POPC   C3A77093  12.765  26.854   7.003
 6114POPC   C4A77094  13.013  26.502   7.200
 6114POPC   C1B77095  13.010  27.200   6.139
 6114POPC   C2B77096  13.238  27.250   6.497
 6114POPC   C3B77097  13.138  27.356   6.917
 6114POPC   C4B77098  13.134  27.122   7.279
 6115POPC   NC377099  28.923  30.828   5.391
 6115POPC   PO477100  29.609  30.705   5.493
 6115POPC   GL177101  29.265  30.691   5.765
 6115POPC   GL277102  29.346  30.391   5.961
 6115POPC   C1A77103  29.094  30.802   6.155
 6115POPC   D2A77104  29.294  30.818   6.535
 6115POPC   C3A77105  29.083  31.010   6.854
 6115POPC   C4A77106  29.148  30.925   7.266
 6115POPC   C1B77107  28.974  30.318   6.244
 6115POPC   C2B77108  28.908  30.471   6.629
 6115POPC   C3B77109  29.152  30.486   6.962
 6115POPC   C4B77110  28.984  30.458   7.361
 6116POPC   NC377111  43.697   1.370   5.271
 6116POPC   PO477112  44.306   1.247   5.434
 6116POPC   GL177113  43.954   1.147   5.717
 6116POPC   GL277114  43.659   1.348   5.801
 6116POPC   C1A77115  44.002   1.128   6.169
 6116POPC   D2A77116  44.018   1.308   6.570
 6116POPC   C3A77117  43.913   1.073   6.946
 6116POPC   C4A77118  43.949   1.271   7.363
 6116POPC   C1B77119  43.500   1.102   6.122
 6116POPC   C2B77120  43.597   1.037   6.535
 6116POPC   C3B77121  43.482   1.327   6.849
 6116POPC   C4B77122  43.481   1.137   7.242
 6117POPC   NC377123   2.872  25.417   5.365
 6117POPC   PO477124   2.576  24.930   5.556
 6117POPC   GL177125   2.720  25.242   5.804
 6117POPC   GL277126   2.528  25.594   5.736
 6117POPC   C1A77127   2.984  25.183   6.130
 6117POPC   D2A77128   2.980  24.986   6.519
 6117POPC   C3A77129   3.023  25.223   6.869
 6117POPC   C4A77130   2.829  25.325   7.229
 6117POPC   C1B77131   2.742  25.643   6.102
 6117POPC   C2B77132   2.721  25.439   6.484
 6117POPC   C3B77133   2.646  25.603   6.856
 6117POPC   C4B77134   2.511  25.707   7.273
 6118POPC   NC377135  26.492  44.411   5.558
 6118POPC   PO477136  27.054  44.021   5.478
 6118POPC   GL177137  26.988  43.855   5.841
 6118POPC   GL277138  26.634  43.943   5.807
 6118POPC   C1A77139  27.195  43.710   6.198
 6118POPC   D2A77140  26.987  43.749   6.558
 6118POPC   C3A77141  27.188  43.684   6.905
 6118POPC   C4A77142  26.944  43.706   7.281
 6118POPC   C1B77143  26.631  43.659   6.175
 6118POPC   C2B77144  26.480  43.589   6.621
 6118POPC   C3B77145  26.472  43.773   7.057
 6118POPC   C4B77146  26.363  43.791   7.500
 6119POPC   NC377147  21.834  33.058   5.460
 6119POPC   PO477148  22.366  33.338   5.397
 6119POPC   GL177149  22.364  33.094   5.786
 6119POPC   GL277150  22.045  32.924   5.899
 6119POPC   C1A77151  22.509  33.272   6.195
 6119POPC   D2A77152  22.337  33.431   6.628
 6119POPC   C3A77153  22.256  33.174   7.030
 6119POPC   C4A77154  22.425  33.192   7.491
 6119POPC   C1B77155  22.019  33.234   6.251
 6119POPC   C2B77156  21.873  33.149   6.658
 6119POPC   C3B77157  21.693  33.130   7.044
 6119POPC   C4B77158  21.936  32.948   7.389
 6120POPC   NC377159  34.808   1.121   5.406
 6120POPC   PO477160  34.184   1.403   5.498
 6120POPC   GL177161  34.282   1.197   5.854
 6120POPC   GL277162  34.625   1.248   5.855
 6120POPC   C1A77163  34.323   1.400   6.238
 6120POPC   D2A77164  34.531   1.475   6.582
 6120POPC   C3A77165  34.318   1.222   6.827
 6120POPC   C4A77166  34.239   1.321   7.202
 6120POPC   C1B77167  34.823   1.230   6.237
 6120POPC   C2B77168  34.837   1.059   6.637
 6120POPC   C3B77169  34.746   1.117   7.048
 6120POPC   C4B77170  35.017   1.156   7.321
 6121POPC   NC377171  35.065  38.798   5.448
 6121POPC   PO477172  35.407  39.437   5.433
 6121POPC   GL177173  35.365  39.263   5.846
 6121POPC   GL277174  35.170  38.992   5.907
 6121POPC   C1A77175  35.592  39.086   6.199
 6121POPC   D2A77176  35.672  38.859   6.576
 6121POPC   C3A77177  35.602  39.104   6.917
 6121POPC   C4A77178  35.381  39.156   7.313
 6121POPC   C1B77179  35.047  39.097   6.332
 6121POPC   C2B77180  35.117  39.015   6.772
 6121POPC   C3B77181  35.073  38.778   7.140
 6121POPC   C4B77182  34.947  38.905   7.551
 6122POPC   NC377183  11.050  40.450   5.101
 6122POPC   PO477184  11.422  39.863   5.245
 6122POPC   GL177185  11.305  39.817   5.748
 6122POPC   GL277186  11.431  40.082   5.921
 6122POPC   C1A77187  11.354  39.710   6.259
 6122POPC   D2A77188  11.421  40.018   6.643
 6122POPC   C3A77189  11.238  39.950   7.083
 6122POPC   C4A77190  11.070  39.810   7.522
 6122POPC   C1B77191  11.041  40.092   6.228
 6122POPC   C2B77192  10.917  40.228   6.658
 6122POPC   C3B77193  11.098  40.453   7.005
 6122POPC   C4B77194  11.276  40.334   7.441
 6123POPC   NC377195  33.451  19.497   5.557
 6123POPC   PO477196  33.839  20.050   5.453
 6123POPC   GL177197  33.803  20.017   5.892
 6123POPC   GL277198  33.708  19.665   5.952
 6123POPC   C1A77199  33.749  20.001   6.350
 6123POPC   D2A77200  33.847  20.284   6.690
 6123POPC   C3A77201  33.806  20.162   7.114
 6123POPC   C4A77202  33.579  19.827   7.309
 6123POPC   C1B77203  33.989  19.545   6.256
 6123POPC   C2B77204  33.926  19.458   6.679
 6123POPC   C3B77205  33.986  19.643   7.074
 6123POPC   C4B77206  34.169  19.438   7.433
 6124POPC   NC377207  27.081  25.951   5.357
 6124POPC   PO477208  26.501  26.143   5.293
 6124POPC   GL177209  26.689  26.379   5.625
 6124POPC   GL277210  26.785  26.067   5.798
 6124POPC   C1A77211  26.684  26.464   6.102
 6124POPC   D2A77212  26.777  26.183   6.464
 6124POPC   C3A77213  26.698  26.320   6.879
 6124POPC   C4A77214  26.918  26.207   7.252
 6124POPC   C1B77215  26.773  25.724   6.127
 6124POPC   C2B77216  26.652  25.672   6.541
 6124POPC   C3B77217  26.835  25.811   6.902
 6124POPC   C4B77218  26.809  25.537   7.236
 6125POPC   NC377219  11.004  13.477   5.310
 6125POPC   PO477220  10.300  13.515   5.336
 6125POPC   GL177221  10.104  13.668   5.720
 6125POPC   GL277222  10.464  13.732   5.794
 6125POPC   C1A77223  10.158  13.758   6.174
 6125POPC   D2A77224  10.272  13.439   6.478
 6125POPC   C3A77225  10.403  13.641   6.844
 6125POPC   C4A77226  10.469  13.772   7.251
 6125POPC   C1B77227  10.679  13.604   6.217
 6125POPC   C2B77228  10.910  13.718   6.602
 6125POPC   C3B77229  10.903  13.603   7.044
 6125POPC   C4B77230  10.729  13.385   7.432
 6126POPC   NC377231  30.093  23.198   5.358
 6126POPC   PO477232  29.483  22.848   5.427
 6126POPC   GL177233  29.842  22.880   5.708
 6126POPC   GL277234  29.824  23.185   5.808
 6126POPC   C1A77235  29.940  22.821   6.144
 6126POPC   D2A77236  29.753  22.960   6.538
 6126POPC   C3A77237  30.040  22.959   6.897
 6126POPC   C4A77238  30.070  22.692   7.275
 6126POPC   C1B77239  29.960  23.344   6.201
 6126POPC   C2B77240  29.786  23.493   6.593
 6126POPC   C3B77241  29.619  23.271   6.942
 6126POPC   C4B77242  29.826  23.123   7.322
 6127POPC   NC377243  34.278  44.751   5.569
 6127POPC   PO477244  33.537  44.885   5.529
 6127POPC   GL177245  33.847  44.725   5.849
 6127POPC   GL277246  34.104   0.022   5.962
 6127POPC   C1A77247  33.981  44.646   6.286
 6127POPC   D2A77248  33.974  44.949   6.638
 6127POPC   C3A77249  34.077  44.774   7.036
 6127POPC   C4A77250  33.818  44.612   7.368
 6127POPC   C1B77251  33.732   0.120   6.181
 6127POPC   C2B77252  33.483   0.102   6.573
 6127POPC   C3B77253  33.587  44.943   7.011
 6127POPC   C4B77254  33.655   0.078   7.501
 6128POPC   NC377255  12.577  14.932   5.089
 6128POPC   PO477256  12.813  15.430   5.504
 6128POPC   GL177257  12.807  15.293   5.898
 6128POPC   GL277258  12.491  15.101   5.929
 6128POPC   C1A77259  12.951  14.961   6.181
 6128POPC   D2A77260  12.966  14.621   6.493
 6128POPC   C3A77261  12.815  14.850   6.834
 6128POPC   C4A77262  12.984  15.064   7.206
 6128POPC   C1B77263  12.591  15.271   6.353
 6128POPC   C2B77264  12.900  15.333   6.711
 6128POPC   C3B77265  12.972  15.569   7.088
 6128POPC   C4B77266  12.885  15.483   7.512
 6129POPC   NC377267  43.679  40.746   5.131
 6129POPC   PO477268  44.202  40.600   5.584
 6129POPC   GL177269  43.966  40.789   5.909
 6129POPC   GL277270  44.069  41.079   6.004
 6129POPC   C1A77271  44.016  40.687   6.346
 6129POPC   D2A77272  43.792  40.555   6.724
 6129POPC   C3A77273  44.071  40.667   7.071
 6129POPC   C4A77274  44.259  40.991   7.286
 6129POPC   C1B77275  43.735  41.212   6.224
 6129POPC   C2B77276  43.789  41.081   6.620
 6129POPC   C3B77277  43.907  41.202   6.977
 6129POPC   C4B77278  43.798  41.242   7.371
 6130POPC   NC377279  23.483   6.053   5.481
 6130POPC   PO477280  23.800   5.533   5.264
 6130POPC   GL177281  23.833   5.681   5.731
 6130POPC   GL277282  24.038   5.982   5.813
 6130POPC   C1A77283  23.733   5.870   6.181
 6130POPC   D2A77284  23.732   6.053   6.592
 6130POPC   C3A77285  23.393   5.933   6.843
 6130POPC   C4A77286  23.612   5.912   7.203
 6130POPC   C1B77287  24.015   6.304   6.181
 6130POPC   C2B77288  24.069   6.446   6.621
 6130POPC   C3B77289  23.993   6.256   7.025
 6130POPC   C4B77290  23.833   6.383   7.415
 6131POPC   NC377291  34.321  30.481   5.570
 6131POPC   PO477292  34.054  31.174   5.549
 6131POPC   GL177293  34.284  30.900   5.878
 6131POPC   GL277294  34.608  30.991   6.008
 6131POPC   C1A77295  34.231  30.762   6.329
 6131POPC   D2A77296  34.533  30.997   6.569
 6131POPC   C3A77297  34.632  30.958   7.012
 6131POPC   C4A77298  34.909  31.173   7.284
 6131POPC   C1B77299  34.700  30.609   6.244
 6131POPC   C2B77300  34.554  30.410   6.612
 6131POPC   C3B77301  34.778  30.355   7.012
 6131POPC   C4B77302  34.675  30.593   7.366
 6132POPC   NC377303  28.403  44.048   5.448
 6132POPC   PO477304  28.130  43.490   5.518
 6132POPC   GL177305  28.399  43.662   5.887
 6132POPC   GL277306  28.413  44.025   5.942
 6132POPC   C1A77307  28.416  43.745   6.371
 6132POPC   D2A77308  28.085  43.937   6.641
 6132POPC   C3A77309  28.134  43.811   7.080
 6132POPC   C4A77310  28.456  43.813   7.377
 6132POPC   C1B77311  28.596  44.234   6.269
 6132POPC   C2B77312  28.544  44.233   6.702
 6132POPC   C3B77313  28.415  44.255   7.096
 6132POPC   C4B77314  28.711  44.246   7.433
 6133POPC   NC377315   3.308  14.748   5.668
 6133POPC   PO477316   3.810  14.370   5.373
 6133POPC   GL177317   3.828  14.190   5.785
 6133POPC   GL277318   3.453  14.154   5.847
 6133POPC   C1A77319   3.837  14.188   6.240
 6133POPC   D2A77320   3.843  14.472   6.573
 6133POPC   C3A77321   3.665  14.224   6.877
 6133POPC   C4A77322   3.842  14.136   7.232
 6133POPC   C1B77323   3.151  14.288   6.202
 6133POPC   C2B77324   3.227  14.614   6.560
 6133POPC   C3B77325   3.359  14.618   7.008
 6133POPC   C4B77326   3.151  14.329   7.339
 6134POPC   NC377327   8.349  44.002   5.338
 6134POPC   PO477328   7.661  43.891   5.349
 6134POPC   GL177329   7.960  43.841   5.765
 6134POPC   GL277330   8.342  43.914   5.829
 6134POPC   C1A77331   8.057  43.934   6.235
 6134POPC   D2A77332   7.974  44.115   6.634
 6134POPC   C3A77333   8.028  43.836   6.956
 6134POPC   C4A77334   7.841  43.780   7.351
 6134POPC   C1B77335   8.507  43.636   6.142
 6134POPC   C2B77336   8.342  43.586   6.568
 6134POPC   C3B77337   8.515  43.680   6.983
 6134POPC   C4B77338   8.367  43.930   7.332
 6135POPC   NC377339  43.560   5.301   5.408
 6135POPC   PO477340  43.676   4.654   5.370
 6135POPC   GL177341  43.726   4.954   5.762
 6135POPC   GL277342  44.077   4.962   5.917
 6135POPC   C1A77343  43.735   5.318   6.089
 6135POPC   D2A77344  43.990   5.366   6.505
 6135POPC   C3A77345  43.924   5.255   6.954
 6135POPC   C4A77346  43.659   5.268   7.311
 6135POPC   C1B77347  43.847   4.874   6.299
 6135POPC   C2B77348  43.615   4.940   6.683
 6135POPC   C3B77349  43.688   4.791   7.127
 6135POPC   C4B77350  43.961   4.890   7.513
 6136POPC   NC377351  33.215  13.480   5.412
 6136POPC   PO477352  32.564  13.802   5.337
 6136POPC   GL177353  32.691  13.615   5.766
 6136POPC   GL277354  32.967  13.369   5.828
 6136POPC   C1A77355  32.869  13.684   6.209
 6136POPC   D2A77356  33.051  13.581   6.624
 6136POPC   C3A77357  32.803  13.597   6.999
 6136POPC   C4A77358  32.774  13.707   7.458
 6136POPC   C1B77359  33.282  13.364   6.164
 6136POPC   C2B77360  33.503  13.355   6.552
 6136POPC   C3B77361  33.296  13.247   6.944
 6136POPC   C4B77362  33.211  13.490   7.303
 6137POPC   NC377363  12.474   2.836   5.199
 6137POPC   PO477364  13.069   3.080   5.460
 6137POPC   GL177365  12.926   2.814   5.827
 6137POPC   GL277366  12.652   2.601   5.743
 6137POPC   C1A77367  12.725   2.836   6.251
 6137POPC   D2A77368  12.564   2.990   6.656
 6137POPC   C3A77369  12.902   2.997   6.965
 6137POPC   C4A77370  13.056   2.642   7.219
 6137POPC   C1B77371  12.460   2.389   6.115
 6137POPC   C2B77372  12.460   2.491   6.570
 6137POPC   C3B77373  12.562   2.487   7.020
 6137POPC   C4B77374  12.556   2.825   7.280
 6138POPC   NC377375  15.727  15.336   5.491
 6138POPC   PO477376  16.253  14.813   5.425
 6138POPC   GL177377  16.020  15.024   5.778
 6138POPC   GL277378  16.144  15.365   5.789
 6138POPC   C1A77379  15.767  15.160   6.156
 6138POPC   D2A77380  15.926  15.223   6.585
 6138POPC   C3A77381  15.720  15.127   6.986
 6138POPC   C4A77382  15.924  15.143   7.375
 6138POPC   C1B77383  16.017  15.607   6.145
 6138POPC   C2B77384  16.224  15.655   6.508
 6138POPC   C3B77385  16.282  15.478   6.896
 6138POPC   C4B77386  16.377  15.414   7.328
 6139POPC   NC377387  21.046   4.971   5.385
 6139POPC   PO477388  21.597   5.414   5.424
 6139POPC   GL177389  21.366   5.255   5.786
 6139POPC   GL277390  21.332   4.895   5.802
 6139POPC   C1A77391  21.405   5.211   6.244
 6139POPC   D2A77392  21.514   5.397   6.636
 6139POPC   C3A77393  21.345   5.195   6.972
 6139POPC   C4A77394  21.462   5.223   7.376
 6139POPC   C1B77395  21.232   4.736   6.213
 6139POPC   C2B77396  21.326   4.772   6.630
 6139POPC   C3B77397  21.018   4.822   6.946
 6139POPC   C4B77398  21.032   4.934   7.336
 6140POPC   NC377399  19.448  29.169   5.438
 6140POPC   PO477400  18.937  28.709   5.398
 6140POPC   GL177401  19.134  28.929   5.819
 6140POPC   GL277402  19.113  29.292   5.822
 6140POPC   C1A77403  19.178  29.037   6.319
 6140POPC   D2A77404  18.972  29.209   6.747
 6140POPC   C3A77405  18.937  29.057   7.192
 6140POPC   C4A77406  19.051  28.758   7.538
 6140POPC   C1B77407  19.248  29.525   6.196
 6140POPC   C2B77408  19.263  29.614   6.656
 6140POPC   C3B77409  19.328  29.435   7.095
 6140POPC   C4B77410  19.302  29.231   7.508
 6141POPC   NC377411  22.851   6.520   5.582
 6141POPC   PO477412  23.293   7.031   5.744
 6141POPC   GL177413  23.026   6.727   6.008
 6141POPC   GL277414  22.966   6.346   6.016
 6141POPC   C1A77415  22.817   6.663   6.396
 6141POPC   D2A77416  23.059   6.531   6.762
 6141POPC   C3A77417  22.899   6.688   7.133
 6141POPC   C4A77418  22.868   6.775   7.556
 6141POPC   C1B77419  23.021   6.184   6.377
 6141POPC   C2B77420  22.662   6.210   6.605
 6141POPC   C3B77421  22.654   6.227   7.007
 6141POPC   C4B77422  23.060   6.195   7.200
 6142POPC   NC377423  36.677  32.189   5.635
 6142POPC   PO477424  36.009  32.053   5.501
 6142POPC   GL177425  36.188  32.016   5.858
 6142POPC   GL277426  36.233  32.382   5.863
 6142POPC   C1A77427  36.408  32.051   6.241
 6142POPC   D2A77428  36.346  31.870   6.618
 6142POPC   C3A77429  36.378  32.066   7.023
 6142POPC   C4A77430  36.242  32.054   7.471
 6142POPC   C1B77431  35.965  32.343   6.210
 6142POPC   C2B77432  36.156  32.356   6.586
 6142POPC   C3B77433  36.020  32.419   6.956
 6142POPC   C4B77434  36.214  32.555   7.309
 6143POPC   NC377435  21.090  12.577   5.320
 6143POPC   PO477436  21.620  13.046   5.311
 6143POPC   GL177437  21.687  12.935   5.747
 6143POPC   GL277438  21.407  12.695   5.720
 6143POPC   C1A77439  21.530  12.894   6.168
 6143POPC   D2A77440  21.665  12.751   6.570
 6143POPC   C3A77441  21.538  12.920   6.947
 6143POPC   C4A77442  21.672  12.640   7.273
 6143POPC   C1B77443  21.086  12.643   6.032
 6143POPC   C2B77444  21.093  12.438   6.476
 6143POPC   C3B77445  21.201  12.530   6.922
 6143POPC   C4B77446  21.210  12.801   7.323
 6144POPC   NC377447  35.185  29.787   5.329
 6144POPC   PO477448  35.588  30.294   5.426
 6144POPC   GL177449  35.474  29.960   5.727
 6144POPC   GL277450  35.635  29.642   5.641
 6144POPC   C1A77451  35.282  29.986   6.144
 6144POPC   D2A77452  35.391  30.040   6.597
 6144POPC   C3A77453  35.164  29.942   7.023
 6144POPC   C4A77454  35.087  29.926   7.517
 6144POPC   C1B77455  35.645  29.646   6.101
 6144POPC   C2B77456  35.804  29.757   6.518
 6144POPC   C3B77457  35.729  29.830   6.938
 6144POPC   C4B77458  35.553  29.825   7.337
 6145POPC   NC377459   3.992  15.421   5.402
 6145POPC   PO477460   4.521  14.957   5.377
 6145POPC   GL177461   4.442  15.310   5.699
 6145POPC   GL277462   4.128  15.126   5.788
 6145POPC   C1A77463   4.447  15.538   6.151
 6145POPC   D2A77464   4.658  15.472   6.583
 6145POPC   C3A77465   4.402  15.378   6.971
 6145POPC   C4A77466   4.527  15.046   7.266
 6145POPC   C1B77467   4.383  15.022   6.125
 6145POPC   C2B77468   4.289  15.129   6.519
 6145POPC   C3B77469   4.104  14.963   6.853
 6145POPC   C4B77470   4.025  15.123   7.253
 6146POPC   NC377471  26.833   7.141   5.351
 6146POPC   PO477472  26.361   7.539   5.492
 6146POPC   GL177473  26.660   7.316   5.831
 6146POPC   GL277474  26.894   7.569   5.900
 6146POPC   C1A77475  26.879   7.279   6.302
 6146POPC   D2A77476  26.902   7.571   6.688
 6146POPC   C3A77477  26.897   7.378   7.148
 6146POPC   C4A77478  26.917   7.171   7.559
 6146POPC   C1B77479  26.539   7.672   6.244
 6146POPC   C2B77480  26.407   7.695   6.718
 6146POPC   C3B77481  26.615   7.784   7.141
 6146POPC   C4B77482  26.518   7.539   7.543
 6147POPC   NC377483  43.969  28.938   5.482
 6147POPC   PO477484  43.840  29.587   5.396
 6147POPC   GL177485  43.977  29.413   5.824
 6147POPC   GL277486  43.725  29.163   5.875
 6147POPC   C1A77487  44.032  29.230   6.281
 6147POPC   D2A77488  44.197  29.043   6.684
 6147POPC   C3A77489  44.113  29.244   7.089
 6147POPC   C4A77490  44.173  29.485   7.466
 6147POPC   C1B77491  43.462  29.358   6.168
 6147POPC   C2B77492  43.385  29.324   6.615
 6147POPC   C3B77493  43.619  29.216   6.965
 6147POPC   C4B77494  43.794  28.823   7.066
 6148POPC   NC377495  30.066  35.664   5.405
 6148POPC   PO477496  30.000  34.992   5.377
 6148POPC   GL177497  30.006  35.287   5.752
 6148POPC   GL277498  30.340  35.380   5.778
 6148POPC   C1A77499  29.781  35.352   6.164
 6148POPC   D2A77500  29.824  35.154   6.549
 6148POPC   C3A77501  29.651  35.333   6.872
 6148POPC   C4A77502  29.829  35.318   7.245
 6148POPC   C1B77503  30.267  35.197   6.190
 6148POPC   C2B77504  30.323  35.308   6.619
 6148POPC   C3B77505  30.308  34.986   6.963
 6148POPC   C4B77506  30.212  35.024   7.414
 6149POPC   NC377507   3.776  22.046   5.060
 6149POPC   PO477508   4.390  22.051   5.449
 6149POPC   GL177509   4.302  22.102   5.868
 6149POPC   GL277510   4.656  22.028   5.911
 6149POPC   C1A77511   4.133  22.373   6.216
 6149POPC   D2A77512   4.296  22.428   6.645
 6149POPC   C3A77513   4.241  22.054   6.824
 6149POPC   C4A77514   4.074  21.780   7.158
 6149POPC   C1B77515   4.592  22.099   6.346
 6149POPC   C2B77516   4.755  22.157   6.760
 6149POPC   C3B77517   4.631  22.272   7.182
 6149POPC   C4B77518   4.827  22.452   7.574
 6150POPC   NC377519  38.491  14.138   5.411
 6150POPC   PO477520  38.215  13.476   5.249
 6150POPC   GL177521  38.307  13.724   5.680
 6150POPC   GL277522  38.228  14.060   5.831
 6150POPC   C1A77523  38.492  13.746   6.146
 6150POPC   D2A77524  38.726  13.528   6.488
 6150POPC   C3A77525  38.606  13.539   6.925
 6150POPC   C4A77526  38.588  13.890   7.213
 6150POPC   C1B77527  37.992  13.859   6.165
 6150POPC   C2B77528  38.101  13.682   6.530
 6150POPC   C3B77529  38.151  13.827   6.927
 6150POPC   C4B77530  38.189  13.530   7.241
 6151POPC   NC377531  16.580   8.061   5.405
 6151POPC   PO477532  16.622   8.763   5.473
 6151POPC   GL177533  16.728   8.372   5.790
 6151POPC   GL277534  16.466   8.103   5.906
 6151POPC   C1A77535  16.913   8.131   6.173
 6151POPC   D2A77536  16.853   8.014   6.647
 6151POPC   C3A77537  16.813   8.286   7.056
 6151POPC   C4A77538  16.985   8.507   7.478
 6151POPC   C1B77539  16.405   8.027   6.353
 6151POPC   C2B77540  16.336   8.131   6.802
 6151POPC   C3B77541  16.400   7.972   7.208
 6151POPC   C4B77542  16.747   8.033   7.500
 6152POPC   NC377543  36.649  41.715   5.482
 6152POPC   PO477544  37.109  41.325   5.637
 6152POPC   GL177545  36.824  41.481   5.922
 6152POPC   GL277546  37.060  41.711   6.036
 6152POPC   C1A77547  36.859  41.369   6.362
 6152POPC   D2A77548  37.181  41.613   6.546
 6152POPC   C3A77549  37.127  41.719   6.957
 6152POPC   C4A77550  37.050  41.742   7.377
 6152POPC   C1B77551  36.701  41.837   6.286
 6152POPC   C2B77552  36.647  41.715   6.716
 6152POPC   C3B77553  36.666  41.948   7.106
 6152POPC   C4B77554  36.570  41.900   7.547
 6153POPC   NC377555  36.864  26.013   5.317
 6153POPC   PO477556  37.366  26.133   5.538
 6153POPC   GL177557  36.996  26.145   5.805
 6153POPC   GL277558  36.804  25.851   5.809
 6153POPC   C1A77559  36.800  26.221   6.228
 6153POPC   D2A77560  36.987  26.285   6.644
 6153POPC   C3A77561  37.058  26.204   7.073
 6153POPC   C4A77562  36.978  26.060   7.474
 6153POPC   C1B77563  36.477  25.845   6.147
 6153POPC   C2B77564  36.514  25.946   6.599
 6153POPC   C3B77565  36.739  25.829   6.977
 6153POPC   C4B77566  36.667  25.662   7.385
 6154POPC   NC377567  26.766  13.772   5.270
 6154POPC   PO477568  26.644  14.111   5.701
 6154POPC   GL177569  26.606  13.676   5.845
 6154POPC   GL277570  26.909  13.490   5.819
 6154POPC   C1A77571  26.651  13.474   6.260
 6154POPC   D2A77572  26.834  13.555   6.661
 6154POPC   C3A77573  26.687  13.668   7.077
 6154POPC   C4A77574  26.844  13.695   7.501
 6154POPC   C1B77575  27.058  13.186   6.168
 6154POPC   C2B77576  27.156  13.151   6.636
 6154POPC   C3B77577  27.109  13.352   7.051
 6154POPC   C4B77578  26.977  13.227   7.460
 6155POPC   NC377579  10.430  26.180   5.413
 6155POPC   PO477580  10.934  25.768   5.546
 6155POPC   GL177581  10.684  26.018   5.830
 6155POPC   GL277582  10.370  25.916   5.872
 6155POPC   C1A77583  10.649  26.139   6.256
 6155POPC   D2A77584  10.752  26.021   6.676
 6155POPC   C3A77585  10.485  26.269   6.956
 6155POPC   C4A77586  10.355  26.052   7.304
 6155POPC   C1B77587  10.272  25.650   6.185
 6155POPC   C2B77588  10.505  25.521   6.545
 6155POPC   C3B77589  10.473  25.672   6.994
 6155POPC   C4B77590  10.688  25.679   7.436
 6156POPC   NC377591  35.767  15.939   5.644
 6156POPC   PO477592  36.269  16.318   5.446
 6156POPC   GL177593  36.267  16.079   5.859
 6156POPC   GL277594  36.459  15.805   5.866
 6156POPC   C1A77595  36.069  15.838   6.242
 6156POPC   D2A77596  35.844  15.765   6.658
 6156POPC   C3A77597  35.962  15.951   7.094
 6156POPC   C4A77598  35.790  15.751   7.532
 6156POPC   C1B77599  36.585  15.784   6.294
 6156POPC   C2B77600  36.394  15.713   6.704
 6156POPC   C3B77601  36.541  15.851   7.112
 6156POPC   C4B77602  36.637  15.692   7.536
 6157POPC   NC377603  18.168  19.639   5.094
 6157POPC   PO477604  17.890  20.183   5.374
 6157POPC   GL177605  18.102  20.098   5.748
 6157POPC   GL277606  18.223  19.739   5.725
 6157POPC   C1A77607  18.020  19.921   6.167
 6157POPC   D2A77608  18.127  19.591   6.484
 6157POPC   C3A77609  18.251  19.787   6.869
 6157POPC   C4A77610  18.160  19.962   7.270
 6157POPC   C1B77611  18.461  19.568   6.088
 6157POPC   C2B77612  18.670  19.605   6.511
 6157POPC   C3B77613  18.633  19.469   6.929
 6157POPC   C4B77614  18.489  19.569   7.299
 6158POPC   NC377615   8.919  31.606   5.378
 6158POPC   PO477616   9.493  31.468   5.679
 6158POPC   GL177617   9.098  31.358   5.795
 6158POPC   GL277618   8.803  31.563   5.875
 6158POPC   C1A77619   9.071  31.211   6.196
 6158POPC   D2A77620   9.008  31.429   6.575
 6158POPC   C3A77621   9.160  31.145   6.867
 6158POPC   C4A77622   9.089  31.362   7.197
 6158POPC   C1B77623   8.581  31.348   6.218
 6158POPC   C2B77624   8.435  31.414   6.617
 6158POPC   C3B77625   8.664  31.691   6.902
 6158POPC   C4B77626   8.758  31.705   7.313
 6159POPC   NC377627  38.175  35.701   5.537
 6159POPC   PO477628  38.693  35.421   5.191
 6159POPC   GL177629  38.610  35.446   5.639
 6159POPC   GL277630  38.477  35.139   5.806
 6159POPC   C1A77631  38.626  35.535   6.097
 6159POPC   D2A77632  38.537  35.419   6.512
 6159POPC   C3A77633  38.778  35.184   6.804
 6159POPC   C4A77634  38.717  35.258   7.255
 6159POPC   C1B77635  38.169  35.278   6.155
 6159POPC   C2B77636  38.039  35.440   6.578
 6159POPC   C3B77637  38.257  35.313   6.959
 6159POPC   C4B77638  38.197  35.184   7.426
 6160POPC   NC377639  43.711  33.692   5.438
 6160POPC   PO477640  44.042  34.274   5.596
 6160POPC   GL177641  43.679  33.989   5.858
 6160POPC   GL277642  43.753  33.584   5.931
 6160POPC   C1A77643  43.473  33.806   6.283
 6160POPC   D2A77644  43.734  33.442   6.455
 6160POPC   C3A77645  43.737  33.454   6.878
 6160POPC   C4A77646  43.776  33.450   7.302
 6160POPC   C1B77647  43.982  33.856   6.238
 6160POPC   C2B77648  43.817  33.932   6.660
 6160POPC   C3B77649  44.007  33.845   7.083
 6160POPC   C4B77650  44.325  33.999   7.412
 6161POPC   NC377651  33.417  39.147   5.457
 6161POPC   PO477652  33.957  39.419   5.527
 6161POPC   GL177653  33.605  39.509   5.782
 6161POPC   GL277654  33.615  39.181   5.916
 6161POPC   C1A77655  33.410  39.523   6.198
 6161POPC   D2A77656  33.590  39.279   6.505
 6161POPC   C3A77657  33.490  39.363   6.927
 6161POPC   C4A77658  33.725  39.309   7.268
 6161POPC   C1B77659  33.923  38.959   6.112
 6161POPC   C2B77660  33.901  38.855   6.519
 6161POPC   C3B77661  33.932  39.014   6.905
 6161POPC   C4B77662  34.005  38.847   7.282
 6162POPC   NC377663  44.628  23.159   5.243
 6162POPC   PO477664  44.544  22.690   5.697
 6162POPC   GL177665  44.433  22.901   5.953
 6162POPC   GL277666  44.379  23.214   5.740
 6162POPC   C1A77667  44.672  22.825   6.329
 6162POPC   D2A77668  44.976  22.893   6.628
 6162POPC   C3A77669  44.827  23.123   6.961
 6162POPC   C4A77670  44.846  22.724   7.151
 6162POPC   C1B77671  44.512  23.354   6.163
 6162POPC   C2B77672  44.299  23.419   6.537
 6162POPC   C3B77673  44.330  23.359   6.973
 6162POPC   C4B77674  44.405  22.982   7.210
 6163POPC   NC377675  23.884  24.749   5.301
 6163POPC   PO477676  23.225  24.510   5.361
 6163POPC   GL177677  23.499  24.652   5.733
 6163POPC   GL277678  23.887  24.715   5.787
 6163POPC   C1A77679  23.638  24.483   6.156
 6163POPC   D2A77680  23.579  24.255   6.544
 6163POPC   C3A77681  23.512  24.474   6.942
 6163POPC   C4A77682  23.749  24.344   7.298
 6163POPC   C1B77683  23.957  24.916   6.165
 6163POPC   C2B77684  23.806  24.746   6.572
 6163POPC   C3B77685  24.018  24.496   6.862
 6163POPC   C4B77686  24.148  24.645   7.265
 6164POPC   NC377687   1.425  25.652   5.318
 6164POPC   PO477688   0.827  26.040   5.610
 6164POPC   GL177689   1.092  26.178   5.992
 6164POPC   GL277690   1.377  25.924   6.118
 6164POPC   C1A77691   1.272  26.345   6.376
 6164POPC   D2A77692   1.183  26.175   6.782
 6164POPC   C3A77693   1.431  26.283   7.131
 6164POPC   C4A77694   1.536  25.891   7.293
 6164POPC   C1B77695   1.050  25.864   6.384
 6164POPC   C2B77696   0.790  25.729   6.705
 6164POPC   C3B77697   0.923  25.856   7.115
 6164POPC   C4B77698   1.058  26.036   7.484
 6165POPC   NC377699  22.199   6.269   5.239
 6165POPC   PO477700  22.477   6.759   5.591
 6165POPC   GL177701  22.452   6.613   5.957
 6165POPC   GL277702  22.409   6.250   5.872
 6165POPC   C1A77703  22.090   6.794   6.182
 6165POPC   D2A77704  21.921   6.844   6.593
 6165POPC   C3A77705  22.214   6.927   6.912
 6165POPC   C4A77706  22.410   6.774   7.263
 6165POPC   C1B77707  22.239   6.311   6.323
 6165POPC   C2B77708  22.209   6.427   6.776
 6165POPC   C3B77709  22.004   6.493   7.182
 6165POPC   C4B77710  22.016   6.332   7.639
 6166POPC   NC377711  13.345   1.461   5.595
 6166POPC   PO477712  13.823   1.050   5.438
 6166POPC   GL177713  13.661   1.136   5.835
 6166POPC   GL277714  13.325   1.013   5.849
 6166POPC   C1A77715  13.557   1.304   6.245
 6166POPC   D2A77716  13.497   1.101   6.640
 6166POPC   C3A77717  13.341   1.267   7.005
 6166POPC   C4A77718  13.662   1.473   7.212
 6166POPC   C1B77719  13.378   0.793   6.232
 6166POPC   C2B77720  13.249   0.651   6.645
 6166POPC   C3B77721  13.482   0.741   7.011
 6166POPC   C4B77722  13.646   0.947   7.353
 6167POPC   NC377723  43.973  27.773   5.113
 6167POPC   PO477724  44.004  27.274   5.519
 6167POPC   GL177725  43.819  27.536   5.832
 6167POPC   GL277726  43.608  27.229   5.860
 6167POPC   C1A77727  43.772  27.801   6.268
 6167POPC   D2A77728  43.924  27.919   6.695
 6167POPC   C3A77729  43.795  27.731   7.092
 6167POPC   C4A77730  43.802  27.842   7.539
 6167POPC   C1B77731  43.764  27.300   6.269
 6167POPC   C2B77732  43.676  27.444   6.671
 6167POPC   C3B77733  43.820  27.228   7.041
 6167POPC   C4B77734  43.825  27.351   7.449
 6168POPC   NC377735  35.975   3.285   5.401
 6168POPC   PO477736  36.452   2.957   5.132
 6168POPC   GL177737  36.359   2.953   5.646
 6168POPC   GL277738  36.050   3.085   5.842
 6168POPC   C1A77739  36.282   2.725   6.095
 6168POPC   D2A77740  36.424   2.815   6.533
 6168POPC   C3A77741  36.301   2.604   6.913
 6168POPC   C4A77742  36.116   2.676   7.307
 6168POPC   C1B77743  35.744   3.053   6.170
 6168POPC   C2B77744  35.905   2.943   6.579
 6168POPC   C3B77745  35.737   2.881   6.985
 6168POPC   C4B77746  35.557   3.055   7.373
 6169POPC   NC377747  16.348   1.681   5.333
 6169POPC   PO477748  16.981   1.729   5.427
 6169POPC   GL177749  16.742   1.800   5.807
 6169POPC   GL277750  16.655   2.119   5.840
 6169POPC   C1A77751  16.706   1.822   6.283
 6169POPC   D2A77752  16.583   1.940   6.717
 6169POPC   C3A77753  16.871   1.766   7.060
 6169POPC   C4A77754  16.809   1.875   7.518
 6169POPC   C1B77755  16.783   2.450   6.079
 6169POPC   C2B77756  16.903   2.440   6.474
 6169POPC   C3B77757  16.664   2.448   6.820
 6169POPC   C4B77758  16.810   2.253   7.149
 6170POPC   NC377759  30.961  23.947   5.530
 6170POPC   PO477760  30.432  23.530   5.293
 6170POPC   GL177761  30.546  23.532   5.744
 6170POPC   GL277762  30.894  23.505   5.824
 6170POPC   C1A77763  30.478  23.481   6.208
 6170POPC   D2A77764  30.285  23.344   6.617
 6170POPC   C3A77765  30.496  23.559   6.956
 6170POPC   C4A77766  30.633  23.522   7.366
 6170POPC   C1B77767  30.949  23.697   6.202
 6170POPC   C2B77768  30.827  23.770   6.612
 6170POPC   C3B77769  31.001  23.641   6.989
 6170POPC   C4B77770  31.231  23.660   7.337
 6171POPC   NC377771  44.065  37.500   5.606
 6171POPC   PO477772  43.488  37.824   5.499
 6171POPC   GL177773  43.749  37.820   5.889
 6171POPC   GL277774  44.104  37.955   5.944
 6171POPC   C1A77775  43.821  37.845   6.340
 6171POPC   D2A77776  44.161  37.981   6.547
 6171POPC   C3A77777  43.961  37.958   6.902
 6171POPC   C4A77778  43.871  37.903   7.306
 6171POPC   C1B77779  44.213  37.581   6.229
 6171POPC   C2B77780  44.056  37.484   6.654
 6171POPC   C3B77781  44.018  37.472   7.083
 6171POPC   C4B77782  44.348  37.495   7.345
 6172POPC   NC377783   5.638   7.809   5.463
 6172POPC   PO477784   6.017   8.408   5.532
 6172POPC   GL177785   5.802   8.194   5.886
 6172POPC   GL277786   5.735   7.827   5.954
 6172POPC   C1A77787   5.812   8.295   6.339
 6172POPC   D2A77788   6.040   8.576   6.638
 6172POPC   C3A77789   5.912   8.556   7.063
 6172POPC   C4A77790   5.571   8.308   7.260
 6172POPC   C1B77791   6.100   7.883   6.203
 6172POPC   C2B77792   6.195   8.035   6.594
 6172POPC   C3B77793   5.927   8.058   6.927
 6172POPC   C4B77794   6.048   8.127   7.333
 6173POPC   NC377795   0.383  25.874   5.465
 6173POPC   PO477796   0.959  25.604   5.317
 6173POPC   GL177797   0.655  25.566   5.778
 6173POPC   GL277798   0.267  25.615   5.877
 6173POPC   C1A77799   0.586  25.856   6.195
 6173POPC   D2A77800   0.710  26.196   6.521
 6173POPC   C3A77801   0.524  26.121   6.943
 6173POPC   C4A77802   0.387  26.410   7.236
 6173POPC   C1B77803   0.081  25.905   6.170
 6173POPC   C2B77804   0.209  26.113   6.538
 6173POPC   C3B77805   0.005  26.279   6.925
 6173POPC   C4B77806  44.988  26.052   7.274
 6174POPC   NC377807  24.825   1.634   5.272
 6174POPC   PO477808  25.367   1.962   5.411
 6174POPC   GL177809  25.249   2.031   5.857
 6174POPC   GL277810  25.336   1.744   6.041
 6174POPC   C1A77811  25.142   2.125   6.313
 6174POPC   D2A77812  25.352   1.949   6.680
 6174POPC   C3A77813  25.147   2.061   7.062
 6174POPC   C4A77814  25.138   2.407   7.306
 6174POPC   C1B77815  24.955   1.646   6.189
 6174POPC   C2B77816  24.850   1.711   6.591
 6174POPC   C3B77817  25.042   1.575   6.943
 6174POPC   C4B77818  24.753   1.715   7.247
 6175POPC   NC377819  16.982  43.319   5.397
 6175POPC   PO477820  17.411  42.871   5.604
 6175POPC   GL177821  17.509  43.154   5.926
 6175POPC   GL277822  17.301  43.411   5.804
 6175POPC   C1A77823  17.471  43.202   6.385
 6175POPC   D2A77824  17.357  42.842   6.674
 6175POPC   C3A77825  17.555  42.871   7.076
 6175POPC   C4A77826  17.936  42.841   7.339
 6175POPC   C1B77827  17.100  43.506   6.198
 6175POPC   C2B77828  17.022  43.379   6.619
 6175POPC   C3B77829  17.192  43.537   6.982
 6175POPC   C4B77830  17.533  43.379   7.150
 6176POPC   NC377831  14.276   6.172   5.676
 6176POPC   PO477832  14.604   5.629   5.553
 6176POPC   GL177833  14.325   5.698   5.892
 6176POPC   GL277834  13.962   5.774   5.812
 6176POPC   C1A77835  14.313   5.681   6.338
 6176POPC   D2A77836  14.329   5.559   6.762
 6176POPC   C3A77837  14.649   5.802   6.974
 6176POPC   C4A77838  14.844   5.794   7.358
 6176POPC   C1B77839  13.875   5.923   6.242
 6176POPC   C2B77840  14.020   5.969   6.684
 6176POPC   C3B77841  14.144   5.878   7.126
 6176POPC   C4B77842  14.365   5.812   7.511
 6177POPC   NC377843  36.584   5.784   5.297
 6177POPC   PO477844  35.895   5.838   5.440
 6177POPC   GL177845  35.990   5.675   5.849
 6177POPC   GL277846  36.359   5.680   5.817
 6177POPC   C1A77847  36.094   5.751   6.298
 6177POPC   D2A77848  36.009   5.735   6.741
 6177POPC   C3A77849  36.059   5.971   7.107
 6177POPC   C4A77850  35.696   6.033   7.346
 6177POPC   C1B77851  36.462   6.047   6.113
 6177POPC   C2B77852  36.435   6.039   6.595
 6177POPC   C3B77853  36.494   5.732   6.954
 6177POPC   C4B77854  36.429   5.707   7.410
 6178POPC   NC377855  20.071  26.772   5.227
 6178POPC   PO477856  19.509  26.609   5.480
 6178POPC   GL177857  19.730  26.802   5.775
 6178POPC   GL277858  20.032  26.651   5.741
 6178POPC   C1A77859  19.895  26.973   6.149
 6178POPC   D2A77860  19.758  27.073   6.549
 6178POPC   C3A77861  19.960  26.982   6.924
 6178POPC   C4A77862  19.863  26.928   7.335
 6178POPC   C1B77863  20.132  26.535   6.168
 6178POPC   C2B77864  20.032  26.617   6.581
 6178POPC   C3B77865  19.881  26.451   6.993
 6178POPC   C4B77866  19.493  26.556   7.248
 6179POPC   NC377867   7.006  11.664   5.033
 6179POPC   PO477868   6.759  12.124   5.433
 6179POPC   GL177869   6.691  12.076   5.843
 6179POPC   GL277870   6.554  12.421   5.908
 6179POPC   C1A77871   6.729  11.794   6.192
 6179POPC   D2A77872   6.894  11.885   6.601
 6179POPC   C3A77873   6.697  11.682   6.942
 6179POPC   C4A77874   6.548  11.792   7.364
 6179POPC   C1B77875   6.747  12.306   6.311
 6179POPC   C2B77876   6.690  12.325   6.751
 6179POPC   C3B77877   6.812  12.149   7.105
 6179POPC   C4B77878   6.518  12.308   7.375
 6180POPC   NC377879  41.869  29.692   5.357
 6180POPC   PO477880  41.423  30.083   5.632
 6180POPC   GL177881  41.680  29.782   5.847
 6180POPC   GL277882  41.434  29.500   5.828
 6180POPC   C1A77883  41.795  29.907   6.260
 6180POPC   D2A77884  41.665  29.769   6.670
 6180POPC   C3A77885  41.629  29.995   7.075
 6180POPC   C4A77886  41.553  30.130   7.532
 6180POPC   C1B77887  41.209  29.656   6.196
 6180POPC   C2B77888  41.162  29.759   6.627
 6180POPC   C3B77889  41.331  29.556   6.994
 6180POPC   C4B77890  41.266  29.749   7.365
 6181POPC   NC377891  42.840  23.795   5.362
 6181POPC   PO477892  43.411  23.677   5.266
 6181POPC   GL177893  43.166  23.638   5.714
 6181POPC   GL277894  42.903  23.380   5.758
 6181POPC   C1A77895  42.946  23.743   6.139
 6181POPC   D2A77896  43.129  23.960   6.523
 6181POPC   C3A77897  43.233  23.838   6.964
 6181POPC   C4A77898  42.863  23.766   7.210
 6181POPC   C1B77899  43.141  23.294   6.189
 6181POPC   C2B77900  43.282  23.371   6.621
 6181POPC   C3B77901  43.107  23.348   7.029
 6181POPC   C4B77902  43.220  23.466   7.443
 6182POPC   NC377903  14.108  30.117   5.480
 6182POPC   PO477904  14.768  30.228   5.651
 6182POPC   GL177905  14.405  30.061   5.909
 6182POPC   GL277906  14.207  29.732   5.886
 6182POPC   C1A77907  14.213  30.029   6.332
 6182POPC   D2A77908  14.243  29.720   6.688
 6182POPC   C3A77909  14.464  29.854   7.052
 6182POPC   C4A77910  14.708  30.176   7.256
 6182POPC   C1B77911  14.089  29.421   6.271
 6182POPC   C2B77912  14.162  29.204   6.701
 6182POPC   C3B77913  14.445  29.346   7.074
 6182POPC   C4B77914  14.723  29.567   7.400
 6183POPC   NC377915  39.968  39.625   5.478
 6183POPC   PO477916  40.319  39.014   5.499
 6183POPC   GL177917  39.998  39.098   5.863
 6183POPC   GL277918  39.760  39.365   5.868
 6183POPC   C1A77919  39.964  39.247   6.336
 6183POPC   D2A77920  40.240  39.371   6.697
 6183POPC   C3A77921  40.259  39.051   7.026
 6183POPC   C4A77922  39.983  38.942   7.361
 6183POPC   C1B77923  39.463  39.275   6.218
 6183POPC   C2B77924  39.454  39.382   6.643
 6183POPC   C3B77925  39.772  39.259   6.915
 6183POPC   C4B77926  39.839  39.430   7.288
 6184POPC   NC377927  29.654  34.794   5.133
 6184POPC   PO477928  29.980  34.426   5.605
 6184POPC   GL177929  30.135  34.776   5.837
 6184POPC   GL277930  30.467  34.761   5.866
 6184POPC   C1A77931  29.987  34.775   6.264
 6184POPC   D2A77932  29.750  34.597   6.609
 6184POPC   C3A77933  29.813  34.844   6.986
 6184POPC   C4A77934  29.729  34.830   7.404
 6184POPC   C1B77935  30.366  34.451   6.182
 6184POPC   C2B77936  30.263  34.368   6.601
 6184POPC   C3B77937  30.034  34.373   6.981
 6184POPC   C4B77938  30.206  34.530   7.342
 6185POPC   NC377939   9.441  22.522   5.336
 6185POPC   PO477940   9.654  23.249   5.340
 6185POPC   GL177941   9.700  22.907   5.629
 6185POPC   GL277942   9.417  22.739   5.786
 6185POPC   C1A77943   9.886  22.836   6.034
 6185POPC   D2A77944   9.894  22.686   6.450
 6185POPC   C3A77945   9.853  22.976   6.790
 6185POPC   C4A77946   9.838  22.907   7.231
 6185POPC   C1B77947   9.317  22.844   6.208
 6185POPC   C2B77948   9.351  22.713   6.637
 6185POPC   C3B77949   9.365  22.953   7.026
 6185POPC   C4B77950   9.397  23.030   7.495
 6186POPC   NC377951  17.337  14.318   5.523
 6186POPC   PO477952  17.785  14.734   5.546
 6186POPC   GL177953  17.773  14.384   5.846
 6186POPC   GL277954  17.743  13.994   5.755
 6186POPC   C1A77955  17.615  14.506   6.251
 6186POPC   D2A77956  17.715  14.733   6.627
 6186POPC   C3A77957  17.470  14.590   6.965
 6186POPC   C4A77958  17.189  14.263   7.081
 6186POPC   C1B77959  17.644  13.989   6.218
 6186POPC   C2B77960  17.568  14.195   6.666
 6186POPC   C3B77961  17.694  14.142   7.125
 6186POPC   C4B77962  17.782  14.103   7.573
 6187POPC   NC377963  29.439  41.556   5.524
 6187POPC   PO477964  28.939  41.139   5.527
 6187POPC   GL177965  29.044  41.424   5.842
 6187POPC   GL277966  28.840  41.726   5.796
 6187POPC   C1A77967  29.129  41.344   6.252
 6187POPC   D2A77968  28.967  41.223   6.612
 6187POPC   C3A77969  29.125  41.395   6.958
 6187POPC   C4A77970  29.068  41.330   7.374
 6187POPC   C1B77971  29.105  41.858   6.173
 6187POPC   C2B77972  29.221  41.840   6.631
 6187POPC   C3B77973  28.998  41.869   7.062
 6187POPC   C4B77974  29.096  41.809   7.485
 6188POPC   NC377975  26.124  14.334   5.538
 6188POPC   PO477976  25.559  14.772   5.564
 6188POPC   GL177977  25.794  14.657   5.936
 6188POPC   GL277978  25.904  14.308   5.984
 6188POPC   C1A77979  25.851  14.635   6.365
 6188POPC   D2A77980  25.998  14.278   6.567
 6188POPC   C3A77981  26.130  14.465   6.917
 6188POPC   C4A77982  26.024  14.670   7.281
 6188POPC   C1B77983  25.618  14.077   6.226
 6188POPC   C2B77984  25.639  13.880   6.598
 6188POPC   C3B77985  25.874  13.942   6.932
 6188POPC   C4B77986  25.791  14.223   7.223
 6189POPC   NC377987   2.095  30.336   5.388
 6189POPC   PO477988   1.669  29.868   5.633
 6189POPC   GL177989   2.047  30.033   5.821
 6189POPC   GL277990   1.839  30.145   6.071
 6189POPC   C1A77991   2.263  29.848   6.176
 6189POPC   D2A77992   2.134  29.675   6.606
 6189POPC   C3A77993   2.271  29.871   6.990
 6189POPC   C4A77994   2.039  30.085   7.322
 6189POPC   C1B77995   1.758  29.722   6.266
 6189POPC   C2B77996   1.595  29.586   6.651
 6189POPC   C3B77997   1.756  29.750   7.032
 6189POPC   C4B77998   1.661  29.590   7.443
 6190POPC   NC377999   9.059  10.504   5.264
 6190POPC   PO478000   8.461  10.671   5.472
 6190POPC   GL178001   8.743  10.469   5.767
 6190POPC   GL278002   9.090  10.350   5.773
 6190POPC   C1A78003   8.786  10.463   6.232
 6190POPC   D2A78004   8.969  10.300   6.610
 6190POPC   C3A78005   8.738  10.325   6.999
 6190POPC   C4A78006   8.530  10.644   7.219
 6190POPC   C1B78007   9.333  10.309   6.161
 6190POPC   C2B78008   9.498  10.247   6.575
 6190POPC   C3B78009   9.312  10.237   7.000
 6190POPC   C4B78010   9.086  10.505   7.325
 6191POPC   NC378011  30.864  16.180   5.528
 6191POPC   PO478012  30.836  15.470   5.442
 6191POPC   GL178013  30.591  15.516   5.821
 6191POPC   GL278014  30.571  15.867   5.843
 6191POPC   C1A78015  30.662  15.566   6.269
 6191POPC   D2A78016  30.898  15.749   6.619
 6191POPC   C3A78017  30.750  15.611   7.007
 6191POPC   C4A78018  30.514  15.818   7.299
 6191POPC   C1B78019  30.820  16.082   6.194
 6191POPC   C2B78020  30.698  16.292   6.581
 6191POPC   C3B78021  30.795  16.145   6.997
 6191POPC   C4B78022  30.578  16.340   7.310
 6192POPC   NC378023  14.025  44.160   5.600
 6192POPC   PO478024  13.510  43.874   5.338
 6192POPC   GL178025  13.610  43.890   5.735
 6192POPC   GL278026  13.409  43.639   5.853
 6192POPC   C1A78027  13.540  44.061   6.132
 6192POPC   D2A78028  13.505  43.856   6.530
 6192POPC   C3A78029  13.702  44.084   6.875
 6192POPC   C4A78030  13.538  44.001   7.263
 6192POPC   C1B78031  13.792  43.580   6.124
 6192POPC   C2B78032  13.997  43.571   6.521
 6192POPC   C3B78033  13.791  43.584   6.900
 6192POPC   C4B78034  13.855  43.557   7.308
 6193POPC   NC378035  22.295  23.992   5.461
 6193POPC   PO478036  21.826  23.538   5.523
 6193POPC   GL178037  22.052  23.737   5.839
 6193POPC   GL278038  22.217  23.424   5.885
 6193POPC   C1A78039  22.309  23.785   6.231
 6193POPC   D2A78040  22.284  23.477   6.585
 6193POPC   C3A78041  22.385  23.677   6.980
 6193POPC   C4A78042  22.156  23.995   7.218
 6193POPC   C1B78043  21.875  23.399   6.209
 6193POPC   C2B78044  21.748  23.394   6.646
 6193POPC   C3B78045  21.868  23.609   7.025
 6193POPC   C4B78046  22.110  23.483   7.399
 6194POPC   NC378047  22.288   7.126   5.401
 6194POPC   PO478048  21.995   7.635   5.585
 6194POPC   GL178049  22.100   7.352   5.875
 6194POPC   GL278050  21.943   7.614   6.101
 6194POPC   C1A78051  22.313   7.265   6.242
 6194POPC   D2A78052  22.279   7.565   6.569
 6194POPC   C3A78053  22.339   7.417   6.996
 6194POPC   C4A78054  22.694   7.188   7.176
 6194POPC   C1B78055  21.802   7.294   6.354
 6194POPC   C2B78056  21.863   7.307   6.787
 6194POPC   C3B78057  21.861   7.178   7.194
 6194POPC   C4B78058  21.812   7.337   7.603
 6195POPC   NC378059  15.141  12.477   5.344
 6195POPC   PO478060  14.909  11.857   5.233
 6195POPC   GL178061  15.045  12.089   5.649
 6195POPC   GL278062  14.783  12.366   5.719
 6195POPC   C1A78063  15.279  12.126   6.068
 6195POPC   D2A78064  15.314  12.235   6.526
 6195POPC   C3A78065  15.250  11.970   6.867
 6195POPC   C4A78066  15.244  12.050   7.312
 6195POPC   C1B78067  14.871  12.444   6.175
 6195POPC   C2B78068  14.812  12.309   6.612
 6195POPC   C3B78069  14.998  12.407   7.007
 6195POPC   C4B78070  14.837  12.657   7.354
 6196POPC   NC378071   1.440  28.458   5.486
 6196POPC   PO478072   0.810  28.412   5.527
 6196POPC   GL178073   1.041  28.338   5.888
 6196POPC   GL278074   1.304  28.095   5.871
 6196POPC   C1A78075   1.144  28.385   6.322
 6196POPC   D2A78076   1.162  28.555   6.735
 6196POPC   C3A78077   1.069  28.353   7.091
 6196POPC   C4A78078   0.954  28.643   7.341
 6196POPC   C1B78079   1.385  27.923   6.295
 6196POPC   C2B78080   1.269  28.043   6.716
 6196POPC   C3B78081   1.445  28.039   7.135
 6196POPC   C4B78082   1.646  28.087   7.513
 6197POPC   NC378083  19.215   5.850   5.376
 6197POPC   PO478084  19.855   5.739   5.280
 6197POPC   GL178085  19.823   5.837   5.714
 6197POPC   GL278086  19.521   6.015   5.778
 6197POPC   C1A78087  19.785   5.652   6.142
 6197POPC   D2A78088  20.023   5.724   6.532
 6197POPC   C3A78089  19.970   5.659   6.988
 6197POPC   C4A78090  20.204   5.534   7.393
 6197POPC   C1B78091  19.792   6.164   6.126
 6197POPC   C2B78092  19.818   6.244   6.581
 6197POPC   C3B78093  19.681   6.125   7.006
 6197POPC   C4B78094  19.805   6.212   7.411
 6198POPC   NC378095   7.693  17.936   5.471
 6198POPC   PO478096   7.161  18.342   5.391
 6198POPC   GL178097   7.354  18.190   5.783
 6198POPC   GL278098   7.600  18.420   5.743
 6198POPC   C1A78099   7.493  18.226   6.234
 6198POPC   D2A78100   7.352  18.253   6.668
 6198POPC   C3A78101   7.371  18.125   7.108
 6198POPC   C4A78102   7.099  18.323   7.392
 6198POPC   C1B78103   7.772  18.647   6.100
 6198POPC   C2B78104   7.755  18.578   6.544
 6198POPC   C3B78105   7.680  18.510   6.988
 6198POPC   C4B78106   7.830  18.270   7.347
 6199POPC   NC378107  39.358  30.672   5.556
 6199POPC   PO478108  38.751  31.034   5.466
 6199POPC   GL178109  39.017  30.951   5.894
 6199POPC   GL278110  39.402  30.902   5.992
 6199POPC   C1A78111  39.093  30.909   6.379
 6199POPC   D2A78112  38.975  30.515   6.595
 6199POPC   C3A78113  38.903  30.594   7.011
 6199POPC   C4A78114  39.078  30.969   7.218
 6199POPC   C1B78115  39.330  30.493   6.193
 6199POPC   C2B78116  39.532  30.509   6.567
 6199POPC   C3B78117  39.423  30.683   6.948
 6199POPC   C4B78118  39.341  30.496   7.354
 6200POPC   NC378119  43.121  38.128   5.395
 6200POPC   PO478120  42.795  37.491   5.400
 6200POPC   GL178121  42.924  37.579   5.798
 6200POPC   GL278122  43.266  37.488   5.808
 6200POPC   C1A78123  42.830  37.573   6.218
 6200POPC   D2A78124  43.034  37.601   6.591
 6200POPC   C3A78125  42.814  37.649   6.978
 6200POPC   C4A78126  43.139  37.807   7.242
 6200POPC   C1B78127  43.360  37.653   6.194
 6200POPC   C2B78128  43.539  37.518   6.579
 6200POPC   C3B78129  43.538  37.679   6.946
 6200POPC   C4B78130  43.525  37.464   7.304
 6201POPC   NC378131   2.902  44.378   5.499
 6201POPC   PO478132   2.408  44.855   5.298
 6201POPC   GL178133   2.619  44.882   5.733
 6201POPC   GL278134   2.842  44.652   5.935
 6201POPC   C1A78135   2.441  44.852   6.155
 6201POPC   D2A78136   2.463  44.549   6.534
 6201POPC   C3A78137   2.622  44.663   6.955
 6201POPC   C4A78138   2.489  44.836   7.363
 6201POPC   C1B78139   2.926  44.775   6.390
 6201POPC   C2B78140   2.975   0.019   6.776
 6201POPC   C3B78141   2.959  44.973   7.222
 6201POPC   C4B78142   2.970  44.674   7.548
 6202POPC   NC378143  38.583   0.115   5.594
 6202POPC   PO478144  38.094   0.451   5.431
 6202POPC   GL178145  38.262   0.440   5.865
 6202POPC   GL278146  38.298   0.120   6.031
 6202POPC   C1A78147  38.358   0.567   6.313
 6202POPC   D2A78148  38.136   0.455   6.688
 6202POPC   C3A78149  38.222   0.724   7.041
 6202POPC   C4A78150  38.357   0.606   7.461
 6202POPC   C1B78151  38.712   0.202   6.250
 6202POPC   C2B78152  38.686   0.344   6.676
 6202POPC   C3B78153  38.484   0.303   7.052
 6202POPC   C4B78154  38.473   0.116   7.437
 6203POPC   NC378155  26.886  38.050   5.563
 6203POPC   PO478156  26.270  37.994   5.503
 6203POPC   GL178157  26.508  37.805   5.864
 6203POPC   GL278158  26.778  37.569   5.741
 6203POPC   C1A78159  26.545  37.764   6.330
 6203POPC   D2A78160  26.897  37.883   6.605
 6203POPC   C3A78161  26.793  37.879   7.026
 6203POPC   C4A78162  26.537  37.720   7.317
 6203POPC   C1B78163  26.820  37.376   6.153
 6203POPC   C2B78164  26.585  37.263   6.528
 6203POPC   C3B78165  26.562  37.370   6.946
 6203POPC   C4B78166  26.932  37.363   7.188
 6204POPC   NC378167  14.040  31.105   5.344
 6204POPC   PO478168  14.405  31.651   5.422
 6204POPC   GL178169  14.406  31.403   5.793
 6204POPC   GL278170  14.488  31.043   5.691
 6204POPC   C1A78171  14.188  31.401   6.212
 6204POPC   D2A78172  14.156  31.674   6.596
 6204POPC   C3A78173  14.247  31.515   7.049
 6204POPC   C4A78174  14.142  31.541   7.519
 6204POPC   C1B78175  14.590  31.070   6.140
 6204POPC   C2B78176  14.556  31.295   6.559
 6204POPC   C3B78177  14.581  31.121   6.978
 6204POPC   C4B78178  14.542  31.157   7.430
 6205POPC   NC378179   3.816   9.173   5.430
 6205POPC   PO478180   3.195   8.816   5.411
 6205POPC   GL178181   3.413   8.990   5.742
 6205POPC   GL278182   3.563   8.668   5.786
 6205POPC   C1A78183   3.574   8.982   6.182
 6205POPC   D2A78184   3.554   8.869   6.612
 6205POPC   C3A78185   3.588   9.058   7.031
 6205POPC   C4A78186   3.328   9.299   7.376
 6205POPC   C1B78187   3.210   8.626   6.113
 6205POPC   C2B78188   3.230   8.476   6.548
 6205POPC   C3B78189   3.291   8.608   6.965
 6205POPC   C4B78190   3.509   8.678   7.358
 6206POPC   NC378191  20.617  40.499   5.481
 6206POPC   PO478192  20.561  41.138   5.241
 6206POPC   GL178193  20.703  40.979   5.720
 6206POPC   GL278194  20.424  40.995   5.932
 6206POPC   C1A78195  20.817  40.843   6.220
 6206POPC   D2A78196  20.830  40.451   6.499
 6206POPC   C3A78197  20.614  40.553   6.910
 6206POPC   C4A78198  20.745  40.905   7.178
 6206POPC   C1B78199  20.521  41.239   6.298
 6206POPC   C2B78200  20.589  41.053   6.694
 6206POPC   C3B78201  20.273  40.951   7.019
 6206POPC   C4B78202  20.308  40.715   7.411
 6207POPC   NC378203  28.018  11.163   5.506
 6207POPC   PO478204  28.669  11.109   5.490
 6207POPC   GL178205  28.418  11.309   5.849
 6207POPC   GL278206  28.081  11.465   5.918
 6207POPC   C1A78207  28.341  11.185   6.293
 6207POPC   D2A78208  28.437  10.865   6.614
 6207POPC   C3A78209  28.608  11.106   6.932
 6207POPC   C4A78210  28.399  11.407   7.164
 6207POPC   C1B78211  27.877  11.384   6.325
 6207POPC   C2B78212  28.065  11.242   6.732
 6207POPC   C3B78213  27.912  11.310   7.129
 6207POPC   C4B78214  28.073  11.452   7.557
 6208POPC   NC378215   2.793  19.302   5.676
 6208POPC   PO478216   3.191  18.855   5.367
 6208POPC   GL178217   3.009  18.701   5.765
 6208POPC   GL278218   2.664  18.849   5.878
 6208POPC   C1A78219   2.997  18.660   6.215
 6208POPC   D2A78220   3.051  18.972   6.530
 6208POPC   C3A78221   2.739  18.990   6.811
 6208POPC   C4A78222   2.705  19.179   7.172
 6208POPC   C1B78223   2.552  19.104   6.307
 6208POPC   C2B78224   2.302  19.299   6.690
 6208POPC   C3B78225   2.235  19.317   7.167
 6208POPC   C4B78226   2.276  19.034   7.515
 6209POPC   NC378227   9.113  30.221   5.387
 6209POPC   PO478228   9.041  29.577   5.463
 6209POPC   GL178229   8.931  29.925   5.753
 6209POPC   GL278230   8.699  29.719   5.868
 6209POPC   C1A78231   9.026  30.173   6.143
 6209POPC   D2A78232   9.307  30.117   6.480
 6209POPC   C3A78233   9.133  30.118   6.880
 6209POPC   C4A78234   8.964  30.191   7.265
 6209POPC   C1B78235   9.002  29.672   6.195
 6209POPC   C2B78236   8.817  29.853   6.561
 6209POPC   C3B78237   8.784  29.704   6.983
 6209POPC   C4B78238   9.096  29.692   7.304
 6210POPC   NC378239  36.621  27.188   5.451
 6210POPC   PO478240  36.718  26.442   5.424
 6210POPC   GL178241  36.926  26.635   5.882
 6210POPC   GL278242  37.149  26.934   5.829
 6210POPC   C1A78243  36.903  26.706   6.336
 6210POPC   D2A78244  36.869  26.958   6.711
 6210POPC   C3A78245  36.897  26.676   7.086
 6210POPC   C4A78246  36.931  26.605   7.541
 6210POPC   C1B78247  37.103  27.168   6.237
 6210POPC   C2B78248  37.367  27.188   6.653
 6210POPC   C3B78249  37.231  27.047   7.063
 6210POPC   C4B78250  36.836  27.122   7.306
 6211POPC   NC378251  20.640   0.619   5.397
 6211POPC   PO478252  20.269   0.015   5.291
 6211POPC   GL178253  20.442   0.232   5.682
 6211POPC   GL278254  20.785   0.296   5.776
 6211POPC   C1A78255  20.405   0.497   6.102
 6211POPC   D2A78256  20.192   0.669   6.481
 6211POPC   C3A78257  20.317   0.511   6.887
 6211POPC   C4A78258  20.537   0.495   7.283
 6211POPC   C1B78259  20.899   0.590   6.093
 6211POPC   C2B78260  20.722   0.647   6.510
 6211POPC   C3B78261  20.877   0.624   6.916
 6211POPC   C4B78262  21.076   0.555   7.291
 6212POPC   NC378263   1.335  44.877   5.340
 6212POPC   PO478264   0.917  44.351   5.527
 6212POPC   GL178265   1.181  44.529   5.841
 6212POPC   GL278266   1.370  44.823   5.832
 6212POPC   C1A78267   1.130  44.689   6.265
 6212POPC   D2A78268   1.284  44.516   6.647
 6212POPC   C3A78269   1.030  44.456   7.010
 6212POPC   C4A78270   1.310  44.285   7.278
 6212POPC   C1B78271   1.583   0.134   6.038
 6212POPC   C2B78272   1.603   0.154   6.486
 6212POPC   C3B78273   1.628  44.849   6.831
 6212POPC   C4B78274   1.426  44.763   7.232
 6213POPC   NC378275  28.610  26.980   5.398
 6213POPC   PO478276  27.994  26.683   5.422
 6213POPC   GL178277  28.192  26.932   5.787
 6213POPC   GL278278  28.567  27.008   5.891
 6213POPC   C1A78279  28.235  26.878   6.250
 6213POPC   D2A78280  28.102  26.682   6.632
 6213POPC   C3A78281  28.352  26.893   6.956
 6213POPC   C4A78282  28.674  26.976   7.278
 6213POPC   C1B78283  28.732  26.740   6.213
 6213POPC   C2B78284  28.623  26.593   6.614
 6213POPC   C3B78285  28.824  26.564   6.979
 6213POPC   C4B78286  28.801  26.443   7.396
 6214POPC   NC378287  20.149  35.457   5.147
 6214POPC   PO478288  19.730  35.307   5.714
 6214POPC   GL178289  19.870  35.321   6.072
 6214POPC   GL278290  20.217  35.204   5.950
 6214POPC   C1A78291  19.696  35.306   6.444
 6214POPC   D2A78292  19.616  35.244   6.852
 6214POPC   C3A78293  19.631  35.627   7.066
 6214POPC   C4A78294  19.446  35.443   7.432
 6214POPC   C1B78295  20.227  35.381   6.395
 6214POPC   C2B78296  20.107  35.365   6.802
 6214POPC   C3B78297  19.986  35.281   7.209
 6214POPC   C4B78298  19.990  35.205   7.632
 6215POPC   NC378299   7.426   3.745   5.611
 6215POPC   PO478300   7.554   3.167   5.398
 6215POPC   GL178301   7.459   3.264   5.773
 6215POPC   GL278302   7.779   3.417   5.827
 6215POPC   C1A78303   7.336   3.386   6.175
 6215POPC   D2A78304   7.151   3.309   6.542
 6215POPC   C3A78305   7.310   3.549   6.861
 6215POPC   C4A78306   7.400   3.383   7.228
 6215POPC   C1B78307   7.766   3.655   6.174
 6215POPC   C2B78308   7.694   3.425   6.536
 6215POPC   C3B78309   7.810   3.476   6.933
 6215POPC   C4B78310   7.666   3.826   7.216
 6216POPC   NC378311  34.033  42.131   5.413
 6216POPC   PO478312  33.646  42.607   5.267
 6216POPC   GL178313  33.761  42.567   5.731
 6216POPC   GL278314  33.806  42.253   5.931
 6216POPC   C1A78315  33.663  42.656   6.207
 6216POPC   D2A78316  33.891  42.555   6.631
 6216POPC   C3A78317  33.860  42.432   7.092
 6216POPC   C4A78318  33.492  42.387   7.354
 6216POPC   C1B78319  34.100  42.033   6.179
 6216POPC   C2B78320  34.285  42.097   6.590
 6216POPC   C3B78321  34.185  42.023   7.017
 6216POPC   C4B78322  34.258  42.120   7.446
 6217POPC   NC378323  10.970   0.599   5.324
 6217POPC   PO478324  11.537   0.146   5.387
 6217POPC   GL178325  11.466   0.388   5.759
 6217POPC   GL278326  11.700   0.124   5.869
 6217POPC   C1A78327  11.163   0.422   6.136
 6217POPC   D2A78328  11.199   0.312   6.596
 6217POPC   C3A78329  11.067   0.359   7.030
 6217POPC   C4A78330  11.040   0.778   7.192
 6217POPC   C1B78331  11.659   0.307   6.249
 6217POPC   C2B78332  11.687   0.145   6.621
 6217POPC   C3B78333  11.571   0.288   7.016
 6217POPC   C4B78334  11.527   0.624   7.320
 6218POPC   NC378335  33.593  33.435   5.621
 6218POPC   PO478336  33.479  32.789   5.423
 6218POPC   GL178337  33.764  32.956   5.748
 6218POPC   GL278338  34.080  33.168   5.763
 6218POPC   C1A78339  33.829  32.949   6.182
 6218POPC   D2A78340  33.850  33.108   6.590
 6218POPC   C3A78341  33.644  32.876   6.923
 6218POPC   C4A78342  33.481  32.981   7.333
 6218POPC   C1B78343  34.047  33.427   6.172
 6218POPC   C2B78344  34.251  33.433   6.592
 6218POPC   C3B78345  34.007  33.419   6.974
 6218POPC   C4B78346  33.985  33.075   7.248
 6219POPC   NC378347   7.587  33.668   5.625
 6219POPC   PO478348   7.293  34.268   5.412
 6219POPC   GL178349   7.285  34.055   5.850
 6219POPC   GL278350   7.166  33.723   5.944
 6219POPC   C1A78351   7.498  33.932   6.266
 6219POPC   D2A78352   7.659  33.672   6.622
 6219POPC   C3A78353   7.510  33.748   7.050
 6219POPC   C4A78354   7.623  34.133   7.224
 6219POPC   C1B78355   7.196  33.547   6.381
 6219POPC   C2B78356   7.189  33.905   6.700
 6219POPC   C3B78357   7.024  33.917   7.137
 6219POPC   C4B78358   7.087  33.518   7.329
 6220POPC   NC378359  37.879   4.908   5.427
 6220POPC   PO478360  37.383   5.327   5.478
 6220POPC   GL178361  37.502   5.141   5.818
 6220POPC   GL278362  37.652   4.834   5.873
 6220POPC   C1A78363  37.614   5.244   6.214
 6220POPC   D2A78364  37.552   4.994   6.560
 6220POPC   C3A78365  37.770   5.187   6.893
 6220POPC   C4A78366  37.559   5.120   7.278
 6220POPC   C1B78367  37.910   4.814   6.236
 6220POPC   C2B78368  37.878   4.596   6.629
 6220POPC   C3B78369  37.718   4.703   7.009
 6220POPC   C4B78370  38.036   4.896   7.213
 6221POPC   NC378371   4.032  36.746   5.548
 6221POPC   PO478372   4.618  37.236   5.496
 6221POPC   GL178373   4.372  37.050   5.801
 6221POPC   GL278374   4.487  36.699   5.825
 6221POPC   C1A78375   4.149  37.158   6.170
 6221POPC   D2A78376   4.302  37.043   6.574
 6221POPC   C3A78377   4.160  37.261   6.923
 6221POPC   C4A78378   4.510  37.345   7.176
 6221POPC   C1B78379   4.279  36.671   6.222
 6221POPC   C2B78380   4.004  36.535   6.525
 6221POPC   C3B78381   4.177  36.566   6.894
 6221POPC   C4B78382   4.321  36.843   7.172
 6222POPC   NC378383   6.195  27.785   5.142
 6222POPC   PO478384   6.121  27.187   5.350
 6222POPC   GL178385   6.019  27.440   5.756
 6222POPC   GL278386   6.052  27.819   5.737
 6222POPC   C1A78387   5.737  27.590   6.112
 6222POPC   D2A78388   5.531  27.551   6.517
 6222POPC   C3A78389   5.742  27.511   6.912
 6222POPC   C4A78390   5.569  27.493   7.326
 6222POPC   C1B78391   6.037  28.005   6.149
 6222POPC   C2B78392   6.024  27.803   6.556
 6222POPC   C3B78393   5.951  27.963   6.982
 6222POPC   C4B78394   5.982  27.779   7.415
 6223POPC   NC378395  15.230  17.809   5.534
 6223POPC   PO478396  14.743  17.606   5.113
 6223POPC   GL178397  14.893  17.464   5.667
 6223POPC   GL278398  14.896  17.162   5.809
 6223POPC   C1A78399  15.259  17.473   6.067
 6223POPC   D2A78400  15.525  17.373   6.450
 6223POPC   C3A78401  15.488  17.665   6.770
 6223POPC   C4A78402  15.375  17.686   7.188
 6223POPC   C1B78403  14.768  17.505   6.147
 6223POPC   C2B78404  14.989  17.623   6.543
 6223POPC   C3B78405  14.944  17.473   6.971
 6223POPC   C4B78406  15.075  17.308   7.371
 6224POPC   NC378407  31.456  31.961   5.387
 6224POPC   PO478408  31.095  32.515   5.267
 6224POPC   GL178409  31.249  32.479   5.716
 6224POPC   GL278410  31.563  32.277   5.770
 6224POPC   C1A78411  31.444  32.594   6.130
 6224POPC   D2A78412  31.295  32.501   6.522
 6224POPC   C3A78413  31.472  32.521   6.917
 6224POPC   C4A78414  31.230  32.513   7.307
 6224POPC   C1B78415  31.831  32.278   6.169
 6224POPC   C2B78416  31.838  32.152   6.605
 6224POPC   C3B78417  31.948  32.330   7.002
 6224POPC   C4B78418  31.714  32.291   7.359
 6225POPC   NC378419  39.534  38.015   5.471
 6225POPC   PO478420  39.454  38.596   5.447
 6225POPC   GL178421  39.160  38.538   5.762
 6225POPC   GL278422  39.072  38.213   5.701
 6225POPC   C1A78423  39.320  38.528   6.179
 6225POPC   D2A78424  39.566  38.228   6.390
 6225POPC   C3A78425  39.424  38.319   6.788
 6225POPC   C4A78426  39.175  38.429   7.152
 6225POPC   C1B78427  39.027  38.131   6.135
 6225POPC   C2B78428  39.058  37.993   6.553
 6225POPC   C3B78429  38.832  38.097   6.917
 6225POPC   C4B78430  38.730  38.245   7.330
 6226POPC   NC378431  14.274   6.931   5.379
 6226POPC   PO478432  14.607   6.489   5.620
 6226POPC   GL178433  14.495   6.792   5.892
 6226POPC   GL278434  14.259   7.068   5.893
 6226POPC   C1A78435  14.671   6.692   6.270
 6226POPC   D2A78436  14.482   6.661   6.683
 6226POPC   C3A78437  14.736   6.496   7.001
 6226POPC   C4A78438  14.466   6.244   7.232
 6226POPC   C1B78439  14.273   7.015   6.346
 6226POPC   C2B78440  14.327   7.141   6.772
 6226POPC   C3B78441  14.248   6.832   7.123
 6226POPC   C4B78442  14.098   6.606   7.525
 6227POPC   NC378443  28.941  24.377   5.258
 6227POPC   PO478444  29.372  24.842   5.432
 6227POPC   GL178445  29.248  24.450   5.705
 6227POPC   GL278446  28.891  24.392   5.772
 6227POPC   C1A78447  29.214  24.333   6.164
 6227POPC   D2A78448  29.178  24.615   6.519
 6227POPC   C3A78449  29.212  24.433   6.927
 6227POPC   C4A78450  29.041  24.714   7.238
 6227POPC   C1B78451  28.692  24.359   6.168
 6227POPC   C2B78452  28.836  24.251   6.579
 6227POPC   C3B78453  28.716  24.366   6.997
 6227POPC   C4B78454  28.834  24.240   7.409
 6228POPC   NC378455  44.579  40.392   5.384
 6228POPC   PO478456  44.554  39.671   5.470
 6228POPC   GL178457  44.644  39.883   5.857
 6228POPC   GL278458  44.516  40.202   5.855
 6228POPC   C1A78459  44.765  39.902   6.276
 6228POPC   D2A78460  44.742  40.176   6.621
 6228POPC   C3A78461  44.539  39.957   6.875
 6228POPC   C4A78462  44.502  39.813   7.251
 6228POPC   C1B78463  44.379  40.273   6.266
 6228POPC   C2B78464  44.257  40.348   6.692
 6228POPC   C3B78465  44.103  40.160   7.062
 6228POPC   C4B78466  44.151  40.115   7.482
 6229POPC   NC378467  23.139  29.377   5.603
 6229POPC   PO478468  23.816  29.244   5.443
 6229POPC   GL178469  23.925  29.156   5.845
 6229POPC   GL278470  24.097  29.463   5.896
 6229POPC   C1A78471  23.712  29.001   6.230
 6229POPC   D2A78472  23.873  28.912   6.656
 6229POPC   C3A78473  23.668  28.973   7.057
 6229POPC   C4A78474  23.551  28.699   7.372
 6229POPC   C1B78475  24.029  29.379   6.310
 6229POPC   C2B78476  23.817  29.512   6.653
 6229POPC   C3B78477  23.997  29.373   7.006
 6229POPC   C4B78478  23.827  29.344   7.401
 6230POPC   NC378479  25.334  42.849   5.533
 6230POPC   PO478480  25.746  43.449   5.363
 6230POPC   GL178481  25.568  43.231   5.809
 6230POPC   GL278482  25.645  42.866   5.921
 6230POPC   C1A78483  25.485  43.143   6.297
 6230POPC   D2A78484  25.650  43.109   6.731
 6230POPC   C3A78485  25.318  43.235   7.033
 6230POPC   C4A78486  25.028  43.037   7.326
 6230POPC   C1B78487  25.319  42.665   6.193
 6230POPC   C2B78488  25.235  42.793   6.623
 6230POPC   C3B78489  25.397  42.726   7.038
 6230POPC   C4B78490  25.217  42.519   7.415
 6231POPC   NC378491  35.229  25.901   5.377
 6231POPC   PO478492  34.929  26.487   5.528
 6231POPC   GL178493  35.119  26.186   5.828
 6231POPC   GL278494  35.421  25.948   5.849
 6231POPC   C1A78495  35.043  25.953   6.201
 6231POPC   D2A78496  35.132  26.083   6.609
 6231POPC   C3A78497  35.286  25.855   6.960
 6231POPC   C4A78498  35.139  26.001   7.293
 6231POPC   C1B78499  35.521  26.177   6.245
 6231POPC   C2B78500  35.633  26.134   6.695
 6231POPC   C3B78501  35.724  26.084   7.147
 6231POPC   C4B78502  35.846  26.176   7.571
 6232POPC   NC378503  15.437  13.752   5.456
 6232POPC   PO478504  14.990  13.242   5.495
 6232POPC   GL178505  15.171  13.360   5.904
 6232POPC   GL278506  15.517  13.515   5.911
 6232POPC   C1A78507  15.040  13.706   6.195
 6232POPC   D2A78508  14.892  13.857   6.605
 6232POPC   C3A78509  15.018  13.592   6.937
 6232POPC   C4A78510  14.972  13.535   7.376
 6232POPC   C1B78511  15.484  13.490   6.348
 6232POPC   C2B78512  15.352  13.221   6.668
 6232POPC   C3B78513  15.417  13.334   7.079
 6232POPC   C4B78514  15.460  13.722   7.209
 6233POPC   NC378515  38.499  21.579   5.578
 6233POPC   PO478516  38.747  20.949   5.398
 6233POPC   GL178517  38.689  21.150   5.801
 6233POPC   GL278518  38.343  21.194   5.898
 6233POPC   C1A78519  38.758  21.304   6.243
 6233POPC   D2A78520  38.540  21.324   6.664
 6233POPC   C3A78521  38.748  21.380   7.071
 6233POPC   C4A78522  38.596  21.649   7.392
 6233POPC   C1B78523  38.292  21.545   6.223
 6233POPC   C2B78524  38.144  21.693   6.638
 6233POPC   C3B78525  38.229  21.576   7.052
 6233POPC   C4B78526  38.312  21.195   7.290
 6234POPC   NC378527  40.397  26.639   5.435
 6234POPC   PO478528  39.882  27.016   5.373
 6234POPC   GL178529  40.101  26.937   5.745
 6234POPC   GL278530  39.802  26.881   5.931
 6234POPC   C1A78531  40.238  26.683   6.107
 6234POPC   D2A78532  39.951  26.709   6.450
 6234POPC   C3A78533  40.139  26.683   6.856
 6234POPC   C4A78534  40.366  26.970   7.115
 6234POPC   C1B78535  39.664  27.125   6.294
 6234POPC   C2B78536  39.576  26.949   6.701
 6234POPC   C3B78537  39.734  26.943   7.087
 6234POPC   C4B78538  39.962  26.715   7.377
 6235POPC   NC378539  29.095  16.500   5.492
 6235POPC   PO478540  29.270  17.147   5.418
 6235POPC   GL178541  29.195  16.918   5.818
 6235POPC   GL278542  29.415  16.610   5.854
 6235POPC   C1A78543  29.229  16.868   6.285
 6235POPC   D2A78544  29.258  16.725   6.708
 6235POPC   C3A78545  28.923  16.740   7.007
 6235POPC   C4A78546  28.660  16.995   7.291
 6235POPC   C1B78547  29.591  16.382   6.187
 6235POPC   C2B78548  29.685  16.259   6.618
 6235POPC   C3B78549  29.685  16.525   6.942
 6235POPC   C4B78550  29.418  16.704   7.210
 6236W        W78551  11.565  26.060   2.609
 6237W        W78552   8.141  20.117   1.712
 6238W        W78553  32.323  43.767   0.680
 6239W        W78554  32.616  26.913   1.808
 6240W        W78555   3.485  36.825  11.531
 6241W        W78556  15.199  38.550  13.314
 6242W        W78557   9.318   0.748   4.501
 6243W        W78558  25.561  44.880   2.732
 6244W        W78559  28.266  42.511  11.002
 6245W        W78560  35.921  31.347   2.233
 6246W        W78561  12.676   6.846  11.832
 6247W        W78562  24.373  33.560   1.856
 6248W        W78563   7.025  17.689   2.624
 6249W        W78564  10.775   2.868  11.182
 6250W        W78565  13.208   0.579  14.076
 6251W        W78566  28.392  30.162   2.205
 6252W        W78567  38.885  39.071   1.548
 6253W        W78568   2.908  32.672  13.346
 6254W        W78569  41.897  29.003   2.704
 6255W        W78570  25.238   5.477   2.828
 6256W        W78571   8.637   5.572  11.129
 6257W        W78572   7.198  34.380  10.733
 6258W        W78573   9.608  41.717  11.267
 6259W        W78574  30.944   8.064   2.131
 6260W        W78575  27.516   3.145  14.988
 6261W        W78576  26.711  40.431  11.340
 6262W        W78577  20.657   5.630  12.655
 6263W        W78578   4.823  27.469  13.837
 6264W        W78579  31.677   3.749   1.849
 6265W        W78580   6.400  13.678  11.785
 6266W        W78581   3.159  21.022  12.475
 6267W        W78582  29.546  29.102   0.177
 6268W        W78583   5.905  24.434   2.894
 6269W        W78584  44.005  36.015  11.010
 6270W        W78585  31.500  38.529  12.535
 6271W        W78586   6.298   8.038  10.035
 6272W        W78587   7.938  13.018  11.703
 6273W        W78588   7.235   7.275  12.113
 6274W        W78589  17.597  32.488  12.847
 6275W        W78590  44.233  32.368  14.010
 6276W        W78591  15.368  29.901   0.766
 6277W        W78592  40.058  34.920  13.791
 6278W        W78593   7.420   3.808   2.724
 6279W        W78594  32.397  30.295   0.898
 6280W        W78595   9.445  38.810   2.684
 6281W        W78596   8.346  18.783  12.661
 6282W        W78597   7.787  31.125  12.012
 6283W        W78598  38.105  22.718  13.332
 6284W        W78599  26.476  31.350   4.611
 6285W        W78600   8.831  39.916   3.368
 6286W        W78601   6.897  26.742  14.397
 6287W        W78602  14.743  33.549   5.402
 6288W        W78603  15.545  18.246   3.180
 6289W        W78604  26.086  15.931  11.594
 6290W        W78605   4.847  27.608   0.256
 6291W        W78606  34.281  26.409  11.423
 6292W        W78607  41.535  14.418   1.383
 6293W        W78608  20.612  41.944  10.625
 6294W        W78609  21.244  30.681   2.870
 6295W        W78610  25.065  39.407  12.283
 6296W        W78611   7.752  38.607   0.440
 6297W        W78612  41.363  11.486  12.903
 6298W        W78613  14.555  30.563   0.305
 6299W        W78614   0.851  15.890   1.220
 6300W        W78615  19.883   6.330  11.198
 6301W        W78616  12.385  20.880  13.830
 6302W        W78617  30.595  22.617   1.302
 6303W        W78618  33.138  18.107  14.235
 6304W        W78619  38.092  21.612  10.454
 6305W        W78620  24.660  29.816  13.850
 6306W        W78621  31.169  11.348  10.517
 6307W        W78622   3.985  34.316   1.170
 6308W        W78623   5.350   3.912  14.920
 6309W        W78624  24.482  33.694  11.154
 6310W        W78625  14.820  44.455   1.927
 6311W        W78626  12.043  12.716  14.080
 6312W        W78627  30.923  31.719   0.542
 6313W        W78628  29.610  39.552  13.994
 6314W        W78629  33.508  21.714  12.438
 6315W        W78630  31.469  32.824  10.826
 6316W        W78631  26.668  30.357   3.662
 6317W        W78632  18.675  44.059  12.382
 6318W        W78633   6.268  15.219   3.911
 6319W        W78634  38.916  34.465  12.386
 6320W        W78635  39.060  19.561   2.258
 6321W        W78636   4.701   3.135   1.894
 6322W        W78637   2.519  33.719   0.248
 6323W        W78638   2.135  28.898  12.978
 6324W        W78639  11.658  17.075  10.511
 6325W        W78640  37.621  19.572  14.741
 6326W        W78641  25.576  23.220  14.796
 6327W        W78642  13.777  15.127   0.179
 6328W        W78643   8.583  22.776   3.294
 6329W        W78644   2.786   2.834   0.318
 6330W        W78645   0.130  21.919  14.119
 6331W        W78646  30.149  23.232   2.275
 6332W        W78647   1.615  13.996  13.982
 6333W        W78648  44.942  30.574   1.482
 6334W        W78649  28.985  44.512  10.609
 6335W        W78650  10.788  14.277  13.296
 6336W        W78651  37.473   6.042  14.933
 6337W        W78652  37.074  40.262  12.451
 6338W        W78653  39.371  27.419   0.757
 6339W        W78654  30.155  40.506   3.762
 6340W        W78655  26.750  18.642  13.455
 6341W        W78656  22.755  35.320  11.196
 6342W        W78657  19.045  24.354  11.353
 6343W        W78658  38.878   6.034   2.863
 6344W        W78659  36.586  12.304  13.920
 6345W        W78660   5.363  26.478   3.847
 6346W        W78661  27.383  29.202   1.315
 6347W        W78662   3.670  24.444  11.446
 6348W        W78663  26.566  37.375  10.868
 6349W        W78664  17.244  20.266   4.430
 6350W        W78665   6.360  14.324   4.171
 6351W        W78666  22.213  22.472  11.910
 6352W        W78667  10.316  10.338  13.085
 6353W        W78668  20.411  43.237   2.210
 6354W        W78669  14.659  28.259  11.203
 6355W        W78670  43.152  25.807  11.116
 6356W        W78671  33.236  40.494  14.558
 6357W        W78672  35.917  20.222   4.530
 6358W        W78673  21.300  31.613   3.749
 6359W        W78674  40.986  38.903  12.209
 6360W        W78675   1.493  19.457  14.422
 6361W        W78676  23.145  19.118  12.978
 6362W        W78677   3.810  44.021  14.349
 6363W        W78678  18.173  10.331   4.037
 6364W        W78679  38.860  18.054  11.500
 6365W        W78680   6.081   1.537  11.598
 6366W        W78681  30.598  14.147  11.206
 6367W        W78682  19.537  24.616  13.818
 6368W        W78683  27.204  35.417  11.344
 6369W        W78684  11.814  22.331  11.222
 6370W        W78685  11.750  33.186  13.383
 6371W        W78686  16.108   5.705   2.415
 6372W        W78687  11.162   6.058  11.148
 6373W        W78688  37.088  19.102   3.374
 6374W        W78689   3.450  35.392   2.765
 6375W        W78690  29.175  24.686   1.488
 6376W        W78691   6.755  33.768   4.111
 6377W        W78692  38.831  28.064   3.024
 6378W        W78693  11.096  34.928  10.730
 6379W        W78694  43.761   9.159   2.721
 6380W        W78695  44.782  43.809  14.464
 6381W        W78696  35.149  24.526   4.735
 6382W        W78697   8.614   1.915   1.377
 6383W        W78698  41.011  22.518   1.197
 6384W        W78699   4.744  10.661  14.822
 6385W        W78700  39.572  17.126   0.337
 6386W        W78701  20.542   5.250   4.417
 6387W        W78702  35.629  30.544   4.532
 6388W        W78703  25.982  37.274   0.402
 6389W        W78704  10.327  16.832   4.154
 6390W        W78705  16.641  23.587   1.682
 6391W        W78706  34.895   4.198  12.965
 6392W        W78707  23.971  42.064   4.270
 6393W        W78708   2.543  43.395   2.333
 6394W        W78709   9.441  23.795  11.004
 6395W        W78710   3.340  33.330   5.061
 6396W        W78711  37.928  42.935   3.476
 6397W        W78712   6.433   6.363   3.191
 6398W        W78713  28.576   5.308  11.113
 6399W        W78714  42.433  44.944   4.586
 6400W        W78715  14.608  14.523   3.049
 6401W        W78716   3.384  36.298   2.813
 6402W        W78717  37.996   6.870   2.911
 6403W        W78718  38.151  26.593   1.038
 6404W        W78719   0.206  36.848  10.614
 6405W        W78720  24.499  33.667  12.471
 6406W        W78721  31.011  11.396   3.833
 6407W        W78722   5.629  11.690   3.623
 6408W        W78723  26.090   1.264   2.772
 6409W        W78724  42.289   0.390   4.343
 6410W        W78725  25.677  19.579   3.311
 6411W        W78726   0.642  27.437   0.877
 6412W        W78727   6.750  21.566   2.377
 6413W        W78728  18.548  42.920   1.168
 6414W        W78729  31.968  19.101   2.144
 6415W        W78730  25.755  29.379  14.367
 6416W        W78731  21.723  39.510  14.757
 6417W        W78732   8.162  19.746   2.204
 6418W        W78733   2.899  27.445  13.400
 6419W        W78734  13.269  17.240   5.102
 6420W        W78735  11.737  27.698   4.198
 6421W        W78736   9.616   0.795   4.044
 6422W        W78737  40.516   0.718  14.575
 6423W        W78738   9.803  22.732  14.728
 6424W        W78739  36.592   7.677   0.533
 6425W        W78740  40.552  19.442  12.680
 6426W        W78741  16.673  30.673   4.610
 6427W        W78742   9.275  24.949  11.640
 6428W        W78743  20.307  40.412  14.271
 6429W        W78744  41.935  12.107  12.408
 6430W        W78745  13.871  12.530  12.453
 6431W        W78746  44.520  30.280  13.919
 6432W        W78747  36.013   4.280   1.162
 6433W        W78748   0.472   8.735   3.440
 6434W        W78749  15.260  41.571  12.384
 6435W        W78750  44.898  14.841   4.753
 6436W        W78751  40.415  20.327   1.389
 6437W        W78752  11.646  11.217  11.691
 6438W        W78753  40.923  27.670   3.975
 6439W        W78754  28.858   7.783   2.655
 6440W        W78755  14.760   8.253  12.085
 6441W        W78756  37.167   1.391   3.553
 6442W        W78757  20.610  24.970  10.688
 6443W        W78758  29.599  23.586  13.725
 6444W        W78759  31.299  12.688  12.075
 6445W        W78760  29.023  21.990  11.227
 6446W        W78761  44.408  17.656   1.473
 6447W        W78762   4.671  39.040   3.744
 6448W        W78763   4.777  10.842   3.497
 6449W        W78764  30.842  32.961   9.837
 6450W        W78765  21.985   6.889   3.702
 6451W        W78766  41.975  35.485  10.540
 6452W        W78767  10.654  44.509   3.229
 6453W        W78768  19.053  39.777  11.643
 6454W        W78769   1.748  43.874  11.928
 6455W        W78770  21.638  19.242   3.383
 6456W        W78771  26.167  10.292  13.604
 6457W        W78772  23.252  29.011   3.734
 6458W        W78773  28.368  21.125   2.264
 6459W        W78774   0.174   8.118  13.760
 6460W        W78775  14.144  32.337  11.332
 6461W        W78776  22.195  25.043   0.233
 6462W        W78777  19.723  40.845   4.341
 6463W        W78778  16.989  31.667   0.374
 6464W        W78779  23.779  38.042   3.736
 6465W        W78780  19.724  16.559  14.624
 6466W        W78781  28.027  19.164   0.465
 6467W        W78782   5.900  33.369   3.379
 6468W        W78783  12.248  34.915  13.601
 6469W        W78784  37.308  25.716   0.790
 6470W        W78785  43.330   4.270   3.658
 6471W        W78786  30.639  34.814   3.911
 6472W        W78787  36.803  15.305   2.781
 6473W        W78788   1.881   1.046   1.723
 6474W        W78789  39.777  30.828   4.129
 6475W        W78790  33.835  25.672  14.355
 6476W        W78791  43.177  44.590   3.645
 6477W        W78792  17.634  40.581  11.084
 6478W        W78793  10.760  26.100   3.319
 6479W        W78794   8.850  18.953   0.784
 6480W        W78795  28.031  43.353  12.083
 6481W        W78796  34.477  43.410  14.318
 6482W        W78797  41.850   8.723   1.926
 6483W        W78798   6.542  26.643  10.320
 6484W        W78799   6.340  44.466   0.003
 6485W        W78800  24.833   5.306   4.689
 6486W        W78801  20.189  36.347   3.695
 6487W        W78802  12.268   4.912   3.193
 6488W        W78803   2.135  27.118  12.138
 6489W        W78804  33.346   4.385  13.609
 6490W        W78805   0.971  36.881   3.597
 6491W        W78806  21.899  10.844  13.175
 6492W        W78807   0.488  24.673  11.102
 6493W        W78808  13.297  41.428  11.223
 6494W        W78809  15.852  22.403   0.722
 6495W        W78810  30.191  41.389   3.730
 6496W        W78811   7.904  42.556  10.804
 6497W        W78812  39.013  27.676   2.728
 6498W        W78813  27.740   3.528   1.276
 6499W        W78814  16.231  18.750  13.971
 6500W        W78815  25.676   6.812  13.575
 6501W        W78816  21.003  42.825   1.971
 6502W        W78817   8.600  32.862   0.368
 6503W        W78818  20.653  26.550   2.597
 6504W        W78819  38.505  26.200  13.429
 6505W        W78820  43.053  10.849  12.912
 6506W        W78821  16.576  30.441   1.810
 6507W        W78822  33.685  39.910  12.993
 6508W        W78823  16.185  23.637  11.502
 6509W        W78824  16.691  13.733   2.298
 6510W        W78825  36.795  15.730   0.302
 6511W        W78826  17.325  44.511  11.533
 6512W        W78827  25.493  25.002  13.516
 6513W        W78828  14.821  14.460   0.036
 6514W        W78829  38.346  21.236  10.715
 6515W        W78830  26.785   7.766  13.522
 6516W        W78831   0.512  25.162   2.261
 6517W        W78832  39.539  19.123  11.246
 6518W        W78833  39.439  41.784   1.707
 6519W        W78834  40.348  26.717  12.404
 6520W        W78835  29.565  11.837   3.347
 6521W        W78836  31.622  40.989   3.274
 6522W        W78837  13.160  10.184  11.128
 6523W        W78838  15.566  44.234  11.043
 6524W        W78839  15.568  20.102   0.732
 6525W        W78840  31.547   5.136   3.233
 6526W        W78841  12.164  12.430   3.203
 6527W        W78842   0.405  25.501   4.386
 6528W        W78843  37.859  43.930  12.490
 6529W        W78844  36.925  13.857   0.872
 6530W        W78845  28.061  36.307   0.338
 6531W        W78846  11.219  19.654  12.544
 6532W        W78847  31.149   8.903  10.756
 6533W        W78848  31.591  14.740  12.634
 6534W        W78849  32.954   6.240  13.858
 6535W        W78850   7.021  32.146   1.300
 6536W        W78851   9.944  17.562  13.995
 6537W        W78852   6.390  37.808  11.528
 6538W        W78853  28.713  28.021  11.213
 6539W        W78854  43.568  39.363  10.642
 6540W        W78855  33.066  37.336  12.459
 6541W        W78856  20.829  29.563  14.543
 6542W        W78857  19.490  44.320   1.434
 6543W        W78858  33.492  12.405  13.612
 6544W        W78859  17.525  38.254  13.937
 6545W        W78860  17.323   4.217  11.520
 6546W        W78861  37.771  26.323  10.262
 6547W        W78862  22.739  43.273  10.935
 6548W        W78863  38.967  44.786   2.235
 6549W        W78864  21.165  18.386  13.350
 6550W        W78865  29.541  18.275   4.770
 6551W        W78866  26.983  11.688  11.815
 6552W        W78867  10.889   5.650  11.579
 6553W        W78868  36.562  12.729   0.937
 6554W        W78869   2.327  29.923  12.926
 6555W        W78870   7.835   6.337   3.588
 6556W        W78871  40.103  37.489  11.345
 6557W        W78872  22.139  40.539  14.419
 6558W        W78873  41.626  30.932  13.637
 6559W        W78874  40.586  35.464  14.009
 6560W        W78875  38.594   1.339   0.765
 6561W        W78876  12.771  11.828  12.496
 6562W        W78877  14.267   1.288   1.823
 6563W        W78878   9.078  19.594   5.156
 6564W        W78879  17.624   3.523  10.862
 6565W        W78880  35.822   9.885   0.890
 6566W        W78881   7.297  44.821   3.722
 6567W        W78882  13.216  18.629  12.812
 6568W        W78883   8.862  28.450  13.795
 6569W        W78884  36.431  39.346   4.107
 6570W        W78885  24.239  42.838   3.634
 6571W        W78886  37.507   8.871  14.298
 6572W        W78887  20.000  36.807  12.470
 6573W        W78888  33.312  24.466   4.402
 6574W        W78889  20.679  36.377  10.611
 6575W        W78890  22.942  24.932  14.400
 6576W        W78891   6.427   3.344   1.883
 6577W        W78892   2.928  27.181  10.604
 6578W        W78893   2.292  34.345   1.887
 6579W        W78894  43.707  29.858   0.339
 6580W        W78895  18.913   0.733  13.073
 6581W        W78896  23.124  35.468   2.903
 6582W        W78897   3.363  32.506  11.665
 6583W        W78898  17.692  27.452   5.662
 6584W        W78899  42.418   1.912  10.645
 6585W        W78900  20.721  42.650  11.591
 6586W        W78901  15.736  21.404  14.922
 6587W        W78902  26.464  12.176  14.274
 6588W        W78903  20.997  26.216  10.796
 6589W        W78904  16.687  35.620   4.119
 6590W        W78905  30.541   1.254   4.485
 6591W        W78906  38.415  16.884   3.723
 6592W        W78907  41.760  27.920   9.851
 6593W        W78908  37.991  40.754   4.002
 6594W        W78909   8.546  10.372   5.073
 6595W        W78910   4.367  42.934  11.028
 6596W        W78911  17.028  18.109  11.980
 6597W        W78912  15.774  18.309   2.324
 6598W        W78913  15.165  31.985  11.128
 6599W        W78914  20.483  16.137  12.060
 6600W        W78915  13.251  44.350  14.821
 6601W        W78916   8.545  15.447  12.476
 6602W        W78917  24.184  23.382   2.460
 6603W        W78918  32.407  11.565  13.529
 6604W        W78919  34.887  30.062   3.453
 6605W        W78920  44.371  22.519   4.230
 6606W        W78921   8.716  21.523   1.406
 6607W        W78922  23.225  39.287   0.476
 6608W        W78923   5.855  31.038  14.004
 6609W        W78924  33.754   4.297   3.781
 6610W        W78925  28.849  41.010   2.264
 6611W        W78926  35.396  28.916  14.478
 6612W        W78927  30.218  41.115   1.950
 6613W        W78928  28.629  36.352   0.024
 6614W        W78929  35.331  25.561  14.934
 6615W        W78930  11.578  24.916   2.000
 6616W        W78931  34.582  10.634   4.605
 6617W        W78932   3.102  20.844   1.491
 6618W        W78933  22.975  24.455   0.078
 6619W        W78934   1.239  12.204  13.443
 6620W        W78935   6.385  41.484   3.770
 6621W        W78936  42.247  10.849   1.790
 6622W        W78937  24.433  10.700   0.914
 6623W        W78938   3.200  35.846  14.981
 6624W        W78939  30.452  26.264   2.852
 6625W        W78940  35.586  19.677  13.848
 6626W        W78941  14.118  13.289  12.029
 6627W        W78942  12.182  14.389  14.860
 6628W        W78943  31.888  26.053   0.573
 6629W        W78944  36.967  35.538   0.014
 6630W        W78945  38.337  29.138   3.170
 6631W        W78946   3.270  37.658  12.413
 6632W        W78947  21.970  30.882  11.188
 6633W        W78948  20.875  41.759  11.016
 6634W        W78949   5.420  13.794   0.285
 6635W        W78950  27.400  39.128   3.671
 6636W        W78951   1.818  32.832   2.188
 6637W        W78952  27.565  31.188  11.956
 6638W        W78953   0.428  34.149   2.768
 6639W        W78954  24.712   9.313  12.574
 6640W        W78955   0.256  21.062  10.768
 6641W        W78956  34.169  31.522  12.944
 6642W        W78957  16.088  19.639  14.292
 6643W        W78958  13.695  18.584   2.716
 6644W        W78959  19.052   9.181  12.018
 6645W        W78960   4.191  36.299   0.383
 6646W        W78961  27.672  31.386  11.181
 6647W        W78962  16.687  24.143   2.987
 6648W        W78963  29.954  41.620   2.838
 6649W        W78964  36.573   4.487  13.908
 6650W        W78965  43.034  28.988  13.907
 6651W        W78966  17.662  16.532   1.697
 6652W        W78967  30.807  17.715  11.652
 6653W        W78968  10.019   5.013  11.098
 6654W        W78969  41.723  25.585   2.930
 6655W        W78970  38.340  14.283  14.077
 6656W        W78971  17.245   3.947   2.258
 6657W        W78972  40.989   4.354   1.727
 6658W        W78973   7.091  14.658   1.200
 6659W        W78974  35.089  34.483   2.744
 6660W        W78975  27.873  25.683  12.111
 6661W        W78976  35.107  25.945   2.288
 6662W        W78977  11.153   2.510  11.118
 6663W        W78978  26.918   4.765  14.873
 6664W        W78979  30.196   0.983   4.798
 6665W        W78980  25.175   9.249  13.416
 6666W        W78981   3.164  33.037   0.198
 6667W        W78982  12.285  32.596  14.289
 6668W        W78983   5.313   0.948   4.591
 6669W        W78984  38.671   1.759   2.703
 6670W        W78985   8.684   0.940   0.422
 6671W        W78986  43.387  40.585  13.450
 6672W        W78987  11.134  20.068  14.937
 6673W        W78988  33.146  15.709  12.949
 6674W        W78989  31.173   4.788  11.571
 6675W        W78990  20.546  33.354   4.127
 6676W        W78991  34.367  12.583  14.242
 6677W        W78992  38.621   0.950  13.495
 6678W        W78993  23.811  32.184  10.526
 6679W        W78994   9.865  16.516   1.752
 6680W        W78995  34.520  40.740  11.387
 6681W        W78996  31.951  23.090   4.120
 6682W        W78997  15.198   3.927   3.779
 6683W        W78998  39.900  17.761  12.204
 6684W        W78999  27.666  36.635   0.299
 6685W        W79000   0.043  20.096  11.567
 6686W        W79001  34.008  16.058  13.575
 6687W        W79002   7.490   1.329  11.711
 6688W        W79003  26.588  37.330  14.348
 6689W        W79004  12.137  38.330   2.201
 6690W        W79005  23.718  24.670  11.525
 6691W        W79006   1.362  15.241   3.160
 6692W        W79007  22.632   5.017   3.590
 6693W        W79008   6.839  35.096  14.747
 6694W        W79009  21.620  24.525  13.058
 6695W        W79010  38.521  34.573  11.229
 6696W        W79011  39.075  28.371  12.672
 6697W        W79012  13.629  14.697  12.972
 6698W        W79013   0.198  40.378  14.074
 6699W        W79014   8.805  11.800   4.526
 6700W        W79015  20.662  30.710  11.808
 6701W        W79016   5.124  15.291  12.937
 6702W        W79017  41.354   8.674   4.736
 6703W        W79018  32.997   4.519   0.464
 6704W        W79019  12.267   7.834   4.313
 6705W        W79020  20.197  22.205   0.845
 6706W        W79021  17.920  13.687   0.493
 6707W        W79022  43.247   2.729  13.385
 6708W        W79023   2.989   3.209  11.983
 6709W        W79024  38.262  39.282   0.325
 6710W        W79025  21.442  16.429   1.948
 6711W        W79026  11.126  35.147   0.974
 6712W        W79027  34.503  16.220  12.231
 6713W        W79028  15.154  21.322   4.618
 6714W        W79029  43.986  44.307   3.233
 6715W        W79030   3.084  16.634  11.240
 6716W        W79031  26.510   7.670   2.307
 6717W        W79032   7.471  19.766   3.843
 6718W        W79033  44.255  27.600  12.848
 6719W        W79034  12.380  42.986  13.896
 6720W        W79035  39.504  41.593   4.815
 6721W        W79036  19.723  25.640   2.877
 6722W        W79037  44.695  29.530  13.430
 6723W        W79038  10.944  37.466  11.174
 6724W        W79039  41.507  27.734   0.483
 6725W        W79040  17.794  39.275   4.682
 6726W        W79041  20.966  38.994  13.426
 6727W        W79042  21.796  39.095   3.852
 6728W        W79043   6.465  19.844   3.751
 6729W        W79044  15.087  19.516   0.364
 6730W        W79045  25.744  42.309   1.702
 6731W        W79046  38.339   6.386   1.703
 6732W        W79047   8.867  25.509   2.836
 6733W        W79048  30.179  17.641   4.554
 6734W        W79049  22.157  10.177   4.716
 6735W        W79050  40.593   2.898  12.041
 6736W        W79051   4.350  19.555  14.130
 6737W        W79052  24.596   9.235  10.701
 6738W        W79053  24.160  29.127   4.504
 6739W        W79054   3.759  35.031  14.846
 6740W        W79055   9.195  40.595   4.580
 6741W        W79056  34.582  14.892  10.831
 6742W        W79057  11.227  11.184   0.948
 6743W        W79058  44.185   6.312  11.495
 6744W        W79059  13.407   8.449  13.234
 6745W        W79060  38.221  34.143  14.417
 6746W        W79061   5.755  17.106   4.236
 6747W        W79062  28.342   4.695   4.326
 6748W        W79063   5.180  17.828  14.221
 6749W        W79064  23.975   4.350  14.938
 6750W        W79065  40.432  14.255   3.412
 6751W        W79066   7.669   3.240   2.085
 6752W        W79067  15.438  37.620   2.637
 6753W        W79068  28.870  27.611  12.935
 6754W        W79069   2.809   1.976   3.420
 6755W        W79070  24.672  20.242  11.708
 6756W        W79071  37.744   7.053   1.148
 6757W        W79072   5.993  12.072   2.240
 6758W        W79073   3.254  17.132   2.855
 6759W        W79074  28.296  36.026  12.573
 6760W        W79075   5.713  41.826  14.786
 6761W        W79076   5.758   0.005  11.436
 6762W        W79077   1.027  37.566  14.955
 6763W        W79078  15.741  20.012  12.492
 6764W        W79079  23.798   5.404  12.049
 6765W        W79080  17.062  13.366  14.763
 6766W        W79081  17.997  42.015   2.385
 6767W        W79082  12.877  37.115   0.798
 6768W        W79083  20.113  40.985   3.736
 6769W        W79084   5.135  17.644  11.568
 6770W        W79085  20.600  17.703  13.600
 6771W        W79086  35.106   3.881   2.249
 6772W        W79087  41.704   4.473  13.006
 6773W        W79088   2.326  43.426  13.835
 6774W        W79089  26.686  27.427   2.356
 6775W        W79090  20.226  18.099   0.377
 6776W        W79091  22.483  36.179  14.421
 6777W        W79092  11.093  13.098  12.671
 6778W        W79093  34.986  19.120   3.778
 6779W        W79094  14.012  30.535  14.375
 6780W        W79095  33.969  40.035   2.189
 6781W        W79096  41.258  10.203   0.263
 6782W        W79097  13.670  44.718  11.696
 6783W        W79098  29.482  39.251   0.299
 6784W        W79099  11.742  35.978   1.204
 6785W        W79100  40.609  37.400  12.571
 6786W        W79101   8.792  13.780   2.931
 6787W        W79102  33.559  25.180  12.497
 6788W        W79103  41.366  10.950  12.941
 6789W        W79104  40.039  19.253  11.214
 6790W        W79105   3.188   4.233   1.223
 6791W        W79106  24.922  37.323  12.364
 6792W        W79107  30.906   6.206  12.531
 6793W        W79108  27.461  33.298   0.092
 6794W        W79109  43.364  28.390  14.482
 6795W        W79110  25.721  35.878   4.513
 6796W        W79111  27.856  10.801   2.993
 6797W        W79112   1.285  12.869  10.633
 6798W        W79113  31.067  23.210   2.311
 6799W        W79114  32.123   7.174  14.731
 6800W        W79115  23.198  30.615   2.179
 6801W        W79116  43.755  28.928   2.779
 6802W        W79117   1.280  40.587   1.754
 6803W        W79118  17.942  36.998  11.908
 6804W        W79119   8.631  35.454  11.157
 6805W        W79120  27.558  13.561  14.840
 6806W        W79121  20.332  22.157  14.948
 6807W        W79122  32.180  24.092  14.862
 6808W        W79123   5.780  43.247  12.071
 6809W        W79124   1.871  40.129   5.037
 6810W        W79125  35.658  13.478  14.393
 6811W        W79126  33.595  16.626   2.661
 6812W        W79127  37.390  14.177   0.234
 6813W        W79128  19.871   2.217   2.149
 6814W        W79129   7.886  32.640  12.065
 6815W        W79130  24.072  37.472  10.846
 6816W        W79131  44.806  34.544  11.411
 6817W        W79132   2.772  25.249  14.853
 6818W        W79133  22.533  35.025  13.050
 6819W        W79134  11.923   1.838   2.407
 6820W        W79135  36.495  15.345  13.272
 6821W        W79136  14.213  27.623   3.644
 6822W        W79137  43.248  26.893  10.313
 6823W        W79138  11.622   7.244   3.718
 6824W        W79139  39.314  28.449   2.363
 6825W        W79140  24.526   7.351   4.069
 6826W        W79141   3.188  43.068  11.617
 6827W        W79142  25.198   7.843   5.160
 6828W        W79143  18.165  22.197   3.645
 6829W        W79144  37.485  36.054  13.767
 6830W        W79145  17.286  28.424  10.104
 6831W        W79146  24.250  18.910   4.198
 6832W        W79147  11.229  35.465  11.159
 6833W        W79148  12.197  28.451   2.877
 6834W        W79149  20.197  40.991   1.721
 6835W        W79150  26.237  19.588  13.458
 6836W        W79151   3.780  40.754  14.103
 6837W        W79152  31.673  38.506   4.441
 6838W        W79153  38.972  30.331   0.869
 6839W        W79154  23.638  26.274   2.616
 6840W        W79155  35.836  11.884  14.429
 6841W        W79156  20.519  39.332  14.146
 6842W        W79157  39.499  20.953  11.494
 6843W        W79158  17.673   0.785  11.754
 6844W        W79159  36.905  42.313  10.943
 6845W        W79160  24.062  36.123  14.346
 6846W        W79161  25.486  32.537  11.062
 6847W        W79162  15.239  25.640   0.067
 6848W        W79163  43.275  26.952   0.984
 6849W        W79164  40.036  23.484  12.983
 6850W        W79165   9.342  25.497  14.523
 6851W        W79166  29.721  40.419  14.543
 6852W        W79167   6.092  43.652  12.008
 6853W        W79168  43.187  20.160  11.212
 6854W        W79169   7.758   6.339  12.844
 6855W        W79170  18.204  32.893  11.953
 6856W        W79171  29.825  19.692   1.764
 6857W        W79172  27.480   8.643  11.444
 6858W        W79173  11.621  19.723   2.852
 6859W        W79174   1.277   2.360  14.319
 6860W        W79175  15.829  22.033  11.007
 6861W        W79176  31.057  31.410   3.274
 6862W        W79177  37.634  41.054   0.775
 6863W        W79178  41.400  18.580   3.166
 6864W        W79179  39.333  24.285  11.270
 6865W        W79180   7.592  30.343   5.478
 6866W        W79181  16.473  12.664  13.525
 6867W        W79182   8.203   7.659   3.658
 6868W        W79183  24.587  32.335  11.041
 6869W        W79184  13.111  25.156  11.270
 6870W        W79185  10.899   7.075  11.715
 6871W        W79186  14.782  35.445   4.804
 6872W        W79187   3.653   6.934  11.062
 6873W        W79188  34.571  35.375   4.107
 6874W        W79189   9.828  16.787  13.379
 6875W        W79190  20.314  18.210  11.532
 6876W        W79191  12.827   2.773  14.410
 6877W        W79192  14.672  36.032  11.438
 6878W        W79193  38.232  32.101  14.269
 6879W        W79194   3.894  21.021   4.729
 6880W        W79195   6.853  22.684  13.560
 6881W        W79196  35.393  15.446   1.432
 6882W        W79197  24.094  21.710   0.958
 6883W        W79198  35.823   4.413  12.012
 6884W        W79199  11.925   9.102  10.730
 6885W        W79200  17.075  39.925  12.740
 6886W        W79201   0.365  25.056   4.070
 6887W        W79202   3.326  11.774   1.652
 6888W        W79203  26.207  18.645  10.571
 6889W        W79204   6.813   5.421  12.536
 6890W        W79205  37.122  25.295  13.359
 6891W        W79206  18.010  17.198  13.838
 6892W        W79207  26.069  26.451   3.693
 6893W        W79208  44.606  16.811  13.499
 6894W        W79209  12.927  37.624  14.959
 6895W        W79210   6.034  18.061   4.999
 6896W        W79211  35.655  27.237   3.462
 6897W        W79212   6.868  13.074  10.743
 6898W        W79213  23.217  26.968  12.040
 6899W        W79214  24.893  21.442   4.321
 6900W        W79215  34.420  37.448  10.579
 6901W        W79216  10.847  39.958   1.876
 6902W        W79217   8.431  36.312   3.232
 6903W        W79218  44.491   8.248   1.800
 6904W        W79219  34.637  35.292  10.760
 6905W        W79220   5.467  42.954   2.246
 6906W        W79221  28.447  15.141   2.659
 6907W        W79222  39.986  32.112  11.973
 6908W        W79223  29.918  42.974   4.124
 6909W        W79224  11.104  15.308   3.980
 6910W        W79225   1.861  28.813  12.504
 6911W        W79226  30.691   6.606  13.915
 6912W        W79227  32.975  30.019  10.885
 6913W        W79228  23.002   6.740  14.129
 6914W        W79229  24.390  19.385  11.790
 6915W        W79230  43.525   9.153   2.243
 6916W        W79231  24.730  11.661   2.333
 6917W        W79232  20.081  17.148  11.552
 6918W        W79233  43.218  42.564   4.227
 6919W        W79234  40.402  38.578  13.297
 6920W        W79235  43.449   9.796  14.170
 6921W        W79236  36.431  37.302   0.269
 6922W        W79237  22.773  27.136   0.978
 6923W        W79238   6.843  26.735   3.181
 6924W        W79239  23.990  30.104   3.660
 6925W        W79240  36.318   2.229  10.621
 6926W        W79241   1.662  38.825  11.605
 6927W        W79242   6.275  38.108  14.645
 6928W        W79243   4.490   4.855  12.396
 6929W        W79244  35.437  28.992  12.650
 6930W        W79245  36.384  10.130  14.182
 6931W        W79246   4.765  20.072   3.056
 6932W        W79247   2.466  11.165   2.158
 6933W        W79248  31.068  42.521  12.902
 6934W        W79249  40.989  27.028   1.752
 6935W        W79250   9.748  36.890   1.788
 6936W        W79251  19.592  23.475  14.880
 6937W        W79252   6.707  44.764   0.273
 6938W        W79253   5.427  39.606  14.409
 6939W        W79254   5.630  29.633   1.526
 6940W        W79255  39.384  25.697  10.174
 6941W        W79256  43.598   4.236  13.040
 6942W        W79257  32.691   2.182   5.126
 6943W        W79258  44.676   5.684   2.201
 6944W        W79259   2.215  27.717  10.552
 6945W        W79260   6.155  17.149  10.626
 6946W        W79261   0.032  13.345  11.449
 6947W        W79262   3.792   1.278   1.409
 6948W        W79263  23.147  25.946  14.355
 6949W        W79264  43.548  36.061   9.925
 6950W        W79265  19.151   5.243   4.179
 6951W        W79266  42.854   2.183   1.050
 6952W        W79267  27.080  14.313  10.499
 6953W        W79268  13.325  16.281  12.125
 6954W        W79269  36.076   2.322  13.924
 6955W        W79270   0.903  20.748   2.955
 6956W        W79271   1.718  34.405   2.652
 6957W        W79272  10.479  26.019   1.503
 6958W        W79273  32.689  24.216  14.979
 6959W        W79274  39.692   3.970   1.862
 6960W        W79275  38.090  30.828   1.143
 6961W        W79276  13.222  28.395  12.352
 6962W        W79277  44.725  39.172  11.710
 6963W        W79278  35.609   2.662   3.272
 6964W        W79279   5.964  30.095   2.144
 6965W        W79280  10.078   7.115   2.446
 6966W        W79281   2.774  42.653   3.910
 6967W        W79282  32.457  30.663  14.931
 6968W        W79283  24.879  17.068  11.089
 6969W        W79284   3.431  37.502   4.206
 6970W        W79285  26.017   6.160  11.496
 6971W        W79286   7.835  17.527  12.491
 6972W        W79287   1.823  37.050   4.172
 6973W        W79288  15.417  11.257  12.924
 6974W        W79289   3.414  24.087  13.644
 6975W        W79290  12.894  36.097  10.679
 6976W        W79291  44.031   4.818  10.648
 6977W        W79292  17.072   4.698  11.524
 6978W        W79293  22.155  39.307  13.572
 6979W        W79294  15.379  16.001   5.086
 6980W        W79295  41.489   9.385  11.286
 6981W        W79296  26.211  38.112  10.578
 6982W        W79297  16.687   0.980   2.205
 6983W        W79298   1.853  41.950  12.971
 6984W        W79299  24.148  39.464  12.575
 6985W        W79300   5.218  22.058   2.895
 6986W        W79301  25.561  33.606   2.712
 6987W        W79302  23.699  13.634   2.798
 6988W        W79303  13.656  14.321  11.519
 6989W        W79304   4.984  41.609   0.217
 6990W        W79305  27.085  10.438   3.188
 6991W        W79306   1.513  28.953  11.240
 6992W        W79307  30.152  37.794  11.129
 6993W        W79308  14.295  18.773  13.061
 6994W        W79309  28.003  43.551  13.872
 6995W        W79310  42.273   0.915  10.574
 6996W        W79311   7.934  42.483   2.163
 6997W        W79312   3.296  36.427   0.240
 6998W        W79313  41.548  24.662  14.533
 6999W        W79314  38.453  31.181   1.183
 7000W        W79315  37.890  28.004  10.587
 7001W        W79316  24.651  37.413  13.034
 7002W        W79317  26.176  23.099  11.576
 7003W        W79318  32.370  39.452  11.515
 7004W        W79319   5.470   7.946   1.757
 7005W        W79320  37.288  20.493   3.107
 7006W        W79321  43.469  39.041   3.664
 7007W        W79322   2.849  23.527   3.711
 7008W        W79323  21.131   3.043  10.755
 7009W        W79324  24.325   5.223   2.687
 7010W        W79325  33.360   4.098  14.293
 7011W        W79326  32.696   4.696   1.512
 7012W        W79327   9.077  22.780  13.352
 7013W        W79328  36.582  26.986   4.041
 7014W        W79329   1.593  37.394   3.624
 7015W        W79330  27.262  12.260   3.203
 7016W        W79331  32.414   6.791  14.342
 7017W        W79332  24.753  12.385  14.964
 7018W        W79333  26.211  34.479  12.077
 7019W        W79334   8.247   0.694  10.215
 7020W        W79335  28.076  29.949  13.753
 7021W        W79336  26.768  31.754  11.054
 7022W        W79337  15.190  44.228  14.875
 7023W        W79338  26.002  32.013   9.825
 7024W        W79339   0.451  21.706  13.346
 7025W        W79340   7.497  20.989  10.654
 7026W        W79341  18.576  34.832  14.479
 7027W        W79342  31.884  38.367  11.614
 7028W        W79343  14.417   1.823   3.621
 7029W        W79344   2.374  29.005  14.764
 7030W        W79345  41.008   2.675  12.939
 7031W        W79346   4.890  43.832   1.611
 7032W        W79347  40.882  41.936   2.192
 7033W        W79348  28.455  43.585   2.702
 7034W        W79349  20.415  43.366  13.497
 7035W        W79350   2.226  33.028  14.918
 7036W        W79351   9.166  40.918  12.379
 7037W        W79352  21.225  28.889   3.302
 7038W        W79353  29.592  24.642   3.160
 7039W        W79354  39.737   4.641   1.636
 7040W        W79355  20.337  25.205  10.276
 7041W        W79356  13.398   9.098   4.530
 7042W        W79357  32.334   7.598  13.341
 7043W        W79358   2.369  20.849   0.445
 7044W        W79359  21.464  18.139   2.350
 7045W        W79360  20.542  14.639  13.561
 7046W        W79361  21.033   5.834  14.403
 7047W        W79362  34.138  39.928  12.061
 7048W        W79363  14.211  35.987  12.074
 7049W        W79364  34.802  43.095   3.007
 7050W        W79365  12.718  15.659  11.247
 7051W        W79366  16.364  39.595   9.874
 7052W        W79367  35.385  30.643  11.919
 7053W        W79368  30.405  40.805   2.430
 7054W        W79369  15.809  14.261   4.901
 7055W        W79370  30.522   6.077   5.035
 7056W        W79371  34.106  16.871   3.992
 7057W        W79372  12.321  30.468   4.084
 7058W        W79373  24.477   2.455   0.860
 7059W        W79374  38.940  40.564  13.014
 7060W        W79375  22.222  21.860   5.100
 7061W        W79376  12.461  23.656   2.810
 7062W        W79377   5.264  41.955  14.351
 7063W        W79378  38.290   8.718   2.241
 7064W        W79379   7.457  41.193   4.106
 7065W        W79380   1.666  20.264  13.449
 7066W        W79381   2.301  33.677   2.262
 7067W        W79382  32.449  42.320  14.405
 7068W        W79383  44.232  38.010   1.179
 7069W        W79384  18.239  43.289  12.406
 7070W        W79385  40.158  42.374   0.720
 7071W        W79386  38.543  26.508   4.284
 7072W        W79387   9.085  22.578   3.345
 7073W        W79388  36.463  10.765  14.767
 7074W        W79389  21.907   8.910   0.230
 7075W        W79390  34.831  44.485  10.295
 7076W        W79391  15.131  14.695  11.567
 7077W        W79392  29.709  12.139   1.893
 7078W        W79393  10.445   5.493  14.995
 7079W        W79394   6.146  33.509   2.077
 7080W        W79395  26.902  39.055   3.820
 7081W        W79396  18.960  39.089   4.124
 7082W        W79397  14.446  23.004  12.852
 7083W        W79398  31.429  30.868  13.838
 7084W        W79399  23.219  32.849  12.051
 7085W        W79400   8.335   1.389  10.569
 7086W        W79401  17.224  11.142   3.261
 7087W        W79402  21.055   1.304   1.163
 7088W        W79403  25.723  27.294  12.930
 7089W        W79404  13.797  11.157  10.653
 7090W        W79405   4.407   0.774   0.884
 7091W        W79406  31.315  42.718  10.268
 7092W        W79407  29.740   2.499   2.794
 7093W        W79408  23.698  11.689   2.414
 7094W        W79409  38.299  30.082   1.618
 7095W        W79410  27.297  27.441  14.556
 7096W        W79411  22.731   4.238   1.329
 7097W        W79412   1.587  10.882   0.775
 7098W        W79413  15.260  21.027  14.039
 7099W        W79414  26.727   2.229   3.333
 7100W        W79415  38.548  44.886  13.087
 7101W        W79416  42.851  18.821   4.203
 7102W        W79417  30.186  33.294   1.962
 7103W        W79418   8.702  33.651  11.145
 7104W        W79419  10.562  43.812   4.730
 7105W        W79420   9.414  30.855  12.139
 7106W        W79421   5.455  43.580  10.453
 7107W        W79422  32.183  22.456   4.648
 7108W        W79423  20.767  21.352   4.382
 7109W        W79424   7.807  20.086   2.973
 7110W        W79425  43.716  33.107  11.337
 7111W        W79426  17.828  13.103  11.303
 7112W        W79427  40.241  39.004  14.402
 7113W        W79428  27.151  15.878   4.086
 7114W        W79429  24.284  38.783  13.323
 7115W        W79430  34.627  11.700  13.910
 7116W        W79431  26.389  20.547  11.176
 7117W        W79432  28.879  10.160   3.581
 7118W        W79433  34.261  11.835  11.087
 7119W        W79434  15.774   0.992   2.147
 7120W        W79435  18.525   8.620  11.313
 7121W        W79436  37.448  36.538   4.949
 7122W        W79437  41.789   4.302   2.244
 7123W        W79438  41.448  31.718  12.385
 7124W        W79439  36.358   7.538  11.339
 7125W        W79440  41.704   1.510   1.329
 7126W        W79441  29.690  29.651  10.821
 7127W        W79442  10.427  27.721  12.391
 7128W        W79443  23.433   8.775   0.709
 7129W        W79444  15.764  24.343  14.505
 7130W        W79445  32.140  21.978   1.717
 7131W        W79446  12.152  34.301  11.014
 7132W        W79447  40.170   9.251  13.081
 7133W        W79448  31.929  36.603   4.666
 7134W        W79449  16.365  15.695  14.466
 7135W        W79450  20.739  25.193  13.381
 7136W        W79451  23.981  30.852   2.431
 7137W        W79452  27.140  27.423   3.650
 7138W        W79453  14.611  43.548   0.808
 7139W        W79454  32.099  40.833   4.538
 7140W        W79455  18.100  32.372  12.840
 7141W        W79456  17.569  23.107   2.211
 7142W        W79457  39.926   8.613   0.703
 7143W        W79458  21.593   8.658  12.545
 7144W        W79459  37.316  29.748  13.004
 7145W        W79460  38.459   0.273  10.628
 7146W        W79461  17.673   8.349   9.849
 7147W        W79462  41.355  23.212   4.187
 7148W        W79463   0.345   7.452   3.296
 7149W        W79464   8.863  29.511  10.426
 7150W        W79465  31.031  29.166  10.632
 7151W        W79466  27.717  36.397   3.615
 7152W        W79467  33.591  29.715  10.967
 7153W        W79468  19.446  37.475  14.311
 7154W        W79469  19.978  41.390  13.452
 7155W        W79470  27.488  38.344  13.459
 7156W        W79471   1.936  18.853  13.317
 7157W        W79472  20.019  24.714   2.767
 7158W        W79473  36.162  18.169   3.141
 7159W        W79474  32.071  25.614  14.025
 7160W        W79475  26.708  31.649   0.804
 7161W        W79476  13.523  38.180   4.063
 7162W        W79477  28.540  19.398  14.850
 7163W        W79478  10.003  20.156   1.238
 7164W        W79479  18.628  43.398   4.726
 7165W        W79480  14.319  40.423  10.542
 7166W        W79481  20.178  38.039  10.743
 7167W        W79482  23.789  14.172   2.823
 7168W        W79483   3.786  18.554  14.902
 7169W        W79484  39.854  40.843  14.750
 7170W        W79485   9.812  13.372  11.708
 7171W        W79486  43.593  25.223   3.574
 7172W        W79487  38.107  10.781   3.508
 7173W        W79488  34.332   6.917   3.081
 7174W        W79489  41.386  23.369  11.695
 7175W        W79490   4.038  24.417  14.421
 7176W        W79491  30.033  34.465   4.599
 7177W        W79492  24.888   5.906   0.245
 7178W        W79493  37.905  28.534   4.603
 7179W        W79494  40.851  32.184   3.094
 7180W        W79495  20.141  27.882  14.288
 7181W        W79496  41.142  30.120  13.971
 7182W        W79497  23.391   0.431  11.390
 7183W        W79498  17.537  22.974   0.044
 7184W        W79499  18.309  42.877   1.677
 7185W        W79500  22.218   9.583  13.925
 7186W        W79501   0.898  25.717  11.956
 7187W        W79502  19.637  16.339  11.589
 7188W        W79503  26.507  35.497  11.076
 7189W        W79504  20.033  10.454   4.804
 7190W        W79505  12.276  18.041  12.215
 7191W        W79506   2.011  43.080   3.996
 7192W        W79507  44.097   4.205  13.013
 7193W        W79508  12.149  39.287   0.711
 7194W        W79509   6.703  16.339   0.384
 7195W        W79510  44.805  29.268  10.287
 7196W        W79511  44.794   0.723   2.313
 7197W        W79512   4.871  28.069   2.384
 7198W        W79513  10.679  40.341   3.754
 7199W        W79514  23.997   1.517  14.925
 7200W        W79515   8.874   4.324  13.638
 7201W        W79516   8.699  34.551   2.259
 7202W        W79517  42.924  37.167   3.227
 7203W        W79518  35.641   8.973   0.726
 7204W        W79519  38.512  20.796   3.691
 7205W        W79520  15.396  22.912  14.477
 7206W        W79521  14.273  31.237   1.187
 7207W        W79522   1.413  44.640   3.944
 7208W        W79523  42.738  43.344  11.926
 7209W        W79524  37.634   0.267   0.777
 7210W        W79525  32.324   3.803  12.556
 7211W        W79526   3.734   7.650  11.509
 7212W        W79527  14.746  33.116   3.099
 7213W        W79528  11.333  24.276  13.803
 7214W        W79529  31.927  19.227   2.647
 7215W        W79530  15.974   1.823  12.010
 7216W        W79531  39.133  14.258  13.440
 7217W        W79532  32.158  23.813  14.387
 7218W        W79533  28.975   3.382  12.526
 7219W        W79534   3.995  19.121   1.215
 7220W        W79535  27.125  13.216   3.885
 7221W        W79536  18.111  42.024  13.007
 7222W        W79537   8.703  19.341  13.915
 7223W        W79538  42.045  18.522  12.930
 7224W        W79539   6.914  16.786  11.536
 7225W        W79540  21.207  33.748  14.409
 7226W        W79541  36.644  41.924   0.978
 7227W        W79542  32.251  39.386  10.772
 7228W        W79543  21.255  31.646   2.618
 7229W        W79544  42.852  40.584  14.438
 7230W        W79545  11.025  10.378  10.757
 7231W        W79546   2.856  29.494   0.391
 7232W        W79547  38.789   3.987   3.401
 7233W        W79548  38.636  12.643   0.476
 7234W        W79549   4.006  27.174  14.069
 7235W        W79550  42.862  17.497  13.518
 7236W        W79551   9.831  37.462  11.294
 7237W        W79552   6.725  31.614  11.218
 7238W        W79553  24.726  40.287   1.283
 7239W        W79554  15.690  25.075  12.864
 7240W        W79555  17.211  10.141  14.941
 7241W        W79556  36.197  27.429  13.908
 7242W        W79557  37.404  44.922  10.584
 7243W        W79558  29.648  12.675   0.551
 7244W        W79559  34.587   8.758   0.598
 7245W        W79560  42.352  14.830  12.497
 7246W        W79561  26.711  38.779  12.566
 7247W        W79562  18.235  17.702   2.084
 7248W        W79563  28.695  34.843  13.344
 7249W        W79564  35.461   1.242   1.008
 7250W        W79565  15.280  36.471  10.779
 7251W        W79566  28.646  40.126   4.184
 7252W        W79567  26.475  39.261   2.233
 7253W        W79568  28.080   4.423  10.115
 7254W        W79569  32.203  42.509  11.074
 7255W        W79570  43.899   3.328  13.457
 7256W        W79571  14.199  13.074   5.089
 7257W        W79572  33.430  25.236   1.715
 7258W        W79573   9.182  35.019   2.651
 7259W        W79574  36.088   6.889   0.214
 7260W        W79575  38.980  42.805   5.039
 7261W        W79576  25.447  19.875   2.938
 7262W        W79577  16.782  22.352   4.630
 7263W        W79578   7.520  44.905  12.324
 7264W        W79579  32.528   0.928   0.068
 7265W        W79580  39.355  22.027   4.583
 7266W        W79581  42.555  41.759  13.466
 7267W        W79582  16.572  44.488   2.720
 7268W        W79583  23.094   8.388   4.217
 7269W        W79584  26.617   6.933   1.253
 7270W        W79585  43.257  35.522  11.482
 7271W        W79586   1.314  10.741  11.077
 7272W        W79587  24.286  21.756   5.117
 7273W        W79588  21.461   5.055   1.713
 7274W        W79589  21.929  34.476   0.373
 7275W        W79590  39.112   3.702  13.133
 7276W        W79591  26.496  35.669   3.338
 7277W        W79592  29.171  31.193  12.425
 7278W        W79593  28.402  35.473   3.308
 7279W        W79594  34.168  27.572  11.110
 7280W        W79595   6.345  33.959   2.718
 7281W        W79596  17.098  30.626  13.253
 7282W        W79597  36.283   3.954  12.919
 7283W        W79598  11.881  23.969   4.605
 7284W        W79599  10.759  43.352   5.004
 7285W        W79600  44.689  15.790   0.526
 7286W        W79601  11.673   2.432   3.943
 7287W        W79602  35.075   9.624   3.216
 7288W        W79603   6.344   5.729  11.315
 7289W        W79604   1.525   6.770  12.920
 7290W        W79605  24.163  25.253  12.999
 7291W        W79606  13.169  42.981   0.558
 7292W        W79607  14.230  14.854  11.904
 7293W        W79608  40.414  41.448   3.090
 7294W        W79609  25.048  40.775   0.493
 7295W        W79610  29.486  43.697   3.641
 7296W        W79611  19.722   3.944   2.328
 7297W        W79612  41.849  23.618  14.824
 7298W        W79613  17.210  12.761   2.332
 7299W        W79614   8.826  35.818   0.336
 7300W        W79615  22.607  11.896   5.041
 7301W        W79616  27.064  23.916   2.985
 7302W        W79617  40.468  32.101  14.962
 7303W        W79618  21.570  20.672  12.385
 7304W        W79619  15.311  40.685   4.521
 7305W        W79620  39.023   6.140   0.854
 7306W        W79621  44.285   0.206  12.121
 7307W        W79622  20.703  39.693  12.385
 7308W        W79623   0.268  16.504   3.637
 7309W        W79624   6.405   9.143  11.131
 7310W        W79625   9.795  11.539   1.389
 7311W        W79626  39.667  43.418   4.039
 7312W        W79627  17.510  41.260   1.070
 7313W        W79628  27.081  25.255   4.861
 7314W        W79629  41.102   8.689   0.028
 7315W        W79630  15.798  26.036  12.532
 7316W        W79631   3.724  27.884  13.369
 7317W        W79632   0.317   1.561   3.267
 7318W        W79633  41.688  25.702   0.605
 7319W        W79634  23.055  11.699   0.367
 7320W        W79635  33.093  36.973  12.834
 7321W        W79636   3.461  30.525   3.639
 7322W        W79637  20.750  36.428   0.393
 7323W        W79638  44.260   7.398   4.537
 7324W        W79639  24.496  40.072   2.873
 7325W        W79640  20.713  34.175   4.527
 7326W        W79641  17.436  23.188  11.671
 7327W        W79642   5.989   1.778   2.275
 7328W        W79643  21.499   0.508   2.351
 7329W        W79644   0.333  22.774   2.093
 7330W        W79645  16.268  14.641  11.120
 7331W        W79646  42.785   8.464   2.606
 7332W        W79647  36.121  34.638   0.835
 7333W        W79648  33.846  33.263  10.603
 7334W        W79649   0.238  27.831   2.191
 7335W        W79650   7.294  13.954  11.576
 7336W        W79651  43.507  31.945   2.047
 7337W        W79652   1.727  12.850   3.118
 7338W        W79653  25.283   1.290  13.333
 7339W        W79654   6.354  15.283  12.757
 7340W        W79655  23.753  22.516  12.745
 7341W        W79656  39.598  44.338  11.014
 7342W        W79657  41.599  21.035  11.128
 7343W        W79658  24.662  29.651   2.673
 7344W        W79659  27.237  17.977   0.859
 7345W        W79660  10.411   0.909   4.617
 7346W        W79661  23.207  34.210   4.094
 7347W        W79662  16.052  18.398  11.119
 7348W        W79663  12.842  31.455  11.451
 7349W        W79664  24.449  28.210  14.351
 7350W        W79665  19.606  38.061  14.475
 7351W        W79666  30.898  18.137  11.103
 7352W        W79667  20.981  26.011   0.010
 7353W        W79668  30.539  28.003   1.812
 7354W        W79669  12.078  31.332  14.848
 7355W        W79670   8.168  16.522  11.428
 7356W        W79671   2.790   9.435   3.839
 7357W        W79672  36.129   5.116  14.246
 7358W        W79673  31.018  17.170   0.343
 7359W        W79674  31.015  23.192  12.833
 7360W        W79675   2.429  20.654   2.730
 7361W        W79676   8.451  23.135  14.584
 7362W        W79677  23.480  31.538   1.682
 7363W        W79678  28.992  34.251  12.326
 7364W        W79679   6.100   1.413  12.983
 7365W        W79680  23.731  28.932   1.680
 7366W        W79681  32.377  31.735   0.465
 7367W        W79682  39.930  30.345   4.163
 7368W        W79683   5.335  23.593   0.906
 7369W        W79684  42.296  26.485   1.623
 7370W        W79685   8.106  28.079   3.002
 7371W        W79686  41.217  29.779   2.743
 7372W        W79687  28.171  16.290   2.744
 7373W        W79688   3.626  21.589   0.416
 7374W        W79689  10.833  21.838  14.682
 7375W        W79690   9.388  37.818  11.906
 7376W        W79691  28.572  37.977   4.292
 7377W        W79692   1.516   9.331  13.154
 7378W        W79693  25.991  12.572  11.227
 7379W        W79694  21.746  10.132   1.250
 7380W        W79695  34.643  43.376   1.732
 7381W        W79696  44.222   9.867   5.462
 7382W        W79697  22.494  23.013   1.917
 7383W        W79698  32.867  21.959   1.238
 7384W        W79699  30.523   2.241  10.670
 7385W        W79700  10.153  43.935  14.850
 7386W        W79701  40.790  38.023   1.509
 7387W        W79702  28.662  14.048  12.434
 7388W        W79703   5.929   2.576  10.879
 7389W        W79704  19.059  41.287  14.046
 7390W        W79705  20.824  25.211   4.021
 7391W        W79706  32.285  26.369  12.902
 7392W        W79707   7.410  16.123  11.473
 7393W        W79708  10.457  38.474   2.198
 7394W        W79709  30.588   4.831  13.961
 7395W        W79710  20.960   1.933  12.507
 7396W        W79711   5.857  23.873  11.889
 7397W        W79712  16.794  16.730  14.047
 7398W        W79713   8.693  18.287   4.563
 7399W        W79714  16.304  42.155  12.909
 7400W        W79715   4.333  40.257   2.486
 7401W        W79716  37.558   9.387   0.909
 7402W        W79717  38.940   5.768   1.845
 7403W        W79718   2.314   2.253  10.382
 7404W        W79719  17.650  38.938   1.137
 7405W        W79720  20.844  20.838   0.786
 7406W        W79721   0.880  29.457  11.111
 7407W        W79722  14.894  12.737   4.465
 7408W        W79723  42.580  43.288   2.275
 7409W        W79724  14.063  19.563  10.956
 7410W        W79725  13.834  31.586  11.163
 7411W        W79726  27.174  42.788   4.567
 7412W        W79727   1.062   2.221   1.669
 7413W        W79728  39.915  36.879  10.935
 7414W        W79729  24.904  32.833   0.211
 7415W        W79730   4.677   7.246   1.702
 7416W        W79731  32.155   2.495  12.410
 7417W        W79732  43.641  13.762   0.047
 7418W        W79733  17.348  44.949   3.891
 7419W        W79734  22.256  40.898   3.264
 7420W        W79735  30.416  18.608   3.270
 7421W        W79736  28.266  19.694  14.408
 7422W        W79737  36.400  19.979   0.438
 7423W        W79738  15.578  24.846   0.598
 7424W        W79739  26.700  42.988  10.638
 7425W        W79740  25.131   2.654   1.603
 7426W        W79741  15.641  40.914   1.907
 7427W        W79742  14.707  13.049  10.973
 7428W        W79743  40.380   8.172  14.897
 7429W        W79744  26.731  23.649   3.282
 7430W        W79745   1.274  11.303   0.859
 7431W        W79746  10.793  40.871  11.954
 7432W        W79747  14.799  43.391  12.392
 7433W        W79748  44.933   2.455   2.728
 7434W        W79749   5.842  39.608   1.296
 7435W        W79750   9.174  12.116   0.301
 7436W        W79751  10.821  34.740  11.909
 7437W        W79752  14.675  24.232   0.307
 7438W        W79753   1.291  42.110  12.129
 7439W        W79754  19.706  38.964   2.148
 7440W        W79755  13.901  34.928  11.008
 7441W        W79756  18.373  25.524   1.401
 7442W        W79757   9.359   6.899  11.251
 7443W        W79758  22.197  44.894  10.925
 7444W        W79759  27.727  32.079   2.827
 7445W        W79760  13.137  38.429   0.593
 7446W        W79761  37.339  19.480  13.466
 7447W        W79762  41.097  24.923   1.310
 7448W        W79763  14.460  44.365   4.855
 7449W        W79764   8.863  36.637  13.599
 7450W        W79765  28.595  21.746   1.298
 7451W        W79766   6.776   4.951  10.766
 7452W        W79767  18.737   8.205  13.747
 7453W        W79768  17.120   1.373  13.498
 7454W        W79769  20.561  15.025  12.244
 7455W        W79770  18.549  34.452   4.953
 7456W        W79771  16.777  37.489   3.214
 7457W        W79772  42.052  27.943  11.027
 7458W        W79773  37.010  42.426   3.599
 7459W        W79774  38.088   4.042  12.713
 7460W        W79775  32.465  37.124   4.072
 7461W        W79776  20.676   3.375  11.967
 7462W        W79777  21.923  23.426  11.625
 7463W        W79778   9.072  20.169   4.922
 7464W        W79779  21.019  32.451   4.328
 7465W        W79780  21.123  22.210   0.265
 7466W        W79781  17.080  44.331  14.258
 7467W        W79782  20.655  25.486  10.621
 7468W        W79783  18.547  38.622   5.430
 7469W        W79784  41.511  27.601   2.298
 7470W        W79785  30.922  38.263   3.772
 7471W        W79786  14.599  42.466   3.054
 7472W        W79787   1.343   4.690  14.675
 7473W        W79788  21.011   0.378   3.180
 7474W        W79789  15.176  43.702   4.482
 7475W        W79790  28.220   8.421  13.387
 7476W        W79791  11.909   0.090   4.161
 7477W        W79792   1.146  35.308   5.001
 7478W        W79793   8.109  26.609  14.117
 7479W        W79794  39.474   3.987   0.830
 7480W        W79795   6.969  38.393  10.694
 7481W        W79796  33.313  42.378  13.376
 7482W        W79797  35.528  11.417  13.966
 7483W        W79798  43.487   2.454   3.291
 7484W        W79799  38.061  18.075   0.238
 7485W        W79800  14.692  31.913   5.070
 7486W        W79801  23.956  35.475  12.910
 7487W        W79802  24.167  22.618   5.102
 7488W        W79803  19.971  36.852  14.203
 7489W        W79804  40.122  21.136   0.448
 7490W        W79805  37.029  22.157   1.390
 7491W        W79806   9.410  19.845   1.927
 7492W        W79807   8.110  31.547  10.658
 7493W        W79808  24.369  22.073   3.799
 7494W        W79809  20.799  38.395   3.298
 7495W        W79810  19.793  20.736  14.881
 7496W        W79811  19.245  37.379   1.683
 7497W        W79812   9.862  10.915   0.021
 7498W        W79813  18.732  26.511   4.959
 7499W        W79814  44.755  32.923  12.000
 7500W        W79815  41.229  19.928   1.215
 7501W        W79816  20.753  33.411  11.971
 7502W        W79817  15.813  28.810   0.513
 7503W        W79818  22.143  22.695   2.368
 7504W        W79819  38.291   1.434  12.028
 7505W        W79820  26.069   4.217   0.183
 7506W        W79821  11.438  27.927  14.711
 7507W        W79822  16.527  41.285   5.011
 7508W        W79823   4.256  17.199   3.145
 7509W        W79824  41.568   2.914   4.626
 7510W        W79825   1.912  43.758   3.861
 7511W        W79826  26.404  12.171  11.953
 7512W        W79827  28.413   2.508   4.663
 7513W        W79828  20.006   9.399   3.689
 7514W        W79829   9.165  43.764   3.304
 7515W        W79830  25.615  36.800  12.598
 7516W        W79831  32.040  24.596   3.670
 7517W        W79832  38.694   7.203   3.422
 7518W        W79833  39.070  34.289  12.861
 7519W        W79834   1.398   0.991   4.618
 7520W        W79835  21.707  25.801  12.021
 7521W        W79836   3.023  16.566  11.772
 7522W        W79837  10.375  13.905   0.412
 7523W        W79838  15.600  23.419   0.906
 7524W        W79839  11.245  34.951   3.590
 7525W        W79840  41.359  15.671   0.017
 7526W        W79841  44.512   1.724   1.657
 7527W        W79842   8.845  12.370  12.456
 7528W        W79843  41.944  38.335  10.771
 7529W        W79844  20.136  32.588  11.961
 7530W        W79845  44.789  20.800  10.873
 7531W        W79846  16.846  19.292   4.167
 7532W        W79847  43.294  12.203  13.297
 7533W        W79848  20.576  36.505  13.522
 7534W        W79849  12.800   5.735  11.406
 7535W        W79850   5.967  20.613   2.764
 7536W        W79851  32.431   0.360   1.754
 7537W        W79852  42.855  18.946   2.952
 7538W        W79853   5.888   7.187  14.821
 7539W        W79854   1.166  28.966  14.518
 7540W        W79855  42.428  13.057  14.869
 7541W        W79856  34.558  28.894   1.473
 7542W        W79857   3.494  20.068  11.599
 7543W        W79858  36.410   5.823   4.245
 7544W        W79859  17.265  11.716   1.705
 7545W        W79860   2.670   4.592  14.487
 7546W        W79861  33.521  18.107   1.469
 7547W        W79862  27.394  35.157  12.046
 7548W        W79863  28.118  31.385  12.865
 7549W        W79864  23.872  29.867   2.193
 7550W        W79865   2.699  12.227  12.572
 7551W        W79866  12.199  32.027  13.353
 7552W        W79867  43.059  22.941  13.848
 7553W        W79868  21.633  37.812   3.333
 7554W        W79869  19.521  16.764  10.627
 7555W        W79870  25.569  26.214   2.738
 7556W        W79871   3.139  42.595   2.232
 7557W        W79872   9.356  15.300  11.916
 7558W        W79873  27.289  44.451  12.195
 7559W        W79874  25.531   1.936   2.595
 7560W        W79875   3.751   2.154  11.955
 7561W        W79876  24.011  33.459  12.434
 7562W        W79877  34.949  41.987  11.012
 7563W        W79878  12.643  39.998   4.895
 7564W        W79879  25.323  39.357  11.424
 7565W        W79880  11.058  40.340  12.061
 7566W        W79881  43.887  21.189   4.666
 7567W        W79882   5.373  26.150   2.159
 7568W        W79883  29.463  38.958  14.818
 7569W        W79884  16.340  21.628   3.583
 7570W        W79885  16.835   5.223   3.667
 7571W        W79886  30.231  10.071  14.379
 7572W        W79887   8.152  32.462   2.109
 7573W        W79888  44.387  38.738  13.101
 7574W        W79889  36.840  24.650   3.055
 7575W        W79890   8.815  32.530   3.652
 7576W        W79891  42.852  40.371  14.924
 7577W        W79892   3.622   7.269   1.898
 7578W        W79893   8.685  16.176  10.331
 7579W        W79894  27.074  20.636   3.993
 7580W        W79895  13.059  36.640   0.972
 7581W        W79896  22.983  28.574   3.669
 7582W        W79897  39.241   2.869  14.080
 7583W        W79898  25.935   2.263  10.431
 7584W        W79899  16.023  13.114  11.224
 7585W        W79900  12.269  23.245   1.275
 7586W        W79901   3.375  37.288   1.224
 7587W        W79902  25.075  26.987   4.708
 7588W        W79903  12.562  39.493   2.467
 7589W        W79904   2.359  14.369  13.928
 7590W        W79905   2.588  26.885   5.081
 7591W        W79906  22.145  42.053   4.188
 7592W        W79907  32.988  38.264   1.687
 7593W        W79908  14.112  42.565   3.294
 7594W        W79909  34.848  37.661  11.485
 7595W        W79910  16.594  39.262   2.709
 7596W        W79911   0.887  27.720  12.438
 7597W        W79912   8.882  11.246   2.812
 7598W        W79913  27.214  26.661   3.290
 7599W        W79914  33.456  23.771  11.585
 7600W        W79915  41.770  42.859  13.411
 7601W        W79916  34.959  33.197  12.272
 7602W        W79917  35.332   3.289  13.277
 7603W        W79918  33.765   7.135  11.521
 7604W        W79919  15.089  29.666  12.981
 7605W        W79920  44.987  43.336  14.486
 7606W        W79921  15.587  18.355  11.961
 7607W        W79922  27.403  34.547   0.746
 7608W        W79923  12.075  23.629   3.575
 7609W        W79924  20.340  13.747  11.525
 7610W        W79925  28.218  37.581  12.027
 7611W        W79926  18.631  30.931   5.045
 7612W        W79927  31.122  39.886  13.404
 7613W        W79928  19.622   9.455  12.412
 7614W        W79929  12.729   5.841   1.313
 7615W        W79930  42.420   7.832  14.175
 7616W        W79931  13.089   6.147  13.959
 7617W        W79932  14.778  27.126  13.958
 7618W        W79933  22.052  36.546   1.803
 7619W        W79934  19.347   2.160   2.215
 7620W        W79935  38.031  26.208   1.388
 7621W        W79936  18.563  43.289   4.220
 7622W        W79937  23.028  32.624   2.246
 7623W        W79938  43.865  15.866   4.037
 7624W        W79939  23.232  32.984   4.706
 7625W        W79940  30.374   1.032  11.171
 7626W        W79941  10.750  25.318   4.553
 7627W        W79942  38.890  32.734   3.643
 7628W        W79943   6.676  26.018  11.442
 7629W        W79944  26.670   0.003   4.780
 7630W        W79945  40.148   7.249   2.358
 7631W        W79946  24.260  15.723   3.623
 7632W        W79947  36.138   2.280   2.540
 7633W        W79948  10.822  41.694  10.465
 7634W        W79949  16.201  39.977  12.462
 7635W        W79950  17.080   8.727   4.297
 7636W        W79951   0.069  26.909   2.254
 7637W        W79952  28.018   3.878   0.481
 7638W        W79953  37.529  27.131  11.978
 7639W        W79954  41.954  41.585   4.617
 7640W        W79955  12.109   5.558  13.350
 7641W        W79956  10.399  18.663  10.280
 7642W        W79957  12.452  32.238  11.949
 7643W        W79958  21.342  24.081  13.104
 7644W        W79959  41.788  35.496   4.028
 7645W        W79960  30.268  34.993  10.615
 7646W        W79961   7.444  36.580   1.340
 7647W        W79962   5.241  25.076   0.994
 7648W        W79963  30.124  15.228  14.383
 7649W        W79964  21.399  21.620   3.233
 7650W        W79965  32.841   2.885   1.783
 7651W        W79966   9.429  18.251  14.782
 7652W        W79967   9.584  35.447   4.056
 7653W        W79968  31.637  11.829   3.150
 7654W        W79969  32.207  31.990  12.964
 7655W        W79970   5.197  14.322  14.340
 7656W        W79971  28.740  12.278  14.190
 7657W        W79972  32.660  27.975   0.873
 7658W        W79973  23.001  20.728   0.741
 7659W        W79974   9.695  10.822   4.054
 7660W        W79975  32.938  21.832   3.897
 7661W        W79976   8.355   6.885   4.142
 7662W        W79977  31.680  28.500   3.231
 7663W        W79978  22.606  32.645  12.858
 7664W        W79979  22.457  36.039   3.137
 7665W        W79980  41.005  16.325   0.536
 7666W        W79981  18.429   8.826   3.689
 7667W        W79982  42.961  26.521  14.442
 7668W        W79983  14.888   8.348  12.907
 7669W        W79984  12.874  43.779   3.753
 7670W        W79985   5.180  16.566   2.397
 7671W        W79986  43.709   0.906   0.650
 7672W        W79987  36.769   7.716   3.542
 7673W        W79988  17.625   5.773   0.981
 7674W        W79989  12.153   0.126  11.129
 7675W        W79990  24.490  29.304  13.916
 7676W        W79991  39.750  34.564  11.376
 7677W        W79992  42.459  37.993   4.773
 7678W        W79993  36.601  38.472  12.052
 7679W        W79994  25.694   0.683   3.321
 7680W        W79995  42.893  23.615  12.020
 7681W        W79996  16.284  42.953   3.895
 7682W        W79997  32.502  17.315  11.182
 7683W        W79998  33.090   4.867  14.207
 7684W        W79999   0.890  39.551  13.031
 7685W        W80000   7.204  31.416  10.661
 7686W        W80001  24.266  17.140  13.853
 7687W        W80002  40.079   4.649   4.325
 7688W        W80003  31.634   4.547  11.156
 7689W        W80004  25.027  17.587   3.247
 7690W        W80005  29.912   6.219  12.914
 7691W        W80006  30.504  23.940  10.456
 7692W        W80007   2.524  28.473  12.998
 7693W        W80008   0.499  42.417  13.164
 7694W        W80009   2.336   5.747   2.237
 7695W        W80010  19.567  21.465  11.636
 7696W        W80011  29.489  44.666   0.001
 7697W        W80012  42.480   1.846  12.449
 7698W        W80013  22.834  16.326   0.580
 7699W        W80014  33.183  18.294  12.894
 7700W        W80015  32.709  38.344  14.924
 7701W        W80016  18.571  42.982   0.181
 7702W        W80017   4.271   1.774  12.889
 7703W        W80018  34.643  31.693   3.262
 7704W        W80019  16.510  36.393   0.384
 7705W        W80020  17.053   0.350   2.775
 7706W        W80021  11.016  41.574  11.554
 7707W        W80022   6.593  44.074  14.733
 7708W        W80023   2.559  32.530   0.737
 7709W        W80024  26.479  23.604   4.217
 7710W        W80025  13.326   4.621   0.033
 7711W        W80026  24.144   4.439   0.433
 7712W        W80027  43.975  35.006   4.536
 7713W        W80028  25.362  27.231  13.851
 7714W        W80029   7.907  16.046   4.678
 7715W        W80030  35.497  20.062   3.657
 7716W        W80031  34.089   3.479  11.158
 7717W        W80032   2.313  43.198   2.763
 7718W        W80033  44.181  24.839  11.915
 7719W        W80034  24.984  30.375   4.145
 7720W        W80035  32.112  21.079   3.587
 7721W        W80036  17.542  37.352  14.298
 7722W        W80037  43.340  32.396   2.237
 7723W        W80038  18.324  39.346  11.582
 7724W        W80039  12.056  11.855   3.791
 7725W        W80040  36.813   8.976  12.167
 7726W        W80041  21.704  33.035  12.836
 7727W        W80042  17.872   8.137  11.150
 7728W        W80043  26.106   8.433  10.769
 7729W        W80044  23.835   1.921  12.382
 7730W        W80045  26.480   1.956   4.437
 7731W        W80046  32.584  43.584   2.701
 7732W        W80047  29.947  26.107   2.806
 7733W        W80048  20.664  36.904  10.601
 7734W        W80049  44.105   3.666   0.459
 7735W        W80050  12.657   4.246  14.461
 7736W        W80051  29.529   3.603   1.254
 7737W        W80052  38.761   9.786   1.723
 7738W        W80053  41.838  25.730  11.178
 7739W        W80054  20.732  30.168   3.110
 7740W        W80055  43.450  21.271  13.307
 7741W        W80056   6.629  40.027  13.479
 7742W        W80057   1.367  17.019  11.112
 7743W        W80058  40.287  21.508   4.921
 7744W        W80059  33.497  25.248   0.816
 7745W        W80060   4.453  25.009   0.910
 7746W        W80061   1.720  36.392  11.846
 7747W        W80062  30.104  21.047   4.704
 7748W        W80063   3.911  41.958   3.658
 7749W        W80064  15.789  24.782   4.317
 7750W        W80065  13.368  14.060   2.714
 7751W        W80066  15.961  23.847   3.697
 7752W        W80067  33.577  26.994  10.630
 7753W        W80068  19.666  37.835   2.750
 7754W        W80069  27.341  37.385   1.032
 7755W        W80070  24.195  43.427   2.210
 7756W        W80071  37.943  15.020  12.182
 7757W        W80072  31.541  24.522  12.014
 7758W        W80073  19.165  13.594  12.796
 7759W        W80074  22.173  42.735   0.326
 7760W        W80075  11.880   5.242   3.281
 7761W        W80076  26.243  10.455  12.077
 7762W        W80077  17.791  26.871   0.430
 7763W        W80078  15.238  41.262   3.833
 7764W        W80079  35.914  21.775  13.430
 7765W        W80080  16.732  37.482   0.195
 7766W        W80081   2.780  44.488  14.899
 7767W        W80082  19.980  12.817  10.728
 7768W        W80083  11.603   6.899   1.318
 7769W        W80084  34.638  12.206  13.965
 7770W        W80085  44.689  12.427  14.517
 7771W        W80086  12.420  21.174   4.824
 7772W        W80087  26.013  44.044  11.775
 7773W        W80088  42.965   7.377  12.578
 7774W        W80089  21.687  26.659  13.066
 7775W        W80090  12.721  31.491  12.464
 7776W        W80091  16.290  13.929   3.725
 7777W        W80092   4.358  36.168   2.095
 7778W        W80093  26.964  25.583   3.592
 7779W        W80094   8.949  12.852  12.655
 7780W        W80095  37.436   3.037  11.816
 7781W        W80096  23.137  35.445  14.574
 7782W        W80097  34.863  30.369   0.960
 7783W        W80098  44.799  25.161   5.114
 7784W        W80099   4.291  39.716   3.249
 7785W        W80100  12.925  16.122  13.046
 7786W        W80101  31.201  22.455   1.720
 7787W        W80102  39.039  36.877   4.105
 7788W        W80103  33.461  39.335  11.076
 7789W        W80104   3.364  32.935  13.287
 7790W        W80105  29.393  40.496  10.726
 7791W        W80106   8.925   6.930   1.242
 7792W        W80107  31.005  25.508  12.139
 7793W        W80108  36.051  29.682  13.327
 7794W        W80109  13.241  39.828   2.819
 7795W        W80110  43.348  37.820   2.591
 7796W        W80111  24.128   6.289   1.580
 7797W        W80112   9.186  38.922   3.151
 7798W        W80113  38.542  20.355  14.914
 7799W        W80114   7.665  17.624   1.380
 7800W        W80115  11.383  41.848  13.119
 7801W        W80116  22.455  14.762   4.227
 7802W        W80117  27.015  36.427   2.118
 7803W        W80118  11.411   8.860   0.363
 7804W        W80119  44.585   2.551  10.173
 7805W        W80120   6.650  34.425  14.015
 7806W        W80121   7.233  32.627   1.121
 7807W        W80122  17.681  34.756   2.653
 7808W        W80123  37.074  25.138   5.601
 7809W        W80124  42.382  20.478   1.734
 7810W        W80125  44.384  22.017   0.365
 7811W        W80126  12.178  41.268  10.846
 7812W        W80127  20.944   4.471  13.477
 7813W        W80128  20.682   6.272  11.393
 7814W        W80129  25.636   1.602   0.435
 7815W        W80130   0.455   5.974   3.290
 7816W        W80131  16.863  20.954   0.748
 7817W        W80132  25.143   1.427  12.453
 7818W        W80133   6.656  36.514  10.965
 7819W        W80134   8.117  33.003  14.643
 7820W        W80135  44.328  19.584  10.058
 7821W        W80136   7.215   5.189  10.608
 7822W        W80137  37.848  30.236   4.220
 7823W        W80138  15.656  40.397   2.803
 7824W        W80139  18.166  16.812   4.869
 7825W        W80140   2.729  34.067   3.190
 7826W        W80141   5.937   4.721  14.759
 7827W        W80142  23.969  14.826   3.324
 7828W        W80143  29.385  22.712  13.377
 7829W        W80144  21.188   1.365  11.912
 7830W        W80145   6.220  41.911  14.945
 7831W        W80146  28.074  31.603   3.139
 7832W        W80147  44.349  19.053  10.935
 7833W        W80148  13.699  24.117  12.545
 7834W        W80149  31.864  26.682  12.834
 7835W        W80150  26.743  28.098   5.123
 7836W        W80151  42.083   9.436  13.513
 7837W        W80152  13.245  12.371  10.617
 7838W        W80153  42.538   4.699  13.801
 7839W        W80154   6.326  20.679  12.442
 7840W        W80155  36.513  38.326   1.795
 7841W        W80156  21.257  23.618   1.345
 7842W        W80157  43.968  39.026   1.905
 7843W        W80158  43.389  37.889  12.607
 7844W        W80159  22.483  38.776   0.835
 7845W        W80160  36.764  20.271   0.951
 7846W        W80161  23.766  18.785   4.241
 7847W        W80162  18.199  31.058   5.506
 7848W        W80163  14.184  17.826   3.989
 7849W        W80164  29.198   3.349   4.543
 7850W        W80165  39.622   5.786   2.176
 7851W        W80166   1.003  35.948   2.208
 7852W        W80167  13.152   8.853   0.980
 7853W        W80168  23.505  17.064  11.519
 7854W        W80169   1.518   5.197  14.934
 7855W        W80170  40.459  24.268   4.995
 7856W        W80171  19.766   2.393  13.376
 7857W        W80172  40.284  44.230  10.258
 7858W        W80173  24.028   8.879   4.017
 7859W        W80174  35.041   2.004   1.564
 7860W        W80175  35.032  39.927  12.608
 7861W        W80176  27.202   5.341   0.980
 7862W        W80177  44.886  26.005  12.132
 7863W        W80178  14.812  31.989   1.841
 7864W        W80179  33.491  14.238  12.842
 7865W        W80180   6.483  43.782  12.640
 7866W        W80181  38.832   4.851  13.966
 7867W        W80182  28.374  40.029  10.768
 7868W        W80183   9.125   4.334  11.375
 7869W        W80184  12.588   0.793   0.270
 7870W        W80185  24.692   4.799   3.793
 7871W        W80186  23.051  39.630   4.583
 7872W        W80187  24.528  23.782  12.448
 7873W        W80188  32.774   8.586  14.756
 7874W        W80189  44.873   9.485  11.932
 7875W        W80190  22.781  43.856   3.155
 7876W        W80191  34.050  17.873   0.504
 7877W        W80192  41.170  32.490   0.290
 7878W        W80193  14.297  43.230  12.394
 7879W        W80194  38.891  25.245   0.894
 7880W        W80195  14.049   1.201  14.309
 7881W        W80196  31.313  25.218   5.023
 7882W        W80197   0.462  41.820  12.380
 7883W        W80198   0.262  12.240  11.155
 7884W        W80199  17.767  20.793  13.978
 7885W        W80200  30.328  27.655  14.771
 7886W        W80201  42.294  18.473   3.732
 7887W        W80202  39.494  21.580  14.549
 7888W        W80203  24.799  30.913  12.870
 7889W        W80204  36.481  17.201   0.133
 7890W        W80205  37.588  30.673   3.946
 7891W        W80206  13.085   4.723   4.080
 7892W        W80207   4.200   1.405   3.293
 7893W        W80208  36.355  36.122   2.553
 7894W        W80209  41.512   7.700  12.014
 7895W        W80210   2.902  43.820   4.687
 7896W        W80211   4.708  15.654   3.368
 7897W        W80212  29.545  32.544  13.431
 7898W        W80213   1.333  43.276   2.435
 7899W        W80214  44.502  12.722   1.289
 7900W        W80215   7.159  30.014  13.329
 7901W        W80216  18.242  12.000   3.746
 7902W        W80217  36.913  25.452   2.367
 7903W        W80218  13.216  41.897   4.908
 7904W        W80219   0.374  18.910  11.382
 7905W        W80220  22.672  33.921  13.267
 7906W        W80221  44.503  44.812  13.908
 7907W        W80222  15.450  17.806  14.800
 7908W        W80223  42.468  28.069   4.608
 7909W        W80224   0.314  17.670  12.621
 7910W        W80225   7.413  35.406   3.804
 7911W        W80226  27.952  42.013   0.499
 7912W        W80227  10.059  29.667  11.627
 7913W        W80228   7.499  37.454   3.624
 7914W        W80229  14.364   1.848  12.761
 7915W        W80230  11.821  44.552  13.618
 7916W        W80231  37.882  32.527  13.099
 7917W        W80232  21.406  12.757   4.957
 7918W        W80233  37.393  22.171   0.033
 7919W        W80234  35.060   5.335  12.323
 7920W        W80235  21.615  22.462   2.631
 7921W        W80236  27.665  27.444   3.825
 7922W        W80237  12.520  30.346  14.191
 7923W        W80238  37.278   3.451  12.543
 7924W        W80239  22.921  10.117   1.729
 7925W        W80240   6.311  26.398   0.981
 7926W        W80241  29.883  43.095  13.448
 7927W        W80242   4.221   7.730  11.639
 7928W        W80243  41.005  41.535   4.857
 7929W        W80244  37.836  32.563   1.869
 7930W        W80245  33.669  20.525  12.195
 7931W        W80246  32.403  27.563  13.895
 7932W        W80247  11.590  31.008   2.287
 7933W        W80248   2.169  16.408   0.877
 7934W        W80249   0.885   4.709  12.057
 7935W        W80250  36.087  40.911   2.200
 7936W        W80251  30.090  19.760  13.699
 7937W        W80252   6.288  43.082  10.769
 7938W        W80253  27.880   8.219   1.853
 7939W        W80254  38.663  12.288   2.771
 7940W        W80255  20.499   5.028  11.480
 7941W        W80256  39.798   6.422  13.564
 7942W        W80257   0.922  30.701  10.624
 7943W        W80258   8.032  13.236  13.260
 7944W        W80259   1.900  10.287  12.580
 7945W        W80260  40.143  22.051  14.895
 7946W        W80261  31.094  40.598  12.078
 7947W        W80262  11.693  13.712   4.906
 7948W        W80263   8.896  44.972   1.700
 7949W        W80264  18.064  33.053  13.588
 7950W        W80265  40.236  22.584  12.861
 7951W        W80266   9.751  32.377  14.959
 7952W        W80267  25.612  40.234  14.877
 7953W        W80268  17.072  36.374  14.473
 7954W        W80269  31.422  23.117   1.447
 7955W        W80270  14.560  19.551   0.378
 7956W        W80271  13.905  32.975   3.304
 7957W        W80272  44.735  12.567   1.753
 7958W        W80273  43.916  22.007   3.519
 7959W        W80274  37.763  39.274  14.534
 7960W        W80275  18.642  17.346   3.577
 7961W        W80276  24.592  10.803  12.838
 7962W        W80277  18.512  40.805   1.329
 7963W        W80278  27.713  44.402  11.927
 7964W        W80279  13.047   9.808   4.054
 7965W        W80280  29.061  30.017  13.386
 7966W        W80281   6.717  25.115   2.431
 7967W        W80282  43.067  15.657   1.377
 7968W        W80283  30.320  22.290  12.483
 7969W        W80284  19.105  42.953   2.044
 7970W        W80285  27.859  38.847   1.404
 7971W        W80286  33.639  44.996   2.185
 7972W        W80287   9.733  24.045   4.524
 7973W        W80288  43.792  15.848  13.486
 7974W        W80289   4.143  21.026  13.576
 7975W        W80290  43.464  42.709  13.833
 7976W        W80291  22.458  25.838   1.932
 7977W        W80292  38.852  24.446  14.577
 7978W        W80293  43.013   5.651  12.427
 7979W        W80294  19.514   2.733   1.714
 7980W        W80295  33.354  40.881   4.295
 7981W        W80296   4.764  24.842  14.973
 7982W        W80297  36.921  42.991  12.003
 7983W        W80298  37.337  35.527  12.866
 7984W        W80299  38.287  23.723   3.663
 7985W        W80300   3.091  23.196   0.410
 7986W        W80301  32.073   4.100  13.853
 7987W        W80302  33.386  25.492   2.209
 7988W        W80303  28.505  38.430   1.800
 7989W        W80304  44.263  33.096   2.427
 7990W        W80305   1.837  35.684  14.429
 7991W        W80306  12.874   4.709   0.994
 7992W        W80307   0.898  29.137   3.461
 7993W        W80308  32.999  19.493  10.755
 7994W        W80309  19.800  41.933  12.297
 7995W        W80310  18.560  20.780   1.225
 7996W        W80311  37.595  37.008  11.010
 7997W        W80312  11.935   1.411  11.417
 7998W        W80313  39.759  27.130  13.367
 7999W        W80314  28.843   8.283  12.696
 8000W        W80315   9.769  19.171  11.629
 8001W        W80316  20.979  38.985   4.494
 8002W        W80317   4.807   0.738   4.646
 8003W        W80318  20.490  35.480  11.953
 8004W        W80319   4.282  20.062  14.009
 8005W        W80320  13.186  40.797  13.047
 8006W        W80321  43.214  21.280  12.393
 8007W        W80322  44.588  19.405   5.010
 8008W        W80323   6.614  14.865   4.616
 8009W        W80324   5.391  11.654  12.935
 8010W        W80325  22.498   5.478  10.550
 8011W        W80326  17.665  38.589   3.487
 8012W        W80327  44.424  14.608  14.777
 8013W        W80328  10.360  27.531   2.940
 8014W        W80329   8.144  26.506  12.815
 8015W        W80330  14.688  11.132  13.447
 8016W        W80331   1.537  10.736   4.125
 8017W        W80332  17.770  16.351   3.239
 8018W        W80333  17.154   0.389   0.213
 8019W        W80334   8.509  42.529  14.167
 8020W        W80335  29.765  11.303   0.879
 8021W        W80336  21.702  39.507   4.166
 8022W        W80337   6.478   0.588  13.919
 8023W        W80338   6.294   2.592  13.882
 8024W        W80339  23.029  40.883  14.601
 8025W        W80340  38.157  30.222  12.095
 8026W        W80341  22.795   4.347  14.402
 8027W        W80342  41.471  41.281  11.515
 8028W        W80343  44.152  16.726  12.562
 8029W        W80344  33.523  29.513   2.781
 8030W        W80345  40.494  36.941   1.429
 8031W        W80346  24.660   1.137  14.312
 8032W        W80347  25.195   4.518   9.983
 8033W        W80348  39.961  39.220   4.638
 8034W        W80349  39.086  35.257  12.641
 8035W        W80350  28.889  24.571  13.883
 8036W        W80351  44.709  33.529   1.333
 8037W        W80352  26.954   3.931   1.570
 8038W        W80353  13.755  22.676  11.130
 8039W        W80354  14.504  37.474   0.430
 8040W        W80355  30.649  28.677   1.751
 8041W        W80356   3.979  34.159  14.296
 8042W        W80357   8.081  43.334  12.077
 8043W        W80358  18.623  37.594  11.941
 8044W        W80359  31.255  33.080   4.093
 8045W        W80360  28.508   4.496   5.584
 8046W        W80361  11.857   5.952  11.785
 8047W        W80362  27.976  16.191   1.799
 8048W        W80363  16.872  37.934  10.602
 8049W        W80364  25.120   0.293  10.718
 8050W        W80365  20.546  29.697   0.839
 8051W        W80366   3.766   3.729  11.152
 8052W        W80367   8.137  33.217  14.164
 8053W        W80368  28.861   3.915  14.510
 8054W        W80369  13.033  21.975   3.518
 8055W        W80370   8.854  28.101  14.504
 8056W        W80371  22.729  34.766   3.332
 8057W        W80372   4.212  31.048   0.472
 8058W        W80373  44.414  29.653   1.888
 8059W        W80374  14.853   7.445  14.217
 8060W        W80375  35.497  27.742   4.443
 8061W        W80376  15.060  25.782   1.807
 8062W        W80377   9.730  25.751  11.663
 8063W        W80378  28.205   7.437   0.378
 8064W        W80379  35.541  36.138  12.719
 8065W        W80380  16.884  18.746   3.427
 8066W        W80381  22.485  34.082  10.419
 8067W        W80382   0.512  20.474  11.978
 8068W        W80383   6.828  15.025  14.081
 8069W        W80384  32.696  17.436   0.911
 8070W        W80385  15.609   1.755   9.680
 8071W        W80386  38.480  14.903  14.858
 8072W        W80387  11.065  43.064  13.037
 8073W        W80388   4.920  44.712   3.659
 8074W        W80389   7.138  42.404   4.611
 8075W        W80390  43.395  12.812  14.461
 8076W        W80391  32.541  30.569   2.254
 8077W        W80392  38.820  24.951   9.937
 8078W        W80393  23.186  24.951   1.643
 8079W        W80394  43.968  37.514   0.029
 8080W        W80395  27.471  32.026   2.336
 8081W        W80396  40.388   6.783   2.238
 8082W        W80397  38.061  32.372   1.416
 8083W        W80398  30.668   8.952  12.991
 8084W        W80399  12.363  25.692  11.193
 8085W        W80400  36.386  24.093  10.578
 8086W        W80401  14.609  30.194  11.981
 8087W        W80402  44.053  11.928   0.790
 8088W        W80403  12.581  23.294  10.657
 8089W        W80404  33.043  32.780   1.428
 8090W        W80405  44.265  43.916  10.702
 8091W        W80406  25.871  14.861   3.644
 8092W        W80407  39.005   6.663   0.775
 8093W        W80408   8.167  38.542   2.992
 8094W        W80409  35.977   7.826  14.708
 8095W        W80410  21.344  39.979   2.778
 8096W        W80411  20.644  18.807   4.426
 8097W        W80412  13.505  19.621   4.172
 8098W        W80413  33.417  23.040   4.264
 8099W        W80414  31.874  31.932   3.870
 8100W        W80415  22.027  18.248  14.750
 8101W        W80416   1.731  40.533   4.680
 8102W        W80417  18.113  19.164   2.126
 8103W        W80418   5.404   5.368   4.587
 8104W        W80419  38.547   4.411  13.527
 8105W        W80420  23.995  33.421   0.125
 8106W        W80421  40.181   1.058   1.892
 8107W        W80422  19.689  12.407   0.892
 8108W        W80423  21.011  19.261   2.464
 8109W        W80424   4.813  31.667  11.982
 8110W        W80425   6.758  33.449  14.433
 8111W        W80426  33.376  27.029   4.837
 8112W        W80427  33.002  13.289  11.614
 8113W        W80428   6.710  31.118   3.229
 8114W        W80429  37.611  21.098   2.267
 8115W        W80430  43.099  19.678   1.339
 8116W        W80431   5.998   1.510  10.792
 8117W        W80432  35.935  38.229  12.611
 8118W        W80433  34.825  13.768   0.718
 8119W        W80434  21.513  40.253   1.491
 8120W        W80435  18.817  23.699   4.717
 8121W        W80436   5.426  28.052   3.827
 8122W        W80437  26.614  20.502  13.527
 8123W        W80438  39.326  37.376   0.140
 8124W        W80439   8.652  17.988  14.388
 8125W        W80440   2.928  22.707   2.206
 8126W        W80441  38.010  16.961   1.603
 8127W        W80442  19.493   1.177   1.721
 8128W        W80443  14.312  34.108   1.905
 8129W        W80444   8.645  36.397  14.032
 8130W        W80445  33.981   4.878  14.496
 8131W        W80446  14.279   0.353  11.226
 8132W        W80447  32.483  17.875  12.476
 8133W        W80448  29.656   0.763  10.482
 8134W        W80449  35.374  30.509   0.915
 8135W        W80450   4.796  39.817   3.282
 8136W        W80451  31.617  15.173   2.729
 8137W        W80452  16.121  29.078   4.110
 8138W        W80453  31.430  42.989   1.795
 8139W        W80454  38.921  32.098  12.497
 8140W        W80455  28.532   6.827  13.822
 8141W        W80456  22.066  17.457   3.234
 8142W        W80457  31.147  22.647   4.450
 8143W        W80458  24.028  24.299   4.607
 8144W        W80459   4.150  44.547  14.846
 8145W        W80460  25.099  39.481  14.553
 8146W        W80461  43.266  29.602   0.234
 8147W        W80462  40.533  25.910   4.163
 8148W        W80463  16.655  44.033  14.227
 8149W        W80464  18.044  34.508   0.119
 8150W        W80465  22.749  29.127  11.208
 8151W        W80466  18.820  39.962   4.197
 8152W        W80467   6.815  26.419  11.736
 8153W        W80468  34.568  15.978   1.850
 8154W        W80469  39.837   8.824  14.288
 8155W        W80470  21.622   8.828   4.635
 8156W        W80471  21.121  39.571   1.385
 8157W        W80472  15.500  13.298  12.023
 8158W        W80473   3.242  41.812   3.740
 8159W        W80474  16.141   4.249   3.278
 8160W        W80475   8.085   7.909   2.878
 8161W        W80476  41.411   6.235  13.630
 8162W        W80477  10.822  36.193   1.944
 8163W        W80478  24.207   6.760   1.871
 8164W        W80479  11.272  31.355   4.539
 8165W        W80480  41.640  10.884  14.325
 8166W        W80481  21.444  14.103  13.138
 8167W        W80482  26.975  35.957   4.164
 8168W        W80483  21.955  11.781  12.041
 8169W        W80484  34.177  19.445   0.253
 8170W        W80485  14.983  26.394  13.452
 8171W        W80486  26.165   1.454  14.451
 8172W        W80487   4.649  13.130  11.199
 8173W        W80488  44.232   6.481   2.430
 8174W        W80489   6.913  10.631  14.415
 8175W        W80490  25.196  40.522  14.796
 8176W        W80491   7.269  27.053  12.367
 8177W        W80492  10.322   4.356  13.126
 8178W        W80493  32.978  41.731  11.544
 8179W        W80494   4.175  28.171   0.138
 8180W        W80495  41.993  35.840   4.563
 8181W        W80496  36.509  42.814   2.842
 8182W        W80497   8.700  44.359   0.856
 8183W        W80498  11.729  42.118  12.332
 8184W        W80499  13.846  23.717   3.776
 8185W        W80500  34.975   9.126  11.601
 8186W        W80501  28.409   2.703  13.371
 8187W        W80502  38.878  33.088   2.146
 8188W        W80503  39.323   7.881   0.561
 8189W        W80504  34.894  36.630  10.682
 8190W        W80505  17.659  20.288   4.842
 8191W        W80506  35.096   0.503  10.658
 8192W        W80507  16.820   3.010   3.526
 8193W        W80508  31.400   6.468   1.891
 8194W        W80509  24.944  42.935   4.313
 8195W        W80510  30.122  41.687   4.358
 8196W        W80511   9.169   5.693   2.675
 8197W        W80512  29.150  37.314  12.397
 8198W        W80513  37.543  34.354  13.391
 8199W        W80514  35.342  35.159  12.526
 8200W        W80515   2.726   7.694   2.744
 8201W        W80516   2.549   2.263   0.277
 8202W        W80517  24.485   2.275   1.863
 8203W        W80518  22.455  43.046   3.561
 8204W        W80519  43.409   5.699  11.205
 8205W        W80520  34.973  40.838  14.511
 8206W        W80521  44.557  40.209  11.112
 8207W        W80522   7.810   5.654   2.877
 8208W        W80523  12.691   9.494   1.329
 8209W        W80524  24.599  43.560   1.036
 8210W        W80525  25.934   3.738   0.226
 8211W        W80526  18.210  19.507  12.064
 8212W        W80527  31.491  37.852  14.908
 8213W        W80528  44.572  18.101  12.827
 8214W        W80529  36.852  25.490  12.609
 8215W        W80530   7.727  24.471  13.710
 8216W        W80531   0.449  23.585   3.278
 8217W        W80532  16.391  25.047  10.714
 8218W        W80533   6.706  41.085  11.984
 8219W        W80534  37.971   5.992   2.739
 8220W        W80535  21.518  21.220  10.636
 8221W        W80536   3.579   8.280  13.949
 8222W        W80537   4.890  11.895  14.313
 8223W        W80538  19.478  31.609   4.312
 8224W        W80539  31.562  27.542   3.873
 8225W        W80540  16.113  39.884   4.489
 8226W        W80541  20.156   2.977  13.108
 8227W        W80542  28.536  41.781  14.801
 8228W        W80543  14.397  34.528  11.934
 8229W        W80544  37.350   0.814   1.332
 8230W        W80545  24.217  20.824   4.061
 8231W        W80546  10.409  38.968   0.292
 8232W        W80547  35.407  11.223   3.150
 8233W        W80548  21.519  26.156  10.660
 8234W        W80549  23.260   5.446   2.868
 8235W        W80550  15.770   1.252  12.080
 8236W        W80551  14.322   8.747   2.840
 8237W        W80552  10.694  25.170   2.739
 8238W        W80553  34.937  18.837   3.167
 8239W        W80554  22.098  42.641  14.267
 8240W        W80555  34.351  39.561  14.958
 8241W        W80556   9.117   5.265  11.481
 8242W        W80557  25.099  32.875  13.798
 8243W        W80558  16.466  22.218  14.950
 8244W        W80559  13.586  43.310   4.205
 8245W        W80560  24.581  27.953   2.338
 8246W        W80561  30.035  26.923   1.438
 8247W        W80562  37.725   6.043   1.157
 8248W        W80563   0.313  17.934   0.533
 8249W        W80564  26.048  41.939  13.356
 8250W        W80565  17.328  33.433  14.611
 8251W        W80566  20.967  43.048  11.331
 8252W        W80567  44.820  18.142   0.449
 8253W        W80568   1.288  16.587   1.388
 8254W        W80569   3.202   0.690   0.696
 8255W        W80570   1.546  11.082   4.544
 8256W        W80571  21.476  35.427   4.083
 8257W        W80572  27.108  38.714   4.762
 8258W        W80573   1.680  28.264  14.703
 8259W        W80574   1.938  19.948   0.602
 8260W        W80575   4.298  31.648  11.223
 8261W        W80576   7.721  16.879   0.844
 8262W        W80577  33.168   4.872   4.187
 8263W        W80578  10.920  29.965  12.233
 8264W        W80579   5.716   5.965   2.242
 8265W        W80580   3.906  32.379   3.742
 8266W        W80581  41.614  30.391   2.366
 8267W        W80582   4.285   1.958   4.830
 8268W        W80583   8.425  34.694  11.668
 8269W        W80584  10.556  42.159   3.179
 8270W        W80585  32.961   4.960   1.887
 8271W        W80586   9.778  44.014   3.474
 8272W        W80587  14.596  14.826  14.761
 8273W        W80588  15.226  24.463  13.456
 8274W        W80589  31.441  39.865   4.221
 8275W        W80590  13.603   5.208   4.643
 8276W        W80591  21.247  24.150   3.588
 8277W        W80592   2.437  15.159  10.507
 8278W        W80593  21.091  44.570   0.075
 8279W        W80594  23.786  24.899  12.999
 8280W        W80595  27.501   6.010  12.235
 8281W        W80596  18.620   5.659  11.599
 8282W        W80597  10.692  10.803  12.088
 8283W        W80598  17.132   5.423  11.984
 8284W        W80599  43.968  42.963   2.187
 8285W        W80600  13.726  12.065  14.333
 8286W        W80601  32.509  38.271   1.407
 8287W        W80602  40.326  32.870   1.262
 8288W        W80603  13.771  32.634   0.294
 8289W        W80604   4.670  36.087   1.666
 8290W        W80605  17.156  35.885  12.148
 8291W        W80606  34.605  42.678  12.893
 8292W        W80607   0.933  30.031   0.948
 8293W        W80608  33.615  23.968  12.905
 8294W        W80609  36.832  27.749   4.300
 8295W        W80610  30.034  30.875   2.681
 8296W        W80611   2.282  42.040   4.731
 8297W        W80612  17.857   3.954  11.007
 8298W        W80613  23.791  10.474   4.517
 8299W        W80614  40.096   1.448  13.354
 8300W        W80615  10.854  33.116   3.097
 8301W        W80616  17.273  29.946  10.641
 8302W        W80617  34.339  34.596   0.862
 8303W        W80618  42.760  26.751  10.177
 8304W        W80619  20.978   8.181   2.279
 8305W        W80620  27.201  43.005  10.737
 8306W        W80621  37.777  22.377   1.829
 8307W        W80622   3.322  25.122  13.390
 8308W        W80623   4.640  31.652   4.841
 8309W        W80624  25.201   6.873   1.922
 8310W        W80625  19.051  24.256   3.899
 8311W        W80626  31.901  15.091   0.976
 8312W        W80627  36.555  35.176   3.849
 8313W        W80628   8.260  34.407  14.855
 8314W        W80629  41.029  32.112  14.333
 8315W        W80630   6.794  12.462  11.659
 8316W        W80631  10.408  11.332  14.395
 8317W        W80632  22.970  43.471   0.900
 8318W        W80633   0.852  23.514  12.882
 8319W        W80634   4.919  13.359   5.083
 8320W        W80635  30.573  36.480  12.494
 8321W        W80636   9.815  40.348  10.759
 8322W        W80637   0.612  19.567  10.703
 8323W        W80638  25.568   8.272   0.319
 8324W        W80639  16.291  41.848  14.111
 8325W        W80640  24.462   8.373   2.157
 8326W        W80641  21.155   9.324   1.683
 8327W        W80642   5.857  26.894  10.795
 8328W        W80643  23.532  40.684  11.262
 8329W        W80644  27.337   1.035   3.641
 8330W        W80645  14.582  29.783   3.886
 8331W        W80646   7.928  19.688  14.826
 8332W        W80647  26.555  27.246   3.661
 8333W        W80648  30.776  38.533  14.859
 8334W        W80649  17.224  14.674  11.879
 8335W        W80650  20.118   2.398  14.006
 8336W        W80651  22.220  29.387   3.404
 8337W        W80652  14.536  18.078  11.948
 8338W        W80653  36.640  27.484  11.546
 8339W        W80654   4.024  33.021  14.879
 8340W        W80655  14.012  25.413   5.215
 8341W        W80656  18.210  10.554   5.419
 8342W        W80657   2.169   8.883  14.722
 8343W        W80658  12.912  34.375   2.845
 8344W        W80659  33.690   1.142  11.170
 8345W        W80660   6.401  43.465   4.056
 8346W        W80661  18.777  13.732   2.646
 8347W        W80662  12.678   6.385   1.372
 8348W        W80663  39.373   2.273   2.663
 8349W        W80664   2.756  26.196  11.066
 8350W        W80665  21.532   8.600  11.153
 8351W        W80666  38.645  20.736   2.264
 8352W        W80667  13.892  33.179   4.528
 8353W        W80668  29.316  12.091  12.864
 8354W        W80669  22.586  27.939   2.197
 8355W        W80670  24.964  14.807  10.863
 8356W        W80671  29.404   7.778  12.002
 8357W        W80672  16.121   9.635   4.469
 8358W        W80673  20.716  31.127  11.508
 8359W        W80674  27.267   4.649  10.487
 8360W        W80675  16.552  39.102   3.342
 8361W        W80676  21.765  44.411  13.891
 8362W        W80677  20.552  28.153  14.441
 8363W        W80678   3.955  33.135  11.503
 8364W        W80679  27.456  38.609  13.027
 8365W        W80680   9.092  24.688  14.861
 8366W        W80681   8.943  36.637  13.073
 8367W        W80682  44.258  39.321   0.362
 8368W        W80683  21.023   9.190  12.045
 8369W        W80684   2.845  31.670  10.417
 8370W        W80685   5.824  15.627  10.447
 8371W        W80686   7.364  41.348   1.805
 8372W        W80687  40.402  23.006  13.146
 8373W        W80688  40.318  34.535  12.119
 8374W        W80689  17.698  30.047  12.931
 8375W        W80690  10.848  15.868   4.712
 8376W        W80691  28.929  28.696   4.555
 8377W        W80692  33.439   3.768   4.579
 8378W        W80693   1.053  29.826  12.912
 8379W        W80694  14.575  29.881   4.408
 8380W        W80695  18.162  14.575   3.907
 8381W        W80696  35.618  31.582  10.436
 8382W        W80697  17.757  41.706   0.924
 8383W        W80698  37.837  13.533  11.934
 8384W        W80699  18.255  39.052   1.903
 8385W        W80700  15.105  43.482   1.053
 8386W        W80701  20.792  26.082   4.303
 8387W        W80702  33.196  24.455   2.160
 8388W        W80703   2.164   2.380  12.988
 8389W        W80704  18.549  36.423   4.724
 8390W        W80705  28.966  12.533   0.442
 8391W        W80706   4.274  27.360  12.996
 8392W        W80707  26.058  34.545   0.831
 8393W        W80708  24.249  40.054   1.720
 8394W        W80709  15.794  28.938  14.551
 8395W        W80710  20.107  40.503  14.998
 8396W        W80711  39.578   5.868   3.862
 8397W        W80712  17.818  12.943  14.299
 8398W        W80713  26.467  25.475  12.375
 8399W        W80714  30.832  13.575  13.919
 8400W        W80715  30.886  40.402  13.359
 8401W        W80716   3.289  19.328   3.053
 8402W        W80717  42.051  23.154   3.555
 8403W        W80718   3.841   8.765  14.941
 8404W        W80719  33.985  29.726   3.636
 8405W        W80720  42.971  12.466   0.328
 8406W        W80721  12.727  28.677  11.002
 8407W        W80722  18.104  23.121  13.810
 8408W        W80723  39.933  15.285   4.124
 8409W        W80724   7.647  44.528  13.058
 8410W        W80725  38.474  17.035   4.596
 8411W        W80726   1.785  37.808   1.225
 8412W        W80727   2.602   2.569  14.848
 8413W        W80728  33.872  23.664   2.386
 8414W        W80729  37.159  29.695   3.325
 8415W        W80730  31.845   8.837  12.561
 8416W        W80731  32.896   3.030   0.409
 8417W        W80732  19.498  31.591   0.511
 8418W        W80733  25.108  37.053   2.232
 8419W        W80734  18.901  36.112  12.011
 8420W        W80735  24.187   2.949  11.197
 8421W        W80736  16.096  37.241  11.361
 8422W        W80737   3.962  41.771  13.346
 8423W        W80738  30.579   8.428  12.975
 8424W        W80739  32.321  43.388  11.481
 8425W        W80740   4.949  29.524  13.028
 8426W        W80741  29.040  16.573  14.022
 8427W        W80742  39.138  12.819   0.401
 8428W        W80743  14.607   9.407  11.432
 8429W        W80744  19.471  23.779   0.768
 8430W        W80745  41.317  27.507  12.574
 8431W        W80746  11.743  24.572  13.959
 8432W        W80747  43.284  39.770  11.556
 8433W        W80748  28.927  13.999  14.492
 8434W        W80749   9.147  37.627  12.478
 8435W        W80750  43.855  39.086  14.336
 8436W        W80751  23.626  12.802  11.606
 8437W        W80752  42.950   8.498  14.487
 8438W        W80753  43.084   9.701  12.426
 8439W        W80754  25.385   8.394   4.176
 8440W        W80755   0.453  26.187  14.756
 8441W        W80756  17.609  20.491   3.769
 8442W        W80757   3.242   5.888   0.949
 8443W        W80758  40.809   7.724   4.903
 8444W        W80759  25.227  21.139   1.890
 8445W        W80760  39.374  34.972  13.053
 8446W        W80761   5.268  27.008   0.183
 8447W        W80762  19.738  34.354   1.389
 8448W        W80763  41.789   8.535   0.450
 8449W        W80764  25.036  31.906  12.564
 8450W        W80765  24.686   6.121  11.354
 8451W        W80766  43.933  37.883  11.550
 8452W        W80767  33.245  40.875  13.385
 8453W        W80768  22.595  20.565   0.427
 8454W        W80769  28.050  36.477  14.454
 8455W        W80770   6.177  19.567   4.258
 8456W        W80771  32.609  38.842  10.302
 8457W        W80772  31.857  38.070   3.263
 8458W        W80773   1.907  37.828  12.584
 8459W        W80774  13.676  32.226   0.954
 8460W        W80775   0.801  27.730   1.296
 8461W        W80776  21.242   3.622   5.006
 8462W        W80777   8.025  25.178   0.391
 8463W        W80778  35.777  28.411  13.797
 8464W        W80779  36.935  38.774  11.024
 8465W        W80780   6.685  34.419  14.559
 8466W        W80781  13.870  11.609   1.957
 8467W        W80782  19.780   1.319   2.227
 8468W        W80783  34.139   7.172   2.135
 8469W        W80784  42.512   3.375  11.470
 8470W        W80785  22.645  15.748   5.199
 8471W        W80786  18.290  43.057   5.003
 8472W        W80787  38.795  31.355  14.738
 8473W        W80788  23.433  18.644   4.583
 8474W        W80789  37.900   1.740   5.014
 8475W        W80790  33.995  40.852  14.351
 8476W        W80791   6.024   6.733   1.678
 8477W        W80792  12.119  10.409   3.213
 8478W        W80793  33.034  14.184   2.686
 8479W        W80794   8.892  20.790  10.657
 8480W        W80795  32.605  22.992  10.756
 8481W        W80796  15.086  20.101   2.409
 8482W        W80797  40.301  39.535   0.714
 8483W        W80798  14.193  29.613   2.858
 8484W        W80799  37.796   1.095   0.980
 8485W        W80800  21.353  37.321  13.000
 8486W        W80801  42.435   2.446   1.284
 8487W        W80802  26.798  32.706  10.228
 8488W        W80803  13.260  36.652   0.385
 8489W        W80804  42.547  34.613   4.559
 8490W        W80805  24.110  31.427   4.210
 8491W        W80806  32.127  21.716   4.265
 8492W        W80807  44.782   4.866   1.995
 8493W        W80808  36.265   2.223  11.568
 8494W        W80809  19.101  13.048   0.126
 8495W        W80810  34.475  33.200   1.807
 8496W        W80811  33.093  28.943  13.633
 8497W        W80812   5.209  12.868   3.322
 8498W        W80813  25.085  44.657   2.758
 8499W        W80814  35.329  26.014  12.781
 8500W        W80815  37.908  29.056   4.558
 8501W        W80816   5.244  40.226   3.832
 8502W        W80817  10.869  39.937  13.410
 8503W        W80818  26.629  23.764  12.960
 8504W        W80819   2.424   3.269   2.973
 8505W        W80820  39.726  33.715  13.879
 8506W        W80821  41.656  36.105  11.863
 8507W        W80822   8.130  17.136  12.597
 8508W        W80823  27.174   6.328   2.638
 8509W        W80824  23.686  44.287  10.696
 8510W        W80825  24.799   4.212  13.072
 8511W        W80826   7.809  15.364   1.002
 8512W        W80827  21.276  31.353  12.969
 8513W        W80828  34.088  30.593  12.920
 8514W        W80829  27.169  29.529  10.609
 8515W        W80830   7.296  21.263  11.059
 8516W        W80831  30.094  10.794  12.691
 8517W        W80832  36.390  33.891  12.320
 8518W        W80833   3.939  30.068  13.879
 8519W        W80834  26.680   2.391   4.239
 8520W        W80835  36.900  25.309  10.180
 8521W        W80836  23.445  19.947  11.563
 8522W        W80837   4.541  20.532   2.685
 8523W        W80838  42.957  34.182   2.199
 8524W        W80839   5.618  27.640   2.390
 8525W        W80840   2.435  18.304   0.010
 8526W        W80841   1.056   1.750  12.466
 8527W        W80842  30.618   1.630   0.838
 8528W        W80843  12.847  41.350  11.514
 8529W        W80844  10.319  18.240   0.760
 8530W        W80845  33.318   3.500   2.329
 8531W        W80846  13.511   5.415   0.243
 8532W        W80847  34.682   0.277  13.301
 8533W        W80848  20.748  11.600   1.342
 8534W        W80849  30.604  21.312  14.401
 8535W        W80850   2.177  39.764   2.846
 8536W        W80851  19.778  27.127   0.899
 8537W        W80852   0.945   1.993  13.403
 8538W        W80853  12.282  40.896  12.053
 8539W        W80854  24.192  32.500  10.700
 8540W        W80855   7.141  29.635  14.596
 8541W        W80856  30.333  15.703  12.939
 8542W        W80857  31.554  26.144   1.422
 8543W        W80858  41.716  35.563  11.506
 8544W        W80859  40.436   6.337   1.979
 8545W        W80860  29.638  16.476   4.061
 8546W        W80861  14.365  10.370   0.413
 8547W        W80862  15.418  10.594  11.057
 8548W        W80863   3.936   1.235  11.400
 8549W        W80864   9.365  20.119   0.564
 8550W        W80865  42.679   0.794   0.884
 8551W        W80866  36.171   2.022   4.277
 8552W        W80867  20.442  15.923   0.006
 8553W        W80868  19.183  21.756   0.431
 8554W        W80869  14.018  33.586  13.889
 8555W        W80870  19.763  14.725   4.618
 8556W        W80871   6.480  12.581   2.276
 8557W        W80872  34.887  16.059  13.560
 8558W        W80873  15.385  32.559   4.721
 8559W        W80874  30.559  43.863  11.882
 8560W        W80875  14.133   2.852   1.213
 8561W        W80876   8.117  34.287   2.735
 8562W        W80877  39.781  15.806   1.591
 8563W        W80878  12.610   1.063  13.394
 8564W        W80879  22.479  26.189  13.879
 8565W        W80880   4.553  42.428  13.971
 8566W        W80881  39.732  33.513   1.280
 8567W        W80882  30.384  31.539   4.067
 8568W        W80883  44.560   0.834   4.112
 8569W        W80884   1.764   4.771  11.564
 8570W        W80885  31.871  22.060  13.976
 8571W        W80886  31.847   5.655   0.590
 8572W        W80887   1.995  10.402  14.874
 8573W        W80888  42.008  33.647  11.530
 8574W        W80889  18.295  22.751  11.034
 8575W        W80890  14.736  27.214  14.955
 8576W        W80891   2.936  22.693   4.316
 8577W        W80892  14.947  23.100  11.582
 8578W        W80893  23.111   4.199  12.654
 8579W        W80894  32.909  12.478   4.686
 8580W        W80895  37.050  41.334  12.423
 8581W        W80896  32.375   2.320   4.460
 8582W        W80897  38.400  19.744  11.679
 8583W        W80898  40.033  30.657   1.148
 8584W        W80899  21.034  20.232   3.735
 8585W        W80900  14.081  40.520  10.978
 8586W        W80901  33.842  20.876   3.805
 8587W        W80902  18.540  37.774   1.706
 8588W        W80903   2.114  35.572   9.981
 8589W        W80904  33.924  43.868  14.931
 8590W        W80905  30.551  19.864  12.414
 8591W        W80906   0.483  37.362  12.318
 8592W        W80907  34.048  42.051  14.913
 8593W        W80908  17.968  16.156  11.564
 8594W        W80909  43.861   8.665   0.412
 8595W        W80910  42.940  28.423   4.484
 8596W        W80911   5.687  10.652  13.788
 8597W        W80912   9.358  25.690  14.007
 8598W        W80913   7.171  34.201   4.543
 8599W        W80914  39.196  15.328   5.097
 8600W        W80915   2.860  27.636  14.923
 8601W        W80916  33.461  31.887   3.870
 8602W        W80917   8.323  16.406  10.633
 8603W        W80918  10.724  30.438   2.503
 8604W        W80919  36.809  22.148  12.461
 8605W        W80920   7.858  43.786  12.927
 8606W        W80921  44.905  29.344  10.787
 8607W        W80922  37.932  19.666  11.421
 8608W        W80923  26.177  31.977   0.440
 8609W        W80924  33.219  29.512  12.922
 8610W        W80925   0.815  33.192   1.567
 8611W        W80926  15.704  21.570  12.493
 8612W        W80927  23.467  29.977   1.310
 8613W        W80928   1.952  27.443  12.499
 8614W        W80929  24.639  23.354  14.008
 8615W        W80930  31.430  43.477  11.824
 8616W        W80931  16.034  34.882   1.317
 8617W        W80932  15.288  42.498  12.391
 8618W        W80933  43.512   6.450  13.405
 8619W        W80934   7.775  13.377   4.065
 8620W        W80935  28.112  40.353   0.974
 8621W        W80936  40.745  17.568   1.871
 8622W        W80937  41.560  40.514  11.983
 8623W        W80938  14.084  14.763  14.783
 8624W        W80939  26.028  26.966   3.706
 8625W        W80940  35.492   8.481  11.274
 8626W        W80941  18.633  20.622  13.896
 8627W        W80942   3.335  40.586  13.855
 8628W        W80943   1.860   5.340   3.278
 8629W        W80944  28.871  14.670  12.187
 8630W        W80945   7.928  14.238  13.853
 8631W        W80946  44.937  21.903   1.873
 8632W        W80947   2.833  34.872  10.643
 8633W        W80948   0.424   8.782   2.446
 8634W        W80949   8.294  33.715  14.082
 8635W        W80950  42.342  35.092  11.152
 8636W        W80951   3.259  21.587  10.888
 8637W        W80952   1.875  43.448   2.240
 8638W        W80953   2.075  25.503   1.728
 8639W        W80954  33.995   7.846  13.849
 8640W        W80955  14.521  26.981  13.493
 8641W        W80956  33.011  31.366  12.830
 8642W        W80957  24.674  27.502   3.334
 8643W        W80958   6.427  24.157  14.042
 8644W        W80959  12.658  20.110   1.661
 8645W        W80960  30.969  21.088   0.175
 8646W        W80961   5.669  41.038  13.403
 8647W        W80962  14.212   5.409   3.301
 8648W        W80963   8.257  14.605  13.049
 8649W        W80964  12.922  42.511  14.304
 8650W        W80965  29.501  43.363  10.411
 8651W        W80966   2.342  42.681   2.733
 8652W        W80967   3.350  36.850   0.526
 8653W        W80968  23.106  35.947   4.710
 8654W        W80969  14.702  43.827   4.190
 8655W        W80970  20.964  12.208   3.601
 8656W        W80971  33.648  39.484   2.829
 8657W        W80972  16.393  10.771  14.355
 8658W        W80973  31.187  36.850   1.942
 8659W        W80974  37.311  27.927   1.007
 8660W        W80975  32.454  28.098   0.046
 8661W        W80976  44.264  27.920   2.373
 8662W        W80977  24.731  30.649   0.112
 8663W        W80978  43.508  11.106   3.167
 8664W        W80979  23.530  42.461  13.079
 8665W        W80980  31.512  13.018  13.499
 8666W        W80981  21.227  14.801  14.223
 8667W        W80982   0.373  17.756   2.357
 8668W        W80983  23.134  16.920  13.610
 8669W        W80984  44.444  41.496  10.457
 8670W        W80985  33.986  36.404  13.039
 8671W        W80986  28.124   9.438   2.456
 8672W        W80987  40.487   5.272   1.870
 8673W        W80988  44.673  33.197  11.018
 8674W        W80989  36.919  15.808  13.864
 8675W        W80990  20.952  23.412  13.548
 8676W        W80991  39.426  44.585   3.021
 8677W        W80992  20.955  43.658  11.109
 8678W        W80993  24.805  24.433  12.821
 8679W        W80994  33.517  44.398  11.493
 8680W        W80995   0.292  17.835   1.644
 8681W        W80996  15.625  26.241   0.702
 8682W        W80997  38.539   3.882   0.633
 8683W        W80998  26.396  26.580   2.281
 8684W        W80999  31.928  13.652   3.166
 8685W        W81000  41.294  32.452  11.885
 8686W        W81001  21.172  21.189   0.417
 8687W        W81002  24.763  43.084   0.766
 8688W        W81003  34.573   0.939  12.990
 8689W        W81004  41.945  28.577  11.696
 8690W        W81005  17.706  38.351   2.468
 8691W        W81006  17.333  25.682  11.467
 8692W        W81007  32.552  18.288   1.916
 8693W        W81008  24.083  41.499  10.813
 8694W        W81009  23.800  38.914  13.797
 8695W        W81010   3.878   3.336  13.392
 8696W        W81011   3.828  38.261   4.918
 8697W        W81012  21.683  13.781   1.043
 8698W        W81013  12.517   3.927   4.409
 8699W        W81014  31.441   4.338  11.585
 8700W        W81015  12.628  12.345  11.124
 8701W        W81016  28.350   2.670  11.510
 8702W        W81017  10.287  14.354   1.243
 8703W        W81018  29.101  12.281   0.898
 8704W        W81019  40.289  12.311   4.746
 8705W        W81020  26.539  30.316   0.890
 8706W        W81021   2.020   4.019   3.266
 8707W        W81022  24.314   2.288   1.364
 8708W        W81023  13.122   2.680   1.265
 8709W        W81024  28.512  10.194  13.987
 8710W        W81025  24.999  29.880   4.087
 8711W        W81026  13.384  38.519  10.722
 8712W        W81027  35.502  23.263   1.443
 8713W        W81028  26.636  34.023   9.838
 8714W        W81029  42.035  10.819   1.294
 8715W        W81030  19.367  37.408  11.956
 8716W        W81031   7.290  32.128  12.600
 8717W        W81032  44.740  26.382  13.089
 8718W        W81033  35.827   2.440  12.909
 8719W        W81034  21.944   3.470   0.829
 8720W        W81035  13.338   7.740   2.671
 8721W        W81036  43.942  23.119  12.110
 8722W        W81037  17.856  13.270  13.310
 8723W        W81038  18.725  10.128  14.784
 8724W        W81039  32.640  25.892  12.007
 8725W        W81040  15.331   6.855   2.874
 8726W        W81041  10.261   2.692  11.298
 8727W        W81042  25.667  41.772   0.919
 8728W        W81043  15.071   9.186  11.434
 8729W        W81044  23.036  32.057  12.469
 8730W        W81045   9.854  42.902   3.004
 8731W        W81046  15.496  11.654  12.497
 8732W        W81047  31.669   9.654   2.517
 8733W        W81048  35.476  28.718   4.145
 8734W        W81049   7.701   9.416  13.424
 8735W        W81050  38.372   1.938  13.392
 8736W        W81051   2.829  23.109   0.846
 8737W        W81052  40.955   6.854  14.949
 8738W        W81053  19.221   2.418  12.522
 8739W        W81054  18.838  25.615   3.601
 8740W        W81055  28.112   2.097  12.089
 8741W        W81056  18.019  19.951  13.797
 8742W        W81057  22.528  41.715  12.551
 8743W        W81058  35.125  19.411  13.969
 8744W        W81059   1.919  36.586  14.817
 8745W        W81060  10.273  40.510  14.954
 8746W        W81061  40.959  11.757  14.006
 8747W        W81062  35.244  15.305  12.838
 8748W        W81063  35.895  11.231   3.324
 8749W        W81064  39.300  25.790  12.400
 8750W        W81065  39.474  29.429   4.227
 8751W        W81066  27.211  40.995   1.434
 8752W        W81067   7.828  30.419   4.456
 8753W        W81068   9.755  22.941  11.075
 8754W        W81069  28.452   2.779   1.387
 8755W        W81070   9.815   8.403   4.474
 8756W        W81071  30.372  37.067  14.037
 8757W        W81072   6.445  19.974  14.128
 8758W        W81073  43.835   5.093  11.034
 8759W        W81074  23.198  31.713   4.148
 8760W        W81075  25.744  38.798   0.863
 8761W        W81076  14.427   6.273  12.394
 8762W        W81077  27.577  25.947   4.415
 8763W        W81078  10.201   4.415  12.366
 8764W        W81079  20.326   8.257   9.853
 8765W        W81080  26.030  16.440   0.739
 8766W        W81081  12.158  22.287   0.216
 8767W        W81082   2.241  33.366   1.141
 8768W        W81083  29.148   6.796  14.250
 8769W        W81084  41.562  17.889   0.716
 8770W        W81085  42.924  10.353  11.507
 8771W        W81086  13.094  30.221   3.669
 8772W        W81087  37.810  35.589  13.047
 8773W        W81088  23.796   2.145   1.334
 8774W        W81089   1.720   9.940  12.003
 8775W        W81090  32.701  23.757   4.168
 8776W        W81091  12.229  17.198  11.288
 8777W        W81092  36.328  34.784  10.279
 8778W        W81093  43.215  41.952   4.251
 8779W        W81094  19.461  29.249  11.132
 8780W        W81095   9.680   9.432   3.285
 8781W        W81096  36.122  15.112   0.375
 8782W        W81097  19.700  32.774   3.332
 8783W        W81098  30.269  44.843  10.791
 8784W        W81099  20.957  32.622   0.379
 8785W        W81100  35.549  43.996  14.321
 8786W        W81101  40.383  41.328   5.208
 8787W        W81102  25.958  19.982   4.244
 8788W        W81103  17.265  41.248   3.255
 8789W        W81104  22.655   1.870  10.683
 8790W        W81105  39.622   3.761  13.048
 8791W        W81106  34.831  10.155  11.521
 8792W        W81107  14.711  30.200  10.280
 8793W        W81108  17.743   9.640  13.414
 8794W        W81109  16.814  20.253   3.197
 8795W        W81110   5.477   1.775   4.222
 8796W        W81111  23.159  14.793   1.956
 8797W        W81112  40.571  19.854  13.202
 8798W        W81113  34.938   4.780  13.082
 8799W        W81114  22.533  18.020  14.882
 8800W        W81115  19.227  12.278  11.090
 8801W        W81116  20.557  43.311  11.187
 8802W        W81117  31.106  29.082  13.067
 8803W        W81118  15.151   5.147   2.328
 8804W        W81119   4.391  30.885   1.871
 8805W        W81120  20.707  22.465  14.059
 8806W        W81121  20.442  27.539  14.897
 8807W        W81122  12.138  40.497   3.192
 8808W        W81123  12.263  26.088   1.434
 8809W        W81124  10.201  15.762   3.218
 8810W        W81125  20.359  31.401   0.864
 8811W        W81126  12.389  24.470   3.210
 8812W        W81127   3.644  29.065   0.217
 8813W        W81128   8.388  18.821   0.974
 8814W        W81129  12.630  41.659   4.207
 8815W        W81130  13.010  39.467   2.236
 8816W        W81131  33.846  44.303   1.260
 8817W        W81132  11.252  17.592  12.975
 8818W        W81133  21.643  21.961  14.025
 8819W        W81134  13.256   2.035   2.425
 8820W        W81135  12.650  27.060  10.650
 8821W        W81136  28.129  20.491  13.953
 8822W        W81137  11.747  36.915  11.949
 8823W        W81138  15.657   5.829   4.408
 8824W        W81139  20.857   8.882  11.624
 8825W        W81140  36.090  11.268  13.531
 8826W        W81141   4.808   0.636  14.252
 8827W        W81142  33.985  31.970   3.733
 8828W        W81143   2.608  18.734   4.567
 8829W        W81144  40.055   4.008  12.444
 8830W        W81145   1.019  38.505  11.996
 8831W        W81146  24.514  12.917  12.057
 8832W        W81147  20.005  18.832   1.808
 8833W        W81148  44.787  33.898   1.693
 8834W        W81149  38.516  21.744  10.726
 8835W        W81150  21.653  23.504   0.438
 8836W        W81151  34.343  27.092   0.741
 8837W        W81152   1.459   8.711   3.695
 8838W        W81153  24.009  31.206   3.760
 8839W        W81154   5.385  17.863  12.503
 8840W        W81155  36.472  27.381   2.863
 8841W        W81156  20.280  20.644   2.348
 8842W        W81157  24.256  35.428   4.452
 8843W        W81158  11.362  21.741   3.638
 8844W        W81159  15.857  20.219   0.317
 8845W        W81160  40.750  23.564  11.191
 8846W        W81161  20.560   3.584   3.420
 8847W        W81162  20.035  23.675  12.802
 8848W        W81163  33.306  16.759   0.001
 8849W        W81164   5.862  33.945  13.473
 8850W        W81165  42.827   2.985  14.998
 8851W        W81166  29.892   8.518  11.982
 8852W        W81167  28.343  27.526   2.844
 8853W        W81168  13.956  40.055   4.040
 8854W        W81169  13.811  34.522  10.671
 8855W        W81170  41.855  14.116   1.884
 8856W        W81171  13.759  35.662   2.181
 8857W        W81172  41.881  44.823   0.419
 8858W        W81173   4.328  33.066   3.802
 8859W        W81174   8.338  27.775  14.927
 8860W        W81175   6.718   8.683   0.691
 8861W        W81176  36.634  24.163  14.947
 8862W        W81177  36.391   0.402   1.019
 8863W        W81178  20.023  19.592   9.672
 8864W        W81179  20.576  44.288   1.360
 8865W        W81180  20.103  34.511  14.454
 8866W        W81181  44.746  41.952   4.554
 8867W        W81182  15.334  16.621   1.020
 8868W        W81183  39.383  30.159  14.378
 8869W        W81184   2.296  21.524   4.140
 8870W        W81185  42.006  11.289  11.266
 8871W        W81186   6.798  15.229   1.304
 8872W        W81187   1.548  31.099  14.864
 8873W        W81188  31.160  43.902   3.778
 8874W        W81189  30.654  21.606   4.700
 8875W        W81190   7.612  13.156  13.639
 8876W        W81191  36.478  25.153   3.577
 8877W        W81192  10.435  15.764   5.052
 8878W        W81193  21.445   6.452   1.181
 8879W        W81194  38.745  31.947   3.292
 8880W        W81195  13.236  42.852  13.053
 8881W        W81196  44.467  34.745   1.199
 8882W        W81197  25.236  19.650  14.724
 8883W        W81198  21.321  27.238   4.626
 8884W        W81199  17.740  36.321   3.255
 8885W        W81200   3.065  34.953  12.164
 8886W        W81201   9.671  34.642   1.322
 8887W        W81202  28.530  43.292  12.951
 8888W        W81203  16.621   7.923   3.258
 8889W        W81204  12.708   0.764  10.645
 8890W        W81205  21.118  11.087   0.926
 8891W        W81206  31.848  13.828   2.181
 8892W        W81207  37.214  42.956  11.564
 8893W        W81208  35.805  23.369   2.441
 8894W        W81209  16.417  10.369   1.939
 8895W        W81210  40.580  25.561   0.532
 8896W        W81211  33.023  21.705  14.508
 8897W        W81212  43.780  29.386   2.537
 8898W        W81213   8.740  18.787  10.687
 8899W        W81214  43.703  25.897   1.454
 8900W        W81215  31.648  30.467   2.256
 8901W        W81216  33.656  30.514  10.609
 8902W        W81217  25.121  22.136   1.715
 8903W        W81218  32.581  21.008  14.328
 8904W        W81219  39.821  27.621  13.509
 8905W        W81220  14.875   7.387  11.188
 8906W        W81221  27.570   4.283  12.863
 8907W        W81222  37.627  18.242   0.473
 8908W        W81223  19.130   3.416   3.608
 8909W        W81224  39.246  12.200   1.723
 8910W        W81225  26.605  18.697   0.999
 8911W        W81226  14.817   9.082   2.697
 8912W        W81227  39.898  43.353  12.906
 8913W        W81228  10.853   0.857   4.349
 8914W        W81229   7.453   9.136   4.104
 8915W        W81230  18.730   2.030   9.885
 8916W        W81231  23.518  36.467  10.746
 8917W        W81232   0.231  35.054   0.511
 8918W        W81233  41.517   6.783  11.992
 8919W        W81234  40.964  20.987  14.338
 8920W        W81235  36.382  19.092  14.496
 8921W        W81236  40.799   5.978   0.282
 8922W        W81237  34.892  40.802   2.874
 8923W        W81238  15.872  30.990   4.547
 8924W        W81239   3.256  44.705  14.971
 8925W        W81240  19.921  23.141   0.780
 8926W        W81241  42.795  42.771   2.293
 8927W        W81242  32.922   2.432   2.739
 8928W        W81243  32.045  21.784  11.612
 8929W        W81244  19.685  20.810   4.428
 8930W        W81245  19.499  43.551  14.022
 8931W        W81246  28.563  31.551  10.146
 8932W        W81247  23.949  22.213   0.257
 8933W        W81248  11.148  27.700   2.381
 8934W        W81249  42.801  18.484   2.726
 8935W        W81250  36.025  19.847   0.084
 8936W        W81251  34.101  15.589  13.358
 8937W        W81252   1.431  13.208  12.611
 8938W        W81253  15.797  16.827   0.270
 8939W        W81254   4.926  41.559  13.513
 8940W        W81255  42.467  36.094   0.763
 8941W        W81256  18.035  39.770  11.544
 8942W        W81257   3.094  18.740   4.853
 8943W        W81258   5.596  34.313  13.850
 8944W        W81259   7.496  44.992  12.816
 8945W        W81260   5.954  29.200  13.850
 8946W        W81261  42.863  10.217   4.788
 8947W        W81262  16.332  36.911  12.844
 8948W        W81263  18.985  30.477   4.454
 8949W        W81264  20.861   6.336   0.950
 8950W        W81265  10.277  15.390  13.609
 8951W        W81266  28.317   7.757  12.850
 8952W        W81267  18.155  17.126  10.743
 8953W        W81268  14.178  25.048  11.187
 8954W        W81269  25.574  11.582  13.364
 8955W        W81270   2.862  42.705  14.799
 8956W        W81271  34.779  10.305   1.254
 8957W        W81272  12.466  37.606  13.401
 8958W        W81273   9.273  38.900   0.758
 8959W        W81274  26.429   2.700  11.413
 8960W        W81275  28.884   3.269  13.343
 8961W        W81276  15.992  27.261   4.142
 8962W        W81277   9.353  33.471  11.993
 8963W        W81278  40.850  20.742  13.036
 8964W        W81279  16.683  35.407  14.277
 8965W        W81280   4.397  14.433   1.929
 8966W        W81281  26.748   9.245   2.818
 8967W        W81282  41.454  34.402   1.029
 8968W        W81283  42.326   2.422   2.387
 8969W        W81284  21.693  19.241  12.431
 8970W        W81285  22.555  10.278   5.075
 8971W        W81286   0.581   9.242  11.292
 8972W        W81287  13.212  33.330   3.432
 8973W        W81288  29.175   3.253   2.313
 8974W        W81289  21.045  20.871   1.280
 8975W        W81290   5.834  44.409   3.804
 8976W        W81291  10.647  42.088   4.108
 8977W        W81292   2.262  27.759   1.310
 8978W        W81293  23.569   8.202   1.273
 8979W        W81294  33.087  30.153   1.819
 8980W        W81295  35.586   8.017   1.829
 8981W        W81296  39.562  43.906  13.389
 8982W        W81297  40.938  13.739  14.410
 8983W        W81298  31.578  43.771  10.423
 8984W        W81299  18.411  30.974   0.743
 8985W        W81300  13.681  17.486  11.533
 8986W        W81301  40.969  14.657   1.659
 8987W        W81302  11.732   3.946   1.226
 8988W        W81303  20.447  44.038  12.792
 8989W        W81304  10.234   5.897  12.088
 8990W        W81305   8.968  42.358  13.949
 8991W        W81306  10.421  31.974  13.426
 8992W        W81307  36.507  41.080  14.382
 8993W        W81308   1.746  20.510   3.376
 8994W        W81309  10.365  14.557  11.585
 8995W        W81310  16.882  25.251  12.508
 8996W        W81311  33.288  25.637  12.462
 8997W        W81312  16.627  35.798  13.913
 8998W        W81313   5.687  18.066   4.269
 8999W        W81314   6.391  32.037  10.573
 9000W        W81315   5.118   2.726   4.333
 9001W        W81316  19.579  32.890   0.162
 9002W        W81317  14.703  16.858  12.515
 9003W        W81318  19.293  23.602   1.749
 9004W        W81319  30.100  27.250   2.396
 9005W        W81320  13.111  34.896   2.209
 9006W        W81321   8.642   0.399   4.654
 9007W        W81322  20.150  29.217  12.151
 9008W        W81323  43.416  12.675   0.529
 9009W        W81324  41.752   5.538  12.533
 9010W        W81325   3.514   3.400  10.823
 9011W        W81326  30.675  14.319  12.476
 9012W        W81327  17.390  38.178  12.121
 9013W        W81328  42.569  40.884  13.994
 9014W        W81329  29.040  26.592  12.925
 9015W        W81330  36.482  17.085  11.663
 9016W        W81331  34.972  23.767   0.826
 9017W        W81332  13.900   2.961  12.451
 9018W        W81333   8.793  19.728  10.707
 9019W        W81334   7.565  27.170  13.373
 9020W        W81335  12.759  32.887   1.655
 9021W        W81336  20.750  41.245  11.050
 9022W        W81337   1.773  35.369  12.713
 9023W        W81338  16.217  16.116  10.956
 9024W        W81339  26.286  30.013   3.203
 9025W        W81340  26.516  44.756  14.432
 9026W        W81341  33.818   0.823  10.794
 9027W        W81342  27.920  40.914   2.681
 9028W        W81343   4.687  19.471  10.961
 9029W        W81344  21.507  11.744  13.459
 9030W        W81345  23.494  29.090   4.177
 9031W        W81346   2.502  42.459  14.415
 9032W        W81347  26.977  31.132   3.640
 9033W        W81348   3.500   0.508   3.896
 9034W        W81349   9.876  38.476  12.178
 9035W        W81350   5.340  31.702   2.995
 9036W        W81351  32.129  18.283   2.707
 9037W        W81352  13.631   3.890   3.780
 9038W        W81353   6.921   9.134  11.177
 9039W        W81354  12.830  24.746  12.837
 9040W        W81355  44.784   8.295   0.949
 9041W        W81356  19.683  15.148   1.380
 9042W        W81357  24.835  31.667   3.787
 9043W        W81358  25.576  28.540  11.856
 9044W        W81359  41.086  42.513   2.858
 9045W        W81360  40.432  40.996  12.872
 9046W        W81361   9.934  41.879   4.566
 9047W        W81362  24.017  19.088  11.464
 9048W        W81363  16.250  27.359   5.524
 9049W        W81364  29.926  15.325  11.565
 9050W        W81365  44.558   9.555   3.634
 9051W        W81366  15.602  38.444   0.055
 9052W        W81367   5.694  32.070   0.778
 9053W        W81368  40.543  31.208   4.099
 9054W        W81369   4.377  37.923   0.396
 9055W        W81370  41.529   2.917   2.263
 9056W        W81371  17.524  23.619   2.311
 9057W        W81372  37.059  34.455  13.539
 9058W        W81373   1.365   7.616  14.535
 9059W        W81374   8.231  41.165  11.095
 9060W        W81375  33.136  24.164  14.732
 9061W        W81376  27.680  15.823   1.290
 9062W        W81377  17.450  25.397   0.366
 9063W        W81378  30.773  25.719   1.289
 9064W        W81379   1.844  42.533  14.901
 9065W        W81380   1.557  42.908   4.099
 9066W        W81381  38.562   1.666  12.407
 9067W        W81382  32.152   5.942  12.880
 9068W        W81383   1.671  16.183  14.434
 9069W        W81384   4.795   5.164   0.238
 9070W        W81385  39.354  37.148   4.912
 9071W        W81386  39.444  31.359   0.316
 9072W        W81387  40.354  22.907  13.643
 9073W        W81388   2.150  36.855   0.869
 9074W        W81389   7.827   6.004  10.093
 9075W        W81390  40.451  32.289  14.484
 9076W        W81391  40.957   5.961  13.603
 9077W        W81392  28.384   8.620   3.742
 9078W        W81393  22.861  24.643  10.462
 9079W        W81394  36.249  32.925   2.453
 9080W        W81395  22.706  22.315   9.588
 9081W        W81396  28.620   3.411  12.919
 9082W        W81397  32.344  25.255  13.770
 9083W        W81398  29.039  15.257   4.422
 9084W        W81399  17.116  39.557  14.058
 9085W        W81400  12.274  16.888   2.297
 9086W        W81401  44.339  38.600  10.042
 9087W        W81402  29.079  23.104   1.887
 9088W        W81403  39.664  41.509   2.682
 9089W        W81404  28.505   5.882   4.982
 9090W        W81405  24.668  26.054  11.824
 9091W        W81406  29.139  40.657   3.816
 9092W        W81407  19.009  26.132   4.724
 9093W        W81408   4.335  19.836  12.153
 9094W        W81409  33.130  17.154   0.817
 9095W        W81410  26.079  14.306  12.527
 9096W        W81411  10.705  41.673   3.128
 9097W        W81412  43.778  16.705   3.802
 9098W        W81413  42.252  21.477  11.487
 9099W        W81414  20.116  36.798  14.700
 9100W        W81415  44.983  38.174  13.485
 9101W        W81416  27.286   8.981  11.100
 9102W        W81417  43.358   2.653  11.618
 9103W        W81418   0.880  20.549   5.070
 9104W        W81419   7.322  11.031   1.510
 9105W        W81420  12.505  41.668  14.804
 9106W        W81421  29.843   0.516  14.529
 9107W        W81422  40.660  30.268  12.070
 9108W        W81423  36.484  17.777   3.272
 9109W        W81424  37.492   7.202   2.482
 9110W        W81425  34.987   7.161  13.966
 9111W        W81426  44.986   2.326  11.094
 9112W        W81427  40.028   6.335  14.948
 9113W        W81428  13.314  17.084  14.991
 9114W        W81429  36.136   8.358   0.019
 9115W        W81430  25.231  32.676  14.411
 9116W        W81431   5.613   5.906  13.935
 9117W        W81432   0.628  15.626  10.249
 9118W        W81433  16.123  20.506  11.876
 9119W        W81434   6.527  33.476   2.812
 9120W        W81435  17.817  12.787  14.821
 9121W        W81436  41.843  30.431  12.530
 9122W        W81437  12.705  43.078  11.017
 9123W        W81438   4.724  19.196   0.773
 9124W        W81439  42.827  16.021   3.728
 9125W        W81440  33.376  31.681  12.571
 9126W        W81441  27.444   4.875   2.225
 9127W        W81442  36.610  23.116  14.776
 9128W        W81443  39.296  14.177  12.546
 9129W        W81444  23.764  20.685   4.267
 9130W        W81445   6.453  17.600  12.927
 9131W        W81446  10.389  13.804   2.287
 9132W        W81447   6.286  32.404  13.115
 9133W        W81448   0.470   8.209   1.806
 9134W        W81449  18.188  37.269  13.464
 9135W        W81450  38.448  16.398  14.833
 9136W        W81451  24.596   1.509   1.274
 9137W        W81452  12.244  21.650   4.900
 9138W        W81453  20.143   2.969   0.026
 9139W        W81454  17.268  35.824  13.588
 9140W        W81455  32.229  41.232  12.480
 9141W        W81456   4.821  19.027  12.436
 9142W        W81457  24.239   8.675   0.446
 9143W        W81458   6.428  29.096  11.934
 9144W        W81459  28.577   4.214  10.227
 9145W        W81460  34.994  25.340  10.132
 9146W        W81461   0.392  11.158  13.272
 9147W        W81462  34.765  28.487   4.547
 9148W        W81463   9.346  37.542   2.373
 9149W        W81464  10.582   3.623  12.670
 9150W        W81465  19.849  43.999   4.559
 9151W        W81466  11.195  37.363  10.733
 9152W        W81467  42.566  43.429   1.309
 9153W        W81468   6.131  22.990  13.550
 9154W        W81469   5.881   5.458  14.002
 9155W        W81470  34.512  10.378  10.556
 9156W        W81471  42.329  16.979  11.076
 9157W        W81472  20.592   7.361   4.529
 9158W        W81473   1.432  22.011   2.703
 9159W        W81474  34.506  39.936   0.774
 9160W        W81475  39.523  37.381  11.955
 9161W        W81476  27.144  16.536  10.514
 9162W        W81477  27.257  38.355   1.849
 9163W        W81478  13.218  44.693  11.485
 9164W        W81479  41.952  26.491   1.239
 9165W        W81480   4.088  28.066   3.383
 9166W        W81481  38.391  24.625  13.338
 9167W        W81482  21.791   7.957   1.365
 9168W        W81483   4.434   8.562  13.376
 9169W        W81484  21.704  25.003   2.335
 9170W        W81485  34.327  15.720   4.534
 9171W        W81486  22.605  39.658   3.723
 9172W        W81487  42.508   5.169   4.652
 9173W        W81488  28.587  42.881  11.149
 9174W        W81489  38.003  32.572  14.128
 9175W        W81490  40.014  33.116   2.577
 9176W        W81491   8.276  27.619  13.150
 9177W        W81492  21.583  26.589   3.264
 9178W        W81493  29.486   7.023  13.941
 9179W        W81494  36.654  26.558  14.036
 9180W        W81495   0.282   8.345  10.963
 9181W        W81496  13.601  15.972  13.460
 9182W        W81497  34.499   9.785  11.351
 9183W        W81498  37.666  11.599  13.215
 9184W        W81499  42.701  20.314  11.148
 9185W        W81500  18.786   1.339   1.314
 9186W        W81501  25.036  32.788   1.887
 9187W        W81502  25.844  37.329   4.844
 9188W        W81503  26.477  28.575   3.259
 9189W        W81504  32.214  24.706   2.442
 9190W        W81505  26.251  29.450  11.005
 9191W        W81506  26.168   4.368   1.291
 9192W        W81507  32.171  31.246   4.847
 9193W        W81508  11.726  27.721  10.409
 9194W        W81509  15.341  35.916   1.965
 9195W        W81510  31.276   7.125  13.515
 9196W        W81511  18.139  23.141   3.210
 9197W        W81512  32.680   3.622  14.494
 9198W        W81513  10.180  32.006   9.842
 9199W        W81514  17.986  39.480   1.711
 9200W        W81515  40.324  22.141   3.272
 9201W        W81516   2.729  32.826   0.001
 9202W        W81517  20.484  32.064   3.777
 9203W        W81518  22.937  42.088   3.198
 9204W        W81519  39.302  25.424   3.794
 9205W        W81520  31.086  34.376  12.317
 9206W        W81521  10.865  35.470   0.389
 9207W        W81522  10.295  22.364  10.392
 9208W        W81523  10.833  21.325  12.844
 9209W        W81524   7.638  24.499   4.513
 9210W        W81525  16.799  39.003  11.866
 9211W        W81526   7.588  22.776   1.789
 9212W        W81527  26.738  25.259  11.938
 9213W        W81528  25.019   4.942   1.408
 9214W        W81529  29.044  35.300  12.422
 9215W        W81530  40.558  23.721   2.919
 9216W        W81531   4.319  15.942   1.804
 9217W        W81532  33.955  39.014  12.145
 9218W        W81533  27.815   7.278  10.084
 9219W        W81534  41.530  25.615   1.673
 9220W        W81535   2.859  26.944  13.515
 9221W        W81536  28.866   2.231  12.925
 9222W        W81537  23.579  30.636   3.172
 9223W        W81538  21.792  39.719   2.785
 9224W        W81539  39.555  44.975   3.828
 9225W        W81540  27.221   1.669  12.341
 9226W        W81541  28.388   6.865  11.517
 9227W        W81542  25.260  37.112   4.815
 9228W        W81543  32.886  18.981   2.411
 9229W        W81544  14.240  20.811   1.760
 9230W        W81545  14.701  29.622   2.751
 9231W        W81546  18.265  36.357  11.419
 9232W        W81547  30.657  26.084  13.088
 9233W        W81548  39.146  24.851  10.321
 9234W        W81549   0.884  29.038   0.592
 9235W        W81550  37.531  31.218  10.769
 9236W        W81551  10.993  28.881  13.395
 9237W        W81552   9.247  36.812   1.645
 9238W        W81553  28.522   3.155  11.542
 9239W        W81554  34.562  24.210  14.879
 9240W        W81555   6.630  19.271   1.852
 9241W        W81556  10.133  18.816  10.687
 9242W        W81557   0.806  42.030   4.717
 9243W        W81558  12.344  16.386  13.891
 9244W        W81559   0.412   5.711   2.832
 9245W        W81560  20.672  16.354  12.531
 9246W        W81561  35.295  26.075  11.127
 9247W        W81562  27.909  44.444   0.614
 9248W        W81563  23.793  24.729  14.952
 9249W        W81564   0.165  36.290   9.835
 9250W        W81565  28.935   5.319   4.449
 9251W        W81566  44.834  21.515  14.404
 9252W        W81567   9.389  20.141  11.174
 9253W        W81568   4.334   8.044  13.394
 9254W        W81569  14.182  19.121  14.157
 9255W        W81570  28.893  44.018   1.506
 9256W        W81571   4.004  42.248   4.584
 9257W        W81572   1.301  22.177  10.777
 9258W        W81573  29.216  14.863  14.157
 9259W        W81574   1.457   7.176   1.986
 9260W        W81575   8.186  16.543   1.946
 9261W        W81576   7.026   1.870   2.344
 9262W        W81577  15.124   5.281   3.332
 9263W        W81578   0.784  30.492   2.126
 9264W        W81579  37.343   2.574   2.613
 9265W        W81580  24.932  38.418   3.213
 9266W        W81581  21.711  37.998  11.884
 9267W        W81582  39.516  40.569  10.667
 9268W        W81583  36.718  43.214   1.419
 9269W        W81584   9.777  11.864  10.714
 9270W        W81585  17.198   3.763  12.981
 9271W        W81586  36.487  26.052  14.904
 9272W        W81587   3.313  22.633   3.963
 9273W        W81588  33.063  30.451   2.247
 9274W        W81589  32.938   0.308  11.104
 9275W        W81590   5.726  23.311  12.620
 9276W        W81591  23.123  28.354   2.174
 9277W        W81592  30.499  38.854   0.209
 9278W        W81593  33.367  30.663  14.850
 9279W        W81594  23.261  17.739  10.686
 9280W        W81595  38.990   8.104   1.717
 9281W        W81596   4.977  41.559   1.246
 9282W        W81597  15.325  14.839  11.083
 9283W        W81598  43.701  23.138   0.393
 9284W        W81599  38.815  39.575  14.286
 9285W        W81600  36.952  32.268   3.634
 9286W        W81601   0.247  20.574   1.726
 9287W        W81602  16.631  34.058  14.591
 9288W        W81603   7.111  15.783   3.169
 9289W        W81604  22.855  25.762  14.771
 9290W        W81605  33.092  36.633  14.372
 9291W        W81606   6.326  41.484   3.237
 9292W        W81607   9.727  29.416  11.052
 9293W        W81608  43.090   6.236  14.257
 9294W        W81609  44.238  25.948   2.955
 9295W        W81610   7.710  13.631  11.546
 9296W        W81611  15.286  42.061   0.751
 9297W        W81612   8.661  14.248   0.777
 9298W        W81613  38.118  33.877  11.963
 9299W        W81614  16.564  18.174   4.745
 9300W        W81615   3.080  35.351  12.951
 9301W        W81616  19.932   7.401   2.375
 9302W        W81617  34.320   4.274  14.849
 9303W        W81618  32.070  12.203   3.746
 9304W        W81619  28.916   6.566  10.166
 9305W        W81620  44.955  25.486   4.707
 9306W        W81621   4.982  24.597  12.023
 9307W        W81622  21.872  17.066  13.368
 9308W        W81623   2.436  40.524   0.539
 9309W        W81624  43.229  36.026   3.318
 9310W        W81625  13.435  34.453   2.846
 9311W        W81626  15.633   9.794   4.339
 9312W        W81627   3.214  37.774   0.898
 9313W        W81628  16.471  25.152  13.463
 9314W        W81629  30.379   7.400  14.980
 9315W        W81630  38.039  10.412  13.620
 9316W        W81631  36.154  17.771   1.363
 9317W        W81632   9.903  27.692   0.030
 9318W        W81633   2.129  17.260   3.841
 9319W        W81634  39.289  44.111   1.335
 9320W        W81635  39.070   4.173  12.409
 9321W        W81636  38.510  44.830   4.550
 9322W        W81637  28.608  22.466   2.314
 9323W        W81638   4.261  22.661  14.424
 9324W        W81639  29.612  36.902  14.248
 9325W        W81640  44.287  39.869  10.519
 9326W        W81641  44.903   7.044  10.776
 9327W        W81642  27.705  16.928   0.363
 9328W        W81643  24.745  22.060  11.167
 9329W        W81644   0.373  18.465  13.585
 9330W        W81645   8.750  29.556   3.930
 9331W        W81646   3.628  34.375  10.380
 9332W        W81647   7.119  37.401   1.776
 9333W        W81648   2.468   6.293  14.477
 9334W        W81649  18.487  35.319  14.366
 9335W        W81650  18.293  37.308   2.370
 9336W        W81651  20.152  29.690  10.753
 9337W        W81652  26.664   4.031  14.642
 9338W        W81653  12.862  13.297  13.939
 9339W        W81654   1.205  34.397  12.794
 9340W        W81655  18.487  32.220   4.310
 9341W        W81656  20.359  33.651  13.422
 9342W        W81657  25.496  31.739  12.411
 9343W        W81658  10.171   4.922  12.412
 9344W        W81659  40.489  36.955   1.935
 9345W        W81660  30.590  17.242  11.681
 9346W        W81661  19.766  14.892   3.350
 9347W        W81662  23.872  19.560   3.730
 9348W        W81663  42.280  24.971   2.986
 9349W        W81664   1.414  31.597  14.880
 9350W        W81665  14.718  43.410   3.230
 9351W        W81666  41.801   7.331   0.266
 9352W        W81667  26.455  26.135   0.348
 9353W        W81668  41.301  14.857   2.006
 9354W        W81669  11.315  14.099  12.943
 9355W        W81670  31.962   2.913   4.752
 9356W        W81671  10.888  30.693  14.409
 9357W        W81672   4.316   8.181  11.421
 9358W        W81673  13.819   8.674  10.550
 9359W        W81674   9.878   6.226   0.374
 9360W        W81675   8.732  39.809   0.694
 9361W        W81676   4.334   0.460   0.321
 9362W        W81677  36.997   2.799   3.375
 9363W        W81678  28.221  34.967   4.211
 9364W        W81679  21.003  16.306   2.214
 9365W        W81680   4.092  22.216  13.061
 9366W        W81681  32.598  33.446  11.203
 9367W        W81682   2.025  23.704   0.787
 9368W        W81683   6.207  28.498  14.085
 9369W        W81684  15.561  12.915   3.199
 9370W        W81685  42.871  11.633  11.066
 9371W        W81686  14.563  36.650   0.442
 9372W        W81687  25.945  14.792   4.485
 9373W        W81688   5.248   7.870  13.882
 9374W        W81689   1.319  31.018  10.632
 9375W        W81690  33.894  43.135  12.691
 9376W        W81691   2.511  17.072   0.234
 9377W        W81692  34.143  37.897   3.703
 9378W        W81693  35.023  37.064   1.235
 9379W        W81694  28.293   0.874   2.795
 9380W        W81695  24.656  39.995  13.825
 9381W        W81696  31.541  35.145  10.884
 9382W        W81697  17.664  37.694   3.633
 9383W        W81698  24.969  17.706  11.193
 9384W        W81699  31.914  17.082  10.673
 9385W        W81700  17.337  17.186  11.057
 9386W        W81701  19.098  11.311  11.927
 9387W        W81702  38.784  28.179   4.342
 9388W        W81703   6.725   1.317  12.070
 9389W        W81704   2.765  34.641   0.806
 9390W        W81705   8.726   6.736  11.621
 9391W        W81706  27.941  42.762   3.182
 9392W        W81707   8.658  32.123  10.194
 9393W        W81708  37.344  38.302  11.657
 9394W        W81709   2.282  38.647  12.531
 9395W        W81710  42.764  38.154  13.866
 9396W        W81711   3.941  23.212   1.840
 9397W        W81712  39.362  19.998  10.625
 9398W        W81713  33.945  10.317   2.568
 9399W        W81714   3.471  40.940  11.376
 9400W        W81715  41.538  18.590  11.947
 9401W        W81716  10.622  33.039   1.273
 9402W        W81717   8.706  16.669   2.416
 9403W        W81718  21.568  40.523   1.944
 9404W        W81719   6.838   6.096  11.926
 9405W        W81720  37.617  31.049  12.102
 9406W        W81721  26.937  43.989   3.989
 9407W        W81722   3.650  11.372   0.884
 9408W        W81723  11.360  30.897  10.484
 9409W        W81724  37.954  44.361  14.782
 9410W        W81725  10.384   1.295   3.741
 9411W        W81726   8.293  25.498  12.581
 9412W        W81727   9.467  30.674   2.692
 9413W        W81728  43.397  21.711   3.854
 9414W        W81729  10.494   3.376   3.240
 9415W        W81730  11.329  36.355  13.975
 9416W        W81731   1.904  10.436   5.046
 9417W        W81732  32.396  11.037  13.432
 9418W        W81733  25.668  34.309  12.000
 9419W        W81734   6.134  20.455  14.031
 9420W        W81735  30.533   3.586   1.934
 9421W        W81736  40.391  42.815   2.102
 9422W        W81737   0.262   7.959   3.394
 9423W        W81738   8.575  40.072   5.215
 9424W        W81739  16.824  44.468   2.238
 9425W        W81740  42.044  33.461   1.801
 9426W        W81741  19.689   4.258  12.127
 9427W        W81742  11.497  21.467  13.987
 9428W        W81743  16.751  27.391   3.311
 9429W        W81744  10.854  33.456  10.783
 9430W        W81745  31.362  31.497  13.473
 9431W        W81746   0.930  13.882   3.172
 9432W        W81747  26.022   0.016  12.157
 9433W        W81748  41.781  17.304   5.043
 9434W        W81749  32.419  32.994   4.525
 9435W        W81750   4.999  20.479  13.356
 9436W        W81751  29.934  28.179   4.407
 9437W        W81752  28.617  33.033  13.043
 9438W        W81753  19.328  25.189   4.281
 9439W        W81754  34.969  29.118   0.582
 9440W        W81755  44.231  22.459   0.575
 9441W        W81756   7.464  31.139  11.548
 9442W        W81757   7.978  24.361  12.894
 9443W        W81758  34.362  19.085   0.613
 9444W        W81759  24.445  28.480   3.270
 9445W        W81760   1.321  39.000  12.570
 9446W        W81761  14.314   7.403   1.313
 9447W        W81762  44.424  23.573   1.268
 9448W        W81763  33.071  22.480  13.786
 9449W        W81764  12.728  16.627   3.081
 9450W        W81765  36.751  35.877  11.630
 9451W        W81766  25.444   5.995   4.763
 9452W        W81767  10.382  28.962   1.804
 9453W        W81768  26.965  32.871   1.692
 9454W        W81769  44.835  21.321  10.971
 9455W        W81770   7.763  24.635  14.217
 9456W        W81771  25.089   9.558   3.642
 9457W        W81772  27.953  10.137  10.509
 9458W        W81773  14.293  16.901   4.064
 9459W        W81774   6.905  24.207   3.813
 9460W        W81775  26.745  31.782   2.735
 9461W        W81776  40.382  35.373  11.495
 9462W        W81777   6.767  41.985  13.415
 9463W        W81778  44.328  39.926  11.540
 9464W        W81779  34.334  17.154   3.273
 9465W        W81780  30.421  36.455  10.603
 9466W        W81781  21.239  20.030  12.441
 9467W        W81782  21.255  33.786   2.841
 9468W        W81783  28.545  23.133   4.067
 9469W        W81784  16.957   3.233  10.032
 9470W        W81785  29.425  24.091  13.817
 9471W        W81786   8.615  19.742  12.925
 9472W        W81787  37.316  34.992  10.650
 9473W        W81788  18.988  44.814   3.227
 9474W        W81789  22.436  17.277   2.668
 9475W        W81790  16.669   1.572  11.472
 9476W        W81791  19.172  26.624  12.939
 9477W        W81792  23.734  35.314  12.487
 9478W        W81793  23.680  11.813   3.282
 9479W        W81794  11.625  12.116   4.010
 9480W        W81795  16.834  32.569   1.952
 9481W        W81796  36.043  12.817   0.915
 9482W        W81797  35.108  16.809  10.362
 9483W        W81798  38.112  26.713  10.147
 9484W        W81799   9.496  13.123  11.011
 9485W        W81800   3.273  13.195  11.583
 9486W        W81801  30.243  38.561  14.837
 9487W        W81802  10.321  13.347  12.040
 9488W        W81803  32.130  39.771  13.607
 9489W        W81804   0.497  26.040   2.380
 9490W        W81805  28.667  40.107  11.585
 9491W        W81806  44.392  28.419  11.351
 9492W        W81807  44.824  42.284   2.375
 9493W        W81808  22.565  40.597  13.801
 9494W        W81809  24.806  35.486  14.297
 9495W        W81810  11.760  12.542  13.690
 9496W        W81811  12.674  36.844  14.449
 9497W        W81812  13.114   6.850  10.633
 9498W        W81813   9.599  25.586   1.951
 9499W        W81814  38.222  16.866  14.887
 9500W        W81815  25.209  28.234   2.194
 9501W        W81816  20.878  43.073  11.843
 9502W        W81817  19.431   1.682   0.769
 9503W        W81818   3.589  15.146   2.228
 9504W        W81819   0.758  37.314   5.132
 9505W        W81820  42.788  10.177  14.755
 9506W        W81821  21.286  25.194   0.318
 9507W        W81822  24.235  14.666  11.594
 9508W        W81823   8.632   4.525   3.385
 9509W        W81824  43.281   8.382   1.676
 9510W        W81825  40.349  16.066   3.474
 9511W        W81826  42.769  42.835  13.476
 9512W        W81827  14.232  27.895   2.201
 9513W        W81828   4.195  35.840  13.152
 9514W        W81829  37.275   8.963  10.648
 9515W        W81830  39.694  14.704   0.903
 9516W        W81831  38.537  10.360   2.513
 9517W        W81832  29.478   7.314   1.677
 9518W        W81833  19.772  13.521  14.306
 9519W        W81834  42.860  18.340  13.593
 9520W        W81835  31.465   5.261   4.579
 9521W        W81836  43.767  44.481   4.541
 9522W        W81837   6.363   5.232  10.532
 9523W        W81838  16.762  12.612  12.089
 9524W        W81839  10.910   0.010   0.824
 9525W        W81840  33.038  11.742   4.737
 9526W        W81841  14.990   0.160  14.571
 9527W        W81842  15.815  21.263  13.469
 9528W        W81843  28.277  10.038  14.460
 9529W        W81844  16.731  19.169  12.857
 9530W        W81845  24.681  10.709  14.256
 9531W        W81846  11.611  44.066   4.211
 9532W        W81847  36.408  14.413  14.792
 9533W        W81848  43.064  21.988  10.800
 9534W        W81849   4.925  12.175   4.561
 9535W        W81850  41.906   5.904  10.715
 9536W        W81851  27.705  31.689  10.375
 9537W        W81852   4.455  21.028  13.991
 9538W        W81853  18.953  41.281  13.528
 9539W        W81854  33.492  35.389  10.696
 9540W        W81855  41.038  30.640  12.066
 9541W        W81856   1.159   8.240   3.249
 9542W        W81857  35.527  20.614   3.592
 9543W        W81858  28.962  18.777   0.733
 9544W        W81859  29.856  18.657   4.127
 9545W        W81860   5.670  11.059  10.929
 9546W        W81861  38.231  13.732   2.142
 9547W        W81862   2.181  30.792  11.176
 9548W        W81863  30.130  15.602  11.174
 9549W        W81864  41.815   7.595  13.312
 9550W        W81865  29.527   4.659   3.311
 9551W        W81866   9.874  21.713  13.006
 9552W        W81867  35.086  33.956  10.345
 9553W        W81868  32.234   7.545   3.213
 9554W        W81869  21.005  23.849   5.051
 9555W        W81870   8.894  14.599  12.460
 9556W        W81871  17.089   2.440  14.482
 9557W        W81872  18.298  31.911   3.720
 9558W        W81873  41.400   6.814   1.819
 9559W        W81874  20.736  23.487   1.818
 9560W        W81875  29.696  16.349  11.346
 9561W        W81876  25.492  17.782   1.208
 9562W        W81877  42.268   3.414   1.274
 9563W        W81878  38.220  38.935  13.303
 9564W        W81879  25.238   5.303  14.458
 9565W        W81880   7.728  11.236  11.661
 9566W        W81881  19.506  37.920   0.505
 9567W        W81882  38.050   0.222   0.419
 9568W        W81883  32.923   9.872  12.323
 9569W        W81884  23.730  43.062  11.883
 9570W        W81885  20.270   4.926  14.923
 9571W        W81886  23.609  20.865   1.290
 9572W        W81887  13.179  33.886  13.751
 9573W        W81888   5.250  19.462   4.064
 9574W        W81889  30.024  23.517   3.059
 9575W        W81890  10.725  26.592  14.804
 9576W        W81891  43.272  18.527  12.449
 9577W        W81892  32.135  27.488  13.448
 9578W        W81893  23.676  29.954   4.436
 9579W        W81894  44.803  38.969  10.696
 9580W        W81895  21.349   1.700   1.296
 9581W        W81896  35.732   9.029  13.977
 9582W        W81897  10.703  22.280  13.285
 9583W        W81898  21.094   8.606  12.069
 9584W        W81899  35.412  17.256  12.906
 9585W        W81900   7.387   5.240  13.910
 9586W        W81901  10.685  34.520   1.327
 9587W        W81902  41.907  43.893  12.146
 9588W        W81903  33.471  36.873  10.522
 9589W        W81904   6.219  34.900   3.066
 9590W        W81905  28.845   5.771  11.018
 9591W        W81906  20.442  44.501  12.569
 9592W        W81907  17.594   6.803   4.376
 9593W        W81908   9.123  23.695  14.134
 9594W        W81909  23.448   2.001  13.577
 9595W        W81910  26.469   5.741   2.348
 9596W        W81911  25.098  18.881  10.712
 9597W        W81912  26.476   4.399  14.952
 9598W        W81913  26.190  19.658  14.358
 9599W        W81914   3.381  29.448   0.434
 9600W        W81915  11.311   7.028  12.474
 9601W        W81916  20.779  11.117  14.366
 9602W        W81917  42.229  19.744   4.170
 9603W        W81918  22.855   1.673   0.292
 9604W        W81919  31.662  43.427   3.291
 9605W        W81920   4.310   5.366   0.279
 9606W        W81921  22.366   6.087   1.326
 9607W        W81922   4.004   1.487  10.021
 9608W        W81923   8.400  14.572  12.547
 9609W        W81924   7.785  30.611  12.004
 9610W        W81925  33.149  15.645   2.353
 9611W        W81926   9.255   1.998   2.787
 9612W        W81927   8.970  41.791   1.448
 9613W        W81928  34.378  42.134  10.728
 9614W        W81929  33.911  39.369  10.827
 9615W        W81930  13.604  11.101   1.910
 9616W        W81931  32.513  36.263  11.188
 9617W        W81932   9.387  24.101  12.788
 9618W        W81933  18.134   4.766  13.350
 9619W        W81934  23.025  43.811  12.910
 9620W        W81935   5.179  22.769   0.722
 9621W        W81936  24.187  24.447   3.052
 9622W        W81937  33.935  31.064  14.471
 9623W        W81938  11.881  28.183  10.613
 9624W        W81939  16.532  26.917  14.987
 9625W        W81940  15.963  40.864  13.397
 9626W        W81941  36.893   1.616   0.926
 9627W        W81942   0.845  27.460   2.701
 9628W        W81943  14.596  21.345  13.410
 9629W        W81944  43.408  18.302  13.544
 9630W        W81945   4.285   0.319   3.223
 9631W        W81946  25.725  13.898  11.108
 9632W        W81947  29.244   2.268   4.171
 9633W        W81948  30.590   5.717  14.516
 9634W        W81949  41.490  43.404   0.546
 9635W        W81950  15.769  22.694   2.351
 9636W        W81951   9.867  13.364   1.923
 9637W        W81952  13.599   1.937  13.051
 9638W        W81953   6.903   1.895  14.306
 9639W        W81954  25.328  30.492   1.294
 9640W        W81955  21.934  36.838  12.378
 9641W        W81956   2.127  20.094   4.565
 9642W        W81957  31.089  15.252   1.530
 9643W        W81958  16.779  29.396   2.165
 9644W        W81959  39.781  13.239   3.335
 9645W        W81960  44.190  38.009  14.893
 9646W        W81961  15.467  16.231   2.347
 9647W        W81962  23.259  12.577   1.431
 9648W        W81963  22.234  32.373   2.838
 9649W        W81964  39.255   4.463   4.210
 9650W        W81965  42.750  26.396   1.882
 9651W        W81966  12.184  43.826  12.436
 9652W        W81967  30.748  20.532  11.648
 9653W        W81968   1.420  26.472   1.339
 9654W        W81969  35.098   4.985  11.897
 9655W        W81970  24.706  38.586  13.593
 9656W        W81971  16.344  28.674   0.365
 9657W        W81972  11.693  16.227  10.172
 9658W        W81973  16.775  28.929  13.456
 9659W        W81974   8.291  40.351   0.370
 9660W        W81975  31.929  12.519  11.225
 9661W        W81976  12.226  37.123  13.371
 9662W        W81977  22.162   9.695  14.866
 9663W        W81978   6.455  19.404  14.243
 9664W        W81979  30.377  37.280  14.515
 9665W        W81980  15.805  41.757   5.070
 9666W        W81981  19.513  27.182  11.612
 9667W        W81982  42.966  33.954  12.911
 9668W        W81983  36.166  10.738   3.309
 9669W        W81984  33.650   9.090  14.868
 9670W        W81985  17.530  21.559  12.056
 9671W        W81986  25.932  40.486   0.270
 9672W        W81987  33.340  43.442  11.784
 9673W        W81988  31.692   0.072  10.849
 9674W        W81989  16.145  18.718  14.503
 9675W        W81990  38.217  14.228  12.444
 9676W        W81991  19.282  24.102   1.957
 9677W        W81992  24.621  31.084  13.819
 9678W        W81993  23.279  43.979  14.869
 9679W        W81994  42.365  41.933   3.864
 9680W        W81995  32.273  31.048  12.179
 9681W        W81996   0.337  17.254   2.415
 9682W        W81997  26.623  32.093   5.495
 9683W        W81998   3.386  38.443   4.176
 9684W        W81999  18.827  26.967  14.945
 9685W        W82000  39.403  35.036  10.850
 9686W        W82001  10.729  27.024  10.234
 9687W        W82002  22.091   6.375  11.040
 9688W        W82003  13.393  26.911  10.271
 9689W        W82004  36.928  31.254   3.634
 9690W        W82005  32.910   2.633   2.241
 9691W        W82006  27.629  35.332   0.061
 9692W        W82007   0.298  38.623   3.653
 9693W        W82008  25.144  18.884   3.750
 9694W        W82009   2.358  32.624  14.295
 9695W        W82010  28.675   3.478   2.316
 9696W        W82011  34.109   4.684   3.924
 9697W        W82012   0.879  20.344  14.177
 9698W        W82013  33.517  15.713   0.377
 9699W        W82014  44.392  44.505  14.910
 9700W        W82015  38.192  26.923   5.210
 9701W        W82016  14.883   3.947  10.736
 9702W        W82017   4.093  11.675  10.513
 9703W        W82018  40.037  35.091   1.749
 9704W        W82019  26.596  42.425   2.253
 9705W        W82020  24.645  13.658  11.688
 9706W        W82021   8.862  32.597  14.944
 9707W        W82022  42.282  30.608   0.245
 9708W        W82023  35.145   5.783  14.048
 9709W        W82024  41.866  43.773   1.189
 9710W        W82025  25.137  32.010   4.643
 9711W        W82026  41.233  28.973  11.980
 9712W        W82027  29.561  22.569   0.334
 9713W        W82028  20.635  24.186   4.251
 9714W        W82029  20.523  38.795   4.178
 9715W        W82030  18.445   1.727   1.441
 9716W        W82031  23.349  35.708  12.435
 9717W        W82032  31.149   4.425  12.735
 9718W        W82033  14.118  40.091   1.405
 9719W        W82034  41.560  11.300   4.876
 9720W        W82035   0.179  16.181  11.033
 9721W        W82036  10.071  34.620   5.138
 9722W        W82037  39.813  37.816   2.287
 9723W        W82038  30.372  38.473  11.551
 9724W        W82039   0.917  38.417  13.321
 9725W        W82040   1.700  33.691   3.385
 9726W        W82041  19.546   6.399   1.367
 9727W        W82042  40.237  23.306   0.434
 9728W        W82043  10.961  40.666  14.033
 9729W        W82044  38.897  21.038   3.416
 9730W        W82045  12.476  36.693   4.403
 9731W        W82046   0.282  15.756   4.664
 9732W        W82047   6.447  22.020   1.467
 9733W        W82048  11.109   7.729   3.391
 9734W        W82049   4.904   6.917  10.330
 9735W        W82050  43.950  29.180  11.559
 9736W        W82051  23.470  27.096  14.561
 9737W        W82052  14.537  40.308   2.800
 9738W        W82053  44.446   1.627  10.233
 9739W        W82054  15.809  24.057  14.924
 9740W        W82055  32.908  40.910  14.377
 9741W        W82056  26.245  24.736   1.730
 9742W        W82057  23.567  23.108  13.917
 9743W        W82058  43.847  17.818   1.907
 9744W        W82059   4.065   1.062   1.848
 9745W        W82060  21.086  24.422   2.607
 9746W        W82061   2.857  12.294   4.642
 9747W        W82062  42.380  42.141   0.221
 9748W        W82063  40.822  14.582   3.779
 9749W        W82064  36.844  29.109  11.196
 9750W        W82065  41.598  26.136  12.667
 9751W        W82066  24.667  15.744  12.546
 9752W        W82067  28.357  41.392  10.124
 9753W        W82068  32.054  43.810   1.118
 9754W        W82069  13.040  12.044   4.177
 9755W        W82070  42.248  20.608   4.343
 9756W        W82071  17.693  44.649   1.934
 9757W        W82072  30.889  16.770   2.474
 9758W        W82073  44.532  38.062   0.754
 9759W        W82074  43.005   6.315  13.751
 9760W        W82075  21.018   9.829  11.620
 9761W        W82076  13.658  16.968  11.477
 9762W        W82077  32.999  43.074  12.438
 9763W        W82078  41.310   9.308  13.809
 9764W        W82079  42.296  13.645  13.616
 9765W        W82080   1.856  21.535  10.660
 9766W        W82081  11.026  41.040   4.838
 9767W        W82082   2.310  33.827  11.552
 9768W        W82083  27.597   3.204   0.864
 9769W        W82084  42.800  18.849  10.707
 9770W        W82085  13.791  25.032  14.729
 9771W        W82086  24.553  21.811   9.908
 9772W        W82087  13.657  12.117  12.195
 9773W        W82088  34.692  26.242   3.221
 9774W        W82089  12.189   4.344   1.799
 9775W        W82090  41.302   4.028  14.451
 9776W        W82091  42.713  27.080   4.438
 9777W        W82092  18.339  40.290  11.536
 9778W        W82093  16.176  14.634   2.756
 9779W        W82094  25.754  38.273  12.317
 9780W        W82095  19.986  44.248  12.630
 9781W        W82096  31.986  13.231   4.649
 9782W        W82097  24.619  30.489  12.615
 9783W        W82098  40.850  33.650  11.601
 9784W        W82099  30.022  30.546   4.611
 9785W        W82100  37.458   8.462  13.416
 9786W        W82101  25.589   5.643   1.906
 9787W        W82102  11.504  41.507   4.186
 9788W        W82103   2.657  42.994   1.941
 9789W        W82104   2.989   6.300  11.114
 9790W        W82105  13.157   6.900   0.926
 9791W        W82106  11.704  34.724   3.615
 9792W        W82107  41.443  34.403  14.542
 9793W        W82108   3.742  21.995  10.319
 9794W        W82109  11.222  15.394  13.405
 9795W        W82110  43.694  41.042  11.004
 9796W        W82111  22.013  10.196  14.278
 9797W        W82112  26.970  38.000  14.824
 9798W        W82113   7.708   4.372   2.414
 9799W        W82114   9.926  40.489   3.391
 9800W        W82115  44.998  43.853   2.443
 9801W        W82116  24.926  40.347   0.207
 9802W        W82117  12.655   3.393   4.123
 9803W        W82118  38.630  33.160  14.417
 9804W        W82119   6.825  21.206   2.763
 9805W        W82120  15.568  29.401  12.956
 9806W        W82121  38.106  43.506  11.493
 9807W        W82122  20.264  14.883  14.986
 9808W        W82123  26.607  12.619   2.840
 9809W        W82124  41.291  33.229   1.490
 9810W        W82125   7.456   8.055   4.241
 9811W        W82126  24.636  17.219   2.353
 9812W        W82127  26.214  20.616  14.941
 9813W        W82128   3.260  11.301  10.785
 9814W        W82129  26.831   8.702   0.960
 9815W        W82130  26.766  15.905   0.027
 9816W        W82131  29.064  27.798  14.784
 9817W        W82132  27.472  17.660   1.231
 9818W        W82133  30.225  18.538   2.767
 9819W        W82134  10.202  30.337   1.795
 9820W        W82135  27.903  31.938  11.950
 9821W        W82136   0.700   0.470  10.686
 9822W        W82137   3.736  37.830   4.602
 9823W        W82138  32.951  33.163  14.313
 9824W        W82139   5.815  13.755   2.676
 9825W        W82140  26.453  34.973   1.407
 9826W        W82141  32.631   1.420   4.453
 9827W        W82142  32.855  16.581  13.324
 9828W        W82143   0.513   9.595   2.459
 9829W        W82144  11.348  30.634   1.950
 9830W        W82145   6.712   8.813   2.176
 9831W        W82146  12.912  17.960  11.187
 9832W        W82147  21.125   1.320  13.833
 9833W        W82148  33.964  26.922   2.162
 9834W        W82149  18.419  19.152  10.690
 9835W        W82150   2.795  27.994   2.179
 9836W        W82151   8.412  17.016   2.096
 9837W        W82152  27.049  28.711   3.295
 9838W        W82153   9.736   7.177  11.068
 9839W        W82154  40.799  31.659   0.065
 9840W        W82155  41.379   9.235   2.337
 9841W        W82156  16.108  22.032  12.102
 9842W        W82157  19.035  13.642  11.939
 9843W        W82158  33.637  14.507   3.569
 9844W        W82159  14.318  23.174  10.727
 9845W        W82160  21.992  39.454   0.426
 9846W        W82161  28.412  16.264   3.990
 9847W        W82162  15.175  23.096   5.058
 9848W        W82163  22.059  37.325   4.495
 9849W        W82164  32.632  43.564  11.105
 9850W        W82165  40.523  28.944  14.512
 9851W        W82166   0.254   0.868  13.317
 9852W        W82167  21.873  23.580  14.636
 9853W        W82168  17.351   7.798   0.721
 9854W        W82169  35.139   3.237   0.175
 9855W        W82170  19.782  17.667  12.995
 9856W        W82171   5.272  14.563  12.566
 9857W        W82172  36.974  14.384   2.809
 9858W        W82173   4.911  22.430  12.105
 9859W        W82174  13.054  17.278   2.665
 9860W        W82175   5.376   3.428   3.157
 9861W        W82176  17.388  40.382  10.660
 9862W        W82177  26.638   4.162   5.544
 9863W        W82178   5.846  21.540   4.481
 9864W        W82179   0.386   3.795  14.199
 9865W        W82180  28.114  12.646   1.655
 9866W        W82181  39.383  28.147   2.784
 9867W        W82182  39.568   3.303  13.976
 9868W        W82183  19.287  27.196  11.153
 9869W        W82184   1.898  38.057  10.873
 9870W        W82185  29.217   0.832  11.920
 9871W        W82186   8.264  30.600   4.700
 9872W        W82187  11.971   6.115   1.909
 9873W        W82188  34.765  11.282  12.021
 9874W        W82189  39.497  20.186   1.321
 9875W        W82190  32.759  21.120  13.827
 9876W        W82191   3.510  15.775  11.179
 9877W        W82192   9.826  17.296  10.473
 9878W        W82193   3.733  34.421  12.892
 9879W        W82194  17.785  37.262  13.869
 9880W        W82195  18.148  27.567   4.752
 9881W        W82196  35.993  27.911  13.023
 9882W        W82197  30.078  28.709  13.624
 9883W        W82198  31.966   7.770   2.822
 9884W        W82199   0.736  29.068   2.993
 9885W        W82200  38.395  37.444   3.705
 9886W        W82201  12.963   5.917  10.416
 9887W        W82202  35.413  25.673  11.922
 9888W        W82203  44.629  27.906  13.663
 9889W        W82204   0.288  42.790   1.259
 9890W        W82205   1.943  27.533   2.691
 9891W        W82206  33.599  37.932  10.962
 9892W        W82207  21.193   3.896   0.805
 9893W        W82208   7.794  11.769   4.771
 9894W        W82209   7.213  36.424  10.363
 9895W        W82210  41.760  27.091   2.809
 9896W        W82211  18.910   7.034   1.306
 9897W        W82212  13.878   6.879  11.869
 9898W        W82213   3.460   8.729   0.362
 9899W        W82214  36.003  19.967   4.097
 9900W        W82215  43.876   5.354   3.915
 9901W        W82216  27.670  12.392  10.678
 9902W        W82217  31.150  30.975  13.421
 9903W        W82218   6.460  27.631  11.330
 9904W        W82219  17.384  38.869   3.132
 9905W        W82220  22.681  22.468   0.663
 9906W        W82221  23.410  44.870  13.930
 9907W        W82222  10.652   7.719   3.157
 9908W        W82223   3.042  39.359  12.404
 9909W        W82224  17.113  38.777  14.432
 9910W        W82225  42.878  13.582  14.418
 9911W        W82226  28.158  12.372   3.466
 9912W        W82227  28.035   7.567   1.405
 9913W        W82228  27.622  30.232  13.693
 9914W        W82229  29.398  29.169   3.118
 9915W        W82230  28.767  15.159   3.104
 9916W        W82231  28.699   9.185   2.634
 9917W        W82232  27.967   2.955  13.462
 9918W        W82233  16.543  13.172  12.890
 9919W        W82234  13.877  44.781   1.436
 9920W        W82235   0.950  28.483  10.479
 9921W        W82236  30.024  22.007  10.622
 9922W        W82237  11.269   4.195   1.337
 9923W        W82238  15.995  25.174   4.579
 9924W        W82239   9.349  34.046   3.288
 9925W        W82240  30.073  41.333  14.069
 9926W        W82241  24.962   9.139   3.213
 9927W        W82242  29.038  40.003  12.426
 9928W        W82243  33.939  20.835   1.747
 9929W        W82244  24.040  29.503   0.830
 9930W        W82245  44.279  16.075   1.745
 9931W        W82246   0.333  27.721  11.356
 9932W        W82247  25.445   0.421   1.632
 9933W        W82248  40.886   1.948  14.559
 9934W        W82249  40.099   9.213  10.742
 9935W        W82250   5.740  40.414   3.831
 9936W        W82251  34.937  23.937   2.278
 9937W        W82252  32.192  10.793   0.694
 9938W        W82253  21.323   1.679   4.282
 9939W        W82254  31.398  13.716   4.128
 9940W        W82255   9.736  25.182   1.151
 9941W        W82256  42.881  29.593   2.273
 9942W        W82257  14.651   1.660  10.980
 9943W        W82258  42.409  12.363  12.534
 9944W        W82259  42.780  36.992  14.323
 9945W        W82260  22.613  39.911   0.020
 9946W        W82261   1.850  14.540   2.355
 9947W        W82262  43.956  15.560   5.000
 9948W        W82263  20.200  39.091   1.291
 9949W        W82264  20.550  44.504  11.653
 9950W        W82265  21.030   2.640  14.040
 9951W        W82266  29.611  37.383   0.995
 9952W        W82267   2.215  44.573   1.808
 9953W        W82268  39.259  35.357   2.655
 9954W        W82269  30.730   1.379  11.139
 9955W        W82270   2.739  37.446  10.761
 9956W        W82271   7.168   9.322   0.262
 9957W        W82272  20.709   1.284   2.996
 9958W        W82273   9.729  16.475   5.536
 9959W        W82274  36.305  39.083  14.351
 9960W        W82275   9.156  12.295  14.328
 9961W        W82276  14.178  21.449  12.006
 9962W        W82277  21.472  39.399   0.228
 9963W        W82278  30.013  39.994  14.470
 9964W        W82279  10.130  16.156  10.636
 9965W        W82280  24.365  14.072  13.402
 9966W        W82281  13.841   5.276  12.957
 9967W        W82282  16.341  38.911   0.255
 9968W        W82283  33.444   7.333   0.054
 9969W        W82284  26.581  44.204   3.696
 9970W        W82285  23.204  35.854  14.931
 9971W        W82286  43.194   1.215   1.261
 9972W        W82287  13.745  34.130  12.456
 9973W        W82288  36.091  26.668  10.657
 9974W        W82289   6.217  17.289  13.691
 9975W        W82290  28.729  23.247  10.774
 9976W        W82291  34.478   6.293   0.957
 9977W        W82292  18.810   2.829  10.560
 9978W        W82293  15.253  36.434   4.825
 9979W        W82294  40.680   4.732   3.673
 9980W        W82295  24.234  32.697  13.028
 9981W        W82296  30.504  25.501  12.026
 9982W        W82297  13.291  22.490  13.926
 9983W        W82298  29.553  33.915   2.871
 9984W        W82299  15.711  41.360   1.656
 9985W        W82300  38.459  10.942  11.630
 9986W        W82301  15.784  22.942  11.252
 9987W        W82302   6.665   7.219   2.999
 9988W        W82303  27.452  25.437   0.786
 9989W        W82304   8.951  43.885  13.812
 9990W        W82305   7.124  18.256  13.437
 9991W        W82306  37.696   0.332   4.593
 9992W        W82307  40.601  23.311   2.607
 9993W        W82308  32.690  18.748  12.008
 9994W        W82309  16.359  42.118   4.184
 9995W        W82310  12.748  26.695   0.401
 9996W        W82311  43.190  25.625  14.591
 9997W        W82312  16.166  36.742  10.572
 9998W        W82313  31.077  21.777  12.553
 9999W        W82314  33.076  25.371   3.722
10000W        W82315   9.210  23.921  11.906
10001W        W82316  16.135  31.603   1.654
10002W        W82317   0.963  33.469  11.075
10003W        W82318  21.050  20.359   1.261
10004W        W82319  43.830  11.468  10.671
10005W        W82320  27.126   9.730   1.871
10006W        W82321  23.121  27.095  14.976
10007W        W82322  19.706  23.531  13.949
10008W        W82323   1.126  15.065   1.018
10009W        W82324  32.931  28.981   3.233
10010W        W82325   9.939   2.737   2.962
10011W        W82326  36.482   1.278  14.318
10012W        W82327   1.853  32.606   4.115
10013W        W82328  42.022  24.659  11.817
10014W        W82329  10.578   1.791   0.322
10015W        W82330  17.278  16.502  14.108
10016W        W82331  44.013  14.306   4.046
10017W        W82332   9.208  40.071  11.686
10018W        W82333  25.941   3.672   3.100
10019W        W82334   2.982  19.810  12.921
10020W        W82335   8.696  19.614  11.193
10021W        W82336  18.602  11.483  11.773
10022W        W82337   5.624  44.372   2.100
10023W        W82338  17.329  44.120  12.006
10024W        W82339  32.543   5.343  11.611
10025W        W82340  33.397  25.792  14.755
10026W        W82341  19.500   4.896   2.809
10027W        W82342  26.118   1.133   4.711
10028W        W82343   7.711  35.612  11.197
10029W        W82344  33.064  37.802   3.610
10030W        W82345  29.354  14.413  13.315
10031W        W82346   2.348  33.410   2.748
10032W        W82347  37.406  35.052   3.776
10033W        W82348   8.218   1.466  11.890
10034W        W82349   7.158  37.014   1.423
10035W        W82350   9.338  26.536  11.545
10036W        W82351  41.287  39.948  14.351
10037W        W82352  19.746  15.250   4.659
10038W        W82353  33.453   6.823  14.355
10039W        W82354  11.722  32.684   3.692
10040W        W82355   1.240  26.130   0.597
10041W        W82356  33.430   2.344   2.777
10042W        W82357   4.533  14.754  14.009
10043W        W82358  18.106  33.108   2.820
10044W        W82359  20.873  13.255   2.410
10045W        W82360  21.640   6.118   2.783
10046W        W82361  18.990   7.599   9.803
10047W        W82362  43.536  35.616   2.671
10048W        W82363  15.416  33.022  12.497
10049W        W82364   2.026  38.408   1.895
10050W        W82365  22.118  33.068  11.621
10051W        W82366   0.757  43.804  13.433
10052W        W82367  29.259  44.319   5.098
10053W        W82368  29.016  40.308  13.976
10054W        W82369  18.710   1.235   3.775
10055W        W82370  13.071  11.873  10.572
10056W        W82371   9.215   6.048   2.294
10057W        W82372  16.050   4.200   4.730
10058W        W82373  28.669  26.252   1.927
10059W        W82374  10.179  20.080   2.637
10060W        W82375  23.995  25.161  10.686
10061W        W82376  32.644  10.280  10.745
10062W        W82377  42.603  23.614  11.344
10063W        W82378  13.448  24.227   4.622
10064W        W82379  30.514  40.111   3.235
10065W        W82380  14.207  41.226   0.776
10066W        W82381  17.373  41.061  11.163
10067W        W82382  35.483  33.845  13.591
10068W        W82383   5.196  22.964   4.477
10069W        W82384  33.092  35.097  14.963
10070W        W82385  36.570  39.358  13.008
10071W        W82386  22.314  26.116   0.206
10072W        W82387  19.035  20.778  10.065
10073W        W82388  41.697   6.363   3.785
10074W        W82389  37.449  19.775  11.253
10075W        W82390  26.103  34.108   9.514
10076W        W82391  17.548  17.119  11.556
10077W        W82392  38.344  36.258  10.894
10078W        W82393   2.889  28.991  14.752
10079W        W82394  44.768  30.341   4.620
10080W        W82395  20.165  34.604   2.226
10081W        W82396  39.042  36.806   4.632
10082W        W82397  22.054  37.625  11.942
10083W        W82398  33.935  30.083   0.358
10084W        W82399  15.218  28.912  10.829
10085W        W82400  20.140  12.307  10.714
10086W        W82401  16.186  38.093   2.658
10087W        W82402   7.965  17.327   4.531
10088W        W82403  31.660  28.433  12.942
10089W        W82404  27.934   8.452   0.391
10090W        W82405  24.029  26.273   3.244
10091W        W82406  43.567  30.434   4.509
10092W        W82407  21.607  12.032  10.230
10093W        W82408  35.893   0.273   0.836
10094W        W82409  14.609  12.231   2.287
10095W        W82410   3.732  30.494   3.198
10096W        W82411  39.356  32.638   1.267
10097W        W82412  37.422   9.799   2.426
10098W        W82413  20.154  30.954   1.983
10099W        W82414  20.646  23.066   4.667
10100W        W82415  12.346  27.620   0.343
10101W        W82416  10.985  29.299   3.729
10102W        W82417  41.037  14.571  11.976
10103W        W82418  10.121  44.937   3.759
10104W        W82419  24.957  20.284   1.791
10105W        W82420  14.769  41.778  12.965
10106W        W82421  15.858  27.463   2.310
10107W        W82422  42.071   4.118  13.029
10108W        W82423  21.354  18.785   1.131
10109W        W82424  34.173  24.042  13.754
10110W        W82425  18.749  27.952  14.482
10111W        W82426   4.428   9.842   4.816
10112W        W82427  29.076  30.420   2.850
10113W        W82428  33.408  31.164  12.532
10114W        W82429  38.371  40.542  12.530
10115W        W82430  15.201  43.225   2.526
10116W        W82431  40.323   7.635   0.829
10117W        W82432  23.796  25.578  12.456
10118W        W82433   0.405  26.974   3.832
10119W        W82434  20.698  28.440   1.381
10120W        W82435  36.194   5.942   3.395
10121W        W82436  40.867  24.272   4.033
10122W        W82437  13.215   1.189   1.001
10123W        W82438  20.986  26.033   2.738
10124W        W82439  25.425  21.457   4.140
10125W        W82440  37.426  32.568  11.029
10126W        W82441  12.573  44.393   4.608
10127W        W82442   2.503  11.760  12.431
10128W        W82443  40.363  26.440  11.016
10129W        W82444  44.425  37.289   5.034
10130W        W82445  26.754  40.532  10.296
10131W        W82446  22.432   4.634  11.451
10132W        W82447   1.404  41.328   2.980
10133W        W82448   1.638  37.027   0.783
10134W        W82449  20.172   2.311  12.200
10135W        W82450  41.568  32.637   2.821
10136W        W82451  17.176   5.867  10.713
10137W        W82452  15.995  37.633  10.459
10138W        W82453  22.287   5.148   4.941
10139W        W82454  10.989  14.235   4.847
10140W        W82455  14.434  21.580  12.986
10141W        W82456  24.454  12.838   4.473
10142W        W82457  43.159  22.637  12.513
10143W        W82458  13.531   6.070   3.683
10144W        W82459  28.040   9.723   4.340
10145W        W82460   7.814   9.788   0.019
10146W        W82461  39.540  36.535  10.741
10147W        W82462  25.670   5.807   3.858
10148W        W82463   0.225  18.566  14.465
10149W        W82464  37.120  37.062  13.819
10150W        W82465  19.296  33.849  11.006
10151W        W82466   1.664   8.512  14.522
10152W        W82467   3.487  15.235  11.768
10153W        W82468  22.164  21.629   4.204
10154W        W82469  19.432  21.361   2.316
10155W        W82470  29.431  23.875   9.887
10156W        W82471   0.023  14.609  11.190
10157W        W82472  36.919   8.886  13.112
10158W        W82473   6.350  17.452   4.997
10159W        W82474   7.824  40.455  14.041
10160W        W82475  12.271  13.297  14.791
10161W        W82476   5.252  32.392  14.952
10162W        W82477  42.543   6.163  12.617
10163W        W82478  32.557  23.698   1.254
10164W        W82479  27.405  40.003   2.601
10165W        W82480  15.832  28.134  10.688
10166W        W82481  29.841  44.901   1.316
10167W        W82482  22.017  27.956  13.611
10168W        W82483   7.111  41.455  11.913
10169W        W82484  29.971  22.221   4.571
10170W        W82485   0.402  32.603  12.548
10171W        W82486  40.978  26.733   4.286
10172W        W82487  21.085  22.494  11.821
10173W        W82488  38.488  22.041  13.839
10174W        W82489  35.145  27.728  14.844
10175W        W82490   5.266  32.052   4.559
10176W        W82491  34.015  39.512  12.340
10177W        W82492   0.811  42.535  10.474
10178W        W82493   2.406   8.505  12.378
10179W        W82494   4.389  22.789  12.408
10180W        W82495  23.571  13.361  11.043
10181W        W82496  39.650  42.287   0.787
10182W        W82497   3.865  20.314  12.898
10183W        W82498   2.286  39.011   2.325
10184W        W82499  19.451  43.008  10.686
10185W        W82500  38.611  38.331  12.130
10186W        W82501  28.977  25.047   0.001
10187W        W82502   9.468  16.343  11.667
10188W        W82503  23.533  36.351  13.814
10189W        W82504  12.460   3.962   1.595
10190W        W82505   5.301  28.461   0.188
10191W        W82506  28.880  38.014   2.827
10192W        W82507  16.207  20.078   4.696
10193W        W82508  22.468  33.529   2.721
10194W        W82509   9.749   2.471  11.084
10195W        W82510   2.729  30.054  10.606
10196W        W82511  16.786  36.548   2.260
10197W        W82512  41.468  43.102  13.036
10198W        W82513  18.850  41.884  11.076
10199W        W82514  26.001   0.944   3.807
10200W        W82515  21.263  43.194   1.052
10201W        W82516  12.288  22.454  10.980
10202W        W82517  42.729  15.832  12.265
10203W        W82518   4.860  26.728   1.422
10204W        W82519   4.892  40.612   3.647
10205W        W82520  36.352  35.468   4.236
10206W        W82521   5.810  35.888  12.499
10207W        W82522  31.262  17.693  13.602
10208W        W82523   3.895  35.846  12.422
10209W        W82524  43.659   3.473  12.648
10210W        W82525   9.652  37.331  14.867
10211W        W82526   1.147  22.192   2.077
10212W        W82527  17.522  16.582   0.185
10213W        W82528  28.116  29.398  10.404
10214W        W82529  42.590  15.830   5.072
10215W        W82530  30.677   3.475   0.430
10216W        W82531  37.889  11.912   1.373
10217W        W82532   1.097   9.394  12.847
10218W        W82533  42.923  22.649   3.619
10219W        W82534  25.427  30.470   3.240
10220W        W82535  21.448  36.107   0.494
10221W        W82536  36.938  25.730  14.064
10222W        W82537   3.297  43.868  14.373
10223W        W82538  36.750  11.552  12.800
10224W        W82539   1.714  15.833  12.625
10225W        W82540   9.724   2.689  14.047
10226W        W82541  16.565  28.541   1.372
10227W        W82542  41.498   5.688   4.834
10228W        W82543  14.830  32.860   4.127
10229W        W82544  10.099   3.448  14.670
10230W        W82545   2.894  36.864   2.914
10231W        W82546  22.578  32.967  13.260
10232W        W82547  11.860  32.021  13.774
10233W        W82548   8.889   8.143   0.769
10234W        W82549  18.952  22.225  11.585
10235W        W82550  22.591  17.273   3.505
10236W        W82551  20.341  41.883   2.597
10237W        W82552  10.486  26.035  10.294
10238W        W82553  36.011  29.422   1.184
10239W        W82554  18.224  16.238  13.359
10240W        W82555  40.024  20.702  11.495
10241W        W82556  30.312  14.769   2.282
10242W        W82557   4.595  38.850  11.096
10243W        W82558  15.225  23.225   3.882
10244W        W82559  33.539  40.338   3.617
10245W        W82560  31.492  22.584   0.325
10246W        W82561  11.123  18.696   1.164
10247W        W82562  28.426  40.674   2.819
10248W        W82563  42.202  36.664  10.935
10249W        W82564  37.106   7.727   0.456
10250W        W82565  28.690  32.623   2.323
10251W        W82566  23.951  40.534  14.113
10252W        W82567  41.241  22.012  10.994
10253W        W82568  39.732   7.580   2.782
10254W        W82569  11.773  11.794  14.399
10255W        W82570  37.993  39.822   2.909
10256W        W82571  28.162   0.370   3.661
10257W        W82572   7.056   5.649   4.303
10258W        W82573  26.186  33.106  11.177
10259W        W82574  36.508  41.645  12.608
10260W        W82575  26.541  14.783  13.957
10261W        W82576   9.681  30.181  11.554
10262W        W82577  14.285  35.127   1.858
10263W        W82578  39.714  23.929   0.007
10264W        W82579  25.418   7.719   1.867
10265W        W82580  39.218  35.004   2.228
10266W        W82581  13.400   8.668   0.551
10267W        W82582  18.069  15.389   0.749
10268W        W82583  28.731  30.579  12.869
10269W        W82584  22.537  20.021  13.258
10270W        W82585  42.539  35.647  13.501
10271W        W82586  15.733   1.380   4.495
10272W        W82587  30.221  11.457  12.597
10273W        W82588  26.338  16.746   2.703
10274W        W82589  22.556  15.819  10.824
10275W        W82590  33.120  29.551  11.069
10276W        W82591  37.429  40.321   0.958
10277W        W82592  39.953  33.978   0.076
10278W        W82593  35.521  21.040   2.101
10279W        W82594  36.767  13.925   2.727
10280W        W82595  44.335  11.634  13.277
10281W        W82596   7.615  27.619   0.747
10282W        W82597  41.949  20.236  11.484
10283W        W82598  36.488  28.712   1.539
10284W        W82599   2.437  40.836   4.624
10285W        W82600  39.036  33.849  11.129
10286W        W82601  23.048   1.469  14.861
10287W        W82602  43.631  30.448   3.649
10288W        W82603  42.747   0.326   2.857
10289W        W82604  35.463  13.235   3.673
10290W        W82605  38.996  11.471   3.411
10291W        W82606  29.171  10.040  11.558
10292W        W82607  24.561  13.331  13.863
10293W        W82608  25.324   0.835   0.914
10294W        W82609  41.493   0.305   3.608
10295W        W82610  39.803  20.707  13.827
10296W        W82611  24.764   4.730   0.987
10297W        W82612  23.844   5.779  11.589
10298W        W82613  39.423  12.084   4.268
10299W        W82614  33.340  39.613   1.721
10300W        W82615   9.798  38.319  10.718
10301W        W82616  19.735   9.876  14.039
10302W        W82617  39.823  10.371   0.689
10303W        W82618   5.417  38.339   1.277
10304W        W82619  44.931  17.654  11.943
10305W        W82620  18.078  40.899  10.674
10306W        W82621  36.679  19.108   0.837
10307W        W82622  21.715  23.366   1.436
10308W        W82623  37.874  37.121   1.679
10309W        W82624  36.386  33.143  11.000
10310W        W82625  27.725  31.494  14.413
10311W        W82626   5.994  12.826   2.216
10312W        W82627  13.360  27.991   2.762
10313W        W82628  26.609  40.351  11.843
10314W        W82629  40.606   4.911   0.262
10315W        W82630  30.912  43.357   2.922
10316W        W82631  27.545  21.960   3.423
10317W        W82632  34.063  25.228  13.878
10318W        W82633   1.382   4.334   0.528
10319W        W82634   6.373  30.923  14.301
10320W        W82635  10.222  15.927   1.868
10321W        W82636  34.510   9.951   4.493
10322W        W82637  37.924   9.826  11.862
10323W        W82638  38.255  43.908  11.176
10324W        W82639  12.382  21.622  12.617
10325W        W82640  27.130  16.359  13.331
10326W        W82641  36.327  38.395   1.299
10327W        W82642  23.326  29.149  11.986
10328W        W82643  17.548  34.395   2.273
10329W        W82644   6.322  26.888   0.825
10330W        W82645  38.367  43.986  12.643
10331W        W82646  29.533  12.343   0.197
10332W        W82647  22.780  42.877  14.683
10333W        W82648   4.889  30.729   1.741
10334W        W82649  29.375  28.130  11.459
10335W        W82650  13.919  17.513   1.861
10336W        W82651  22.284  14.575  10.741
10337W        W82652  38.421  26.526  14.756
10338W        W82653  16.907  23.749  11.057
10339W        W82654   5.772   4.819   0.691
10340W        W82655  31.636   1.847   3.699
10341W        W82656  10.173  17.285   3.311
10342W        W82657  14.793  30.491   2.145
10343W        W82658   4.767   8.607  12.355
10344W        W82659  43.434  28.054   3.945
10345W        W82660   9.947  24.174   3.290
10346W        W82661   3.648  37.964  13.856
10347W        W82662  11.790  17.118  14.291
10348W        W82663  17.808   8.667  14.965
10349W        W82664   7.745  14.591  13.509
10350W        W82665  40.935  29.563   0.859
10351W        W82666  39.759  13.775  14.410
10352W        W82667  34.871  43.510  10.705
10353W        W82668  23.768   6.862  10.665
10354W        W82669  36.334   8.765  12.446
10355W        W82670  38.811  37.953  12.826
10356W        W82671   8.202  38.411   3.935
10357W        W82672  11.306  27.616  12.231
10358W        W82673  40.519  10.291   2.419
10359W        W82674  42.998  13.242   4.135
10360W        W82675  12.860  39.298   3.634
10361W        W82676  16.360   1.261  11.141
10362W        W82677   6.752  16.077  14.928
10363W        W82678  11.181   8.154  14.411
10364W        W82679  22.520   2.814   2.975
10365W        W82680  38.017  15.825  14.406
10366W        W82681  30.060   0.916   4.288
10367W        W82682  43.296  15.319   3.305
10368W        W82683  41.901   5.485   0.407
10369W        W82684  26.765   9.648   0.911
10370W        W82685  11.778  41.416   1.440
10371W        W82686  21.671  36.837  14.638
10372W        W82687  21.046  32.722   3.890
10373W        W82688  26.523   0.742   1.767
10374W        W82689   7.924   0.128  12.565
10375W        W82690  30.356  20.727  13.505
10376W        W82691  18.168  22.474   4.497
10377W        W82692  35.252   0.045   3.672
10378W        W82693  14.471  20.287  11.521
10379W        W82694   1.960  24.632   4.601
10380W        W82695   8.194  35.467   1.864
10381W        W82696   3.342  44.359   3.793
10382W        W82697   3.931  20.358  11.475
10383W        W82698  27.603  20.596   4.437
10384W        W82699  24.662  44.909  12.567
10385W        W82700   6.716  35.170   1.295
10386W        W82701   4.376  31.918   0.489
10387W        W82702  29.577  34.274  13.341
10388W        W82703  41.965  23.764   2.249
10389W        W82704  38.704  36.051  13.414
10390W        W82705  35.610   3.606  11.020
10391W        W82706  12.203  28.469   4.292
10392W        W82707  24.209  35.788   4.019
10393W        W82708  21.256   8.617   2.271
10394W        W82709  24.886   5.308   3.798
10395W        W82710  41.009   8.567   3.169
10396W        W82711  35.594   3.501   0.259
10397W        W82712  20.256  26.440  10.621
10398W        W82713   7.693  17.708  12.036
10399W        W82714  23.663  31.604  14.999
10400W        W82715   4.255  14.562   1.432
10401W        W82716   1.753   4.820  12.613
10402W        W82717   6.117  35.028  14.002
10403W        W82718   4.827  26.910  12.091
10404W        W82719   4.968  43.868   4.056
10405W        W82720  44.536  37.402   0.084
10406W        W82721   1.484  40.535  14.768
10407W        W82722  10.934   9.655   2.707
10408W        W82723   0.269  10.641   0.227
10409W        W82724  25.086  19.502   2.187
10410W        W82725  22.750  13.697   4.202
10411W        W82726  40.313  35.875   1.292
10412W        W82727   6.911  17.588  13.962
10413W        W82728   8.110  37.483  14.775
10414W        W82729  22.340  42.479   4.666
10415W        W82730  43.229  37.502   4.514
10416W        W82731  23.120   8.514  14.394
10417W        W82732  37.569  28.637   1.387
10418W        W82733  43.173   1.298   2.699
10419W        W82734  28.467  35.345  14.470
10420W        W82735  18.280  43.877   1.825
10421W        W82736   6.422  29.859   1.983
10422W        W82737  42.562  10.708   2.164
10423W        W82738  18.561  11.628   2.868
10424W        W82739   9.795  27.273  14.591
10425W        W82740  40.897   6.515   0.396
10426W        W82741  24.767  25.193   2.187
10427W        W82742  18.602  43.615   3.790
10428W        W82743  44.055  41.317   0.437
10429W        W82744  14.556  19.645   1.271
10430W        W82745  25.132  11.045   3.392
10431W        W82746  35.039  11.536   1.802
10432W        W82747  40.046  17.153   2.848
10433W        W82748  36.847  37.951  13.040
10434W        W82749  19.685  26.406   2.183
10435W        W82750   5.285   0.837  14.352
10436W        W82751  43.454  34.083  10.970
10437W        W82752  33.324  39.149   4.145
10438W        W82753  18.061   2.377  11.452
10439W        W82754  22.825   1.732   9.947
10440W        W82755  43.350  14.532  12.582
10441W        W82756  30.161  44.433   2.237
10442W        W82757  42.291  18.348   3.220
10443W        W82758  44.866  36.400  10.244
10444W        W82759  41.558  25.101  13.029
10445W        W82760  42.745  44.849   3.608
10446W        W82761  21.795  27.649   3.547
10447W        W82762  43.530  27.513   1.146
10448W        W82763   2.879  34.493   3.420
10449W        W82764  34.891  42.969   4.517
10450W        W82765  15.170  27.079  11.631
10451W        W82766  44.797  42.447   1.891
10452W        W82767   6.528  24.137   1.746
10453W        W82768  10.136  16.384   0.304
10454W        W82769   3.792  10.771   2.357
10455W        W82770  20.238  29.931  11.707
10456W        W82771  20.174   4.337   1.204
10457W        W82772   6.345   3.877   1.414
10458W        W82773  36.073   1.975   1.295
10459W        W82774   2.836   0.756   3.264
10460W        W82775  16.493   9.735   3.013
10461W        W82776  34.830   3.411   2.226
10462W        W82777  35.882  10.348   3.775
10463W        W82778  37.551  19.080  14.906
10464W        W82779  22.133   4.894   3.299
10465W        W82780  42.497  21.511   3.921
10466W        W82781  41.491  32.034  14.086
10467W        W82782   8.420  37.356   1.378
10468W        W82783   2.753  39.805  10.670
10469W        W82784  17.687  27.473   1.711
10470W        W82785  28.902  44.539   1.675
10471W        W82786  31.907   7.755  10.951
10472W        W82787   6.499   1.059   3.815
10473W        W82788  30.494  12.805  12.483
10474W        W82789   2.544  18.156   4.204
10475W        W82790   5.305  22.906   2.371
10476W        W82791  38.627  15.780   1.441
10477W        W82792  14.799  18.072   4.225
10478W        W82793  16.309  39.695   2.717
10479W        W82794   8.783  44.673  11.553
10480W        W82795   5.841  20.507   3.255
10481W        W82796   5.715  39.298   1.814
10482W        W82797   1.395  27.224   4.083
10483W        W82798  11.214  30.066   3.236
10484W        W82799  34.883   6.838  13.097
10485W        W82800  35.161  32.873  14.201
10486W        W82801   2.194  25.269  10.742
10487W        W82802   0.931   6.674   0.351
10488W        W82803  26.774  28.637  12.324
10489W        W82804  35.390   7.162  14.779
10490W        W82805  26.537  18.692   2.505
10491W        W82806  28.611  44.298   4.772
10492W        W82807  35.145   0.500  13.465
10493W        W82808  29.879   3.070   3.759
10494W        W82809  21.809  24.457   3.623
10495W        W82810  29.178  34.644  13.255
10496W        W82811  17.109   9.904  13.544
10497W        W82812  35.944  25.234  13.930
10498W        W82813  23.514  39.476  11.515
10499W        W82814   8.662   3.784  10.665
10500W        W82815   3.315  16.712  14.558
10501W        W82816   8.885  38.316  10.707
10502W        W82817  21.614   1.806  11.933
10503W        W82818  25.708  33.368  13.797
10504W        W82819  25.078  18.237   3.837
10505W        W82820   3.631  29.007  13.018
10506W        W82821  17.613   4.785  13.515
10507W        W82822  39.529  20.413  11.550
10508W        W82823  18.126  36.945   0.811
10509W        W82824   4.886  23.774  11.499
10510W        W82825  35.077  16.006   1.795
10511W        W82826  38.384  23.715  10.098
10512W        W82827  27.991   9.280   0.493
10513W        W82828  26.994  28.448   2.853
10514W        W82829  37.046   4.454   0.987
10515W        W82830  14.585   4.369   2.384
10516W        W82831  36.796  40.581   0.471
10517W        W82832  17.638   2.939  14.086
10518W        W82833  27.752  11.852   4.096
10519W        W82834   5.799  42.418  11.717
10520W        W82835   0.015  13.852  11.578
10521W        W82836   6.650  10.393   3.325
10522W        W82837  17.225  39.072   2.681
10523W        W82838  30.661   8.400   1.783
10524W        W82839   6.341  33.886   0.745
10525W        W82840  24.084   3.962   1.249
10526W        W82841  42.051  27.011  10.927
10527W        W82842  35.875  23.923   4.628
10528W        W82843   9.790   3.462   0.457
10529W        W82844   7.270  17.964   2.992
10530W        W82845   4.542  16.588  13.605
10531W        W82846  27.320  27.089  14.130
10532W        W82847  12.196  16.769   3.742
10533W        W82848  25.923  17.598   1.470
10534W        W82849  38.400  19.614  12.632
10535W        W82850  34.577  29.812   3.132
10536W        W82851  28.198  38.458   1.159
10537W        W82852  44.391  14.877   4.575
10538W        W82853  19.330  32.010   4.620
10539W        W82854  41.624  14.357  11.569
10540W        W82855   4.633  35.341   1.054
10541W        W82856  34.596  44.721  11.098
10542W        W82857  28.518   7.829   5.061
10543W        W82858  16.775   3.646   0.017
10544W        W82859  15.141  10.862   0.957
10545W        W82860  26.922  41.339  14.776
10546W        W82861  26.148   9.803   2.206
10547W        W82862  30.508  27.181   3.645
10548W        W82863   2.023  31.734  12.471
10549W        W82864  34.749  17.616   0.012
10550W        W82865   1.815  32.354   4.616
10551W        W82866   0.994   6.796  12.889
10552W        W82867  36.603  25.056  10.620
10553W        W82868  21.645  15.375   4.892
10554W        W82869  35.947  25.527  12.361
10555W        W82870   1.708  25.085  14.075
10556W        W82871   0.938  22.438   0.763
10557W        W82872  17.234  21.805  13.112
10558W        W82873  44.458   6.590   4.174
10559W        W82874  25.540  20.049   3.446
10560W        W82875  12.062   2.301  12.580
10561W        W82876  25.479  43.304   2.623
10562W        W82877  16.445  37.629   4.121
10563W        W82878  43.401   7.136  12.431
10564W        W82879  16.402  15.134  14.965
10565W        W82880  31.869  34.945  12.612
10566W        W82881   6.931  23.816   3.474
10567W        W82882  26.007   0.754  11.159
10568W        W82883  37.873  14.768   0.842
10569W        W82884   3.770  38.842  11.670
10570W        W82885  16.606   6.898   0.183
10571W        W82886  27.698  44.994   0.925
10572W        W82887   5.895  31.614  14.765
10573W        W82888  38.444   9.160  13.379
10574W        W82889  44.468  24.159  11.622
10575W        W82890  12.187   2.356  10.675
10576W        W82891  34.694   9.986  12.361
10577W        W82892  24.212  19.664  14.948
10578W        W82893  37.543  19.399  10.264
10579W        W82894  24.913  43.829   0.364
10580W        W82895  15.246  41.528  13.709
10581W        W82896  36.418  28.987   0.156
10582W        W82897  38.759   2.335  10.877
10583W        W82898   5.330  25.069   4.585
10584W        W82899   2.319  30.394   2.595
10585W        W82900  28.040  21.788   2.828
10586W        W82901   2.436  26.737   1.249
10587W        W82902  22.654  37.064   3.176
10588W        W82903  12.128  16.779   1.202
10589W        W82904  17.093  13.790   0.089
10590W        W82905  22.574  10.228  11.436
10591W        W82906   5.173  12.670  11.423
10592W        W82907  21.803   5.149   0.489
10593W        W82908  23.489  25.128  11.654
10594W        W82909  18.663  38.809  12.644
10595W        W82910  11.221  12.561  11.163
10596W        W82911  15.837  24.093  14.075
10597W        W82912   7.804  15.079  14.410
10598W        W82913  14.144  25.987   2.762
10599W        W82914  36.391  15.124   4.898
10600W        W82915  14.604  14.056   3.254
10601W        W82916   8.808   6.159  11.556
10602W        W82917  27.021   2.559  14.433
10603W        W82918   7.245  11.134   0.029
10604W        W82919  23.737  32.063  12.833
10605W        W82920  34.724   3.236   4.213
10606W        W82921   3.872  40.253  11.916
10607W        W82922  26.047   6.815   4.633
10608W        W82923  11.633  30.064   2.936
10609W        W82924  29.134  25.279  12.614
10610W        W82925  35.839  23.527   1.104
10611W        W82926  17.663  20.702   1.333
10612W        W82927  13.397  12.209  13.978
10613W        W82928  33.963  10.557  12.092
10614W        W82929  42.165  17.917   2.289
10615W        W82930  20.944  17.554   0.234
10616W        W82931   7.874   0.430   1.253
10617W        W82932  10.395   9.833   1.438
10618W        W82933  22.256   5.596   1.352
10619W        W82934   4.136  12.126  10.743
10620W        W82935  27.381  19.155   3.374
10621W        W82936  30.999  40.102   4.065
10622W        W82937   4.680  34.901   1.331
10623W        W82938   0.450  16.765   2.333
10624W        W82939   6.666  29.850  11.599
10625W        W82940  36.040  19.767  11.594
10626W        W82941  35.528   6.230   0.184
10627W        W82942  32.287  11.200   3.199
10628W        W82943  24.248  28.654  12.274
10629W        W82944   7.315  25.636   0.953
10630W        W82945  25.073  42.980  14.073
10631W        W82946  15.522  36.133  12.016
10632W        W82947  21.280   3.727   1.905
10633W        W82948  27.709   9.103  13.171
10634W        W82949  22.187  16.990   4.323
10635W        W82950  35.337   1.227   1.983
10636W        W82951   0.824  20.723  11.148
10637W        W82952   8.235  39.515  13.826
10638W        W82953  24.289  42.327   3.798
10639W        W82954   0.946  32.534  14.625
10640W        W82955  12.656   2.012  11.516
10641W        W82956   6.134  27.715   2.365
10642W        W82957   8.380   1.201   0.015
10643W        W82958   0.381  41.059   4.537
10644W        W82959  19.622  28.718  11.590
10645W        W82960  25.927   1.366  12.949
10646W        W82961   6.871  12.564  14.007
10647W        W82962  41.388  16.850  12.549
10648W        W82963  43.344   5.501  13.475
10649W        W82964  38.442  22.254   3.737
10650W        W82965  16.668  16.513   2.733
10651W        W82966  43.942  36.557   1.801
10652W        W82967  18.188  36.519   3.078
10653W        W82968  25.238   5.282   5.228
10654W        W82969  39.106   8.423   3.804
10655W        W82970  34.996   1.482   0.737
10656W        W82971  26.566  22.438  13.350
10657W        W82972  15.735  32.371   1.451
10658W        W82973  27.059   7.664   0.758
10659W        W82974  18.940  35.368  11.943
10660W        W82975  42.918  33.680   1.212
10661W        W82976  15.374  21.922  11.235
10662W        W82977  22.683  20.060   0.649
10663W        W82978   3.693  37.956  13.338
10664W        W82979   1.265  18.538  12.637
10665W        W82980  20.118  33.406   4.886
10666W        W82981  18.735  26.862  13.063
10667W        W82982  41.776  19.730  13.380
10668W        W82983  37.572  30.957   1.192
10669W        W82984  39.024  21.311   0.887
10670W        W82985  34.578  11.723   2.383
10671W        W82986  14.161   7.835   0.445
10672W        W82987  31.464  13.920   0.230
10673W        W82988  42.465  29.577   3.716
10674W        W82989  15.861  40.469  14.418
10675W        W82990  44.950  21.171   3.739
10676W        W82991  42.976  34.835  11.441
10677W        W82992  27.703  24.016  10.746
10678W        W82993  37.331   6.295   3.235
10679W        W82994   6.687   4.373   1.809
10680W        W82995  41.594   4.430  13.848
10681W        W82996  28.144  39.548  10.817
10682W        W82997  17.302   4.894  11.118
10683W        W82998   8.185   5.681   3.252
10684W        W82999   0.752  33.077  12.315
10685W        W83000   2.927  30.683  11.907
10686W        W83001  21.720  40.873  11.299
10687W        W83002  39.578   2.769  14.994
10688W        W83003  38.333  29.551  13.788
10689W        W83004  14.937   6.867  11.110
10690W        W83005  28.949  14.322  12.952
10691W        W83006  18.255   1.800   2.805
10692W        W83007  31.161  35.813   4.186
10693W        W83008  34.647  31.801  14.126
10694W        W83009  30.907   0.469  11.133
10695W        W83010  36.312  11.216   2.562
10696W        W83011   5.887  16.793   1.309
10697W        W83012  31.551  31.415  10.987
10698W        W83013  22.461   0.844  12.130
10699W        W83014  26.064  22.661   3.876
10700W        W83015  42.762  35.640   2.404
10701W        W83016  11.010  27.469  14.960
10702W        W83017  35.854  41.945  11.397
10703W        W83018  32.838  21.022   2.075
10704W        W83019  13.853  40.381  14.422
10705W        W83020  20.021  14.508   4.223
10706W        W83021  36.794  25.565   3.730
10707W        W83022   1.045  43.858  12.581
10708W        W83023  31.390  10.845   0.296
10709W        W83024  13.196  23.309   3.293
10710W        W83025  24.057  22.532  10.097
10711W        W83026   0.348  28.693  12.810
10712W        W83027   0.415   7.684   0.927
10713W        W83028  19.015  11.433  11.447
10714W        W83029  11.285   9.907   3.970
10715W        W83030   9.236   6.209   1.798
10716W        W83031   2.073  33.044  10.604
10717W        W83032   2.358   9.215   3.694
10718W        W83033  34.534  13.159   4.801
10719W        W83034  43.063  35.521  10.566
10720W        W83035  38.892  42.787   3.306
10721W        W83036  37.459   7.166  12.970
10722W        W83037  22.611  16.059   2.286
10723W        W83038  21.241   3.887   3.742
10724W        W83039   9.227   6.323   0.817
10725W        W83040  30.938   7.410   4.550
10726W        W83041  38.488  30.203   4.642
10727W        W83042  28.379   0.422  12.851
10728W        W83043  32.972  38.498   2.140
10729W        W83044  35.709   5.145   0.923
10730W        W83045  10.097  27.501  12.769
10731W        W83046   5.386  15.509  13.815
10732W        W83047   4.829  35.788  12.675
10733W        W83048  35.655  31.511  11.023
10734W        W83049  37.928  27.771   1.805
10735W        W83050  30.900  11.422   0.871
10736W        W83051   9.124   8.577   0.514
10737W        W83052   7.453  33.462   1.307
10738W        W83053  12.367  14.703  13.530
10739W        W83054  10.439  19.825   5.304
10740W        W83055  10.809  24.539   1.448
10741W        W83056  40.404  25.600  12.894
10742W        W83057  32.965  17.701   1.334
10743W        W83058  24.555  14.198   4.195
10744W        W83059  41.822  24.257   2.735
10745W        W83060  40.750   2.873  14.022
10746W        W83061   7.185   8.299   0.343
10747W        W83062  31.072  11.424  14.017
10748W        W83063   5.453   4.278   1.305
10749W        W83064  41.055  17.734   1.452
10750W        W83065  42.364  33.077   3.735
10751W        W83066   2.851  35.486  14.814
10752W        W83067   9.650   6.977   2.719
10753W        W83068  21.680  34.019  11.674
10754W        W83069  24.594  34.892   0.801
10755W        W83070  14.030  18.223  14.281
10756W        W83071  16.200  28.647   3.775
10757W        W83072  14.932  41.995  14.520
10758W        W83073   1.938  22.126  14.614
10759W        W83074  39.437  30.185  13.328
10760W        W83075  27.955  25.431   3.765
10761W        W83076  14.661  44.437  10.974
10762W        W83077  31.174  29.737  11.189
10763W        W83078   6.630  40.354   3.174
10764W        W83079  25.946  41.397  12.146
10765W        W83080   4.775  22.563  14.418
10766W        W83081  20.579  10.670   1.566
10767W        W83082  25.173   0.822  13.134
10768W        W83083   0.742  25.303  13.356
10769W        W83084  36.364  41.919   1.422
10770W        W83085   0.968  32.409   3.135
10771W        W83086   4.841  36.521  11.628
10772W        W83087  15.130   1.316   2.930
10773W        W83088  29.265  10.341   4.049
10774W        W83089  12.290  26.444  14.292
10775W        W83090   1.364  31.186  11.120
10776W        W83091  10.072  10.361  13.562
10777W        W83092   2.715   6.674   1.923
10778W        W83093   1.737  12.306   4.256
10779W        W83094  23.591  21.195   4.976
10780W        W83095   1.740  10.387  13.925
10781W        W83096  30.688  17.628   4.767
10782W        W83097   9.693  20.552  11.130
10783W        W83098  44.188  26.278   3.802
10784W        W83099   5.328   8.391   2.435
10785W        W83100  39.083  12.555  12.446
10786W        W83101  26.150  19.818  12.616
10787W        W83102  19.230   4.710   3.208
10788W        W83103   0.859  28.182   2.112
10789W        W83104   7.317  38.841  10.755
10790W        W83105  15.677  18.161   4.279
10791W        W83106  31.837   9.429   0.269
10792W        W83107  41.406   2.759  13.862
10793W        W83108  42.991  32.540  14.505
10794W        W83109  43.322   0.527  13.367
10795W        W83110   7.332  23.009   1.357
10796W        W83111  17.561  27.302  11.124
10797W        W83112  11.974  35.599  12.492
10798W        W83113  27.081  43.507   2.760
10799W        W83114  40.765  28.372   0.368
10800W        W83115  28.037  20.384   4.179
10801W        W83116  31.512  30.693  11.583
10802W        W83117  33.701  38.086  11.983
10803W        W83118  19.025  13.960   2.206
10804W        W83119  24.648   3.021  11.880
10805W        W83120  36.786   0.041   3.245
10806W        W83121   3.431  40.542   3.434
10807W        W83122  22.734  16.690  13.847
10808W        W83123  41.743   4.708   1.926
10809W        W83124   4.347  38.475   2.613
10810W        W83125  36.414  41.423  11.227
10811W        W83126  29.440   4.838  10.300
10812W        W83127  35.382   0.916  10.455
10813W        W83128  25.962  13.706   2.164
10814W        W83129   2.909   1.569   3.790
10815W        W83130  19.231   8.330   4.986
10816W        W83131   6.390  11.677   3.298
10817W        W83132  19.802  10.244   4.361
10818W        W83133  31.534  17.589  14.714
10819W        W83134  22.155   9.721   0.477
10820W        W83135   2.142  41.003   2.358
10821W        W83136  23.137  40.621  10.832
10822W        W83137  22.283  16.744  12.012
10823W        W83138  44.685  25.949   4.846
10824W        W83139  27.367  32.543   1.507
10825W        W83140  18.486  43.813  14.086
10826W        W83141  44.168  34.439   3.275
10827W        W83142  35.355  24.089  12.351
10828W        W83143  37.340  38.972   4.486
10829W        W83144   1.392   6.786   0.135
10830W        W83145   8.508   2.302  12.964
10831W        W83146  13.763  15.787  12.204
10832W        W83147  34.480  16.965  13.011
10833W        W83148   1.171  25.003   4.487
10834W        W83149   9.290   7.294  12.911
10835W        W83150  22.471   2.233   0.821
10836W        W83151  13.458  39.866   0.372
10837W        W83152  13.374   3.194  13.053
10838W        W83153   3.460  40.105   1.417
10839W        W83154   2.254  39.897  10.761
10840W        W83155  22.974   4.754   1.367
10841W        W83156  32.901  13.667  13.122
10842W        W83157  17.145  28.046   0.196
10843W        W83158  11.411  24.113  11.174
10844W        W83159  29.766  26.610   4.254
10845W        W83160  29.168  34.487   1.626
10846W        W83161  27.035  24.271  12.504
10847W        W83162  25.501  24.640  10.664
10848W        W83163  13.880  23.756   2.870
10849W        W83164  40.982  19.236  11.634
10850W        W83165  12.163  15.840   2.187
10851W        W83166  31.398  25.570  10.605
10852W        W83167  13.351  29.831   4.471
10853W        W83168  10.228  11.076  12.560
10854W        W83169  25.172  44.376  12.015
10855W        W83170  41.674  10.194  14.112
10856W        W83171   5.001  35.557   2.992
10857W        W83172  39.017   1.043   0.890
10858W        W83173  22.342   0.243  13.981
10859W        W83174  34.920   1.730  13.847
10860W        W83175  33.846  27.888  14.738
10861W        W83176  36.016  43.759  12.084
10862W        W83177   8.840  40.941  13.541
10863W        W83178  40.841   8.354   4.082
10864W        W83179   3.773   1.431   0.419
10865W        W83180  42.497  14.058   4.106
10866W        W83181  13.156   0.428  11.892
10867W        W83182   8.791  23.804   3.130
10868W        W83183  39.623  30.140  14.974
10869W        W83184  43.532   2.191  14.917
10870W        W83185  44.932  19.193   0.544
10871W        W83186   4.299  20.825   0.282
10872W        W83187  32.403  44.162   1.433
10873W        W83188  37.656   3.188   3.762
10874W        W83189  44.435  21.643   1.358
10875W        W83190  30.944  27.674  11.525
10876W        W83191  38.772  35.056  13.601
10877W        W83192  31.113  43.234   2.469
10878W        W83193  31.032   8.890  13.793
10879W        W83194  43.099  15.894  11.564
10880W        W83195  35.558  10.431  11.239
10881W        W83196   8.412  17.769  12.460
10882W        W83197  16.493  21.997   2.249
10883W        W83198  13.203  23.977   0.107
10884W        W83199  12.540   0.761   2.131
10885W        W83200   8.133  32.097  14.857
10886W        W83201  30.085   1.254  13.617
10887W        W83202   9.204  11.582   0.409
10888W        W83203  23.015  42.019   1.733
10889W        W83204  23.467   2.422   4.131
10890W        W83205  42.853   4.298   4.955
10891W        W83206  34.006  35.003   4.855
10892W        W83207   3.343  34.993   2.459
10893W        W83208  39.118   8.744   1.303
10894W        W83209  28.164  20.575  11.530
10895W        W83210  10.190  39.557  13.544
10896W        W83211  33.194  25.994   3.222
10897W        W83212  34.573  35.172  12.123
10898W        W83213  21.220  16.147   5.025
10899W        W83214  10.211  11.798   1.234
10900W        W83215  33.887  22.179   2.333
10901W        W83216  13.355  17.210  10.232
10902W        W83217  16.698   7.685  13.806
10903W        W83218  29.613  15.197  10.611
10904W        W83219  33.606  21.626  10.059
10905W        W83220  44.240  23.710  11.712
10906W        W83221  15.736  10.210  14.259
10907W        W83222  10.786   5.389   2.302
10908W        W83223  29.687   5.553   1.745
10909W        W83224  32.141  20.335   4.150
10910W        W83225  11.351  28.408   2.883
10911W        W83226   0.019  16.079  14.521
10912W        W83227  26.459  12.871  11.238
10913W        W83228  35.917  42.103  13.844
10914W        W83229  24.031  18.039   4.743
10915W        W83230  29.165  29.609   1.360
10916W        W83231   0.102   3.912   4.143
10917W        W83232  14.598  14.564  13.948
10918W        W83233  35.033  27.975   4.192
10919W        W83234   9.375  20.118   4.512
10920W        W83235  38.721  23.167  10.671
10921W        W83236  20.377   0.973  14.459
10922W        W83237  24.084  18.114   3.616
10923W        W83238  17.118  35.634   4.952
10924W        W83239  34.182  43.416   4.711
10925W        W83240  14.864  12.718  11.886
10926W        W83241  22.126  43.570  11.515
10927W        W83242  19.232  16.808  12.813
10928W        W83243  32.939   0.385  12.714
10929W        W83244  36.074   6.648  11.172
10930W        W83245  10.635  19.504   4.211
10931W        W83246  42.421  31.652  10.733
10932W        W83247   5.441  28.079   4.715
10933W        W83248  34.637  18.594   2.776
10934W        W83249  40.036  22.959   0.007
10935W        W83250  30.652   9.198  14.817
10936W        W83251  39.405  42.347  11.930
10937W        W83252   2.526  32.936  13.115
10938W        W83253  40.388  37.068   3.358
10939W        W83254  30.684  11.141  10.570
10940W        W83255  35.327  34.443  11.943
10941W        W83256  20.638  38.861   3.127
10942W        W83257  12.754  26.110   3.220
10943W        W83258  19.711  43.277  13.137
10944W        W83259   8.093  27.217  13.444
10945W        W83260  29.900  32.408  13.027
10946W        W83261  26.523   6.318   3.340
10947W        W83262  14.319   3.261   5.108
10948W        W83263   6.231   4.530  13.986
10949W        W83264  43.895  25.782  13.815
10950W        W83265  15.272  39.072   0.324
10951W        W83266   5.626  23.071  13.419
10952W        W83267  23.648  31.952   1.986
10953W        W83268  39.336  28.753  11.870
10954W        W83269  12.678  37.674   2.437
10955W        W83270  26.074  19.532  11.200
10956W        W83271  39.921  18.607  14.766
10957W        W83272  23.210  30.483   4.747
10958W        W83273  39.843   1.840   1.345
10959W        W83274   4.940  20.924   3.803
10960W        W83275  44.504   3.725  10.530
10961W        W83276   2.027  35.843   5.021
10962W        W83277  17.763  22.057   2.682
10963W        W83278  11.250  40.609   1.223
10964W        W83279  30.251  32.169   4.583
10965W        W83280  37.418  37.405   2.126
10966W        W83281  32.418   4.686  13.109
10967W        W83282  22.059  32.468   0.914
10968W        W83283  27.138   2.345  12.523
10969W        W83284  12.688  43.320   4.669
10970W        W83285  25.051  29.056   4.268
10971W        W83286  15.707  29.503  14.425
10972W        W83287   6.349  21.214  12.955
10973W        W83288  39.023  35.206  10.471
10974W        W83289  30.327  26.340  11.110
10975W        W83290  26.135  19.979   1.303
10976W        W83291   5.031  28.034  11.486
10977W        W83292  36.005   9.561   1.268
10978W        W83293  16.605  19.223   3.314
10979W        W83294  15.515  28.629  12.014
10980W        W83295  13.151  14.312  13.803
10981W        W83296  28.516  28.942  11.952
10982W        W83297  28.688  20.254  13.219
10983W        W83298  31.670  15.597  11.554
10984W        W83299  27.521   7.728   2.343
10985W        W83300   7.842  37.810   1.789
10986W        W83301  28.746  30.569   4.977
10987W        W83302  13.084  43.301   4.318
10988W        W83303  13.579  23.048   1.111
10989W        W83304  40.224   4.385  11.530
10990W        W83305  15.093  38.542   2.264
10991W        W83306  26.684   9.697  11.146
10992W        W83307  20.494  32.523   0.180
10993W        W83308  12.185  10.497  11.838
10994W        W83309  23.186  23.559  11.855
10995W        W83310  43.548  42.568  11.965
10996W        W83311   6.338  22.345   0.223
10997W        W83312  21.609  17.926   1.904
10998W        W83313  23.670  42.023   2.655
10999W        W83314  15.700  10.702  13.406
11000W        W83315  12.343   3.819  13.383
11001W        W83316  22.670  17.151  13.532
11002W        W83317  33.517  12.701   5.377
11003W        W83318  37.860  40.331   4.231
11004W        W83319  26.658   9.204  11.889
11005W        W83320  24.161   7.703  13.081
11006W        W83321   9.365  10.385   2.482
11007W        W83322  43.795   6.477   3.005
11008W        W83323  21.159  10.908   4.638
11009W        W83324  14.072  14.611  13.921
11010W        W83325  40.725  12.368   3.315
11011W        W83326   6.227   3.767  10.641
11012W        W83327   3.951   5.870   1.902
11013W        W83328  18.082  13.107  12.879
11014W        W83329  21.844  44.414   3.350
11015W        W83330   7.596  12.329  11.159
11016W        W83331  22.676  29.653   0.187
11017W        W83332  12.312  28.494   1.053
11018W        W83333  12.914   3.021  11.480
11019W        W83334  38.583   8.825  11.041
11020W        W83335  13.265  33.509   0.519
11021W        W83336   4.234  19.218   2.601
11022W        W83337  30.912  20.833   4.302
11023W        W83338  34.743  22.726   0.776
11024W        W83339  28.215  13.161   0.370
11025W        W83340  13.558  41.540  12.155
11026W        W83341  36.815   5.263  12.813
11027W        W83342  22.433  20.127   3.851
11028W        W83343  37.951   3.902   1.387
11029W        W83344  21.178  11.745   1.621
11030W        W83345  36.937   6.909   4.824
11031W        W83346   6.069  21.331   9.894
11032W        W83347  31.704  21.453   3.339
11033W        W83348  34.845  36.868   2.586
11034W        W83349   8.987  41.148  13.085
11035W        W83350  15.320  30.573   1.223
11036W        W83351  14.197  17.158  14.888
11037W        W83352   8.366  18.538  11.919
11038W        W83353  33.876   2.554   4.925
11039W        W83354   4.255  14.112  13.377
11040W        W83355   4.861  34.182   4.867
11041W        W83356  42.383   3.235  14.905
11042W        W83357  29.076  29.024  14.951
11043W        W83358  40.422   2.789   0.440
11044W        W83359  10.251  26.517  14.576
11045W        W83360  36.605   5.013  14.049
11046W        W83361  25.271  33.157  12.878
11047W        W83362  41.452  25.382   2.181
11048W        W83363  15.382  38.443   2.732
11049W        W83364   6.408  44.688   1.956
11050W        W83365  20.123  25.298   0.973
11051W        W83366  32.091  39.505  12.356
11052W        W83367  32.694   8.827   2.286
11053W        W83368  27.916  17.903   1.062
11054W        W83369  20.464  25.036  14.006
11055W        W83370  43.664  29.485  13.255
11056W        W83371  10.794   3.046  10.629
11057W        W83372  27.046  12.279  13.611
11058W        W83373  11.958  14.562   0.803
11059W        W83374  21.552  34.581  11.969
11060W        W83375  28.302  12.743  13.429
11061W        W83376  42.276  39.184   4.099
11062W        W83377  37.272  19.101   1.643
11063W        W83378  30.686  44.030  11.043
11064W        W83379  20.254  32.103   4.253
11065W        W83380  33.410  40.574  10.626
11066W        W83381  18.659  40.016   3.710
11067W        W83382  44.671  32.566   3.339
11068W        W83383  43.785  44.851  13.084
11069W        W83384  44.330  17.570   2.478
11070W        W83385  36.620  39.996   2.776
11071W        W83386  20.299  36.841  13.809
11072W        W83387   0.845   7.422  14.496
11073W        W83388  14.752   3.217   1.879
11074W        W83389  11.442   8.323  14.001
11075W        W83390  43.211  19.682   4.496
11076W        W83391  13.683   7.158  13.537
11077W        W83392   9.897  25.660  13.796
11078W        W83393  42.940  34.547   0.264
11079W        W83394  34.810  16.712   2.268
11080W        W83395  28.628  38.053  10.741
11081W        W83396   6.841  41.481   2.619
11082W        W83397  38.320  11.761  13.507
11083W        W83398   6.767  15.244   2.277
11084W        W83399  33.989  32.850   0.927
11085W        W83400  23.757   0.799   1.703
11086W        W83401  23.622  17.289   0.399
11087W        W83402  15.765  37.462  14.978
11088W        W83403  33.969  15.818   1.264
11089W        W83404  41.450  43.340   0.032
11090W        W83405   0.108  43.997  12.491
11091W        W83406  34.939  20.615  10.930
11092W        W83407  25.131   5.854  13.927
11093W        W83408  27.035  17.199   2.331
11094W        W83409  17.709   8.446   2.793
11095W        W83410  29.480   4.312   1.184
11096W        W83411  28.432  10.916   0.712
11097W        W83412  42.339  44.621   0.206
11098W        W83413  15.254  43.638  10.633
11099W        W83414  14.730  32.968   4.631
11100W        W83415  29.712  23.081  14.540
11101W        W83416  12.276  43.362  14.673
11102W        W83417  11.575  23.177  11.669
11103W        W83418  33.065  10.284   1.586
11104W        W83419  22.118  12.348  13.569
11105W        W83420  28.437  35.903  13.554
11106W        W83421  34.502  33.698   2.943
11107W        W83422   2.519   0.011   2.676
11108W        W83423   8.798  16.024   1.258
11109W        W83424  16.540   2.371  11.216
11110W        W83425  15.531  26.429  12.298
11111W        W83426   6.391  12.900  12.472
11112W        W83427   2.243  24.766  10.650
11113W        W83428   0.037  13.287  13.903
11114W        W83429  21.598   0.557   0.294
11115W        W83430  11.371  12.872  10.755
11116W        W83431   3.846  33.407   3.730
11117W        W83432  16.279  38.896   3.744
11118W        W83433   6.037   8.433   2.912
11119W        W83434   9.089  10.859  11.155
11120W        W83435  37.587   7.666   1.761
11121W        W83436   0.972  26.611   0.393
11122W        W83437  11.800  22.331  10.226
11123W        W83438  43.989  28.536   4.671
11124W        W83439  34.557   2.237   0.888
11125W        W83440  13.848  39.883   2.440
11126W        W83441  33.131  33.233  11.636
11127W        W83442  37.823  36.106  13.129
11128W        W83443  37.289  15.570   2.772
11129W        W83444   9.746   1.713   4.165
11130W        W83445   9.629  10.218  14.801
11131W        W83446  29.439  32.329  14.358
11132W        W83447  32.619  44.988   3.952
11133W        W83448  16.310  12.351   0.934
11134W        W83449  25.469  24.551  14.305
11135W        W83450   1.448  27.680  13.130
11136W        W83451  10.368  23.558  14.867
11137W        W83452  41.937   2.337   3.405
11138W        W83453  25.902  13.913   0.812
11139W        W83454  35.536  17.975  11.040
11140W        W83455  37.525  38.883   4.018
11141W        W83456  22.288  39.907   0.445
11142W        W83457  20.039   9.657  13.329
11143W        W83458  21.881   1.708   2.852
11144W        W83459  32.463  44.743   0.337
11145W        W83460  44.400  16.189  12.554
11146W        W83461  25.996  11.574   0.897
11147W        W83462  25.483  41.254   0.882
11148W        W83463  29.500  38.003  13.886
11149W        W83464  36.095  20.020  12.976
11150W        W83465  42.042  14.790   3.246
11151W        W83466  42.489   1.401  10.596
11152W        W83467  22.331  32.599   3.652
11153W        W83468  12.337   1.695   0.289
11154W        W83469  13.113  17.031  12.862
11155W        W83470   5.220  20.189   2.827
11156W        W83471  21.576  28.107  14.246
11157W        W83472  43.245  17.698  11.538
11158W        W83473   5.286  31.626   2.458
11159W        W83474  14.144  20.699  11.594
11160W        W83475   6.037  21.097  12.504
11161W        W83476   1.944  29.553   0.658
11162W        W83477   0.881  34.794  12.786
11163W        W83478  18.751   5.803   4.562
11164W        W83479   1.098  16.835   0.847
11165W        W83480  10.884  19.706   5.543
11166W        W83481  26.530  14.085   0.268
11167W        W83482   0.882   5.742   3.074
11168W        W83483  34.839   8.154  11.453
11169W        W83484  27.504   3.952   0.434
11170W        W83485  23.196  22.280  13.797
11171W        W83486  29.914  31.152  13.965
11172W        W83487  20.070  28.941  11.237
11173W        W83488  20.084  43.433   3.803
11174W        W83489  32.974  17.645  14.082
11175W        W83490   6.334  40.524   1.158
11176W        W83491  11.775  23.483  14.951
11177W        W83492  18.625  36.610   2.333
11178W        W83493  37.515   7.674  12.923
11179W        W83494  33.156  26.518   4.751
11180W        W83495   9.270  23.719   3.727
11181W        W83496  41.373  40.602  10.770
11182W        W83497  37.616   0.947   3.771
11183W        W83498  29.245  32.671   5.265
11184W        W83499  39.701  29.423  13.444
11185W        W83500  24.535  20.007  14.375
11186W        W83501  36.013  31.179  11.254
11187W        W83502  21.521  21.756   3.739
11188W        W83503  15.374  35.316  11.211
11189W        W83504  26.103  14.284   2.818
11190W        W83505  40.981  31.959  12.462
11191W        W83506  35.653  23.251   0.546
11192W        W83507  10.111  44.477  12.836
11193W        W83508  31.550  28.037  14.748
11194W        W83509  40.328  30.603  13.947
11195W        W83510  21.253  43.841  12.439
11196W        W83511  32.219  13.800   4.490
11197W        W83512   7.695  27.302  11.559
11198W        W83513  19.069  18.581  11.544
11199W        W83514  38.308  13.278   4.158
11200W        W83515  22.088  14.060   0.742
11201W        W83516   3.547  12.317  11.945
11202W        W83517  19.772  22.623  10.703
11203W        W83518  35.049   3.339   3.264
11204W        W83519   5.103  26.288   2.774
11205W        W83520   1.620  35.733   4.190
11206W        W83521  35.496  37.777   2.174
11207W        W83522  34.894  40.849   1.006
11208W        W83523  16.704  20.622   4.734
11209W        W83524  34.055  38.974  11.649
11210W        W83525  44.388  21.675   2.736
11211W        W83526   7.749  13.620  13.429
11212W        W83527  28.577   5.662   2.636
11213W        W83528  32.463  27.206  10.591
11214W        W83529  40.357  14.230  11.932
11215W        W83530   7.948  41.826  14.038
11216W        W83531  28.792  10.585   0.332
11217W        W83532  34.307  33.573  11.924
11218W        W83533  14.145   7.428  13.388
11219W        W83534  33.333  19.577  14.279
11220W        W83535   5.927  44.452  11.486
11221W        W83536  28.598  31.923  11.086
11222W        W83537  31.973  26.272  12.484
11223W        W83538  33.457   2.569  14.894
11224W        W83539  30.524  25.277   1.411
11225W        W83540  39.118   0.973  12.612
11226W        W83541   1.397  15.058   0.381
11227W        W83542  37.633  34.365   1.530
11228W        W83543  18.226   1.711   0.171
11229W        W83544  23.625   8.422  14.243
11230W        W83545  19.129  33.976   2.557
11231W        W83546  22.088  30.707   1.725
11232W        W83547  25.525  28.469   4.191
11233W        W83548   7.770  13.105   3.613
11234W        W83549  14.538   6.681  13.032
11235W        W83550   7.750   5.223  11.736
11236W        W83551  36.992  28.836  12.055
11237W        W83552  35.473  21.189  14.077
11238W        W83553   5.760  24.569  10.730
11239W        W83554  23.452   0.271  11.867
11240W        W83555  43.310  37.307  11.543
11241W        W83556  44.218   2.355  14.409
11242W        W83557  30.137  17.028  13.419
11243W        W83558  43.461   6.951  11.485
11244W        W83559  16.290  30.281   1.430
11245W        W83560  17.730  25.570   4.459
11246W        W83561  26.189  22.281   0.898
11247W        W83562  11.390  15.759   2.646
11248W        W83563   8.749  38.333  12.155
11249W        W83564  33.884  23.177   4.495
11250W        W83565  41.583  23.222   1.987
11251W        W83566  40.084  22.047   3.772
11252W        W83567   7.257  42.260   2.358
11253W        W83568  42.927  12.559  13.386
11254W        W83569  15.715  17.274   2.210
11255W        W83570  35.018  44.851  12.407
11256W        W83571  19.965  18.319   2.600
11257W        W83572  24.270  20.164  13.211
11258W        W83573  19.555  25.164  10.679
11259W        W83574  16.301  14.355   5.126
11260W        W83575  32.022  23.230   3.194
11261W        W83576  28.154  10.187   4.096
11262W        W83577   0.454  34.672   2.317
11263W        W83578  33.483  43.492   4.123
11264W        W83579  23.752  42.041  13.791
11265W        W83580  18.106  30.782   1.500
11266W        W83581  19.660  13.622   3.770
11267W        W83582  15.244  40.019   3.372
11268W        W83583  37.878  32.475  11.249
11269W        W83584  13.246  31.658   1.735
11270W        W83585  43.534  23.895  13.958
11271W        W83586  38.871  18.022   2.268
11272W        W83587  19.531  28.571  13.002
11273W        W83588  12.665  26.474  10.680
11274W        W83589  24.101  36.447  13.436
11275W        W83590  31.422  13.650  14.767
11276W        W83591  36.970   5.485  14.463
11277W        W83592  43.618   9.731  11.458
11278W        W83593  30.033  30.196  13.173
11279W        W83594  37.959  23.165  13.544
11280W        W83595  14.581  37.276  10.679
11281W        W83596  38.449  19.605   2.740
11282W        W83597  10.035   4.202   0.784
11283W        W83598  26.914  44.843   1.306
11284W        W83599  11.702  12.456  13.165
11285W        W83600  27.508  12.054  13.567
11286W        W83601  16.496  23.997   4.853
11287W        W83602  44.673  28.097   1.393
11288W        W83603  37.265  15.982   4.545
11289W        W83604  43.772  31.530  12.498
11290W        W83605  14.711  31.508   2.737
11291W        W83606  40.547  34.369   3.201
11292W        W83607  23.657  31.551  13.528
11293W        W83608  26.862   2.882   5.392
11294W        W83609  13.178  17.194  13.353
11295W        W83610  38.957   7.578   0.270
11296W        W83611  23.559   3.414  11.663
11297W        W83612   2.722  23.081   3.363
11298W        W83613  10.701   3.607  11.684
11299W        W83614  10.605  34.396  14.520
11300W        W83615  35.437  29.168   3.308
11301W        W83616  13.715  43.369   1.008
11302W        W83617  35.510  33.773  11.689
11303W        W83618   6.926  43.970  14.352
11304W        W83619  44.937  12.871  13.605
11305W        W83620   5.726  14.181  10.920
11306W        W83621   3.396  26.566   3.127
11307W        W83622  13.876  44.063  10.976
11308W        W83623   6.384  19.826  12.524
11309W        W83624  24.591   4.359   2.045
11310W        W83625  11.230   5.674  11.978
11311W        W83626   5.721  39.863  11.941
11312W        W83627  28.012   5.145   1.340
11313W        W83628  19.653  41.953  11.422
11314W        W83629  13.779  18.557  10.669
11315W        W83630  18.909  32.920  13.977
11316W        W83631  44.902  23.672  10.594
11317W        W83632  35.109   6.721   1.347
11318W        W83633   1.359   9.599  10.409
11319W        W83634  25.065   2.688  13.030
11320W        W83635  23.356   1.357   0.260
11321W        W83636  34.113   1.385  11.032
11322W        W83637  14.776  24.808  14.461
11323W        W83638  28.662  26.568   2.785
11324W        W83639  18.428  25.157  14.465
11325W        W83640  32.527  17.766  14.352
11326W        W83641  42.462  26.997  13.988
11327W        W83642  28.169  25.661  13.446
11328W        W83643  14.057  32.972   0.587
11329W        W83644  19.385   0.736  12.884
11330W        W83645  30.047  12.350  14.031
11331W        W83646  37.541  23.989   3.111
11332W        W83647  33.390  10.929   4.611
11333W        W83648   3.041  33.083  10.509
11334W        W83649  36.982  39.029  10.547
11335W        W83650   5.796  41.059   1.305
11336W        W83651  29.987  33.591  10.439
11337W        W83652  44.919   4.003   3.171
11338W        W83653  27.953  38.883  13.926
11339W        W83654  35.539  38.171   1.839
11340W        W83655   3.447  23.920   2.026
11341W        W83656  29.514  26.485  12.785
11342W        W83657  24.103  15.608   4.091
11343W        W83658  33.401  28.673   4.103
11344W        W83659  29.171   0.395  12.458
11345W        W83660  18.071  14.814   0.887
11346W        W83661  35.598  40.820   0.948
11347W        W83662  17.167  24.482   3.925
11348W        W83663  16.550  18.302  11.926
11349W        W83664  34.376  14.716   2.494
11350W        W83665   1.385  37.146  12.520
11351W        W83666  40.555  33.316  14.390
11352W        W83667  21.560  27.947  10.063
11353W        W83668  42.795   5.779   3.292
11354W        W83669   1.852  28.143  11.913
11355W        W83670   7.341  41.256   3.259
11356W        W83671  25.627  36.164   2.614
11357W        W83672  34.389  20.018   2.838
11358W        W83673   8.600  30.537   4.286
11359W        W83674  39.511  30.516   2.236
11360W        W83675  22.627   5.337  13.374
11361W        W83676  17.765  32.668   4.558
11362W        W83677   3.289  32.567  13.656
11363W        W83678  23.924  29.594   3.730
11364W        W83679  40.877  39.599   1.813
11365W        W83680  25.473  11.631   0.815
11366W        W83681  44.976  37.860  13.040
11367W        W83682  30.625  20.085  13.046
11368W        W83683   8.555  37.487  11.352
11369W        W83684   8.765  21.565   3.305
11370W        W83685  13.301  19.168   0.820
11371W        W83686  28.533  44.239  10.608
11372W        W83687  38.810  22.006  10.044
11373W        W83688  16.612   1.486  13.555
11374W        W83689  24.010  29.001   0.295
11375W        W83690  27.170   8.617  13.896
11376W        W83691   4.110  30.591  13.792
11377W        W83692  24.371  17.972   1.420
11378W        W83693  40.581  36.012  10.259
11379W        W83694   7.443   5.843  12.054
11380W        W83695  30.691  33.597   4.656
11381W        W83696  28.988   5.960  11.518
11382W        W83697  28.969   7.307   1.924
11383W        W83698  12.475  29.358  11.945
11384W        W83699  21.841  21.254  11.031
11385W        W83700  25.910  35.301  11.943
11386W        W83701   1.784  12.558   1.759
11387W        W83702  36.471  17.842   0.940
11388W        W83703   3.813  17.091  13.944
11389W        W83704  40.778  20.307   2.455
11390W        W83705  33.477  20.583   3.622
11391W        W83706  31.678  42.898   2.245
11392W        W83707  27.351  34.965   3.786
11393W        W83708  25.498  11.836   4.575
11394W        W83709  24.629  37.974   2.422
11395W        W83710  14.132  10.683  10.573
11396W        W83711  44.920   5.938   1.757
11397W        W83712  26.206  24.240   1.896
11398W        W83713  22.973  22.161   0.343
11399W        W83714  34.531   7.703   0.772
11400W        W83715  43.944  44.691  12.604
11401W        W83716  31.630   5.596  11.932
11402W        W83717   2.472   4.394   2.412
11403W        W83718  43.024  35.357   4.154
11404W        W83719   9.415  39.358   3.325
11405W        W83720  35.510   4.472   3.745
11406W        W83721  40.265  29.685   3.172
11407W        W83722   1.643  39.751  13.561
11408W        W83723  15.741  23.420   4.695
11409W        W83724   3.246  33.474   2.827
11410W        W83725  27.137   5.321   4.653
11411W        W83726  30.974   4.960   0.694
11412W        W83727  22.676  11.386  13.019
11413W        W83728  24.764   1.756  12.374
11414W        W83729   9.909  37.615  12.623
11415W        W83730  19.856  19.582   2.310
11416W        W83731  16.059  26.663   1.949
11417W        W83732  11.141  20.971   0.859
11418W        W83733  41.553  14.278  13.625
11419W        W83734  32.196   0.572   5.046
11420W        W83735  44.005  14.842  12.432
11421W        W83736  37.169  28.160  13.349
11422W        W83737  16.018  44.044  11.244
11423W        W83738  15.145  15.714  11.205
11424W        W83739  14.244  32.850   3.820
11425W        W83740  27.942  28.711   4.591
11426W        W83741  31.044  17.659   0.924
11427W        W83742   8.438  34.976  11.252
11428W        W83743  41.736  38.332   3.940
11429W        W83744   2.292  32.519  12.929
11430W        W83745   3.898  21.310  14.526
11431W        W83746  38.797   0.851  14.888
11432W        W83747   5.080   4.748  13.257
11433W        W83748  23.451   1.817  11.164
11434W        W83749  31.589  35.491  13.393
11435W        W83750  40.191   0.427   1.356
11436W        W83751  10.907  29.968  11.197
11437W        W83752  20.562  15.665   1.489
11438W        W83753  17.822  44.788   2.877
11439W        W83754  28.915  38.371   0.431
11440W        W83755  28.934  24.136  12.016
11441W        W83756  16.999  31.160   3.212
11442W        W83757  17.588  32.513   2.994
11443W        W83758   4.682  40.786   2.702
11444W        W83759  13.466  20.617  14.884
11445W        W83760  20.313  13.260   3.317
11446W        W83761  10.148  42.286   1.635
11447W        W83762  43.557  10.944   4.864
11448W        W83763  21.809  11.251  10.765
11449W        W83764  42.257  40.933   1.226
11450W        W83765   7.733   8.909  13.471
11451W        W83766   4.929  41.950  13.135
11452W        W83767  38.148  25.817   0.379
11453W        W83768  39.283  32.451  10.547
11454W        W83769  33.882  19.192   3.667
11455W        W83770  21.544   5.841  14.457
11456W        W83771  23.462  20.199  14.314
11457W        W83772  15.268  14.818   2.372
11458W        W83773   8.457  17.097  12.162
11459W        W83774  17.194  43.494   4.068
11460W        W83775  41.872  37.964  13.069
11461W        W83776  16.058   9.153  12.599
11462W        W83777  37.243  23.759  14.721
11463W        W83778  43.844  11.797  14.922
11464W        W83779   7.289  35.175   1.344
11465W        W83780  24.236  33.027   1.020
11466W        W83781  27.979  23.572  11.078
11467W        W83782  13.061  10.438   3.160
11468W        W83783   5.916  44.447   3.297
11469W        W83784   7.564  13.170  11.379
11470W        W83785   8.751  31.372   4.633
11471W        W83786  38.950  13.335   2.934
11472W        W83787  28.354   5.217  13.966
11473W        W83788  24.094  22.633   1.023
11474W        W83789  38.597  17.733   0.969
11475W        W83790  17.700  38.556   5.350
11476W        W83791  44.006  24.360   0.709
11477W        W83792  14.783  12.104   3.308
11478W        W83793  11.749  22.968  12.097
11479W        W83794  15.092   3.656  13.688
11480W        W83795  37.460  16.249  12.100
11481W        W83796  33.606  38.335   3.149
11482W        W83797   3.679  16.545   0.799
11483W        W83798  23.905   2.475   2.885
11484W        W83799   4.261  27.673  10.653
11485W        W83800  43.521  15.019  12.504
11486W        W83801  29.902  22.300   2.382
11487W        W83802  12.176  13.708  14.438
11488W        W83803   5.880   2.977   0.991
11489W        W83804  32.233  15.590  14.931
11490W        W83805  16.232  43.937   1.670
11491W        W83806  14.847  36.582  11.620
11492W        W83807  42.256  28.922  11.958
11493W        W83808  10.397   2.808  10.822
11494W        W83809  33.408   3.285   1.434
11495W        W83810  20.489  22.247  10.895
11496W        W83811  30.365  17.253   1.804
11497W        W83812  25.711  20.864  13.826
11498W        W83813  24.541   8.782  14.761
11499W        W83814  26.986  19.182   2.472
11500W        W83815  18.707  14.138  13.453
11501W        W83816  25.560  21.485   3.265
11502W        W83817  26.021  10.274   4.126
11503W        W83818  20.594  10.508   5.587
11504W        W83819   7.160  23.216  12.901
11505W        W83820  33.910  14.136  11.660
11506W        W83821  13.793  21.710   1.499
11507W        W83822  39.239  26.064   3.120
11508W        W83823  35.661  13.497   4.094
11509W        W83824  33.210  40.514   1.284
11510W        W83825  38.947  38.607  13.896
11511W        W83826  14.225  43.426   3.655
11512W        W83827   2.512  18.502  14.099
11513W        W83828  32.105  17.017  10.204
11514W        W83829  44.288  37.609   0.864
11515W        W83830  40.325  22.245   1.222
11516W        W83831  15.668   0.909  14.130
11517W        W83832   8.226  17.749   2.703
11518W        W83833  28.674  33.973  13.662
11519W        W83834  24.122  23.025   2.868
11520W        W83835  18.159  18.492  11.983
11521W        W83836   6.010  37.696   4.142
11522W        W83837   5.377  27.563  12.158
11523W        W83838  12.071  39.663   3.400
11524W        W83839  26.930  25.934   0.270
11525W        W83840   0.318  17.001   1.021
11526W        W83841  35.064  26.524  13.292
11527W        W83842  15.623  24.308   5.274
11528W        W83843  31.149  35.079  14.501
11529W        W83844  23.689  37.806  13.880
11530W        W83845  21.315   0.804   2.914
11531W        W83846  22.003  31.612  14.417
11532W        W83847  33.952  36.550   4.244
11533W        W83848  44.354  32.367  12.541
11534W        W83849  23.659  14.740  11.527
11535W        W83850  42.195  25.643   0.645
11536W        W83851   4.546  14.708  14.850
11537W        W83852   8.903  29.361   4.968
11538W        W83853  12.369  11.316   4.503
11539W        W83854   7.573   9.244   2.728
11540W        W83855  37.352   4.700  14.480
11541W        W83856  42.808  15.134   1.334
11542W        W83857  40.593  43.428  13.493
11543W        W83858   3.238   3.801  11.198
11544W        W83859  43.418  22.924   0.010
11545W        W83860  40.115   1.906   1.794
11546W        W83861  41.960   8.456  13.752
11547W        W83862  12.112  36.678  13.632
11548W        W83863  25.212   3.152   4.043
11549W        W83864  18.536  25.203   2.741
11550W        W83865   7.918  39.992   1.765
11551W        W83866  32.028  33.316  12.544
11552W        W83867  22.509  10.685  11.124
11553W        W83868  32.827  41.877  10.582
11554W        W83869  39.773  33.195  11.191
11555W        W83870   2.897  20.315  14.587
11556W        W83871   6.789  15.797  10.694
11557W        W83872   0.221  37.030   4.170
11558W        W83873  30.090  38.610  12.087
11559W        W83874  10.355  39.109  12.410
11560W        W83875  23.543  37.893  10.749
11561W        W83876  26.832  21.524  14.328
11562W        W83877   8.724  26.098  11.578
11563W        W83878  32.130  17.498  10.395
11564W        W83879   2.723  10.783   1.513
11565W        W83880  36.115  34.403   1.319
11566W        W83881   6.145  35.928  13.836
11567W        W83882  19.239  25.099  14.330
11568W        W83883  18.631  13.818   3.736
11569W        W83884  37.631  23.079  10.949
11570W        W83885  18.620  37.896  12.388
11571W        W83886   1.803  36.844  13.490
11572W        W83887  20.997  30.980   4.604
11573W        W83888   7.369  27.092  10.305
11574W        W83889  34.510  35.884   1.164
11575W        W83890   6.777  30.576  14.476
11576W        W83891   5.725  41.978  13.472
11577W        W83892   1.370   8.323   2.747
11578W        W83893   7.121  25.257   3.353
11579W        W83894   2.278  36.703   4.819
11580W        W83895  43.619  19.362   3.277
11581W        W83896  15.580  33.245   0.353
11582W        W83897  32.112  21.260  12.117
11583W        W83898  35.984  42.947   2.776
11584W        W83899  25.888  41.875   3.104
11585W        W83900  44.924  17.074  12.784
11586W        W83901  12.359  40.621   4.114
11587W        W83902  13.881  22.766  11.979
11588W        W83903   9.441  31.376  13.495
11589W        W83904  23.436  31.146  11.233
11590W        W83905  33.600  15.031   3.611
11591W        W83906  37.149  11.388  13.480
11592W        W83907  32.458  35.842   4.548
11593W        W83908  25.307   4.796  12.951
11594W        W83909  15.686   9.841  13.834
11595W        W83910   7.394   8.777   2.893
11596W        W83911  12.232  32.659   3.742
11597W        W83912  21.076  27.370   2.281
11598W        W83913  13.287  30.801   0.734
11599W        W83914  16.739  25.641  12.822
11600W        W83915   1.106  41.620   4.575
11601W        W83916   1.573  20.762   2.494
11602W        W83917   2.516  29.871   4.599
11603W        W83918  20.938  22.850  14.332
11604W        W83919  23.253  20.989  10.287
11605W        W83920   3.812  19.540   4.621
11606W        W83921  12.844   3.921  13.398
11607W        W83922  17.271  43.399   2.102
11608W        W83923  32.976   7.280   0.324
11609W        W83924  17.471  43.809  13.909
11610W        W83925   2.733   4.220   2.909
11611W        W83926  13.321  28.708   2.525
11612W        W83927  10.238  21.274  14.051
11613W        W83928   7.826  27.375   0.360
11614W        W83929  11.677  36.473  12.219
11615W        W83930   7.295   9.378  12.488
11616W        W83931  28.098  30.957   0.404
11617W        W83932  14.859  29.470   4.189
11618W        W83933  40.742  40.764   1.186
11619W        W83934  41.763  36.168  13.591
11620W        W83935  44.770  28.453  13.470
11621W        W83936  21.193  10.048   0.340
11622W        W83937  39.275  20.785   4.202
11623W        W83938   7.878  29.421   3.756
11624W        W83939  13.252  21.293   4.237
11625W        W83940  24.549  31.117  13.293
11626W        W83941  33.982   8.233  10.909
11627W        W83942  30.620   7.627  12.618
11628W        W83943  30.019  38.082  12.095
11629W        W83944  35.908   0.731  12.955
11630W        W83945  26.000  28.653  13.005
11631W        W83946  16.391  22.506  14.490
11632W        W83947  14.850  19.938  11.164
11633W        W83948  36.935   2.734   2.875
11634W        W83949  14.058  37.838  13.991
11635W        W83950  18.157   9.546  11.114
11636W        W83951   8.370  18.750   1.873
11637W        W83952  44.243   8.313   4.107
11638W        W83953   5.328  34.135  13.448
11639W        W83954  20.043   6.475  10.728
11640W        W83955  39.724  32.180  14.291
11641W        W83956   6.789  29.030   3.114
11642W        W83957   8.374   4.559  12.900
11643W        W83958  32.912  23.117   3.823
11644W        W83959  36.854   6.940   3.640
11645W        W83960  42.830  34.187   3.264
11646W        W83961   8.742  18.532  14.333
11647W        W83962   1.278  25.711   2.346
11648W        W83963  11.612   9.842  11.388
11649W        W83964  27.250  35.044   0.824
11650W        W83965   2.845  40.454  14.700
11651W        W83966  25.101   2.488  12.539
11652W        W83967  31.055  23.728   2.257
11653W        W83968  15.316  33.554  11.946
11654W        W83969  23.517  40.922  14.319
11655W        W83970  17.553   2.546   2.789
11656W        W83971  38.377   8.231  14.946
11657W        W83972   2.729  17.692   4.925
11658W        W83973  24.244  22.690   3.273
11659W        W83974   1.368  44.584   1.945
11660W        W83975  44.269  35.380   4.793
11661W        W83976  38.767   3.438   1.277
11662W        W83977  13.692   5.748   4.490
11663W        W83978  26.983  40.063  11.571
11664W        W83979  41.177  40.242  11.088
11665W        W83980  41.558  28.701   3.144
11666W        W83981   7.782   3.790   1.346
11667W        W83982  10.689   2.394  11.422
11668W        W83983  24.514  35.424  13.870
11669W        W83984  36.063  22.710  13.387
11670W        W83985  10.691  33.091   3.588
11671W        W83986  39.874  23.306  12.491
11672W        W83987  24.755   6.093  13.321
11673W        W83988  12.556   2.900   4.226
11674W        W83989  28.203  30.451  11.988
11675W        W83990   7.150  12.232   4.050
11676W        W83991  21.191  23.109   1.195
11677W        W83992  36.859  40.358  11.589
11678W        W83993  25.166   5.613  14.877
11679W        W83994  34.046   2.314   0.931
11680W        W83995  18.798  11.767   5.187
11681W        W83996  29.921  35.026  12.816
11682W        W83997  22.310  36.883  13.269
11683W        W83998  18.657  40.604  11.256
11684W        W83999  40.250  18.748  12.115
11685W        W84000  13.092  10.345   4.089
11686W        W84001  32.405  13.480   1.330
11687W        W84002  28.008   2.603  12.005
11688W        W84003  13.795  33.619  11.156
11689W        W84004   1.963  38.394  14.793
11690W        W84005  10.882   1.250  12.999
11691W        W84006   6.776  39.849  12.555
11692W        W84007  25.746   4.273   3.269
11693W        W84008  24.116  16.309  14.632
11694W        W84009  19.926  31.208  11.771
11695W        W84010  38.158  40.136   3.261
11696W        W84011  32.470  30.465  13.597
11697W        W84012  14.628  19.297  12.547
11698W        W84013  41.060  13.115  12.757
11699W        W84014  25.674   9.117  13.377
11700W        W84015   1.392  20.119   3.263
11701W        W84016   2.449  10.258  14.530
11702W        W84017  39.355  16.925   4.670
11703W        W84018  32.991  32.557   4.502
11704W        W84019  38.465  14.678  12.602
11705W        W84020  35.500  28.481   1.910
11706W        W84021   9.836  11.181   0.853
11707W        W84022   0.000  41.878  13.448
11708W        W84023   1.007  37.105  11.484
11709W        W84024   0.301  21.004   3.379
11710W        W84025  10.138  37.631   3.166
11711W        W84026   9.924  33.685   1.153
11712W        W84027  40.629  37.731   0.719
11713W        W84028  22.066  17.218  11.922
11714W        W84029   6.467  42.747   5.078
11715W        W84030   8.191  14.686   2.227
11716W        W84031   4.849  26.796  14.930
11717W        W84032  18.210  37.561  10.218
11718W        W84033   6.690  19.119   2.868
11719W        W84034  12.918   1.394   1.422
11720W        W84035  40.840  16.921  10.709
11721W        W84036  12.686  40.567  13.822
11722W        W84037  11.426  37.556  13.314
11723W        W84038  12.460  30.130   4.735
11724W        W84039  11.099   8.685   4.567
11725W        W84040  34.425  13.194  14.791
11726W        W84041   8.435   4.674   2.531
11727W        W84042  11.443   8.889   2.659
11728W        W84043  21.982  40.045  12.090
11729W        W84044  28.348  40.999   2.386
11730W        W84045   6.408   8.138   1.967
11731W        W84046  20.582   7.033  12.008
11732W        W84047  30.994  35.555  14.681
11733W        W84048  19.187   7.836  14.802
11734W        W84049  39.508  35.806   2.594
11735W        W84050  38.458  33.557  12.345
11736W        W84051  28.016  21.050  11.656
11737W        W84052   3.690  39.616   3.705
11738W        W84053  26.907  29.045   1.438
11739W        W84054  41.572  32.292   0.554
11740W        W84055   6.411  29.121  14.049
11741W        W84056  24.737  33.642  13.590
11742W        W84057  35.671  29.458   0.227
11743W        W84058   4.889  38.467  12.043
11744W        W84059  40.377  25.936   0.875
11745W        W84060  26.656  37.844  10.632
11746W        W84061  35.100  42.249   0.982
11747W        W84062   6.334  32.489   0.020
11748W        W84063   4.880  17.720  12.385
11749W        W84064  31.009  22.148  11.011
11750W        W84065  21.237  26.664  10.647
11751W        W84066  38.012  35.853   3.943
11752W        W84067  30.420  15.609  14.861
11753W        W84068   5.377  41.949   3.607
11754W        W84069  32.675  30.071   2.173
11755W        W84070  16.212  22.732  11.439
11756W        W84071  22.203  16.198  13.356
11757W        W84072  16.381  32.956   0.405
11758W        W84073  37.686  24.288   5.183
11759W        W84074  34.314  33.421  14.407
11760W        W84075  17.742  23.190  12.549
11761W        W84076   1.232  31.480  11.521
11762W        W84077  13.570  44.342   0.226
11763W        W84078  12.149  36.329  12.962
11764W        W84079  34.327  16.289  11.265
11765W        W84080   8.983  14.061   1.162
11766W        W84081  32.666   5.436   3.188
11767W        W84082  22.022  11.535   3.290
11768W        W84083  36.102  16.720  11.701
11769W        W84084  34.777  43.418  12.270
11770W        W84085  21.571  32.737   0.788
11771W        W84086  31.879  17.721   3.585
11772W        W84087  33.717  27.977   3.600
11773W        W84088  29.717  27.694  12.059
11774W        W84089  27.899  41.446  12.062
11775W        W84090   6.779  38.480   1.865
11776W        W84091  25.685  30.913   1.163
11777W        W84092  33.733  41.589   4.244
11778W        W84093  21.843  16.538  10.665
11779W        W84094  38.614   3.182  13.962
11780W        W84095  14.168  39.736  11.584
11781W        W84096   4.934  37.868   2.259
11782W        W84097  20.053  35.878   2.666
11783W        W84098  36.110  32.421  11.683
11784W        W84099  29.899  30.994  11.783
11785W        W84100  22.489  30.957   1.485
11786W        W84101  26.913  12.577  12.766
11787W        W84102   4.500  33.031   3.325
11788W        W84103  43.490   0.297  12.435
11789W        W84104   8.329  21.456   4.180
11790W        W84105   8.143  11.116  14.951
11791W        W84106   4.002   2.218  12.878
11792W        W84107  22.555   5.661  11.425
11793W        W84108  15.341  15.760   4.176
11794W        W84109  41.508   3.458   3.667
11795W        W84110   3.712  36.156  11.110
11796W        W84111  36.452  22.164   4.079
11797W        W84112  37.073  30.593  13.389
11798W        W84113  12.705  17.130   0.727
11799W        W84114  23.467  18.523  13.159
11800W        W84115  40.830   9.031   3.338
11801W        W84116  43.427  23.822   0.412
11802W        W84117  31.964  42.611  12.661
11803W        W84118   9.783  10.841  12.413
11804W        W84119  21.810   6.392   0.688
11805W        W84120   2.063  34.856  14.767
11806W        W84121  39.420  31.523   3.603
11807W        W84122   3.775  44.882  11.209
11808W        W84123  21.769  38.984   0.299
11809W        W84124  10.686   2.410   2.373
11810W        W84125  14.715  21.670  11.673
11811W        W84126   9.477  36.804   3.959
11812W        W84127   5.457   3.193  13.874
11813W        W84128   5.766  42.292   0.728
11814W        W84129  14.566  32.077  12.122
11815W        W84130  38.283  33.488  13.299
11816W        W84131  22.589  18.296   3.292
11817W        W84132  19.961  38.991  13.364
11818W        W84133   4.643   1.151  14.167
11819W        W84134  25.301  25.659  12.840
11820W        W84135   1.029  19.625   4.095
11821W        W84136   3.185   4.704  14.439
11822W        W84137  18.560  41.564   1.798
11823W        W84138  30.619  41.982  12.626
11824W        W84139   6.936  38.034   3.357
11825W        W84140  23.063   0.819  11.438
11826W        W84141  10.855   6.994   0.654
11827W        W84142   7.378   6.312   0.811
11828W        W84143   5.289   3.834  12.557
11829W        W84144  15.657  23.626  13.914
11830W        W84145  14.567  24.196  10.963
11831W        W84146  27.457  13.353  10.501
11832W        W84147   3.390   6.969   4.052
11833W        W84148  42.052  20.147   4.450
11834W        W84149  18.079  23.932  14.804
11835W        W84150   4.321  38.419   1.257
11836W        W84151  39.054  39.858   2.908
11837W        W84152  26.656  24.792  12.921
11838W        W84153  39.315  14.193  13.926
11839W        W84154  27.012  33.015   2.693
11840W        W84155  14.714  20.155   4.161
11841W        W84156  42.997  33.359  11.905
11842W        W84157  12.664   3.981  13.941
11843W        W84158  33.870  11.797   4.851
11844W        W84159  37.773   8.640   3.282
11845W        W84160  39.909  38.863   2.385
11846W        W84161   1.297   1.374   1.252
11847W        W84162   4.494  23.604   4.910
11848W        W84163  27.066  27.524   4.509
11849W        W84164  28.875  15.196  11.561
11850W        W84165   2.202  32.224   4.167
11851W        W84166  35.432   9.875   2.213
11852W        W84167  30.525   3.372  12.214
11853W        W84168  13.049  12.764  13.992
11854W        W84169  34.687  14.289  11.207
11855W        W84170  29.033  36.991  14.986
11856W        W84171  13.578  22.032  12.440
11857W        W84172  44.651  29.881   5.030
11858W        W84173  23.700  23.730  11.843
11859W        W84174  36.581  13.440   2.904
11860W        W84175   1.592   1.987  11.093
11861W        W84176   0.384  16.744   4.841
11862W        W84177  20.220  19.833   0.811
11863W        W84178  21.333  35.134  14.279
11864W        W84179  27.518   3.710   1.750
11865W        W84180   0.808  44.932   4.729
11866W        W84181   4.096  29.009  12.870
11867W        W84182   5.652  16.372   4.574
11868W        W84183  40.467   4.372  13.421
11869W        W84184  27.541  26.433   3.604
11870W        W84185  41.807  31.496   0.967
11871W        W84186   2.919  23.104   1.851
11872W        W84187  43.196  29.989  12.981
11873W        W84188  34.428  14.676   1.374
11874W        W84189  23.747  21.239   4.481
11875W        W84190  31.851  19.998   2.359
11876W        W84191  41.776  29.828  11.114
11877W        W84192   1.169   9.893  10.779
11878W        W84193  44.919  32.848  12.975
11879W        W84194  15.677  10.365  14.753
11880W        W84195   9.178  13.169  10.585
11881W        W84196  13.299  22.499   2.694
11882W        W84197  12.131  25.238  11.560
11883W        W84198  17.785  11.714   1.690
11884W        W84199  39.238   3.260   1.414
11885W        W84200  25.609  11.158  14.323
11886W        W84201  14.846  14.081  12.947
11887W        W84202  39.985   0.053   2.674
11888W        W84203   6.718  44.385  10.437
11889W        W84204  14.499   5.745  12.600
11890W        W84205  29.091  25.318   3.097
11891W        W84206   8.357   6.579   2.384
11892W        W84207   2.309  28.518   4.537
11893W        W84208  23.166  35.112   0.715
11894W        W84209  26.286   7.158   3.710
11895W        W84210   7.438  19.533   0.767
11896W        W84211  15.540  33.540   3.219
11897W        W84212  39.787   4.798   0.983
11898W        W84213  19.207  31.147   0.372
11899W        W84214   5.150  11.207   0.882
11900W        W84215   4.925  40.312   3.218
11901W        W84216   1.474   4.206   1.955
11902W        W84217  12.051  32.994   3.358
11903W        W84218  18.519  14.071   3.318
11904W        W84219  31.544  28.678   4.594
11905W        W84220   2.638  10.152   4.526
11906W        W84221  37.340  33.949   1.259
11907W        W84222  18.183  10.062   3.036
11908W        W84223  42.092  36.182   4.945
11909W        W84224  20.290  44.529  12.078
11910W        W84225  32.526   0.470   4.078
11911W        W84226  40.029   9.799   0.445
11912W        W84227  18.984   2.816   2.915
11913W        W84228  12.369   7.722   0.481
11914W        W84229  42.355   5.696  11.886
11915W        W84230   3.758   5.863   4.594
11916W        W84231  33.348  30.638  11.557
11917W        W84232  28.885  19.639   3.189
11918W        W84233  34.855   1.784  10.275
11919W        W84234  39.758  40.890   3.368
11920W        W84235  38.765  19.480   1.354
11921W        W84236  22.934  24.637  10.983
11922W        W84237  11.679   7.240   4.598
11923W        W84238  37.580   3.371  13.974
11924W        W84239   4.629  13.661  14.050
11925W        W84240  26.031  10.597   2.694
11926W        W84241   6.170  17.019  11.143
11927W        W84242  39.212  19.757  12.819
11928W        W84243  17.018  42.489   1.860
11929W        W84244  43.365   0.193   2.356
11930W        W84245  29.983   0.891  13.983
11931W        W84246  10.164  31.513   4.926
11932W        W84247  38.841   0.814  12.178
11933W        W84248  27.799   7.353   0.715
11934W        W84249  31.939   4.936  12.830
11935W        W84250   5.035  41.161   3.684
11936W        W84251  31.173  29.570   4.968
11937W        W84252   8.312  24.652   3.621
11938W        W84253  38.118  20.083   4.298
11939W        W84254   4.635   4.756   0.539
11940W        W84255   7.981  41.905   4.559
11941W        W84256  24.852  30.297  13.785
11942W        W84257  17.254  26.200   0.249
11943W        W84258  42.097  37.421  12.350
11944W        W84259  24.059   3.001   0.257
11945W        W84260  28.597   3.312  14.039
11946W        W84261   3.165  21.678   1.303
11947W        W84262  22.927  34.548   3.766
11948W        W84263   7.930  17.064  12.116
11949W        W84264   6.355  14.823  14.012
11950W        W84265  40.424  27.946  14.737
11951W        W84266  36.967  16.016   3.257
11952W        W84267   6.577   1.949   3.731
11953W        W84268  24.576  19.668  10.526
11954W        W84269  28.315  10.771   0.234
11955W        W84270   7.921  34.128  14.046
11956W        W84271   2.909   7.348  10.480
11957W        W84272  12.071  43.504  12.850
11958W        W84273  43.421   3.888  14.219
11959W        W84274   2.852  24.921  13.548
11960W        W84275  32.454  29.433  14.676
11961W        W84276  35.176  43.488   1.666
11962W        W84277  41.833  32.476   0.096
11963W        W84278   5.832  19.595  13.364
11964W        W84279  31.870   2.198   4.602
11965W        W84280  36.951  22.222   1.910
11966W        W84281   9.892  21.482   0.349
11967W        W84282  30.660  37.504  14.144
11968W        W84283  43.022  20.572  12.850
11969W        W84284  22.456  32.679   0.531
11970W        W84285  31.208  43.511   4.203
11971W        W84286   1.052   1.739  11.464
11972W        W84287  23.069  30.940   0.451
11973W        W84288  32.178  23.051   1.787
11974W        W84289  16.237  22.417   2.411
11975W        W84290  24.658  23.011  12.919
11976W        W84291  19.274   5.698   4.377
11977W        W84292  12.692  32.855   3.832
11978W        W84293  20.050   1.031  12.137
11979W        W84294  42.968  32.881  13.724
11980W        W84295  10.771   4.821   0.668
11981W        W84296   8.650   5.972   0.952
11982W        W84297   5.774  10.125  14.979
11983W        W84298  34.383  40.770  10.892
11984W        W84299  44.141  23.408  10.381
11985W        W84300  21.532  18.755   4.736
11986W        W84301  25.213   1.819  13.989
11987W        W84302   0.775  22.616  12.017
11988W        W84303  30.446  31.258   2.615
11989W        W84304   3.913  35.802   3.286
11990W        W84305  15.383  21.731   3.245
11991W        W84306  10.380   3.924   1.052
11992W        W84307  14.384  38.979  14.295
11993W        W84308   0.751  18.760   3.838
11994W        W84309  25.387  31.933   0.881
11995W        W84310   4.816   9.094   2.196
11996W        W84311  13.236  14.759   0.407
11997W        W84312  31.942   6.746  12.547
11998W        W84313   5.889  26.382   2.159
11999W        W84314   6.513  23.182   4.168
12000W        W84315  33.286   9.191  11.167
12001W        W84316  22.485  28.486   4.652
12002W        W84317   2.248   9.164  11.934
12003W        W84318   0.981  26.176   3.279
12004W        W84319  32.430  38.411  10.566
12005W        W84320  26.161  21.138   1.651
12006W        W84321  23.742  35.747  12.100
12007W        W84322   2.622  12.564  13.334
12008W        W84323  37.970  19.376  12.783
12009W        W84324  42.689  32.444   4.089
12010W        W84325   5.303  20.998  13.846
12011W        W84326  37.903  12.787  12.797
12012W        W84327  33.091  22.755   1.620
12013W        W84328  33.596  17.026  13.549
12014W        W84329   6.872  39.338  14.042
12015W        W84330   7.343  22.983   4.637
12016W        W84331  44.683   6.216  11.603
12017W        W84332  37.099  13.349  12.594
12018W        W84333  18.652  35.237   9.848
12019W        W84334  39.917  28.050   0.345
12020W        W84335   6.300  31.626   3.191
12021W        W84336   9.961  29.183  13.824
12022W        W84337  19.648  24.034   2.934
12023W        W84338   2.694  24.956   2.292
12024W        W84339  43.783  10.439  14.984
12025W        W84340  43.888  44.350   1.818
12026W        W84341  42.821  40.582  10.751
12027W        W84342  23.234  24.411   1.798
12028W        W84343  13.597  43.106   2.723
12029W        W84344  10.891  20.051   5.926
12030W        W84345  39.301   2.390  14.736
12031W        W84346  30.899  23.448   2.763
12032W        W84347   5.257  25.144  12.044
12033W        W84348  11.607  15.093   2.263
12034W        W84349   3.442   7.164  12.214
12035W        W84350  30.132   1.391   2.289
12036W        W84351  27.853  14.118   2.271
12037W        W84352  28.884  28.095  13.150
12038W        W84353  14.579  29.195   2.170
12039W        W84354  38.309  17.622  12.161
12040W        W84355   1.911  18.303  14.507
12041W        W84356  11.061  37.256   4.882
12042W        W84357  26.543   3.766  12.018
12043W        W84358  21.926  36.383  12.649
12044W        W84359  39.824   2.351  14.808
12045W        W84360  12.143  29.695   3.816
12046W        W84361  15.867  40.590   3.303
12047W        W84362  25.007   5.479  12.652
12048W        W84363  30.200  25.633   2.796
12049W        W84364  31.456  14.258  11.915
12050W        W84365  25.523   3.885   4.200
12051W        W84366  25.492  30.141  11.526
12052W        W84367  20.467  12.713  11.582
12053W        W84368  23.998  27.546  12.948
12054W        W84369  15.783  18.223   1.249
12055W        W84370  31.607  28.193   2.696
12056W        W84371  44.112   8.602   1.902
12057W        W84372   9.922  18.249   0.448
12058W        W84373  18.817  40.302  14.605
12059W        W84374  33.319   9.721   3.681
12060W        W84375  23.504  34.556   2.805
12061W        W84376   0.954  22.146   1.184
12062W        W84377  33.074  10.865   3.819
12063W        W84378  13.788  18.767   3.301
12064W        W84379  34.862   8.307   0.532
12065W        W84380  38.403  43.932   1.102
12066W        W84381  10.891  15.816  13.140
12067W        W84382  27.843  22.628   0.714
12068W        W84383  27.298   7.835  11.227
12069W        W84384  33.625  31.407  14.269
12070W        W84385  30.158  24.106   3.837
12071W        W84386  14.103  13.813  14.540
12072W        W84387  28.498   5.402   4.735
12073W        W84388  30.270  21.574   2.724
12074W        W84389  43.060  43.599   3.863
12075W        W84390  40.872  34.428  12.023
12076W        W84391  44.316  19.795  10.737
12077W        W84392  27.052  13.894  13.994
12078W        W84393   2.009  22.157   1.783
12079W        W84394  21.718  33.957  12.569
12080W        W84395  27.997  10.929  11.491
12081W        W84396  25.895  43.152   1.255
12082W        W84397  19.640  23.233  14.367
12083W        W84398  37.927  29.182   1.936
12084W        W84399   2.710  13.031   0.756
12085W        W84400  32.875   3.169   2.247
12086W        W84401  44.023   2.865  14.396
12087W        W84402  20.211   3.702  14.449
12088W        W84403   5.277  12.225  11.172
12089W        W84404   7.117  10.847   4.252
12090W        W84405  21.096   3.162  12.161
12091W        W84406  19.005  29.707  14.759
12092W        W84407  24.568  43.538  13.423
12093W        W84408  44.694  43.918  11.580
12094W        W84409   8.554  39.903  13.983
12095W        W84410  35.494   3.322   4.907
12096W        W84411   2.801  38.592   0.886
12097W        W84412  41.818  15.023  13.835
12098W        W84413  38.424  12.914   4.513
12099W        W84414   2.372  37.725   2.578
12100W        W84415  10.115  19.501   1.443
12101W        W84416   2.215   8.645   2.736
12102W        W84417  41.313  36.432  14.309
12103W        W84418  41.073  22.467  13.261
12104W        W84419   3.961  32.836   1.203
12105W        W84420   2.984  15.516  14.540
12106W        W84421   0.461  14.290  11.006
12107W        W84422   4.705  10.652  11.194
12108W        W84423  42.304   5.237  11.172
12109W        W84424  37.070   2.055  13.338
12110W        W84425  13.366   1.271  11.540
12111W        W84426  44.026  35.866   2.957
12112W        W84427  34.408  29.850   0.391
12113W        W84428   6.473  26.388  13.419
12114W        W84429  31.934  40.450   0.771
12115W        W84430  41.982  38.076   2.550
12116W        W84431  40.750  28.761  11.700
12117W        W84432  40.324  15.832   0.909
12118W        W84433  32.195  28.894  10.138
12119W        W84434  33.433  23.407   4.622
12120W        W84435  15.045  37.915  11.458
12121W        W84436  11.301   9.182   4.495
12122W        W84437  24.042  20.082   4.675
12123W        W84438  31.388  26.623  11.036
12124W        W84439  31.838  18.636   0.963
12125W        W84440  14.326  26.956  12.345
12126W        W84441  24.053  38.666   2.916
12127W        W84442  28.180  41.806  13.902
12128W        W84443  34.022   5.161  10.391
12129W        W84444  29.912   5.839  12.550
12130W        W84445   9.594  43.562  11.638
12131W        W84446   5.941   7.714   1.851
12132W        W84447   6.785   8.866  14.694
12133W        W84448  41.941  44.878   3.128
12134W        W84449   7.199   6.307  11.568
12135W        W84450  40.683  24.522   9.836
12136W        W84451  10.746  34.062   3.516
12137W        W84452  27.121  42.148  14.932
12138W        W84453  35.532  30.114   1.809
12139W        W84454  39.279  36.174   4.782
12140W        W84455  17.380  36.862  14.397
12141W        W84456  18.425  28.097   3.282
12142W        W84457  34.829   6.686  14.045
12143W        W84458  33.386  40.320  11.941
12144W        W84459   5.146  23.986  12.412
12145W        W84460  12.152  25.553  14.461
12146W        W84461  37.547  26.935   1.861
12147W        W84462  34.071  30.695   2.265
12148W        W84463  30.297  27.887  12.012
12149W        W84464  19.199  43.757   3.407
12150W        W84465  42.641  37.543  13.505
12151W        W84466  35.662  17.200   3.852
12152W        W84467  43.323  10.425   2.003
12153W        W84468  26.860   2.812   4.006
12154W        W84469   3.813  23.520   0.827
12155W        W84470  23.324   6.121   0.307
12156W        W84471  10.709  38.478   3.684
12157W        W84472   2.442  23.127  10.408
12158W        W84473  38.582  21.798   4.639
12159W        W84474   7.712  22.551   2.238
12160W        W84475  40.830  39.519  11.565
12161W        W84476   2.891  10.743   1.012
12162W        W84477  17.733  31.468   1.327
12163W        W84478  40.252  35.571   0.863
12164W        W84479  34.917  35.513   1.315
12165W        W84480  11.552  32.959  10.692
12166W        W84481  33.081   6.792  10.932
12167W        W84482  25.663  27.763   1.997
12168W        W84483  22.881  35.780   3.251
12169W        W84484  34.366  18.257   3.258
12170W        W84485   4.680  10.274   0.972
12171W        W84486  12.786   1.748  11.076
12172W        W84487  12.124  31.613   1.195
12173W        W84488  12.247  44.311  12.190
12174W        W84489  40.837  27.356  10.884
12175W        W84490  34.381  37.926   4.185
12176W        W84491  11.170  37.861   0.415
12177W        W84492  18.059  34.534   4.758
12178W        W84493  44.250  35.623  13.045
12179W        W84494   6.478  41.948   1.377
12180W        W84495  25.028  41.375  10.654
12181W        W84496   7.186  32.915   3.460
12182W        W84497  22.250   7.096   1.441
12183W        W84498  33.936  36.402  14.993
12184W        W84499  19.251  33.813  11.533
12185W        W84500  10.144  17.298   4.068
12186W        W84501   7.705   6.522  10.433
12187W        W84502  32.430  17.095   1.602
12188W        W84503  43.108   4.664  11.377
12189W        W84504  37.753  32.987   4.450
12190W        W84505  24.102   9.160   1.923
12191W        W84506   9.095  22.637   1.771
12192W        W84507   4.069  18.606  10.668
12193W        W84508  18.695  26.026   0.579
12194W        W84509   5.261  15.196   4.356
12195W        W84510   2.953   6.530   2.379
12196W        W84511  10.633  28.058  14.303
12197W        W84512   9.410  13.886   1.403
12198W        W84513   5.128   8.911  10.223
12199W        W84514  19.099  37.050   3.320
12200W        W84515  28.094  38.641  11.988
12201W        W84516   1.899  33.951  14.924
12202W        W84517  21.736  30.572   3.739
12203W        W84518  33.358  34.443   2.265
12204W        W84519  38.517  36.786   4.848
12205W        W84520  40.007  19.723   3.352
12206W        W84521  40.758  41.503   1.831
12207W        W84522   1.997  12.195  13.944
12208W        W84523   9.623  13.159   3.765
12209W        W84524  31.612  33.564  11.441
12210W        W84525  27.534   4.413   4.362
12211W        W84526  27.613  11.920  13.063
12212W        W84527   1.291   7.676  10.604
12213W        W84528  30.468  26.885   3.140
12214W        W84529  11.198  25.292   0.923
12215W        W84530  24.912   5.001  11.665
12216W        W84531  10.387  44.426   3.680
12217W        W84532  37.459  27.225   4.263
12218W        W84533  39.613   9.899   0.753
12219W        W84534  12.556  32.066   1.159
12220W        W84535  19.266  21.542  10.686
12221W        W84536  32.022  34.817  10.794
12222W        W84537  26.286  42.264   4.995
12223W        W84538  21.562  15.351   3.825
12224W        W84539   2.588  26.889  12.186
12225W        W84540  31.086  35.943   0.584
12226W        W84541  43.009  37.024  10.796
12227W        W84542  20.156  27.673  13.833
12228W        W84543  27.332  19.317   5.384
12229W        W84544  14.510  11.065  10.147
12230W        W84545  38.522  29.497   2.833
12231W        W84546  12.776  35.530   3.620
12232W        W84547  14.766  36.528   0.916
12233W        W84548  12.759   4.303   4.724
12234W        W84549  10.078  14.721  11.151
12235W        W84550  43.650   9.680   2.677
12236W        W84551  15.856  42.477   2.801
12237W        W84552  42.786  32.019   4.356
12238W        W84553  43.473  12.626   3.196
12239W        W84554  34.730  33.534   2.130
12240W        W84555   6.867  14.325   4.701
12241W        W84556   4.780  31.488   2.321
12242W        W84557  28.123  19.067  14.881
12243W        W84558   8.823  31.419   0.556
12244W        W84559  39.848  39.834   2.463
12245W        W84560  41.064   1.438   0.405
12246W        W84561  13.765  34.678   4.965
12247W        W84562  13.015   6.803   4.629
12248W        W84563  26.233  34.353  12.908
12249W        W84564  17.628  24.042   4.395
12250W        W84565  17.029  39.865  13.638
12251W        W84566  14.706   2.751   3.285
12252W        W84567  16.214  17.296   2.774
12253W        W84568  37.088   7.691  13.805
12254W        W84569  25.488   9.485  14.564
12255W        W84570  33.343  14.731   3.927
12256W        W84571  25.545   8.510  14.406
12257W        W84572  43.544  19.464   4.826
12258W        W84573  42.093  24.435   3.568
12259W        W84574  16.154  32.359  10.738
12260W        W84575  12.240   4.264   4.677
12261W        W84576  44.720  34.027   1.181
12262W        W84577  13.567   0.815   4.168
12263W        W84578  17.696  26.842  10.950
12264W        W84579  40.652  35.794  13.530
12265W        W84580   4.222  28.927   0.776
12266W        W84581  44.460  20.526  11.218
12267W        W84582  28.041  24.107  14.817
12268W        W84583  33.601  29.634   0.707
12269W        W84584   8.940  19.219  10.935
12270W        W84585   4.239   7.933  10.670
12271W        W84586  15.670  30.390  11.608
12272W        W84587   4.144  23.718   0.314
12273W        W84588   8.961  33.138   4.151
12274W        W84589  16.514   3.350   1.298
12275W        W84590   8.194   4.421  11.451
12276W        W84591  37.008  17.559  12.339
12277W        W84592  42.820  26.734   0.866
12278W        W84593   3.318  24.421   1.670
12279W        W84594  13.339  40.376   4.539
12280W        W84595  43.027  23.189   2.412
12281W        W84596  22.700  14.715   0.827
12282W        W84597  44.757  39.466  14.506
12283W        W84598   8.219  43.214   2.315
12284W        W84599  26.653  33.429  13.561
12285W        W84600   5.882  27.253   4.609
12286W        W84601  31.901  36.176  13.844
12287W        W84602  12.325  19.253   4.482
12288W        W84603  26.206  37.883  13.493
12289W        W84604  28.083   4.304   5.060
12290W        W84605  14.149  14.277   3.113
12291W        W84606   2.419  39.242   3.694
12292W        W84607  37.378   9.781  12.945
12293W        W84608  44.910  21.435   2.080
12294W        W84609   3.809  14.901  10.670
12295W        W84610  43.514  13.785  11.883
12296W        W84611   7.365  29.646  10.616
12297W        W84612  19.815   4.955  11.077
12298W        W84613  26.555  19.564   1.987
12299W        W84614   8.091   2.015  12.410
12300W        W84615   5.380  42.240  14.787
12301W        W84616  19.121  44.768  12.145
12302W        W84617  32.058  24.708  13.526
12303W        W84618  12.280  18.564  10.425
12304W        W84619  40.091  25.138  11.497
12305W        W84620  41.788  15.217  10.623
12306W        W84621   0.409  10.892  10.985
12307W        W84622  36.517   6.592  10.904
12308W        W84623   2.355  13.079  10.702
12309W        W84624  41.900  44.449  14.080
12310W        W84625  36.841  34.908  13.347
12311W        W84626  28.532  33.006   3.096
12312W        W84627  25.780  43.902   1.843
12313W        W84628   4.526  17.855  13.032
12314W        W84629  14.904  11.900  11.758
12315W        W84630  41.257   7.246  12.033
12316W        W84631  23.237  44.451   1.706
12317W        W84632  13.979  16.871   1.230
12318W        W84633  35.851  44.451  12.484
12319W        W84634  14.181  24.275  10.581
12320W        W84635  42.376  43.873  14.559
12321W        W84636  12.556  24.982   1.699
12322W        W84637   3.216   4.978   0.652
12323W        W84638  25.968  22.703  12.388
12324W        W84639  44.995  13.757   0.260
12325W        W84640   6.803  34.869  13.371
12326W        W84641  19.219  33.024  10.633
12327W        W84642  23.183  22.198   4.576
12328W        W84643  39.815  19.131   4.899
12329W        W84644  14.367  31.982  13.490
12330W        W84645  23.072  44.562   2.188
12331W        W84646  44.939   9.622  12.452
12332W        W84647  39.092  31.521  14.344
12333W        W84648   4.436  12.105  14.939
12334W        W84649  38.883  34.617  13.893
12335W        W84650  33.874  33.131  12.450
12336W        W84651  38.275  14.745   1.174
12337W        W84652   6.492  21.037   3.673
12338W        W84653  44.713  24.267   3.176
12339W        W84654  33.876  31.684   2.361
12340W        W84655  38.622  43.983  13.528
12341W        W84656  41.299  10.622  11.620
12342W        W84657  22.472   8.592   4.994
12343W        W84658  23.490   4.713   2.352
12344W        W84659  17.367  25.570  10.950
12345W        W84660  10.075   7.354   1.983
12346W        W84661  36.997  17.784   0.929
12347W        W84662  42.865   1.300   3.113
12348W        W84663  38.050  12.570   0.692
12349W        W84664   7.436   5.005  12.580
12350W        W84665   6.172  40.108  14.757
12351W        W84666   0.101  25.668   1.180
12352W        W84667  38.960  39.447   4.221
12353W        W84668  32.897   2.430   1.540
12354W        W84669  23.234  16.600   0.761
12355W        W84670  11.713  10.159   5.084
12356W        W84671  38.396  44.390   1.364
12357W        W84672  10.366  37.957   4.470
12358W        W84673  22.106  20.272  13.999
12359W        W84674  44.079  13.745   2.263
12360W        W84675  32.567  39.450  12.552
12361W        W84676  39.312   3.208   0.014
12362W        W84677  38.264  41.330   3.265
12363W        W84678  30.045  25.667   2.128
12364W        W84679  17.995  14.559   0.460
12365W        W84680  43.030  20.848   3.360
12366W        W84681  34.045   2.706  13.791
12367W        W84682   0.788  18.581   0.382
12368W        W84683  39.543  10.102   4.183
12369W        W84684   8.235  33.428  12.035
12370W        W84685  34.073  15.088   3.767
12371W        W84686  14.786  39.428   1.911
12372W        W84687   9.776  22.247   0.807
12373W        W84688   4.524  43.469  14.860
12374W        W84689  42.297   3.719   0.854
12375W        W84690  24.940  17.116   4.858
12376W        W84691  19.035   5.409   0.980
12377W        W84692  36.346  22.649   0.444
12378W        W84693  12.131  22.283   2.253
12379W        W84694  20.146  43.464   2.864
12380W        W84695  16.434  22.991   3.144
12381W        W84696  42.781  24.990   4.643
12382W        W84697  40.950  28.555   0.859
12383W        W84698  13.478  19.009  13.396
12384W        W84699  31.043  24.214  14.512
12385W        W84700   0.344   2.186  13.593
12386W        W84701   8.134  11.665   3.985
12387W        W84702  34.615   9.397   1.328
12388W        W84703  26.647  28.637  10.586
12389W        W84704  37.213  36.636   0.428
12390W        W84705   2.858  19.080   0.360
12391W        W84706  13.268  32.063  11.444
12392W        W84707   1.001  16.719  13.956
12393W        W84708  15.504  23.710  11.863
12394W        W84709   7.063  16.912  11.991
12395W        W84710  29.088  16.529  12.942
12396W        W84711  28.048  25.543  11.634
12397W        W84712  23.563  17.064  13.880
12398W        W84713   5.329  23.410   2.365
12399W        W84714   0.982   6.803  14.819
12400W        W84715  21.657  17.572  12.526
12401W        W84716  25.729  24.237   4.525
12402W        W84717   0.257   7.193  12.861
12403W        W84718  36.871   0.657  14.921
12404W        W84719  13.349  30.724   4.354
12405W        W84720   6.812   6.404  12.367
12406W        W84721  15.268  15.516  12.537
12407W        W84722  35.131   6.500   0.430
12408W        W84723  20.193  12.472  13.777
12409W        W84724   6.919  41.912  12.055
12410W        W84725  14.830  30.066   2.461
12411W        W84726  10.567  19.731   1.362
12412W        W84727   1.981  26.852   2.334
12413W        W84728   7.537  20.885  12.538
12414W        W84729  35.227   0.555   3.800
12415W        W84730   7.167  12.639  14.447
12416W        W84731  21.634   6.137   3.698
12417W        W84732  20.022   8.444  10.233
12418W        W84733  32.221   0.718   3.283
12419W        W84734  31.513  22.975  10.575
12420W        W84735  11.795  35.727   3.301
12421W        W84736   7.923  26.542   0.472
12422W        W84737  28.063  29.183   4.827
12423W        W84738  21.325  35.854   4.305
12424W        W84739  32.394   3.767  14.093
12425W        W84740  31.198  18.232   1.568
12426W        W84741  25.832  16.847  11.138
12427W        W84742   8.855  38.179  11.649
12428W        W84743  29.081  31.693   4.102
12429W        W84744  37.328  13.393   4.017
12430W        W84745  41.551   1.752   0.885
12431W        W84746  41.119  33.509   3.289
12432W        W84747   1.491   6.184  11.123
12433W        W84748  20.323  16.332   1.740
12434W        W84749  35.973  31.173  14.853
12435W        W84750  32.230  15.736  13.017
12436W        W84751  35.259  30.119  10.639
12437W        W84752  32.989  41.250  11.750
12438W        W84753  33.979  30.564  14.417
12439W        W84754  13.966  25.775  13.097
12440W        W84755  21.914  35.911   0.283
12441W        W84756  10.714  15.526   4.233
12442W        W84757  17.282  40.924   5.109
12443W        W84758  10.132  24.678  13.762
12444W        W84759  30.362  36.919  14.875
12445W        W84760  32.604  25.645  10.686
12446W        W84761   1.669  41.075  14.914
12447W        W84762  31.139  21.936   1.685
12448W        W84763  23.165  26.165   1.446
12449W        W84764  38.829  26.034   5.382
12450W        W84765   3.815  26.007  13.607
12451W        W84766   4.744  17.195  12.402
12452W        W84767  13.639  42.439   0.679
12453W        W84768   4.999  43.393   0.323
12454W        W84769  33.046  42.846  12.956
12455W        W84770  44.040  34.668   0.899
12456W        W84771  26.463   8.840   2.684
12457W        W84772  19.873  38.448  14.701
12458W        W84773   2.855  29.264   2.820
12459W        W84774  41.785   5.857  13.663
12460W        W84775  10.237   3.420   0.163
12461W        W84776  13.705  30.450  12.773
12462W        W84777  43.491  12.444   1.913
12463W        W84778  35.784  39.100   4.547
12464W        W84779  25.583   2.946   0.275
12465W        W84780  34.382  34.867   1.458
12466W        W84781   3.017  34.442   2.921
12467W        W84782  37.820   0.964   1.478
12468W        W84783  13.263  27.589  12.677
12469W        W84784  11.425  26.790  12.341
12470W        W84785  40.162  15.612   2.287
12471W        W84786   3.765   1.296  12.352
12472W        W84787  14.852  23.529  14.534
12473W        W84788  18.992  18.197  13.930
12474W        W84789  18.521   7.808   9.852
12475W        W84790   1.927  34.427   0.856
12476W        W84791   8.729  20.295  13.917
12477W        W84792  28.469  25.536   3.672
12478W        W84793  27.888  14.277   4.651
12479W        W84794  16.955  10.980   5.012
12480W        W84795  37.612  21.407   3.355
12481W        W84796  28.369  11.208   2.307
12482W        W84797   2.167  36.046  10.192
12483W        W84798   3.590  27.080  14.950
12484W        W84799   5.809  32.920  11.198
12485W        W84800  38.502  13.563   1.734
12486W        W84801  25.930  20.041   3.067
12487W        W84802   3.710  21.349  11.914
12488W        W84803  39.056  18.515   1.367
12489W        W84804  40.358  25.745  12.331
12490W        W84805  38.481  33.973  13.977
12491W        W84806  31.797  11.459  10.218
12492W        W84807  13.639   0.366  11.058
12493W        W84808  30.049  16.146   3.244
12494W        W84809  17.687  44.776   3.397
12495W        W84810  43.963  16.091  11.924
12496W        W84811  17.031   3.646  13.934
12497W        W84812   8.941  11.126  10.650
12498W        W84813  28.149  17.587   3.131
12499W        W84814   5.044  44.161  12.491
12500W        W84815  29.680   9.402   2.149
12501W        W84816  42.988  41.514  13.314
12502W        W84817  19.254   0.381  12.530
12503W        W84818  17.324   6.235   4.903
12504W        W84819  25.949  17.704   1.965
12505W        W84820  25.551  12.940   1.860
12506W        W84821  12.216  33.502   3.375
12507W        W84822  40.214  38.701   0.989
12508W        W84823  42.038  20.689  13.180
12509W        W84824  14.341  23.399   1.283
12510W        W84825  33.117  18.998  13.387
12511W        W84826  43.675  12.621   3.664
12512W        W84827  10.688  19.631  13.090
12513W        W84828  23.611  19.564   2.686
12514W        W84829  41.226   4.403   1.263
12515W        W84830  23.771  36.179  11.107
12516W        W84831  30.584  27.031  13.072
12517W        W84832   1.140  37.060   0.938
12518W        W84833   5.279  41.964   2.117
12519W        W84834  39.346   8.318  14.877
12520W        W84835  38.855   9.546  10.697
12521W        W84836  20.628  36.605   5.029
12522W        W84837  33.312  31.741  11.670
12523W        W84838   1.802  29.060  14.921
12524W        W84839   7.817   0.992   4.519
12525W        W84840  12.130  23.261   2.695
12526W        W84841   5.675  20.432  11.168
12527W        W84842   0.836   5.477  11.579
12528W        W84843   8.561  17.020  13.505
12529W        W84844  13.290  26.773  14.665
12530W        W84845  32.986   1.688   2.086
12531W        W84846  15.959   6.399  12.325
12532W        W84847   1.359   1.528   2.638
12533W        W84848  19.671  18.062   0.495
12534W        W84849   6.442  28.216   0.960
12535W        W84850  32.036  16.869  13.264
12536W        W84851  28.526  15.100  14.766
12537W        W84852  21.646  36.779   4.182
12538W        W84853  19.120   1.669   0.332
12539W        W84854   0.270  24.164   1.858
12540W        W84855  35.008  12.915   3.586
12541W        W84856  20.472  42.862  10.611
12542W        W84857   5.815  15.088   2.751
12543W        W84858  43.321  31.424  13.399
12544W        W84859   5.888  40.574  12.599
12545W        W84860  28.128  14.809  13.370
12546W        W84861  14.513  27.917   0.382
12547W        W84862  22.053  16.006   0.784
12548W        W84863   8.322  15.308   0.880
12549W        W84864   7.736  38.285  12.464
12550W        W84865   0.715  36.897   1.193
12551W        W84866  15.684  32.833   3.759
12552W        W84867  42.504  32.104  11.552
12553W        W84868  35.033  14.238   2.580
12554W        W84869  40.317  36.505  11.041
12555W        W84870  21.759  35.989   2.776
12556W        W84871  17.149  31.523  12.897
12557W        W84872  28.232  16.570  11.098
12558W        W84873  17.814  17.832   1.824
12559W        W84874  17.825  28.519   2.760
12560W        W84875  23.698   8.111  11.152
12561W        W84876   4.919   7.285  13.807
12562W        W84877  44.530  44.229   1.241
12563W        W84878  32.361  27.370  12.979
12564W        W84879  31.521  38.555   3.279
12565W        W84880  42.566  19.972   2.649
12566W        W84881  10.748   2.225  14.863
12567W        W84882  28.586  32.292  13.564
12568W        W84883  43.542  31.435  14.837
12569W        W84884  37.379  23.820  13.004
12570W        W84885   4.152  22.698   4.525
12571W        W84886  37.109  14.729  13.074
12572W        W84887  34.561  19.716  11.789
12573W        W84888   8.394  44.487   0.458
12574W        W84889  26.261  36.391   2.863
12575W        W84890   3.267  43.907  13.460
12576W        W84891  37.370  19.180  14.439
12577W        W84892  27.221  12.586  10.826
12578W        W84893   0.485  28.630   1.044
12579W        W84894  36.043  34.967   3.198
12580W        W84895  23.675  29.638  14.045
12581W        W84896  31.621  28.945  13.035
12582W        W84897   9.740   6.954   3.700
12583W        W84898   9.445   3.448   0.883
12584W        W84899  30.222  10.599   2.411
12585W        W84900   6.687   3.793  12.893
12586W        W84901  11.406  44.512   3.758
12587W        W84902  33.384   4.456  11.047
12588W        W84903  19.134  12.093   4.329
12589W        W84904   1.099  41.886   0.991
12590W        W84905  34.692   6.916   2.723
12591W        W84906  13.199  10.328  10.641
12592W        W84907  22.493  12.406   0.324
12593W        W84908  30.372  38.457  13.003
12594W        W84909  44.275   9.118   2.714
12595W        W84910  42.515  39.488  11.118
12596W        W84911  25.165  21.678  13.463
12597W        W84912   8.748  31.475   1.299
12598W        W84913   5.386   2.365  12.704
12599W        W84914  19.203  29.479   4.562
12600W        W84915   4.297  20.046  13.004
12601W        W84916  35.895   2.391   5.054
12602W        W84917   1.869  18.027   2.150
12603W        W84918  14.273  22.936   0.312
12604W        W84919  33.266  36.117   1.880
12605W        W84920  42.021   7.348  10.500
12606W        W84921   6.947  11.059   2.656
12607W        W84922   7.190   2.855   0.366
12608W        W84923  43.855   9.059   1.807
12609W        W84924   9.732   5.677   1.137
12610W        W84925  19.146  17.095   0.851
12611W        W84926  22.212  31.807  12.012
12612W        W84927  30.159   8.597  10.782
12613W        W84928  32.143  39.237  11.926
12614W        W84929  24.704  10.642  11.446
12615W        W84930  27.166  12.816   4.680
12616W        W84931  37.001   2.914   0.498
12617W        W84932  36.642  41.132  12.642
12618W        W84933  28.579  27.793   1.819
12619W        W84934   1.475  11.731  13.374
12620W        W84935   6.429   0.424   0.256
12621W        W84936  37.347   5.534  14.878
12622W        W84937   7.574  25.569   3.397
12623W        W84938  20.137  32.922  14.455
12624W        W84939  28.607  15.603   3.331
12625W        W84940   6.383  40.650  12.423
12626W        W84941   9.821   6.944  11.526
12627W        W84942  36.423  15.135   1.262
12628W        W84943   2.249  30.644  12.529
12629W        W84944  11.417  33.332  14.036
12630W        W84945  22.272  39.975   2.764
12631W        W84946  35.326   8.308  13.422
12632W        W84947  24.908  41.525   4.069
12633W        W84948  20.492  22.000   2.687
12634W        W84949  13.032  37.532  13.133
12635W        W84950  43.544  35.211  12.776
12636W        W84951   6.877  17.670   3.123
12637W        W84952   2.159  29.384  11.559
12638W        W84953  16.090  33.514  11.176
12639W        W84954  44.234  43.262   1.232
12640W        W84955   6.681  43.407   1.423
12641W        W84956   8.207  29.035  11.746
12642W        W84957   7.274  26.012   2.690
12643W        W84958  31.994   2.204   3.072
12644W        W84959  18.701  35.511   4.763
12645W        W84960  15.065  31.595  12.844
12646W        W84961  18.759  12.753   2.288
12647W        W84962   3.449   9.165   4.624
12648W        W84963  16.740  24.979   0.827
12649W        W84964  27.906  30.043   4.671
12650W        W84965   6.221  29.386  14.478
12651W        W84966   5.363  33.360  10.662
12652W        W84967  32.661  15.626   4.874
12653W        W84968  43.385  23.671  11.710
12654W        W84969  43.136  30.608   3.593
12655W        W84970  19.078  10.459  10.691
12656W        W84971  18.180  17.655   3.721
12657W        W84972   4.826   4.742  12.798
12658W        W84973  36.772   4.843   0.796
12659W        W84974  41.474  20.630   0.461
12660W        W84975  10.251  39.062  13.825
12661W        W84976   6.871  22.532   1.900
12662W        W84977   4.439  30.626   4.210
12663W        W84978   8.160  42.928   4.090
12664W        W84979  31.862  22.272  11.552
12665W        W84980  22.687   7.309   3.552
12666W        W84981   7.671  23.359  10.339
12667W        W84982  20.352  17.023   4.354
12668W        W84983  29.569  23.005  12.133
12669W        W84984  39.473  21.041  14.059
12670W        W84985  11.695  12.804  11.151
12671W        W84986  35.308  33.244   2.757
12672W        W84987  31.776  27.874  13.505
12673W        W84988  26.993  10.905   3.933
12674W        W84989  39.907  40.924   0.764
12675W        W84990   2.682  18.809   0.798
12676W        W84991   8.633  18.212   3.165
12677W        W84992  25.665  14.844   0.924
12678W        W84993  10.333  16.280   4.136
12679W        W84994  32.640  41.251   1.271
12680W        W84995  20.019  10.266   3.897
12681W        W84996  38.560  27.162   3.315
12682W        W84997  19.615  14.685  12.433
12683W        W84998  38.539  19.301  14.726
12684W        W84999  35.591  22.536   0.964
12685W        W85000   3.606  32.980  12.760
12686W        W85001  11.240  33.928  14.946
12687W        W85002  26.543  40.504   2.654
12688W        W85003  26.718  39.490   2.623
12689W        W85004  15.142  39.434  13.843
12690W        W85005  44.447  34.089   4.509
12691W        W85006  10.696  25.459  12.352
12692W        W85007  16.111  10.132   3.601
12693W        W85008  35.018  36.253  12.465
12694W        W85009  36.120  39.812   4.062
12695W        W85010  24.149  20.820  12.897
12696W        W85011  32.616  37.006  11.622
12697W        W85012   7.409  20.686   0.312
12698W        W85013  16.399   2.524  13.322
12699W        W85014  13.675  35.409   0.825
12700W        W85015  44.316   9.942   2.383
12701W        W85016  23.551  41.419  10.769
12702W        W85017   6.676  36.446  11.463
12703W        W85018  27.796  30.451   2.236
12704W        W85019  18.585   9.776  10.878
12705W        W85020  29.140  25.433  11.191
12706W        W85021  22.825  21.614   2.847
12707W        W85022  24.460  40.003  14.325
12708W        W85023  20.456  30.013   1.321
12709W        W85024   6.280  34.686  12.472
12710W        W85025  40.310   8.804  13.329
12711W        W85026  12.417   2.796  14.059
12712W        W85027  41.993  27.210  14.833
12713W        W85028  17.353  15.750   2.855
12714W        W85029  13.315   8.885  10.551
12715W        W85030  14.824  29.142   9.991
12716W        W85031  34.840  27.519   1.268
12717W        W85032  27.279   3.913   3.251
12718W        W85033  38.817  19.970  11.936
12719W        W85034   3.051  37.120   2.489
12720W        W85035  16.149   6.328  11.632
12721W        W85036  21.400  31.930   1.707
12722W        W85037  26.634   5.134  12.570
12723W        W85038  22.852   0.121  14.790
12724W        W85039  16.114  42.941   2.886
12725W        W85040  20.112  26.099  11.285
12726W        W85041  21.760  26.661  10.678
12727W        W85042  36.034   0.022   0.398
12728W        W85043  35.486   7.637  14.602
12729W        W85044  32.417  36.499   3.176
12730W        W85045  31.187   6.549   3.773
12731W        W85046  42.004  34.063  12.998
12732W        W85047  42.899  36.495  14.382
12733W        W85048  20.349  20.619  10.978
12734W        W85049  16.761   8.184   2.836
12735W        W85050  36.135  19.264  11.309
12736W        W85051  11.168  27.796  13.648
12737W        W85052  15.739  37.054  12.373
12738W        W85053   1.556  17.076   0.490
12739W        W85054  27.469  24.239   4.111
12740W        W85055   9.479  17.319   0.846
12741W        W85056  13.646  11.186  13.750
12742W        W85057  35.474   9.973  12.552
12743W        W85058  31.781  32.812  11.734
12744W        W85059  44.795  23.265   0.857
12745W        W85060  29.013  12.299  12.503
12746W        W85061  34.090  18.209  13.107
12747W        W85062  38.867  18.981   1.304
12748W        W85063  10.868  39.030  10.683
12749W        W85064   6.490  36.817  14.484
12750W        W85065  29.469  23.583  14.672
12751W        W85066  10.105  35.000   1.285
12752W        W85067   1.494   6.779  10.698
12753W        W85068   1.534  35.954  11.112
12754W        W85069  26.009  33.097   0.946
12755W        W85070   5.958  42.237   3.821
12756W        W85071  10.455  20.237   1.505
12757W        W85072  26.878  27.160  13.860
12758W        W85073  34.633  37.126  11.153
12759W        W85074  15.980  43.886  13.501
12760W        W85075  25.427  20.615  11.398
12761W        W85076   7.919  31.370   2.925
12762W        W85077  32.726  17.791  12.026
12763W        W85078  22.605  15.967  10.320
12764W        W85079  16.679  28.979  14.413
12765W        W85080   0.443  21.149  13.871
12766W        W85081  13.049  29.469   1.698
12767W        W85082   9.210  12.218  13.749
12768W        W85083   4.292  41.814   0.395
12769W        W85084  12.603   7.152   0.864
12770W        W85085  11.308  40.170   3.135
12771W        W85086  39.002  13.314  11.915
12772W        W85087  16.411  39.453   0.833
12773W        W85088  17.826  39.705   0.394
12774W        W85089  38.511  27.656   2.916
12775W        W85090   1.683  41.795   2.837
12776W        W85091  41.568  11.756  10.992
12777W        W85092  25.039  17.034  14.252
12778W        W85093  34.073  21.064  10.602
12779W        W85094  38.981  27.791  12.460
12780W        W85095  44.597   4.113   4.030
12781W        W85096  18.028   8.467  12.506
12782W        W85097  42.064  25.638  13.711
12783W        W85098  31.420  10.277   0.827
12784W        W85099  22.684  15.239   0.718
12785W        W85100   3.319   2.884   0.225
12786W        W85101   4.575  25.232  11.452
12787W        W85102  42.027   6.825  12.180
12788W        W85103  36.011  12.287  11.524
12789W        W85104   6.227  20.722  12.930
12790W        W85105   2.160  16.765  13.326
12791W        W85106  25.674  25.122   4.645
12792W        W85107  19.579  42.255   4.275
12793W        W85108   3.690  38.535   0.011
12794W        W85109  34.928  29.165  14.557
12795W        W85110  11.695   9.613   2.015
12796W        W85111  23.923  40.431   3.578
12797W        W85112  44.086  22.231  12.529
12798W        W85113  34.961  19.698  12.462
12799W        W85114   8.637  31.819  12.543
12800W        W85115  39.555  22.621   3.197
12801W        W85116  27.492   6.787   2.386
12802W        W85117   2.959  32.495   0.369
12803W        W85118  32.936  42.838   3.632
12804W        W85119   3.014  20.257  11.529
12805W        W85120  31.377  11.204  12.318
12806W        W85121  11.197  36.848  12.798
12807W        W85122  30.110  25.553  11.666
12808W        W85123  39.365  33.638   0.934
12809W        W85124  44.810  37.018  11.850
12810W        W85125  17.690  29.029   1.860
12811W        W85126   9.167  41.344  14.562
12812W        W85127  16.667  34.084   2.319
12813W        W85128  28.764  37.827   3.819
12814W        W85129  28.276  16.421   3.232
12815W        W85130  39.155  30.087  12.904
12816W        W85131   0.103   7.462  12.109
12817W        W85132  24.572   7.404  12.959
12818W        W85133  37.520  41.788  10.398
12819W        W85134  20.045  33.496   1.289
12820W        W85135  18.146  38.227   2.196
12821W        W85136  13.364   2.364  12.877
12822W        W85137  22.288  21.616  12.251
12823W        W85138   1.388   9.764   4.547
12824W        W85139  41.368  16.148   0.213
12825W        W85140  11.124  18.350   9.882
12826W        W85141  22.459   8.952  12.001
12827W        W85142  38.444  16.608   2.770
12828W        W85143   4.808   5.785   2.412
12829W        W85144  22.331  17.102  13.122
12830W        W85145  31.804  28.876   4.189
12831W        W85146  11.188   7.166  14.438
12832W        W85147  12.774  23.368   1.371
12833W        W85148  31.902   5.804   1.143
12834W        W85149  40.911  20.216  10.753
12835W        W85150  39.758  13.706  12.364
12836W        W85151  39.356  18.148   2.393
12837W        W85152   4.697  35.063   4.872
12838W        W85153  37.951   1.934  14.902
12839W        W85154  14.396  43.349   4.631
12840W        W85155  17.829   7.252   4.581
12841W        W85156  41.528   9.721   2.488
12842W        W85157  11.499  40.249  12.982
12843W        W85158   7.770  39.958   2.263
12844W        W85159  10.675   4.401   4.575
12845W        W85160  39.559  30.567   1.317
12846W        W85161  33.401  38.835   0.119
12847W        W85162  24.753  44.807   3.146
12848W        W85163  42.072  34.635   1.355
12849W        W85164   7.014   9.811   0.358
12850W        W85165  43.898  20.331  12.546
12851W        W85166  32.578  11.334   0.003
12852W        W85167  21.570  37.777   2.837
12853W        W85168  16.249  21.642   4.572
12854W        W85169  10.685  13.910   5.282
12855W        W85170  10.837  44.293  10.685
12856W        W85171  29.466  32.194   3.708
12857W        W85172  30.122  28.882  13.069
12858W        W85173  28.199  35.004   3.236
12859W        W85174  41.514   6.495  14.079
12860W        W85175  37.358  12.129   0.003
12861W        W85176  30.972  33.473   3.426
12862W        W85177  20.804  21.519  10.495
12863W        W85178   6.726  44.354   9.913
12864W        W85179  19.110  27.534  10.696
12865W        W85180  32.551   0.360   3.555
12866W        W85181  22.533  43.699  11.173
12867W        W85182   6.463  14.781  12.908
12868W        W85183  35.831  32.366   1.881
12869W        W85184  38.734  17.153   2.251
12870W        W85185  24.273   7.260  14.592
12871W        W85186  32.375  26.040   2.696
12872W        W85187  16.958  23.006  11.928
12873W        W85188   1.965  29.703  12.035
12874W        W85189  30.637  27.560   0.823
12875W        W85190  37.281   4.648  10.882
12876W        W85191   3.350  12.096  10.798
12877W        W85192   6.904  41.582   0.159
12878W        W85193  27.150  20.246  12.443
12879W        W85194  17.787  17.861  13.332
12880W        W85195  11.251   7.891  11.856
12881W        W85196  28.901  16.177   3.902
12882W        W85197  43.872  14.336  12.462
12883W        W85198   4.485  41.287   4.105
12884W        W85199  30.519  42.276  10.597
12885W        W85200   6.888   3.411   4.956
12886W        W85201  42.995  10.440   3.458
12887W        W85202  17.299  31.679  10.588
12888W        W85203  30.060   5.064  12.046
12889W        W85204  27.071  17.234   3.916
12890W        W85205  20.955   1.667  14.494
12891W        W85206  22.683  14.316   0.458
12892W        W85207  37.193  26.873   1.218
12893W        W85208  24.699   9.364  14.041
12894W        W85209  14.718  44.904  13.151
12895W        W85210  28.148  13.820   4.608
12896W        W85211  17.617  12.525   4.155
12897W        W85212   8.623  39.284  12.061
12898W        W85213  37.067   9.748  13.382
12899W        W85214  17.776   8.820   5.086
12900W        W85215   5.612   3.796   0.855
12901W        W85216  26.626  38.475  13.987
12902W        W85217  11.882   8.200   3.363
12903W        W85218  16.041   3.745   5.033
12904W        W85219  24.726   6.363  12.871
12905W        W85220   5.367   1.433   1.672
12906W        W85221  20.891  16.965   4.615
12907W        W85222  30.615  12.827   3.300
12908W        W85223  28.591  18.166  13.970
12909W        W85224  30.669  11.158   4.654
12910W        W85225  41.417   0.936  13.088
12911W        W85226  39.421  20.569  10.651
12912W        W85227  26.098  26.426   4.897
12913W        W85228   3.815  43.371  11.908
12914W        W85229  28.589  35.056  12.501
12915W        W85230  36.661  39.707   1.695
12916W        W85231   1.750   9.222   4.126
12917W        W85232  10.367  31.462   2.817
12918W        W85233  16.203  12.931   1.862
12919W        W85234  26.685   0.662  11.556
12920W        W85235  22.561  23.235   4.677
12921W        W85236  28.455  30.919  11.204
12922W        W85237  18.111  36.404  14.556
12923W        W85238   9.349  11.789   1.275
12924W        W85239  14.212  13.574   4.930
12925W        W85240  19.402   3.782  13.872
12926W        W85241  23.846  23.548  14.007
12927W        W85242  38.394  26.453  11.988
12928W        W85243  29.554  32.352  14.848
12929W        W85244  43.300   1.113  10.577
12930W        W85245  16.370   4.842   0.452
12931W        W85246   6.129  27.534  13.194
12932W        W85247  18.009  13.815   3.269
12933W        W85248  33.877  28.626  13.851
12934W        W85249  11.258   1.164   0.449
12935W        W85250   6.671  22.702   0.877
12936W        W85251  27.902  30.857  12.156
12937W        W85252  36.430  31.032   4.748
12938W        W85253  21.983  29.718  12.048
12939W        W85254  17.070  34.195   1.344
12940W        W85255  32.856  43.265   2.318
12941W        W85256   7.189   2.310  13.486
12942W        W85257  17.289  34.095  10.701
12943W        W85258   8.638  37.313   1.855
12944W        W85259   7.746   8.724   0.382
12945W        W85260  35.596  25.637  13.168
12946W        W85261   2.619   0.043   4.868
12947W        W85262  41.342  22.606   3.644
12948W        W85263  41.753  31.634   0.115
12949W        W85264  19.744  16.369   3.133
12950W        W85265  31.514   2.732   1.803
12951W        W85266  25.923  22.661  11.434
12952W        W85267  27.049  12.821  14.782
12953W        W85268  14.021  16.235   4.236
12954W        W85269  27.529  43.346  14.019
12955W        W85270   2.704  28.470   1.362
12956W        W85271  39.550  32.707  11.517
12957W        W85272  44.327  27.165   2.887
12958W        W85273   9.742  35.545   3.147
12959W        W85274   5.664  34.676  12.984
12960W        W85275  35.293   7.872   3.698
12961W        W85276  29.827  27.445  12.525
12962W        W85277  26.481   2.855  12.290
12963W        W85278  33.637  33.466  10.158
12964W        W85279   0.839   2.685   2.715
12965W        W85280  32.043  15.212   1.915
12966W        W85281  13.797  37.222   4.085
12967W        W85282  23.254   4.546  13.087
12968W        W85283   0.113  19.885  12.894
12969W        W85284  33.407  10.232  13.953
12970W        W85285  15.238  40.096  14.997
12971W        W85286  40.780  17.515  11.568
12972W        W85287   6.354  36.591   4.637
12973W        W85288  16.572  18.073   1.013
12974W        W85289  39.825   4.873   3.320
12975W        W85290   8.916  17.011   5.157
12976W        W85291  32.125  35.771  13.596
12977W        W85292  43.533  42.558   3.469
12978W        W85293  12.414  10.369  12.265
12979W        W85294   1.725  43.801   3.365
12980W        W85295  44.487  14.720  10.322
12981W        W85296  35.620  17.242   3.353
12982W        W85297  36.862  36.476   3.211
12983W        W85298   7.317  15.311  13.804
12984W        W85299  39.769  34.987   2.194
12985W        W85300   5.226  20.474  13.939
12986W        W85301  22.674  28.020  12.508
12987W        W85302  15.322  12.657   2.330
12988W        W85303   8.183  25.659   3.709
12989W        W85304  17.370  14.272  11.571
12990W        W85305  37.768   1.031   2.347
12991W        W85306  11.757  42.176  14.811
12992W        W85307  18.126   5.764   4.682
12993W        W85308  36.835   4.378   1.450
12994W        W85309  25.484  17.020   5.045
12995W        W85310  40.097   1.896  13.612
12996W        W85311  22.172  27.255  12.508
12997W        W85312   0.762   9.910   0.443
12998W        W85313   6.103  21.651   1.681
12999W        W85314  12.420  12.605   0.508
13000W        W85315  24.923  13.686  13.922
13001W        W85316   4.159   8.769  12.982
13002W        W85317  16.548   5.356   2.188
13003W        W85318  37.448  25.321   5.071
13004W        W85319  14.947   1.536  13.318
13005W        W85320  10.854  13.062  10.926
13006W        W85321  12.600  25.212   2.163
13007W        W85322  29.758  19.006   0.219
13008W        W85323  18.686  10.276  14.244
13009W        W85324  29.861  31.532   3.202
13010W        W85325   4.966  30.420   2.879
13011W        W85326  39.866  18.155  12.545
13012W        W85327   1.485  31.539  12.990
13013W        W85328  41.346  10.194   4.669
13014W        W85329  26.783  12.225   0.833
13015W        W85330   5.926  15.589   2.687
13016W        W85331  27.001  36.219  14.997
13017W        W85332   4.206   4.269  12.460
13018W        W85333  44.603  21.153   1.256
13019W        W85334  33.828  27.770   0.312
13020W        W85335  39.014  16.552  12.831
13021W        W85336  15.750   2.398   2.355
13022W        W85337  38.910  41.330   2.149
13023W        W85338  16.874  30.445   2.756
13024W        W85339  32.342   5.714   2.363
13025W        W85340  20.888  12.777   2.946
13026W        W85341  31.373  43.989  13.503
13027W        W85342  35.410  31.906   0.359
13028W        W85343  35.846   9.210  11.730
13029W        W85344   1.728   9.106   0.298
13030W        W85345   5.738  34.524  14.800
13031W        W85346  30.789  15.266  12.391
13032W        W85347  29.500  34.951  13.949
13033W        W85348  26.433   3.921   2.787
13034W        W85349  26.142  10.802   1.686
13035W        W85350  24.529   8.713   3.876
13036W        W85351   6.865  18.984  12.474
13037W        W85352   0.684   5.765  11.194
13038W        W85353  33.903  14.630  13.553
13039W        W85354  22.595  33.431  12.372
13040W        W85355  44.751  36.387  14.264
13041W        W85356  14.540   0.803   3.248
13042W        W85357   1.414  43.494  12.638
13043W        W85358  33.839  42.106  12.118
13044W        W85359   1.025  16.612   4.139
13045W        W85360  43.948  22.222   4.484
13046W        W85361   9.214  22.221   4.901
13047W        W85362   4.028  22.317  13.973
13048W        W85363  18.902  33.873  11.917
13049W        W85364  16.761  31.008  10.266
13050W        W85365  44.210   4.092   3.579
13051W        W85366  41.531  24.028   2.335
13052W        W85367   0.271  12.775  13.986
13053W        W85368  30.061   0.126  11.218
13054W        W85369  26.572   5.932  10.488
13055W        W85370  10.739   5.744   3.116
13056W        W85371   4.631  11.787   0.556
13057W        W85372  42.427  10.855  12.110
13058W        W85373  38.132   0.833   2.679
13059W        W85374  27.178  19.109  14.936
13060W        W85375  15.541  28.560  10.610
13061W        W85376  14.684  37.918  10.616
13062W        W85377   9.912  16.551   4.262
13063W        W85378  25.546  43.509   4.623
13064W        W85379  23.307  44.390   3.618
13065W        W85380  35.567   7.950   0.007
13066W        W85381  39.617   8.954  10.890
13067W        W85382  39.320  22.464   2.761
13068W        W85383  14.746  29.426   1.322
13069W        W85384  25.454  30.596  14.919
13070W        W85385  21.977  10.160   0.648
13071W        W85386   7.931  16.109  14.301
13072W        W85387   9.897  29.693   2.295
13073W        W85388  32.871  28.531  13.883
13074W        W85389  18.810  33.829   0.915
13075W        W85390  29.734   0.274  11.650
13076W        W85391  41.314   2.840  11.451
13077W        W85392   9.011  43.052   2.763
13078W        W85393  37.897  29.943   0.320
13079W        W85394  17.026   8.957  13.234
13080W        W85395  19.169  37.927  13.139
13081W        W85396  40.273  28.746   1.195
13082W        W85397  27.543  26.238  13.493
13083W        W85398  18.309  35.629   4.025
13084W        W85399  31.541  41.755  14.341
13085W        W85400  22.603   5.904  13.344
13086W        W85401  15.740  38.328  14.069
13087W        W85402  32.340  43.312   0.403
13088W        W85403  36.662   3.688   2.686
13089W        W85404  33.967  20.091   3.668
13090W        W85405  41.422   7.985  11.555
13091W        W85406  29.037  14.359  14.018
13092W        W85407  43.858  23.151   1.232
13093W        W85408   8.134  24.269  14.097
13094W        W85409  13.356   4.837   0.887
13095W        W85410  24.749  25.694  14.100
13096W        W85411  32.938   0.290  11.629
13097W        W85412  21.491  24.596   0.448
13098W        W85413  15.559  35.889  13.852
13099W        W85414  22.086  40.314  13.916
13100W        W85415  13.727  25.987  14.925
13101W        W85416  44.050   6.846  14.375
13102W        W85417  23.085   7.187   3.127
13103W        W85418  13.516  10.996   0.885
13104W        W85419   4.549   3.405  12.380
13105W        W85420   2.397  31.098   3.252
13106W        W85421  13.782  32.613  10.963
13107W        W85422   8.367  35.927   1.997
13108W        W85423  10.768  17.578   3.418
13109W        W85424  28.702  37.050  11.531
13110W        W85425  41.479  36.405   2.281
13111W        W85426  11.287  37.905  14.917
13112W        W85427   9.709  35.837   2.718
13113W        W85428  12.760  15.057   1.049
13114W        W85429   6.243   4.237   4.514
13115W        W85430  14.121   9.088  10.743
13116W        W85431  26.045   6.343   1.690
13117W        W85432  26.487  18.705  13.016
13118W        W85433  26.078  30.082  14.332
13119W        W85434  34.369   8.919  13.598
13120W        W85435   3.944  29.636   4.106
13121W        W85436  24.087  17.134   0.158
13122W        W85437   5.969   4.272   1.341
13123W        W85438  43.255  11.711   2.739
13124W        W85439   5.199  20.252   3.343
13125W        W85440   6.727  20.673  10.470
13126W        W85441  31.021  33.276   2.457
13127W        W85442  13.388  18.244  11.231
13128W        W85443  37.903  23.822  12.946
13129W        W85444   9.027  27.174  14.893
13130W        W85445  17.117  41.353  13.051
13131W        W85446  41.808  31.602  14.050
13132W        W85447  25.729  12.029  10.578
13133W        W85448  17.133  35.499  14.504
13134W        W85449  32.096   5.953   0.244
13135W        W85450  43.326  41.816  13.001
13136W        W85451   1.384  37.479   1.689
13137W        W85452  15.734  32.689  14.051
13138W        W85453   9.158   1.784   3.709
13139W        W85454  33.697  27.566   3.930
13140W        W85455  22.421  38.763   2.744
13141W        W85456   1.908  34.584  14.353
13142W        W85457  41.794  18.836   3.912
13143W        W85458  44.870   4.426  10.517
13144W        W85459  12.367   5.736  11.090
13145W        W85460  21.551  37.560  11.696
13146W        W85461  15.150  39.509   0.694
13147W        W85462  23.673  20.063   3.096
13148W        W85463  34.822  34.920   4.139
13149W        W85464  27.580  39.562   2.845
13150W        W85465  11.191  39.414  10.505
13151W        W85466  17.568  40.887  14.258
13152W        W85467  14.713  41.415   2.165
13153W        W85468  11.173  18.286  13.428
13154W        W85469   1.938  27.196   1.951
13155W        W85470  14.283  31.919   0.274
13156W        W85471  18.129   5.520  11.474
13157W        W85472  20.439  17.600   2.747
13158W        W85473  42.015  11.225   0.037
13159W        W85474  40.206  39.154  10.698
13160W        W85475  34.199  31.197   3.572
13161W        W85476  26.569  29.787   2.820
13162W        W85477  10.815   9.321   4.335
13163W        W85478  19.248  26.615  12.439
13164W        W85479  37.017  26.009   3.477
13165W        W85480  11.952  22.572   3.522
13166W        W85481  20.355  13.717  10.646
13167W        W85482  23.481   9.688   0.689
13168W        W85483  28.467  10.017  12.564
13169W        W85484   2.389  15.774   3.474
13170W        W85485  14.797  37.944  14.739
13171W        W85486  27.599  26.122  14.440
13172W        W85487  18.226  39.774   2.655
13173W        W85488  11.741  33.387   1.288
13174W        W85489  32.562   9.318   3.343
13175W        W85490   7.130   0.433   4.546
13176W        W85491  30.161  31.592  11.730
13177W        W85492  35.049  16.424  10.723
13178W        W85493  11.300  34.447  14.899
13179W        W85494   1.325  22.375  12.643
13180W        W85495  11.743  29.080  10.637
13181W        W85496  15.779  23.516  12.278
13182W        W85497  23.130  39.594  10.658
13183W        W85498  40.493  44.072  11.985
13184W        W85499  35.436   7.355   1.309
13185W        W85500  28.739  32.002  12.804
13186W        W85501   4.167  41.109  13.678
13187W        W85502   7.331   5.375   0.913
13188W        W85503   5.770  22.532   2.448
13189W        W85504  38.871   3.206  10.308
13190W        W85505  34.071  29.845   0.799
13191W        W85506  19.543  11.416  11.453
13192W        W85507  38.992  19.020   4.294
13193W        W85508   3.329  33.474  11.876
13194W        W85509  21.220   6.337  11.137
13195W        W85510  13.375  32.513  12.876
13196W        W85511   1.107  42.554   4.855
13197W        W85512  24.907   1.223  11.492
13198W        W85513   5.901   9.793   4.436
13199W        W85514   4.242  44.995   4.529
13200W        W85515   8.590  42.504   1.871
13201W        W85516   0.685  10.156   4.084
13202W        W85517  14.592   2.159  11.139
13203W        W85518   1.185   4.452   2.812
13204W        W85519  15.889  21.713   1.931
13205W        W85520   8.814  43.220  14.439
13206W        W85521  42.253   6.134   1.842
13207W        W85522  38.334   3.342   3.177
13208W        W85523  21.096  44.017  11.980
13209W        W85524  37.556  42.909  14.258
13210W        W85525  22.639  25.279   1.338
13211W        W85526  18.782  13.067  13.473
13212W        W85527   7.885  36.981   2.790
13213W        W85528  14.697  43.718  12.007
13214W        W85529  13.649  26.473  13.551
13215W        W85530  38.312  24.575  11.536
13216W        W85531  36.649  27.648   0.888
13217W        W85532  11.278  22.950  12.325
13218W        W85533  25.420   1.747  13.510
13219W        W85534  17.257  44.847   0.043
13220W        W85535  17.740  21.805   0.297
13221W        W85536  33.905  23.310   1.561
13222W        W85537  18.167  38.344   5.203
13223W        W85538  13.322  30.017   0.318
13224W        W85539   1.516  41.493  13.353
13225W        W85540  17.946  43.688   1.477
13226W        W85541   7.533  41.812  13.758
13227W        W85542   8.959  43.287   3.243
13228W        W85543  21.916   2.191  14.514
13229W        W85544  34.803  29.155   1.846
13230W        W85545   6.603   1.409   3.011
13231W        W85546  10.142  28.017  13.159
13232W        W85547  35.337  42.107   1.420
13233W        W85548   1.200  40.206  11.641
13234W        W85549  42.580  36.355  13.070
13235W        W85550  18.121  10.936   2.272
13236W        W85551   7.115  16.882   1.288
13237W        W85552  32.750  14.782   1.402
13238W        W85553  16.084  42.030   0.097
13239W        W85554  44.865  21.706   4.068
13240W        W85555  37.984  23.449  11.746
13241W        W85556  26.371  19.465  11.703
13242W        W85557   7.347  21.605  14.436
13243W        W85558  21.237  34.612  12.847
13244W        W85559  29.591  43.698   3.128
13245W        W85560  32.434  41.485   4.247
13246W        W85561  26.675  15.343  11.997
13247W        W85562   8.363   9.778  11.493
13248W        W85563  14.301  27.293   2.149
13249W        W85564  42.381  37.760  11.636
13250W        W85565   8.864  36.021  12.501
13251W        W85566  16.487  44.815  11.036
13252W        W85567  40.198  18.083   1.903
13253W        W85568   3.900  43.158  14.421
13254W        W85569  39.819  24.405   2.854
13255W        W85570  31.724   0.428   4.666
13256W        W85571  11.953   3.368   3.170
13257W        W85572   8.922  34.150   2.541
13258W        W85573  34.204  19.342   4.095
13259W        W85574  14.774  41.856   1.396
13260W        W85575  32.541  43.648   3.221
13261W        W85576   9.338  39.581  12.472
13262W        W85577  16.458  25.959  13.115
13263W        W85578  23.119  33.333  12.909
13264W        W85579  43.293  11.388   1.653
13265W        W85580  11.390  38.361  12.019
13266W        W85581  19.117  36.853   5.069
13267W        W85582  25.241  24.112   4.346
13268W        W85583  43.295   9.211  10.681
13269W        W85584  36.965  30.292   2.704
13270W        W85585   7.567  39.247  11.151
13271W        W85586   9.847  23.096  14.320
13272W        W85587  22.161  26.624   4.631
13273W        W85588   4.548   8.047  14.915
13274W        W85589  28.065  37.454  13.336
13275W        W85590  30.200  31.529   2.233
13276W        W85591   9.385  19.155   2.639
13277W        W85592  31.606  10.195  12.802
13278W        W85593  30.471   9.198   0.319
13279W        W85594  39.908  34.044  11.635
13280W        W85595  25.763  44.273  10.182
13281W        W85596  17.309  10.787   1.680
13282W        W85597  40.862  40.523  10.543
13283W        W85598  43.486   7.219  13.824
13284W        W85599  28.696  16.199   2.032
13285W        W85600   0.924   9.882   2.477
13286W        W85601   6.746   0.213  12.407
13287W        W85602  41.532  14.155   2.858
13288W        W85603   0.177  32.986   2.217
13289W        W85604   8.576  21.185   0.962
13290W        W85605  40.539  20.227  12.107
13291W        W85606  12.348  43.302  10.719
13292W        W85607  17.704  16.211  13.378
13293W        W85608  26.129  15.011  13.059
13294W        W85609  35.172  29.253  11.244
13295W        W85610  24.674  35.338  11.622
13296W        W85611   0.485  40.101  12.044
13297W        W85612   7.428  18.821   1.832
13298W        W85613  13.184   1.937  12.044
13299W        W85614  40.984  39.914   0.530
13300W        W85615   3.973  34.550  13.359
13301W        W85616   3.288   3.022  12.800
13302W        W85617  12.306  32.021  11.490
13303W        W85618   0.467  18.027   0.035
13304W        W85619   7.003  13.666  14.576
13305W        W85620  24.137  41.022   0.809
13306W        W85621   6.017  10.758  10.703
13307W        W85622  20.066  19.033   4.616
13308W        W85623  30.577   7.689   1.399
13309W        W85624  44.021   8.403   2.409
13310W        W85625   5.323  10.746   2.748
13311W        W85626  23.667  35.297   0.672
13312W        W85627  12.272  12.843   2.494
13313W        W85628   2.824  42.271   3.333
13314W        W85629  32.878  15.991   2.080
13315W        W85630  19.814   6.833  11.086
13316W        W85631  12.092  11.415   2.462
13317W        W85632   8.684  34.079   4.131
13318W        W85633  25.126  37.553   9.942
13319W        W85634   9.376   1.888  11.114
13320W        W85635   6.658  17.113  12.814
13321W        W85636   2.331  43.506  11.491
13322W        W85637  17.653   9.619  10.170
13323W        W85638  29.160  37.355   4.175
13324W        W85639  32.267  39.709   2.310
13325W        W85640  25.543  14.961   1.870
13326W        W85641   9.417  38.965  14.748
13327W        W85642  12.613  27.511   0.779
13328W        W85643  21.493  14.333  14.013
13329W        W85644  18.717  43.564  12.538
13330W        W85645   7.826  16.509   3.749
13331W        W85646  15.199  12.539   3.279
13332W        W85647  16.266  19.384   4.164
13333W        W85648  42.299  43.558  11.163
13334W        W85649  19.783  17.083  10.957
13335W        W85650   8.130  11.053  13.050
13336W        W85651  17.356   7.679  12.621
13337W        W85652  21.068   4.896   3.350
13338W        W85653  43.834  17.101  14.359
13339W        W85654  13.049  26.498   5.046
13340W        W85655   3.344   3.274   0.881
13341W        W85656  14.548   7.800  14.490
13342W        W85657  31.831  36.588   4.166
13343W        W85658  18.114   5.955  12.675
13344W        W85659  35.143  42.382  14.484
13345W        W85660  13.678  33.724  13.411
13346W        W85661   2.364  14.579  10.537
13347W        W85662   4.905  35.581   4.486
13348W        W85663  33.689  33.857   1.829
13349W        W85664   5.005  29.680   5.147
13350W        W85665  14.779  22.235  10.927
13351W        W85666   7.374   3.204   4.904
13352W        W85667  11.713  31.659   2.857
13353W        W85668  25.619   3.372   4.243
13354W        W85669  11.541   5.345  12.559
13355W        W85670   0.346  40.632   0.836
13356W        W85671  22.079  39.421  10.682
13357W        W85672  36.840  29.961   1.307
13358W        W85673  20.676  37.033  13.490
13359W        W85674  33.383   9.223  12.118
13360W        W85675  39.391  12.389  14.116
13361W        W85676  42.771  30.983   0.242
13362W        W85677  32.665  19.322  14.392
13363W        W85678  44.756  16.580  14.593
13364W        W85679  37.552  10.818  10.258
13365W        W85680  12.916   3.989   1.848
13366W        W85681  40.237  16.493   3.776
13367W        W85682  18.025  38.486  13.912
13368W        W85683   6.740  10.177   2.821
13369W        W85684  41.082  11.836   1.756
13370W        W85685  28.557  19.247  14.372
13371W        W85686  29.187  37.290   1.324
13372W        W85687  15.103  13.054  12.428
13373W        W85688  33.037  27.398  12.414
13374W        W85689  30.881  16.064   0.908
13375W        W85690  15.358  29.671  12.536
13376W        W85691   6.338  23.418  14.464
13377W        W85692  16.149   0.262  12.704
13378W        W85693  41.506  40.502   4.218
13379W        W85694  36.519  21.779  11.929
13380W        W85695  13.420  23.210  14.248
13381W        W85696  39.522  17.393  13.857
13382W        W85697  32.957  42.417   1.235
13383W        W85698  25.253   4.722  11.009
13384W        W85699   5.929  37.615  13.515
13385W        W85700   5.319   8.783  14.777
13386W        W85701  19.260  39.842  10.647
13387W        W85702  19.727  41.988   4.952
13388W        W85703  10.491  20.263   0.982
13389W        W85704   8.412  22.655  14.380
13390W        W85705  17.806  42.340   3.292
13391W        W85706  33.448   0.254  12.028
13392W        W85707  25.053   9.789   1.667
13393W        W85708  19.032  18.100   0.918
13394W        W85709  44.203   9.401   1.391
13395W        W85710  19.736  26.605  13.902
13396W        W85711  17.948   8.107  13.871
13397W        W85712  19.091   2.910  12.448
13398W        W85713  30.475   9.685  12.263
13399W        W85714  10.195   9.577   0.575
13400W        W85715  34.892  16.096  14.083
13401W        W85716  23.158  21.532   2.158
13402W        W85717  31.000  41.394   0.705
13403W        W85718  42.315  36.253  14.876
13404W        W85719  24.435  15.770  12.076
13405W        W85720  24.515   5.467  13.811
13406W        W85721  34.607   6.276  11.973
13407W        W85722  43.061  40.843  13.893
13408W        W85723  23.579  26.153  14.044
13409W        W85724  38.584   3.694  14.859
13410W        W85725  29.579  27.870   3.704
13411W        W85726  42.099  23.191   2.037
13412W        W85727  21.140  32.439   0.840
13413W        W85728  20.764  24.581   3.294
13414W        W85729  27.945   7.836  11.837
13415W        W85730  39.542  29.052   5.073
13416W        W85731  26.528   9.833   1.708
13417W        W85732  25.978  31.521  13.146
13418W        W85733  16.041  42.886  14.248
13419W        W85734  15.307  42.987   0.872
13420W        W85735  17.739  11.774  11.397
13421W        W85736  28.050  24.603   0.906
13422W        W85737   7.973   6.669   0.281
13423W        W85738  24.874  14.706  14.939
13424W        W85739  37.508  39.615  12.099
13425W        W85740  22.294   8.348  11.525
13426W        W85741  23.167  17.548  12.480
13427W        W85742  39.449   8.186   4.165
13428W        W85743  28.528   7.380   1.613
13429W        W85744   1.833  38.488   4.668
13430W        W85745  32.203   4.955  11.584
13431W        W85746  12.813  16.105   0.421
13432W        W85747   2.658  42.326   1.371
13433W        W85748  40.504  20.037  13.810
13434W        W85749  16.990   3.885  14.402
13435W        W85750  29.740  42.171  14.438
13436W        W85751  17.036  43.375  11.093
13437W        W85752  41.772   0.473   1.338
13438W        W85753   0.917  33.813  13.013
13439W        W85754   2.462  30.509  10.810
13440W        W85755  16.186  19.105  14.872
13441W        W85756   7.818  15.348  13.953
13442W        W85757  10.439   5.787  14.232
13443W        W85758  36.852   5.791   2.361
13444W        W85759  12.795   9.444  12.478
13445W        W85760   9.680  28.022  10.910
13446W        W85761  23.092   5.277  11.351
13447W        W85762  20.124  16.309   4.831
13448W        W85763  16.843  44.753   3.861
13449W        W85764  26.682  20.277   1.801
13450W        W85765  30.341  21.162   3.065
13451W        W85766  43.081  20.130  13.109
13452W        W85767   5.489   8.759   3.258
13453W        W85768   6.231   9.875  14.847
13454W        W85769   0.684  30.966   3.856
13455W        W85770   3.708  35.111  11.147
13456W        W85771   8.287  15.736  11.608
13457W        W85772  41.367  18.780   1.837
13458W        W85773  11.241  42.915  11.435
13459W        W85774   2.769  14.430   0.410
13460W        W85775  16.761  10.924  11.447
13461W        W85776   7.862  29.593   0.206
13462W        W85777  26.931   5.411  10.170
13463W        W85778  40.373  38.806  11.546
13464W        W85779  40.121  21.266   2.113
13465W        W85780   4.171   3.819   2.316
13466W        W85781  32.465  22.478   2.321
13467W        W85782   3.858  20.481   2.364
13468W        W85783  19.273  29.226  13.376
13469W        W85784   0.353  23.864   1.384
13470W        W85785  17.841  17.117  11.146
13471W        W85786  24.425  32.592  13.933
13472W        W85787  23.641  31.575  13.000
13473W        W85788  11.288  17.289  13.497
13474W        W85789  39.382  11.298   4.768
13475W        W85790  16.199  39.911   4.999
13476W        W85791  22.107  38.243  14.875
13477W        W85792  18.780  25.114  14.096
13478W        W85793  38.369  20.761   0.312
13479W        W85794  28.421  10.814   4.749
13480W        W85795  29.898   8.746   3.725
13481W        W85796  12.664  37.836   1.455
13482W        W85797   3.742  28.335   3.712
13483W        W85798  10.352   2.863  13.513
13484W        W85799  29.988  24.617  11.413
13485W        W85800   7.257  15.052  12.370
13486W        W85801  38.001  11.864   4.145
13487W        W85802  44.480  16.685  12.155
13488W        W85803  41.025  25.615  11.499
13489W        W85804  42.592   9.446  13.611
13490W        W85805  42.264  42.878   2.293
13491W        W85806  27.476  30.419   1.815
13492W        W85807   0.746  16.832   2.785
13493W        W85808  36.996   5.183  14.925
13494W        W85809   3.405  29.132  14.757
13495W        W85810  39.012   4.387  13.828
13496W        W85811  36.716  16.528   0.641
13497W        W85812  43.296  15.085   2.307
13498W        W85813  29.210  44.399  11.396
13499W        W85814  25.247  29.625  12.577
13500W        W85815   2.396  14.695  14.319
13501W        W85816  15.856   1.901  11.525
13502W        W85817   1.018  27.223   4.479
13503W        W85818   6.584   0.707   1.815
13504W        W85819  42.655  21.893   2.639
13505W        W85820  26.484  42.188   4.135
13506W        W85821  24.367  19.095  12.376
13507W        W85822  43.050   0.955  11.010
13508W        W85823  41.540  35.863   2.841
13509W        W85824  16.370  31.453   3.995
13510W        W85825  27.155  20.790   0.804
13511W        W85826  22.728  11.166  13.508
13512W        W85827  41.488  43.354  14.041
13513W        W85828   4.736  18.337  12.984
13514W        W85829  39.173   7.401   3.253
13515W        W85830  13.157  13.886   3.164
13516W        W85831  38.461  41.249  11.972
13517W        W85832   7.369  24.874   4.710
13518W        W85833  26.407  30.423   1.391
13519W        W85834   8.063  39.082   5.056
13520W        W85835  21.564  12.298  12.321
13521W        W85836  42.165  23.053   9.854
13522W        W85837  38.087  20.534  14.761
13523W        W85838  30.159  10.740   1.893
13524W        W85839   5.388   4.020   0.435
13525W        W85840  25.577  17.625   3.935
13526W        W85841   0.063  14.768   3.341
13527W        W85842  10.180  28.228   5.079
13528W        W85843  41.638  39.576   2.835
13529W        W85844  43.859  29.718  11.597
13530W        W85845   9.257   0.327   1.749
13531W        W85846  20.728  13.195   4.270
13532W        W85847  44.461  13.050  11.894
13533W        W85848  15.082  41.979  13.971
13534W        W85849   2.402  43.373  10.614
13535W        W85850  42.890  39.017  14.143
13536W        W85851   9.579  27.666   1.986
13537W        W85852  10.645  22.747   4.741
13538W        W85853  12.171   5.112  13.044
13539W        W85854  43.806  23.925  11.571
13540W        W85855  33.575   5.423  10.621
13541W        W85856  42.953  37.680  12.406
13542W        W85857  25.517   7.590  11.186
13543W        W85858  38.447  11.146  13.023
13544W        W85859  32.466  22.813  12.568
13545W        W85860   1.791  30.521   2.739
13546W        W85861  28.115  14.522  14.469
13547W        W85862  35.104   6.074  10.293
13548W        W85863  15.767  44.039   2.909
13549W        W85864   8.295  38.517  13.651
13550W        W85865  40.917  29.516   4.221
13551W        W85866   8.165   1.845   0.423
13552W        W85867  36.069  37.992  13.992
13553W        W85868  34.511  31.787   0.472
13554W        W85869  32.852  12.847   2.875
13555W        W85870   1.785  37.946   4.044
13556W        W85871  29.989  15.647   3.442
13557W        W85872  33.874  23.130  14.313
13558W        W85873  27.152  21.684   2.364
13559W        W85874  36.047   5.773   1.385
13560W        W85875  26.194  10.439   0.356
13561W        W85876  18.281  34.161   2.835
13562W        W85877  34.934  43.844  13.360
13563W        W85878  25.154  32.870   2.956
13564W        W85879  27.314  30.997  10.059
13565W        W85880  18.328  12.541   3.748
13566W        W85881   4.238  25.429  14.274
13567W        W85882  24.761   8.104  13.544
13568W        W85883  15.053  18.573   4.187
13569W        W85884  16.812  31.218  13.862
13570W        W85885  31.778   8.602  14.899
13571W        W85886  35.201  12.687  10.767
13572W        W85887  23.001  33.431   4.580
13573W        W85888   2.588   1.827  12.428
13574W        W85889  31.816  44.922  11.909
13575W        W85890  25.543  11.537  10.646
13576W        W85891  14.008  40.239  11.792
13577W        W85892  24.606   6.148  12.386
13578W        W85893  38.374  16.155   3.395
13579W        W85894  44.049  10.325  13.252
13580W        W85895  34.791  14.991   4.166
13581W        W85896  25.757  10.160   2.719
13582W        W85897   3.315  14.138   1.360
13583W        W85898  33.796  12.012  10.911
13584W        W85899  15.317  29.113   9.823
13585W        W85900  19.608  22.496  12.033
13586W        W85901  29.934   7.170  14.845
13587W        W85902   5.355   4.374   3.561
13588W        W85903  23.716  26.130   1.414
13589W        W85904  14.898  31.355  11.578
13590W        W85905  17.665  19.894   0.833
13591W        W85906   7.259  23.443  11.645
13592W        W85907  19.201  24.572   1.323
13593W        W85908  24.517  41.497  10.511
13594W        W85909  33.903  42.091   3.583
13595W        W85910  25.726  39.829   4.224
13596W        W85911  13.697  32.431   1.919
13597W        W85912  37.457  31.871  12.614
13598W        W85913   4.023   8.433   1.515
13599W        W85914   9.407  28.827   3.803
13600W        W85915  10.144  15.309   3.932
13601W        W85916  11.270  25.179  10.981
13602W        W85917  24.445   3.849  12.989
13603W        W85918  10.791  17.672   3.922
13604W        W85919  17.850  16.970   3.855
13605W        W85920  11.339  19.285   1.735
13606W        W85921   0.776  25.920   0.472
13607W        W85922  43.735   8.213  11.114
13608W        W85923  23.730   0.574   2.730
13609W        W85924  39.000  13.648   4.723
13610W        W85925  42.420  30.451   2.741
13611W        W85926  13.410   2.561  13.700
13612W        W85927  15.030  11.786  10.846
13613W        W85928  15.390   6.889  12.112
13614W        W85929  21.784  36.869  13.829
13615W        W85930  15.984  43.926  10.743
13616W        W85931  26.999  29.601  13.864
13617W        W85932   9.459  19.675   0.840
13618W        W85933  19.787  36.425  11.532
13619W        W85934  37.323   0.300  11.342
13620W        W85935  39.494  10.647  14.451
13621W        W85936  11.857  34.974   5.076
13622W        W85937  28.521  20.723   1.971
13623W        W85938  23.423   9.768  11.412
13624W        W85939  28.116  22.492  12.942
13625W        W85940  12.233  38.337   0.599
13626W        W85941  35.375   5.010   2.757
13627W        W85942   4.732  44.449  10.378
13628W        W85943  10.808  41.544   1.815
13629W        W85944  40.078  29.062  13.316
13630W        W85945  22.331  29.273   4.187
13631W        W85946   0.897  24.920  14.441
13632W        W85947  41.251  30.571   3.647
13633W        W85948  41.691  34.384  11.142
13634W        W85949  43.157  22.571  11.593
13635W        W85950  38.811  34.102   3.886
13636W        W85951   1.863  18.064   3.730
13637W        W85952  41.236  41.819  13.854
13638W        W85953  28.133  16.625   0.337
13639W        W85954  20.403   3.503   0.967
13640W        W85955  24.431  43.833  10.681
13641W        W85956  30.922  41.460   0.201
13642W        W85957   5.188  16.222  10.069
13643W        W85958  12.136   9.895   4.067
13644W        W85959  43.907  34.400   5.071
13645W        W85960   7.470   8.790   4.506
13646W        W85961   7.569  14.082  14.306
13647W        W85962  34.313  15.340   0.842
13648W        W85963  34.082  26.589  14.463
13649W        W85964   2.903   3.029   4.153
13650W        W85965  43.377  17.924  14.496
13651W        W85966  22.237  14.631   4.677
13652W        W85967   9.012  26.952   3.574
13653W        W85968  39.545  12.359   1.295
13654W        W85969  37.907  36.131  11.537
13655W        W85970   0.898   7.083   3.984
13656W        W85971  41.455  42.159   4.249
13657W        W85972  43.546  18.076  13.065
13658W        W85973  37.529  31.112   0.330
13659W        W85974  44.925  42.316  14.669
13660W        W85975  36.921  33.890   3.697
13661W        W85976   3.939   3.042  13.860
13662W        W85977  42.788  40.393   4.274
13663W        W85978  35.138  11.265  12.684
13664W        W85979  38.387  44.866  14.048
13665W        W85980  32.469   4.853   3.662
13666W        W85981  24.172  37.032   4.502
13667W        W85982   7.389  14.547  12.174
13668W        W85983  28.145  29.924   3.654
13669W        W85984  13.254  35.319   3.736
13670W        W85985  23.129  17.612   4.854
13671W        W85986  12.730  25.617   0.358
13672W        W85987  30.685  10.453  11.209
13673W        W85988   5.239  27.523   0.956
13674W        W85989  12.849  16.813  14.811
13675W        W85990   4.168  34.582  10.527
13676W        W85991   0.737  22.512   2.734
13677W        W85992   5.278  27.562  14.920
13678W        W85993  11.061  24.689   3.915
13679W        W85994  41.272  27.181  11.821
13680W        W85995   0.092   0.826   4.084
13681W        W85996  41.264  33.374   4.042
13682W        W85997  18.866   0.183  13.908
13683W        W85998  19.054  17.637  14.740
13684W        W85999  27.975  22.743   4.556
13685W        W86000  33.588  13.027   2.378
13686W        W86001   1.641  40.090   1.109
13687W        W86002  18.177  27.008   0.059
13688W        W86003  42.048   9.922  11.795
13689W        W86004  44.469  44.826  10.966
13690W        W86005  20.143  39.615   4.640
13691W        W86006  14.707  28.663  10.874
13692W        W86007  39.543  34.325   4.114
13693W        W86008   1.412  33.425  14.459
13694W        W86009   8.717  41.614  10.316
13695W        W86010  43.209  42.440  12.335
13696W        W86011  34.403  11.261  13.994
13697W        W86012  31.359   5.736   0.485
13698W        W86013  38.557   9.919  11.923
13699W        W86014  33.511  32.410  14.351
13700W        W86015  22.900  25.812   2.605
13701W        W86016  37.563   9.218   1.389
13702W        W86017  44.917  37.019   3.770
13703W        W86018   9.706  29.670  10.606
13704W        W86019  26.232  32.579  10.949
13705W        W86020  31.163  36.408   3.257
13706W        W86021   0.416  27.919  13.837
13707W        W86022  43.339  43.073   0.961
13708W        W86023  13.945  25.525  14.787
13709W        W86024  31.682  31.907  11.105
13710W        W86025  33.624  37.406   3.184
13711W        W86026  43.453   8.131  12.475
13712W        W86027  39.923  28.438   3.915
13713W        W86028   9.680  22.945   2.237
13714W        W86029  12.755  25.704   2.251
13715W        W86030  29.053  44.700   2.665
13716W        W86031  13.208  23.962  12.528
13717W        W86032   7.843  20.082  12.433
13718W        W86033  41.504  24.322  12.578
13719W        W86034   7.877  18.047   3.689
13720W        W86035  11.579  26.176   1.718
13721W        W86036  24.664  16.609   3.200
13722W        W86037   7.747   5.380   3.962
13723W        W86038  13.622  40.724  13.500
13724W        W86039   4.157   2.002  13.334
13725W        W86040  23.231   2.500   3.657
13726W        W86041  36.830  18.728  10.505
13727W        W86042  16.670  28.481  11.451
13728W        W86043  40.180  28.995   3.266
13729W        W86044  30.666  35.373   0.018
13730W        W86045  21.207  38.210   4.097
13731W        W86046  22.712  27.056  12.174
13732W        W86047  27.941  43.483  11.100
13733W        W86048   0.768  17.169  10.245
13734W        W86049  36.830   6.181   3.302
13735W        W86050  26.148  44.559   1.298
13736W        W86051  43.590  19.800   1.389
13737W        W86052  21.071  10.888  11.004
13738W        W86053  21.665  28.204   4.831
13739W        W86054   2.299  15.316  14.980
13740W        W86055   2.494   1.756  11.538
13741W        W86056  19.208  33.845  14.811
13742W        W86057  28.549  39.307   2.537
13743W        W86058  34.250  42.526  14.983
13744W        W86059   7.825  28.411   4.522
13745W        W86060  31.252  43.020   5.073
13746W        W86061  27.957  31.852   1.728
13747W        W86062  23.261  22.392  13.284
13748W        W86063  42.073  35.880  11.270
13749W        W86064  28.919   2.490  11.259
13750W        W86065  22.313   6.718  11.856
13751W        W86066  36.126  39.548   2.234
13752W        W86067   5.940  15.840   3.778
13753W        W86068  32.227  25.203  11.617
13754W        W86069  10.586  13.316  13.909
13755W        W86070  33.506  44.489   2.680
13756W        W86071  36.958   9.228  12.597
13757W        W86072  13.069   1.102   5.070
13758W        W86073  18.723  30.569   3.100
13759W        W86074  33.089  14.178  13.759
13760W        W86075  40.680  28.994   0.940
13761W        W86076   3.174  22.150   3.171
13762W        W86077  17.128  34.232   4.069
13763W        W86078   9.933  20.090  11.341
13764W        W86079   5.872  28.370   1.824
13765W        W86080   4.943  17.785  11.108
13766W        W86081  27.647  28.958  10.833
13767W        W86082  29.562  29.114  11.898
13768W        W86083  22.687  15.043   1.231
13769W        W86084  28.603  17.097  13.565
13770W        W86085   0.091  22.050   0.928
13771W        W86086  28.814  17.743   3.104
13772W        W86087  30.709  16.292   2.273
13773W        W86088  20.186   9.675  13.844
13774W        W86089  18.327  33.569   0.841
13775W        W86090   0.701   2.235   1.092
13776W        W86091   4.750  14.956  14.432
13777W        W86092  25.744  39.322   4.214
13778W        W86093   5.652  19.669   0.427
13779W        W86094   4.780  34.633   1.774
13780W        W86095  24.606  26.979   2.620
13781W        W86096  38.538  34.887  12.161
13782W        W86097   6.305  13.838   2.484
13783W        W86098  11.493  28.586  12.578
13784W        W86099  37.072  38.074  10.404
13785W        W86100   0.613  31.902  14.373
13786W        W86101  38.576  25.438  10.608
13787W        W86102  34.625   2.279   1.790
13788W        W86103  32.103  38.734   2.642
13789W        W86104  39.907  39.959  11.743
13790W        W86105  21.098  24.652  12.380
13791W        W86106   3.615  38.521  12.549
13792W        W86107  34.505  23.141   2.435
13793W        W86108  40.270  18.520  11.650
13794W        W86109  31.334  39.875  11.988
13795W        W86110  35.381  16.070  13.443
13796W        W86111  19.759  10.309   0.022
13797W        W86112  19.744   3.408  12.349
13798W        W86113  40.068   2.306  13.167
13799W        W86114  40.356  39.962  12.084
13800W        W86115   8.147  19.815  14.350
13801W        W86116  10.144  37.381  13.086
13802W        W86117   5.904  44.476  12.576
13803W        W86118  18.596   9.227   0.993
13804W        W86119  44.413  17.289  11.411
13805W        W86120  26.261  19.191   1.788
13806W        W86121   6.798  25.447  10.933
13807W        W86122  10.213  10.318   1.343
13808W        W86123  19.105  35.447   0.446
13809W        W86124  22.029  38.300  11.624
13810W        W86125  40.375   4.720  13.796
13811W        W86126  21.982   3.415  11.182
13812W        W86127  19.149  19.622  12.917
13813W        W86128  23.626  19.684   4.163
13814W        W86129  21.535  25.444   0.875
13815W        W86130  43.368  10.202   4.622
13816W        W86131  24.410  19.775   9.714
13817W        W86132  26.479  32.647  13.951
13818W        W86133  15.123  23.239  12.189
13819W        W86134  18.131  21.525   3.221
13820W        W86135  21.601   3.568   3.126
13821W        W86136  31.561   4.670  11.958
13822W        W86137  27.361  38.717   1.486
13823W        W86138  29.634  11.078   3.776
13824W        W86139   3.429  35.631  12.514
13825W        W86140  13.810  24.644   4.739
13826W        W86141  35.539  34.092   1.984
13827W        W86142  32.677  26.214  13.852
13828W        W86143   5.725  42.893  13.448
13829W        W86144  39.173  39.490   5.029
13830W        W86145  31.347  38.202  12.946
13831W        W86146   2.720   5.754  13.887
13832W        W86147   9.358  15.766   0.513
13833W        W86148  34.656  44.703  11.990
13834W        W86149  13.954   9.692   0.300
13835W        W86150  41.573   6.910   0.463
13836W        W86151  44.485  26.349   1.278
13837W        W86152  38.070  18.143  12.061
13838W        W86153   0.437  41.382  11.458
13839W        W86154  20.784  43.695  10.633
13840W        W86155   2.850   3.475   0.842
13841W        W86156  23.168  23.821   4.189
13842W        W86157  25.235  44.261   0.322
13843W        W86158   7.243   3.656   1.297
13844W        W86159  26.064   5.840   2.634
13845W        W86160   1.614  16.846   1.684
13846W        W86161  40.069  24.176  11.613
13847W        W86162  10.774  36.620   3.779
13848W        W86163   7.408  14.294  10.700
13849W        W86164  22.204  16.017  13.865
13850W        W86165  27.394   5.920   2.234
13851W        W86166  32.064  34.429  12.596
13852W        W86167  22.633   9.202   3.712
13853W        W86168  33.126  44.382  14.644
13854W        W86169  26.653  32.639  12.850
13855W        W86170   5.098  10.857   0.249
13856W        W86171  27.157  33.615   0.435
13857W        W86172  30.156  37.402   3.273
13858W        W86173   4.371   5.739  14.491
13859W        W86174   1.221   1.240  14.620
13860W        W86175  11.775  11.151  13.778
13861W        W86176  26.042   7.904   2.115
13862W        W86177  37.417  17.295  12.078
13863W        W86178  18.341  41.270   1.429
13864W        W86179  35.288  34.752   4.342
13865W        W86180  38.971   6.650  12.452
13866W        W86181  36.322  21.468  10.470
13867W        W86182   9.661  19.010  13.980
13868W        W86183  25.741  37.113  12.150
13869W        W86184  39.957  31.958   4.964
13870W        W86185  42.220  18.341  14.313
13871W        W86186  43.787  27.540  12.638
13872W        W86187  14.520  36.530  13.010
13873W        W86188  11.828   6.143  13.666
13874W        W86189  43.998   7.855  14.798
13875W        W86190  43.971  23.625  12.157
13876W        W86191  32.860  44.224   1.146
13877W        W86192  42.238  20.085   1.395
13878W        W86193  21.782  37.263   4.083
13879W        W86194   3.443  36.638  14.760
13880W        W86195  18.278  36.614  11.855
13881W        W86196   8.395  17.783   3.419
13882W        W86197  32.633  20.145   4.139
13883W        W86198  40.579  42.369   2.815
13884W        W86199  36.476   6.377  14.208
13885W        W86200  20.660  37.487  11.187
13886W        W86201   7.258  12.225  12.931
13887W        W86202   0.888  15.059  10.731
13888W        W86203   0.375  17.783  13.964
13889W        W86204  10.095  33.387   5.031
13890W        W86205  13.626  25.198   1.858
13891W        W86206  42.804  22.009   2.148
13892W        W86207   2.243  23.549  12.091
13893W        W86208  39.253  43.917   5.031
13894W        W86209  40.998  39.240  11.101
13895W        W86210   2.849  13.921   0.360
13896W        W86211  36.848  38.326  14.534
13897W        W86212  27.918   7.704   3.623
13898W        W86213  33.658  42.407   3.265
13899W        W86214  20.018  38.542  10.704
13900W        W86215  43.353   9.624   2.258
13901W        W86216   6.279  26.583  14.961
13902W        W86217   1.787  29.391  11.155
13903W        W86218  33.578   1.849  14.036
13904W        W86219  39.103  17.596   0.906
13905W        W86220   7.454  18.244  13.866
13906W        W86221   8.117  29.862   1.333
13907W        W86222  10.390  44.387  11.599
13908W        W86223  18.689  29.087   0.908
13909W        W86224  11.804  22.032   0.478
13910W        W86225   7.760  20.072  12.948
13911W        W86226   0.026  33.092   4.209
13912W        W86227  38.468  42.646   5.003
13913W        W86228  11.683  41.492   1.969
13914W        W86229   9.366  19.087   0.838
13915W        W86230  42.243  32.642  12.526
13916W        W86231  31.126  15.382  13.566
13917W        W86232  29.782  35.147  10.427
13918W        W86233  40.082  31.485  12.355
13919W        W86234  37.501   3.492   2.326
13920W        W86235  20.330  31.956  13.038
13921W        W86236  33.480  26.247   1.104
13922W        W86237  23.922  19.314  14.701
13923W        W86238  30.194  35.937  14.538
13924W        W86239   9.611  20.205   1.621
13925W        W86240  39.905  31.002  11.618
13926W        W86241  34.422  15.236  14.540
13927W        W86242  32.440  13.958   3.905
13928W        W86243  13.216  42.432  11.017
13929W        W86244  10.934   6.860   2.118
13930W        W86245  10.402  38.957  10.095
13931W        W86246  13.251   9.406   0.443
13932W        W86247  44.400  13.721  12.153
13933W        W86248  13.083  31.932   1.306
13934W        W86249  12.874  43.347  12.400
13935W        W86250  14.338  37.995   2.265
13936W        W86251  16.288  26.214   2.170
13937W        W86252   5.764  17.124  14.902
13938W        W86253  28.859  28.648   0.281
13939W        W86254   5.947   2.302   3.420
13940W        W86255   4.963   1.008  12.961
13941W        W86256  18.800  12.622  10.823
13942W        W86257  35.563  40.446   4.588
13943W        W86258   5.507  42.845  12.981
13944W        W86259   6.639  26.272   0.251
13945W        W86260  10.840  44.371  14.569
13946W        W86261  29.916   5.316  14.881
13947W        W86262  39.417  31.868   4.396
13948W        W86263  35.621  16.923  11.947
13949W        W86264   0.369  22.611   1.609
13950W        W86265  10.421  32.984   2.202
13951W        W86266  23.830  16.221   0.423
13952W        W86267   5.954  28.718   1.400
13953W        W86268   1.903  28.602   2.709
13954W        W86269  17.748   6.241   1.193
13955W        W86270   1.660  26.606  10.624
13956W        W86271   4.385  37.815   2.265
13957W        W86272  25.659  32.232  13.554
13958W        W86273  24.157  31.906  12.479
13959W        W86274   5.502  22.479   9.993
13960W        W86275  22.577  10.879   0.273
13961W        W86276   5.629  20.770   1.300
13962W        W86277  41.587  30.238  14.201
13963W        W86278  31.115   0.435  10.649
13964W        W86279   3.396  40.014   2.309
13965W        W86280  44.878   0.527  14.023
13966W        W86281  32.521  32.350  13.460
13967W        W86282  13.223   7.901   0.889
13968W        W86283  16.632  30.843  13.433
13969W        W86284   6.070  17.293   1.228
13970W        W86285  42.486   4.316  11.209
13971W        W86286  44.212  18.148   1.308
13972W        W86287  19.376  38.370  12.372
13973W        W86288  28.160  15.085  12.058
13974W        W86289  21.975  34.486  14.374
13975W        W86290   4.029   7.839   0.755
13976W        W86291  27.161  40.721   4.559
13977W        W86292  14.525  37.313  12.036
13978W        W86293  10.584  40.937   0.485
13979W        W86294  25.587   8.182   2.119
13980W        W86295  27.752  41.467  14.346
13981W        W86296  41.028  29.324  12.425
13982W        W86297  29.515   0.808   5.165
13983W        W86298  24.588   0.935   2.677
13984W        W86299   7.810   7.411   2.162
13985W        W86300  19.320  37.838  10.718
13986W        W86301  14.518  38.439  12.128
13987W        W86302  25.799  31.088  12.899
13988W        W86303  15.124  43.820   2.461
13989W        W86304   8.797   4.264   4.778
13990W        W86305  16.199   8.712   4.491
13991W        W86306  31.407  39.845  11.096
13992W        W86307  41.988   7.514   4.825
13993W        W86308  42.262   4.452  11.657
13994W        W86309  12.972  10.778  10.591
13995W        W86310   3.737  14.038   0.322
13996W        W86311  40.447  12.306   2.890
13997W        W86312  17.028  18.612  14.857
13998W        W86313  14.335   0.359   4.368
13999W        W86314   5.493   5.810  13.065
14000W        W86315   8.805   1.747   4.154
14001W        W86316  39.324  13.754   2.163
14002W        W86317  21.217   2.857  12.570
14003W        W86318  21.747  17.396  14.802
14004W        W86319  14.634   5.383   1.205
14005W        W86320  16.229   6.563  10.174
14006W        W86321  20.470  26.688  13.231
14007W        W86322  35.197  12.004   2.851
14008W        W86323   4.974  16.211   1.189
14009W        W86324  44.762   7.136   2.481
14010W        W86325  28.324  37.525  12.877
14011W        W86326  28.099  34.383  12.736
14012W        W86327  36.979  34.331   2.376
14013W        W86328  11.866  15.661  12.904
14014W        W86329  35.478  23.132  13.182
14015W        W86330  20.004  18.833  14.229
14016W        W86331  19.298   1.387   1.185
14017W        W86332  24.143  33.367   5.143
14018W        W86333  29.863   5.267   2.218
14019W        W86334   7.205  41.059   1.399
14020W        W86335  30.660  24.227   1.333
14021W        W86336   2.923  36.326   3.051
14022W        W86337  42.887  18.069  12.342
14023W        W86338  14.069  23.906   1.359
14024W        W86339  11.026  43.574  12.957
14025W        W86340  24.600  43.377   3.158
14026W        W86341  24.645  37.086  14.868
14027W        W86342  41.779  26.229   0.828
14028W        W86343  10.677  23.311  11.204
14029W        W86344  25.461  12.792   2.344
14030W        W86345  22.528  20.993  10.573
14031W        W86346  35.921  11.984   2.768
14032W        W86347  35.838  22.659   1.391
14033W        W86348   5.813  29.447  14.812
14034W        W86349   8.807  42.274   3.103
14035W        W86350  11.576   5.735   0.993
14036W        W86351  21.600   0.839  12.626
14037W        W86352  14.992  13.706   0.801
14038W        W86353  36.538   1.735  10.753
14039W        W86354  29.996  40.383   2.378
14040W        W86355  34.423  43.970  11.473
14041W        W86356   2.414  11.163  10.256
14042W        W86357  25.140  10.569   3.193
14043W        W86358  41.863   7.005   2.005
14044W        W86359  41.735   7.799   4.495
14045W        W86360  34.901  13.778   4.925
14046W        W86361  13.353   9.110   2.772
14047W        W86362   9.113  12.159  12.849
14048W        W86363  12.471  17.400  14.886
14049W        W86364  19.249  21.017  11.425
14050W        W86365  13.104   2.361   3.759
14051W        W86366  31.116  10.292   9.879
14052W        W86367  26.802  36.763  11.691
14053W        W86368   7.907   5.247  13.732
14054W        W86369  34.449  38.456   4.604
14055W        W86370  34.565   1.932  14.950
14056W        W86371   8.880  37.590   3.153
14057W        W86372  18.240  27.953   5.088
14058W        W86373  19.153  16.788  12.280
14059W        W86374   8.211  29.396  12.196
14060W        W86375  37.621  12.915  13.564
14061W        W86376  21.544  10.819   0.792
14062W        W86377  25.099  12.708   0.713
14063W        W86378  29.478  24.435   1.847
14064W        W86379  36.966  12.467   3.764
14065W        W86380  23.618  27.949   4.545
14066W        W86381  17.138  20.321   3.600
14067W        W86382  17.686  35.849   2.167
14068W        W86383   6.973  11.740   4.150
14069W        W86384  36.394  27.988  13.976
14070W        W86385  26.415  34.411  13.459
14071W        W86386  17.152  39.800  10.670
14072W        W86387  35.896  17.380  11.194
14073W        W86388  27.543   3.624   5.530
14074W        W86389  22.173  30.172  14.009
14075W        W86390  10.948  39.930  14.358
14076W        W86391   7.759  11.341   1.634
14077W        W86392  28.687  24.639   2.907
14078W        W86393  18.646  41.044   2.639
14079W        W86394  29.071  15.622   2.239
14080W        W86395   6.729  15.793   0.377
14081W        W86396   1.045   0.244   3.438
14082W        W86397  36.402  27.375  14.385
14083W        W86398   2.320  18.645  14.562
14084W        W86399  20.251   7.085   0.962
14085W        W86400  16.113  20.334   4.252
14086W        W86401  20.105  21.219  12.474
14087W        W86402  34.555  44.419  13.269
14088W        W86403  29.072   3.145  10.494
14089W        W86404  25.022  28.781   0.868
14090W        W86405  10.066  25.259  12.969
14091W        W86406   5.872   8.788  11.531
14092W        W86407  18.454  40.547  13.054
14093W        W86408  43.306   5.739   3.253
14094W        W86409  12.848   6.970   2.276
14095W        W86410  33.071  17.030  13.456
14096W        W86411  18.097  11.376  10.310
14097W        W86412   7.248  24.669   0.839
14098W        W86413   9.404   9.226  12.979
14099W        W86414  40.817  23.538   1.207
14100W        W86415   5.212  21.179   3.145
14101W        W86416   6.382  38.933   0.412
14102W        W86417  17.106   8.833   1.697
14103W        W86418  26.699  42.137   2.699
14104W        W86419  22.031  19.153  10.174
14105W        W86420  26.950  34.012  10.248
14106W        W86421   7.581  27.011   3.624
14107W        W86422  12.490  29.765   1.397
14108W        W86423   6.573  40.477   4.538
14109W        W86424   9.651  43.526  14.229
14110W        W86425  30.150  44.270  10.237
14111W        W86426  21.632  19.984   1.017
14112W        W86427  41.444  32.220  12.343
14113W        W86428  39.938  24.116   2.380
14114W        W86429  41.985  39.559   0.356
14115W        W86430  27.997   0.241   3.181
14116W        W86431  22.056  41.600  11.085
14117W        W86432  23.481   6.247  13.382
14118W        W86433  23.003  32.586  10.747
14119W        W86434  28.619  11.416  12.346
14120W        W86435  34.473  21.657   3.759
14121W        W86436   9.531  25.998  12.855
14122W        W86437  25.728  40.659  11.088
14123W        W86438   0.353  16.981   3.834
14124W        W86439  26.717   6.250   4.774
14125W        W86440  34.508  16.751  11.481
14126W        W86441  17.787  31.998   1.269
14127W        W86442  34.022  21.708  12.345
14128W        W86443  26.436  41.706   4.260
14129W        W86444   4.926  41.764  14.013
14130W        W86445  11.154  30.245   2.266
14131W        W86446   9.191  10.580   3.749
14132W        W86447  36.982  44.037  11.859
14133W        W86448  30.523  12.181  13.905
14134W        W86449  10.040  22.793   3.346
14135W        W86450  15.037   5.368   4.348
14136W        W86451  32.001  26.938   2.594
14137W        W86452  13.645  21.795   0.214
14138W        W86453  18.616   0.627  14.245
14139W        W86454  35.940  34.988  13.868
14140W        W86455  34.635  13.119   1.692
14141W        W86456  23.307  44.983  12.284
14142W        W86457  40.031  23.704  14.167
14143W        W86458  18.312   5.618   2.687
14144W        W86459   0.220  28.110  10.949
14145W        W86460  33.447  19.748   4.253
14146W        W86461  25.351  16.739   2.403
14147W        W86462   3.723  30.914   2.112
14148W        W86463   3.796   0.397  12.349
14149W        W86464  40.529  31.964   1.676
14150W        W86465  30.368  15.812   4.227
14151W        W86466   8.947  17.563  12.476
14152W        W86467  12.215  22.631   4.386
14153W        W86468   2.838  40.312  12.011
14154W        W86469  15.026  40.556  12.413
14155W        W86470  15.764   7.277   2.290
14156W        W86471  44.997   0.658  14.545
14157W        W86472  10.899   5.189  11.151
14158W        W86473  29.525  40.805   0.790
14159W        W86474  41.424  12.702  12.120
14160W        W86475  37.786   4.881  12.846
14161W        W86476   4.771  31.068   4.900
14162W        W86477  33.030   6.254  10.781
14163W        W86478  34.020  43.654  11.596
14164W        W86479  28.470  32.163  11.512
14165W        W86480   0.649  11.208   4.079
14166W        W86481   0.795  32.172   1.793
14167W        W86482   3.619  13.357  11.142
14168W        W86483  20.661   2.841  14.782
14169W        W86484  12.876   8.603   4.019
14170W        W86485  12.130  39.817   4.327
14171W        W86486  25.721  30.983   4.823
14172W        W86487   0.135  18.783   3.198
14173W        W86488  27.300  43.194  12.399
14174W        W86489  23.505   0.811   2.304
14175W        W86490  39.022  23.838  13.502
14176W        W86491  27.879  28.985   2.788
14177W        W86492  44.168  13.731  14.952
14178W        W86493  13.172  18.294   2.750
14179W        W86494   6.291  29.926   3.848
14180W        W86495  34.150  11.789   3.358
14181W        W86496   9.352  17.758   5.226
14182W        W86497  29.657  23.152  11.655
14183W        W86498  38.358  27.356  10.780
14184W        W86499  40.407   9.696  14.172
14185W        W86500  18.079  39.303  13.601
14186W        W86501  23.936  11.350   1.314
14187W        W86502  34.038  42.548  10.639
14188W        W86503  30.947  24.965  12.610
14189W        W86504  19.109  13.243   1.004
14190W        W86505  38.461  34.382  12.108
14191W        W86506   0.370  11.137   2.743
14192W        W86507  11.477  12.472   0.274
14193W        W86508  38.935   7.702  14.290
14194W        W86509  39.780  34.015   1.414
14195W        W86510   9.628  27.461   3.657
14196W        W86511   3.432  30.018  13.797
14197W        W86512  39.192  26.930   1.602
14198W        W86513  38.592  42.195   3.695
14199W        W86514  37.493  12.842   1.905
14200W        W86515  21.366   1.673  12.361
14201W        W86516  24.986  31.550   4.424
14202W        W86517  20.640  12.213   4.008
14203W        W86518  44.892   3.826   3.675
14204W        W86519  13.638   6.839   3.107
14205W        W86520   5.863  14.684  10.715
14206W        W86521  17.124  30.664  10.362
14207W        W86522   0.695  34.511   4.888
14208W        W86523  33.836   1.257   2.406
14209W        W86524  21.492   8.181   2.131
14210W        W86525  25.726  39.433   2.716
14211W        W86526   1.884  20.084   3.701
14212W        W86527  14.705  21.850   1.461
14213W        W86528  22.512  10.404   1.876
14214W        W86529   4.608  33.664   0.823
14215W        W86530  32.540   6.358  11.466
14216W        W86531   7.458   3.510  14.206
14217W        W86532  39.950  21.398  10.673
14218W        W86533  19.583   3.756   1.504
14219W        W86534  20.147  39.486  12.012
14220W        W86535  25.382  18.972   3.246
14221W        W86536  37.129  17.483   1.363
14222W        W86537  36.056  33.117   3.651
14223W        W86538  36.130  43.476   2.705
14224W        W86539  35.878  17.644   4.428
14225W        W86540  19.575  39.935   1.446
14226W        W86541  37.563   9.885   0.294
14227W        W86542  26.013  18.924  13.905
14228W        W86543   3.233  20.616   3.352
14229W        W86544  24.803  32.050   2.995
14230W        W86545  27.099  24.215   2.025
14231W        W86546  20.230  27.686   1.318
14232W        W86547  32.392  28.256  12.134
14233W        W86548  15.809  27.213  10.771
14234W        W86549  17.152  21.447  10.474
14235W        W86550  19.976  21.007  10.589
14236W        W86551  23.642  14.270   0.019
14237W        W86552  25.569   1.457   2.858
14238W        W86553  17.003   6.660  14.948
14239W        W86554  40.864   8.312  14.719
14240W        W86555   8.322  36.233   2.403
14241W        W86556   8.273   3.974  12.975
14242W        W86557   1.342  39.022  14.861
14243W        W86558  11.740  25.285  14.563
14244W        W86559  44.680  21.225  13.270
14245W        W86560  21.130  18.548   0.257
14246W        W86561  23.215   8.637   4.694
14247W        W86562  38.681  10.244   3.007
14248W        W86563  36.509   8.418  13.478
14249W        W86564  22.949  44.184  13.434
14250W        W86565   7.973  38.639  11.873
14251W        W86566  19.423  24.988   3.788
14252W        W86567  21.697  22.833  14.837
14253W        W86568  30.062   4.954   4.253
14254W        W86569   5.257   2.330   2.255
14255W        W86570  35.872  11.352  10.531
14256W        W86571  10.787   6.333  13.512
14257W        W86572  29.980  40.903   1.464
14258W        W86573  16.839  27.556   4.187
14259W        W86574  27.870  14.827   2.716
14260W        W86575   0.778  33.826   0.357
14261W        W86576  24.220  30.978  11.553
14262W        W86577  11.846   2.693  14.540
14263W        W86578  10.695  30.356  10.901
14264W        W86579  39.015   5.380   4.287
14265W        W86580  29.484  23.722   2.328
14266W        W86581  21.157  25.498  13.563
14267W        W86582   9.656  18.772   1.197
14268W        W86583  27.118  27.617  13.972
14269W        W86584  12.388  18.821   4.732
14270W        W86585  23.778  11.691  10.556
14271W        W86586   2.878  22.083  11.980
14272W        W86587  42.864   1.261  11.847
14273W        W86588  44.859   4.912   2.788
14274W        W86589  16.118  30.578   2.365
14275W        W86590  40.207  31.785   3.282
14276W        W86591   3.538  29.218   3.588
14277W        W86592  36.064  18.743   2.340
14278W        W86593  31.903  44.990   2.706
14279W        W86594  26.474   6.251   2.165
14280W        W86595  13.585  38.527   1.857
14281W        W86596  18.433  21.609   4.606
14282W        W86597   5.753  10.643  14.900
14283W        W86598  33.897  26.679  14.001
14284W        W86599  14.234  23.606   1.783
14285W        W86600  41.854  25.599   4.502
14286W        W86601   9.407  38.379   4.855
14287W        W86602  14.927  31.050   2.901
14288W        W86603   2.342  41.520   3.824
14289W        W86604   1.122  35.033  11.964
14290W        W86605  28.851  42.448  12.600
14291W        W86606  21.474  30.112   1.270
14292W        W86607  20.198  34.046   4.580
14293W        W86608   8.266  21.066   0.252
14294W        W86609   0.629  20.568   2.088
14295W        W86610  36.424  40.679   1.882
14296W        W86611  29.100  18.549   3.675
14297W        W86612  40.590  27.147  12.401
14298W        W86613  38.391  32.190   2.279
14299W        W86614  12.648  23.167   2.793
14300W        W86615  27.710  33.989  13.488
14301W        W86616  18.859  44.062  14.958
14302W        W86617   8.424  16.207  11.748
14303W        W86618  18.301  18.291  12.447
14304W        W86619   8.000   8.408   2.599
14305W        W86620  12.172  41.040   1.489
14306W        W86621  29.476  25.457   2.128
14307W        W86622  41.567  10.696   3.527
14308W        W86623  11.781  16.192   5.180
14309W        W86624  24.328  37.383   5.247
14310W        W86625   8.928  30.325  10.706
14311W        W86626   1.046  16.556   3.183
14312W        W86627  12.747  13.274   2.834
14313W        W86628  43.550  44.193  14.775
14314W        W86629  33.636  40.319  12.703
14315W        W86630  41.289  43.090  12.133
14316W        W86631  43.423  17.572   4.970
14317W        W86632  40.879  26.361   4.739
14318W        W86633  32.910  37.675  12.077
14319W        W86634  15.115  34.633   0.112
14320W        W86635   8.433   3.775   2.577
14321W        W86636  38.878  23.411   1.963
14322W        W86637  15.780  31.051   0.236
14323W        W86638  24.987  44.919   1.324
14324W        W86639  20.671   8.375   0.365
14325W        W86640  22.913  15.330   3.764
14326W        W86641  40.977  37.291  11.700
14327W        W86642   4.022   8.336  13.695
14328W        W86643  13.735  12.044  11.399
14329W        W86644  26.588  16.858   1.191
14330W        W86645  27.084  25.131   3.817
14331W        W86646  15.194   2.332  11.419
14332W        W86647  26.915  21.235   4.541
14333W        W86648   6.647  38.989   3.145
14334W        W86649  41.552  11.276  14.776
14335W        W86650  12.056  10.132  10.646
14336W        W86651  20.766  36.924   0.216
14337W        W86652   9.887  22.992   3.808
14338W        W86653  19.546  14.019  11.107
14339W        W86654  22.586  23.082   2.845
14340W        W86655  27.668   6.652   0.241
14341W        W86656  15.029  17.333   3.191
14342W        W86657  24.523  11.829  14.405
14343W        W86658  34.435  10.307  12.895
14344W        W86659  39.495  18.523   2.729
14345W        W86660  18.546   1.874  12.608
14346W        W86661  44.197  20.727  11.635
14347W        W86662  23.772  19.108   9.770
14348W        W86663  23.516  22.674   4.640
14349W        W86664  33.504  16.051  12.786
14350W        W86665   8.153  18.192   4.165
14351W        W86666   7.102   7.451   3.176
14352W        W86667  37.962  20.000  14.800
14353W        W86668  42.959  40.110   0.513
14354W        W86669  26.145   5.689  10.685
14355W        W86670  11.131  11.746   0.836
14356W        W86671   9.949  16.983   3.684
14357W        W86672  11.696  41.084  13.886
14358W        W86673  43.851  44.483  12.114
14359W        W86674  25.676  34.882   5.056
14360W        W86675  18.706   9.766   0.175
14361W        W86676   6.004  25.449  11.458
14362W        W86677   8.935   2.017  12.920
14363W        W86678  20.639  43.954   2.535
14364W        W86679   4.766  26.683   2.613
14365W        W86680  33.183  31.876   0.280
14366W        W86681   1.003  40.461   2.806
14367W        W86682  43.463   7.717  12.068
14368W        W86683  13.211  30.299   0.882
14369W        W86684   6.325  10.986   4.541
14370W        W86685  30.385   6.973   2.673
14371W        W86686  21.622  31.833   0.326
14372W        W86687  34.802  24.696   5.059
14373W        W86688  11.320  21.898   4.139
14374W        W86689  35.271  23.135   4.684
14375W        W86690  38.353   8.378   0.924
14376W        W86691  34.113   1.989  11.994
14377W        W86692  28.043   0.351   4.160
14378W        W86693  38.778  21.349   1.396
14379W        W86694   0.159  25.009   4.561
14380W        W86695  13.596   0.721  12.120
14381W        W86696   2.769  36.822   3.914
14382W        W86697  11.519   2.907   4.241
14383W        W86698  36.817  28.571   4.614
14384W        W86699  10.595  28.909   0.761
14385W        W86700  16.866  30.502   3.580
14386W        W86701  11.403   9.178   2.229
14387W        W86702  21.552   8.592  14.996
14388W        W86703  38.446  38.899  11.564
14389W        W86704  25.719  31.904  14.580
14390W        W86705  27.749  40.352   2.402
14391W        W86706  23.810   8.780   3.338
14392W        W86707  30.654  13.314   0.518
14393W        W86708   1.226  28.426   2.397
14394W        W86709   2.598  28.071  14.755
14395W        W86710  23.478  43.970  11.754
14396W        W86711   5.149  38.131  13.382
14397W        W86712   9.912   3.205   3.174
14398W        W86713  14.352  21.078  14.023
14399W        W86714  25.429  23.624   0.930
14400W        W86715  23.413  36.631  12.901
14401W        W86716  17.786  24.488   2.201
14402W        W86717   0.890  31.376   4.111
14403W        W86718  10.183  41.833   3.271
14404W        W86719  24.001  33.647   2.715
14405W        W86720  21.731  31.660  12.682
14406W        W86721  20.723  21.349   4.973
14407W        W86722  19.629  27.402   2.228
14408W        W86723   1.272  38.563  10.715
14409W        W86724  40.529  21.960   0.235
14410W        W86725   3.277  32.521   1.144
14411W        W86726  44.809  10.164   3.290
14412W        W86727  35.704  21.945   2.305
14413W        W86728  43.849  30.034   2.214
14414W        W86729  43.986  12.070   4.561
14415W        W86730  36.544  39.295  11.862
14416W        W86731  27.933  40.787   2.177
14417W        W86732  39.772  38.804  13.748
14418W        W86733  10.583  38.342  14.294
14419W        W86734   7.719   4.326  10.704
14420W        W86735  26.122  14.082   4.882
14421W        W86736  31.403  33.317   3.641
14422W        W86737   4.236  31.281   4.922
14423W        W86738  18.061  31.805  13.382
14424W        W86739  19.039  11.697   2.679
14425W        W86740  39.838   7.783   4.869
14426W        W86741  43.884   0.269   3.618
14427W        W86742  23.628  44.483  14.214
14428W        W86743  36.627  40.490   4.559
14429W        W86744  15.877  16.824   3.125
14430W        W86745   9.751  41.407   0.753
14431W        W86746  25.698  40.297   2.149
14432W        W86747  24.193  24.003   3.314
14433W        W86748  39.945  21.297   2.604
14434W        W86749  23.002  22.894   1.998
14435W        W86750  12.593   9.867  12.810
14436W        W86751   3.873   8.594  12.600
14437W        W86752  40.225  29.549   2.675
14438W        W86753  31.693  30.187  12.458
14439W        W86754   4.428  36.853  13.436
14440W        W86755  43.020   0.176  12.682
14441W        W86756  15.986  24.557   0.409
14442W        W86757  18.804  39.905   1.834
14443W        W86758  14.972  43.700  13.740
14444W        W86759   0.453   9.389  14.386
14445W        W86760  15.093  30.122  11.101
14446W        W86761  39.648  42.059   4.676
14447W        W86762  24.780  39.073  13.884
14448W        W86763  38.610  33.424  14.839
14449W        W86764  13.735   2.358  10.677
14450W        W86765   3.243   6.925  12.624
14451W        W86766  42.987   6.505  13.281
14452W        W86767  24.718  12.887  14.331
14453W        W86768  11.314  21.511  11.273
14454W        W86769  44.702  21.817   2.341
14455W        W86770  16.599  38.858   2.392
14456W        W86771  18.834  43.966  11.850
14457W        W86772  44.842  30.198  13.087
14458W        W86773  28.122   8.459   2.284
14459W        W86774  32.184   3.461  14.499
14460W        W86775   9.725   8.416  11.529
14461W        W86776  19.283   8.853  12.940
14462W        W86777  32.658  27.490  13.411
14463W        W86778   2.739   7.459  13.303
14464W        W86779  32.104  25.652  10.785
14465W        W86780  18.605  40.977  12.481
14466W        W86781  37.250  41.340  11.657
14467W        W86782  19.033  43.839   2.452
14468W        W86783  10.031   2.236  12.181
14469W        W86784  15.731  25.727  13.458
14470W        W86785  17.014  37.655   4.923
14471W        W86786  41.820  10.392   3.830
14472W        W86787  10.117  43.000   0.506
14473W        W86788  36.332  40.310  14.006
14474W        W86789  21.158   1.222  14.671
14475W        W86790  41.348  37.494   3.307
14476W        W86791  30.927  25.276  14.503
14477W        W86792  18.193  17.155   0.184
14478W        W86793  20.072  18.013   3.456
14479W        W86794  29.426  29.365  14.753
14480W        W86795  32.974  26.265  11.137
14481W        W86796   7.098  11.902   3.647
14482W        W86797  11.104  38.009   2.513
14483W        W86798  23.702  16.846   1.300
14484W        W86799  39.029  29.448   1.048
14485W        W86800   8.627  29.906  10.721
14486W        W86801   6.865  15.592   1.694
14487W        W86802  24.440  31.073   2.602
14488W        W86803  35.931  12.062  11.986
14489W        W86804  10.789  43.443   4.453
14490W        W86805  31.562   2.169   2.491
14491W        W86806  17.538  24.648  12.389
14492W        W86807  10.127  43.807  14.315
14493W        W86808  16.554  17.207  14.946
14494W        W86809  17.131   7.277   0.839
14495W        W86810  27.232  38.216   4.620
14496W        W86811  23.604  14.143   3.705
14497W        W86812  26.593  40.809   3.844
14498W        W86813  10.198  12.361  13.526
14499W        W86814  34.557   1.995   1.363
14500W        W86815  24.571  33.066   1.851
14501W        W86816  22.943  18.079   4.119
14502W        W86817   1.238  26.642   3.223
14503W        W86818  16.106   5.896  12.298
14504W        W86819   2.078  41.968  11.604
14505W        W86820  13.063  43.010   2.237
14506W        W86821  15.106  39.311  12.035
14507W        W86822  13.360  39.960  11.922
14508W        W86823  20.051  27.517   2.655
14509W        W86824  22.216  15.395  14.961
14510W        W86825  26.696  29.577   4.209
14511W        W86826  21.239  15.672   3.609
14512W        W86827  16.944  26.267   4.585
14513W        W86828  27.238  22.557  14.958
14514W        W86829  27.553  13.612   2.863
14515W        W86830  31.410  13.224   3.820
14516W        W86831  27.737   1.348  13.462
14517W        W86832  29.098  35.009   1.726
14518W        W86833  15.214   2.891   4.042
14519W        W86834   8.295  19.639  10.889
14520W        W86835  23.512   4.288   4.117
14521W        W86836  43.022   1.935  10.087
14522W        W86837  13.472  28.423   3.870
14523W        W86838  42.539  10.601   3.660
14524W        W86839   0.844  43.437  14.850
14525W        W86840  38.895  28.761   3.762
14526W        W86841  42.445  23.228  12.740
14527W        W86842   4.138   7.183   1.843
14528W        W86843  23.517  24.129  14.620
14529W        W86844  32.162  44.782   4.086
14530W        W86845  40.325  27.740  13.414
14531W        W86846   9.860  24.246   2.404
14532W        W86847  37.393  20.038   3.331
14533W        W86848  43.870  15.087  12.886
14534W        W86849  37.598  14.219  13.542
14535W        W86850  12.547   7.526  14.202
14536W        W86851  25.017  20.629   4.644
14537W        W86852   1.249  11.298   1.836
14538W        W86853   8.722   8.706  14.065
14539W        W86854  19.542  18.916  12.425
14540W        W86855  20.668  14.560  14.980
14541W        W86856  39.470  42.521  12.418
14542W        W86857  21.972  20.581   3.995
14543W        W86858   6.861  13.255   1.895
14544W        W86859   6.945  35.799   0.539
14545W        W86860   5.623  28.809  11.120
14546W        W86861   2.607  32.945  12.112
14547W        W86862  32.926   3.942   0.245
14548W        W86863  31.526  41.003  13.801
14549W        W86864  42.955  42.897  10.590
14550W        W86865   0.465  22.242   1.274
14551W        W86866  18.751  33.872  12.418
14552W        W86867  32.723   2.755   1.186
14553W        W86868  10.884   9.436  14.066
14554W        W86869  36.511  31.349   3.889
14555W        W86870  36.714  40.552   1.378
14556W        W86871   8.322  41.579   2.851
14557W        W86872  28.435  28.439  12.030
14558W        W86873  26.653  30.329  14.809
14559W        W86874  10.509   9.901   5.049
14560W        W86875  32.313  33.434  12.118
14561W        W86876  17.723  26.053   2.132
14562W        W86877  33.922   8.724  12.517
14563W        W86878  15.023   2.181  12.677
14564W        W86879  28.047  19.777   2.563
14565W        W86880   2.957  19.559   1.948
14566W        W86881  32.221  15.613  11.145
14567W        W86882  16.719   9.754  13.990
14568W        W86883  28.989  24.576   1.980
14569W        W86884  44.075  19.131   1.828
14570W        W86885  38.775  24.108  10.711
14571W        W86886  42.471  26.524   1.160
14572W        W86887  17.290  29.076  10.435
14573W        W86888  32.304  23.710   2.759
14574W        W86889  12.654  29.988   3.856
14575W        W86890  31.686  31.083   5.185
14576W        W86891  22.949  23.995   0.980
14577W        W86892   4.230  14.829  14.437
14578W        W86893  22.711  30.691  13.493
14579W        W86894  27.621  43.053   2.891
14580W        W86895  19.728  32.448   1.861
14581W        W86896  31.909  20.104   3.774
14582W        W86897  32.007  37.351   1.488
14583W        W86898  16.497  10.525  12.459
14584W        W86899  34.275  40.870  10.394
14585W        W86900   5.261  31.970   1.713
14586W        W86901  21.708  23.508  10.542
14587W        W86902  35.423  28.596  10.585
14588W        W86903  28.929   9.553  13.389
14589W        W86904  16.246  25.881  13.951
14590W        W86905  22.574  22.532  12.804
14591W        W86906  21.339  20.084   2.735
14592W        W86907  28.138  35.308   0.228
14593W        W86908  44.941   0.926   0.023
14594W        W86909  16.488  30.030  10.229
14595W        W86910   2.753  11.545   0.838
14596W        W86911   2.369  11.060   0.236
14597W        W86912  28.347  12.164  13.856
14598W        W86913  38.146  42.414   3.618
14599W        W86914  26.616  42.420   3.172
14600W        W86915  32.570  34.594  12.061
14601W        W86916  27.028  34.510   4.069
14602W        W86917  39.433  24.309  14.276
14603W        W86918  16.229  16.778   2.762
14604W        W86919  29.077   1.053  13.665
14605W        W86920   6.915  17.168  14.528
14606W        W86921  35.955  24.714  13.944
14607W        W86922  39.957  30.691  12.986
14608W        W86923   5.863  35.400   1.114
14609W        W86924  43.714  17.285   1.655
14610W        W86925  44.494   7.236   0.214
14611W        W86926  29.128  39.269  13.061
14612W        W86927  23.699  44.346   1.144
14613W        W86928  28.070   8.197  11.141
14614W        W86929  19.026  21.126   0.906
14615W        W86930  30.119   9.272  14.959
14616W        W86931   8.900  15.655   0.299
14617W        W86932  44.904  29.588   1.760
14618W        W86933   6.293  43.066   3.783
14619W        W86934   8.161   1.768  13.728
14620W        W86935   4.372  30.643  12.497
14621W        W86936  27.589  17.963  13.817
14622W        W86937  32.027  11.127   3.649
14623W        W86938  18.550   8.394  11.761
14624W        W86939  41.131  23.957  14.799
14625W        W86940  10.678  18.784   2.403
14626W        W86941  24.111   1.969   2.781
14627W        W86942  36.161  40.734   4.206
14628W        W86943   9.638  28.032  13.953
14629W        W86944  13.208  24.160  11.483
14630W        W86945  13.860   0.906   4.584
14631W        W86946  26.693  18.612   3.559
14632W        W86947  20.984   3.793  13.014
14633W        W86948  20.678  29.242   4.121
14634W        W86949  34.784  15.216   2.699
14635W        W86950   3.285  17.138  14.221
14636W        W86951  30.951  32.372   2.166
14637W        W86952  26.124   1.727   0.314
14638W        W86953   5.961   1.030  11.643
14639W        W86954  26.014  25.657   1.947
14640W        W86955  13.718   5.370   2.240
14641W        W86956   5.899  27.778  12.403
14642W        W86957  24.146  41.337   3.725
14643W        W86958  42.239   7.796   4.380
14644W        W86959   0.989  10.888  14.831
14645W        W86960  44.856   4.298   0.272
14646W        W86961  44.444  38.077   1.653
14647W        W86962  26.714  13.851  13.273
14648W        W86963  33.672  40.213  10.892
14649W        W86964  39.531   1.842  10.993
14650W        W86965  19.556   4.471  13.827
14651W        W86966   3.396  15.347  12.287
14652W        W86967   4.450   1.692  12.049
14653W        W86968  23.806  34.107   4.720
14654W        W86969  11.546  24.172   4.244
14655W        W86970  25.693   1.558  12.472
14656W        W86971  10.351  24.582   1.201
14657W        W86972  28.216  11.231  11.111
14658W        W86973   1.216  12.140  14.446
14659W        W86974  16.341  44.538   0.929
14660W        W86975  38.663  17.733   4.276
14661W        W86976   2.767  41.242  13.989
14662W        W86977  42.852   6.354   4.557
14663W        W86978   8.124  33.758   0.460
14664W        W86979   0.423  35.188   3.036
14665W        W86980  38.861  25.926  12.649
14666W        W86981  21.764  22.603   0.779
14667W        W86982   6.321  36.115  11.609
14668W        W86983  36.603  12.709   4.700
14669W        W86984  42.732   9.238   3.693
14670W        W86985  37.144   5.665   3.245
14671W        W86986  34.526  12.103  11.604
14672W        W86987  20.940  12.663  14.286
14673W        W86988   5.312  13.413   0.617
14674W        W86989  22.669   1.836  11.642
14675W        W86990  35.343   7.018  12.927
14676W        W86991  22.488   4.011   0.485
14677W        W86992  15.987   5.226   3.240
14678W        W86993  31.781  16.212  14.670
14679W        W86994   1.247  17.219  12.965
14680W        W86995  20.630  31.511   4.575
14681W        W86996  10.897   4.900  14.313
14682W        W86997   1.711   9.772   4.135
14683W        W86998  42.874  39.029   1.446
14684W        W86999  33.159  26.151   5.109
14685W        W87000  31.165  13.108  14.413
14686W        W87001   7.218  43.362   1.483
14687W        W87002  36.250   0.286   1.961
14688W        W87003  37.348  21.986   0.951
14689W        W87004  23.122  44.134  14.404
14690W        W87005   2.608  37.119  10.350
14691W        W87006   7.477  17.757   3.884
14692W        W87007  13.315  20.344   2.896
14693W        W87008  16.042  12.236  10.465
14694W        W87009  44.524   7.749   2.786
14695W        W87010  27.582   9.397  11.938
14696W        W87011   2.747   4.807   0.451
14697W        W87012  43.745  21.363  12.430
14698W        W87013   9.831  23.425  10.923
14699W        W87014  16.777  21.297  10.996
14700W        W87015  24.804   9.774  11.234
14701W        W87016  10.423  39.905  14.385
14702W        W87017  42.958   3.756   2.668
14703W        W87018  37.798  14.407   3.328
14704W        W87019  37.562  27.732   1.450
14705W        W87020   6.731  39.842   3.158
14706W        W87021   6.352  44.235  13.488
14707W        W87022  30.475  38.051   4.652
14708W        W87023  20.858  32.832  14.403
14709W        W87024  31.922  12.650  14.038
14710W        W87025  33.348  13.564  12.065
14711W        W87026  16.794  27.547  10.488
14712W        W87027  37.903  20.908   3.300
14713W        W87028  21.742  30.420  10.426
14714W        W87029  29.635  20.663  14.633
14715W        W87030  22.102  19.241  12.059
14716W        W87031  14.745   2.998  14.961
14717W        W87032   9.646   0.715  10.433
14718W        W87033   3.463  38.382   1.834
14719W        W87034  40.409  40.435   1.770
14720W        W87035  14.484  13.673  12.107
14721W        W87036  15.230  31.281   3.796
14722W        W87037  33.503   9.919  14.484
14723W        W87038   1.903   9.817   2.251
14724W        W87039  34.951  37.245  12.468
14725W        W87040  38.432  27.532   2.405
14726W        W87041  11.751   0.418  10.980
14727W        W87042  22.350  25.781  14.780
14728W        W87043  12.776   3.475  11.209
14729W        W87044  34.102  40.289  12.995
14730W        W87045  28.087  22.646   5.053
14731W        W87046  41.739  10.243  10.755
14732W        W87047  40.759  12.268   1.810
14733W        W87048  43.459  17.720   2.888
14734W        W87049   3.683  40.884   0.990
14735W        W87050  15.140  28.141  12.604
14736W        W87051   2.318   9.308  14.975
14737W        W87052  35.800   4.669   2.861
14738W        W87053  29.575  10.773   3.353
14739W        W87054  35.592  10.776  10.838
14740W        W87055  36.985  24.171   1.290
14741W        W87056  18.222  41.821   2.817
14742W        W87057  12.599  36.126  12.814
14743W        W87058   5.218  20.215   4.300
14744W        W87059  36.113  23.919   3.197
14745W        W87060  15.541  38.376  12.122
14746W        W87061  23.090  41.419   2.273
14747W        W87062   6.394   9.890   4.585
14748W        W87063  16.684  39.619   4.996
14749W        W87064   8.720  14.833   5.054
14750W        W87065  44.262  11.919  13.706
14751W        W87066  15.218   3.909  11.940
14752W        W87067  10.700  40.776   1.418
14753W        W87068   9.197  22.629   2.292
14754W        W87069   1.741  44.554  11.344
14755W        W87070   2.874  44.553  12.099
14756W        W87071  33.923  35.678   4.840
14757W        W87072  25.038   4.825  14.456
14758W        W87073  27.898  33.600   2.296
14759W        W87074  11.716  18.684   0.784
14760W        W87075  12.164   4.257   1.230
14761W        W87076  23.838  40.511   2.238
14762W        W87077  42.356  10.356  12.060
14763W        W87078  11.477   7.236   2.000
14764W        W87079  31.910  21.737   2.198
14765W        W87080  27.968  25.939   0.258
14766W        W87081  27.136  44.018   1.629
14767W        W87082   9.809   5.463   1.967
14768W        W87083   7.741  43.999   1.863
14769W        W87084  31.845   6.828   2.767
14770W        W87085  31.975  18.734   0.476
14771W        W87086  30.033  44.175   0.904
14772W        W87087  40.078  40.105   4.282
14773W        W87088  33.563  38.997  13.823
14774W        W87089  35.464   6.359  13.600
14775W        W87090  20.786  14.523   2.617
14776W        W87091   2.672  40.948   3.277
14777W        W87092  38.485  33.174  11.499
14778W        W87093  22.809   7.366  13.781
14779W        W87094  19.561  42.349  14.889
14780W        W87095   7.912   7.229  12.480
14781W        W87096  37.515   6.761   1.551
14782W        W87097  24.399  44.990   2.205
14783W        W87098  17.076  29.637   1.608
14784W        W87099   7.868   0.335   1.753
14785W        W87100  41.051  25.661   4.233
14786W        W87101  22.612  28.641   3.315
14787W        W87102   9.933  10.290   4.556
14788W        W87103  19.347  32.890  11.114
14789W        W87104   2.267  43.557   1.917
14790W        W87105  14.886  22.565   0.825
14791W        W87106  21.206   1.277   2.760
14792W        W87107  14.637  15.066   0.241
14793W        W87108  15.786  12.657  12.428
14794W        W87109   8.363  35.399  12.029
14795W        W87110  20.801  18.774  14.931
14796W        W87111  14.060  42.472  13.032
14797W        W87112  40.315  25.406   0.941
14798W        W87113  15.872  39.911  11.152
14799W        W87114  39.533  19.104  13.584
14800W        W87115  13.653  40.509  12.083
14801W        W87116   9.590  25.934   4.102
14802W        W87117  21.520  41.681  11.617
14803W        W87118  29.902  24.192  11.689
14804W        W87119  27.673   8.144  11.465
14805W        W87120   7.749  42.917   4.383
14806W        W87121  35.973  39.224  14.721
14807W        W87122  31.157  30.609   2.361
14808W        W87123  38.572  40.752   0.387
14809W        W87124  36.908  38.258   2.651
14810W        W87125  33.512  24.449  12.949
14811W        W87126   6.235  25.244  13.028
14812W        W87127  32.237   0.509  13.465
14813W        W87128  22.390  19.487  14.803
14814W        W87129  14.228  29.191   3.169
14815W        W87130  22.682  42.361  11.568
14816W        W87131  19.265  16.202   3.293
14817W        W87132  40.863  39.555   4.774
14818W        W87133  11.749  15.858  13.886
14819W        W87134  43.690  15.083  14.247
14820W        W87135  13.386  24.955   0.379
14821W        W87136  10.248   5.302  12.739
14822W        W87137  22.723   6.323   4.508
14823W        W87138   4.292  23.012   3.253
14824W        W87139   2.633   2.202   4.399
14825W        W87140  36.354  35.021  10.735
14826W        W87141  41.727  28.180  14.821
14827W        W87142  43.419  35.537   0.900
14828W        W87143  26.960  26.939   3.674
14829W        W87144  10.846  24.653  12.033
14830W        W87145   1.845  27.963  13.370
14831W        W87146  35.496  27.745  11.974
14832W        W87147  21.680   7.609  11.072
14833W        W87148  14.125  27.237  14.414
14834W        W87149  30.840   7.943   4.525
14835W        W87150  13.861  14.838   3.727
14836W        W87151  31.162  29.739   1.407
14837W        W87152   9.263  21.816  13.976
14838W        W87153  44.790  25.666  10.359
14839W        W87154  40.238   0.091  11.141
14840W        W87155  38.036   1.204   1.884
14841W        W87156  25.775  40.947  11.977
14842W        W87157  43.669  18.232   2.238
14843W        W87158  17.782  26.959   1.813
14844W        W87159   2.781  29.136  10.767
14845W        W87160  15.848  44.257   3.382
14846W        W87161  25.456  29.175   4.578
14847W        W87162  37.472  39.039  12.854
14848W        W87163  11.668   3.452  10.664
14849W        W87164  25.546  21.023   2.285
14850W        W87165  43.463   8.704   0.090
14851W        W87166  32.037  18.230   3.607
14852W        W87167  19.875   0.798  14.676
14853W        W87168  22.039  13.066  13.818
14854W        W87169   2.525  12.275  14.920
14855W        W87170  34.878  22.292  12.543
14856W        W87171   4.743  20.234   0.830
14857W        W87172  32.831  35.768  10.922
14858W        W87173  12.682  42.534   2.795
14859W        W87174  40.321   0.566  11.955
14860W        W87175  20.752  31.062  13.485
14861W        W87176  30.546  20.674   2.251
14862W        W87177   4.763   0.162   4.533
14863W        W87178  18.630  28.256   0.321
14864W        W87179  16.337  19.546   2.241
14865W        W87180  33.611  23.417   2.760
14866W        W87181  30.438   5.331  13.318
14867W        W87182  27.689  29.363  14.927
14868W        W87183   0.778  30.574  13.452
14869W        W87184  32.468   4.162   1.191
14870W        W87185  31.582  32.539   4.649
14871W        W87186   9.424  29.787  12.712
14872W        W87187  33.501  13.568   2.188
14873W        W87188  26.979  19.114  10.724
14874W        W87189  27.783  33.097   3.785
14875W        W87190   1.917  39.469   1.777
14876W        W87191  14.507   9.816   0.386
14877W        W87192  21.419  16.356  14.925
14878W        W87193   9.107  44.881   0.056
14879W        W87194  27.531  29.500   3.166
14880W        W87195  33.062   9.448   4.146
14881W        W87196  37.260  28.603  11.656
14882W        W87197  40.769  31.815  12.919
14883W        W87198   5.008  33.888   3.398
14884W        W87199  43.475  28.447   4.631
14885W        W87200   8.111   4.950   0.824
14886W        W87201  39.041  16.215  10.890
14887W        W87202   0.764  13.152  10.208
14888W        W87203   0.575   5.269  14.066
14889W        W87204  35.272  14.922  13.363
14890W        W87205  32.931  10.631  11.598
14891W        W87206   6.684   6.900  13.520
14892W        W87207   5.920  40.532  14.490
14893W        W87208  25.104  21.516  11.699
14894W        W87209  16.901  36.181  12.968
14895W        W87210  22.299  11.808  12.928
14896W        W87211  16.250  22.729   0.879
14897W        W87212  43.532  17.164  14.793
14898W        W87213  20.716  11.771  10.629
14899W        W87214  11.591  25.317  12.312
14900W        W87215   4.889  12.294   1.208
14901W        W87216  28.096  13.807  10.996
14902W        W87217  28.115   0.104  14.990
14903W        W87218   8.389  29.016   3.238
14904W        W87219  34.558  29.288   3.073
14905W        W87220  22.090  18.518  12.711
14906W        W87221  16.051  44.768  12.671
14907W        W87222  10.261  24.364   2.077
14908W        W87223  20.821  12.706  12.847
14909W        W87224  31.980  35.722  10.775
14910W        W87225  20.015  21.588   3.357
14911W        W87226  11.853  13.246   4.672
14912W        W87227   4.921  30.624  14.708
14913W        W87228   1.505  39.792   3.688
14914W        W87229  39.759  12.168   1.743
14915W        W87230  30.530  29.849   0.250
14916W        W87231   2.839   3.755   0.380
14917W        W87232  29.965  19.845  13.186
14918W        W87233  33.362   0.781  10.218
14919W        W87234  20.515  12.161   0.006
14920W        W87235  30.691  17.703   2.451
14921W        W87236  44.021   7.798   0.802
14922W        W87237  30.557  13.836   4.542
14923W        W87238  13.319  36.953  11.941
14924W        W87239  43.469  14.323  13.155
14925W        W87240  20.703  27.005   2.355
14926W        W87241  41.526  27.679   4.586
14927W        W87242  10.235   8.719  11.183
14928W        W87243  10.585   2.799  13.975
14929W        W87244  24.676  25.254   2.691
14930W        W87245  30.196   1.716  10.487
14931W        W87246  41.853  40.995  13.458
14932W        W87247   7.603  32.863  12.437
14933W        W87248  31.631  10.685   3.675
14934W        W87249  24.472  37.397   1.873
14935W        W87250  32.619  40.324  12.575
14936W        W87251  17.786  32.618  11.530
14937W        W87252  22.653  37.590   0.511
14938W        W87253  31.110   0.952  10.766
14939W        W87254   1.591   0.934  13.892
14940W        W87255  33.181  15.087   4.307
14941W        W87256   4.313  32.358  11.660
14942W        W87257  14.016   9.432   1.103
14943W        W87258   0.183  16.620  12.648
14944W        W87259  18.900  24.171  11.823
14945W        W87260  24.622  26.115  13.306
14946W        W87261   3.340  36.044  13.472
14947W        W87262   1.772  24.456  12.020
14948W        W87263  29.627  43.030   1.285
14949W        W87264  15.480   6.842  13.079
14950W        W87265  36.092  21.169  14.284
14951W        W87266  27.921   0.650  12.916
14952W        W87267  38.337   5.642  11.151
14953W        W87268   0.909   2.788   0.858
14954W        W87269  14.398  27.345  13.098
14955W        W87270  27.040   1.432  11.509
14956W        W87271   2.454  27.119   2.196
14957W        W87272  29.968  25.225   0.272
14958W        W87273  37.036   4.685  12.174
14959W        W87274   8.300  29.489  10.793
14960W        W87275  27.390  10.641  13.590
14961W        W87276  32.579  36.786  11.159
14962W        W87277  26.016  20.783   0.949
14963W        W87278  28.724  40.735  13.838
14964W        W87279  29.021  39.843   2.361
14965W        W87280  16.558   4.344   4.722
14966W        W87281   5.694  28.554   4.483
14967W        W87282  20.706   0.192  10.715
14968W        W87283  17.118  31.900   5.013
14969W        W87284  38.865  10.912  13.273
14970W        W87285  25.838  15.771   4.475
14971W        W87286  19.668  29.496  12.011
14972W        W87287  14.643  30.116   3.487
14973W        W87288   1.907  39.056   3.766
14974W        W87289  17.797  15.263  13.367
14975W        W87290  19.128  30.632   0.281
14976W        W87291  18.815  41.459   4.780
14977W        W87292  10.949  37.363  13.442
14978W        W87293  22.148   1.519  12.809
14979W        W87294  44.610  23.090  13.837
14980W        W87295   2.234  24.940   2.051
14981W        W87296  12.141   8.823   4.093
14982W        W87297  26.512  33.600   0.897
14983W        W87298   0.580  17.124   5.160
14984W        W87299   6.427   0.806  14.871
14985W        W87300  23.730  41.200  11.205
14986W        W87301  26.526   8.647   0.534
14987W        W87302  42.868   0.250  13.458
14988W        W87303  31.349   5.773  10.618
14989W        W87304  16.386  39.100  11.564
14990W        W87305  43.057  23.169  12.460
14991W        W87306  37.006  18.728   0.819
14992W        W87307   2.325  38.142  12.545
14993W        W87308  19.362   8.832   5.113
14994W        W87309  15.902  26.715  14.490
14995W        W87310  12.968  27.446  14.004
14996W        W87311  43.117  29.108   4.818
14997W        W87312  44.812  11.295  10.344
14998W        W87313  19.712   3.436  13.399
14999W        W87314  28.528   8.077  13.644
15000W        W87315  38.012  37.161   0.938
15001W        W87316  18.785   9.756   3.737
15002W        W87317  19.706  18.616   4.620
15003W        W87318  28.460  11.589   4.536
15004W        W87319  17.180  40.261   2.237
15005W        W87320  37.608  33.631  11.086
15006W        W87321  26.150  24.876   4.593
15007W        W87322  34.776  38.507   0.823
15008W        W87323  19.138  16.056  14.284
15009W        W87324  40.957  29.374  13.343
15010W        W87325  13.531  18.291  11.903
15011W        W87326  43.500   7.429   2.105
15012W        W87327  40.601  33.115  13.379
15013W        W87328   9.112   0.056   3.139
15014W        W87329  17.143   1.171   3.144
15015W        W87330  28.063  24.427   1.748
15016W        W87331  37.019  23.291   2.019
15017W        W87332  11.423   9.561   3.602
15018W        W87333  22.689  12.774   1.270
15019W        W87334  11.881  42.866  14.158
15020W        W87335  36.101  12.909   4.712
15021W        W87336   0.473   8.665  11.912
15022W        W87337   8.380   0.214  14.907
15023W        W87338  28.196  27.025   5.051
15024W        W87339  10.198   8.672  14.000
15025W        W87340  32.636  14.050  13.367
15026W        W87341  10.708  26.473   3.683
15027W        W87342  30.947  14.073  13.951
15028W        W87343  14.246  25.968  13.902
15029W        W87344  27.001  30.216   2.174
15030W        W87345  35.070  33.653   0.289
15031W        W87346  20.985  11.523  13.933
15032W        W87347  11.858  13.660  14.862
15033W        W87348  24.535  11.817  11.929
15034W        W87349  15.796  38.393  14.575
15035W        W87350  31.535  22.971   2.313
15036W        W87351  27.038  16.665  13.736
15037W        W87352   7.404  35.989   0.334
15038W        W87353  15.108   4.282   2.235
15039W        W87354  12.317  26.642   3.782
15040W        W87355  35.552  22.304   0.054
15041W        W87356  27.556   1.862  13.173
15042W        W87357   6.932  38.779  14.407
15043W        W87358  20.955  23.194   4.075
15044W        W87359  21.017  22.043   2.731
15045W        W87360  15.568   2.912   1.393
15046W        W87361  43.031  27.984  14.428
15047W        W87362  40.638   0.402   0.534
15048W        W87363  41.614  36.768  12.916
15049W        W87364  22.729  29.930  14.719
15050W        W87365  23.741  36.684  11.211
15051W        W87366   0.753   2.249   3.609
15052W        W87367  21.251   7.690   3.174
15053W        W87368  26.607  42.550  13.408
15054W        W87369  18.792  33.995   3.364
15055W        W87370   3.136   9.275  11.446
15056W        W87371  13.156  24.231   2.335
15057W        W87372   6.775  24.962  13.839
15058W        W87373  19.802  27.958   1.517
15059W        W87374  19.272  22.564   1.884
15060W        W87375  22.243  16.744  12.573
15061W        W87376  27.999   2.757   4.423
15062W        W87377  16.054  21.518  12.078
15063W        W87378  44.110  32.546   1.228
15064W        W87379   0.151  10.092  10.712
15065W        W87380  22.531  20.067  10.706
15066W        W87381  39.553  40.038   4.340
15067W        W87382  27.230  38.798  12.510
15068W        W87383   5.304   2.466   3.798
15069W        W87384  40.571  17.110  12.652
15070W        W87385  25.952  22.968  13.916
15071W        W87386  40.931  20.164  11.611
15072W        W87387  23.158  33.940  14.978
15073W        W87388  21.328  29.122  13.359
15074W        W87389  43.543  20.068   4.307
15075W        W87390   4.886  17.498   2.045
15076W        W87391  32.240   7.568  14.198
15077W        W87392  38.028  41.853  10.608
15078W        W87393   2.796   4.445  11.580
15079W        W87394  11.765   5.261   1.997
15080W        W87395  23.293  10.402  10.195
15081W        W87396  12.190   6.779  11.608
15082W        W87397  19.665  43.272   2.834
15083W        W87398   4.273  25.059  13.249
15084W        W87399   5.213  26.784   4.208
15085W        W87400  27.591  34.900  12.441
15086W        W87401  10.032  42.059  13.048
15087W        W87402   9.623  40.765  13.929
15088W        W87403  14.371  10.323  13.675
15089W        W87404   3.792  26.145   0.217
15090W        W87405  39.982   7.797  11.475
15091W        W87406  16.342  29.503  14.716
15092W        W87407  10.873   9.712  12.929
15093W        W87408   1.334  20.530   4.271
15094W        W87409  21.088  40.108   2.342
15095W        W87410  23.237  21.306   4.572
15096W        W87411  18.203  20.206   4.101
15097W        W87412  16.689  33.129  10.787
15098W        W87413  10.674   6.141   2.800
15099W        W87414  33.991   4.033  13.376
15100W        W87415  14.104   3.682   3.823
15101W        W87416  31.092  28.144  11.741
15102W        W87417  18.131   2.888   2.010
15103W        W87418  32.314  33.590  12.922
15104W        W87419  32.663  28.076  12.560
15105W        W87420  27.415  28.118   2.141
15106W        W87421  16.275  33.014   2.290
15107W        W87422  13.994  18.656   3.772
15108W        W87423  17.446  11.148   5.003
15109W        W87424  26.221  32.172   4.384
15110W        W87425   8.024  39.411   4.149
15111W        W87426   2.290  44.201   1.419
15112W        W87427  32.049  33.091  14.341
15113W        W87428   9.954  21.489   2.288
15114W        W87429  21.208  39.799  10.601
15115W        W87430   2.330  20.054   0.922
15116W        W87431   4.704  27.502   0.793
15117W        W87432  23.773  20.283   2.207
15118W        W87433  41.990  16.336  11.780
15119W        W87434  22.512  34.540   4.663
15120W        W87435  19.493  23.970   3.449
15121W        W87436  16.815  15.782   0.326
15122W        W87437  14.768   9.359   0.098
15123W        W87438  41.727  24.621   4.063
15124W        W87439  24.198  12.893  14.508
15125W        W87440  28.795  35.915  11.860
15126W        W87441  16.079  12.230   0.476
15127W        W87442  28.136   5.876   2.838
15128W        W87443   0.725  12.646   0.858
15129W        W87444  25.048  34.129   2.071
15130W        W87445  21.610   9.250   1.470
15131W        W87446  30.099   2.474  14.263
15132W        W87447  14.207  15.838   0.423
15133W        W87448  34.949  21.075  11.182
15134W        W87449  30.869  38.382  10.760
15135W        W87450  17.055  33.948   4.758
15136W        W87451  33.800  13.646   3.698
15137W        W87452  21.086  11.320   2.764
15138W        W87453   1.612   1.001   5.103
15139W        W87454   9.978  28.590  10.703
15140W        W87455  20.800  37.874   4.033
15141W        W87456  14.864  18.275  11.612
15142W        W87457  36.853  16.878   0.276
15143W        W87458  33.002   2.711  11.378
15144W        W87459   6.880  14.399  12.941
15145W        W87460   8.642   7.071  13.473
15146W        W87461  23.950   3.382  11.292
15147W        W87462  20.424  17.650   3.565
15148W        W87463   4.262   3.908   3.281
15149W        W87464  29.657   6.679  12.488
15150W        W87465  15.208  29.768   3.601
15151W        W87466  32.414  37.996  11.346
15152W        W87467  33.322   0.447   0.747
15153W        W87468  23.410  26.487  12.053
15154W        W87469  34.750   8.287   0.018
15155W        W87470   6.311  19.241  11.681
15156W        W87471  15.824  12.546  14.829
15157W        W87472   1.407   4.844   0.695
15158W        W87473   4.989  16.397  12.478
15159W        W87474   3.798  34.635  11.861
15160W        W87475  30.607  42.800  10.537
15161W        W87476  41.877   1.781   1.785
15162W        W87477  37.953  41.349   2.267
15163W        W87478  12.930  22.180  12.163
15164W        W87479   7.861  26.883   3.167
15165W        W87480   3.811   0.763   1.516
15166W        W87481  25.792   3.902  10.220
15167W        W87482   9.750  29.466   0.802
15168W        W87483  16.797  18.963   0.426
15169W        W87484  38.858  37.548   2.782
15170W        W87485   0.313   0.298  12.355
15171W        W87486  31.696  10.585   2.779
15172W        W87487  21.600  28.220  13.724
15173W        W87488  34.120  31.889   4.659
15174W        W87489  17.169  41.289   0.092
15175W        W87490  16.057  40.303  12.029
15176W        W87491   5.630  41.765  12.145
15177W        W87492  44.762  35.830  14.867
15178W        W87493  27.649  23.005  10.805
15179W        W87494  22.094   7.386  11.224
15180W        W87495  24.076  26.758  10.275
15181W        W87496  15.157  28.449  11.039
15182W        W87497  36.840  41.197  11.968
15183W        W87498   4.829  36.335  12.165
15184W        W87499  35.814  13.627  12.998
15185W        W87500   4.174   9.950  14.561
15186W        W87501  44.965  27.557   3.828
15187W        W87502  32.933  28.487   1.408
15188W        W87503   7.378  38.759   1.777
15189W        W87504   9.580  34.361   1.764
15190W        W87505  31.654  15.094   2.217
15191W        W87506  42.933  20.517   1.871
15192W        W87507  36.820  42.221  10.437
15193W        W87508  17.163  33.992  10.221
15194W        W87509  20.542   6.236  13.288
15195W        W87510   8.418   2.342   1.162
15196W        W87511  36.584  32.584   0.003
15197W        W87512   3.254  37.292  11.488
15198W        W87513  16.621  42.956   3.052
15199W        W87514  19.214  25.605   2.643
15200W        W87515   1.310   7.371   2.868
15201W        W87516  23.200   9.872   3.395
15202W        W87517  39.603  34.036  13.481
15203W        W87518  30.228   1.900  12.777
15204W        W87519   6.846  19.558  13.950
15205W        W87520  29.619  28.399   3.237
15206W        W87521   1.445  36.941   3.388
15207W        W87522   2.756  30.623   2.390
15208W        W87523   4.728  44.387   0.813
15209W        W87524  10.367   0.123   4.186
15210W        W87525   8.199  14.722  12.087
15211W        W87526   6.785  39.391   4.073
15212W        W87527  36.091  39.885   0.866
15213W        W87528   3.683  30.051   1.960
15214W        W87529   0.185  15.764   2.001
15215W        W87530  32.310  11.550   2.246
15216W        W87531  12.170  33.963   0.847
15217W        W87532   8.353  41.610  14.701
15218W        W87533  26.715  17.355  13.280
15219W        W87534  34.821  29.205   2.635
15220W        W87535  21.848  32.984  14.365
15221W        W87536  23.520  35.973  14.488
15222W        W87537  21.313   0.386  13.842
15223W        W87538   0.954  42.401  14.443
15224W        W87539   0.496  12.251   3.685
15225W        W87540  23.614   1.197   1.032
15226W        W87541  40.527  44.002  11.079
15227W        W87542   1.663  19.482  10.776
15228W        W87543  19.348  22.153   4.130
15229W        W87544  18.706  22.059   2.904
15230W        W87545  39.063  21.661   3.179
15231W        W87546   3.974   8.840   0.455
15232W        W87547  32.706  32.133   0.322
15233W        W87548  16.630   1.048  13.853
15234W        W87549  39.857  44.125  12.599
15235W        W87550  14.171  41.973  13.797
15236W        W87551   2.042  13.306   4.749
15237W        W87552  23.547  16.437  10.891
15238W        W87553  23.289  29.234   2.595
15239W        W87554  41.491  35.177   0.486
15240W        W87555  43.794  35.026  13.550
15241W        W87556  11.124  22.566  13.094
15242W        W87557  20.188   4.891   5.009
15243W        W87558   2.318  19.100   1.516
15244W        W87559  30.100  42.340   1.026
15245W        W87560   1.391  38.511  12.425
15246W        W87561  43.548  41.305   3.806
15247W        W87562  13.393  17.618   4.530
15248W        W87563  39.357  16.709   4.159
15249W        W87564  42.094  32.929   1.899
15250W        W87565  14.049  32.424   4.129
15251W        W87566  11.147  25.360   3.391
15252W        W87567  15.101   7.690   1.237
15253W        W87568  30.723  41.556  11.109
15254W        W87569  17.623  28.168   1.056
15255W        W87570  13.853  42.939   1.241
15256W        W87571  34.404   5.578  14.654
15257W        W87572  32.968   9.105  11.568
15258W        W87573  25.030  17.074   0.446
15259W        W87574  32.179   4.852   0.032
15260W        W87575  18.576  38.517  11.889
15261W        W87576  37.501  43.154   0.839
15262W        W87577  44.679  11.349  11.372
15263W        W87578  33.551  27.633  12.270
15264W        W87579  42.296  31.951   3.973
15265W        W87580  15.810  16.743   4.979
15266W        W87581  11.051  37.310   3.317
15267W        W87582  13.255  23.817   3.264
15268W        W87583  15.220  17.145   2.183
15269W        W87584  29.620  11.640  13.445
15270W        W87585  40.903   3.431  13.397
15271W        W87586  38.779  27.291  12.447
15272W        W87587  11.729   4.389   1.500
15273W        W87588  38.957  12.845  13.527
15274W        W87589  10.448  18.991  13.007
15275W        W87590  31.878   8.488   2.244
15276W        W87591  14.849  29.126  14.944
15277W        W87592  25.060  25.400   3.617
15278W        W87593  37.565  17.763   1.229
15279W        W87594  39.481   8.930   0.788
15280W        W87595  15.790   2.922  13.024
15281W        W87596   9.714  16.901   5.214
15282W        W87597  23.654  31.459   2.140
15283W        W87598   9.336  31.936   4.524
15284W        W87599  10.392  36.986   0.814
15285W        W87600  44.437   1.739  11.681
15286W        W87601  26.896  26.435   0.364
15287W        W87602  44.755  22.269  14.198
15288W        W87603  20.215  20.350   0.763
15289W        W87604  11.139  18.069   1.966
15290W        W87605  32.977  10.875  12.050
15291W        W87606   8.340  20.568   4.562
15292W        W87607   6.356  19.495   2.936
15293W        W87608   9.298   3.664  12.005
15294W        W87609  30.414  28.202   4.587
15295W        W87610  26.157  22.993   1.370
15296W        W87611  21.630   6.863  14.091
15297W        W87612  23.582   7.722   0.753
15298W        W87613  36.998   4.201  12.999
15299W        W87614  27.216  30.149   0.058
15300W        W87615  18.934  22.996  12.413
15301W        W87616  34.862  33.659   3.680
15302W        W87617   5.131   0.362   0.905
15303W        W87618  37.147  36.931   3.434
15304W        W87619  38.265  26.851  14.379
15305W        W87620  22.122  41.302  12.939
15306W        W87621  34.411  20.284  14.538
15307W        W87622  14.800  22.064  11.953
15308W        W87623   5.099  40.937   2.299
15309W        W87624  29.969  44.682  12.562
15310W        W87625  40.086  40.587  14.333
15311W        W87626  21.340   6.115  11.572
15312W        W87627  26.954   3.747   4.414
15313W        W87628  40.267  31.719   2.338
15314W        W87629  32.476  35.108   2.278
15315W        W87630  12.237   0.541   3.218
15316W        W87631   0.701  26.439  12.557
15317W        W87632  10.268  14.676   2.673
15318W        W87633  41.613  27.892   1.855
15319W        W87634   8.123  37.337   1.833
15320W        W87635   1.437  13.988  14.460
15321W        W87636  18.077  21.015  14.347
15322W        W87637  31.869  14.682   3.001
15323W        W87638  38.989  10.681   5.093
15324W        W87639   2.236  11.043   1.713
15325W        W87640   4.274   6.199  11.388
15326W        W87641   6.448  29.872   4.680
15327W        W87642   7.872   6.441   2.471
15328W        W87643  10.853  39.503   2.175
15329W        W87644  32.535  20.160  10.816
15330W        W87645  28.880  14.885   1.837
15331W        W87646  35.940  39.808  13.487
15332W        W87647  31.892  39.396  13.313
15333W        W87648   6.715  25.600   4.711
15334W        W87649   1.486  33.191   2.409
15335W        W87650  22.221  36.506  13.631
15336W        W87651  26.001  15.912   0.679
15337W        W87652  22.806   6.500   0.956
15338W        W87653  32.560  19.296  11.405
15339W        W87654   3.004   7.952   3.114
15340W        W87655  30.450  17.083  10.788
15341W        W87656  25.611  17.112  13.438
15342W        W87657  21.622  22.998  14.000
15343W        W87658   4.214  13.332  14.002
15344W        W87659  36.559   6.313   4.357
15345W        W87660  10.255  35.846   3.799
15346W        W87661  38.950  22.246   4.898
15347W        W87662   9.678  15.255  11.451
15348W        W87663  38.546  41.914  14.443
15349W        W87664   1.656  17.247  10.735
15350W        W87665   6.113   6.664   3.443
15351W        W87666   5.722  41.307  13.861
15352W        W87667   5.134  41.075  14.906
15353W        W87668   9.391  37.503   4.373
15354W        W87669   1.987  41.232  13.253
15355W        W87670  27.541   6.622   9.839
15356W        W87671   3.257  32.638  14.857
15357W        W87672  40.945  37.791  10.589
15358W        W87673  18.206   0.456   0.364
15359W        W87674  40.578  37.399   1.667
15360W        W87675  44.286   5.426   4.689
15361W        W87676   7.997  29.503  11.364
15362W        W87677  30.915   5.304   2.217
15363W        W87678  44.882  20.074  14.336
15364W        W87679  12.096  44.618  10.984
15365W        W87680  31.120  21.801  10.421
15366W        W87681  34.632   2.046   2.888
15367W        W87682  40.053  37.380   1.388
15368W        W87683   7.666  31.592   3.287
15369W        W87684  42.954  20.603   2.431
15370W        W87685  19.467  40.246   5.435
15371W        W87686  44.015  31.140  12.076
15372W        W87687  10.574  41.271  10.673
15373W        W87688  33.570  30.231   3.310
15374W        W87689   0.820   7.474   4.932
15375W        W87690  30.967  31.055  13.954
15376W        W87691   1.523  41.610   4.871
15377W        W87692  28.707  41.219  12.686
15378W        W87693   6.304   9.898  10.789
15379W        W87694   2.807  38.884   2.224
15380W        W87695  16.313  42.434  12.446
15381W        W87696  41.048  37.655  14.142
15382W        W87697  42.442  22.005  13.426
15383W        W87698  38.332   3.391   2.650
15384W        W87699  32.928  18.030   4.268
15385W        W87700  11.367  22.552   1.314
15386W        W87701  25.412  43.948  10.422
15387W        W87702   1.485  38.508  14.941
15388W        W87703  17.298  26.185   0.797
15389W        W87704   5.688   1.800  12.787
15390W        W87705   0.245  10.618   3.614
15391W        W87706   5.660  28.042   3.335
15392W        W87707  44.181  26.619  13.977
15393W        W87708  23.723  27.324   3.439
15394W        W87709  43.021  31.388   0.480
15395W        W87710  22.030  25.400   0.676
15396W        W87711  29.574  10.613  13.398
15397W        W87712  12.208   5.944   3.197
15398W        W87713  26.513  41.535  14.485
15399W        W87714  36.059  19.182   2.087
15400W        W87715  43.684  41.867  11.225
15401W        W87716  31.577  16.124  13.360
15402W        W87717  37.871   3.032   1.910
15403W        W87718  34.535  29.444  13.926
15404W        W87719   1.358  32.673   3.348
15405W        W87720  22.804  17.551  14.900
15406W        W87721  30.976  24.629  13.949
15407W        W87722  44.755  12.104  11.049
15408W        W87723  27.450  10.779  14.122
15409W        W87724  26.131  38.846   0.482
15410W        W87725  33.578  10.801  10.587
15411W        W87726  32.568   1.695  10.720
15412W        W87727  14.522  35.352  10.742
15413W        W87728  39.510   1.735  14.378
15414W        W87729  38.403  44.415   3.657
15415W        W87730   9.868   9.712  11.127
15416W        W87731  26.715  38.810  11.644
15417W        W87732   6.509  16.072  13.397
15418W        W87733  32.948   0.510   4.782
15419W        W87734  20.629  16.170   1.354
15420W        W87735  26.564  38.528  13.043
15421W        W87736  26.044  23.763  10.274
15422W        W87737  43.654  23.208  10.494
15423W        W87738  21.982  40.576  12.178
15424W        W87739  15.262  29.095   0.281
15425W        W87740  14.961  13.206   4.672
15426W        W87741  28.106  39.375   0.764
15427W        W87742   7.420  40.203   4.235
15428W        W87743  29.009  24.223   0.281
15429W        W87744  44.120   2.014   1.886
15430W        W87745  44.621   5.833   3.940
15431W        W87746  20.733   1.500  13.429
15432W        W87747  35.268  37.011   2.832
15433W        W87748  27.548   1.289  14.406
15434W        W87749  42.359  35.074   1.207
15435W        W87750  17.798  27.135   4.803
15436W        W87751  44.974   8.313   1.936
15437W        W87752  22.474  44.754  13.829
15438W        W87753  27.021  15.312   0.898
15439W        W87754  42.249  24.188   4.529
15440W        W87755  14.874  15.534  12.175
15441W        W87756  23.330   6.508  10.609
15442W        W87757  23.841  23.629   3.390
15443W        W87758  12.873  28.620  10.505
15444W        W87759  41.309  43.836   3.756
15445W        W87760  25.591  40.996   0.428
15446W        W87761  38.752  13.741   1.322
15447W        W87762  42.814  28.648  13.561
15448W        W87763  16.145   0.410  12.210
15449W        W87764  42.408  20.941  14.534
15450W        W87765  30.541  24.756  12.832
15451W        W87766  22.045   8.462  12.345
15452W        W87767   8.162   3.285   2.334
15453W        W87768  42.888  41.901   1.740
15454W        W87769  35.998   6.388  10.725
15455W        W87770  37.460  41.539  12.659
15456W        W87771   8.920  44.302  13.472
15457W        W87772  44.290   7.897   3.783
15458W        W87773  40.973  29.185   0.246
15459W        W87774  16.774  15.427  11.015
15460W        W87775  37.865   6.499   0.029
15461W        W87776  39.926   7.244  12.551
15462W        W87777  13.955  11.135  14.173
15463W        W87778  23.553   9.611   4.320
15464W        W87779  40.522  34.481  11.651
15465W        W87780  35.544  16.151  11.515
15466W        W87781  41.392  21.117   0.300
15467W        W87782  41.712  23.332   4.537
15468W        W87783  39.931  40.367  10.322
15469W        W87784  23.145  31.238  12.907
15470W        W87785  37.062  23.313  14.950
15471W        W87786  20.503  15.376   3.632
15472W        W87787  34.918  29.074  12.620
15473W        W87788  22.934  11.652  13.937
15474W        W87789  43.152   1.763   3.793
15475W        W87790  40.310  19.783  14.535
15476W        W87791  12.323  24.966  11.952
15477W        W87792  39.328  18.307  12.544
15478W        W87793  16.075   6.671   3.226
15479W        W87794  28.562  35.280   2.250
15480W        W87795  10.332  31.340   3.684
15481W        W87796  10.854  11.667   2.698
15482W        W87797  40.574   8.424  13.530
15483W        W87798  18.668  14.284  11.201
15484W        W87799  10.009   4.273   2.179
15485W        W87800   1.940  33.350   2.086
15486W        W87801   4.137  27.071   3.431
15487W        W87802  36.354  10.216   3.624
15488W        W87803  42.227  17.308  12.477
15489W        W87804  12.804  19.129  14.948
15490W        W87805  31.503   9.903  11.534
15491W        W87806  21.487  10.857  10.654
15492W        W87807  21.441  44.302  14.291
15493W        W87808  34.541   9.713  10.836
15494W        W87809  34.132  37.483   4.056
15495W        W87810  38.798   6.832   2.261
15496W        W87811  23.631  42.932  13.289
15497W        W87812  32.952  42.810   3.108
15498W        W87813  22.602  27.844   2.708
15499W        W87814  28.124   5.709   5.279
15500W        W87815  39.779  31.053   1.392
15501W        W87816  22.687  13.120   4.281
15502W        W87817  18.776  34.679  13.884
15503W        W87818   8.305   7.176  10.552
15504W        W87819  30.908  25.970  11.885
15505W        W87820   0.796   0.159   1.278
15506W        W87821   5.935  30.492  12.235
15507W        W87822  23.589   8.677  11.227
15508W        W87823  43.025  42.926   1.849
15509W        W87824  14.016  38.088   0.293
15510W        W87825  41.769  11.716  10.209
15511W        W87826   9.732   8.733   4.868
15512W        W87827  43.382  36.374   0.266
15513W        W87828  16.157  12.137  14.563
15514W        W87829  17.308  30.897   5.252
15515W        W87830   8.381  42.441  11.580
15516W        W87831  26.762   2.822   0.781
15517W        W87832  10.584   9.138  13.763
15518W        W87833  37.907  34.180   3.728
15519W        W87834   2.273  26.658   0.749
15520W        W87835   0.998  39.849   3.614
15521W        W87836  34.104  41.259   4.084
15522W        W87837  25.494  38.401  12.819
15523W        W87838   3.888   2.411  11.540
15524W        W87839  31.473  28.552  14.802
15525W        W87840  26.407  26.165   2.997
15526W        W87841  28.584  11.699  14.968
15527W        W87842  13.161   0.938  11.939
15528W        W87843  34.546  26.488   3.676
15529W        W87844  37.764  26.526   0.035
15530W        W87845  42.794  14.570   3.630
15531W        W87846  30.362   9.693  10.765
15532W        W87847  23.881  25.617  14.737
15533W        W87848  29.974  14.881  14.732
15534W        W87849  22.566  26.174  11.704
15535W        W87850  22.585  19.136  11.115
15536W        W87851  17.592   6.257   4.033
15537W        W87852   4.666  34.492  12.967
15538W        W87853  40.923  40.737  14.024
15539W        W87854  29.511  15.586  14.691
15540W        W87855  15.744  24.729   1.581
15541W        W87856  26.796  32.182  10.190
15542W        W87857  35.417  19.248  13.047
15543W        W87858  40.986  29.049  14.272
15544W        W87859  44.529   1.420  14.267
15545W        W87860   6.357  35.107  11.540
15546W        W87861  34.621  28.019   3.425
15547W        W87862  11.059   8.737   2.313
15548W        W87863  10.865  25.857  14.059
15549W        W87864  32.056   0.096  14.492
15550W        W87865  43.317  16.315  12.096
15551W        W87866  39.938   3.720   1.450
15552W        W87867  44.674  11.592  10.747
15553W        W87868  30.915  29.274  11.119
15554W        W87869  21.975  43.836  13.558
15555W        W87870  42.552   2.870  12.396
15556W        W87871   9.639  28.833   1.749
15557W        W87872  32.078  15.015  12.109
15558W        W87873  13.826  21.541  12.425
15559W        W87874  41.186  16.053  14.727
15560W        W87875  41.714  18.993   4.420
15561W        W87876  13.731  20.294   1.223
15562W        W87877  28.251  29.139  13.497
15563W        W87878  37.597  41.910  10.884
15564W        W87879  12.180  35.857   0.196
15565W        W87880  33.181  27.512  13.348
15566W        W87881  21.721   4.523   3.371
15567W        W87882  32.927   6.463   0.909
15568W        W87883  26.293  43.764   4.269
15569W        W87884   6.383   0.680  10.291
15570W        W87885  36.505  44.180   0.507
15571W        W87886   3.619  33.946   0.260
15572W        W87887  12.745  21.710  11.896
15573W        W87888   6.898  35.137   3.806
15574W        W87889   4.447   1.443   3.740
15575W        W87890   4.278  40.693   1.866
15576W        W87891  28.707  34.454   2.864
15577W        W87892   3.693  39.937   0.508
15578W        W87893  15.930  39.064   5.492
15579W        W87894  35.324  43.722  14.769
15580W        W87895  24.603  14.791   1.886
15581W        W87896  26.618  41.986  12.687
15582W        W87897   3.631  29.528   0.885
15583W        W87898   7.323  23.083   3.316
15584W        W87899   6.495  37.363  11.250
15585W        W87900  27.140  37.390   2.063
15586W        W87901  41.751  21.569   0.914
15587W        W87902  25.216  27.557   1.614
15588W        W87903  25.102  33.627  11.893
15589W        W87904  26.936  32.146   2.373
15590W        W87905  16.191  35.688   0.982
15591W        W87906  17.710  38.884   2.708
15592W        W87907  41.060   9.254   4.389
15593W        W87908  25.766  41.204  10.372
15594W        W87909  16.582  33.409   3.436
15595W        W87910  20.959   7.174   2.270
15596W        W87911   6.146  29.522  11.925
15597W        W87912  10.596  24.089  13.305
15598W        W87913   1.321  24.131   3.296
15599W        W87914  16.338   4.665  14.024
15600W        W87915  21.283  13.027  11.640
15601W        W87916  31.883  44.088  14.352
15602W        W87917  13.433  14.333  13.340
15603W        W87918  23.205   2.774  14.395
15604W        W87919  38.986   7.264  10.740
15605W        W87920  13.277  13.141   2.705
15606W        W87921  38.270   3.689  12.399
15607W        W87922  32.481  27.574   3.389
15608W        W87923  23.001  33.920  11.129
15609W        W87924   0.053  18.166  11.986
15610W        W87925  33.910  39.444  11.850
15611W        W87926  41.831  21.580  14.433
15612W        W87927  27.937  28.510   0.245
15613W        W87928  20.131   6.231   4.521
15614W        W87929  30.648  32.887  14.017
15615W        W87930   1.244  28.469   4.593
15616W        W87931  15.729  18.845  13.773
15617W        W87932  15.626  25.311  11.063
15618W        W87933  34.920  34.524  14.954
15619W        W87934  19.865  11.124   0.458
15620W        W87935  19.488  27.321   4.163
15621W        W87936  40.870   7.301  12.819
15622W        W87937  30.418  27.399   3.152
15623W        W87938  37.168  36.839   2.419
15624W        W87939  23.606  44.141  11.254
15625W        W87940  37.484  18.750   0.342
15626W        W87941  42.734  43.574   2.883
15627W        W87942  10.288  24.723   1.691
15628W        W87943  33.442  17.269   1.903
15629W        W87944  16.786  30.600   5.122
15630W        W87945  38.857  43.182   0.645
15631W        W87946  41.765   0.359  11.065
15632W        W87947  35.101  28.162  12.867
15633W        W87948  38.977  15.245   0.691
15634W        W87949  23.713  22.495   4.105
15635W        W87950  32.873   4.165  11.323
15636W        W87951  30.066  14.229   0.956
15637W        W87952   6.838  40.609   3.605
15638W        W87953  42.909  11.772  12.484
15639W        W87954  36.615  43.429  11.220
15640W        W87955  41.750  29.869   2.717
15641W        W87956   8.487  33.106   2.334
15642W        W87957  13.690  25.256   3.895
15643W        W87958  25.967   5.257   1.829
15644W        W87959  29.180  33.105  13.965
15645W        W87960  32.440  44.307  12.865
15646W        W87961  38.363  27.085   0.915
15647W        W87962  29.462  28.109   4.159
15648W        W87963  25.467  35.804   2.169
15649W        W87964   0.760  27.679   2.226
15650W        W87965  18.745  22.633   1.213
15651W        W87966  37.397  22.069   2.507
15652W        W87967  32.581  17.350   3.381
15653W        W87968   0.882   9.510   2.108
15654W        W87969  42.854  43.836  11.955
15655W        W87970  35.849  17.885  13.423
15656W        W87971  15.791   5.723   3.388
15657W        W87972  12.255  25.292  12.977
15658W        W87973  39.274  35.902  13.414
15659W        W87974  20.204   2.469  13.123
15660W        W87975  16.005   3.391   0.292
15661W        W87976  43.234  37.841  11.476
15662W        W87977  38.161  25.429  14.470
15663W        W87978  27.386  15.678  12.704
15664W        W87979  41.570   0.745   3.865
15665W        W87980   0.609  25.570   1.079
15666W        W87981  18.554  11.248  10.519
15667W        W87982  11.181  43.700  10.920
15668W        W87983  15.389  26.025   4.672
15669W        W87984  33.158  10.655  12.493
15670W        W87985   8.575  40.397  13.492
15671W        W87986  10.653  16.139  10.623
15672W        W87987  30.146  42.840   2.201
15673W        W87988  12.970  29.842  12.436
15674W        W87989  16.269   5.649   3.225
15675W        W87990  19.610   1.374  14.017
15676W        W87991  16.074  12.368   3.665
15677W        W87992  13.785  11.900   4.637
15678W        W87993  41.701  12.062   3.273
15679W        W87994   4.782  33.715   4.604
15680W        W87995  28.235  18.612   1.199
15681W        W87996  21.188   4.954  14.919
15682W        W87997   6.361  20.252   1.911
15683W        W87998  38.363   3.642  11.053
15684W        W87999  30.929   3.920   3.122
15685W        W88000  38.408  34.988   4.134
15686W        W88001   7.436  13.092   4.880
15687W        W88002  20.740  11.728   3.803
15688W        W88003  11.361  29.985  11.426
15689W        W88004  44.114   5.863   0.290
15690W        W88005  33.867  20.681   1.242
15691W        W88006  34.591   7.899   4.061
15692W        W88007  42.175  25.549  14.206
15693W        W88008   4.322   0.672  12.989
15694W        W88009  38.194  14.349   4.200
15695W        W88010  29.202  35.771  12.595
15696W        W88011  25.677  10.876  13.910
15697W        W88012  15.738  34.323  13.030
15698W        W88013  20.656  13.540   2.042
15699W        W88014  42.676  37.484   4.573
15700W        W88015  32.561  38.758   2.888
15701W        W88016  39.269  27.899   0.923
15702W        W88017  18.878   9.235   4.314
15703W        W88018   3.888  37.022   1.356
15704W        W88019  44.191  14.023  10.723
15705W        W88020  33.420  22.260   3.273
15706W        W88021  39.465  22.000  12.565
15707W        W88022  11.023  21.159   1.327
15708W        W88023  15.835  41.920  14.334
15709W        W88024   4.591  13.324   3.995
15710W        W88025  40.428   5.452   4.248
15711W        W88026  11.341  40.115  13.912
15712W        W88027  16.152  29.790   5.252
15713W        W88028  26.244  32.598   0.751
15714W        W88029   8.851   2.761   3.923
15715W        W88030   3.809   7.500   0.380
15716W        W88031  23.901   9.516  12.877
15717W        W88032  18.156   4.386  12.025
15718W        W88033   9.337  44.755   3.517
15719W        W88034  39.999  36.761   2.629
15720W        W88035   5.137  15.574   1.032
15721W        W88036  36.528  39.012  10.803
15722W        W88037  19.208  10.543  12.527
15723W        W88038  44.758   3.425  12.094
15724W        W88039  12.107   5.595   0.860
15725W        W88040   7.227  25.727  10.774
15726W        W88041  14.780  14.997   3.860
15727W        W88042   4.850   2.466  13.914
15728W        W88043  10.710  40.166  12.954
15729W        W88044   7.336  16.084   1.363
15730W        W88045  25.763  34.377   5.582
15731W        W88046  18.212   7.185  10.205
15732W        W88047  12.910  27.441  13.039
15733W        W88048  27.494  40.045   3.096
15734W        W88049   0.480  12.643  14.459
15735W        W88050  36.181  40.593  13.315
15736W        W88051  39.402   2.775   0.496
15737W        W88052  22.954  11.444  14.930
15738W        W88053  25.436  24.582   2.838
15739W        W88054   5.445  25.649   3.865
15740W        W88055  38.257   5.288  11.631
15741W        W88056   9.862   3.867  14.512
15742W        W88057   7.041  20.922  12.430
15743W        W88058  38.626  22.623  10.959
15744W        W88059  10.079  14.051   0.872
15745W        W88060  44.340   4.306  13.803
15746W        W88061  44.023  41.469   1.262
15747W        W88062  36.346  44.331  13.385
15748W        W88063  25.300  39.007  13.949
15749W        W88064  17.691  18.834  14.882
15750W        W88065   2.242  20.725  14.485
15751W        W88066  38.512  30.621   4.949
15752W        W88067  12.701  42.009   2.717
15753W        W88068   4.721   3.814   2.085
15754W        W88069  30.174  37.453  13.384
15755W        W88070  24.274   4.724  12.877
15756W        W88071   3.328  16.022   4.595
15757W        W88072   8.654  38.461   3.679
15758W        W88073  28.752  34.916  14.367
15759W        W88074  12.114  36.348  10.343
15760W        W88075  18.281   5.342   3.868
15761W        W88076  29.979  26.076   0.657
15762W        W88077  10.585   3.469  10.371
15763W        W88078   7.182   5.927  14.753
15764W        W88079   5.239  20.804  11.003
15765W        W88080  22.170  36.100  14.834
15766W        W88081  16.737  24.469   4.759
15767W        W88082  19.162   7.901   1.174
15768W        W88083  17.204   6.626   4.069
15769W        W88084  30.944  28.165  10.781
15770W        W88085  35.695  25.072  12.429
15771W        W88086  11.256   9.621  13.278
15772W        W88087   6.449  30.505   2.661
15773W        W88088   2.263  40.812  13.066
15774W        W88089  12.194  15.540   4.672
15775W        W88090  37.206  15.217   2.399
15776W        W88091  33.422  43.916   4.423
15777W        W88092   4.357   1.567  11.542
15778W        W88093  36.487  35.917  13.843
15779W        W88094  34.443   0.324   3.303
15780W        W88095  29.935   3.450   1.723
15781W        W88096  10.627  13.724  13.446
15782W        W88097   9.371  42.737  12.373
15783W        W88098  27.303   6.397   5.676
15784W        W88099   2.203  33.326  13.775
15785W        W88100  18.081  37.620   1.474
15786W        W88101  27.888  38.412  13.752
15787W        W88102  11.634  23.969  12.054
15788W        W88103  35.345  10.775  12.955
15789W        W88104  23.042  29.768   1.928
15790W        W88105  10.863  19.299  13.433
15791W        W88106   4.869   6.650   2.789
15792W        W88107  21.185  18.549  12.565
15793W        W88108  29.149  42.260  11.395
15794W        W88109  37.992  13.959   0.043
15795W        W88110  44.268   6.679  12.828
15796W        W88111   6.858  39.319  12.472
15797W        W88112  26.128  43.031  11.528
15798W        W88113  31.193  24.179  12.201
15799W        W88114  39.476   6.005  11.445
15800W        W88115  42.247  15.774  12.456
15801W        W88116  25.743   2.077   0.208
15802W        W88117  29.155  39.040   1.907
15803W        W88118  42.526   8.224  12.432
15804W        W88119  29.623  41.443  10.229
15805W        W88120   0.266  10.452   2.365
15806W        W88121   6.909   8.714  10.619
15807W        W88122  31.046   1.404  11.559
15808W        W88123   8.159  24.670   4.593
15809W        W88124  30.122  21.789   3.638
15810W        W88125  29.095  10.564  13.577
15811W        W88126  34.969   3.312  10.439
15812W        W88127  12.220   2.258   4.800
15813W        W88128  12.056  40.490   3.708
15814W        W88129  43.956  44.241   4.132
15815W        W88130  11.303  10.080  13.021
15816W        W88131  14.814   9.378  10.966
15817W        W88132  17.233  20.298  14.378
15818W        W88133  18.688  43.830   3.315
15819W        W88134  32.058  43.350  11.052
15820W        W88135  17.087  30.439   1.887
15821W        W88136  42.254   6.884  13.713
15822W        W88137   3.390  11.202   4.437
15823W        W88138  31.462  29.476  10.755
15824W        W88139  39.151  21.198  14.444
15825W        W88140  37.604   4.731  13.350
15826W        W88141  30.086  32.691   2.621
15827W        W88142  22.267  16.248  11.773
15828W        W88143   0.993  26.039  10.658
15829W        W88144  40.429  29.439   0.873
15830W        W88145  35.473  42.375  13.085
15831W        W88146  15.786  19.846  10.616
15832W        W88147   0.940  21.510   4.466
15833W        W88148   9.681  35.996   1.224
15834W        W88149  27.679  40.395   4.562
15835W        W88150  21.333   5.456  11.199
15836W        W88151  16.007  44.164  10.268
15837W        W88152  40.740  18.464   4.741
15838W        W88153  23.334  33.134   0.411
15839W        W88154  34.845  13.906  12.955
15840W        W88155  30.982   8.762  14.287
15841W        W88156  28.265   4.461   3.073
15842W        W88157  38.446   0.780  13.967
15843W        W88158  20.288  42.786   3.560
15844W        W88159  34.420  25.405  11.245
15845W        W88160  34.098   1.728  10.648
15846W        W88161   5.378   8.453   1.916
15847W        W88162  11.321  12.394   2.906
15848W        W88163  16.485  32.511  11.096
15849W        W88164  31.164  21.757  14.440
15850W        W88165  21.596  33.439  12.429
15851W        W88166   3.022  25.906  11.949
15852W        W88167  16.280  20.185   3.216
15853W        W88168  25.516  27.731  13.963
15854W        W88169  14.274   0.810   0.339
15855W        W88170  19.544   5.618  11.628
15856W        W88171   2.515  30.705   4.048
15857W        W88172  21.180  11.262  12.643
15858W        W88173  31.320  26.512  13.922
15859W        W88174  16.754  29.589  11.102
15860W        W88175   0.409  42.431   0.741
15861W        W88176  43.475  32.343  13.558
15862W        W88177  37.644  34.654  10.930
15863W        W88178  24.837  16.756   2.237
15864W        W88179  20.163  25.992  14.238
15865W        W88180  38.136  41.306   1.791
15866W        W88181  40.775  10.410  14.490
15867W        W88182  42.071  28.081  12.483
15868W        W88183  30.940   9.136  12.487
15869W        W88184  10.402  27.249   2.071
15870W        W88185   8.341  33.863   1.380
15871W        W88186   7.614  29.131   2.556
15872W        W88187  39.787  34.460   2.716
15873W        W88188  29.123   5.861   2.864
15874W        W88189  14.909   1.722  14.572
15875W        W88190  38.316  16.269  13.840
15876W        W88191  38.307  42.323   1.459
15877W        W88192  33.960  39.663   4.615
15878W        W88193   2.335  27.745   4.098
15879W        W88194  28.450   8.980  12.557
15880W        W88195  35.329  14.212   0.383
15881W        W88196  37.459   2.674   3.105
15882W        W88197  20.764  40.797   4.173
15883W        W88198  37.802  29.160   3.103
15884W        W88199  18.204  14.753   3.424
15885W        W88200   7.779  13.700   1.358
15886W        W88201  30.349   5.554  12.614
15887W        W88202  27.282  33.735  11.924
15888W        W88203  27.105  11.099   1.882
15889W        W88204   6.233  31.604   1.136
15890W        W88205   2.044  10.755   4.143
15891W        W88206  10.646   2.265  13.955
15892W        W88207  13.292  10.424  13.413
15893W        W88208  10.134   0.488   0.534
15894W        W88209  35.616   6.286   0.679
15895W        W88210  19.330  21.152   4.562
15896W        W88211  25.664  41.788   1.795
15897W        W88212  19.657   9.692   1.338
15898W        W88213  21.653   5.897   0.764
15899W        W88214  15.267  23.622   3.468
15900W        W88215  13.752  17.350  13.810
15901W        W88216  13.256  17.354   3.132
15902W        W88217  42.453  28.456   1.704
15903W        W88218  32.578  39.688   2.720
15904W        W88219  15.624  41.404  14.043
15905W        W88220  11.971  14.228  13.468
15906W        W88221  14.738  15.753   0.429
15907W        W88222  30.871  37.713  12.492
15908W        W88223   6.277  41.501   0.873
15909W        W88224  19.690   0.856   0.664
15910W        W88225  37.022   4.494  11.537
15911W        W88226  40.605   3.292   3.956
15912W        W88227  39.791  39.276   4.159
15913W        W88228  33.071  34.039   5.029
15914W        W88229   5.415   6.175   4.569
15915W        W88230   2.738   7.164   1.780
15916W        W88231  30.311  24.528  12.435
15917W        W88232  25.844  28.123  11.603
15918W        W88233  43.400  25.105   4.035
15919W        W88234   9.120   7.224  13.410
15920W        W88235  39.768  29.053  11.926
15921W        W88236  35.911  12.604  11.077
15922W        W88237  18.823   3.492   0.776
15923W        W88238  30.169  25.124  11.967
15924W        W88239  27.538  11.132  11.609
15925W        W88240  17.284  40.066   3.606
15926W        W88241  23.230   7.547  12.991
15927W        W88242  27.246  15.732   1.852
15928W        W88243  20.077  43.929  14.434
15929W        W88244   4.291  11.619  13.096
15930W        W88245  44.491  18.607   4.186
15931W        W88246  29.896   2.994   2.675
15932W        W88247  34.569  33.841  12.599
15933W        W88248   3.755  35.614   1.936
15934W        W88249  25.454  44.506  14.347
15935W        W88250  44.460  12.471  13.106
15936W        W88251  30.076   7.685   0.660
15937W        W88252  44.796  14.759  12.112
15938W        W88253   6.789   5.454  10.750
15939W        W88254  38.610   0.531   1.674
15940W        W88255  38.005  26.969   0.150
15941W        W88256  33.914  39.497   2.337
15942W        W88257  28.222  31.513   4.174
15943W        W88258  13.793  43.307  12.556
15944W        W88259  21.606  17.196   3.212
15945W        W88260  24.433  28.251   2.781
15946W        W88261  31.702  28.701  12.027
15947W        W88262   4.557  43.957   2.679
15948W        W88263  17.768   9.850   3.699
15949W        W88264  16.283  29.816  12.481
15950W        W88265  22.442   2.999  11.968
15951W        W88266  41.075   6.455   2.357
15952W        W88267  37.328  10.935   0.630
15953W        W88268  30.654   3.994  11.127
15954W        W88269  36.398  33.688   0.857
15955W        W88270  10.806  31.115   3.722
15956W        W88271  43.133  18.117  11.899
15957W        W88272  11.191  11.619   3.379
15958W        W88273   9.324  42.496  13.096
15959W        W88274  20.099  20.062   4.893
15960W        W88275  39.610   3.493   3.207
15961W        W88276  44.356   6.418  14.453
15962W        W88277   6.269  21.152   4.142
15963W        W88278   0.415  44.230   1.672
15964W        W88279  16.046  44.450   2.743
15965W        W88280  20.146  29.663   4.584
15966W        W88281  21.526   8.597   2.851
15967W        W88282  40.499  26.004   0.268
15968W        W88283  27.865  16.742   3.246
15969W        W88284  30.483  26.930   4.166
15970W        W88285   0.365  35.620   2.736
15971W        W88286  17.598  13.122   4.143
15972W        W88287   2.781  10.870  12.781
15973W        W88288  41.319  16.263  10.681
15974W        W88289   4.260  24.124  10.655
15975W        W88290   8.371   9.891  13.994
15976W        W88291  10.138  44.804  11.455
15977W        W88292   0.813  16.017   1.906
15978W        W88293  35.921  24.803   0.741
15979W        W88294  43.171   5.578   2.768
15980W        W88295  38.151   5.071  12.519
15981W        W88296  37.383  37.818  10.740
15982W        W88297  15.700  27.987  14.452
15983W        W88298   6.074   1.467   3.151
15984W        W88299   1.332  27.474   1.433
15985W        W88300  10.890   6.290  12.123
15986W        W88301  18.525  36.368  10.972
15987W        W88302  29.586   8.555   3.349
15988W        W88303  27.477   3.897   5.093
15989W        W88304  14.385  39.472  14.451
15990W        W88305   4.235  23.261  13.788
15991W        W88306   1.874   9.489  11.152
15992W        W88307  18.214   2.294  14.303
15993W        W88308  29.367  12.052   4.837
15994W        W88309  28.316  26.616   4.223
15995W        W88310   9.609  32.613   0.788
15996W        W88311  23.958  16.732  13.865
15997W        W88312  43.440  13.907  10.629
15998W        W88313  27.848   1.985  13.961
15999W        W88314  37.471  21.671  11.143
16000W        W88315  38.968   1.391   3.402
16001W        W88316  22.573  20.548  10.889
16002W        W88317  11.655  11.354   2.183
16003W        W88318   1.390  17.642  14.291
16004W        W88319  37.028   6.465   4.577
16005W        W88320  10.713   9.307   3.312
16006W        W88321  38.811   5.927   9.900
16007W        W88322   2.353  42.742   1.309
16008W        W88323  16.201  42.037   1.196
16009W        W88324  12.178   0.934  14.893
16010W        W88325  27.898   2.404  11.114
16011W        W88326   6.779  26.531   1.723
16012W        W88327   4.988  12.755  12.923
16013W        W88328  41.643  12.194  14.320
16014W        W88329  40.826  16.601   1.849
16015W        W88330   2.280   2.422   3.985
16016W        W88331   3.301   7.683   0.308
16017W        W88332   4.490  32.866   1.216
16018W        W88333   5.299  32.140  13.537
16019W        W88334   0.329  37.316  10.816
16020W        W88335  41.737  29.130   0.781
16021W        W88336  31.462  36.192  12.073
16022W        W88337  32.403  22.608   2.804
16023W        W88338   6.332  11.215   0.986
16024W        W88339  36.281  34.287   1.790
16025W        W88340   0.878  37.618   2.901
16026W        W88341  33.161  18.049  13.361
16027W        W88342   5.480  26.642   1.983
16028W        W88343  40.479  29.468  14.927
16029W        W88344  21.361  11.319   4.842
16030W        W88345  38.352  32.515  13.334
16031W        W88346  34.487  24.767  12.084
16032W        W88347  19.230  16.732  14.497
16033W        W88348  33.987  30.059  11.300
16034W        W88349  31.333  39.401  11.641
16035W        W88350   8.194  36.520   4.172
16036W        W88351   4.213  18.948   3.066
16037W        W88352  17.842  13.065   1.509
16038W        W88353  11.131  40.482  13.575
16039W        W88354  33.026  16.867  11.578
16040W        W88355  26.082  23.980  11.595
16041W        W88356  37.568   5.289   2.273
16042W        W88357  35.529  34.999  12.063
16043W        W88358  10.253   3.369  11.855
16044W        W88359  34.162  11.657  14.695
16045W        W88360  23.204  31.656  13.787
16046W        W88361  25.511  34.116   2.895
16047W        W88362  35.067  40.664  14.012
16048W        W88363  31.888  28.019   2.239
16049W        W88364  29.027  23.036  14.002
16050W        W88365  30.083   2.405  13.742
16051W        W88366  25.419   0.128  11.081
16052W        W88367   4.925  16.941  13.376
16053W        W88368  37.815   5.458  13.395
16054W        W88369  17.871   7.776  14.278
16055W        W88370  11.309  17.543  11.645
16056W        W88371   0.875  29.000  10.661
16057W        W88372  40.869   4.436   3.095
16058W        W88373   3.962  19.219  14.018
16059W        W88374  11.623  37.768   1.439
16060W        W88375  27.441   1.224   0.315
16061W        W88376  37.866  19.567  13.493
16062W        W88377   2.053  34.847   3.888
16063W        W88378  22.103  30.583   0.337
16064W        W88379  38.022  26.845  12.796
16065W        W88380  29.352  12.527   4.097
16066W        W88381  23.477  33.605   2.778
16067W        W88382  43.693  30.950   3.796
16068W        W88383  21.777   1.926  14.106
16069W        W88384   9.639  18.726  10.607
16070W        W88385  16.543  22.517  13.935
16071W        W88386   8.818  23.446  11.593
16072W        W88387  33.409  11.693  11.034
16073W        W88388   3.868  16.019  12.071
16074W        W88389  41.620  30.251  14.733
16075W        W88390  43.676   3.998   3.372
16076W        W88391  20.284  33.822  11.260
16077W        W88392   9.315  13.293  14.509
16078W        W88393   7.626  44.387  12.174
16079W        W88394  31.069   7.830   1.155
16080W        W88395  40.315  29.219  14.004
16081W        W88396  41.476   3.871  10.570
16082W        W88397  16.055   7.687  12.589
16083W        W88398   2.789  44.212  13.572
16084W        W88399  16.777  38.898  12.898
16085W        W88400  40.729  22.826   2.770
16086W        W88401  31.328  24.626  12.488
16087W        W88402  38.840  42.374   1.419
16088W        W88403  42.099  35.875  11.760
16089W        W88404   4.016  32.436  12.278
16090W        W88405  10.794  38.851  13.466
16091W        W88406   7.736  20.033   3.486
16092W        W88407  18.796  21.526   3.773
16093W        W88408  26.738   5.290   1.236
16094W        W88409  18.607  17.825   0.847
16095W        W88410  24.028  42.320   1.303
16096W        W88411   0.015   9.803  11.542
16097W        W88412  24.255  19.690  13.437
16098W        W88413   0.964  38.358  11.089
16099W        W88414  29.268   7.223  11.330
16100W        W88415  13.860   3.972   0.921
16101W        W88416  42.545  36.590   3.802
16102W        W88417  43.789  22.234   2.190
16103W        W88418   4.973   4.927   4.624
16104W        W88419   5.525  40.567  11.078
16105W        W88420  10.725  13.996   3.157
16106W        W88421  10.285  32.799  12.972
16107W        W88422  15.543   2.703  11.526
16108W        W88423  25.104   6.335   3.381
16109W        W88424   8.978   5.740   3.871
16110W        W88425  33.538  24.680  10.698
16111W        W88426  17.644   7.150   2.433
16112W        W88427  31.855  15.149  10.484
16113W        W88428  29.227  40.903  13.844
16114W        W88429   9.355   2.930   3.806
16115W        W88430  19.011  34.543   2.299
16116W        W88431  16.749  17.309  10.818
16117W        W88432  11.354  37.280  14.108
16118W        W88433  36.349  25.579   0.926
16119W        W88434  22.822  11.242   3.182
16120W        W88435  17.710  30.563   5.054
16121W        W88436  40.459  30.852  13.018
16122W        W88437  44.805  15.742   9.900
16123W        W88438  31.526  11.273   4.530
16124W        W88439  10.216  12.307  11.136
16125W        W88440  25.986  26.854   4.623
16126W        W88441  13.964   9.078  14.241
16127W        W88442  20.331  37.668   3.344
16128W        W88443  15.222  21.946  13.576
16129W        W88444  22.560  15.916   0.727
16130W        W88445   0.076  44.271   4.743
16131W        W88446  33.943  36.987  13.269
16132W        W88447   6.352  10.051   3.129
16133W        W88448  27.488  26.281  11.106
16134W        W88449  31.112  29.166   2.219
16135W        W88450   7.219  41.843   1.843
16136W        W88451   9.796   1.694  11.380
16137W        W88452   3.331   8.022  14.875
16138W        W88453  44.939  24.127   3.684
16139W        W88454  22.425  27.085   0.596
16140W        W88455  10.828  11.223  14.790
16141W        W88456  18.010  19.212  10.346
16142W        W88457  37.163  25.109  10.581
16143W        W88458   5.483  22.954   1.886
16144W        W88459   9.273  22.193  10.545
16145W        W88460  28.220  37.739  10.727
16146W        W88461  34.154  20.048  14.153
16147W        W88462  10.720  24.088  12.047
16148W        W88463  17.225  21.717  12.567
16149W        W88464  19.240   4.971   3.653
16150W        W88465   4.439  17.081  13.453
16151W        W88466  42.587  28.120  12.497
16152W        W88467   0.674  11.385  10.646
16153W        W88468  17.526  36.647  11.075
16154W        W88469  42.566  15.474   2.254
16155W        W88470   4.684  39.949  11.639
16156W        W88471  40.931  26.534   3.273
16157W        W88472  39.971  20.241   1.155
16158W        W88473  14.927  25.944   0.428
16159W        W88474  15.764  38.407  12.590
16160W        W88475  42.063  40.462   1.378
16161W        W88476   3.235  41.513  14.024
16162W        W88477  25.052  41.208   1.462
16163W        W88478  37.112   2.742  12.427
16164W        W88479  14.121  19.203  12.798
16165W        W88480  35.939  29.290   3.439
16166W        W88481  32.506  16.186   2.347
16167W        W88482   2.861  34.833   2.635
16168W        W88483   6.428  42.056  10.749
16169W        W88484  38.036  43.041  14.114
16170W        W88485  35.530  44.357   2.870
16171W        W88486  32.576  20.716   3.525
16172W        W88487  18.830  27.028   4.587
16173W        W88488   1.689  44.417   0.968
16174W        W88489  32.619  44.841   0.854
16175W        W88490  31.425   0.386   2.008
16176W        W88491  38.598   5.703  14.946
16177W        W88492  21.173  19.122   1.511
16178W        W88493   5.921  18.159  14.123
16179W        W88494   7.566  10.260  14.876
16180W        W88495  13.086  34.393  14.529
16181W        W88496  30.536  31.078   3.914
16182W        W88497   8.775  41.901   4.381
16183W        W88498  21.779  33.287   3.227
16184W        W88499   4.892  28.508   2.077
16185W        W88500  41.750  32.164   2.288
16186W        W88501  31.492   1.250  13.274
16187W        W88502   3.005  25.934   3.727
16188W        W88503  17.586  18.142  11.123
16189W        W88504  21.521   9.683   1.169
16190W        W88505   8.003  43.332   3.801
16191W        W88506  44.735   8.044  11.884
16192W        W88507  37.606  28.495  13.447
16193W        W88508   4.329  14.937   1.826
16194W        W88509  15.063  23.592  11.649
16195W        W88510  25.573  39.479  10.592
16196W        W88511   7.988  42.013  12.507
16197W        W88512  18.332  30.952  13.170
16198W        W88513   8.140  41.527  12.704
16199W        W88514  28.148   7.916  13.350
16200W        W88515   5.392  14.565  12.048
16201W        W88516   2.190  37.765   0.917
16202W        W88517  22.510   3.380   4.590
16203W        W88518  31.782   0.910   5.040
16204W        W88519  33.953  25.203   3.812
16205W        W88520  11.904  37.359   4.146
16206W        W88521  43.913   2.968   1.861
16207W        W88522  24.100  21.755  11.563
16208W        W88523  14.248  19.733   1.848
16209W        W88524  14.310  22.242  10.703
16210W        W88525  24.942   1.859   3.862
16211W        W88526  41.773  25.019   2.343
16212W        W88527  23.289  18.468   4.130
16213W        W88528  28.280   2.193  13.374
16214W        W88529   0.918  33.477   3.342
16215W        W88530  25.639   8.723   2.275
16216W        W88531  34.046  17.811   3.212
16217W        W88532  15.701  22.105  12.876
16218W        W88533   9.238  10.647   0.468
16219W        W88534  39.306  18.018   1.776
16220W        W88535  36.477  41.361   4.587
16221W        W88536  14.092  24.099  11.070
16222W        W88537  16.835  44.391   4.231
16223W        W88538   4.022  28.040  11.534
16224W        W88539  32.464  11.892  13.099
16225W        W88540   0.354   3.098   0.909
16226W        W88541  35.232  40.481  13.022
16227W        W88542   5.212  22.272  14.444
16228W        W88543  44.765   2.474   4.674
16229W        W88544  14.737  25.438   4.787
16230W        W88545  30.928  16.690  13.868
16231W        W88546  38.031  42.573  12.855
16232W        W88547  44.749  36.524  10.741
16233W        W88548  44.444  39.678   0.712
16234W        W88549  36.598  24.071  13.285
16235W        W88550  31.019  25.035  11.743
16236W        W88551   1.454  41.685   3.334
16237W        W88552  27.758  38.824  11.342
16238W        W88553  33.532   3.961  12.783
16239W        W88554   1.389  10.125  12.429
16240W        W88555  40.300  20.359   2.300
16241W        W88556  28.529  43.011   1.340
16242W        W88557  27.123   3.624  13.355
16243W        W88558  37.431   0.373  12.822
16244W        W88559   4.004   8.739   4.156
16245W        W88560   1.912  22.568   3.514
16246W        W88561   2.320  16.110   3.868
16247W        W88562   1.338  31.545  12.042
16248W        W88563   1.328  20.181  11.684
16249W        W88564  10.952  37.107  12.406
16250W        W88565  20.536  42.511   3.140
16251W        W88566   9.216   1.866  14.480
16252W        W88567  18.722  44.537   0.840
16253W        W88568  16.223   2.767  11.069
16254W        W88569  10.238  35.507   3.314
16255W        W88570  34.603   5.638   3.695
16256W        W88571   0.994   7.319  11.877
16257W        W88572  26.507   4.870   2.723
16258W        W88573   2.170  20.616   1.327
16259W        W88574  39.481   1.189   4.383
16260W        W88575  20.469  11.629  11.061
16261W        W88576  34.906   5.453  10.960
16262W        W88577  16.785  19.786   5.016
16263W        W88578  16.095  19.180   3.129
16264W        W88579  11.106  19.726   4.375
16265W        W88580  42.168  16.744   3.763
16266W        W88581  41.359  35.955  13.390
16267W        W88582   9.831  39.978   3.447
16268W        W88583  32.602  28.987  13.820
16269W        W88584  25.906   9.499  12.023
16270W        W88585   3.964   4.449  13.896
16271W        W88586  40.884  24.932  13.387
16272W        W88587  28.770  27.724   0.369
16273W        W88588  24.202  23.146  11.495
16274W        W88589  28.407  18.035   3.303
16275W        W88590  39.244   9.324   0.494
16276W        W88591  16.808  27.880   5.075
16277W        W88592  43.525  21.767  11.527
16278W        W88593   1.269   0.981  13.373
16279W        W88594  30.372  31.761   2.662
16280W        W88595  42.571  22.135  10.763
16281W        W88596  22.059  14.057   2.651
16282W        W88597  38.014  16.784  14.005
16283W        W88598  29.518   3.954  14.441
16284W        W88599  16.728   1.258   3.783
16285W        W88600  24.817   6.529   2.988
16286W        W88601   1.467  34.134  11.200
16287W        W88602   5.525  22.998  10.716
16288W        W88603  36.995  40.820  12.353
16289W        W88604   5.474  35.644  13.843
16290W        W88605  20.260  43.637   0.761
16291W        W88606  27.062  10.268  12.527
16292W        W88607  27.127  32.793  13.000
16293W        W88608  31.035  27.088  13.922
16294W        W88609  17.740  22.611   3.880
16295W        W88610  28.534  34.009   0.266
16296W        W88611  33.870   3.788  14.353
16297W        W88612  14.822   8.248  14.430
16298W        W88613  13.975  28.190  13.661
16299W        W88614  42.865  23.212  14.267
16300W        W88615  25.409  26.468   3.219
16301W        W88616  44.219  23.133   0.323
16302W        W88617  26.933   0.389  13.090
16303W        W88618  35.012   1.130   1.261
16304W        W88619  44.382  18.576  12.607
16305W        W88620   4.695  16.495   3.304
16306W        W88621  15.696   9.323   3.404
16307W        W88622  38.614   7.183   0.132
16308W        W88623  19.811  36.022  12.004
16309W        W88624  42.780  20.593  11.566
16310W        W88625  40.887  10.126  14.918
16311W        W88626  19.220  37.283   0.787
16312W        W88627  21.003  24.613   4.305
16313W        W88628  30.319  19.356  11.097
16314W        W88629  24.820  13.424  11.224
16315W        W88630  27.098  40.870   1.977
16316W        W88631  41.139  39.446  14.453
16317W        W88632  33.862  43.371   1.360
16318W        W88633  40.988  43.378   4.583
16319W        W88634  16.114  35.906   3.670
16320W        W88635   2.408  13.849  14.019
16321W        W88636  21.631  21.999  12.343
16322W        W88637  13.840  29.507  13.485
16323W        W88638  35.173   9.663   2.630
16324W        W88639  22.191  24.945   4.578
16325W        W88640  24.552  18.714   2.266
16326W        W88641   6.730  26.651  13.036
16327W        W88642   4.788  25.761  14.936
16328W        W88643  26.612  18.371  10.755
16329W        W88644  35.250   0.328  11.111
16330W        W88645   9.234   6.641  10.829
16331W        W88646   0.898  31.867  12.072
16332W        W88647  42.523  28.940   1.158
16333W        W88648   2.946  44.125  10.126
16334W        W88649  43.509  35.364  14.309
16335W        W88650  19.639   5.641  12.898
16336W        W88651  34.012  20.541  14.234
16337W        W88652   9.626  35.012   4.434
16338W        W88653  42.273   1.980   3.632
16339W        W88654  28.003   0.872   4.154
16340W        W88655  13.262  20.103   1.450
16341W        W88656  25.664  29.765  11.225
16342W        W88657  21.241   8.873   1.400
16343W        W88658  13.726  40.971   0.745
16344W        W88659  11.840  41.632  13.028
16345W        W88660  16.566  33.623  14.850
16346W        W88661  42.281  16.217   4.378
16347W        W88662  14.862  22.465   2.123
16348W        W88663  25.941   4.852  10.238
16349W        W88664   4.359   1.179  13.091
16350W        W88665  31.454   2.221   0.963
16351W        W88666  42.118  13.159  11.992
16352W        W88667  42.274  37.936   3.913
16353W        W88668   3.129  44.837   1.790
16354W        W88669  22.247  19.155  10.664
16355W        W88670  34.163  28.575   0.245
16356W        W88671  18.070  19.580   3.662
16357W        W88672  43.458  37.061  11.132
16358W        W88673  31.494  36.867   5.012
16359W        W88674  21.485  21.944   1.959
16360W        W88675  26.019  15.711  12.077
16361W        W88676   4.879  22.005   0.290
16362W        W88677  44.232  19.337  10.514
16363W        W88678   5.412  31.066   3.639
16364W        W88679  23.882   2.928  13.383
16365W        W88680  26.739   6.715   0.057
16366W        W88681  29.290  20.127  11.968
16367W        W88682  44.376  40.202   4.110
16368W        W88683  12.749  37.929   3.576
16369W        W88684   2.840  37.344   3.095
16370W        W88685   0.031   8.949  11.945
16371W        W88686  29.171  21.114  12.857
16372W        W88687  28.006  26.977  10.623
16373W        W88688  42.789  40.548   4.756
16374W        W88689   9.667  27.908  11.897
16375W        W88690  23.573  31.131  14.777
16376W        W88691  11.078  30.575   1.507
16377W        W88692  34.464  41.279  11.181
16378W        W88693  33.101  16.777   2.658
16379W        W88694  34.134   0.763   4.145
16380W        W88695  41.305   9.735   3.862
16381W        W88696  39.382   5.463   1.823
16382W        W88697  11.772   8.150   4.916
16383W        W88698   7.806  22.100  12.487
16384W        W88699   7.629  39.510   1.976
16385W        W88700  34.735  17.292  12.121
16386W        W88701  26.901  14.752  13.550
16387W        W88702  21.920  26.088   2.920
16388W        W88703  35.094  17.838   0.346
16389W        W88704  37.987   1.439  14.124
16390W        W88705   4.355  35.395   3.793
16391W        W88706  20.655   5.931  14.056
16392W        W88707  41.926  16.371  13.614
16393W        W88708  41.326  30.012   3.263
16394W        W88709  14.101  13.135   4.175
16395W        W88710  18.810  26.176   1.110
16396W        W88711  29.065  20.141  11.492
16397W        W88712  10.883  44.864  12.885
16398W        W88713  28.623  35.486  12.135
16399W        W88714  19.498  30.196  14.266
16400W        W88715   7.937  15.079  13.532
16401W        W88716  12.167   9.180  14.476
16402W        W88717  22.982  21.403  12.612
16403W        W88718  43.729  18.464   1.177
16404W        W88719   6.609  42.412   4.705
16405W        W88720  15.760  32.366   0.447
16406W        W88721  29.404  18.105  14.964
16407W        W88722  30.444  23.524  14.760
16408W        W88723   5.037  40.957  12.946
16409W        W88724  32.405   8.868   3.564
16410W        W88725  24.164  41.727  13.916
16411W        W88726  30.240  34.154  13.888
16412W        W88727  39.566  17.746   2.168
16413W        W88728  13.553   1.317  14.497
16414W        W88729   9.345  29.759   3.810
16415W        W88730  23.822  26.559   1.159
16416W        W88731  19.588  13.242   1.212
16417W        W88732  35.991  30.618  13.466
16418W        W88733  37.926   0.011   2.303
16419W        W88734   9.596  18.539   0.181
16420W        W88735   6.379   5.269   3.688
16421W        W88736  41.018   9.378   2.673
16422W        W88737  27.608  38.460  12.021
16423W        W88738  18.707   3.788   0.340
16424W        W88739  17.720  41.720   4.374
16425W        W88740  42.088  34.781  13.446
16426W        W88741  19.384  36.033   4.805
16427W        W88742  43.767  11.711   2.771
16428W        W88743   0.123  25.606  14.336
16429W        W88744  17.613  37.128   3.609
16430W        W88745   4.765   7.685  14.079
16431W        W88746  38.606   3.740   2.992
16432W        W88747  40.359  28.368  12.800
16433W        W88748  18.814  10.217   1.332
16434W        W88749  23.776  26.586   1.702
16435W        W88750  28.390   2.265   1.367
16436W        W88751  36.343   7.826  14.274
16437W        W88752   6.357  42.294  14.527
16438W        W88753  28.490  41.254   1.945
16439W        W88754  11.884  39.941  13.414
16440W        W88755  31.587   0.405  12.875
16441W        W88756  38.988  18.031   0.632
16442W        W88757   4.433  19.183  12.788
16443W        W88758  27.906  14.715  12.361
16444W        W88759  33.340  42.688  12.571
16445W        W88760   3.646  14.719  11.663
16446W        W88761  43.267   4.050   0.727
16447W        W88762  37.659  23.498  13.289
16448W        W88763   9.442   4.227  12.942
16449W        W88764  35.908  21.501  11.119
16450W        W88765  41.883  16.769  13.267
16451W        W88766   3.270  44.535   2.435
16452W        W88767  23.410   5.064  12.055
16453W        W88768  39.188  14.888  11.906
16454W        W88769  28.654   5.302  14.388
16455W        W88770  25.512  12.719   0.396
16456W        W88771  23.105   1.353  12.092
16457W        W88772   0.407  20.580   3.045
16458W        W88773  40.926   5.732  11.529
16459W        W88774   4.325  33.425  13.722
16460W        W88775  13.026  42.891   0.059
16461W        W88776  18.191  19.554  11.161
16462W        W88777  28.461  15.543   0.753
16463W        W88778  16.614  11.378  11.617
16464W        W88779  24.290  19.628   0.478
16465W        W88780  32.619  42.409  12.028
16466W        W88781   6.748  34.426   0.469
16467W        W88782  31.556   8.343  12.813
16468W        W88783  21.607  18.578  13.505
16469W        W88784  30.652   5.778  13.593
16470W        W88785  24.245   0.319   3.787
16471W        W88786  32.036   9.336  13.341
16472W        W88787  23.197   6.709   3.303
16473W        W88788  44.373  24.393  10.493
16474W        W88789  30.216  12.964   0.908
16475W        W88790  19.023  19.561   0.300
16476W        W88791  44.926  40.562  12.130
16477W        W88792  26.589  10.795  10.984
16478W        W88793  37.042  32.570   4.107
16479W        W88794  17.093  37.804   2.402
16480W        W88795  43.595   8.654   2.572
16481W        W88796  19.605  20.205   3.183
16482W        W88797   2.466  30.638   3.518
16483W        W88798  23.714  22.043   0.764
16484W        W88799  21.202   0.807   3.693
16485W        W88800  17.800  15.364  11.174
16486W        W88801  41.064  37.578   1.661
16487W        W88802   8.436  37.043   3.771
16488W        W88803  11.777  19.021  13.003
16489W        W88804   8.355  18.240   3.697
16490W        W88805   1.330  15.996  13.467
16491W        W88806  11.310  23.786  13.954
16492W        W88807  16.020  20.149   2.744
16493W        W88808  26.015  39.497  13.800
16494W        W88809  12.734  17.755   0.166
16495W        W88810  21.267   5.360   3.154
16496W        W88811  23.898  29.745  12.906
16497W        W88812  42.398   0.491   4.848
16498W        W88813  29.517   5.260   1.335
16499W        W88814  22.069  43.891   1.934
16500W        W88815  39.413  16.678  14.065
16501W        W88816  32.063   8.054   3.338
16502W        W88817  38.402  10.646   0.292
16503W        W88818  11.956  35.363  11.627
16504W        W88819  17.735  38.582  13.449
16505W        W88820  42.809  40.057  10.690
16506W        W88821  34.590  44.155  11.901
16507W        W88822  28.596  40.545   1.165
16508W        W88823  40.992  34.942  12.037
16509W        W88824   3.789  31.920  14.988
16510W        W88825   0.821  22.512  12.842
16511W        W88826  25.430  29.572   1.299
16512W        W88827  24.259  26.587   1.862
16513W        W88828   6.189  24.655  14.899
16514W        W88829  39.993  14.320   3.731
16515W        W88830  17.071  20.653   2.905
16516W        W88831  16.708   6.513   1.146
16517W        W88832  21.659  37.809   1.444
16518W        W88833  26.443  28.293   4.448
16519W        W88834  24.201   1.866  14.330
16520W        W88835  22.261  24.124   2.289
16521W        W88836  13.757  28.081  12.060
16522W        W88837  29.204  12.256   1.889
16523W        W88838  32.640   9.604  14.413
16524W        W88839  44.900  10.205  11.209
16525W        W88840  41.874  21.513   1.780
16526W        W88841  30.547  33.414   3.754
16527W        W88842  12.632  44.068  11.069
16528W        W88843  36.594  29.671  12.157
16529W        W88844  19.487  29.920   2.266
16530W        W88845  42.261   0.856   1.495
16531W        W88846  25.428  32.081   2.391
16532W        W88847  40.262  24.127   2.809
16533W        W88848  35.881  25.900  11.946
16534W        W88849  29.125   4.242   3.756
16535W        W88850  27.584  30.169   0.399
16536W        W88851  42.673  43.847   0.836
16537W        W88852  24.960  35.334   1.432
16538W        W88853  37.571  24.015   9.897
16539W        W88854  20.819   0.138   4.246
16540W        W88855  42.476  38.360   4.137
16541W        W88856  43.191  12.777  13.973
16542W        W88857  34.036  12.546  13.594
16543W        W88858   5.151  41.088  13.435
16544W        W88859  33.447   5.293  11.621
16545W        W88860  15.962  18.283   0.410
16546W        W88861  43.504  44.014  13.832
16547W        W88862  15.288   0.803  13.466
16548W        W88863  38.524  16.843  13.031
16549W        W88864  23.438  21.446   4.108
16550W        W88865   5.825  38.226  12.974
16551W        W88866  28.824  17.358  11.202
16552W        W88867  32.588  14.296   2.978
16553W        W88868  42.811  36.431   0.982
16554W        W88869  42.731  30.981  12.817
16555W        W88870  12.125  12.263   4.124
16556W        W88871  29.329  20.538  12.275
16557W        W88872   1.235  28.212  14.998
16558W        W88873  10.259  22.291  14.004
16559W        W88874  43.208   1.852   0.756
16560W        W88875  44.398  44.774  12.383
16561W        W88876  33.709  37.491  11.206
16562W        W88877  16.151   4.780  10.812
16563W        W88878  27.401   8.669  14.386
16564W        W88879  13.790  19.736   3.751
16565W        W88880   2.816  32.944   0.569
16566W        W88881   7.843  25.105   4.626
16567W        W88882   6.930  40.514   1.832
16568W        W88883   3.236   8.206   0.396
16569W        W88884   1.247  43.540   1.797
16570W        W88885  13.818  14.642   2.955
16571W        W88886   0.912  19.148  10.670
16572W        W88887  22.630  31.992   3.047
16573W        W88888   5.717  24.465   1.698
16574W        W88889  14.360  44.877  13.845
16575W        W88890  18.177   7.708  10.236
16576W        W88891   6.230  40.781  11.962
16577W        W88892   3.686  23.228  11.980
16578W        W88893  25.553   7.117  10.937
16579W        W88894  27.079  21.067  11.756
16580W        W88895  16.295   3.361   4.138
16581W        W88896  21.542   6.629  11.528
16582W        W88897  12.077  34.815  11.025
16583W        W88898  33.622  17.089  14.385
16584W        W88899  13.577  30.117  13.511
16585W        W88900   8.851  35.986   3.146
16586W        W88901  44.997   3.912  12.880
16587W        W88902  23.165  38.796   0.328
16588W        W88903  43.983  34.515   0.333
16589W        W88904   0.200  44.831  12.074
16590W        W88905  36.623   1.960   1.227
16591W        W88906  28.598  36.018  10.566
16592W        W88907  32.730  18.305  13.922
16593W        W88908  39.445  28.746  10.559
16594W        W88909  42.033  36.486   3.900
16595W        W88910   9.310  14.007  13.814
16596W        W88911  28.548  40.988   1.473
16597W        W88912  13.805  37.215   5.126
16598W        W88913   2.791  13.313   1.166
16599W        W88914  35.164  14.245  14.468
16600W        W88915  10.250  31.474  11.967
16601W        W88916  37.839  43.390   3.191
16602W        W88917  13.718  23.522  12.949
16603W        W88918  44.976  18.734  13.348
16604W        W88919  32.551   8.933   0.063
16605W        W88920  17.206  20.789   3.825
16606W        W88921  15.240  11.167   0.555
16607W        W88922  17.694  21.469  11.564
16608W        W88923  44.565  35.161   0.321
16609W        W88924  12.774  23.591   4.650
16610W        W88925   2.812   5.139   2.716
16611W        W88926  26.234  27.501  12.112
16612W        W88927  28.949  29.418  11.402
16613W        W88928   4.883  16.095   3.533
16614W        W88929   8.720  31.641   2.582
16615W        W88930  30.197  38.828   1.383
16616W        W88931   2.876  14.704  12.430
16617W        W88932  22.471  44.422  12.520
16618W        W88933   0.883  35.804  12.465
16619W        W88934  16.683  19.237  11.494
16620W        W88935  20.416  33.014   2.756
16621W        W88936   7.448   1.431   4.652
16622W        W88937  20.943  35.915   0.423
16623W        W88938  38.642  14.893   4.987
16624W        W88939  33.950   3.756  13.811
16625W        W88940   5.760   8.205   3.318
16626W        W88941   9.638  39.309   1.858
16627W        W88942  41.385  15.263   2.397
16628W        W88943  32.091  14.793  11.606
16629W        W88944   0.747  35.557  12.911
16630W        W88945   5.819  22.671   1.240
16631W        W88946   5.244  24.914  10.631
16632W        W88947  34.441  33.480   3.426
16633W        W88948  40.913  22.301   0.194
16634W        W88949   2.978  19.138  10.722
16635W        W88950  39.441  44.288   4.403
16636W        W88951  34.461  27.605  12.556
16637W        W88952  16.177  39.319   3.074
16638W        W88953  14.304  20.612  13.007
16639W        W88954  12.754   1.304  11.384
16640W        W88955  20.417  41.431  14.396
16641W        W88956  32.407  14.620  12.035
16642W        W88957  22.823  21.030  12.020
16643W        W88958   3.330  24.395  12.924
16644W        W88959  14.860  21.797   0.547
16645W        W88960  43.244   1.949  12.955
16646W        W88961  18.248  30.556   3.319
16647W        W88962  43.318  10.489   0.223
16648W        W88963  38.078  32.981   4.043
16649W        W88964   0.355  39.555   1.777
16650W        W88965  22.112   6.281  13.853
16651W        W88966  14.402   9.092   4.742
16652W        W88967  41.877  43.104   4.150
16653W        W88968  40.583  22.660   1.470
16654W        W88969  17.209  11.731  10.668
16655W        W88970  34.390  37.433  11.493
16656W        W88971  30.464  20.801   1.747
16657W        W88972   2.309   2.887  13.095
16658W        W88973  36.982   3.149   0.979
16659W        W88974  22.055  38.421   3.493
16660W        W88975  39.468  23.543  13.442
16661W        W88976  38.194   3.448  13.392
16662W        W88977  27.163   5.684   3.675
16663W        W88978  17.276  39.529   3.670
16664W        W88979  34.036   8.959  12.954
16665W        W88980  13.632  20.098  14.740
16666W        W88981  41.348  20.829  12.623
16667W        W88982   2.844  27.293   3.338
16668W        W88983  23.328  29.461  14.399
16669W        W88984   8.149  25.560   4.653
16670W        W88985  44.038  40.598   2.741
16671W        W88986   0.817  40.834   0.894
16672W        W88987   0.379  19.235   0.867
16673W        W88988  31.092  36.008   1.075
16674W        W88989  25.083  28.927   3.256
16675W        W88990   3.870  38.345   1.508
16676W        W88991  32.007  33.212   0.781
16677W        W88992  37.333  18.429   3.195
16678W        W88993  27.824   1.944   2.710
16679W        W88994   9.810  15.235  13.844
16680W        W88995   9.446  41.775   1.707
16681W        W88996  18.120  43.018   4.089
16682W        W88997  30.206  28.940   1.825
16683W        W88998  39.850  35.879   3.159
16684W        W88999   2.196  22.635   1.820
16685W        W89000  37.450  31.679   3.217
16686W        W89001  29.923  13.873   4.038
16687W        W89002  40.065   7.750  14.729
16688W        W89003  17.385   6.758   1.870
16689W        W89004  11.957  41.724   0.193
16690W        W89005  18.332  25.160  10.973
16691W        W89006  29.266  11.590  13.935
16692W        W89007  44.715   6.412  14.948
16693W        W89008  15.772  20.020  14.859
16694W        W89009  38.331  11.894   4.546
16695W        W89010  37.509  18.320  14.382
16696W        W89011   0.100  17.076   1.481
16697W        W89012  43.564  42.683  10.188
16698W        W89013  30.692  38.277   2.878
16699W        W89014  25.725  19.080  11.219
16700W        W89015  34.669  26.643  12.974
16701W        W89016  18.338  27.616  11.098
16702W        W89017  38.568  38.994   2.158
16703W        W89018  31.801  20.526   0.769
16704W        W89019   6.606  39.213  14.525
16705W        W89020  28.123   6.435  12.507
16706W        W89021  40.756  22.710  11.572
16707W        W89022   6.910  37.886  10.560
16708W        W89023  13.084  26.230   4.078
16709W        W89024  19.256  29.865   1.017
16710W        W89025  40.959  43.450  11.603
16711W        W89026  14.246   6.154   2.313
16712W        W89027  37.971  39.119  12.894
16713W        W89028   4.806  27.640  10.046
16714W        W89029  37.027  42.799   1.330
16715W        W89030  12.335  21.521  11.121
16716W        W89031   1.418  19.970  14.422
16717W        W89032  27.121  30.035  13.598
16718W        W89033  32.432  35.529   1.001
16719W        W89034   1.918   5.779   4.029
16720W        W89035  22.527  14.691  11.558
16721W        W89036  35.401  35.375  13.462
16722W        W89037  27.216  28.668   4.244
16723W        W89038  17.200   0.917  11.641
16724W        W89039  36.870  31.249   1.865
16725W        W89040  42.499  14.085  13.875
16726W        W89041  33.059  12.282  13.352
16727W        W89042  35.419   8.305   4.537
16728W        W89043   4.033   8.536   9.962
16729W        W89044   8.834   9.881   1.255
16730W        W89045   2.906  23.196   2.368
16731W        W89046  22.088   9.245   3.657
16732W        W89047  25.599  28.288  13.025
16733W        W89048  23.088   4.181   0.502
16734W        W89049   9.823   4.111   4.112
16735W        W89050  42.811  25.361   4.999
16736W        W89051   0.854  13.355   2.334
16737W        W89052  41.210   5.212   0.849
16738W        W89053  11.278  43.758   2.001
16739W        W89054  24.919  12.610  11.972
16740W        W89055  42.671   4.029   3.364
16741W        W89056  14.301  31.142   1.698
16742W        W89057  26.213   0.843  11.634
16743W        W89058  18.569  11.105  11.437
16744W        W89059  29.016  26.878  14.435
16745W        W89060  43.346  10.357  12.115
16746W        W89061  36.831  40.371   2.089
16747W        W89062   3.036  30.260   2.727
16748W        W89063  41.952   8.588  13.248
16749W        W89064  25.228  28.666   2.800
16750W        W89065  22.486   0.965  12.653
16751W        W89066  34.332   0.485  11.548
16752W        W89067  12.546  41.926   1.074
16753W        W89068  22.201  36.819   2.245
16754W        W89069  29.451   9.893   4.253
16755W        W89070   2.744  14.195  14.929
16756W        W89071  18.942  11.320   5.564
16757W        W89072  43.829   1.863   2.289
16758W        W89073  39.579  31.996   0.656
16759W        W89074  44.449  20.290  10.760
16760W        W89075  40.052  18.783   1.341
16761W        W89076  19.441   5.691  10.830
16762W        W89077  23.173  13.859   3.303
16763W        W89078  38.134   0.764  12.597
16764W        W89079  31.065   6.189  10.491
16765W        W89080  16.313   1.259   3.105
16766W        W89081  21.563   5.485  12.027
16767W        W89082  44.175   5.514   0.652
16768W        W89083  40.629  21.111  14.699
16769W        W89084  41.330  10.354   1.824
16770W        W89085  34.804  25.525   2.843
16771W        W89086  40.891  10.684   1.862
16772W        W89087  42.995  44.720   5.244
16773W        W89088   3.765  11.644  12.906
16774W        W89089   5.233  17.374   3.220
16775W        W89090  41.127   6.733   3.199
16776W        W89091  35.820  27.519   0.246
16777W        W89092  37.106  18.659  11.822
16778W        W89093  21.472  17.585   0.409
16779W        W89094   4.236  40.768   2.402
16780W        W89095  23.477  43.547  11.406
16781W        W89096  23.012  13.891  13.560
16782W        W89097  30.651  40.534  11.145
16783W        W89098  17.978  40.429   3.949
16784W        W89099  38.940  23.488   3.807
16785W        W89100   1.792  10.722  14.361
16786W        W89101  42.876  18.817   4.727
16787W        W89102  23.180  18.180   4.576
16788W        W89103  29.545  13.545  10.387
16789W        W89104  14.805  36.501   1.807
16790W        W89105  42.607  42.305  11.638
16791W        W89106  30.617  25.010   2.329
16792W        W89107  34.417  39.868   2.874
16793W        W89108   1.031  12.337   3.649
16794W        W89109  12.401  43.507  13.799
16795W        W89110  33.309   9.907  12.701
16796W        W89111   2.240  18.136  10.584
16797W        W89112  33.526  33.920   0.482
16798W        W89113  11.291   4.896  13.508
16799W        W89114  42.562  34.700   2.587
16800W        W89115  36.837  20.488  11.884
16801W        W89116  34.121  16.553  14.444
16802W        W89117  23.909  24.051  13.798
16803W        W89118  32.334  17.329  14.139
16804W        W89119  10.227  40.551   0.468
16805W        W89120  24.615  27.925  12.542
16806W        W89121  17.822  28.638  11.054
16807W        W89122  44.830   7.219   2.980
16808W        W89123  38.438  23.217   0.465
16809W        W89124  16.218  18.870   4.113
16810W        W89125  11.787  30.491   4.843
16811W        W89126   2.285   4.822   4.257
16812W        W89127   2.336  25.793  12.035
16813W        W89128  37.509  17.068  11.585
16814W        W89129   0.726  22.610  14.320
16815W        W89130   0.910  13.774   3.674
16816W        W89131  21.109  18.517   4.527
16817W        W89132  12.193   2.776  12.469
16818W        W89133  35.545  35.020  13.010
16819W        W89134   2.965  30.436  10.914
16820W        W89135  19.302   4.368   2.811
16821W        W89136  24.730  44.884   1.777
16822W        W89137   3.538  43.898   0.230
16823W        W89138  42.951  19.667  11.907
16824W        W89139  42.096  20.473  11.059
16825W        W89140  10.231  23.576  10.613
16826W        W89141  24.726   5.020   3.322
16827W        W89142  38.557  15.634   3.416
16828W        W89143  42.680  17.958  11.138
16829W        W89144  36.169  19.399   3.904
16830W        W89145  21.999  27.340  10.719
16831W        W89146  35.048   3.645   4.082
16832W        W89147  32.567  30.391   1.768
16833W        W89148  40.862  20.685  12.533
16834W        W89149  32.364   4.773  12.583
16835W        W89150  17.042   2.823   0.633
16836W        W89151  33.327  35.682   4.252
16837W        W89152  40.552   9.226  10.482
16838W        W89153  43.478  11.650   3.208
16839W        W89154  44.803  37.088  12.349
16840W        W89155  26.204  18.597   3.375
16841W        W89156  27.913  22.228   4.632
16842W        W89157  27.329  14.822  12.902
16843W        W89158  40.741  21.204   3.464
16844W        W89159  19.226  22.058  14.985
16845W        W89160  40.991  23.694  11.614
16846W        W89161  34.327  20.228   2.384
16847W        W89162  14.183  36.487   1.356
16848W        W89163  35.628  28.201   1.447
16849W        W89164  12.336  40.083  14.504
16850W        W89165   1.814  15.848  14.062
16851W        W89166   0.238  34.839  13.442
16852W        W89167  30.405  15.428   4.597
16853W        W89168  15.350  20.464  12.312
16854W        W89169  23.101  18.685   1.832
16855W        W89170  12.117  14.113   1.700
16856W        W89171   9.365  24.513   0.283
16857W        W89172  11.665  16.749  10.102
16858W        W89173  29.761   9.520  13.802
16859W        W89174  39.357  21.304  13.641
16860W        W89175  44.160  24.030   0.301
16861W        W89176  33.663  28.438   1.463
16862W        W89177  44.011  28.430  14.997
16863W        W89178   2.930  18.101  14.872
16864W        W89179   5.173  23.101   0.044
16865W        W89180  31.118  31.798  11.893
16866W        W89181  41.031  21.297  14.982
16867W        W89182  36.812   6.149   1.956
16868W        W89183  17.037   6.292  12.018
16869W        W89184   7.168  12.683  13.154
16870W        W89185  31.923  15.175  13.118
16871W        W89186  28.045  34.560   1.292
16872W        W89187  28.039  34.054   1.372
16873W        W89188  23.031  40.754   3.776
16874W        W89189  26.384  12.665  12.056
16875W        W89190  39.763  41.370   1.624
16876W        W89191   0.273  17.368   1.898
16877W        W89192  30.115  39.643  12.876
16878W        W89193   6.386   5.382  14.011
16879W        W89194   9.742  19.969   0.226
16880W        W89195  17.493  43.026   2.914
16881W        W89196   6.861  39.198  11.700
16882W        W89197  19.038  40.246   2.742
16883W        W89198  19.372  42.468  10.796
16884W        W89199  19.624  34.665   1.823
16885W        W89200  41.105  38.413  11.182
16886W        W89201  28.496   6.438   5.054
16887W        W89202  33.929   7.407  11.994
16888W        W89203  41.754  22.077   0.820
16889W        W89204  43.494  40.961   4.273
16890W        W89205  41.777   6.277   4.725
16891W        W89206  23.568  36.339  13.304
16892W        W89207  15.290   8.394   3.034
16893W        W89208  15.378   7.835   2.622
16894W        W89209   2.857  31.795  14.830
16895W        W89210   9.371  16.242   4.064
16896W        W89211  19.985  33.196   1.751
16897W        W89212   7.754  12.351   0.255
16898W        W89213  31.453  43.517   1.660
16899W        W89214  33.114  28.083  13.744
16900W        W89215   0.268  26.997  11.998
16901W        W89216  31.556   9.665  13.942
16902W        W89217  22.266  10.170   1.101
16903W        W89218   7.726  24.254  12.467
16904W        W89219   9.938  38.522   2.217
16905W        W89220  29.963  20.998   4.186
16906W        W89221  39.486  34.694   3.357
16907W        W89222   7.434  30.628  11.593
16908W        W89223  27.945  38.937   2.326
16909W        W89224  36.596  27.904  12.320
16910W        W89225  43.442  39.876  14.225
16911W        W89226  27.308  30.155   3.031
16912W        W89227  16.117  20.857  11.503
16913W        W89228   1.560  15.564  14.413
16914W        W89229  32.122   4.934  10.394
16915W        W89230  29.504  29.658   1.792
16916W        W89231  22.279  35.024   3.203
16917W        W89232  34.061  22.310   4.756
16918W        W89233   6.243  36.050   1.231
16919W        W89234  26.143  28.871  11.191
16920W        W89235   1.275  31.950  11.713
16921W        W89236  38.273  20.346  12.080
16922W        W89237  10.918  41.514   3.603
16923W        W89238  27.604  25.893   2.211
16924W        W89239   6.945  16.542  14.951
16925W        W89240   1.863  25.805  14.808
16926W        W89241  27.078  18.109   4.408
16927W        W89242  10.593   0.406  13.588
16928W        W89243  37.044  33.550   4.086
16929W        W89244  43.473  43.036   1.496
16930W        W89245  13.072  22.038  13.821
16931W        W89246  34.959  29.614   0.338
16932W        W89247  19.716  17.657  13.520
16933W        W89248   2.464   1.559   1.856
16934W        W89249  31.415  42.205   4.363
16935W        W89250  32.904   5.323  11.009
16936W        W89251  12.425  31.062   1.908
16937W        W89252  38.374  44.346  11.966
16938W        W89253  36.161  32.939  13.899
16939W        W89254  27.906  12.357  13.380
16940W        W89255  29.125  19.237   0.906
16941W        W89256  28.516  31.153  10.679
16942W        W89257  21.645  30.146  13.382
16943W        W89258  15.816  14.151  13.423
16944W        W89259  12.109  27.013  12.565
16945W        W89260  42.389  12.810  14.405
16946W        W89261  19.164  42.788  12.563
16947W        W89262  43.911  39.844   0.970
16948W        W89263  44.485  34.980   4.512
16949W        W89264  44.342  44.480   2.773
16950W        W89265  36.550  29.673   1.927
16951W        W89266  27.610  40.079  12.993
16952W        W89267  14.717  36.956  12.527
16953W        W89268  40.102  24.083   1.360
16954W        W89269  40.606  29.373   3.419
16955W        W89270   9.407   4.866   2.399
16956W        W89271  11.486  31.564   1.943
16957W        W89272  21.977  13.868   4.091
16958W        W89273  30.855  30.070  11.468
16959W        W89274  23.993  23.928   3.807
16960W        W89275  18.037   0.845   3.143
16961W        W89276  19.077   6.557   1.221
16962W        W89277  42.273  18.716  10.738
16963W        W89278   0.915  26.732  12.204
16964W        W89279  18.622  30.723  13.871
16965W        W89280  26.486  40.487  12.338
16966W        W89281  22.348  36.827   2.743
16967W        W89282  11.187  22.226   3.762
16968W        W89283  36.916  40.002  12.872
16969W        W89284  26.720   7.220  11.871
16970W        W89285  14.392  36.358  14.851
16971W        W89286  42.727   1.406  12.310
16972W        W89287  31.655  19.673   3.668
16973W        W89288  23.306  41.599   1.808
16974W        W89289  35.410  40.914   0.107
16975W        W89290  38.486  35.994   2.636
16976W        W89291  18.285  41.563   3.253
16977W        W89292   3.360   9.388  14.487
16978W        W89293   0.027   7.824  14.774
16979W        W89294  43.703   7.322   2.924
16980W        W89295  23.008  20.691   2.686
16981W        W89296  10.434  41.786   3.700
16982W        W89297  29.610  15.612   0.252
16983W        W89298  36.765  15.611   4.130
16984W        W89299  42.910   5.729  14.276
16985W        W89300  32.504  44.077  11.107
16986W        W89301   0.640  21.173  13.330
16987W        W89302  12.368  34.826   0.353
16988W        W89303   7.842   1.456   3.736
16989W        W89304  17.831  44.010  12.148
16990W        W89305   4.334   5.332  11.558
16991W        W89306  24.025  31.070   2.911
16992W        W89307  23.034  20.956   2.219
16993W        W89308   5.297  12.185  12.723
16994W        W89309  24.146  23.655   1.253
16995W        W89310  32.678  38.763  10.832
16996W        W89311  26.043   0.256   4.465
16997W        W89312  33.868  30.014  10.297
16998W        W89313  19.117  39.616   3.279
16999W        W89314  39.555  35.860  11.947
17000W        W89315  38.453  42.336  14.132
17001W        W89316  33.695  38.026  11.454
17002W        W89317  16.295  40.315   3.225
17003W        W89318  36.624  21.219   0.111
17004W        W89319  12.918  29.686  14.866
17005W        W89320  27.445  22.754   3.803
17006W        W89321   3.530  44.885   2.742
17007W        W89322  37.484  23.527  10.743
17008W        W89323  42.954  21.143  11.966
17009W        W89324  21.191  18.106  11.647
17010W        W89325  19.211  37.320   2.299
17011W        W89326   4.920  35.960  13.545
17012W        W89327  18.349  18.955  14.387
17013W        W89328  17.579  32.033  14.593
17014W        W89329  18.108  20.719   2.582
17015W        W89330   0.502   5.300  14.958
17016W        W89331   2.790  18.601   4.088
17017W        W89332  17.401   7.712  10.238
17018W        W89333  24.870  13.871   3.724
17019W        W89334  28.197  35.451  13.314
17020W        W89335  33.599  32.083   3.409
17021W        W89336  11.650   0.329   4.692
17022W        W89337  10.619  41.380  14.251
17023W        W89338  15.047  22.035   1.883
17024W        W89339  12.987  10.210  12.093
17025W        W89340  36.973  13.798  12.310
17026W        W89341   8.569   4.115   1.901
17027W        W89342  10.395  34.644   0.032
17028W        W89343  18.668   0.899   3.386
17029W        W89344   0.594  19.234   1.947
17030W        W89345  13.063   2.126  14.897
17031W        W89346  31.486  36.493  13.549
17032W        W89347  26.219  32.264  12.001
17033W        W89348  13.367  42.086  13.397
17034W        W89349  18.046   5.271  11.037
17035W        W89350  27.183  25.783   1.142
17036W        W89351  21.715  29.607  12.489
17037W        W89352  38.287   1.888   2.351
17038W        W89353  17.551  30.017  14.869
17039W        W89354  42.871  10.349  12.874
17040W        W89355  40.309  34.105   2.365
17041W        W89356  23.589  22.125   9.814
17042W        W89357  40.180  19.789   4.684
17043W        W89358  44.411   5.453   1.123
17044W        W89359  33.297  37.471  14.649
17045W        W89360  43.479  10.307  14.225
17046W        W89361  13.272  27.049   1.142
17047W        W89362   7.774  37.690  11.107
17048W        W89363  29.344  44.158  14.955
17049W        W89364  41.403  24.998   4.243
17050W        W89365  27.925  30.878  14.067
17051W        W89366  17.768   4.499  10.653
17052W        W89367  14.494  19.699   4.184
17053W        W89368   0.064  36.594  13.913
17054W        W89369  26.510  31.983   3.567
17055W        W89370  22.212  13.746   4.547
17056W        W89371   2.458  37.445   4.195
17057W        W89372  27.815  41.763  10.753
17058W        W89373  40.561  21.599  12.097
17059W        W89374  18.607  32.348  12.637
17060W        W89375  26.536  10.602   2.600
17061W        W89376  13.830   4.856  10.654
17062W        W89377  33.829  30.629   1.286
17063W        W89378  35.856  24.489   1.130
17064W        W89379   0.051  28.563  14.360
17065W        W89380  16.830  20.716   2.077
17066W        W89381  36.976  40.323  14.531
17067W        W89382   0.868   4.229  14.105
17068W        W89383   8.636   3.295   2.745
17069W        W89384  10.839  20.031   5.082
17070W        W89385   5.891  11.802  12.913
17071W        W89386  36.026  34.072  11.933
17072W        W89387  31.138  18.108   4.160
17073W        W89388  23.700  29.621   0.421
17074W        W89389  23.824  10.837   2.373
17075W        W89390  44.820  24.169  10.704
17076W        W89391  35.913  22.530   3.574
17077W        W89392  43.059  28.757   3.308
17078W        W89393  23.306  44.886  14.884
17079W        W89394  19.030   1.490  14.768
17080W        W89395   0.838  42.382  14.964
17081W        W89396  18.692  42.024  12.535
17082W        W89397  13.737  26.925  14.917
17083W        W89398  17.217  38.431   5.108
17084W        W89399   2.411  34.862  11.490
17085W        W89400  13.848  26.964   3.316
17086W        W89401  10.358  37.833  10.730
17087W        W89402  14.339   8.667  10.541
17088W        W89403  13.680  42.610  13.873
17089W        W89404   4.836  10.339   4.250
17090W        W89405  44.877  31.700   3.248
17091W        W89406   9.190  31.376  12.113
17092W        W89407  28.590  24.511   3.732
17093W        W89408   3.496  18.377  11.910
17094W        W89409  30.061   0.572   2.774
17095W        W89410  27.427  11.644  14.410
17096W        W89411   3.633  12.471  10.109
17097W        W89412  13.203  36.784  11.044
17098W        W89413  20.262  28.159   0.253
17099W        W89414  43.747  11.569   4.490
17100W        W89415  43.498  32.246  12.472
17101W        W89416   7.294  14.295  11.193
17102W        W89417   2.299  34.583   4.668
17103W        W89418   6.472  10.868   2.745
17104W        W89419   0.769  22.163   0.323
17105W        W89420  29.102  14.184   3.076
17106W        W89421  32.289   7.672  14.734
17107W        W89422  35.400  16.148   4.345
17108W        W89423  38.926  35.358  10.953
17109W        W89424  11.392  35.125   4.507
17110W        W89425  18.501  37.561  11.074
17111W        W89426  34.632  27.880  12.981
17112W        W89427   5.303   2.375   1.241
17113W        W89428  38.274  22.244   2.805
17114W        W89429  26.445  32.105   0.880
17115W        W89430   5.739  21.846  14.878
17116W        W89431  21.218  21.348  10.226
17117W        W89432   2.493  15.274   2.074
17118W        W89433   3.799   8.833  10.992
17119W        W89434  27.100  41.173  13.116
17120W        W89435   9.339   5.363   2.294
17121W        W89436  11.675  44.926  11.107
17122W        W89437  31.946  20.031  12.421
17123W        W89438  11.946  38.045   2.851
17124W        W89439  32.691  38.566  11.995
17125W        W89440   9.739  35.834   3.670
17126W        W89441   4.741  41.984   2.015
17127W        W89442   9.197   9.669   4.061
17128W        W89443  40.873   9.653   4.156
17129W        W89444  11.076   4.429   0.860
17130W        W89445  13.191  32.030   4.623
17131W        W89446   2.943  21.778   0.018
17132W        W89447  21.712  31.841  14.771
17133W        W89448  22.600   0.242   4.935
17134W        W89449  28.706  36.352   2.912
17135W        W89450  35.656  17.737   1.173
17136W        W89451   8.286   8.174  14.425
17137W        W89452  36.830   6.677  13.959
17138W        W89453   3.645  27.852   1.897
17139W        W89454  44.759  10.669   4.623
17140W        W89455  30.632  41.750   4.618
17141W        W89456  10.111  15.279   1.918
17142W        W89457  22.209  23.861  12.968
17143W        W89458  10.385  17.144   2.868
17144W        W89459   0.908  18.776   1.313
17145W        W89460  16.076  18.519  12.497
17146W        W89461   5.258  32.016   3.531
17147W        W89462   4.227  44.385  12.503
17148W        W89463   6.437  17.387  14.583
17149W        W89464  21.172  20.585   2.716
17150W        W89465  13.708   0.643  13.999
17151W        W89466  16.304  44.929   2.741
17152W        W89467  34.897  35.398  12.538
17153W        W89468  24.252  13.343   2.728
17154W        W89469  40.775  29.210  11.073
17155W        W89470  21.102  44.815   4.986
17156W        W89471  43.927  15.111   4.666
17157W        W89472  28.562  35.624   1.396
17158W        W89473   9.170  42.843   4.189
17159W        W89474  32.571  13.928   0.482
17160W        W89475  21.661   7.733   0.918
17161W        W89476   8.152  10.243   3.251
17162W        W89477  11.914  28.766   0.840
17163W        W89478   4.784  14.232  14.918
17164W        W89479  15.094  30.262  14.356
17165W        W89480  44.675  18.467   3.188
17166W        W89481  42.179  21.807   4.389
17167W        W89482  43.891  12.326  14.864
17168W        W89483   9.408  16.752   4.141
17169W        W89484   5.404  10.432   0.219
17170W        W89485  27.249  42.409  11.190
17171W        W89486  33.348  17.264  11.652
17172W        W89487  42.262   6.751  14.697
17173W        W89488  30.932  12.210  13.574
17174W        W89489   2.241  30.039  10.787
17175W        W89490   2.890  10.151  14.283
17176W        W89491  33.082  33.445  14.732
17177W        W89492  26.579  44.767   2.813
17178W        W89493  27.872  33.143  11.507
17179W        W89494  29.653   8.316  10.714
17180W        W89495  24.352  41.289   2.179
17181W        W89496  32.104  25.913  12.972
17182W        W89497  36.282  19.545  14.282
17183W        W89498   2.297  35.631  10.481
17184W        W89499  23.294  19.016   0.952
17185W        W89500   8.165   9.249  11.545
17186W        W89501  34.514   8.194   3.267
17187W        W89502  39.571  37.117   2.796
17188W        W89503  25.838  32.688   5.396
17189W        W89504  24.284   5.326   4.438
17190W        W89505  32.065  22.149   0.739
17191W        W89506  25.450  34.059   4.771
17192W        W89507  10.250   4.763   3.759
17193W        W89508   7.165  33.293  10.238
17194W        W89509  26.512   6.752  11.968
17195W        W89510  40.062  23.066   0.890
17196W        W89511   5.185   5.724  14.881
17197W        W89512  38.573  40.093  10.892
17198W        W89513  35.463   4.028  11.280
17199W        W89514  33.097  11.994  12.029
17200W        W89515  44.869  15.272   3.287
17201W        W89516   1.236  21.212  13.302
17202W        W89517  10.871  36.380   1.437
17203W        W89518  18.990  33.382   1.719
17204W        W89519  19.255  19.403  12.440
17205W        W89520  43.425  34.992   0.345
17206W        W89521  10.924  17.983  14.723
17207W        W89522  31.369   2.754   4.244
17208W        W89523  30.115  29.559   4.158
17209W        W89524  29.132   0.483   3.628
17210W        W89525  43.567  37.650  11.821
17211W        W89526  16.590  26.741   3.750
17212W        W89527  25.709  37.641  14.328
17213W        W89528   7.617  25.051  12.954
17214W        W89529  44.838  39.901   1.033
17215W        W89530  12.619  21.095  11.148
17216W        W89531  26.856  39.778  13.458
17217W        W89532   6.399   5.852  14.326
17218W        W89533  21.011  15.844  13.354
17219W        W89534   6.834   6.886   3.949
17220W        W89535   0.579  28.040  11.651
17221W        W89536  14.601  39.935  13.364
17222W        W89537  23.558  19.259  11.038
17223W        W89538  32.270  44.956  11.636
17224W        W89539  40.269  24.132   0.708
17225W        W89540   5.363   2.062  13.113
17226W        W89541  31.500   9.079   4.610
17227W        W89542  22.374  12.827   2.969
17228W        W89543  43.402  20.822   2.318
17229W        W89544  19.526  11.697  13.548
17230W        W89545  39.832  29.449   2.990
17231W        W89546   6.781  24.433   0.790
17232W        W89547  20.997  30.035  14.441
17233W        W89548  19.994  30.200   3.684
17234W        W89549  38.875  11.945  12.587
17235W        W89550  40.977  22.689  14.852
17236W        W89551   7.374  26.030  12.535
17237W        W89552  10.872   2.349   1.154
17238W        W89553  40.439  20.073   4.180
17239W        W89554  25.155   8.961  13.950
17240W        W89555  25.275   8.208  11.833
17241W        W89556   6.134   4.431   0.292
17242W        W89557  33.416  42.104  13.871
17243W        W89558  28.253  26.612   4.755
17244W        W89559  23.677   1.550   2.815
17245W        W89560  30.876  39.777  13.986
17246W        W89561   4.348   2.437  11.011
17247W        W89562  23.011  25.324   2.714
17248W        W89563  22.957  16.912   3.700
17249W        W89564  12.345  40.904  13.604
17250W        W89565   8.727  18.577   3.644
17251W        W89566  24.116  25.467  14.311
17252W        W89567  42.908  18.340  11.464
17253W        W89568   4.646  42.073  10.279
17254W        W89569  26.960   2.332  13.013
17255W        W89570  23.609  27.577  14.408
17256W        W89571  31.392  14.221   4.650
17257W        W89572  33.417   0.122  14.447
17258W        W89573  29.517  44.043  14.146
17259W        W89574  24.872  44.558   3.743
17260W        W89575   6.139   2.164   2.572
17261W        W89576  31.317  22.508  10.745
17262W        W89577  14.472  13.598   3.398
17263W        W89578  17.134  25.430  11.857
17264W        W89579  32.877  28.261   3.645
17265W        W89580  42.328  13.187  11.023
17266W        W89581  33.085  25.099  11.746
17267W        W89582  33.706  28.070   2.727
17268W        W89583  33.526  39.356   4.656
17269W        W89584   4.334  42.974  14.734
17270W        W89585  41.907  35.448  12.867
17271W        W89586  18.140   4.860   4.640
17272W        W89587   4.940  24.110   1.096
17273W        W89588  21.518   0.055   0.367
17274W        W89589   0.802  41.999   2.358
17275W        W89590  20.781  31.771   2.315
17276W        W89591   4.522  44.217   3.138
17277W        W89592  17.161  20.457  12.880
17278W        W89593   3.382   9.610  11.142
17279W        W89594  15.494  44.483   2.758
17280W        W89595   2.317  14.655  12.453
17281W        W89596  36.958  10.152   3.116
17282W        W89597  33.459   0.458  14.838
17283W        W89598  42.293  21.747  13.950
17284W        W89599  44.730  22.643  14.558
17285W        W89600  41.415  43.831   2.434
17286W        W89601   6.904  39.004   1.849
17287W        W89602  19.009  14.237  10.369
17288W        W89603  12.626  40.351  14.845
17289W        W89604  26.557  34.710  14.586
17290W        W89605   3.470  42.984   4.328
17291W        W89606  21.913  34.199   0.817
17292W        W89607   8.635   3.675   3.649
17293W        W89608  17.345   4.326   4.136
17294W        W89609  37.895  12.238  11.106
17295W        W89610  39.852  31.361   2.365
17296W        W89611  38.934  31.567  12.874
17297W        W89612  34.551  41.976  13.259
17298W        W89613  30.439  21.105   2.536
17299W        W89614  26.900  37.547  11.683
17300W        W89615  14.847   4.732  14.404
17301W        W89616  11.720  28.730   4.182
17302W        W89617  24.020  42.552   4.182
17303W        W89618  12.755  11.184  13.438
17304W        W89619  11.508  37.529   1.885
17305W        W89620   1.098  37.794   2.440
17306W        W89621  17.270  11.785  11.695
17307W        W89622  35.897  25.398   2.260
17308W        W89623  31.648   2.752  10.687
17309W        W89624  19.157  33.542   1.190
17310W        W89625  31.386  16.787  14.073
17311W        W89626   0.581  11.393   4.554
17312W        W89627  35.730   2.402   2.242
17313W        W89628   1.899  37.300  11.828
17314W        W89629   6.717  39.538   1.860
17315W        W89630  31.694  24.001  14.959
17316W        W89631  14.218  10.162  11.453
17317W        W89632   5.822   1.304   2.405
17318W        W89633  25.506   9.668   1.454
17319W        W89634  41.766   0.369   3.168
17320W        W89635   2.435   8.160   1.883
17321W        W89636  32.520   2.457   1.887
17322W        W89637   2.226  35.600  12.497
17323W        W89638   3.407  23.348  10.672
17324W        W89639   9.381  38.360   3.827
17325W        W89640   9.895  10.377   0.216
17326W        W89641  23.002  20.295  14.033
17327W        W89642   8.834  37.705   9.884
17328W        W89643  17.298  25.026  13.864
17329W        W89644  32.927  23.281   2.320
17330W        W89645  34.737   4.181  13.919
17331W        W89646  14.803  39.846  14.851
17332W        W89647   2.251  13.273   3.249
17333W        W89648   9.195   2.361  14.751
17334W        W89649   2.501  12.068   3.809
17335W        W89650  32.287  30.551   5.427
17336W        W89651  37.388  29.515   0.938
17337W        W89652  12.669  15.551  12.163
17338W        W89653  34.679  23.737   2.705
17339W        W89654   3.388  24.104   4.175
17340W        W89655  27.417  37.519  11.659
17341W        W89656  32.412  35.308   3.732
17342W        W89657  22.599  44.523  10.749
17343W        W89658  14.745  21.313   1.271
17344W        W89659  16.506  42.902   0.211
17345W        W89660  14.336  37.419   0.913
17346W        W89661  23.524  19.550   0.907
17347W        W89662  17.235  37.067  11.194
17348W        W89663  34.555  20.122  12.083
17349W        W89664  34.000  42.814   0.314
17350W        W89665  18.851  10.783  14.366
17351W        W89666  32.785  26.467  12.784
17352W        W89667  42.843  20.126  13.556
17353W        W89668  21.943  35.247   4.156
17354W        W89669   3.048  10.008  11.117
17355W        W89670  32.110   2.206   3.583
17356W        W89671  13.309  41.013   1.551
17357W        W89672  29.155   9.001   1.706
17358W        W89673  35.547  44.869  12.612
17359W        W89674  10.122  30.950  11.098
17360W        W89675   1.680   9.188  12.053
17361W        W89676  18.318  18.628   1.416
17362W        W89677  39.477  41.103   3.808
17363W        W89678   5.159  41.457  13.043
17364W        W89679  43.201  26.872   4.495
17365W        W89680  29.127  31.813   5.014
17366W        W89681  36.109  18.921  14.922
17367W        W89682  12.265  11.700   1.225
17368W        W89683  39.124  20.692  14.304
17369W        W89684  23.582  23.178   4.575
17370W        W89685  41.738  38.177   4.956
17371W        W89686  41.945  33.024  12.697
17372W        W89687  41.353  43.630  12.880
17373W        W89688  35.338  40.033   3.840
17374W        W89689   6.003  11.097  12.341
17375W        W89690  14.187  24.192   2.174
17376W        W89691  40.537  37.703  12.993
17377W        W89692  28.239  17.806  12.383
17378W        W89693  42.251  28.631  11.269
17379W        W89694  22.005  26.644   2.375
17380W        W89695   6.649  25.112   0.909
17381W        W89696  35.521  22.822   1.793
17382W        W89697   9.884  25.509   1.527
17383W        W89698  14.382  10.830   2.283
17384W        W89699  12.209  13.608   4.812
17385W        W89700   2.979   5.692  12.551
17386W        W89701  40.280  30.626  12.576
17387W        W89702  15.546  15.260   0.363
17388W        W89703  15.972   3.711   2.614
17389W        W89704  36.621  13.492  11.330
17390W        W89705  39.338  23.002  14.550
17391W        W89706  40.797  41.332  14.879
17392W        W89707   4.833  21.952  14.606
17393W        W89708  15.523  31.462   4.189
17394W        W89709  19.103   6.850   3.700
17395W        W89710  37.544  25.921   4.667
17396W        W89711  24.746  18.598  13.417
17397W        W89712   6.181  36.489  10.720
17398W        W89713   7.795   0.268  12.049
17399W        W89714  42.747  12.888  12.519
17400W        W89715   4.728   1.865   1.694
17401W        W89716   7.388  32.160  14.319
17402W        W89717   0.203  31.580  14.403
17403W        W89718   7.180  30.821   3.336
17404W        W89719  33.167   8.283  11.882
17405W        W89720   7.075  14.274  12.503
17406W        W89721  32.542  24.485  10.706
17407W        W89722  11.267   4.495   1.786
17408W        W89723  18.230  34.873  13.007
17409W        W89724  24.540  26.036   0.434
17410W        W89725  34.496  38.688   3.369
17411W        W89726  33.889  22.752   2.353
17412W        W89727  18.271  33.854   2.429
17413W        W89728   7.811  40.912   2.246
17414W        W89729  12.735  34.761  13.449
17415W        W89730  29.160  10.199  11.038
17416W        W89731   0.306   9.327  12.193
17417W        W89732  21.182   3.143   4.160
17418W        W89733  14.620  16.971   0.613
17419W        W89734  26.254  12.379   2.330
17420W        W89735   3.708  44.823  13.074
17421W        W89736   4.336   0.814   4.117
17422W        W89737   6.163  23.719  10.531
17423W        W89738  22.001  19.905   4.698
17424W        W89739   4.834   3.947   4.542
17425W        W89740  43.839  42.114  14.439
17426W        W89741   7.293  24.731   1.881
17427W        W89742  23.703  20.779  11.132
17428W        W89743  13.997  43.679   4.763
17429W        W89744  11.175   8.110  11.284
17430W        W89745  15.564   2.668   1.881
17431W        W89746  22.450  19.224  13.987
17432W        W89747  32.065  27.668  12.674
17433W        W89748  36.414  25.030   5.137
17434W        W89749  18.516   4.033   3.308
17435W        W89750  21.772  31.171  12.500
17436W        W89751  38.949  16.169   0.713
17437W        W89752  30.344  37.339   4.641
17438W        W89753  37.128  27.251  13.932
17439W        W89754  28.182  13.591  13.132
17440W        W89755  22.438  38.023   4.264
17441W        W89756  43.642  15.259  10.356
17442W        W89757  26.142  18.255  11.372
17443W        W89758  32.688   8.230  12.032
17444W        W89759   3.420  24.906  13.858
17445W        W89760  31.215  14.762  13.017
17446W        W89761  22.664   0.557   4.532
17447W        W89762  11.194  19.697   4.881
17448W        W89763   9.665  21.823   4.402
17449W        W89764  13.298  38.149   2.084
17450W        W89765  40.343  42.054  13.854
17451W        W89766   0.285  16.321  14.167
17452W        W89767  12.896   0.827  13.747
17453W        W89768   8.143  37.301  11.061
17454W        W89769  30.092  14.632   3.283
17455W        W89770  30.085   6.829   1.204
17456W        W89771   7.704  32.913  10.689
17457W        W89772   2.259   2.686  11.359
17458W        W89773   8.255  18.609  10.651
17459W        W89774  24.232  18.499   0.263
17460W        W89775  23.144  36.388   2.496
17461W        W89776  32.213  38.573  13.435
17462W        W89777  41.191  19.693  11.574
17463W        W89778  43.392  40.398  14.380
17464W        W89779  24.339   6.407   3.123
17465W        W89780  33.317  11.226   0.822
17466W        W89781  40.067  18.786   0.800
17467W        W89782  22.098   5.403  11.441
17468W        W89783  25.472  19.998  13.688
17469W        W89784  35.016   9.117   3.289
17470W        W89785  34.583   5.174  14.350
17471W        W89786  28.887   6.160  14.945
17472W        W89787  33.573  44.717  11.108
17473W        W89788  15.058  35.977  14.949
17474W        W89789   7.863  27.042   0.773
17475W        W89790  12.660   8.777   4.475
17476W        W89791  29.907  16.774   0.780
17477W        W89792  25.207  19.036   2.753
17478W        W89793  14.618   6.788  10.682
17479W        W89794  24.405  43.443   2.692
17480W        W89795  28.033   0.895  13.460
17481W        W89796  42.887  22.622  12.054
17482W        W89797  37.920  39.815  14.488
17483W        W89798  15.223  12.716  10.410
17484W        W89799  21.313  31.394  12.453
17485W        W89800  19.762  21.077   2.597
17486W        W89801  10.346  23.227   4.130
17487W        W89802   8.904  39.675   1.428
17488W        W89803   5.812  24.446   0.782
17489W        W89804   3.267  30.979  12.893
17490W        W89805   1.689   4.438  10.683
17491W        W89806  35.141   6.824  10.775
17492W        W89807  10.241  17.167   0.080
17493W        W89808   0.873  11.912   2.867
17494W        W89809  27.214  19.811  11.833
17495W        W89810  29.524  39.569   2.289
17496W        W89811  40.443  22.451  12.413
17497W        W89812  33.186  14.018   1.150
17498W        W89813  30.640  27.162  12.324
17499W        W89814   2.944  14.181   4.309
17500W        W89815   6.698  17.099  14.043
17501W        W89816  40.413  43.536   3.300
17502W        W89817  34.622  28.235  14.337
17503W        W89818  14.294  12.236   4.732
17504W        W89819   6.666  18.634   3.319
17505W        W89820   2.346  13.175  11.204
17506W        W89821  16.721  12.221  14.757
17507W        W89822  19.967  32.015   3.826
17508W        W89823  24.688  35.110  10.441
17509W        W89824  20.619  31.955  12.572
17510W        W89825  18.221  37.032   3.134
17511W        W89826  42.258  42.347  14.303
17512W        W89827   8.187  44.335   0.952
17513W        W89828  27.309  14.603   4.520
17514W        W89829   1.580  27.227  12.915
17515W        W89830  28.719  42.287  10.997
17516W        W89831  36.371  19.154  10.842
17517W        W89832  43.314  11.541   4.104
17518W        W89833  11.340  27.636   3.289
17519W        W89834   3.406  10.348   2.264
17520W        W89835  12.352  29.058  13.612
17521W        W89836  18.678  19.203   0.498
17522W        W89837  39.341   4.874  14.043
17523W        W89838   9.666  22.735   1.738
17524W        W89839  10.514  38.832   2.672
17525W        W89840  12.012  10.494   2.263
17526W        W89841  22.961  18.935  10.105
17527W        W89842  37.963   9.852   1.721
17528W        W89843  34.629  30.935  12.443
17529W        W89844  29.949  24.575   3.968
17530W        W89845  14.699   3.196  12.235
17531W        W89846  38.564  31.920   2.766
17532W        W89847  25.706  22.793   1.579
17533W        W89848  44.547   2.857   2.438
17534W        W89849   2.274  29.182   3.220
17535W        W89850   4.934  35.521  13.850
17536W        W89851  15.293  21.549   0.692
17537W        W89852  19.949  27.632   0.030
17538W        W89853  16.141  41.667  12.933
17539W        W89854  15.146  13.983   1.718
17540W        W89855  14.282  33.837   3.612
17541W        W89856  26.597   5.432  12.159
17542W        W89857  14.842  10.922   2.460
17543W        W89858  14.925  39.752  10.235
17544W        W89859  40.717   0.559  13.266
17545W        W89860  24.911  15.206  14.258
17546W        W89861  26.569  22.657   4.635
17547W        W89862  19.305   8.565  11.423
17548W        W89863  35.923  13.050   3.834
17549W        W89864  41.916  22.741   0.160
17550W        W89865  13.940   8.414   1.948
17551W        W89866  24.503   4.405   0.035
17552W        W89867   4.845  19.705   0.859
17553W        W89868  33.957   8.370  13.888
17554W        W89869  17.496  12.777  11.096
17555W        W89870  27.621  19.084   2.914
17556W        W89871  43.986  14.324  13.331
17557W        W89872   6.514   8.637  14.279
17558W        W89873  30.493   3.736  14.061
17559W        W89874  33.037  14.574  10.723
17560W        W89875  44.392   7.966  10.659
17561W        W89876  42.819   6.090   4.119
17562W        W89877  44.836   6.068  10.699
17563W        W89878  22.969  14.395   1.672
17564W        W89879   5.884   7.663  12.722
17565W        W89880   6.785  19.944  11.602
17566W        W89881  40.129  16.382  13.322
17567W        W89882   4.782  32.568  11.591
17568W        W89883  44.383  40.788   1.426
17569W        W89884  15.993  15.044   1.623
17570W        W89885   7.513  11.170   2.975
17571W        W89886  12.198  26.949   4.192
17572W        W89887  34.999  35.383  13.838
17573W        W89888  37.655   3.874  14.940
17574W        W89889  11.275   0.207  11.248
17575W        W89890  11.643  44.408  10.331
17576W        W89891  11.365  21.388   4.039
17577W        W89892   1.720  42.029  13.913
17578W        W89893  34.614  25.024   3.476
17579W        W89894  29.664  33.513   2.572
17580W        W89895  39.460  10.999  11.612
17581W        W89896  18.856  39.199  10.091
17582W        W89897  25.294  28.160   2.886
17583W        W89898  10.854  43.925   0.634
17584W        W89899  28.917  30.168   2.142
17585W        W89900  33.455  30.607   2.844
17586W        W89901  24.191   4.189  14.066
17587W        W89902  39.546  10.665   1.013
17588W        W89903  35.106  41.361  14.404
17589W        W89904  26.140  10.330   3.131
17590W        W89905  43.067  36.475   2.388
17591W        W89906   0.934   5.867   2.587
17592W        W89907  34.798  39.465  12.415
17593W        W89908  33.866  34.536   2.162
17594W        W89909  16.526   2.826   1.346
17595W        W89910  18.517  27.888  14.963
17596W        W89911   7.492  32.385   1.824
17597W        W89912  11.673  30.638  13.770
17598W        W89913  41.790  15.287   4.128
17599W        W89914  16.532   5.212   3.207
17600W        W89915  30.577  17.971   0.303
17601W        W89916  25.501   4.460   4.998
17602W        W89917  14.923  36.873  11.192
17603W        W89918   2.915  14.372  10.714
17604W        W89919   0.129  24.292  12.396
17605W        W89920  17.351  35.947  14.421
17606W        W89921   4.268  27.223  13.531
17607W        W89922  30.076  31.249   1.258
17608W        W89923  23.171  29.549   0.384
17609W        W89924  13.109   7.739   5.011
17610W        W89925  32.456  19.290   0.119
17611W        W89926  18.655  30.960   1.229
17612W        W89927  15.793  27.053   4.688
17613W        W89928  20.497  23.252   2.232
17614W        W89929  38.396  43.360  11.921
17615W        W89930  35.917  19.974   1.036
17616W        W89931  23.574  14.159   4.839
17617W        W89932  30.195  23.944  14.950
17618W        W89933  17.260  12.604   0.869
17619W        W89934  36.608   6.245  11.740
17620W        W89935  12.268  12.178  11.435
17621W        W89936  43.420  30.194   2.446
17622W        W89937  39.399  40.091   2.395
17623W        W89938  31.997  35.271  13.612
17624W        W89939   5.352  14.919   3.291
17625W        W89940   7.638  33.966   0.470
17626W        W89941  17.472  10.419   2.730
17627W        W89942   9.925  12.693   4.151
17628W        W89943  18.729  43.060  12.424
17629W        W89944  43.089   5.972   3.695
17630W        W89945  19.746  10.625   2.741
17631W        W89946  12.899  25.598  11.147
17632W        W89947   0.829   7.638   0.628
17633W        W89948  19.269  16.057  11.391
17634W        W89949  19.060  20.684   3.821
17635W        W89950  32.700  16.903   0.886
17636W        W89951  19.201   4.300   4.589
17637W        W89952  23.027   5.413  13.879
17638W        W89953  18.710  26.427   0.240
17639W        W89954  15.375  29.886  10.716
17640W        W89955   1.720  32.413   1.866
17641W        W89956  15.957  33.924  11.464
17642W        W89957  35.788   2.250   4.568
17643W        W89958   0.871  43.005  10.263
17644W        W89959  17.898  41.745   5.211
17645W        W89960   4.850   5.684   0.304
17646W        W89961  30.349  34.580   1.885
17647W        W89962  27.372  44.709  11.047
17648W        W89963  35.990  22.748  10.747
17649W        W89964  14.653   6.701  12.516
17650W        W89965  25.566   8.189   2.637
17651W        W89966  40.963  36.567  13.925
17652W        W89967  10.656  37.846   0.341
17653W        W89968   8.180  21.203  14.264
17654W        W89969   7.840  40.203   2.805
17655W        W89970   3.135  37.816  13.964
17656W        W89971  18.600  36.526   1.713
17657W        W89972  42.438  44.838  10.392
17658W        W89973  25.274  15.547   5.142
17659W        W89974  15.101  27.058  13.544
17660W        W89975  23.708  38.124   2.247
17661W        W89976  17.178  38.092  12.993
17662W        W89977   5.884  15.073  11.066
17663W        W89978  25.104  42.309  10.959
17664W        W89979   6.186  39.487   3.728
17665W        W89980  29.598  37.928  11.827
17666W        W89981  37.191  27.910  11.516
17667W        W89982  40.078   2.306   1.246
17668W        W89983   1.451   7.236   0.371
17669W        W89984  27.117  35.657  10.462
17670W        W89985  43.043  24.570   2.906
17671W        W89986  13.504  32.470  12.140
17672W        W89987   2.218   0.508  11.120
17673W        W89988   8.893  43.244  11.765
17674W        W89989  29.486  15.004   0.920
17675W        W89990  17.039  26.576   1.916
17676W        W89991  30.131  18.259   0.628
17677W        W89992   5.648   0.464   0.919
17678W        W89993  30.139   3.381   4.349
17679W        W89994  42.759   5.875  13.800
17680W        W89995  20.751   7.325  14.127
17681W        W89996  43.338  29.987   3.726
17682W        W89997  10.295  15.663   0.883
17683W        W89998  11.631  36.288  11.413
17684W        W89999   0.076   5.917  14.296
17685W        W90000  31.658  29.408  13.520
17686W        W90001  27.393  37.845   2.881
17687W        W90002  32.064   7.266  12.474
17688W        W90003  11.844   8.417   1.249
17689W        W90004  41.339  34.097   2.352
17690W        W90005  39.136  23.399   5.575
17691W        W90006  39.068  41.402   4.592
17692W        W90007   6.526  41.844  13.841
17693W        W90008  43.439  43.305  12.644
17694W        W90009  25.534  31.294  10.697
17695W        W90010  36.833   7.021  10.879
17696W        W90011  29.139   4.838   1.837
17697W        W90012  23.119  14.380  13.719
17698W        W90013  32.119  36.077   3.330
17699W        W90014  32.924   0.402   0.349
17700W        W90015  42.551  26.012   0.444
17701W        W90016   7.599  14.165  12.463
17702W        W90017   3.730   9.688  10.773
17703W        W90018  26.944   6.175   3.618
17704W        W90019  18.007   9.605   4.160
17705W        W90020   1.512   9.877   0.822
17706W        W90021  10.644  40.981  12.446
17707W        W90022  19.671  41.789   4.487
17708W        W90023  22.550  22.483  10.061
17709W        W90024  29.957  36.636   0.949
17710W        W90025   7.980  18.217   0.157
17711W        W90026  30.225   7.924   0.067
17712W        W90027  26.384  34.135  13.944
17713W        W90028  10.098  31.947  12.059
17714W        W90029  18.827  25.497  14.450
17715W        W90030  20.234  12.261  12.437
17716W        W90031  36.777  20.970  11.123
17717W        W90032  11.155  28.115  11.422
17718W        W90033   0.075  32.144   1.076
17719W        W90034  17.522  33.680   0.478
17720W        W90035  15.602  32.108   1.022
17721W        W90036  10.080  27.618   0.821
17722W        W90037  35.896  27.476  10.701
17723W        W90038  33.641   4.421  11.507
17724W        W90039   4.261  19.742   4.565
17725W        W90040  20.975  25.614  12.869
17726W        W90041   2.359  22.614  10.332
17727W        W90042  22.430  24.002   0.939
17728W        W90043  41.612   5.080  11.663
17729W        W90044  30.617  23.313   4.879
17730W        W90045  39.537  26.965  12.369
17731W        W90046  44.526  23.028   4.094
17732W        W90047  16.749  34.615   1.237
17733W        W90048  38.881   5.264  14.310
17734W        W90049   9.460  24.827  12.137
17735W        W90050  38.270  15.266   4.249
17736W        W90051   6.668  18.013  13.450
17737W        W90052  26.015  34.070   1.161
17738W        W90053   0.830  16.058  11.735
17739W        W90054   0.710  17.030  10.755
17740W        W90055   4.971  24.760   3.746
17741W        W90056  40.559  15.997  11.949
17742W        W90057  37.610  11.093  14.818
17743W        W90058  10.146  11.299  13.022
17744W        W90059  37.491  34.848   4.245
17745W        W90060  23.922  14.179   1.355
17746W        W90061  34.828  36.083  13.203
17747W        W90062   2.202  21.996   1.302
17748W        W90063  21.035  31.127   3.727
17749W        W90064  15.858   1.141  11.216
17750W        W90065   7.199  34.995  12.122
17751W        W90066  41.372  12.367  11.734
17752W        W90067  41.981  24.916   5.099
17753W        W90068  31.061  27.492   3.793
17754W        W90069   3.575  20.999  14.255
17755W        W90070  10.125  10.383  14.395
17756W        W90071  14.402  17.871  14.358
17757W        W90072  23.331  19.095  12.466
17758W        W90073  21.448   4.361   4.655
17759W        W90074  43.060   3.364  11.551
17760W        W90075   1.534  40.357   2.667
17761W        W90076   7.193  39.878  10.751
17762W        W90077  34.430  11.142  11.664
17763W        W90078  43.018  40.767   0.774
17764W        W90079  25.025  18.018   1.171
17765W        W90080  35.380   7.395   0.268
17766W        W90081  14.451  16.204   1.668
17767W        W90082  30.666   8.482   0.836
17768W        W90083   9.299  11.871  11.545
17769W        W90084  25.508   3.360   0.941
17770W        W90085  37.792  33.483  13.120
17771W        W90086  43.219  30.231  12.514
17772W        W90087  35.218  19.729  11.152
17773W        W90088  12.709  44.354   2.159
17774W        W90089  32.325  34.043   0.243
17775W        W90090  32.558  38.487   4.245
17776W        W90091   9.926   5.297  13.524
17777W        W90092  23.142  18.117  13.139
17778W        W90093  11.174  27.570  14.478
17779W        W90094   2.335  16.568   2.278
17780W        W90095  12.879  13.731   1.461
17781W        W90096  42.904  32.957  10.668
17782W        W90097  11.370  35.238   1.940
17783W        W90098  22.656  41.534   4.934
17784W        W90099  36.060  22.004  12.002
17785W        W90100   7.026  25.305   1.248
17786W        W90101  44.836  24.661   5.021
17787W        W90102  37.563  34.326  12.444
17788W        W90103  19.575  20.978  13.083
17789W        W90104   0.956   7.889  14.287
17790W        W90105   9.970   4.551  12.807
17791W        W90106  11.265  37.757   3.567
17792W        W90107  14.024  38.286   1.948
17793W        W90108   1.323  29.272  10.871
17794W        W90109  19.134  37.373  13.905
17795W        W90110  22.644  16.229  13.616
17796W        W90111  12.394   0.891  13.854
17797W        W90112  16.783  19.128  13.382
17798W        W90113  17.693  31.968   4.700
17799W        W90114   6.447   4.693   2.485
17800W        W90115   0.406  42.924   2.605
17801W        W90116  17.201   2.816  13.045
17802W        W90117  31.599  13.309   1.725
17803W        W90118  29.188  26.926  14.969
17804W        W90119  24.462   6.705   1.414
17805W        W90120  37.022   6.461   2.828
17806W        W90121  13.735  11.460   4.921
17807W        W90122  37.377  31.846  11.598
17808W        W90123  12.564   7.259  12.112
17809W        W90124  36.466  14.323  10.104
17810W        W90125  33.118  10.699   2.916
17811W        W90126  35.027  43.337   3.694
17812W        W90127  38.095  42.310   4.177
17813W        W90128  31.780   2.583  12.796
17814W        W90129  37.031  36.314  11.525
17815W        W90130  25.683  19.119  12.976
17816W        W90131  41.334   8.391   2.783
17817W        W90132  16.803  18.338  12.386
17818W        W90133  33.082  36.348   4.297
17819W        W90134   9.422   6.761   0.510
17820W        W90135  23.563  34.561   4.552
17821W        W90136  16.085  25.067  11.145
17822W        W90137  22.713   7.195  10.692
17823W        W90138  21.201  33.133  11.950
17824W        W90139  35.169  19.568   2.711
17825W        W90140  16.725  44.375   1.556
17826W        W90141  21.987  24.541  11.209
17827W        W90142  24.865  15.838  13.494
17828W        W90143  21.686   5.888  13.877
17829W        W90144  36.243  28.100  12.612
17830W        W90145   0.350  12.762   5.507
17831W        W90146   3.881   8.342  12.148
17832W        W90147  10.247  22.015   0.766
17833W        W90148  26.144   4.402   4.644
17834W        W90149  27.436  11.400  10.595
17835W        W90150  43.877  32.320   2.720
17836W        W90151  24.728  28.045   3.256
17837W        W90152  36.149  25.442   0.348
17838W        W90153  39.271  38.979  13.625
17839W        W90154  10.829   5.398   1.777
17840W        W90155  28.590  14.340  14.306
17841W        W90156  37.357   8.685  11.852
17842W        W90157  16.897  32.590   4.513
17843W        W90158  37.377  42.875   4.686
17844W        W90159  16.218  11.258  10.345
17845W        W90160   0.962   0.337   1.780
17846W        W90161  14.482   0.271   3.353
17847W        W90162  34.509  44.717   0.757
17848W        W90163  39.507  33.137  10.755
17849W        W90164   8.736  19.012   3.931
17850W        W90165  15.056   5.192  14.366
17851W        W90166   9.766  15.615  14.659
17852W        W90167  39.614   4.815   4.136
17853W        W90168  30.646  30.659  13.925
17854W        W90169  32.862  39.822   3.670
17855W        W90170  43.540  30.069  14.896
17856W        W90171  40.093   2.557   0.782
17857W        W90172  26.013   4.435   2.234
17858W        W90173  18.800   6.888  11.006
17859W        W90174  41.499  29.397  12.136
17860W        W90175   2.482   6.687   4.898
17861W        W90176  18.661  38.933  11.587
17862W        W90177  37.316  28.615  13.870
17863W        W90178  25.702   6.638   3.749
17864W        W90179  10.727  43.911   4.221
17865W        W90180  38.766  19.676   3.154
17866W        W90181  38.463  22.483   1.282
17867W        W90182   8.562  17.819  10.315
17868W        W90183  36.493  10.657  14.251
17869W        W90184  13.197  25.607   0.695
17870W        W90185  21.907   7.897   3.504
17871W        W90186   0.624  11.892   3.345
17872W        W90187  19.068   4.320   4.089
17873W        W90188  28.189  24.506  11.109
17874W        W90189  12.715  20.756  13.455
17875W        W90190   3.417  43.003   1.384
17876W        W90191  35.516  12.092   2.451
17877W        W90192  11.560  42.491  11.525
17878W        W90193  24.450  37.453   0.795
17879W        W90194  21.037  38.702   4.066
17880W        W90195   7.246  26.845   2.406
17881W        W90196  16.195   2.273  11.923
17882W        W90197  25.435  40.978  10.758
17883W        W90198   7.317  24.128  14.747
17884W        W90199   9.833   6.708   3.241
17885W        W90200  41.992   1.725  10.399
17886W        W90201  20.592  15.535  12.069
17887W        W90202  25.217  29.432  14.334
17888W        W90203   3.342  16.713  10.178
17889W        W90204  33.495  42.631  11.466
17890W        W90205  13.849   6.523   1.740
17891W        W90206  23.667  37.105   4.239
17892W        W90207  29.275   7.997  12.939
17893W        W90208  39.557  28.719   2.716
17894W        W90209  41.660  44.051  12.593
17895W        W90210  12.373  16.727   0.729
17896W        W90211  32.907  12.846  10.839
17897W        W90212  18.868  18.940   4.785
17898W        W90213  34.478   5.547   0.733
17899W        W90214  14.865  33.503  12.810
17900W        W90215  18.359  36.849   0.316
17901W        W90216  13.811  37.896  12.040
17902W        W90217  13.143   1.877   4.325
17903W        W90218   3.991  17.524   0.989
17904W        W90219  44.010  42.036  11.645
17905W        W90220  19.388  43.906  11.936
17906W        W90221  12.825  17.206   0.190
17907W        W90222  14.718  31.842   3.212
17908W        W90223  15.584  16.735  12.748
17909W        W90224  25.259  14.207  11.928
17910W        W90225  11.972  36.845  12.455
17911W        W90226  35.967  15.217   3.549
17912W        W90227   6.882  10.846   1.267
17913W        W90228  37.154   0.232  14.919
17914W        W90229   1.735  23.573  12.106
17915W        W90230  40.094   3.559   2.709
17916W        W90231  17.331  22.939   1.363
17917W        W90232  44.796  35.087  10.757
17918W        W90233  19.700  30.240  10.971
17919W        W90234  17.334   9.537  11.929
17920W        W90235   0.926  35.676  10.713
17921W        W90236   7.814  42.535  11.652
17922W        W90237  38.835  31.050   1.489
17923W        W90238  25.200  40.801   3.767
17924W        W90239   9.684  18.648   9.699
17925W        W90240  37.342   8.574  11.370
17926W        W90241   2.392   5.602   1.389
17927W        W90242  31.483   6.592  12.156
17928W        W90243  35.915  12.518   3.893
17929W        W90244   3.914  17.064   4.093
17930W        W90245  38.386  28.671  13.926
17931W        W90246  34.979  41.823   4.559
17932W        W90247   2.960  15.985   3.431
17933W        W90248  24.622   2.137  14.432
17934W        W90249   9.808  31.038   0.664
17935W        W90250   3.367  10.916  14.927
17936W        W90251  37.801   7.795   2.438
17937W        W90252  39.526  27.524  13.076
17938W        W90253  35.177  32.168  12.060
17939W        W90254  34.793   8.674  13.779
17940W        W90255  23.069  32.282   3.218
17941W        W90256   8.644  17.853   1.752
17942W        W90257  41.274  40.743  14.392
17943W        W90258  14.948  22.782   3.846
17944W        W90259   6.295  39.965   3.551
17945W        W90260   4.729   7.712   1.418
17946W        W90261   8.711  40.845   4.589
17947W        W90262   8.427  14.080   1.249
17948W        W90263  43.411  25.790   1.884
17949W        W90264  28.254  43.734  12.997
17950W        W90265  16.298   8.240  11.024
17951W        W90266  25.026   9.226  10.356
17952W        W90267  31.407   1.554  13.737
17953W        W90268  30.545  32.227  13.398
17954W        W90269  33.885  31.140   1.321
17955W        W90270  20.799  41.892   1.954
17956W        W90271   9.135  44.496  13.016
17957W        W90272   5.156  31.287   3.255
17958W        W90273  19.793  20.515  13.052
17959W        W90274  33.793  34.212   1.330
17960W        W90275   1.659  39.004   4.701
17961W        W90276  27.188   9.291  12.653
17962W        W90277  25.742   5.633   0.944
17963W        W90278   4.022  21.140   3.768
17964W        W90279  23.219  23.577   4.652
17965W        W90280  33.439  29.183  10.981
17966W        W90281   0.295   9.331  11.694
17967W        W90282  24.496  25.088  12.613
17968W        W90283  25.202  15.698  12.530
17969W        W90284  10.591  14.360   2.295
17970W        W90285  43.936  32.725   0.790
17971W        W90286  23.797  20.466   2.705
17972W        W90287  38.594  14.725  13.968
17973W        W90288   1.382   2.189  10.645
17974W        W90289  10.834  37.691   1.804
17975W        W90290  22.112  12.953  12.445
17976W        W90291  15.240  32.599  12.761
17977W        W90292  35.794  29.984   2.275
17978W        W90293   1.959  36.019   3.102
17979W        W90294  44.955  35.520   1.100
17980W        W90295  22.069  13.220   3.119
17981W        W90296   1.618  24.706   2.798
17982W        W90297  41.677  28.583   0.342
17983W        W90298  36.962  14.665   4.378
17984W        W90299  34.161  18.102  11.366
17985W        W90300  38.393  14.548  11.653
17986W        W90301  16.523  20.749  14.025
17987W        W90302  42.259  28.558  12.644
17988W        W90303  22.540  30.169  11.181
17989W        W90304  14.543  14.687   1.047
17990W        W90305  10.337   4.409   5.212
17991W        W90306  26.216   2.381   1.253
17992W        W90307   7.955  33.434  10.726
17993W        W90308  40.733  35.392   4.201
17994W        W90309   4.747  36.451  10.661
17995W        W90310  40.632  39.348  14.409
17996W        W90311  23.622  31.726   0.497
17997W        W90312  29.060   5.704  10.561
17998W        W90313  35.389  18.150   3.477
17999W        W90314  16.611  29.989  14.991
18000W        W90315  42.239   8.151   1.760
18001W        W90316   5.333  35.342  10.753
18002W        W90317   1.982  12.223  12.110
18003W        W90318  43.965   2.193   2.674
18004W        W90319  38.491  30.691  12.947
18005W        W90320  42.570   9.792   4.646
18006W        W90321  38.524   6.776   3.121
18007W        W90322  29.542  30.657   0.441
18008W        W90323  38.497  43.981   2.116
18009W        W90324  37.277  12.828   2.553
18010W        W90325  31.079  31.523  12.700
18011W        W90326  44.968  10.214   2.728
18012W        W90327   1.971  12.636   2.226
18013W        W90328  22.524  16.060  12.172
18014W        W90329  39.643  16.220  13.463
18015W        W90330  20.958  19.035  14.080
18016W        W90331   4.242  19.390   3.317
18017W        W90332  27.132   5.478   2.226
18018W        W90333  32.147  29.471  13.395
18019W        W90334  38.851  28.937  13.849
18020W        W90335   8.656  30.614  14.781
18021W        W90336  12.062  23.187  10.638
18022W        W90337   2.256   7.634  13.445
18023W        W90338  30.132  33.080   4.384
18024W        W90339  11.721   5.117  11.360
18025W        W90340  22.213  30.434  13.404
18026W        W90341   5.236  37.354   2.696
18027W        W90342  42.852   9.215  11.574
18028W        W90343   0.432   6.708   4.592
18029W        W90344  27.752  30.741  13.610
18030W        W90345   3.261  10.664  13.488
18031W        W90346  33.024  24.203  13.707
18032W        W90347  23.139  28.912  13.281
18033W        W90348   7.348   9.215  14.296
18034W        W90349  19.134  27.429  13.857
18035W        W90350   5.897  43.536   1.872
18036W        W90351  23.470   9.912  14.458
18037W        W90352  43.319  26.982   2.843
18038W        W90353  41.477  36.907  11.118
18039W        W90354   4.139   6.231   0.229
18040W        W90355  22.398  23.673  14.792
18041W        W90356   2.082  37.298   4.986
18042W        W90357  39.092  37.110   2.589
18043W        W90358   2.327  15.338  11.172
18044W        W90359  35.310  15.117   4.127
18045W        W90360  27.386  22.163  14.061
18046W        W90361  44.928   5.416   2.891
18047W        W90362   9.951   0.734   2.679
18048W        W90363  18.117  33.079   1.988
18049W        W90364  23.674   7.214   1.301
18050W        W90365  21.663   3.673   2.256
18051W        W90366   4.442  19.092  14.316
18052W        W90367  17.709  16.097   3.703
18053W        W90368  16.238  26.630   3.354
18054W        W90369  29.047  36.427  11.794
18055W        W90370   4.935  12.646   3.710
18056W        W90371  11.526  41.596  11.588
18057W        W90372   6.187   0.190  12.657
18058W        W90373  41.375  23.552   0.006
18059W        W90374  15.135  18.517  14.522
18060W        W90375   9.405  22.164  14.930
18061W        W90376  15.144   0.389  13.164
18062W        W90377   3.555  39.477   0.748
18063W        W90378  44.710  17.601  14.757
18064W        W90379  43.518  21.282   0.471
18065W        W90380  33.814  28.943   1.594
18066W        W90381  44.288   2.491   4.891
18067W        W90382   9.665   5.762   2.354
18068W        W90383  13.295  20.473   4.836
18069W        W90384  12.715   8.964  13.700
18070W        W90385  40.441   3.663   1.017
18071W        W90386  27.520  17.105   3.133
18072W        W90387  15.101  44.339   2.373
18073W        W90388  30.594  19.326   2.017
18074W        W90389   2.868  17.348  12.488
18075W        W90390  41.799  39.619  10.805
18076W        W90391  39.992  15.299   1.686
18077W        W90392   9.518  43.530   3.611
18078W        W90393  38.636  23.473  14.735
18079W        W90394   0.263   5.419  12.669
18080W        W90395  11.632  24.596  13.406
18081W        W90396  33.431  26.746   3.212
18082W        W90397  36.557  29.095  10.749
18083W        W90398  20.665  10.185   2.893
18084W        W90399  14.904   7.663   2.768
18085W        W90400  40.009  36.364   1.339
18086W        W90401  11.561  21.047   9.984
18087W        W90402   8.863   2.696  10.951
18088W        W90403  25.344  31.325   4.106
18089W        W90404  19.302   5.765  14.744
18090W        W90405   8.152  25.665   0.163
18091W        W90406  38.052  31.850  13.855
18092W        W90407  10.101  44.327  14.301
18093W        W90408  44.914  29.682   0.312
18094W        W90409  13.431   1.985   0.660
18095W        W90410  36.112  34.193   4.634
18096W        W90411  12.743  19.780   2.399
18097W        W90412  34.930   1.674   4.563
18098W        W90413   7.957   1.034  10.559
18099W        W90414  44.306   7.719   0.353
18100W        W90415  41.562   1.298  14.500
18101W        W90416   3.998  15.000   0.510
18102W        W90417   4.836  17.201  13.817
18103W        W90418  27.579  14.137  13.310
18104W        W90419  24.077  19.711  11.532
18105W        W90420  39.403  10.453  13.859
18106W        W90421   1.103  44.517  13.076
18107W        W90422  33.612  44.974   0.719
18108W        W90423  13.649  36.115   0.304
18109W        W90424  26.542  36.805  12.136
18110W        W90425  40.783  25.212  10.702
18111W        W90426  16.230  37.213   2.685
18112W        W90427  28.222  13.342  11.687
18113W        W90428  21.576  18.450   1.938
18114W        W90429  29.200  39.748   1.413
18115W        W90430  40.184  34.345  11.295
18116W        W90431   7.605  16.524  14.245
18117W        W90432  39.318  43.927  11.112
18118W        W90433  16.696  43.802  14.924
18119W        W90434   9.415  33.079   0.692
18120W        W90435  42.400  21.905   3.115
18121W        W90436  19.723  38.846   2.646
18122W        W90437  27.388  34.606   3.073
18123W        W90438   9.302  19.266  11.845
18124W        W90439  32.631  11.191  10.616
18125W        W90440  37.245  32.439   0.240
18126W        W90441  22.474  15.769   1.872
18127W        W90442  19.193  20.244  12.418
18128W        W90443   2.341  42.595   1.806
18129W        W90444  14.047  40.317   2.651
18130W        W90445  35.810   1.516   1.289
18131W        W90446  21.622  38.291   2.773
18132W        W90447  42.762  44.373   1.857
18133W        W90448  28.312  42.311   0.277
18134W        W90449  19.122  25.212   3.443
18135W        W90450  44.533  17.640  11.045
18136W        W90451  33.047  19.770   1.960
18137W        W90452  34.580  39.286   2.290
18138W        W90453  18.246  25.363  14.903
18139W        W90454   2.540  23.050  13.714
18140W        W90455  24.027   7.307  10.917
18141W        W90456  38.412  28.793   3.949
18142W        W90457  35.556  21.344   4.060
18143W        W90458  20.274  16.716  12.864
18144W        W90459   7.418  42.533   0.014
18145W        W90460  15.002  38.322   0.473
18146W        W90461   3.305  16.292   3.070
18147W        W90462  19.708   8.384   5.160
18148W        W90463  30.443  43.539  13.729
18149W        W90464  44.392  19.935  12.079
18150W        W90465  44.176  40.863  11.094
18151W        W90466  33.817  40.231  11.370
18152W        W90467  18.681  11.175  14.963
18153W        W90468  43.618   9.966  10.195
18154W        W90469  33.259  36.333   3.030
18155W        W90470  39.804   7.721   0.689
18156W        W90471  39.608  22.134  10.573
18157W        W90472  39.876   1.443   1.706
18158W        W90473  24.676  28.291   3.708
18159W        W90474  27.411  22.014   2.046
18160W        W90475  42.779  35.010  10.412
18161W        W90476  14.758  38.332  13.086
18162W        W90477  28.928   2.313  10.759
18163W        W90478  37.794  32.244  10.374
18164W        W90479   7.855  13.668  12.466
18165W        W90480  24.831  39.393  11.315
18166W        W90481  10.813   8.196  12.456
18167W        W90482  44.448  27.705  10.828
18168W        W90483  10.398  15.701  10.601
18169W        W90484  42.953   6.011  14.705
18170W        W90485  20.239   3.799   2.230
18171W        W90486  23.948  31.044  10.537
18172W        W90487  12.778   2.281  12.006
18173W        W90488   6.817  32.809  13.466
18174W        W90489   3.742  27.148   3.107
18175W        W90490  23.498  40.036   1.317
18176W        W90491  16.994  10.507   5.230
18177W        W90492  28.166  14.456   5.101
18178W        W90493  20.253   0.680  13.528
18179W        W90494  17.263  36.356  14.972
18180W        W90495  26.261  14.536   0.331
18181W        W90496  34.960  42.975   0.377
18182W        W90497  33.136  18.253   2.881
18183W        W90498  10.362  43.506   1.740
18184W        W90499  41.976   5.240   3.401
18185W        W90500  12.896  23.112   0.560
18186W        W90501   5.648  16.979  10.602
18187W        W90502  33.168   5.308   3.248
18188W        W90503   4.335   7.227   4.495
18189W        W90504   2.887  21.177  11.557
18190W        W90505  27.068  43.148  14.757
18191W        W90506  28.400  10.870   4.203
18192W        W90507  31.586  43.535  13.580
18193W        W90508  42.712  17.122  12.419
18194W        W90509  42.382  33.505   3.114
18195W        W90510  32.566   7.185  12.049
18196W        W90511  15.657  19.958   3.692
18197W        W90512  10.283  28.552  11.899
18198W        W90513  38.022  43.409   0.870
18199W        W90514   9.923   7.448   0.782
18200W        W90515  23.503  32.428   0.908
18201W        W90516  43.438  22.975   4.379
18202W        W90517  15.073  28.395   0.786
18203W        W90518   7.066   2.366   0.667
18204W        W90519  10.824  24.749  14.398
18205W        W90520  12.334  37.422   4.467
18206W        W90521   5.362  40.445   1.015
18207W        W90522  22.542  16.228   3.726
18208W        W90523  16.842  14.010   4.088
18209W        W90524   1.114  25.439   1.064
18210W        W90525   9.258  17.364   2.209
18211W        W90526  41.386  28.507  11.105
18212W        W90527  23.390  30.706   1.672
18213W        W90528  28.844  22.029   2.176
18214W        W90529  42.994   7.782  14.994
18215W        W90530  24.595  31.114  14.835
18216W        W90531  20.566  24.514   0.484
18217W        W90532  39.798  43.406  14.026
18218W        W90533  44.453  39.586  13.455
18219W        W90534  29.087  33.593  14.226
18220W        W90535  26.649  42.329  11.971
18221W        W90536   2.223  20.786   3.398
18222W        W90537  28.917  20.603   3.737
18223W        W90538  28.625  10.229  13.031
18224W        W90539  42.337  34.947  11.631
18225W        W90540   2.224  12.588   0.223
18226W        W90541  39.541  39.327  11.164
18227W        W90542  21.572  41.179   2.788
18228W        W90543  40.857  32.670  13.235
18229W        W90544  20.075  13.267   3.771
18230W        W90545  42.473  15.468   0.144
18231W        W90546  28.744  10.292   2.124
18232W        W90547  32.335   2.908   3.336
18233W        W90548  27.695  34.095   2.285
18234W        W90549  42.546  28.263  11.071
18235W        W90550   9.669   2.265   1.460
18236W        W90551   0.026  13.879   3.241
18237W        W90552  37.315  23.299  12.957
18238W        W90553  13.639  27.948   3.219
18239W        W90554   6.660  21.686  13.438
18240W        W90555  39.786  42.379  14.409
18241W        W90556   6.498  38.435   0.007
18242W        W90557  16.682   9.190   2.827
18243W        W90558   4.928  39.499  14.475
18244W        W90559  33.538  14.789   1.838
18245W        W90560   4.313   2.250  13.937
18246W        W90561   9.564  16.616  11.121
18247W        W90562  31.834   6.743  11.752
18248W        W90563  34.091  40.024  10.586
18249W        W90564  15.241   4.403   0.892
18250W        W90565  40.454  12.714  11.739
18251W        W90566   9.934   1.502   2.516
18252W        W90567   6.878   0.321   4.067
18253W        W90568  30.787  19.603  12.986
18254W        W90569  19.236  16.046  13.295
18255W        W90570  35.908  18.610   3.243
18256W        W90571   4.183  23.980  13.005
18257W        W90572  17.542   7.133   3.214
18258W        W90573  34.321  42.828   2.731
18259W        W90574  31.179  44.344   4.078
18260W        W90575  30.030  35.464   1.689
18261W        W90576  27.435  30.172   2.468
18262W        W90577  14.237  26.132  11.149
18263W        W90578   6.279   7.838   4.727
18264W        W90579   7.817   8.352  14.985
18265W        W90580  20.548  29.378  12.962
18266W        W90581  20.149  26.954  14.472
18267W        W90582  28.751  17.923  13.546
18268W        W90583  17.820  44.201   2.204
18269W        W90584   6.753   0.814  10.656
18270W        W90585  44.741  19.726   4.078
18271W        W90586  16.909  14.071   2.727
18272W        W90587   2.292  39.907   2.363
18273W        W90588   5.474   9.616   4.170
18274W        W90589  29.176  18.326   0.804
18275W        W90590  12.725  11.180   3.244
18276W        W90591  20.049  14.338  12.501
18277W        W90592  24.647  41.287  13.283
18278W        W90593   1.810  31.989  10.924
18279W        W90594  33.318  38.266   3.587
18280W        W90595  23.951  17.136  12.452
18281W        W90596  15.201  28.585   2.746
18282W        W90597  19.131  31.373  12.941
18283W        W90598  24.579  41.223  14.369
18284W        W90599  22.685  24.457   0.921
18285W        W90600  30.470  13.305   3.119
18286W        W90601   8.218  16.363   3.297
18287W        W90602   9.469  14.189  12.994
18288W        W90603  23.064  16.254  11.476
18289W        W90604  39.961  42.286  11.648
18290W        W90605  10.996   5.466   0.016
18291W        W90606   0.310  38.904   2.184
18292W        W90607  21.530  39.873   1.153
18293W        W90608  13.003  38.213   1.657
18294W        W90609  36.846  43.030   3.178
18295W        W90610  40.101  44.271  14.266
18296W        W90611  28.489  35.229   3.799
18297W        W90612  36.578  24.204   1.948
18298W        W90613  19.591  35.558   4.848
18299W        W90614  28.038  12.702   0.160
18300W        W90615  35.525  29.923  13.044
18301W        W90616  28.435  34.876  14.784
18302W        W90617  43.678  20.235   3.284
18303W        W90618   7.363  37.082  14.043
18304W        W90619  44.859   5.406   1.809
18305W        W90620  10.238  42.527  12.974
18306W        W90621   6.528  35.812   3.634
18307W        W90622  11.266  15.307  11.091
18308W        W90623  22.054   5.815   2.609
18309W        W90624  10.739  18.775  14.321
18310W        W90625  17.507  26.623   0.007
18311W        W90626  15.746  43.444  10.684
18312W        W90627  12.688  26.195  12.331
18313W        W90628  41.831  10.823  14.796
18314W        W90629  29.014  23.660  13.683
18315W        W90630  17.898  11.700   4.663
18316W        W90631  42.035  15.769   1.425
18317W        W90632  26.393  31.422  14.016
18318W        W90633  33.431   2.735  13.515
18319W        W90634  43.475   1.651  12.603
18320W        W90635  12.894   7.762   3.613
18321W        W90636  22.326   8.785  13.466
18322W        W90637  30.175  28.948   2.797
18323W        W90638  40.971  35.865   4.135
18324W        W90639   3.844  13.883  10.622
18325W        W90640  25.111  14.389   0.696
18326W        W90641  44.109   3.681   4.237
18327W        W90642   3.207  28.875  14.363
18328W        W90643  39.632  37.435   1.711
18329W        W90644  22.975  10.849  14.460
18330W        W90645   2.213  12.190  14.433
18331W        W90646   6.624   5.226  12.090
18332W        W90647   5.918  10.421  12.954
18333W        W90648  44.306  15.759   0.918
18334W        W90649  26.023  17.875  11.679
18335W        W90650  25.016  37.204  11.624
18336W        W90651  17.068  10.421  13.449
18337W        W90652  43.291   6.904  14.754
18338W        W90653  12.422  21.090  14.955
18339W        W90654  14.804  12.734  10.094
18340W        W90655  18.479   1.850   2.341
18341W        W90656  20.229   8.729   2.340
18342W        W90657  44.558  26.341  10.131
18343W        W90658   2.818  43.476  12.071
18344W        W90659  35.014  16.898   4.523
18345W        W90660   1.396  19.462  11.232
18346W        W90661  27.351   6.441  11.968
18347W        W90662  17.108  34.553  10.161
18348W        W90663  26.017   1.293  12.097
18349W        W90664  43.410  29.530  10.161
18350W        W90665  12.651   3.486   1.410
18351W        W90666   8.519  16.629  10.147
18352W        W90667   2.455  24.233  14.522
18353W        W90668  44.509  17.244  13.047
18354W        W90669  18.728  22.533  10.808
18355W        W90670  31.916  35.249  10.521
18356W        W90671   7.182  18.462   3.177
18357W        W90672  34.584  29.948   0.882
18358W        W90673  30.924  20.967  14.674
18359W        W90674  17.001   6.323   0.720
18360W        W90675  37.276  33.880  12.343
18361W        W90676  25.577  42.768  14.962
18362W        W90677   8.446  20.537  10.570
18363W        W90678   1.210  41.308  12.433
18364W        W90679  10.741  15.683  14.947
18365W        W90680  30.231  31.190  12.125
18366W        W90681   2.675  42.779   4.982
18367W        W90682  36.518  20.940   1.613
18368W        W90683  15.789  19.046   1.679
18369W        W90684  33.262  44.343   3.623
18370W        W90685  43.313  39.356   0.872
18371W        W90686   6.924   8.448  12.364
18372W        W90687   8.215  44.073  13.160
18373W        W90688   0.306  39.074  12.058
18374W        W90689   4.074  10.890   0.426
18375W        W90690  26.541  39.827   1.261
18376W        W90691  20.657  10.799  10.115
18377W        W90692  16.222  38.935   1.711
18378W        W90693  19.550  16.742   0.882
18379W        W90694  11.746  42.627   0.121
18380W        W90695   0.836  35.124   4.133
18381W        W90696  11.635  12.073  13.534
18382W        W90697  12.334  18.067   9.682
18383W        W90698  39.057  29.009  11.512
18384W        W90699   4.816  32.609  11.070
18385W        W90700  44.689  43.050   1.619
18386W        W90701  12.757   6.655   2.743
18387W        W90702   6.176  38.055  13.390
18388W        W90703  35.447  43.932  12.903
18389W        W90704   3.993   6.314   0.713
18390W        W90705   1.506   2.660  13.931
18391W        W90706   4.893   9.368   0.413
18392W        W90707  13.323  13.300  11.538
18393W        W90708  38.482   3.015   0.274
18394W        W90709  34.548  37.071  12.928
18395W        W90710  13.520  36.415   0.782
18396W        W90711  17.301  19.609   3.094
18397W        W90712  14.897  15.181  13.958
18398W        W90713  34.962  13.689   4.238
18399W        W90714  24.257  27.019  10.713
18400W        W90715  20.125  25.698   4.243
18401W        W90716  36.440  29.860   0.053
18402W        W90717  41.201   9.400   1.712
18403W        W90718  19.617  31.318  12.738
18404W        W90719  40.450  11.728   0.331
18405W        W90720  39.355   9.212  13.565
18406W        W90721  15.665   0.410  13.968
18407W        W90722  35.472  10.120   0.379
18408W        W90723   7.579   4.932   0.841
18409W        W90724  16.479  19.774  12.427
18410W        W90725   1.225   2.880  14.908
18411W        W90726  19.777   5.775   4.689
18412W        W90727  16.764  26.021   2.947
18413W        W90728   2.416  25.666   0.507
18414W        W90729   4.937   4.963   0.953
18415W        W90730  35.939   7.057   0.669
18416W        W90731   5.449  32.170   2.132
18417W        W90732   6.444   9.827   3.700
18418W        W90733  29.081   9.699   3.365
18419W        W90734  31.050  36.832   0.532
18420W        W90735  36.569  16.088   1.425
18421W        W90736  22.515   1.410  11.373
18422W        W90737  41.065  34.023  10.691
18423W        W90738  30.665  18.397   1.802
18424W        W90739  44.452  42.985   2.891
18425W        W90740  25.436  24.219   4.945
18426W        W90741  34.422   0.008  10.689
18427W        W90742  30.529  24.292  14.472
18428W        W90743  19.760  30.759  13.527
18429W        W90744   5.519  16.997   2.427
18430W        W90745   8.693  40.230  11.536
18431W        W90746  11.773   9.688  13.919
18432W        W90747  10.274  37.810  11.733
18433W        W90748  27.601  29.360   0.842
18434W        W90749  17.354  41.393  10.519
18435W        W90750  31.400  41.805  14.901
18436W        W90751  28.580  19.931  12.239
18437W        W90752  13.847  31.078   1.924
18438W        W90753   4.971  19.152   1.224
18439W        W90754   5.461  30.092  12.891
18440W        W90755  11.750   7.596   1.746
18441W        W90756  10.763  31.975   0.772
18442W        W90757   7.597  39.135   4.074
18443W        W90758   8.946  30.107   3.859
18444W        W90759  16.184  36.215  10.584
18445W        W90760  41.487  38.596  14.628
18446W        W90761  40.227  29.330   0.377
18447W        W90762   9.849  23.624  11.842
18448W        W90763   3.225   7.712  10.731
18449W        W90764  20.638  22.218   3.133
18450W        W90765  21.455  14.734  11.897
18451W        W90766   2.726  38.925  10.709
18452W        W90767   7.103  28.136  12.946
18453W        W90768  41.257  16.913  14.564
18454W        W90769   4.274  22.408  13.506
18455W        W90770   1.369  31.731   1.330
18456W        W90771  23.074  11.193  10.738
18457W        W90772   8.134  36.027  13.277
18458W        W90773   1.100  28.147  13.470
18459W        W90774  21.083  26.634  12.988
18460W        W90775  23.605  37.092   2.369
18461W        W90776  35.336   4.675  10.651
18462W        W90777  35.231  12.330   0.167
18463W        W90778   8.973  38.729  14.915
18464W        W90779  10.829   3.385   3.664
18465W        W90780   3.482   4.375  14.860
18466W        W90781  14.346  15.275   4.186
18467W        W90782  15.859  13.432  10.694
18468W        W90783   0.311   1.694  10.642
18469W        W90784  22.449  22.615  14.277
18470W        W90785  14.777  13.583   0.333
18471W        W90786  18.725  23.466  13.620
18472W        W90787  24.817  41.935  10.551
18473W        W90788   4.203   2.918  14.339
18474W        W90789   3.864  28.544  13.837
18475W        W90790   5.414  36.966   0.481
18476W        W90791  39.980  36.531   4.552
18477W        W90792  19.608  22.715  11.182
18478W        W90793  14.002   4.737  11.125
18479W        W90794  33.488   0.940  13.767
18480W        W90795  27.086  15.726  11.174
18481W        W90796  13.063   2.452  12.426
18482W        W90797  11.430  42.351   0.634
18483W        W90798  10.796  38.504  12.885
18484W        W90799   2.478   5.090  11.057
18485W        W90800  32.401  26.585  12.437
18486W        W90801  18.155  14.092   3.695
18487W        W90802  28.258   6.284   4.433
18488W        W90803  12.524  43.198   3.186
18489W        W90804   0.383  27.360   2.436
18490W        W90805   1.541   3.485   2.655
18491W        W90806  29.431  38.533  13.929
18492W        W90807  38.149  32.992  14.397
18493W        W90808  32.668  42.794   2.232
18494W        W90809  21.526  31.950  11.317
18495W        W90810  37.458  31.462   1.318
18496W        W90811   6.959  32.617  10.986
18497W        W90812  18.878  38.132  14.925
18498W        W90813  43.828  10.446   1.204
18499W        W90814   3.950  44.246  11.812
18500W        W90815  15.721  11.423  10.260
18501W        W90816  40.040  11.341   0.985
18502W        W90817  19.317  36.424   3.858
18503W        W90818   0.915  25.248  12.161
18504W        W90819  39.225  17.148   3.156
18505W        W90820  36.287  28.066   0.950
18506W        W90821   0.099  17.474  13.645
18507W        W90822  13.575  34.601  14.480
18508W        W90823   9.113  14.583  12.952
18509W        W90824  42.862  13.243   1.080
18510W        W90825  16.813  22.952   3.502
18511W        W90826  35.000  14.154   4.010
18512W        W90827  29.223  38.750  12.064
18513W        W90828  21.231   9.521  11.239
18514W        W90829   0.731  12.128   0.342
18515W        W90830   1.652  18.779   0.913
18516W        W90831  11.172  44.165   2.341
18517W        W90832  28.428  18.525   1.903
18518W        W90833  24.076  12.510   4.273
18519W        W90834  16.722   8.194  12.868
18520W        W90835   4.659  27.561  13.327
18521W        W90836   2.438  36.910  11.761
18522W        W90837  15.369   8.637  10.603
18523W        W90838  40.682  24.180  14.698
18524W        W90839  16.935  17.924   0.301
18525W        W90840  13.166   3.892   2.756
18526W        W90841  19.102  38.899  14.442
18527W        W90842  23.597   9.996  10.092
18528W        W90843  31.185  17.187  13.392
18529W        W90844  29.366  40.422  13.122
18530W        W90845  17.841   9.686  11.954
18531W        W90846  38.159  11.365  11.584
18532W        W90847  29.442   5.340   0.065
18533W        W90848  28.421  37.457  11.574
18534W        W90849  21.672  18.367  12.361
18535W        W90850   5.689  41.401  13.012
18536W        W90851  41.480  14.673  13.989
18537W        W90852  31.948   6.430  12.970
18538W        W90853   1.413  27.573   4.467
18539W        W90854  40.549   4.685  12.247
18540W        W90855  39.398  44.511  12.354
18541W        W90856  30.419  33.335  14.125
18542W        W90857  31.472  25.298   2.867
18543W        W90858  28.040   3.708  11.907
18544W        W90859  29.461  10.385  10.646
18545W        W90860  41.599  44.904  11.990
18546W        W90861  38.332  34.776  13.552
18547W        W90862  14.308  11.811   3.752
18548W        W90863  16.713  42.875  11.730
18549W        W90864  19.494  28.538   4.053
18550W        W90865  10.318  40.075   0.223
18551W        W90866   3.080   9.577   1.699
18552W        W90867  16.170   1.495  11.627
18553W        W90868   1.347   0.691   3.691
18554W        W90869   7.684  38.851   3.198
18555W        W90870  18.817   3.316   2.790
18556W        W90871  27.900  35.851   2.932
18557W        W90872  30.007   3.727  12.739
18558W        W90873   8.815  40.417   3.589
18559W        W90874   2.883   6.325   3.968
18560W        W90875  23.206  12.277   1.891
18561W        W90876  11.038  27.452   3.752
18562W        W90877  20.535   6.369  13.799
18563W        W90878  37.859  12.441  14.814
18564W        W90879  17.307  44.455   4.053
18565W        W90880  43.097   3.766   3.221
18566W        W90881  21.617  16.610  12.495
18567W        W90882  28.003  20.162  13.534
18568W        W90883  35.976  17.682   3.397
18569W        W90884  20.072   0.771   2.257
18570W        W90885   4.338   1.571  14.228
18571W        W90886   8.024  29.058  11.140
18572W        W90887  27.147  25.619   2.133
18573W        W90888  18.813  36.381  10.512
18574W        W90889  33.620  36.840   2.310
18575W        W90890   2.344   0.294   0.052
18576W        W90891  22.797   4.866  11.143
18577W        W90892  19.622  25.033   3.312
18578W        W90893   1.432  20.766  13.486
18579W        W90894  16.261  29.061  11.944
18580W        W90895  17.509   0.708   3.825
18581W        W90896  14.251  43.539   4.166
18582W        W90897  42.998  43.825  13.879
18583W        W90898  12.077  19.192   1.230
18584W        W90899   6.432   4.931  12.473
18585W        W90900  10.769  37.670   3.565
18586W        W90901   3.412  41.821   1.844
18587W        W90902  36.900  40.531   3.102
18588W        W90903  17.981   7.820  11.924
18589W        W90904   4.868  23.854   3.500
18590W        W90905  27.301  13.131   1.779
18591W        W90906  28.687  35.060   0.772
18592W        W90907  13.110  36.553  14.416
18593W        W90908  13.179  32.993   3.856
18594W        W90909  16.108  23.235   0.837
18595W        W90910  42.839  16.803   4.582
18596W        W90911   8.198   9.838   0.976
18597W        W90912  12.664  24.484   2.743
18598W        W90913  10.242  37.985  11.208
18599W        W90914  35.075  40.346  13.533
18600W        W90915  20.742   5.832   3.127
18601W        W90916  13.042  42.407  11.998
18602W        W90917  20.090   2.306   0.883
18603W        W90918  27.156  14.790  14.562
18604W        W90919  28.143  35.578  12.370
18605W        W90920  26.503  18.645   4.837
18606W        W90921   6.736  14.690   2.897
18607W        W90922  24.096  15.663  12.443
18608W        W90923   5.504  29.919  14.782
18609W        W90924  35.394  36.339   0.929
18610W        W90925  34.647  40.551  13.729
18611W        W90926  39.513   8.812  13.859
18612W        W90927   4.201  37.858   3.890
18613W        W90928  16.183  39.364   2.313
18614W        W90929  16.570   7.545  12.046
18615W        W90930  19.344   3.255   1.616
18616W        W90931  31.013  33.670  13.454
18617W        W90932  10.069  30.568   0.011
18618W        W90933  33.117  18.593  14.385
18619W        W90934   1.950  17.579  11.062
18620W        W90935  24.930  18.281  12.553
18621W        W90936   7.864  39.126   3.632
18622W        W90937  35.833   0.972   1.266
18623W        W90938  10.087  34.868   4.667
18624W        W90939  30.974  41.116  12.984
18625W        W90940  37.069  20.060   2.919
18626W        W90941  28.526  43.301  11.848
18627W        W90942  21.256  36.520   0.253
18628W        W90943  21.061  11.605   0.918
18629W        W90944  26.413   0.763   0.446
18630W        W90945  12.733  11.162   4.174
18631W        W90946  15.726   8.096  12.582
18632W        W90947   7.689  41.933   0.019
18633W        W90948  34.429  42.016   3.652
18634W        W90949   3.938  31.455  12.459
18635W        W90950  20.923  36.770  12.429
18636W        W90951  23.015  25.029   3.625
18637W        W90952  12.268  38.541  12.187
18638W        W90953   1.052  31.162  14.916
18639W        W90954   4.704   1.468  12.848
18640W        W90955   0.775  40.361  10.700
18641W        W90956  14.132  23.191   2.094
18642W        W90957  42.812  29.873   0.331
18643W        W90958   0.410  39.196   3.522
18644W        W90959   5.976  19.706  11.971
18645W        W90960  11.934  15.201   3.662
18646W        W90961  10.277   6.810  12.924
18647W        W90962   9.061  14.545  11.085
18648W        W90963  27.931   6.455  13.712
18649W        W90964  26.680  25.499   0.349
18650W        W90965  10.569   5.203   0.388
18651W        W90966  29.760   4.068   0.795
18652W        W90967  10.921  19.539  10.665
18653W        W90968  39.509  29.259  10.627
18654W        W90969  25.561   3.033  14.263
18655W        W90970  17.053   2.497   2.892
18656W        W90971  10.478  10.713   1.595
18657W        W90972  26.049   2.381  14.549
18658W        W90973   0.588  23.252   2.102
18659W        W90974  32.059  15.343   2.436
18660W        W90975  29.591  40.067   1.299
18661W        W90976  37.957  23.496   0.807
18662W        W90977   1.017  39.456  14.902
18663W        W90978  20.218   4.908  12.967
18664W        W90979  43.798  20.982   0.814
18665W        W90980  38.593  22.241   0.627
18666W        W90981   8.659  25.498   4.657
18667W        W90982  38.123  15.537   3.696
18668W        W90983  29.607   7.753   0.871
18669W        W90984  39.278  24.103  10.770
18670W        W90985   9.003  33.470  10.731
18671W        W90986  40.472  32.101  12.633
18672W        W90987  22.958   5.882   3.103
18673W        W90988  13.732   0.828  14.478
18674W        W90989  21.279  29.901   3.343
18675W        W90990  26.399  21.522   2.329
18676W        W90991  10.427  24.529  12.939
18677W        W90992  12.321  31.412  12.138
18678W        W90993  19.789  28.050  13.901
18679W        W90994  32.768  44.566  10.186
18680W        W90995   1.828   4.779  14.889
18681W        W90996  23.744   0.696  13.756
18682W        W90997  21.337  40.933   0.993
18683W        W90998   2.971   2.418  13.960
18684W        W90999   0.106  14.992   2.472
18685W        W91000  17.102  23.221  14.935
18686W        W91001  31.918   8.374   1.243
18687W        W91002  41.189  10.811  13.411
18688W        W91003  18.799  16.991   2.734
18689W        W91004  19.070  20.475  13.617
18690W        W91005  44.454   9.594  14.819
18691W        W91006  16.271  31.128  13.109
18692W        W91007  12.290  41.408  13.823
18693W        W91008  17.541  41.459   3.617
18694W        W91009  36.134  12.465   2.834
18695W        W91010  20.690  11.167  11.293
18696W        W91011  37.368  23.702   1.890
18697W        W91012   6.382   4.000  14.017
18698W        W91013  28.711  44.338   0.280
18699W        W91014   4.940  10.297  14.032
18700W        W91015  36.815   6.748   0.824
18701W        W91016  25.734  36.788   1.990
18702W        W91017  44.356  21.987  12.066
18703W        W91018   1.274  39.726   3.204
18704W        W91019  29.906  28.566   0.465
18705W        W91020  12.437  35.276  14.358
18706W        W91021  24.695  39.303   1.763
18707W        W91022  24.746   8.752   2.377
18708W        W91023  35.966  21.329  14.884
18709W        W91024  22.789  27.511   0.186
18710W        W91025   4.660   1.784   3.409
18711W        W91026   6.939  17.261   2.345
18712W        W91027  15.324  38.808  11.916
18713W        W91028  18.574  19.156  11.172
18714W        W91029  12.745   8.960   1.335
18715W        W91030   4.320  24.145  14.837
18716W        W91031  18.091  31.653  14.961
18717W        W91032  41.879   7.266  13.759
18718W        W91033  16.142  35.066  11.650
18719W        W91034   3.300  32.477  13.033
18720W        W91035   9.162  18.084   4.232
18721W        W91036  11.512  10.709  13.244
18722W        W91037  13.372  44.650   1.457
18723W        W91038  41.378  38.554   1.962
18724W        W91039  29.236  39.993  10.958
18725W        W91040  21.728  33.992   2.725
18726W        W91041  18.574  43.393  11.200
18727W        W91042  16.462  34.454  11.053
18728W        W91043  42.020   0.314  14.101
18729W        W91044  23.716  32.140   4.877
18730W        W91045  40.900   5.348   4.410
18731W        W91046  26.537   1.885  13.455
18732W        W91047  29.736  22.350   4.122
18733W        W91048  10.734   8.687   1.846
18734W        W91049  20.928   8.865   1.798
18735W        W91050  16.360  36.040   4.099
18736W        W91051  44.997  40.023  12.848
18737W        W91052   1.987  37.032  14.484
18738W        W91053  30.559   7.859  11.196
18739W        W91054  38.476  29.588  12.785
18740W        W91055  32.436  13.208  11.577
18741W        W91056   7.275  27.969  13.440
18742W        W91057  42.288  25.463   4.285
18743W        W91058  43.431   3.438  11.978
18744W        W91059  44.114  18.436  10.141
18745W        W91060   5.939   8.944   0.433
18746W        W91061  44.943  10.371  14.962
18747W        W91062  44.223  22.545  14.481
18748W        W91063  29.799  26.323  11.346
18749W        W91064  24.654  30.074  11.972
18750W        W91065   4.346  37.014   1.596
18751W        W91066  13.716  28.651   1.054
18752W        W91067   0.290  15.020   2.943
18753W        W91068  29.567   7.497  14.183
18754W        W91069  27.458  33.759  14.869
18755W        W91070  32.450  43.251  10.729
18756W        W91071   4.167  40.810  13.207
18757W        W91072   1.326  24.938  12.013
18758W        W91073  20.583  14.086   3.645
18759W        W91074  40.785  35.625  14.461
18760W        W91075   6.154  31.383  12.019
18761W        W91076  40.450  21.529   0.497
18762W        W91077  29.556  19.760   4.586
18763W        W91078   9.409  36.309  12.922
18764W        W91079  26.604  43.708   2.817
18765W        W91080   6.303  33.850  10.448
18766W        W91081  29.307  11.641  10.288
18767W        W91082  32.438  41.054   0.839
18768W        W91083  24.419  20.131  10.718
18769W        W91084  41.943  18.363   2.470
18770W        W91085  38.442   1.810   3.300
18771W        W91086  17.174   0.355   3.618
18772W        W91087  42.969   6.981  11.387
18773W        W91088  37.402  24.347  13.041
18774W        W91089   8.587  32.474   4.946
18775W        W91090  12.680  14.352  14.022
18776W        W91091  27.714  37.475   0.113
18777W        W91092  11.090   4.728  11.160
18778W        W91093  15.013  26.396  12.372
18779W        W91094  44.402  24.694   0.725
18780W        W91095  24.047  10.981  12.163
18781W        W91096  21.561  26.478   2.216
18782W        W91097  13.555  27.246   2.929
18783W        W91098  25.702   0.254  13.837
18784W        W91099   1.272   4.217  14.450
18785W        W91100  17.552  43.767   2.414
18786W        W91101   1.728  18.684  12.881
18787W        W91102  40.984   7.678  10.692
18788W        W91103  20.273  35.074   4.488
18789W        W91104  16.655  14.303   4.569
18790W        W91105  10.595  18.805   4.615
18791W        W91106  34.599  37.189  14.982
18792W        W91107  40.378  43.943   1.344
18793W        W91108  31.462   0.833   1.180
18794W        W91109  28.181  36.895   2.300
18795W        W91110  28.968  23.694  10.648
18796W        W91111  42.555  23.996   2.219
18797W        W91112  25.174  40.720   2.869
18798W        W91113  17.331  41.559  10.037
18799W        W91114   3.090  15.671   2.670
18800W        W91115  14.178  42.864  12.730
18801W        W91116  13.614  18.742   0.100
18802W        W91117   0.272   8.873   4.247
18803W        W91118  35.092  28.431   2.257
18804W        W91119  29.101  36.839   1.561
18805W        W91120  23.155  42.756   0.380
18806W        W91121  15.882  31.159   1.817
18807W        W91122  27.505   4.257  13.779
18808W        W91123  20.536  38.525   0.771
18809W        W91124  18.700   4.441   4.408
18810W        W91125  14.284   8.830   0.397
18811W        W91126  30.094  43.364   2.358
18812W        W91127  39.019   6.349  14.704
18813W        W91128  33.598  13.688   4.629
18814W        W91129  17.096  12.269  11.898
18815W        W91130  16.610   6.324   2.576
18816W        W91131  43.959   7.379  14.514
18817W        W91132  44.263   3.187   3.711
18818W        W91133  12.653   1.801   3.083
18819W        W91134  41.416  17.223  12.946
18820W        W91135  16.132  16.148  14.523
18821W        W91136  32.160   5.419   4.566
18822W        W91137  39.344   3.914   4.542
18823W        W91138  32.168  34.404   3.800
18824W        W91139  33.665  24.850   0.526
18825W        W91140  19.097  23.127  13.466
18826W        W91141  39.463  25.117   3.155
18827W        W91142  20.241  17.908  11.108
18828W        W91143   1.236  27.693   0.018
18829W        W91144   1.794   0.431  11.480
18830W        W91145  30.191   3.435   2.627
18831W        W91146  20.067  27.530  10.771
18832W        W91147   8.689  11.779  10.732
18833W        W91148  21.009   6.916  12.591
18834W        W91149   8.853  24.533   0.336
18835W        W91150   5.743  40.214   2.300
18836W        W91151  43.912  28.017   4.680
18837W        W91152  15.812  15.553   2.719
18838W        W91153   0.704  19.056   4.603
18839W        W91154  21.811  35.388   0.714
18840W        W91155  23.175   9.916   4.180
18841W        W91156   9.777  25.678   1.026
18842W        W91157  35.418  40.786   2.834
18843W        W91158   0.266   1.832  12.826
18844W        W91159  42.861  37.973  10.793
18845W        W91160  41.843   0.989   2.233
18846W        W91161  20.850   7.384   4.089
18847W        W91162  18.575   1.510   4.202
18848W        W91163  17.589  39.625  14.284
18849W        W91164  16.989   5.233  12.853
18850W        W91165  12.581  36.500   1.143
18851W        W91166  39.908  18.368  12.987
18852W        W91167  28.584  31.122   3.724
18853W        W91168  14.095  33.456   0.772
18854W        W91169  21.176  26.529   1.876
18855W        W91170  25.918  34.608  11.114
18856W        W91171   4.820   9.203   4.083
18857W        W91172  29.606   6.443   3.773
18858W        W91173  29.306  25.377  12.064
18859W        W91174  13.332  32.520  11.194
18860W        W91175   2.349  33.926   2.781
18861W        W91176  28.867   6.971   4.175
18862W        W91177   8.262  10.388   2.756
18863W        W91178  26.672  24.477   1.890
18864W        W91179  15.872  25.734  11.238
18865W        W91180  20.499   5.719  11.322
18866W        W91181  27.741  13.653   3.860
18867W        W91182  41.962  11.600  13.989
18868W        W91183  24.503  43.349  11.469
18869W        W91184  21.519  24.951   1.479
18870W        W91185  19.180  24.503   4.655
18871W        W91186   6.855  40.923  12.479
18872W        W91187  11.600   7.348  11.109
18873W        W91188  22.825  35.898   9.917
18874W        W91189  20.148  33.154  10.622
18875W        W91190  35.809  39.509  12.568
18876W        W91191  23.660   7.747  14.849
18877W        W91192   7.113   3.611  10.716
18878W        W91193  28.542  39.914  12.066
18879W        W91194  10.705  39.961   4.411
18880W        W91195  36.872   5.425  11.957
18881W        W91196  42.480   8.613  12.074
18882W        W91197   7.923   3.717   4.867
18883W        W91198  17.582  28.927  13.865
18884W        W91199  10.671  16.613  11.963
18885W        W91200   1.812   0.786  14.339
18886W        W91201  35.805   1.347  10.417
18887W        W91202  19.777  28.308  10.724
18888W        W91203  29.153  32.455   0.649
18889W        W91204  35.970   8.186   3.304
18890W        W91205  24.407   1.786  13.367
18891W        W91206  21.785  18.451  10.978
18892W        W91207  29.957  24.476   4.460
18893W        W91208   0.873  34.148   1.708
18894W        W91209  33.956  33.899   0.890
18895W        W91210  35.794   0.970  13.905
18896W        W91211  20.488  12.170   0.515
18897W        W91212  41.622  27.139  12.294
18898W        W91213  30.357  26.143  14.638
18899W        W91214   7.401  30.102   1.824
18900W        W91215  44.440  15.615   4.223
18901W        W91216  30.429   8.962  12.493
18902W        W91217   7.322  10.866  12.041
18903W        W91218   2.852  28.160  10.692
18904W        W91219  31.886  14.377   1.507
18905W        W91220  24.667   6.628   0.919
18906W        W91221  15.846  28.162   5.247
18907W        W91222   0.977  34.352  12.343
18908W        W91223  34.081  30.061   3.235
18909W        W91224  34.091  33.990  10.786
18910W        W91225  15.075  34.430  13.317
18911W        W91226  11.057  31.362  10.603
18912W        W91227  21.481  29.590   3.804
18913W        W91228   1.739  17.336  14.067
18914W        W91229   8.817  20.169   4.415
18915W        W91230  15.090  11.952   4.217
18916W        W91231  31.008  15.050   0.444
18917W        W91232  34.320  44.812  14.568
18918W        W91233  28.833  34.004   9.681
18919W        W91234  22.598  13.094   0.810
18920W        W91235  20.042  41.485  12.541
18921W        W91236  40.981  23.906   3.172
18922W        W91237  34.466  24.918  11.099
18923W        W91238  33.616  14.149   4.873
18924W        W91239  28.065  16.170   3.628
18925W        W91240  25.940  38.314   1.831
18926W        W91241   1.820  33.653   2.474
18927W        W91242  39.069  23.440  14.452
18928W        W91243  36.793  11.804  11.498
18929W        W91244  33.156  39.289   3.317
18930W        W91245  27.695  14.693   4.912
18931W        W91246  31.511  28.444   4.148
18932W        W91247  10.928  36.974  11.495
18933W        W91248  41.552   7.134  13.376
18934W        W91249   7.115  37.558  12.856
18935W        W91250  42.316  32.568  12.029
18936W        W91251  39.542  23.610  10.642
18937W        W91252   8.784  37.056   0.042
18938W        W91253   3.424  16.731   0.087
18939W        W91254  11.354  42.269  12.648
18940W        W91255  31.551  19.427   4.102
18941W        W91256  19.681  35.621  12.304
18942W        W91257  25.576   5.671  11.340
18943W        W91258  26.492   6.276  14.814
18944W        W91259  21.197   7.715   0.268
18945W        W91260  22.252  30.924  11.657
18946W        W91261   7.975  24.308  10.621
18947W        W91262  21.952  16.493   1.959
18948W        W91263   2.723  28.920   3.212
18949W        W91264  20.573  16.805  10.737
18950W        W91265   8.687  21.802   2.787
18951W        W91266   6.358  11.270   4.067
18952W        W91267  27.941   2.585   1.357
18953W        W91268  16.326  44.461  11.419
18954W        W91269  34.049  36.606   1.343
18955W        W91270  33.435  11.205  13.159
18956W        W91271  31.367   9.191   1.302
18957W        W91272  35.413   1.176  11.288
18958W        W91273  18.205  34.746   3.743
18959W        W91274  26.538  11.611  10.577
18960W        W91275  10.683   2.365  10.914
18961W        W91276  13.469  15.218  12.827
18962W        W91277  25.463   5.016   2.696
18963W        W91278  31.641  26.499   5.382
18964W        W91279  26.759  37.831  14.362
18965W        W91280  24.722   8.479  10.532
18966W        W91281  30.566  38.002  11.744
18967W        W91282  40.923  16.111   1.806
18968W        W91283  35.558  11.552  12.595
18969W        W91284  26.199  39.215  13.375
18970W        W91285  29.563   6.855   3.412
18971W        W91286  21.957   9.303   2.333
18972W        W91287   7.050  43.037  10.704
18973W        W91288  31.436  29.241  11.196
18974W        W91289   0.545  25.159   1.368
18975W        W91290  37.807  19.044  10.584
18976W        W91291  21.150  25.899   0.851
18977W        W91292  38.917  13.884  10.614
18978W        W91293  29.577  27.140   3.147
18979W        W91294  10.728   6.866   4.836
18980W        W91295  26.438   8.335  13.056
18981W        W91296  33.582   2.060   0.959
18982W        W91297   2.187  17.487  11.655
18983W        W91298   9.834  19.135   1.724
18984W        W91299  40.766  17.031  14.064
18985W        W91300   1.498   2.986  13.475
18986W        W91301  34.560  19.218  14.099
18987W        W91302   6.284  17.777   4.593
18988W        W91303  14.289   7.728  11.364
18989W        W91304  17.368  31.064  13.110
18990W        W91305  13.446  35.911   0.885
18991W        W91306   2.298  30.956  12.052
18992W        W91307  43.214  29.436  13.496
18993W        W91308  20.169  40.555   1.386
18994W        W91309   0.301  22.105  13.667
18995W        W91310  41.305  30.407  11.257
18996W        W91311  30.939  31.058   1.884
18997W        W91312  40.423   1.158   0.907
18998W        W91313  22.307  19.026  12.568
18999W        W91314  41.738  23.615  13.832
19000W        W91315  13.574  32.986  12.945
19001W        W91316   8.940   7.758   3.254
19002W        W91317   2.490   8.813   3.138
19003W        W91318  23.240  13.089   0.303
19004W        W91319   5.124  41.873  12.642
19005W        W91320   0.379  14.081  13.516
19006W        W91321  44.881   9.901  10.067
19007W        W91322  10.887  43.930   3.717
19008W        W91323  37.326   0.280   4.209
19009W        W91324  23.186  43.276   2.540
19010W        W91325   4.408  17.310  10.996
19011W        W91326  34.925  21.538  10.740
19012W        W91327   8.355  35.961   4.893
19013W        W91328  36.461  15.368  12.086
19014W        W91329  30.119  44.101  12.025
19015W        W91330  26.303  35.380   2.963
19016W        W91331  37.439  11.289   0.257
19017W        W91332   0.589  17.075   0.594
19018W        W91333  36.998  16.980   4.568
19019W        W91334  21.278  35.809   1.951
19020W        W91335  28.080  31.018   4.316
19021W        W91336   2.936  34.997   4.109
19022W        W91337  18.721  17.495  14.297
19023W        W91338   8.984   9.216  12.123
19024W        W91339  21.747  28.526   0.550
19025W        W91340  31.966  12.535   2.134
19026W        W91341  31.674  20.460   4.373
19027W        W91342  17.833  29.380  13.988
19028W        W91343  33.936  21.424   5.029
19029W        W91344   9.264  22.267   1.441
19030W        W91345  19.081   5.812  11.441
19031W        W91346   6.989  28.124   3.798
19032W        W91347  13.364   7.681  12.951
19033W        W91348   6.450  16.114  10.983
19034W        W91349  33.483  15.520  14.461
19035W        W91350  39.422  31.053   2.299
19036W        W91351  15.882  38.789   1.135
19037W        W91352   2.006  37.472   3.947
19038W        W91353   0.312  28.068  12.077
19039W        W91354   2.352  17.589  14.386
19040W        W91355  35.108  36.362   1.795
19041W        W91356  22.973  22.779   9.679
19042W        W91357  22.120  26.405  11.566
19043W        W91358  11.892  19.177   4.719
19044W        W91359  18.371  33.129  14.011
19045W        W91360  42.432  31.048   4.249
19046W        W91361   0.881   8.445   4.998
19047W        W91362   5.003   7.711   0.949
19048W        W91363  25.757  34.064  11.151
19049W        W91364  37.917  31.077  14.376
19050W        W91365  14.833   8.862   4.960
19051W        W91366  17.748  10.590  11.970
19052W        W91367  11.888  16.190   1.899
19053W        W91368   8.315  39.970   2.100
19054W        W91369  11.741  24.051  14.050
19055W        W91370  30.230  19.599  11.536
19056W        W91371   9.155  20.010   1.473
19057W        W91372  28.186   8.974   2.231
19058W        W91373  23.521  32.040   3.390
19059W        W91374   3.378  31.589  11.552
19060W        W91375   9.775  26.780  11.732
19061W        W91376  11.857  43.868  13.134
19062W        W91377  19.134   7.299   3.449
19063W        W91378  17.852  36.137   2.798
19064W        W91379   4.766  19.642  12.417
19065W        W91380  37.188  10.855   3.312
19066W        W91381  25.936   1.902   3.441
19067W        W91382   1.389  28.476   0.407
19068W        W91383   5.620  22.497   0.779
19069W        W91384  26.316  24.284  10.788
19070W        W91385  41.517  41.388  13.758
19071W        W91386  16.760  38.460  10.595
19072W        W91387  24.555   3.817  13.919
19073W        W91388  43.506   5.168   1.744
19074W        W91389  38.872  44.573   3.761
19075W        W91390  25.768  33.838  14.594
19076W        W91391  29.591   3.806   2.280
19077W        W91392  21.025   2.460  13.149
19078W        W91393   0.470  32.423  14.380
19079W        W91394  12.088  18.278  13.964
19080W        W91395  24.812  40.742  13.179
19081W        W91396   6.306  21.105   0.770
19082W        W91397  17.734  29.678   0.930
19083W        W91398  35.678  35.982   3.365
19084W        W91399  10.370  22.245   0.320
19085W        W91400  30.685   9.176   3.705
19086W        W91401   4.706  37.493  10.714
19087W        W91402  25.694   5.207   4.516
19088W        W91403  12.700  38.781   2.932
19089W        W91404  21.033   1.891   2.412
19090W        W91405  25.560  21.833   0.585
19091W        W91406  44.179  18.047   2.255
19092W        W91407  44.960  42.402  13.317
19093W        W91408  23.558  44.929  14.437
19094W        W91409  18.079  21.765  13.496
19095W        W91410   0.914   3.704   4.342
19096W        W91411  10.382  22.034   2.766
19097W        W91412   9.651  36.548  10.850
19098W        W91413   4.265  26.235   4.153
19099W        W91414  43.522  43.979   0.731
19100W        W91415  36.315   8.778  10.629
19101W        W91416  15.069  35.444  10.752
19102W        W91417  14.800  35.653   0.339
19103W        W91418   1.331  34.371   4.084
19104W        W91419  43.607   7.177   0.289
19105W        W91420  26.651  36.306   2.519
19106W        W91421  13.590  15.578   2.283
19107W        W91422   7.764  23.446  13.919
19108W        W91423  13.730  33.886  14.844
19109W        W91424  21.517  13.085  13.845
19110W        W91425  21.469  13.565   3.721
19111W        W91426  18.861  19.732   3.000
19112W        W91427  36.828   2.302  12.467
19113W        W91428  29.850   7.452  12.908
19114W        W91429  16.605  34.629  13.352
19115W        W91430  37.916  40.854   2.612
19116W        W91431  25.781  10.133   4.699
19117W        W91432  14.731  32.203   0.256
19118W        W91433  30.916  44.010   3.219
19119W        W91434  36.398  29.558   3.660
19120W        W91435  36.096  35.616  13.168
19121W        W91436   6.142  29.426   3.795
19122W        W91437   1.241  30.696  11.128
19123W        W91438  36.835   9.092   2.528
19124W        W91439  42.442  18.841  14.286
19125W        W91440  12.888  16.654   0.747
19126W        W91441  41.955  41.114  11.673
19127W        W91442   0.023  32.772  14.322
19128W        W91443  28.700  10.725   3.569
19129W        W91444  23.529  18.249  12.299
19130W        W91445   1.244  31.636   2.199
19131W        W91446   1.572  23.464   3.949
19132W        W91447  41.807  36.983  10.724
19133W        W91448  12.753  29.516  12.770
19134W        W91449   1.186  39.354   1.284
19135W        W91450  20.533  17.359  14.841
19136W        W91451   4.353  32.969  13.473
19137W        W91452  28.013   0.135  12.004
19138W        W91453  31.232   0.221  11.546
19139W        W91454  28.610  29.913   4.525
19140W        W91455  37.451  28.146  14.232
19141W        W91456  40.967  13.705   3.301
19142W        W91457  40.313   8.803   5.023
19143W        W91458   9.650  34.074  14.883
19144W        W91459  21.744  37.603   2.388
19145W        W91460  20.088  42.104   4.600
19146W        W91461  24.634  28.515   1.540
19147W        W91462   0.774  38.018   2.063
19148W        W91463  26.590   4.820  13.438
19149W        W91464  24.609  19.772  11.514
19150W        W91465  12.136  15.723  14.470
19151W        W91466  24.349  29.949  10.859
19152W        W91467   6.024  32.111   1.204
19153W        W91468  10.883  25.431  13.754
19154W        W91469  41.992  23.191   1.529
19155W        W91470  40.656  25.361  13.297
19156W        W91471  18.083  15.284  14.200
19157W        W91472  20.655  43.706   0.265
19158W        W91473  26.188  15.874   3.668
19159W        W91474  30.939  33.972  11.810
19160W        W91475  13.443  37.615   0.234
19161W        W91476  42.958  42.392   1.381
19162W        W91477  39.264   7.279   1.444
19163W        W91478  35.914  15.483  12.516
19164W        W91479  20.337  17.122  13.490
19165W        W91480  27.808  40.333   5.044
19166W        W91481  42.430  27.969   3.675
19167W        W91482  14.550  33.748   0.817
19168W        W91483  13.569  28.062  12.559
19169W        W91484  20.697  31.927  10.820
19170W        W91485  28.501  28.056   2.369
19171W        W91486  16.103  32.189  11.253
19172W        W91487  29.551  39.034  13.889
19173W        W91488  34.912  33.947  14.847
19174W        W91489  43.475  43.623   3.529
19175W        W91490  33.942  16.396  13.978
19176W        W91491  33.180  25.871   3.737
19177W        W91492  21.496  27.174  14.510
19178W        W91493  24.178   6.467   2.300
19179W        W91494  15.588   9.939   0.019
19180W        W91495  13.037  29.079  11.008
19181W        W91496  27.477  16.921  13.802
19182W        W91497  17.508  25.155  12.072
19183W        W91498  12.993  42.908   4.644
19184W        W91499  22.814  15.588   2.239
19185W        W91500  37.586  10.732   2.386
19186W        W91501  11.176  29.536  11.153
19187W        W91502   7.382  38.916   3.652
19188W        W91503   3.121  43.668  13.928
19189W        W91504  25.075  40.903   4.617
19190W        W91505  33.447  10.737  11.894
19191W        W91506  19.302  20.359   2.590
19192W        W91507  22.576  13.661  14.330
19193W        W91508  32.863  20.851   2.546
19194W        W91509  11.754   1.461  13.824
19195W        W91510  29.639   5.461  12.143
19196W        W91511  19.112   4.212  13.927
19197W        W91512  29.364  14.462  10.347
19198W        W91513  31.350  27.533   2.875
19199W        W91514  24.571  30.604  14.612
19200W        W91515  36.833  33.444  13.643
19201W        W91516  20.799  11.665  11.455
19202W        W91517  32.632  30.943  13.470
19203W        W91518  17.724  15.117   1.094
19204W        W91519  31.046  25.521  11.616
19205W        W91520  14.790  28.122  10.731
19206W        W91521  44.843  34.824   2.856
19207W        W91522  30.454  29.600   1.716
19208W        W91523  34.500  41.988  14.566
19209W        W91524  18.127   9.365  11.623
19210W        W91525  34.619   7.096  14.362
19211W        W91526   7.176  31.921   0.046
19212W        W91527   8.153   7.529   0.101
19213W        W91528  43.415  22.643   1.888
19214W        W91529   8.810   1.530  13.004
19215W        W91530  29.260  30.490   2.359
19216W        W91531  21.320  35.057   3.288
19217W        W91532  35.885  38.949  11.973
19218W        W91533  13.011  38.951  10.658
19219W        W91534  10.107  24.626   4.896
19220W        W91535  12.529  12.382  12.337
19221W        W91536   1.723  31.408   2.233
19222W        W91537   0.990  13.208  14.971
19223W        W91538  10.692   0.997   2.281
19224W        W91539  24.297  30.485   0.346
19225W        W91540  40.458   9.678  13.117
19226W        W91541   3.691  41.419  10.631
19227W        W91542   2.239  44.476   0.939
19228W        W91543  25.700  31.360  14.509
19229W        W91544  21.124  22.079   3.257
19230W        W91545  31.862  23.542  12.921
19231W        W91546   7.445  33.868   3.602
19232W        W91547   3.838   2.845  12.487
19233W        W91548  40.566  34.026   2.809
19234W        W91549  20.894  36.167   5.004
19235W        W91550  21.018  38.285   0.840
19236W        W91551   4.198  10.900  12.471
19237W        W91552  17.743  31.080  12.112
19238W        W91553  42.844  28.192   4.955
19239W        W91554   8.290  23.229   2.436
19240W        W91555  12.305  42.775  12.475
19241W        W91556  42.570   3.431  13.602
19242W        W91557  37.396  44.558  14.375
19243W        W91558   8.129  36.387   1.915
19244W        W91559  31.914   7.173   4.121
19245W        W91560  34.826  41.674   3.727
19246W        W91561  32.767  44.221  13.315
19247W        W91562  43.909  39.975   1.489
19248W        W91563  18.745   8.619   0.219
19249W        W91564  16.611   7.243  10.640
19250W        W91565  27.073  36.908   4.559
19251W        W91566  20.502  18.500  12.496
19252W        W91567   5.258  31.624  13.562
19253W        W91568  11.613  22.314  11.679
19254W        W91569  17.693  19.606  13.565
19255W        W91570  39.882  42.428   2.691
19256W        W91571  18.994   3.392  10.720
19257W        W91572  41.748  15.205   3.165
19258W        W91573  32.602  38.611  12.501
19259W        W91574  40.329  20.038  11.654
19260W        W91575  24.635  20.139  14.912
19261W        W91576  16.635  22.948  13.154
19262W        W91577  35.902   4.630  14.269
19263W        W91578  15.191  20.097   1.075
19264W        W91579   6.980  42.057   1.351
19265W        W91580  29.310   9.511   1.504
19266W        W91581   0.304  16.540   2.773
19267W        W91582   9.701  39.031   3.068
19268W        W91583  38.829   2.686  10.223
19269W        W91584  25.886  16.850   3.763
19270W        W91585  43.173  40.130  13.371
19271W        W91586  20.199  35.155   0.319
19272W        W91587  23.950  43.704   2.578
19273W        W91588  43.081  36.004  14.401
19274W        W91589  26.422  17.672  14.401
19275W        W91590  11.671  16.023   1.445
19276W        W91591  35.553  16.482  14.363
19277W        W91592  41.048  24.467  11.925
19278W        W91593  14.091   7.221  11.540
19279W        W91594  43.802  34.391  10.763
19280W        W91595  35.170  13.367   0.827
19281W        W91596   4.617  27.252  14.923
19282W        W91597  38.966  38.353   3.154
19283W        W91598  23.648  41.115  13.335
19284W        W91599  40.794  32.220  11.094
19285W        W91600  31.919  31.399   1.310
19286W        W91601  36.472  28.109   3.678
19287W        W91602  33.019  36.252  10.754
19288W        W91603  42.218  31.480  14.345
19289W        W91604  15.638  14.608  11.501
19290W        W91605  34.555  40.586   1.778
19291W        W91606  30.802   8.412  12.082
19292W        W91607  15.247  17.877   4.086
19293W        W91608  26.092  17.330  13.421
19294W        W91609  17.798  36.509  13.466
19295W        W91610   2.897  19.579   3.308
19296W        W91611  40.689   4.151   4.968
19297W        W91612  33.407  23.262   5.119
19298W        W91613  36.520   9.658   2.873
19299W        W91614  10.261  26.120  13.289
19300W        W91615  35.619  31.390   4.862
19301W        W91616  41.236  26.189  10.851
19302W        W91617  13.641  21.663   0.864
19303W        W91618  41.167   9.219  12.853
19304W        W91619  37.849   5.371  14.982
19305W        W91620  40.470  36.491  10.507
19306W        W91621  30.683   4.691  14.873
19307W        W91622   0.169  17.907   4.098
19308W        W91623  16.877  11.963  10.985
19309W        W91624  28.498   9.202   4.645
19310W        W91625  18.703  37.851   4.459
19311W        W91626  44.780   3.779   1.001
19312W        W91627  42.419   8.981  13.400
19313W        W91628  33.076  16.333   1.726
19314W        W91629  44.248  41.857  11.211
19315W        W91630  22.076   4.423   3.741
19316W        W91631   7.943  23.427   4.371
19317W        W91632  16.160  19.771   3.742
19318W        W91633  39.501  17.037  12.029
19319W        W91634   9.677  41.028   2.831
19320W        W91635  12.623  13.813   3.808
19321W        W91636  43.368  30.654  10.367
19322W        W91637  26.611  25.803   3.290
19323W        W91638  39.991  12.563  11.558
19324W        W91639   8.783   7.578   4.079
19325W        W91640  33.645  29.073   4.289
19326W        W91641  39.057  15.686   3.236
19327W        W91642  28.015  29.950   0.549
19328W        W91643   4.285  30.609   0.017
19329W        W91644  26.261  24.011  12.070
19330W        W91645   3.256  15.419   0.944
19331W        W91646   1.992  11.194  13.042
19332W        W91647  21.473  38.026   0.962
19333W        W91648  31.189  19.068   1.484
19334W        W91649  16.039  43.318   2.141
19335W        W91650  19.480  35.162   1.817
19336W        W91651   6.225   3.041  14.143
19337W        W91652  22.570  22.001   4.208
19338W        W91653   5.905   5.009  11.584
19339W        W91654   9.269  23.564   3.175
19340W        W91655  39.454  44.252   2.595
19341W        W91656  34.757  22.465   4.177
19342W        W91657  27.231  15.461   3.275
19343W        W91658  21.984   3.395  11.690
19344W        W91659  35.446  36.524  12.386
19345W        W91660  14.501  25.690   3.324
19346W        W91661  42.066   8.418   3.210
19347W        W91662  15.040  17.079  12.169
19348W        W91663  20.785  25.137   1.872
19349W        W91664   8.871  34.474  11.766
19350W        W91665  41.873  33.378   0.030
19351W        W91666  15.112  31.932  13.828
19352W        W91667  41.982  25.626  12.198
19353W        W91668  35.852  13.330  13.417
19354W        W91669  14.653  10.388  14.967
19355W        W91670  27.706  22.118   0.728
19356W        W91671   4.721   0.751  12.560
19357W        W91672  24.675  11.058   1.635
19358W        W91673   6.643  16.827   2.349
19359W        W91674  21.849  17.466   0.897
19360W        W91675   0.713   6.399   1.185
19361W        W91676  42.531  31.059  14.276
19362W        W91677  37.223  40.493  13.740
19363W        W91678   6.544   4.643  11.097
19364W        W91679  36.649  38.380   0.024
19365W        W91680   7.268  24.391   5.074
19366W        W91681  19.155  41.535  12.074
19367W        W91682  23.727  44.198  13.817
19368W        W91683  13.541  18.746   1.371
19369W        W91684   8.651  11.691   4.058
19370W        W91685  10.279  29.803   5.036
19371W        W91686  44.371  15.078   0.376
19372W        W91687  44.206  17.112  13.947
19373W        W91688  29.440   8.209   0.661
19374W        W91689   2.105   0.507   1.058
19375W        W91690  16.872  10.880  11.978
19376W        W91691  25.482  36.416  11.616
19377W        W91692  15.676  30.937   1.360
19378W        W91693   6.854  13.140  12.531
19379W        W91694  17.170  43.070  11.935
19380W        W91695  10.751  22.766   2.803
19381W        W91696  31.140   6.484   0.221
19382W        W91697  39.131  21.212  11.170
19383W        W91698   6.907  14.192   0.893
19384W        W91699   8.312   0.253  13.987
19385W        W91700  43.296   7.710   3.625
19386W        W91701  20.370  11.058   2.250
19387W        W91702  12.080   3.283  14.428
19388W        W91703  26.625  30.800  14.538
19389W        W91704  32.137  16.100  12.579
19390W        W91705  15.758   8.192   1.896
19391W        W91706  20.240   3.651   0.385
19392W        W91707  32.629  43.219  14.973
19393W        W91708   1.319  30.916   0.302
19394W        W91709  19.558  11.765   2.712
19395W        W91710  13.962   0.656   0.751
19396W        W91711  25.952   2.205  12.998
19397W        W91712  11.865   2.453  13.018
19398W        W91713  21.239  31.991  14.883
19399W        W91714  36.882  41.461  12.969
19400W        W91715  37.330  22.707  11.159
19401W        W91716  44.909  27.392   2.207
19402W        W91717  35.680  16.345   1.262
19403W        W91718  30.094   6.836   3.457
19404W        W91719   7.810  44.120   3.190
19405W        W91720   6.159  19.625   3.398
19406W        W91721  32.336  44.290   4.590
19407W        W91722  34.782  21.653   2.446
19408W        W91723  13.379  39.319   3.697
19409W        W91724  13.640  27.572  14.289
19410W        W91725  29.429  32.248   1.812
19411W        W91726   0.867  38.509   3.223
19412W        W91727  32.080  19.272  14.735
19413W        W91728  33.136  26.106  13.036
19414W        W91729  42.757   9.103  10.792
19415W        W91730   7.191   0.328  10.699
19416W        W91731   3.421  21.063  11.612
19417W        W91732  12.791  19.449   3.784
19418W        W91733  36.987   7.952  12.039
19419W        W91734  25.760  36.753   0.364
19420W        W91735  21.420  16.814   4.714
19421W        W91736   6.290   2.492  12.037
19422W        W91737  27.505   2.381  12.057
19423W        W91738  32.072  34.834  12.142
19424W        W91739   5.901  20.103   1.750
19425W        W91740   8.894   3.808   2.777
19426W        W91741  27.008  12.309   2.717
19427W        W91742  33.337  28.100   0.470
19428W        W91743   4.656  40.343  12.421
19429W        W91744  17.725   5.907   1.900
19430W        W91745   1.008   0.515  13.397
19431W        W91746  38.856  22.289  12.421
19432W        W91747  13.356   2.308   3.284
19433W        W91748  19.237  14.584  12.759
19434W        W91749  35.363  22.514   0.506
19435W        W91750   6.236  41.997  13.442
19436W        W91751  26.407  17.806   2.652
19437W        W91752  11.123   9.763  11.667
19438W        W91753  32.091   6.968   0.399
19439W        W91754  38.451  21.016  13.875
19440W        W91755  22.516  20.263   1.953
19441W        W91756  18.512  30.550  12.833
19442W        W91757  22.636   9.796   0.340
19443W        W91758   5.230  39.341   4.114
19444W        W91759   8.733  14.253   3.726
19445W        W91760  38.425  44.851   1.150
19446W        W91761  39.462  27.772   4.836
19447W        W91762   7.796  13.453  11.032
19448W        W91763  14.716  34.913   2.763
19449W        W91764  16.229   2.182   0.875
19450W        W91765  17.523  20.681  11.877
19451W        W91766  21.667  19.693  10.076
19452W        W91767  36.538  27.139   2.236
19453W        W91768  30.033  36.413   3.383
19454W        W91769   7.144  24.246   3.290
19455W        W91770  21.159  16.786  14.406
19456W        W91771  15.629  39.342  12.122
19457W        W91772  28.960  14.192   4.469
19458W        W91773  40.366  39.856  12.591
19459W        W91774   8.733  21.160   0.455
19460W        W91775  41.393  22.246  14.246
19461W        W91776  26.705  19.047   4.584
19462W        W91777  32.348  35.567   3.266
19463W        W91778  25.390  25.065  11.052
19464W        W91779  25.994  20.052  13.575
19465W        W91780   4.677   0.883   2.684
19466W        W91781  11.294  22.609   2.631
19467W        W91782   2.779  21.528  11.940
19468W        W91783   7.114  16.513  12.315
19469W        W91784   7.840  34.659  13.846
19470W        W91785  14.141  42.228   0.634
19471W        W91786  16.186   5.914   3.647
19472W        W91787   8.301  28.506   2.703
19473W        W91788  37.513   4.398   0.774
19474W        W91789  17.071  11.229   1.970
19475W        W91790  32.094  16.153  14.241
19476W        W91791   1.932   6.637   2.986
19477W        W91792  38.090   6.982  14.201
19478W        W91793  19.360   0.330   0.744
19479W        W91794   4.246  34.040  10.550
19480W        W91795   4.294  34.355  10.963
19481W        W91796  28.043   2.313  14.750
19482W        W91797  43.883   3.196  11.023
19483W        W91798  30.850  20.746   1.059
19484W        W91799   1.328  12.047   1.245
19485W        W91800  39.429  19.587   0.960
19486W        W91801  24.220   1.671   3.227
19487W        W91802  27.121   4.931   0.335
19488W        W91803   5.287  14.549   1.961
19489W        W91804  34.415  41.385  12.081
19490W        W91805  10.869  44.498   2.033
19491W        W91806  21.036   1.181   0.162
19492W        W91807  44.247  26.165   0.859
19493W        W91808  30.728  26.677   2.705
19494W        W91809   2.958  18.052  11.802
19495W        W91810   0.475  10.522  10.625
19496W        W91811  18.142  26.427  12.795
19497W        W91812   8.467  39.434  10.906
19498W        W91813  38.941  29.083  11.999
19499W        W91814  32.474  19.816   0.491
19500W        W91815  32.337  11.253  14.121
19501W        W91816  37.350  28.555   4.634
19502W        W91817   9.175  31.019   2.454
19503W        W91818   9.843  40.843   1.085
19504W        W91819  23.330  39.353  11.066
19505W        W91820   9.093  13.112   2.909
19506W        W91821   3.316  44.838   4.070
19507W        W91822  38.436  25.012  14.340
19508W        W91823  10.885  23.941  13.695
19509W        W91824   5.832   5.878  13.467
19510W        W91825  36.532  35.348  13.221
19511W        W91826  15.027  43.818   3.309
19512W        W91827  28.223  36.228  11.654
19513W        W91828  23.572   6.872   0.359
19514W        W91829  37.736  31.111   4.186
19515W        W91830  35.683  41.517  12.418
19516W        W91831  44.624  13.160   0.470
19517W        W91832  22.529  42.984   4.653
19518W        W91833  24.333  35.945   2.698
19519W        W91834  16.309  28.469  11.072
19520W        W91835  18.123   2.799   4.427
19521W        W91836   6.416  23.024  11.673
19522W        W91837  16.613  41.577  11.141
19523W        W91838  15.101  10.267  12.617
19524W        W91839  14.667  28.047   4.318
19525W        W91840  24.969  39.925  14.302
19526W        W91841  12.709  37.950  12.494
19527W        W91842  10.880  40.995  13.319
19528W        W91843  27.208  41.845  12.029
19529W        W91844  11.946  21.244   5.127
19530W        W91845  25.434  34.551  13.897
19531W        W91846   4.781  18.069   1.271
19532W        W91847  39.895  20.826   2.837
19533W        W91848  17.665  16.043   1.798
19534W        W91849  41.447  41.360   2.930
19535W        W91850   4.275  21.788   2.281
19536W        W91851  18.868  33.065   4.791
19537W        W91852   8.445  27.572  13.655
19538W        W91853  13.061  44.665   4.624
19539W        W91854  34.988   0.323   0.029
19540W        W91855   5.432   8.811   1.420
19541W        W91856   4.230  10.609   3.632
19542W        W91857  13.842  29.064  12.702
19543W        W91858  33.563  31.632  10.239
19544W        W91859  15.350  27.965   0.838
19545W        W91860  34.508  29.357   0.530
19546W        W91861   2.375   1.300   2.665
19547W        W91862  20.598   9.648  11.881
19548W        W91863  10.671  16.760   2.189
19549W        W91864   3.808  31.485   1.246
19550W        W91865  34.992  35.638  11.624
19551W        W91866  10.193   9.095  10.824
19552W        W91867  16.739   0.416  12.812
19553W        W91868   2.413  16.823  12.869
19554W        W91869  20.314  25.656  11.073
19555W        W91870  18.132   3.270  10.242
19556W        W91871  24.204   5.964   2.207
19557W        W91872  29.158  33.209  10.988
19558W        W91873   3.817   3.466   1.771
19559W        W91874  37.809  43.263  14.532
19560W        W91875  38.374  24.466   1.770
19561W        W91876  13.234  13.296  14.897
19562W        W91877  21.764   8.304  14.557
19563W        W91878  30.084  21.793  11.096
19564W        W91879   9.351  23.225  12.433
19565W        W91880  15.721  10.187  10.237
19566W        W91881   8.843  44.110   1.285
19567W        W91882  40.715   0.762   4.558
19568W        W91883   5.721  30.957   0.528
19569W        W91884  28.916   7.854   0.276
19570W        W91885  29.453  28.508  13.730
19571W        W91886  33.801  44.242  11.003
19572W        W91887  36.444  23.562  14.097
19573W        W91888   8.306  11.161  12.584
19574W        W91889   5.360  12.745  10.948
19575W        W91890   1.178  25.049  13.490
19576W        W91891  31.080  10.567   1.444
19577W        W91892  39.032  25.185  14.977
19578W        W91893   6.025  29.558   0.780
19579W        W91894   3.372  35.787  13.013
19580W        W91895  22.660   2.003   1.266
19581W        W91896  31.470  25.997  12.449
19582W        W91897  17.762  43.227  11.629
19583W        W91898  33.095  16.136  11.030
19584W        W91899   2.001  17.173  13.624
19585W        W91900   1.319  28.483   3.332
19586W        W91901  28.711  15.484   1.713
19587W        W91902  39.903   5.225  11.193
19588W        W91903  42.344  16.963   0.348
19589W        W91904  24.517   4.767  11.922
19590W        W91905  25.651   1.563  14.372
19591W        W91906  15.278  37.484  12.180
19592W        W91907   0.477  17.835   3.252
19593W        W91908  17.171  28.002   1.227
19594W        W91909   4.740  11.016   9.977
19595W        W91910  36.091  25.552  13.119
19596W        W91911  13.486  25.094   4.803
19597W        W91912  29.398  13.060  10.235
19598W        W91913  25.062  18.853   4.265
19599W        W91914   2.741  39.419   3.161
19600W        W91915  30.567   8.486   4.219
19601W        W91916   5.294  22.507  13.451
19602W        W91917  18.103  31.163  10.620
19603W        W91918  37.309   8.897  12.330
19604W        W91919  29.066  16.049  14.053
19605W        W91920   5.169  13.670   3.807
19606W        W91921  22.579  19.794   2.665
19607W        W91922  29.242  33.807  12.374
19608W        W91923  15.981  38.760  14.904
19609W        W91924  44.827  28.474  11.061
19610W        W91925   4.880   7.449  13.326
19611W        W91926  31.809   3.064   3.645
19612W        W91927   6.123  23.287  12.022
19613W        W91928   8.197   3.173  11.361
19614W        W91929  37.575  38.802   2.337
19615W        W91930  15.311  26.979   3.776
19616W        W91931  29.943  27.465  11.663
19617W        W91932  19.513  22.170  12.577
19618W        W91933  38.584   7.266   2.446
19619W        W91934  18.360  32.729  13.344
19620W        W91935  18.049  19.054  13.970
19621W        W91936  29.202  11.303   2.856
19622W        W91937   8.848   9.088   1.746
19623W        W91938   9.816   6.670   1.314
19624W        W91939  18.939  21.477   4.569
19625W        W91940  18.877  23.275  11.987
19626W        W91941  41.537  27.695   0.995
19627W        W91942  42.056   3.515  12.327
19628W        W91943  42.344  38.820  11.040
19629W        W91944  28.767  36.852   3.112
19630W        W91945  36.116  29.468  12.079
19631W        W91946  14.664  26.629   2.794
19632W        W91947  25.475  12.158  14.471
19633W        W91948  29.035  27.901   2.512
19634W        W91949  30.698  44.388   0.327
19635W        W91950  44.211  10.800   0.313
19636W        W91951  17.661   1.374  14.270
19637W        W91952  28.148  26.723  14.836
19638W        W91953  24.123  33.570   0.973
19639W        W91954  44.791  29.095   4.058
19640W        W91955  23.025  15.910  14.336
19641W        W91956   0.493  19.070  12.301
19642W        W91957  28.356  14.200   2.545
19643W        W91958   0.065   2.258  14.863
19644W        W91959  19.076  37.749  11.619
19645W        W91960  13.463  44.968  10.636
19646W        W91961  15.045  22.702  14.016
19647W        W91962  37.707  27.994  11.463
19648W        W91963  43.228   1.834  11.037
19649W        W91964  33.632   9.559  11.221
19650W        W91965  23.600  30.413  12.525
19651W        W91966  41.042   4.804   0.544
19652W        W91967  15.039   8.685   3.372
19653W        W91968   6.206  26.985   0.315
19654W        W91969  33.463  22.018  11.138
19655W        W91970   2.484  31.402   2.659
19656W        W91971  27.799  25.329   2.690
19657W        W91972   0.373  14.728   0.392
19658W        W91973  22.967  34.326  13.358
19659W        W91974  21.604  24.228  14.738
19660W        W91975  20.701  29.276  14.936
19661W        W91976  36.095   7.581   0.705
19662W        W91977   1.636  29.004  13.059
19663W        W91978  28.149   7.467   2.356
19664W        W91979  34.682  32.925  10.715
19665W        W91980  39.671  26.115   5.221
19666W        W91981  41.499   3.259  14.013
19667W        W91982  10.694  42.580   2.870
19668W        W91983  21.165  13.229   1.846
19669W        W91984   8.945  36.287   1.322
19670W        W91985  20.632  26.760  14.349
19671W        W91986  32.574  10.157   1.954
19672W        W91987  28.132  17.764  10.662
19673W        W91988   1.417  14.148   4.218
19674W        W91989  10.041   1.276   4.711
19675W        W91990  40.006  32.015  10.571
19676W        W91991  23.696   7.900  12.919
19677W        W91992  22.736  28.435   4.216
19678W        W91993  30.228  36.525  11.080
19679W        W91994  17.268  31.580   4.075
19680W        W91995  38.989   6.353   2.215
19681W        W91996  40.925  15.040  12.852
19682W        W91997  20.569  33.065   0.886
19683W        W91998  37.348   2.273   3.833
19684W        W91999  32.034  24.554  12.099
19685W        W92000  14.288  40.267  14.162
19686W        W92001  40.324   8.110   1.726
19687W        W92002  25.259  37.411   3.064
19688W        W92003  35.638   9.635   0.464
19689W        W92004  43.862  10.090   4.511
19690W        W92005  37.860  31.165  12.585
19691W        W92006  23.564  11.687   0.385
19692W        W92007  34.385  42.522   0.646
19693W        W92008   8.599  34.421   2.847
19694W        W92009  37.304  31.047   1.646
19695W        W92010  43.965  28.940  10.478
19696W        W92011  26.878  40.228   0.843
19697W        W92012  17.506  27.288  13.875
19698W        W92013  41.285  11.804   3.452
19699W        W92014  39.066  36.786   1.154
19700W        W92015   1.051   9.230  13.349
19701W        W92016  30.595  18.877  13.965
19702W        W92017  41.946  18.700   0.165
19703W        W92018   9.115  20.746   2.419
19704W        W92019  44.997   2.274  12.811
19705W        W92020   5.351  19.077  12.871
19706W        W92021  29.114   1.780  14.914
19707W        W92022  16.660  32.405  14.446
19708W        W92023  13.842  43.539  10.753
19709W        W92024  37.363   9.434  10.474
19710W        W92025  29.026   6.782  13.701
19711W        W92026  26.423  44.948   2.333
19712W        W92027   9.301  15.700   4.108
19713W        W92028  26.401   3.065   3.924
19714W        W92029  35.003  34.935  12.867
19715W        W92030  42.332  28.112  12.011
19716W        W92031   5.362  40.381   2.959
19717W        W92032  26.317   6.861  10.105
19718W        W92033  23.180  16.969   4.161
19719W        W92034  10.999  23.791   4.431
19720W        W92035  19.174  22.412  11.161
19721W        W92036  42.776   2.178  12.166
19722W        W92037   8.836  35.297   0.345
19723W        W92038  31.924  18.165  11.149
19724W        W92039   8.617  30.278  12.347
19725W        W92040  41.886  31.834   2.667
19726W        W92041  25.948   0.811   2.439
19727W        W92042  35.420   7.446  13.217
19728W        W92043  40.489  27.435  11.279
19729W        W92044  38.033  26.747   1.909
19730W        W92045  43.908  10.392   3.098
19731W        W92046   0.810  16.335   1.486
19732W        W92047  36.486  43.038   9.878
19733W        W92048  26.132  40.754   2.820
19734W        W92049   2.920  25.171  12.590
19735W        W92050  37.550  34.863  12.489
19736W        W92051  31.861  37.482  14.904
19737W        W92052  13.334  15.714  11.508
19738W        W92053  29.690   7.189  12.489
19739W        W92054  12.649  28.391   3.136
19740W        W92055  10.762  11.335   0.803
19741W        W92056  26.884   0.424   2.912
19742W        W92057  22.777  11.173   2.312
19743W        W92058  34.025   7.213   4.305
19744W        W92059  34.045  26.225  14.985
19745W        W92060  24.194  35.050  10.588
19746W        W92061  15.645   3.633  13.599
19747W        W92062   1.142  42.388   1.338
19748W        W92063   9.596   7.240   1.828
19749W        W92064   7.324  30.963  11.002
19750W        W92065  18.637  11.327  13.965
19751W        W92066  42.538  22.109  12.516
19752W        W92067   0.323   1.354   0.107
19753W        W92068  14.633  36.034  12.885
19754W        W92069  12.348   5.143   0.671
19755W        W92070   1.317   7.740   0.773
19756W        W92071  16.764  37.836   4.507
19757W        W92072   0.471  20.817   4.861
19758W        W92073  39.987  17.008   4.636
19759W        W92074  15.615  35.108   2.252
19760W        W92075  23.668  19.588   0.039
19761W        W92076  34.409   2.984  14.065
19762W        W92077  31.431  23.127  11.907
19763W        W92078  27.249  11.052  13.302
19764W        W92079   7.732  35.401   1.584
19765W        W92080  43.919  10.309  14.492
19766W        W92081  25.316  21.067  14.454
19767W        W92082  25.135  20.348  10.952
19768W        W92083  11.372  28.121  12.379
19769W        W92084  10.304   0.027   1.433
19770W        W92085  14.606  20.974   3.909
19771W        W92086  15.800  43.024  13.019
19772W        W92087   7.296  40.276  11.509
19773W        W92088  31.497  20.463  14.231
19774W        W92089  44.990  44.209  13.389
19775W        W92090  30.411  20.658   0.799
19776W        W92091  14.748  29.177   3.050
19777W        W92092  29.096  23.919   2.645
19778W        W92093  12.144  23.728   0.337
19779W        W92094  17.618  37.361  12.056
19780W        W92095  19.774  20.611   0.897
19781W        W92096   7.374   9.405   3.633
19782W        W92097  19.109  39.278  13.334
19783W        W92098  13.694   8.257  12.413
19784W        W92099  31.661  42.356   0.713
19785W        W92100   1.781  25.095   1.902
19786W        W92101  28.154  17.602   2.021
19787W        W92102  21.215  34.791  12.334
19788W        W92103  39.965  13.950  13.606
19789W        W92104  44.719   1.729  12.102
19790W        W92105  32.006  37.896   3.727
19791W        W92106   6.473   9.219  12.110
19792W        W92107   0.275   7.008   2.368
19793W        W92108  24.698  28.104  14.849
19794W        W92109  32.153  29.281   3.661
19795W        W92110  13.535  19.734   0.174
19796W        W92111   7.794  11.687  11.887
19797W        W92112  41.322  10.379  12.272
19798W        W92113   8.386  22.430  12.107
19799W        W92114  32.440   8.331  13.052
19800W        W92115  14.162  43.337   0.370
19801W        W92116  28.424  28.477   4.536
19802W        W92117  15.619  14.529  12.474
19803W        W92118  31.480  27.842   0.533
19804W        W92119  41.057  34.439   3.176
19805W        W92120  34.538  13.620   4.550
19806W        W92121  25.360  15.653   4.618
19807W        W92122  13.420  23.051  13.009
19808W        W92123  14.350  34.340   0.791
19809W        W92124  16.795  11.795   4.693
19810W        W92125  42.073  31.467   3.380
19811W        W92126  15.682  21.719  13.636
19812W        W92127  29.957  25.377  14.451
19813W        W92128   0.405  30.487  12.106
19814W        W92129   2.431  15.179  13.593
19815W        W92130  13.480  11.017  14.379
19816W        W92131  36.448   4.108   0.321
19817W        W92132  32.229   9.924  14.386
19818W        W92133  24.754  21.417   9.610
19819W        W92134  14.041  38.109   4.207
19820W        W92135  17.678  11.316  11.157
19821W        W92136  32.758   2.998  10.993
19822W        W92137  11.326  19.290  10.994
19823W        W92138  35.238  17.643  14.851
19824W        W92139  37.194  20.452  11.474
19825W        W92140  39.946   3.531  14.444
19826W        W92141   1.725  33.130  14.791
19827W        W92142  32.869  30.910  13.940
19828W        W92143  36.897  42.721  10.623
19829W        W92144  27.141  18.057   5.439
19830W        W92145  10.824  11.697   0.400
19831W        W92146  18.006  29.082  10.921
19832W        W92147  23.506   8.099  13.341
19833W        W92148  29.062   4.874  14.398
19834W        W92149  36.128  17.760  12.467
19835W        W92150   0.404   4.304  13.310
19836W        W92151  34.863  25.559  10.593
19837W        W92152   9.182  25.191   3.694
19838W        W92153  42.341  35.573  12.574
19839W        W92154  33.165  28.613   0.426
19840W        W92155  28.095  29.373  10.923
19841W        W92156  10.501   1.251  10.838
19842W        W92157   4.624   2.837   4.258
19843W        W92158  32.529  18.592   1.272
19844W        W92159  12.781  41.512   5.022
19845W        W92160  11.611  40.051  10.677
19846W        W92161  11.678  17.469   4.142
19847W        W92162  26.984  33.158   0.257
19848W        W92163  16.288  24.096  12.338
19849W        W92164  29.432  39.261   0.880
19850W        W92165   6.446   8.286  12.071
19851W        W92166   2.963  26.513  14.485
19852W        W92167   5.714  37.253   4.130
19853W        W92168  43.441  31.738   1.348
19854W        W92169  19.279  20.868   2.482
19855W        W92170  39.944  28.910  10.565
19856W        W92171  16.791   7.087  12.197
19857W        W92172   6.849   0.403   1.455
19858W        W92173  14.136  22.647  14.143
19859W        W92174  42.091   2.718  12.617
19860W        W92175  35.087  15.709  12.073
19861W        W92176  27.241  31.054   5.099
19862W        W92177  43.070  14.064  11.867
19863W        W92178  32.919  22.456  14.834
19864W        W92179  39.891  32.364   1.213
19865W        W92180  22.196  15.196   4.503
19866W        W92181  13.055   6.187  11.168
19867W        W92182   9.534  16.836  12.943
19868W        W92183   5.910  27.429   1.977
19869W        W92184  31.824  14.350  13.561
19870W        W92185  44.806  24.686  13.117
19871W        W92186  34.500  24.661  13.570
19872W        W92187  29.095  33.030   1.259
19873W        W92188   6.180  35.456  10.484
19874W        W92189  36.217  43.111  11.264
19875W        W92190  43.194   5.876   2.005
19876W        W92191   9.598   4.737  11.215
19877W        W92192   2.807   6.714  12.397
19878W        W92193  43.671   9.755  13.131
19879W        W92194  43.013  20.308  10.729
19880W        W92195  15.719  20.272   1.220
19881W        W92196   3.460  35.780   3.084
19882W        W92197   9.398  21.684   2.215
19883W        W92198  14.239  38.390  12.568
19884W        W92199  23.273  44.943   1.848
19885W        W92200  43.764  21.181  13.711
19886W        W92201  24.576  41.525  11.763
19887W        W92202  23.375  20.619   5.135
19888W        W92203  41.127  15.539  14.475
19889W        W92204   2.402  12.976   2.769
19890W        W92205  27.811  34.244   5.371
19891W        W92206  39.859   6.286   4.807
19892W        W92207  43.002   2.257   4.122
19893W        W92208  43.484  34.716  11.059
19894W        W92209  43.332  14.547   2.861
19895W        W92210   0.966  12.199  13.982
19896W        W92211  39.037  23.502  13.945
19897W        W92212  15.302   0.753   1.236
19898W        W92213  30.610  10.425   0.349
19899W        W92214  26.013   4.965   2.274
19900W        W92215  12.670  25.640  12.987
19901W        W92216   6.977   9.179   1.414
19902W        W92217  12.817  32.743   2.956
19903W        W92218  15.098  10.077   4.482
19904W        W92219  40.487  26.156  11.893
19905W        W92220   6.238  27.479   0.139
19906W        W92221  17.038   8.800   2.649
19907W        W92222  27.826  12.847  12.688
19908W        W92223  43.872  16.624  14.626
19909W        W92224  18.135  21.603   2.690
19910W        W92225  20.196  38.584  11.981
19911W        W92226  30.827  12.315   3.250
19912W        W92227  15.226  29.615   2.620
19913W        W92228  29.136  12.934   4.382
19914W        W92229  22.005  30.843  13.076
19915W        W92230   8.845  20.554  13.422
19916W        W92231  33.127  25.691  11.962
19917W        W92232  36.949  16.343  12.091
19918W        W92233  23.828  39.974   3.780
19919W        W92234  29.141  19.364   4.146
19920W        W92235  33.937   7.868   2.614
19921W        W92236  43.773  34.217   3.891
19922W        W92237  29.972  22.288  11.064
19923W        W92238  40.429  27.655  14.329
19924W        W92239   1.526  40.576  11.593
19925W        W92240  33.958  17.493  11.509
19926W        W92241  15.860   1.345  12.906
19927W        W92242   9.639   9.883   4.713
19928W        W92243  34.900  38.024   1.353
19929W        W92244   9.852  18.483   3.514
19930W        W92245  42.269   8.922  10.430
19931W        W92246  28.069   4.510  11.513
19932W        W92247  38.362   9.643  13.089
19933W        W92248  37.413  39.901   0.159
19934W        W92249  30.199  18.547  13.994
19935W        W92250  37.002   1.709  10.482
19936W        W92251  35.177  11.394   0.268
19937W        W92252   6.809  34.863  14.283
19938W        W92253  14.371   7.692   2.856
19939W        W92254  22.619  21.876   1.507
19940W        W92255  15.179  11.588   0.246
19941W        W92256   5.280  32.561   3.310
19942W        W92257  15.592  32.657  13.476
19943W        W92258  26.689  43.036   9.853
19944W        W92259  18.714   6.862  14.008
19945W        W92260  23.507  24.119   2.663
19946W        W92261  24.058  34.907   4.323
19947W        W92262  26.129  32.029  13.324
19948W        W92263   8.409   3.533   4.898
19949W        W92264  21.475  20.152   4.662
19950W        W92265  17.334  41.984  11.166
19951W        W92266   0.640   8.302   3.206
19952W        W92267  27.199  22.514  12.088
19953W        W92268  30.146  32.209   2.749
19954W        W92269  31.881   2.672   4.300
19955W        W92270   0.664  37.125  14.402
19956W        W92271   5.714  26.577  11.689
19957W        W92272  10.625   4.616  12.583
19958W        W92273  26.974  23.000   4.680
19959W        W92274  39.001   7.483   3.751
19960W        W92275  11.153  38.286  11.180
19961W        W92276  41.302  22.837  12.465
19962W        W92277   0.228  17.107  11.902
19963W        W92278  16.460  32.178  13.187
19964W        W92279  12.985   6.167  13.102
19965W        W92280  18.283   7.126   1.756
19966W        W92281  43.146   8.793   2.389
19967W        W92282  10.155  23.694   3.252
19968W        W92283  26.656  16.620  14.356
19969W        W92284  12.103  31.112  11.630
19970W        W92285  33.092  11.612   4.220
19971W        W92286  23.974  20.383   3.868
19972W        W92287  37.338   9.311   2.735
19973W        W92288  10.229   2.767   0.760
19974W        W92289  10.093  19.084   2.206
19975W        W92290  41.963  29.925  14.383
19976W        W92291  12.430  27.502   1.287
19977W        W92292  15.104  40.383   3.743
19978W        W92293  17.756  29.171   0.878
19979W        W92294  44.030  37.303   0.507
19980W        W92295  40.352  40.523   4.049
19981W        W92296  43.813  33.638   2.352
19982W        W92297  20.718   0.531   3.628
19983W        W92298  12.700  13.305   1.229
19984W        W92299  35.869  41.938  11.941
19985W        W92300  41.696  42.211   3.497
19986W        W92301  11.912  21.058  13.613
19987W        W92302  34.214   4.894  13.606
19988W        W92303   4.313  43.571   4.695
19989W        W92304  43.021  14.288   1.728
19990W        W92305  28.798  22.616   0.915
19991W        W92306  19.270  24.529   2.277
19992W        W92307  27.073  36.836   3.263
19993W        W92308  19.002  42.542  13.030
19994W        W92309   6.300  33.645  14.268
19995W        W92310  42.952  20.555   3.797
19996W        W92311  42.133   6.881   3.052
19997W        W92312  22.983  32.653   1.259
19998W        W92313  20.195  13.315  13.367
19999W        W92314  21.539  11.055  11.162
20000W        W92315   7.851  20.691   4.344
20001W        W92316  24.249  27.083  14.847
20002W        W92317  42.514  13.541   4.076
20003W        W92318   7.242  36.039   1.685
20004W        W92319  24.196  16.817  14.750
20005W        W92320  18.521  29.635  12.884
20006W        W92321   9.563  16.460  10.199
20007W        W92322  10.192   6.379   1.704
20008W        W92323  38.465   2.469   0.263
20009W        W92324  42.968  14.786  10.679
20010W        W92325  29.131  11.818  14.915
20011W        W92326   3.544  44.859  14.518
20012W        W92327  16.200   5.397   0.794
20013W        W92328  37.105  30.522  12.489
20014W        W92329   9.211  14.799   1.096
20015W        W92330  33.707  21.804   3.250
20016W        W92331  12.340  18.036   0.378
20017W        W92332  42.988  25.103   3.620
20018W        W92333   8.290   7.979   1.979
20019W        W92334  25.683  17.746   0.718
20020W        W92335  12.273  30.591   4.597
20021W        W92336  16.819   8.890   3.267
20022W        W92337  14.915   8.282   4.058
20023W        W92338  25.227  28.535  13.615
20024W        W92339  26.671  42.927  13.023
20025W        W92340  21.704  39.570   3.650
20026W        W92341  32.600  29.250   1.544
20027W        W92342   9.763  40.809  12.034
20028W        W92343   7.184  37.893   3.779
20029W        W92344  14.151   6.375   1.315
20030W        W92345  30.435  28.021  13.109
20031W        W92346   8.389   1.745   2.773
20032W        W92347  41.777  29.158   3.282
20033W        W92348  11.832  12.873   3.718
20034W        W92349  21.696  29.537   2.857
20035W        W92350  15.380  36.499  11.682
20036W        W92351  36.278  21.508   4.514
20037W        W92352  39.004  39.411  12.922
20038W        W92353  37.309  14.704  14.373
20039W        W92354  32.848   6.859  11.408
20040W        W92355  42.503  22.494   4.358
20041W        W92356  14.849  25.585   0.902
20042W        W92357  39.217  16.827  12.400
20043W        W92358  32.567  15.500   3.770
20044W        W92359  37.918  24.886  14.407
20045W        W92360  33.694  28.517  12.081
20046W        W92361  32.002  29.666   5.111
20047W        W92362  41.960  32.093  12.402
20048W        W92363   3.970  25.480  13.410
20049W        W92364  43.021  27.195  13.144
20050W        W92365  20.540   0.056   0.358
20051W        W92366   4.198  25.176  11.119
20052W        W92367  24.648  12.542   1.782
20053W        W92368  32.462  32.326   2.264
20054W        W92369  19.145  27.214  14.465
20055W        W92370   9.125  23.671  13.571
20056W        W92371  29.972  12.156  13.545
20057W        W92372  15.223  11.166  14.050
20058W        W92373  15.715  39.739  12.541
20059W        W92374   3.995  18.829   0.411
20060W        W92375  17.020   3.885   2.749
20061W        W92376  13.659   3.185  14.480
20062W        W92377  10.707  18.458  14.777
20063W        W92378   3.532  20.018  12.369
20064W        W92379  16.596  28.056  11.192
20065W        W92380   0.432  27.386   3.003
20066W        W92381  27.858   5.384  13.930
20067W        W92382  23.330  23.446  14.320
20068W        W92383  35.066  36.937   3.480
20069W        W92384   9.352  33.377   3.836
20070W        W92385  44.946  28.587   3.600
20071W        W92386  38.114  30.505  11.509
20072W        W92387  29.010  23.942   3.773
20073W        W92388  34.531  10.959   0.495
20074W        W92389  35.927  38.025  13.101
20075W        W92390  19.465   3.443  10.485
20076W        W92391  33.945  27.163   2.619
20077W        W92392   7.821  35.185  14.944
20078W        W92393  18.108  41.509  11.117
20079W        W92394  26.187  31.955   1.361
20080W        W92395  28.361  40.100   2.976
20081W        W92396  18.548  18.574   1.879
20082W        W92397   0.391   4.006  10.983
20083W        W92398  19.801   5.461  12.449
20084W        W92399   5.283  38.545   3.628
20085W        W92400  20.028  29.731   1.289
20086W        W92401  41.351  38.881  11.226
20087W        W92402  11.841  36.040   2.833
20088W        W92403   7.754   3.188   3.042
20089W        W92404  31.996   3.482   2.282
20090W        W92405  32.100  35.197   4.136
20091W        W92406  14.175  41.304   2.787
20092W        W92407  22.684  25.066   4.586
20093W        W92408  41.404  26.734   0.348
20094W        W92409  36.862  30.561  12.048
20095W        W92410   4.886  31.921  13.308
20096W        W92411   2.223  21.562   2.236
20097W        W92412   6.861   5.587  13.432
20098W        W92413  24.140   7.449  12.652
20099W        W92414  15.109  18.162  12.071
20100W        W92415  32.008   2.212   4.092
20101W        W92416   5.724  42.255   3.347
20102W        W92417  22.281   9.727   2.396
20103W        W92418  40.309   8.954   0.286
20104W        W92419  20.027  42.640  11.860
20105W        W92420  30.919  39.431   2.116
20106W        W92421  38.198  33.940  13.541
20107W        W92422  43.833  22.076  13.567
20108W        W92423  44.828  26.644   3.405
20109W        W92424   5.034  14.376   4.072
20110W        W92425  24.968  28.557  14.968
20111W        W92426  37.891  21.635   0.385
20112W        W92427   6.356  29.156   0.831
20113W        W92428   8.342  43.375   4.239
20114W        W92429  20.971   8.136  14.079
20115W        W92430   8.962  33.403  10.183
20116W        W92431   1.687  18.109   1.252
20117W        W92432   7.479   6.954   4.592
20118W        W92433  10.830  29.160   1.625
20119W        W92434  20.404  36.046   0.373
20120W        W92435  11.214  25.850   3.313
20121W        W92436  27.717  35.717   1.900
20122W        W92437   9.860  26.117  12.467
20123W        W92438  26.127   0.496  14.699
20124W        W92439  34.926  10.121   2.135
20125W        W92440  28.858  30.942   1.685
20126W        W92441  37.250  18.266  13.941
20127W        W92442  34.384  11.634   1.904
20128W        W92443   9.115  11.105   4.659
20129W        W92444  35.362   9.918  14.915
20130W        W92445  35.094  33.467  11.698
20131W        W92446  36.479  33.108   3.948
20132W        W92447   3.845  11.180   1.390
20133W        W92448  36.572  28.531   2.902
20134W        W92449  25.519  19.214  10.762
20135W        W92450  37.165  22.560  10.716
20136W        W92451  15.209  22.951  13.549
20137W        W92452  25.713  34.548   2.589
20138W        W92453  34.026   9.911  13.920
20139W        W92454  23.226  43.087   3.335
20140W        W92455   1.016  26.086  12.780
20141W        W92456  32.080  38.752   0.749
20142W        W92457   9.623  25.436   3.889
20143W        W92458  12.705  23.700   0.443
20144W        W92459  12.679   2.977   1.290
20145W        W92460  20.206  38.845   3.413
20146W        W92461  10.596  14.780  11.195
20147W        W92462   6.319   5.671  10.806
20148W        W92463  40.310  36.590  12.613
20149W        W92464  32.265   1.056  13.424
20150W        W92465  35.679  20.014  11.270
20151W        W92466   9.638  19.204  10.380
20152W        W92467  30.092   7.867   2.184
20153W        W92468  40.598  35.972  11.262
20154W        W92469  23.432  36.485  11.601
20155W        W92470  24.247  38.869   4.089
20156W        W92471  27.952  22.665   3.634
20157W        W92472  34.928  36.873  14.771
20158W        W92473  15.583  13.115  11.555
20159W        W92474  22.724   8.120  11.189
20160W        W92475   0.242   3.516  10.942
20161W        W92476  20.567  41.893   4.679
20162W        W92477  31.060  43.573   0.697
20163W        W92478  38.421  11.437   0.743
20164W        W92479  19.611   7.906   4.513
20165W        W92480  26.701  42.520   0.726
20166W        W92481  17.573  26.266   3.692
20167W        W92482   6.121  25.688  14.828
20168W        W92483  16.859  38.339   2.972
20169W        W92484   6.203  29.608   4.286
20170W        W92485  16.786   6.239  10.635
20171W        W92486   0.352  17.093  12.485
20172W        W92487  44.276  16.741   3.791
20173W        W92488  43.254   6.764  13.790
20174W        W92489  34.962   8.492  14.260
20175W        W92490  14.543  16.059  14.476
20176W        W92491  41.233  16.907   3.761
20177W        W92492  11.725  29.217   1.788
20178W        W92493   9.811  12.886   0.766
20179W        W92494   9.312  39.074  12.441
20180W        W92495  26.496  20.643   3.227
20181W        W92496  40.293  11.186   1.434
20182W        W92497  18.761  18.643  13.777
20183W        W92498  10.157  19.189  13.934
20184W        W92499  42.832  33.387  13.799
20185W        W92500  32.633  39.061   0.446
20186W        W92501  17.011  29.437   2.858
20187W        W92502  29.998  31.062   2.174
20188W        W92503   1.795   6.675  13.977
20189W        W92504  16.426   3.058  12.410
20190W        W92505  20.319  10.697   3.831
20191W        W92506  14.659  22.281  13.870
20192W        W92507   8.607  12.837  13.066
20193W        W92508  38.922   7.459  13.806
20194W        W92509  34.579  21.168   5.026
20195W        W92510  12.628  42.722   2.294
20196W        W92511  30.705  23.809  14.409
20197W        W92512  24.540  30.640  14.095
20198W        W92513  18.559   3.400   3.259
20199W        W92514  35.869  17.671   3.906
20200W        W92515  39.117  39.491   3.697
20201W        W92516  17.795  33.168   4.630
20202W        W92517   2.543  35.121   0.686
20203W        W92518  14.839  23.576  12.577
20204W        W92519   7.726  15.293  10.560
20205W        W92520  41.800  17.276  14.431
20206W        W92521  23.663  14.629   4.636
20207W        W92522   6.276   6.458  12.590
20208W        W92523   3.063   8.181  14.099
20209W        W92524  29.213  40.739   0.375
20210W        W92525  12.060  11.771  14.847
20211W        W92526   5.530   1.750  10.704
20212W        W92527  37.658  17.839   2.390
20213W        W92528  18.325  17.162   2.935
20214W        W92529  28.667  33.092  13.994
20215W        W92530  10.390  19.174   2.632
20216W        W92531  21.069  44.515   1.205
20217W        W92532  26.516  24.987  12.467
20218W        W92533  36.791  41.762  11.092
20219W        W92534   7.922  22.074   3.100
20220W        W92535  10.160  26.011  14.718
20221W        W92536   0.804  42.077   3.710
20222W        W92537  43.982  21.974   1.720
20223W        W92538  37.999  39.539   0.828
20224W        W92539  31.801  43.089  13.465
20225W        W92540  30.923   5.944   0.348
20226W        W92541  24.118  16.631  12.636
20227W        W92542  40.770   2.900  10.592
20228W        W92543  26.689  43.543  10.702
20229W        W92544  20.010  38.075   3.400
20230W        W92545  44.723  27.673   9.790
20231W        W92546   9.738  37.103  12.582
20232W        W92547  41.237   1.107   3.718
20233W        W92548  18.674  34.146   2.343
20234W        W92549  44.200  44.803   4.514
20235W        W92550  13.738  28.597   1.958
20236W        W92551  17.995  15.583  12.668
20237W        W92552  33.099  30.349   3.096
20238W        W92553  17.256  40.534   9.964
20239W        W92554  10.248  44.010  12.961
20240W        W92555   3.407   7.223  14.591
20241W        W92556   9.585  21.342  14.980
20242W        W92557  43.726  43.309   1.864
20243W        W92558  29.701  40.058  13.280
20244W        W92559  18.598  17.592   4.050
20245W        W92560  39.126  33.526   1.399
20246W        W92561  43.510   5.898   4.581
20247W        W92562  23.226  33.412   3.189
20248W        W92563  20.455   1.330   4.915
20249W        W92564  13.277   4.983   0.392
20250W        W92565   4.901   5.150  12.438
20251W        W92566   8.588   5.060  13.011
20252W        W92567  20.738  16.603  12.038
20253W        W92568  21.503  30.189  12.507
20254W        W92569  25.763  33.686   1.420
20255W        W92570   7.829  16.309  14.769
20256W        W92571  25.046  29.174   2.453
20257W        W92572  37.612  29.971   0.820
20258W        W92573  41.580   9.827  12.080
20259W        W92574  31.813  12.672  12.211
20260W        W92575  21.935  42.125  11.136
20261W        W92576  32.840  35.356  12.513
20262W        W92577  11.667  18.118  12.078
20263W        W92578  32.223  19.452  10.092
20264W        W92579  28.870  25.170   3.541
20265W        W92580  20.516  35.530   4.367
20266W        W92581  11.874  10.438   4.595
20267W        W92582   0.722  11.828  14.866
20268W        W92583  43.506  14.381   4.170
20269W        W92584  17.659  32.930   2.182
20270W        W92585   2.411  23.392   2.436
20271W        W92586  43.835   7.017  12.956
20272W        W92587  31.914  31.160  10.624
20273W        W92588  38.146  34.938  14.960
20274W        W92589  25.220   6.990  10.555
20275W        W92590  42.993  19.093   1.969
20276W        W92591  29.019  19.667   3.722
20277W        W92592  42.883   2.352  14.064
20278W        W92593   6.354  17.495  10.278
20279W        W92594  30.811  20.078  10.757
20280W        W92595  24.721  19.808   3.633
20281W        W92596   1.696  22.646  14.640
20282W        W92597  19.455  19.275  11.478
20283W        W92598  20.276  11.336   1.318
20284W        W92599  14.812  36.550   3.629
20285W        W92600   5.514  37.375  13.726
20286W        W92601  24.654  14.530   2.839
20287W        W92602  17.036  32.516   1.442
20288W        W92603  16.273   0.997  11.563
20289W        W92604  16.473  40.970  13.400
20290W        W92605  42.165   3.926  11.111
20291W        W92606  18.233  43.011  11.111
20292W        W92607  42.563  15.333   4.817
20293W        W92608   8.148  43.495   4.704
20294W        W92609  23.903  41.499   0.707
20295W        W92610  41.421   2.309  13.000
20296W        W92611  23.783   9.216   3.706
20297W        W92612  14.237   6.695   0.079
20298W        W92613  12.274  38.006  11.142
20299W        W92614  24.675   4.371   1.515
20300W        W92615   9.500   2.773   0.418
20301W        W92616  44.880  13.875  12.093
20302W        W92617   0.558   4.777   3.364
20303W        W92618   4.445  39.212   3.303
20304W        W92619  43.177   0.537   2.689
20305W        W92620  20.482  26.955   1.131
20306W        W92621  17.209   3.720   0.425
20307W        W92622  16.282  24.208   0.142
20308W        W92623  14.771   9.314   3.514
20309W        W92624  21.915   4.631  14.263
20310W        W92625  14.837  21.749   0.046
20311W        W92626   4.306  32.490  11.122
20312W        W92627   8.832  19.769   0.447
20313W        W92628  35.991  40.940  12.971
20314W        W92629  39.446  41.851  11.073
20315W        W92630  23.627  27.968  10.852
20316W        W92631  25.166  30.702  11.855
20317W        W92632  16.678   0.414  14.919
20318W        W92633  29.427  41.519   1.922
20319W        W92634  29.100  16.109  12.611
20320W        W92635  14.643  39.057   4.350
20321W        W92636  40.756  28.358  12.453
20322W        W92637  37.634   9.319   2.312
20323W        W92638   1.674  16.329  11.616
20324W        W92639  40.482  14.865  11.115
20325W        W92640   1.876  17.812  14.311
20326W        W92641  10.343  41.824  10.580
20327W        W92642  42.329  40.959  10.469
20328W        W92643  44.775  13.432  11.891
20329W        W92644   5.903  32.326  13.479
20330W        W92645  38.959   1.954  12.590
20331W        W92646  34.547  17.306  11.277
20332W        W92647   5.912   6.119  12.967
20333W        W92648  25.008  40.357   4.701
20334W        W92649   0.397  25.070   3.546
20335W        W92650   7.254  11.429  13.889
20336W        W92651  23.255   3.196  13.008
20337W        W92652  21.571   1.746   5.024
20338W        W92653  17.608  28.717   3.880
20339W        W92654  16.910  36.696  12.120
20340W        W92655  44.722  18.687  14.370
20341W        W92656   7.709  41.789  11.196
20342W        W92657  23.112  32.020   0.044
20343W        W92658  23.756  27.589  13.407
20344W        W92659  29.015  27.038  12.063
20345W        W92660  30.663  28.466  12.957
20346W        W92661  43.028   2.846   1.851
20347W        W92662  17.641  36.002  12.040
20348W        W92663   3.211  18.098   1.202
20349W        W92664  40.811  26.767   2.351
20350W        W92665  13.634  40.738   1.886
20351W        W92666  21.289  38.556  12.394
20352W        W92667  21.517   1.037   3.335
20353W        W92668  20.874  34.628  11.489
20354W        W92669  28.081  39.378  13.932
20355W        W92670   3.259  40.863  12.691
20356W        W92671  33.862  18.623  13.914
20357W        W92672   1.275  35.372  12.870
20358W        W92673  15.788   1.238   3.640
20359W        W92674  28.171  40.068  11.754
20360W        W92675  25.207  37.428  14.247
20361W        W92676  22.457  24.705   1.353
20362W        W92677  10.730  17.835  11.463
20363W        W92678   9.132  26.551   3.883
20364W        W92679  23.643  36.257  12.061
20365W        W92680   6.843   0.825   4.142
20366W        W92681  39.250  13.649   1.238
20367W        W92682  40.385  31.574  13.857
20368W        W92683  43.275  28.056   1.974
20369W        W92684   1.024  40.076   1.770
20370W        W92685   2.733  12.559   3.263
20371W        W92686  17.214  20.216  10.926
20372W        W92687  40.892  44.512   4.911
20373W        W92688  36.786   2.114   0.061
20374W        W92689  18.820  28.793  10.687
20375W        W92690   2.885  38.810  11.977
20376W        W92691   2.010  24.464  14.645
20377W        W92692  23.080  39.158   1.330
20378W        W92693  37.486  23.060   0.119
20379W        W92694   7.666   4.099  12.464
20380W        W92695  12.595  44.328  12.613
20381W        W92696  43.375  13.287  11.723
20382W        W92697  28.677   4.463  10.670
20383W        W92698  23.478  20.159  13.767
20384W        W92699  32.579  35.094   1.277
20385W        W92700  23.463  32.561   1.418
20386W        W92701  43.433  19.071  13.797
20387W        W92702   2.423  43.865   1.003
20388W        W92703  31.562   6.273  14.418
20389W        W92704  11.082  28.044  10.931
20390W        W92705  44.002  12.404  11.657
20391W        W92706  22.756  14.714  13.890
20392W        W92707  12.242  30.618   1.639
20393W        W92708  19.485  18.848   1.817
20394W        W92709   4.463  32.418  14.461
20395W        W92710  18.712   8.327   9.841
20396W        W92711   0.327   5.321   1.405
20397W        W92712  43.267  29.625   4.737
20398W        W92713  37.518  25.583  13.263
20399W        W92714  42.436  26.952  10.555
20400W        W92715  26.865  20.880   3.559
20401W        W92716  14.773  24.380  12.012
20402W        W92717   6.690  33.005  11.931
20403W        W92718  44.720  37.023   2.283
20404W        W92719  35.787   6.740  12.992
20405W        W92720  27.382   2.539  11.071
20406W        W92721  11.678  44.821   4.542
20407W        W92722  22.990  10.736   3.060
20408W        W92723   2.763  24.509   0.520
20409W        W92724   0.776  27.668  11.938
20410W        W92725  15.930  10.197  11.612
20411W        W92726  28.979  36.209   4.254
20412W        W92727  41.049  35.587   4.584
20413W        W92728  34.393  23.117   0.788
20414W        W92729  43.907   7.338   2.430
20415W        W92730   8.378  30.696   0.966
20416W        W92731  41.423  43.853   3.257
20417W        W92732  35.986   3.267   4.712
20418W        W92733  29.788  10.332  12.569
20419W        W92734  28.494   2.508   2.286
20420W        W92735  42.302   6.882   1.400
20421W        W92736   9.157  36.350  13.921
20422W        W92737  41.320  26.493   3.963
20423W        W92738  24.610  25.508   1.348
20424W        W92739  23.187  33.841  13.424
20425W        W92740  29.288  38.181   1.810
20426W        W92741   2.494  15.359   1.093
20427W        W92742  36.520  17.389  10.695
20428W        W92743   6.737  12.206  11.216
20429W        W92744  36.504  28.639  11.987
20430W        W92745   4.929  10.275  13.518
20431W        W92746   4.242  20.149   2.491
20432W        W92747  30.600   7.679  11.725
20433W        W92748   4.193  40.523  10.618
20434W        W92749  33.626  21.353   3.887
20435W        W92750  34.101  22.534   2.789
20436W        W92751  31.581  25.112  12.746
20437W        W92752  14.971  40.896  13.125
20438W        W92753   7.747   3.029   0.918
20439W        W92754  18.109  25.642   0.843
20440W        W92755  13.146  22.484   0.222
20441W        W92756  31.430   3.379   0.000
20442W        W92757   9.233  39.269   2.752
20443W        W92758  30.068  19.194  14.522
20444W        W92759  15.074  20.303   0.621
20445W        W92760  22.201  33.073   0.271
20446W        W92761  40.176  33.911  14.612
20447W        W92762  38.969  43.756   0.856
20448W        W92763  22.612  30.709   0.299
20449W        W92764   6.428  27.457   4.836
20450W        W92765  35.313  35.977  13.415
20451W        W92766   7.361  26.598  11.051
20452W        W92767  28.868  19.651  12.626
20453W        W92768  18.651  42.503   0.373
20454W        W92769  19.708  38.376   1.285
20455W        W92770  41.778  27.933  10.584
20456W        W92771  16.546  29.215  13.831
20457W        W92772  41.121  22.049  13.825
20458W        W92773  41.464  33.243  11.540
20459W        W92774   9.891  43.327   0.174
20460W        W92775   7.486  21.825   0.780
20461W        W92776   8.072   3.118   0.498
20462W        W92777  20.478  19.588  14.442
20463W        W92778   0.336  11.363  10.201
20464W        W92779   1.743  36.044   5.444
20465W        W92780  29.444  36.059   0.460
20466W        W92781  29.839   0.093   3.602
20467W        W92782   7.746  22.509  13.659
20468W        W92783  44.834  28.458   2.676
20469W        W92784  30.666  20.006   3.727
20470W        W92785  32.822  34.748   3.231
20471W        W92786  33.404  20.556  14.436
20472W        W92787  25.614  23.636  10.557
20473W        W92788  37.989  44.339   1.693
20474W        W92789  23.066   8.882  11.205
20475W        W92790  30.211   0.475  12.500
20476W        W92791  22.463  10.430  13.018
20477W        W92792  29.107  32.110   1.430
20478W        W92793   6.443  30.533   0.452
20479W        W92794  37.561  36.261   0.435
20480W        W92795  44.954  36.500   1.155
20481W        W92796  28.068  12.061  12.841
20482W        W92797  42.489  22.442   3.834
20483W        W92798  22.436  28.596  13.042
20484W        W92799  23.082  40.547  12.091
20485W        W92800  17.156  17.512   2.304
20486W        W92801  31.839  42.069   3.876
20487W        W92802  20.561   5.168   2.061
20488W        W92803   0.154  22.308   2.239
20489W        W92804  23.969  41.560   2.418
20490W        W92805   6.867   2.540  12.527
20491W        W92806  24.710  43.352  13.896
20492W        W92807  40.418  15.139  11.633
20493W        W92808  24.082  44.389   1.976
20494W        W92809  19.078  27.484  11.555
20495W        W92810  44.355  24.706   3.157
20496W        W92811   8.283  24.177   2.459
20497W        W92812  19.884  30.072   2.573
20498W        W92813  13.603  27.913  10.615
20499W        W92814  22.585  26.835   1.826
20500W        W92815  38.208  22.692  11.289
20501W        W92816  25.583   7.738   0.460
20502W        W92817  42.969   9.234   0.787
20503W        W92818  29.575  30.048   2.417
20504W        W92819  25.663  14.555   1.364
20505W        W92820  20.750  42.434  10.721
20506W        W92821  42.371   0.099   3.352
20507W        W92822  32.159  32.893  13.863
20508W        W92823  42.095   1.319   1.649
20509W        W92824  11.948  24.183   3.279
20510W        W92825  34.383  23.894  12.504
20511W        W92826  37.881   2.674   0.468
20512W        W92827  19.668  28.146   5.384
20513W        W92828  37.300  13.535   1.153
20514W        W92829  33.381  30.398   1.206
20515W        W92830   2.778  44.685   4.515
20516W        W92831  41.310  28.279   2.615
20517W        W92832  38.502   9.692  13.571
20518W        W92833   5.377   1.136  13.300
20519W        W92834  26.562  24.851  13.791
20520W        W92835   1.062  10.240  13.275
20521W        W92836  29.491  20.269   4.887
20522W        W92837  28.130  21.788  14.546
20523W        W92838  25.764  14.864  11.157
20524W        W92839   6.336  33.650  12.402
20525W        W92840  30.756  22.098  14.785
20526W        W92841  27.080  43.311  13.327
20527W        W92842  24.768  42.490   4.693
20528W        W92843  22.527  34.371   1.900
20529W        W92844  19.255   9.362   1.022
20530W        W92845  26.184  15.174   1.386
20531W        W92846   0.858   3.009  10.739
20532W        W92847  35.039  29.544   3.202
20533W        W92848  31.431  37.339   4.740
20534W        W92849  12.502  18.008   3.232
20535W        W92850  25.621  39.744  11.048
20536W        W92851  37.763  26.968  14.359
20537W        W92852  18.746  36.119  14.918
20538W        W92853   0.726   2.500  13.680
20539W        W92854   3.724  21.045  12.438
20540W        W92855  11.561  10.317  10.695
20541W        W92856  10.167  39.594   2.970
20542W        W92857   6.174  39.361  10.684
20543W        W92858   2.483  29.018   3.664
20544W        W92859  23.990  29.054   4.024
20545W        W92860  34.565  20.050  12.606
20546W        W92861  42.430   9.465  13.117
20547W        W92862  14.193   6.651   2.371
20548W        W92863  33.572  16.002  11.433
20549W        W92864  20.084  29.146   4.566
20550W        W92865  41.734   1.770   4.116
20551W        W92866  24.513  32.147  14.783
20552W        W92867  20.331  25.501   3.779
20553W        W92868  35.469  33.468   4.194
20554W        W92869  37.001   3.993  14.360
20555W        W92870  37.890  41.960  14.719
20556W        W92871  39.916  41.061   0.241
20557W        W92872  10.866   3.324  12.982
20558W        W92873  34.869  25.510   4.639
20559W        W92874   5.289  44.802  12.957
20560W        W92875   1.978  21.661  14.036
20561W        W92876  27.510  33.526  13.547
20562W        W92877  19.745  32.401   0.883
20563W        W92878  42.337  32.341   0.713
20564W        W92879  23.232  42.217   0.346
20565W        W92880  32.633  37.616   4.198
20566W        W92881  35.959   3.675  14.691
20567W        W92882  25.703  15.550  14.401
20568W        W92883  27.583  21.692  13.966
20569W        W92884  13.680  10.451   2.788
20570W        W92885  16.115   2.094  13.358
20571W        W92886   5.064  20.328  14.416
20572W        W92887   0.306  25.566  12.977
20573W        W92888   4.513  10.845   2.661
20574W        W92889  22.012   8.130  11.925
20575W        W92890  38.532  39.472   0.771
20576W        W92891  37.426  41.961  12.919
20577W        W92892   4.531  13.178  12.108
20578W        W92893   4.972  26.964  10.320
20579W        W92894   0.013   6.838  11.646
20580W        W92895   9.184  27.476  12.992
20581W        W92896  31.896  16.070  11.256
20582W        W92897  28.100   1.449  10.912
20583W        W92898  25.614  22.730   2.791
20584W        W92899  18.595   5.526   3.188
20585W        W92900  44.800  43.711   2.896
20586W        W92901  35.626   3.763   1.734
20587W        W92902  37.012   9.330   0.911
20588W        W92903  24.266  22.570   2.034
20589W        W92904   3.933  42.895  12.042
20590W        W92905  26.702  28.016   4.067
20591W        W92906  42.805   5.882  12.032
20592W        W92907  37.454  44.249  14.784
20593W        W92908  44.759  34.309   2.002
20594W        W92909  17.350  12.424   1.387
20595W        W92910  30.359  32.019  10.533
20596W        W92911  39.645  30.562  14.670
20597W        W92912  23.973  19.550  12.039
20598W        W92913  42.484  41.402   1.355
20599W        W92914  33.804  13.901  11.199
20600W        W92915  16.554   3.411   3.711
20601W        W92916  25.563  43.992   3.278
20602W        W92917  42.034  20.234  14.881
20603W        W92918   6.005  32.633  12.154
20604W        W92919  35.092  43.925   1.396
20605W        W92920  31.088  31.829  13.130
20606W        W92921  14.415   9.864  13.370
20607W        W92922  41.255  36.386   1.748
20608W        W92923   0.382  21.728   4.177
20609W        W92924  11.748  22.894   2.677
20610W        W92925  15.624  15.203  14.484
20611W        W92926  40.414  42.371  12.385
20612W        W92927  40.894  38.143   0.907
20613W        W92928  31.953   0.912  10.868
20614W        W92929  12.719   5.872   3.149
20615W        W92930   8.788  35.789   1.286
20616W        W92931   0.051  31.313  14.842
20617W        W92932  28.728  37.773  12.653
20618W        W92933  17.367  16.129   0.791
20619W        W92934  13.042   1.493   2.881
20620W        W92935  16.489  12.849  11.158
20621W        W92936  31.280   9.201  14.119
20622W        W92937  40.222   8.153   0.873
20623W        W92938  18.520  29.898   5.107
20624W        W92939  22.839  42.962   0.755
20625W        W92940  40.579  34.927  13.844
20626W        W92941  33.497  14.747   0.781
20627W        W92942   6.956  29.448   1.219
20628W        W92943  36.572   7.738  13.781
20629W        W92944  17.353   9.095   4.029
20630W        W92945  13.858   0.537  11.487
20631W        W92946  35.160   3.541   1.840
20632W        W92947  36.833  24.234  10.367
20633W        W92948  41.668  37.240  12.610
20634W        W92949  28.613  13.876   3.385
20635W        W92950  17.332  14.084  12.604
20636W        W92951  23.530  10.112   2.788
20637W        W92952  38.774  15.703   0.522
20638W        W92953  27.965   1.329  10.436
20639W        W92954  36.015  13.959  11.367
20640W        W92955   0.238  40.482   3.697
20641W        W92956  27.856  12.306  13.902
20642W        W92957  21.940  25.435  13.004
20643W        W92958   4.047  11.219  12.847
20644W        W92959   6.859  29.004   4.641
20645W        W92960  40.325  28.490  11.559
20646W        W92961  36.772   7.761   2.930
20647W        W92962  25.156  11.789   1.903
20648W        W92963  13.154  29.807  12.940
20649W        W92964  37.275  41.931  13.834
20650W        W92965   6.800  29.533   2.171
20651W        W92966  21.818  20.207  10.126
20652W        W92967  18.501  21.116  10.246
20653W        W92968  38.938  18.086  14.558
20654W        W92969   1.211  21.986  11.256
20655W        W92970  20.810  34.055  13.495
20656W        W92971  36.091   7.890   0.253
20657W        W92972  16.374  16.634  12.121
20658W        W92973  22.954  20.307  13.523
20659W        W92974   3.918   9.899   0.322
20660W        W92975   0.441  23.187   4.069
20661W        W92976  12.536  24.450  12.490
20662W        W92977  32.966   6.420   4.361
20663W        W92978  39.322  11.100  14.905
20664W        W92979   0.526  36.906  13.031
20665W        W92980  19.250  12.696   2.842
20666W        W92981  28.856   8.714  10.453
20667W        W92982  25.231  13.735  11.208
20668W        W92983   0.450   1.329   4.635
20669W        W92984  43.192  32.595   4.104
20670W        W92985   9.140  17.324  13.621
20671W        W92986  32.864  40.777  12.470
20672W        W92987  21.502  25.176   2.863
20673W        W92988  24.377  14.700  14.849
20674W        W92989  13.189  28.312   3.219
20675W        W92990  27.139  33.183  10.788
20676W        W92991  12.227   7.821  11.505
20677W        W92992   2.597  30.118   1.868
20678W        W92993  43.543  30.617   2.191
20679W        W92994   7.955  39.424  12.428
20680W        W92995  20.564  41.440  11.954
20681W        W92996  27.701  39.657  14.369
20682W        W92997  14.736  28.595   4.259
20683W        W92998  14.053  32.028  13.052
20684W        W92999  25.272   2.154   1.487
20685W        W93000  12.928  39.587   1.741
20686W        W93001  19.339  19.562   2.199
20687W        W93002   0.412   1.311  14.592
20688W        W93003  37.100  38.336  13.641
20689W        W93004  31.104  17.033  12.482
20690W        W93005  38.647  13.782   2.690
20691W        W93006  11.267  28.477   4.167
20692W        W93007  34.300  33.947  14.481
20693W        W93008  36.070  14.369   2.132
20694W        W93009  44.248  32.634  10.746
20695W        W93010  38.532  39.095  11.105
20696W        W93011   7.722  12.612  11.948
20697W        W93012  21.547  43.541  12.901
20698W        W93013  36.548   5.301  13.245
20699W        W93014   2.257  37.121   4.533
20700W        W93015   0.815   4.537  10.622
20701W        W93016  29.591  33.936  11.558
20702W        W93017   7.324  15.391   0.825
20703W        W93018  35.620  22.153   4.664
20704W        W93019  31.114  33.844  13.965
20705W        W93020   0.390  43.316  10.556
20706W        W93021   6.259  36.125   1.744
20707W        W93022  17.702  36.279  12.978
20708W        W93023  38.711   2.976   1.007
20709W        W93024  36.389  30.034   3.375
20710W        W93025  22.789   2.212  13.082
20711W        W93026  33.001  37.814   0.678
20712W        W93027  21.460  36.616  12.458
20713W        W93028  35.421  33.901   0.011
20714W        W93029  44.453  21.479  12.028
20715W        W93030  27.800  33.725  10.245
20716W        W93031  18.626  31.230   4.614
20717W        W93032  21.950  14.753   0.160
20718W        W93033  10.265  36.165   4.215
20719W        W93034  41.659  30.815   2.713
20720W        W93035  27.183  42.363  12.011
20721W        W93036  33.500   7.653   1.862
20722W        W93037  31.107  11.309   0.402
20723W        W93038   3.249  16.595  10.714
20724W        W93039  19.863  40.550   0.484
20725W        W93040  41.295  38.366  13.634
20726W        W93041  35.991   4.781   1.149
20727W        W93042  41.077   9.679  12.024
20728W        W93043  13.030  17.808   2.817
20729W        W93044  20.316  31.474  11.484
20730W        W93045  10.167  42.052  11.577
20731W        W93046  18.070  20.240  13.347
20732W        W93047  37.616  42.216   4.311
20733W        W93048  17.061  21.220  14.193
20734W        W93049  22.806  23.920  11.938
20735W        W93050  30.531  37.322  10.267
20736W        W93051  10.798  13.505  14.642
20737W        W93052   8.214  38.007   0.730
20738W        W93053   9.976  36.088   2.339
20739W        W93054  19.039  18.085   2.158
20740W        W93055  13.020   3.027   3.981
20741W        W93056  16.679   2.217  12.098
20742W        W93057  35.907  40.397   2.087
20743W        W93058  21.588  38.623  13.060
20744W        W93059  10.030   8.216   3.784
20745W        W93060  43.783  14.606  12.021
20746W        W93061  30.797  12.752  12.040
20747W        W93062  26.774  10.319  11.013
20748W        W93063  19.548  21.576  12.165
20749W        W93064  29.656  33.180  11.135
20750W        W93065  43.826   7.917  10.495
20751W        W93066  26.628   3.442  10.251
20752W        W93067   6.291  29.005   2.897
20753W        W93068  31.115   7.984   0.321
20754W        W93069  31.604  35.041  12.071
20755W        W93070  12.200   3.961  12.002
20756W        W93071  11.118  32.628  12.343
20757W        W93072  27.299  28.117  11.529
20758W        W93073  30.420  40.370  10.712
20759W        W93074  35.258  32.920  14.723
20760W        W93075  28.994   5.915   4.321
20761W        W93076   1.333   9.780   1.332
20762W        W93077   1.746  11.768  11.914
20763W        W93078  29.860  26.117  14.798
20764W        W93079  41.312  30.878   0.494
20765W        W93080  20.438  23.436  13.586
20766W        W93081   1.658  17.035   3.631
20767W        W93082  41.942  37.179   0.667
20768W        W93083  26.302  22.998   2.255
20769W        W93084  18.239  31.683  13.885
20770W        W93085  10.086   8.192   0.258
20771W        W93086  19.373  17.504   3.435
20772W        W93087  16.334  22.267  11.023
20773W        W93088  14.665  15.701   9.978
20774W        W93089  40.275  27.603   1.791
20775W        W93090   6.846  34.167   1.409
20776W        W93091   5.604   1.561  14.261
20777W        W93092  23.035  12.812   1.852
20778W        W93093  24.240   7.799   4.219
20779W        W93094  26.141  29.195   2.107
20780W        W93095  28.726  33.732  12.386
20781W        W93096  12.521   6.184   2.649
20782W        W93097  28.424  18.739   4.159
20783W        W93098   9.753  17.075   4.347
20784W        W93099  18.538  18.416   0.017
20785W        W93100  40.520  11.379  13.442
20786W        W93101  17.323  24.960  11.624
20787W        W93102  31.444  44.260  12.640
20788W        W93103   6.308  12.281   3.032
20789W        W93104  12.187  24.533  14.224
20790W        W93105  19.701  19.795   1.833
20791W        W93106   8.024  36.812  11.257
20792W        W93107  34.416  19.293   1.322
20793W        W93108  38.470  29.669  14.300
20794W        W93109   3.346  33.590   3.684
20795W        W93110  10.181  38.193   5.278
20796W        W93111  17.174  40.271   3.141
20797W        W93112  39.359  13.079   2.725
20798W        W93113  26.697  42.006   0.865
20799W        W93114   1.044   0.846  11.565
20800W        W93115   0.263  13.118  11.054
20801W        W93116   3.190  17.026   4.625
20802W        W93117  33.824  13.604  10.711
20803W        W93118  40.499   9.597   3.333
20804W        W93119   1.420  42.361   0.826
20805W        W93120   8.322   6.181   3.386
20806W        W93121  43.190  24.088   2.784
20807W        W93122   3.982  29.904   1.020
20808W        W93123   2.711  23.227  12.203
20809W        W93124  44.690  44.279   3.745
20810W        W93125  38.610   2.715  11.605
20811W        W93126  20.662   2.135   0.305
20812W        W93127  18.176   8.643  12.987
20813W        W93128  23.130   8.693   2.040
20814W        W93129   4.781  26.099  13.738
20815W        W93130   2.880  32.186   2.739
20816W        W93131  28.564  12.259   4.610
20817W        W93132   1.523   2.403   1.792
20818W        W93133   8.694  43.835  14.904
20819W        W93134  14.737  17.304   1.011
20820W        W93135  14.298  32.877   4.335
20821W        W93136  22.064  31.170  13.950
20822W        W93137  32.716   7.753  14.285
20823W        W93138   5.474   5.894   1.762
20824W        W93139  43.669   0.467   2.811
20825W        W93140  26.026  43.351   2.156
20826W        W93141  28.148  13.310   3.929
20827W        W93142  10.106  14.241   2.369
20828W        W93143  43.337  44.974   0.980
20829W        W93144  11.257   2.133   3.187
20830W        W93145  21.694  28.597   3.234
20831W        W93146  27.644  26.409   3.089
20832W        W93147   5.833   5.978  11.341
20833W        W93148  42.360  12.364   0.787
20834W        W93149  34.457  36.769   2.911
20835W        W93150  30.692   1.131   1.004
20836W        W93151   8.319  24.203  11.954
20837W        W93152  29.975   0.933  12.462
20838W        W93153   0.894  26.385  14.512
20839W        W93154  25.405  12.239   0.481
20840W        W93155  35.603  35.117   2.910
20841W        W93156   0.765  16.510   4.575
20842W        W93157  17.592  12.868  13.061
20843W        W93158   8.398  21.049  10.530
20844W        W93159   1.561  37.025   1.888
20845W        W93160  32.821   4.452  13.416
20846W        W93161  12.272  44.765  13.430
20847W        W93162  40.592  22.989   3.625
20848W        W93163  15.690  13.056  14.830
20849W        W93164   3.830  24.292  12.803
20850W        W93165  21.399  21.643   1.138
20851W        W93166  43.677  16.983  12.475
20852W        W93167  26.901  22.012  14.196
20853W        W93168  19.024  18.146  10.552
20854W        W93169  40.881  33.438   1.804
20855W        W93170  31.687  20.581   0.257
20856W        W93171  15.400  14.781  14.297
20857W        W93172  26.475  16.088   4.065
20858W        W93173  12.406  29.665   2.339
20859W        W93174  38.367  14.768  10.703
20860W        W93175  32.447  19.698   5.114
20861W        W93176  42.282  42.217  12.492
20862W        W93177   6.622   9.170   2.936
20863W        W93178  44.014  22.721   4.603
20864W        W93179  42.966  30.066  12.063
20865W        W93180  43.940   0.416   2.374
20866W        W93181   8.322  23.096   0.474
20867W        W93182  24.151  21.600   1.839
20868W        W93183  17.833  37.806  13.967
20869W        W93184  21.117   2.767   3.330
20870W        W93185   7.920  31.709   1.541
20871W        W93186  10.169   9.829   4.659
20872W        W93187  10.385  17.479  11.604
20873W        W93188  26.441  26.557  12.553
20874W        W93189  20.694  32.499   3.598
20875W        W93190   8.061  25.550  11.119
20876W        W93191  19.545  35.948   3.909
20877W        W93192  38.940  10.167   5.005
20878W        W93193  12.893  33.002  14.193
20879W        W93194  25.247  31.057  11.487
20880W        W93195   7.333  38.003  12.234
20881W        W93196  39.304  21.602  14.065
20882W        W93197   2.515   7.244  12.071
20883W        W93198  18.611  35.503  10.361
20884W        W93199  38.267   6.402  10.631
20885W        W93200   4.885  12.149  12.397
20886W        W93201   1.323  21.660  14.686
20887W        W93202  36.524   3.472   1.196
20888W        W93203  40.543  32.995  13.915
20889W        W93204  26.050  32.421   1.634
20890W        W93205  40.302   1.915   2.716
20891W        W93206   3.588  41.596   1.401
20892W        W93207  32.396  34.411  11.614
20893W        W93208  23.714  35.506   3.202
20894W        W93209  24.042  11.248  12.627
20895W        W93210  37.451  30.067   2.170
20896W        W93211  30.758   0.922   3.285
20897W        W93212  29.673   2.164   4.508
20898W        W93213  38.989  42.639  13.181
20899W        W93214  15.187  31.004   1.525
20900W        W93215  11.869  29.132   3.228
20901W        W93216  28.144  34.648  12.299
20902W        W93217  17.059  11.676   3.246
20903W        W93218  37.491  13.353   1.969
20904W        W93219  24.607  23.958  13.483
20905W        W93220  43.295   0.093  11.999
20906W        W93221  35.355  21.416  13.196
20907W        W93222  19.485  15.716  13.583
20908W        W93223   0.916  15.259   2.068
20909W        W93224   0.468  13.943   3.898
20910W        W93225  19.517  11.420   1.887
20911W        W93226   1.235  12.319   4.147
20912W        W93227  28.928  31.099  12.892
20913W        W93228  32.751  42.595  11.161
20914W        W93229   2.288   9.066  11.424
20915W        W93230  19.545  35.562  10.808
20916W        W93231  12.279  33.322   2.414
20917W        W93232  18.251  10.360  10.724
20918W        W93233  19.439  11.910  12.366
20919W        W93234  41.784  32.716   2.321
20920W        W93235  35.133  25.588   1.868
20921W        W93236  30.174  38.851   3.607
20922W        W93237  39.379  13.184   1.847
20923W        W93238  21.992  40.547   4.354
20924W        W93239  10.246   3.367  12.364
20925W        W93240  25.438  12.040   2.847
20926W        W93241  18.549  10.818  10.987
20927W        W93242  10.141   0.237  12.309
20928W        W93243  25.052   5.097  14.917
20929W        W93244  17.261   8.772   0.759
20930W        W93245  22.286  10.477   4.131
20931W        W93246   1.709   0.646  11.043
20932W        W93247   2.219  41.200  11.226
20933W        W93248   4.126  22.581  10.811
20934W        W93249   7.454  38.554   1.294
20935W        W93250   9.574   8.337   4.015
20936W        W93251   2.941  32.171  13.522
20937W        W93252  30.872  34.619  10.991
20938W        W93253  21.420  14.196  12.627
20939W        W93254  34.480   0.772   0.756
20940W        W93255  12.213  42.045  14.560
20941W        W93256  37.122   0.053   1.939
20942W        W93257  27.590  22.587   4.897
20943W        W93258  21.052   2.491   0.290
20944W        W93259  42.111  26.002   1.431
20945W        W93260  10.064  34.319   1.928
20946W        W93261   3.451  24.897   1.492
20947W        W93262  18.687  13.860  13.015
20948W        W93263  22.011  43.391  14.929
20949W        W93264   4.185  11.692   0.819
20950W        W93265  25.757   1.761  13.911
20951W        W93266  19.086   2.946   3.890
20952W        W93267  24.595  15.716   4.048
20953W        W93268   0.357  16.648  12.135
20954W        W93269  17.576  35.116   0.704
20955W        W93270  17.691  13.834   3.694
20956W        W93271   9.715  24.483  12.453
20957W        W93272   8.004   2.806   2.222
20958W        W93273   2.996  12.641  12.948
20959W        W93274   9.140  25.221  13.013
20960W        W93275   7.296  15.558  14.241
20961W        W93276  18.632  22.337   3.334
20962W        W93277  11.200   9.881  10.689
20963W        W93278  18.937   8.386  11.097
20964W        W93279  13.110  27.631  12.178
20965W        W93280  14.019  15.707   3.159
20966W        W93281  19.592  23.818  13.539
20967W        W93282   1.751  22.359   0.074
20968W        W93283  21.336  21.953  14.864
20969W        W93284  35.516  24.456   3.503
20970W        W93285   5.351  35.658   0.254
20971W        W93286  14.357  31.047   4.584
20972W        W93287  22.651  40.489  14.680
20973W        W93288  36.096   0.463  13.553
20974W        W93289  28.319  12.127  11.850
20975W        W93290   3.377  27.853  14.156
20976W        W93291   9.416  21.590   3.604
20977W        W93292   8.937  43.008  12.221
20978W        W93293   9.659  35.660   0.809
20979W        W93294  34.896  31.919  14.948
20980W        W93295  14.076   7.795   4.608
20981W        W93296  44.724  24.179   1.157
20982W        W93297   5.668  31.100  11.995
20983W        W93298  43.700  11.514  11.549
20984W        W93299  13.126  14.556  12.978
20985W        W93300  17.799  18.162  12.485
20986W        W93301  37.792   1.764  14.458
20987W        W93302  27.178  44.421  10.140
20988W        W93303  34.612  43.796   1.437
20989W        W93304  43.053  13.088   4.705
20990W        W93305  12.121   2.502   3.361
20991W        W93306  27.405  43.730   3.971
20992W        W93307   9.861  38.144   3.976
20993W        W93308  37.010  17.094  11.493
20994W        W93309  33.742  29.223   3.189
20995W        W93310  35.922  43.541   3.619
20996W        W93311   0.803  35.890  13.314
20997W        W93312  26.715  13.098   3.057
20998W        W93313  40.409  18.289  14.211
20999W        W93314  25.606  17.585  11.737
21000W        W93315  29.173  26.533   2.663
21001W        W93316  10.641   3.850   0.240
21002W        W93317   4.249   3.786  12.191
21003W        W93318  14.197  20.673  14.385
21004W        W93319   9.593   8.015   3.589
21005W        W93320   0.541   7.665   3.735
21006W        W93321  37.397   2.642   0.272
21007W        W93322  24.802  39.487   2.249
21008W        W93323  27.587  43.042  11.993
21009W        W93324   0.012  40.451  13.170
21010W        W93325   0.079  40.571   0.414
21011W        W93326  35.321   7.918  13.064
21012W        W93327  21.971   3.884  11.960
21013W        W93328  31.039  33.572   3.918
21014W        W93329   2.399   9.374  13.219
21015W        W93330  34.123  42.515  11.982
21016W        W93331  17.154  35.943  11.156
21017W        W93332  14.577  34.868   3.626
21018W        W93333  40.957  30.975  12.866
21019W        W93334  12.228  30.077  10.903
21020W        W93335  11.426   9.895   1.645
21021W        W93336  19.203  12.323  12.161
21022W        W93337  41.834  31.180  13.253
21023W        W93338   3.277   2.759   3.948
21024W        W93339  32.344  34.122   4.222
21025W        W93340  22.133   2.618   1.767
21026W        W93341  23.522  16.183   4.550
21027W        W93342  26.092   5.256  13.891
21028W        W93343  29.177  10.382   2.666
21029W        W93344  19.693   7.138   2.761
21030W        W93345  12.528  18.774  12.078
21031W        W93346  15.599  11.073  12.449
21032W        W93347   8.949  26.963   0.849
21033W        W93348  17.975  15.755  13.415
21034W        W93349   6.169  21.518  13.327
21035W        W93350  28.271   9.170   2.931
21036W        W93351  12.738  20.317  12.119
21037W        W93352  26.143   4.061  14.676
21038W        W93353  33.026   4.477  14.528
21039W        W93354   7.694   8.196   4.676
21040W        W93355  38.141  24.112   4.934
21041W        W93356  20.628   0.986   3.872
21042W        W93357  13.352  35.597   1.740
21043W        W93358   8.903  29.008  11.142
21044W        W93359  38.101  15.979   4.630
21045W        W93360  15.991   6.337  11.071
21046W        W93361   7.295  32.668   0.610
21047W        W93362  37.072  44.906   2.769
21048W        W93363  29.351   4.532  14.975
21049W        W93364  30.589   7.713   2.336
21050W        W93365  41.301   0.805  11.601
21051W        W93366  24.647  25.992  12.332
21052W        W93367  34.968  30.608   3.255
21053W        W93368   4.933  18.318  14.272
21054W        W93369  22.931  34.149  10.688
21055W        W93370   5.421  43.020   4.361
21056W        W93371  33.175  32.728  11.652
21057W        W93372  15.308  31.182   2.600
21058W        W93373  14.156  32.474   2.695
21059W        W93374  21.256  42.178   2.204
21060W        W93375  42.088  40.358   2.265
21061W        W93376   8.158  15.984   0.020
21062W        W93377  14.336   4.064  12.015
21063W        W93378  42.722  28.104   4.143
21064W        W93379  26.306  37.837  11.022
21065W        W93380   2.268   2.271   1.204
21066W        W93381  28.982  29.980  12.090
21067W        W93382   6.896  15.330  14.488
21068W        W93383  26.942  19.791  12.248
21069W        W93384  42.098   0.411  12.571
21070W        W93385  42.032  24.082  13.910
21071W        W93386  32.912   4.570   3.749
21072W        W93387  31.451   3.104   4.617
21073W        W93388   1.556  27.647   3.398
21074W        W93389  34.828  10.201  10.147
21075W        W93390   4.036   7.595   3.617
21076W        W93391  28.520  33.206  10.478
21077W        W93392  31.778  16.075  13.855
21078W        W93393  33.127   2.876   0.857
21079W        W93394  23.148  22.557   4.985
21080W        W93395  25.605  26.270  12.118
21081W        W93396  28.115  27.749  14.790
21082W        W93397  23.654  16.056   1.258
21083W        W93398  35.543  22.741  12.010
21084W        W93399   9.275  31.360  11.153
21085W        W93400  19.070  14.567   4.889
21086W        W93401  28.486   5.413   3.158
21087W        W93402  25.399  10.502  13.680
21088W        W93403  13.767  33.937  11.952
21089W        W93404  16.178   4.165   1.172
21090W        W93405   5.460  14.638   0.039
21091W        W93406  42.500  26.529  13.702
21092W        W93407  12.429  26.689   0.796
21093W        W93408  43.519  16.695   4.247
21094W        W93409  36.153  10.317   0.026
21095W        W93410  35.493  17.139   4.732
21096W        W93411  41.808  16.961  11.053
21097W        W93412  41.701   1.260   3.986
21098W        W93413  28.230  28.402  10.722
21099W        W93414   1.951   0.285   4.239
21100W        W93415  42.864  27.592   2.251
21101W        W93416  16.479   5.986  14.973
21102W        W93417  41.916  20.595   4.764
21103W        W93418  39.072  17.116   3.987
21104W        W93419  11.437  18.655   2.110
21105W        W93420   3.353  44.378   4.302
21106W        W93421  34.941  31.312   1.303
21107W        W93422  38.245  17.343  11.353
21108W        W93423  36.402  13.179   2.397
21109W        W93424  17.282  11.898  12.202
21110W        W93425   6.353  41.143   0.500
21111W        W93426  25.623  32.187   5.529
21112W        W93427  43.844  12.353   2.316
21113W        W93428  31.821  29.099  14.419
21114W        W93429   7.293  34.811  14.592
21115W        W93430  26.080  24.123   0.896
21116W        W93431  43.869  37.302  11.528
21117W        W93432  44.006  42.816   5.103
21118W        W93433  33.017  35.424   3.931
21119W        W93434   8.648  44.577  12.102
21120W        W93435  15.627   6.313  11.482
21121W        W93436  13.866  22.765   1.900
21122W        W93437  29.312  43.199   3.773
21123W        W93438  26.077  27.177  11.723
21124W        W93439  14.882  32.491   4.506
21125W        W93440  39.377   3.232   2.262
21126W        W93441  27.933   5.424  14.847
21127W        W93442  30.237  36.288  13.112
21128W        W93443  29.354  18.973  11.185
21129W        W93444  25.831  14.378  11.168
21130W        W93445   7.337   5.787  11.543
21131W        W93446  19.048  40.199   4.611
21132W        W93447  27.327  10.154   3.647
21133W        W93448  41.871  37.969   3.595
21134W        W93449  39.817   0.970   1.441
21135W        W93450  20.691  16.176   0.423
21136W        W93451   4.667  32.181  12.015
21137W        W93452  26.179   7.187  14.550
21138W        W93453  19.783   8.216   4.154
21139W        W93454  44.388  19.048   2.794
21140W        W93455  15.814  23.233  14.497
21141W        W93456   1.810  35.939  11.575
21142W        W93457  14.652  18.173   0.280
21143W        W93458  17.572   5.932  12.643
21144W        W93459  17.345  22.095  11.035
21145W        W93460  19.920   3.477   0.781
21146W        W93461   9.930   2.950  11.014
21147W        W93462  28.539  36.743  11.135
21148W        W93463  31.908   8.594  11.156
21149W        W93464  21.589   5.995  11.996
21150W        W93465  33.663   3.955   0.910
21151W        W93466  24.076   8.472  11.100
21152W        W93467  41.641  39.568  14.344
21153W        W93468  20.435  23.108   0.864
21154W        W93469   3.721  35.548  14.426
21155W        W93470  12.591  39.443  13.782
21156W        W93471  35.466  38.524  14.598
21157W        W93472  19.682   6.739   3.091
21158W        W93473   3.215  31.477  14.531
21159W        W93474  18.151  30.401   1.847
21160W        W93475  19.694   2.374   2.624
21161W        W93476  28.602  12.719   1.467
21162W        W93477  44.880  27.624  11.603
21163W        W93478   6.527   7.838   0.767
21164W        W93479  35.884  44.196   4.858
21165W        W93480  32.187  34.714   0.546
21166W        W93481  34.887  13.407  14.827
21167W        W93482  12.297   6.428   1.010
21168W        W93483  39.745  35.755  13.752
21169W        W93484  43.090  37.062  12.121
21170W        W93485  12.802  40.945   0.272
21171W        W93486  30.838  11.212   2.813
21172W        W93487  10.382   9.824  13.068
21173W        W93488  24.640  38.786   3.401
21174W        W93489  42.824  27.250   0.869
21175W        W93490  12.627  21.694   2.741
21176W        W93491  21.973  18.142  10.613
21177W        W93492   4.831  38.557   1.423
21178W        W93493   1.338  29.303  14.868
21179W        W93494  33.961   8.964   1.859
21180W        W93495  31.963  26.843  14.711
21181W        W93496  11.761  37.359   2.773
21182W        W93497   4.662  18.632  13.399
21183W        W93498  37.255   9.241  13.939
21184W        W93499   0.875  26.233   4.231
21185W        W93500   1.206  15.780  10.755
21186W        W93501  23.008   1.087   2.157
21187W        W93502   4.351   9.687   4.243
21188W        W93503  16.785  26.941   2.252
21189W        W93504  31.998  32.683  13.373
21190W        W93505  14.294  37.885   1.754
21191W        W93506  23.660  17.814   3.106
21192W        W93507  29.703  26.290   1.788
21193W        W93508  43.394  14.810  13.016
21194W        W93509  25.479   8.221   3.714
21195W        W93510  44.004  29.642   0.720
21196W        W93511  43.511   7.358   5.169
21197W        W93512  29.326  19.858  10.304
21198W        W93513  28.169  41.568  11.193
21199W        W93514  38.940  21.682  14.427
21200W        W93515   2.291  27.327   3.599
21201W        W93516   4.812   3.706  11.178
21202W        W93517  42.451   4.497   3.638
21203W        W93518   5.622  29.874  13.408
21204W        W93519   4.483   1.742   2.123
21205W        W93520   3.298  13.741   4.199
21206W        W93521  22.265  41.960  14.765
21207W        W93522  22.202  17.042  13.968
21208W        W93523  15.599  40.843   0.216
21209W        W93524  23.144   3.699  12.434
21210W        W93525  30.860  23.253  11.147
21211W        W93526   0.831  35.383   4.595
21212W        W93527  42.793  29.208  14.319
21213W        W93528  33.662  13.907  12.443
21214W        W93529  27.761   3.410   0.419
21215W        W93530   2.326  32.514  14.802
21216W        W93531  21.189  29.003  12.892
21217W        W93532  41.272  15.848   0.921
21218W        W93533   5.957  16.824   4.659
21219W        W93534  25.783  42.783   4.634
21220W        W93535  31.961  26.626   0.600
21221W        W93536  36.544  27.371  12.316
21222W        W93537  17.034   5.674   3.820
21223W        W93538  24.178   6.449   1.081
21224W        W93539  14.972  16.015   0.877
21225W        W93540  17.821  12.223  11.175
21226W        W93541  31.551  37.346   0.294
21227W        W93542   5.058   0.087   1.864
21228W        W93543  20.518  24.086  11.353
21229W        W93544  34.341   1.391  13.008
21230W        W93545  21.579  21.462  13.888
21231W        W93546   2.962   9.005  10.752
21232W        W93547   0.336  40.238   3.245
21233W        W93548  37.613  12.055  13.954
21234W        W93549  30.440  15.692  12.425
21235W        W93550   1.233   4.406  10.969
21236W        W93551  44.914  17.683   4.498
21237W        W93552  22.938  35.133   4.111
21238W        W93553  24.960  11.342   1.298
21239W        W93554  18.207  34.001   0.131
21240W        W93555   9.055   3.960  12.426
21241W        W93556   2.293  44.563  11.431
21242W        W93557  30.674  35.703   0.395
21243W        W93558  25.084  43.875  12.133
21244W        W93559   8.737   4.775   4.610
21245W        W93560  16.255  36.850  11.071
21246W        W93561  24.180  28.014  10.725
21247W        W93562   6.262  27.490  14.624
21248W        W93563  40.768  37.787  13.478
21249W        W93564  40.818  21.952  10.682
21250W        W93565  40.888  23.930   4.930
21251W        W93566  31.564  36.833   0.427
21252W        W93567   9.761  24.794   2.482
21253W        W93568   3.927  37.847  10.406
21254W        W93569  26.628  31.253  11.062
21255W        W93570   7.954   1.979   2.995
21256W        W93571  27.689  17.167  12.899
21257W        W93572  16.225  27.712   0.898
21258W        W93573   8.131  15.165  12.313
21259W        W93574  27.532  32.815  14.823
21260W        W93575  42.344  12.766  10.733
21261W        W93576  35.313  30.644  13.842
21262W        W93577   6.568  15.183   2.764
21263W        W93578  33.024   1.787   3.905
21264W        W93579  13.672   8.078   3.816
21265W        W93580  44.710   1.661  11.119
21266W        W93581  31.007  11.265  11.936
21267W        W93582  22.168  26.903  12.887
21268W        W93583  23.734  39.929  11.611
21269W        W93584   5.197  33.601   3.777
21270W        W93585  12.556  42.684   3.322
21271W        W93586  15.439  15.271  10.411
21272W        W93587  42.630   1.637   3.773
21273W        W93588  18.301   7.712   1.076
21274W        W93589  26.095  15.246  13.521
21275W        W93590   9.911  22.017   0.359
21276W        W93591  16.746  25.829  12.351
21277W        W93592  29.560  33.376  14.264
21278W        W93593   3.767  31.457   0.244
21279W        W93594   7.169   9.913  13.915
21280W        W93595   6.843  20.857  11.961
21281W        W93596  38.383  19.876  12.194
21282W        W93597   6.795   1.497   0.407
21283W        W93598  27.562  39.424   4.611
21284W        W93599  27.454   7.308  12.991
21285W        W93600   5.150  29.943   0.231
21286W        W93601   0.733   3.946  11.636
21287W        W93602  23.612  26.958  12.521
21288W        W93603  24.471  25.555  11.753
21289W        W93604  29.366   0.298  14.336
21290W        W93605  24.771  36.540   0.212
21291W        W93606  17.195  44.799  14.046
21292W        W93607   2.972  15.326   2.279
21293W        W93608   2.228  29.677  12.484
21294W        W93609  42.580  20.193   4.565
21295W        W93610  26.445  20.605  14.463
21296W        W93611  36.493  27.179  12.889
21297W        W93612  42.423  43.020  14.833
21298W        W93613  24.800  10.987  11.011
21299W        W93614  38.494   7.718   2.666
21300W        W93615  16.767  27.224  12.315
21301W        W93616  31.890   7.891  14.409
21302W        W93617  41.026  22.831  12.028
21303W        W93618  21.157   3.776  14.852
21304W        W93619  28.201  38.083   0.081
21305W        W93620  29.087  42.537   4.832
21306W        W93621   3.628   6.831   2.165
21307W        W93622  21.646  15.158  14.234
21308W        W93623  35.919  41.606  12.890
21309W        W93624  34.143   9.862  11.741
21310W        W93625  36.787   7.767   0.059
21311W        W93626  14.358   5.461   4.267
21312W        W93627  41.771  29.480   0.317
21313W        W93628  11.689  39.393   1.709
21314W        W93629  24.552  12.142  12.918
21315W        W93630  36.856   5.614   4.090
21316W        W93631   9.972   1.014   0.754
21317W        W93632  13.796   7.448   0.443
21318W        W93633  20.277  39.646  14.445
21319W        W93634   3.291   6.179   2.235
21320W        W93635  44.817  22.137   3.661
21321W        W93636  17.816  31.336  11.588
21322W        W93637  36.597  39.814   4.224
21323W        W93638  35.170  28.426   1.445
21324W        W93639  17.863  23.584  13.366
21325W        W93640  15.171  17.026  12.676
21326W        W93641   6.904  18.471  12.528
21327W        W93642  40.535  27.644   4.298
21328W        W93643  30.219  13.021  14.270
21329W        W93644   6.438  35.471  11.943
21330W        W93645  13.611  38.934  12.243
21331W        W93646  22.704   5.765  14.743
21332W        W93647   6.741  27.343  11.680
21333W        W93648  21.260  21.412  11.596
21334W        W93649  38.341  18.210   1.738
21335W        W93650  27.008  16.312   3.284
21336W        W93651  35.560   9.545   4.306
21337W        W93652  14.746  13.174   1.343
21338W        W93653  35.524   4.309   0.930
21339W        W93654   4.241  24.180   2.360
21340W        W93655  43.987  18.204   2.713
21341W        W93656  34.335  31.308   3.076
21342W        W93657  39.618  27.297   4.699
21343W        W93658   7.667  26.388  13.940
21344W        W93659   1.890  21.176   0.319
21345W        W93660   5.321  27.104   1.243
21346W        W93661  14.559  13.759  13.679
21347W        W93662  12.640   4.281   0.867
21348W        W93663  42.380  20.965   1.541
21349W        W93664  21.058  44.986   0.974
21350W        W93665  32.948  38.803   1.742
21351W        W93666   3.715  19.068   0.781
21352W        W93667  37.584  22.129   0.513
21353W        W93668  35.889  12.622  13.098
21354W        W93669  26.173  30.743   1.014
21355W        W93670  28.049  33.439  10.590
21356W        W93671   4.052   3.822  14.306
21357W        W93672   2.664  29.546   2.391
21358W        W93673   6.689  17.339   4.559
21359W        W93674  14.306   3.075   1.657
21360W        W93675  21.134  31.180   2.818
21361W        W93676  20.402  41.279  10.241
21362W        W93677  29.495  12.541   1.184
21363W        W93678   6.748  27.848  13.477
21364W        W93679  39.728  36.046   4.557
21365W        W93680  44.109  21.716  12.589
21366W        W93681  39.207  29.025   2.947
21367W        W93682   0.372   4.160  11.956
21368W        W93683  33.314  28.302  13.289
21369W        W93684  23.789  43.457   3.773
21370W        W93685  25.256  20.723  10.140
21371W        W93686   1.511  13.326  10.623
21372W        W93687  18.750  42.431   4.558
21373W        W93688   7.035  32.816  11.572
21374W        W93689   2.361  41.545  12.193
21375W        W93690   5.017  42.909   3.125
21376W        W93691  28.577   3.668  12.448
21377W        W93692  21.837  37.406  12.873
21378W        W93693  22.196   2.256   1.321
21379W        W93694  10.665  20.127  11.864
21380W        W93695  24.979  31.515  11.549
21381W        W93696  38.030  35.079  11.491
21382W        W93697  43.651  12.471   4.163
21383W        W93698  26.157  22.746   2.733
21384W        W93699   0.785   5.729  14.789
21385W        W93700  41.994  37.332  14.799
21386W        W93701  32.888   0.744   2.471
21387W        W93702  28.499  42.689  13.756
21388W        W93703  35.500   5.519   2.790
21389W        W93704  20.297  17.319   3.928
21390W        W93705   2.257  21.088   2.465
21391W        W93706  32.427  39.060  11.163
21392W        W93707   5.959  27.648   3.203
21393W        W93708  21.639  31.388   4.880
21394W        W93709  20.538  33.875   2.363
21395W        W93710   9.193   6.963  11.730
21396W        W93711  34.508  10.893  10.714
21397W        W93712  19.358  27.232  13.428
21398W        W93713  18.989  31.141  10.689
21399W        W93714  27.855  27.132  13.444
21400W        W93715  12.505  21.198  12.011
21401W        W93716  44.819  44.285   0.738
21402W        W93717  16.312  38.369  14.798
21403W        W93718  34.054  41.566   2.336
21404W        W93719   4.498  13.627  12.884
21405W        W93720  30.963  34.089  13.118
21406W        W93721   2.012   5.077  13.001
21407W        W93722   3.187  17.111  10.630
21408W        W93723  15.123  30.306  11.894
21409W        W93724  10.566  34.340   1.803
21410W        W93725  27.461  15.736  11.623
21411W        W93726   0.240  36.462  10.948
21412W        W93727  10.877  40.308   1.431
21413W        W93728  43.597  16.937   3.355
21414W        W93729  22.194   1.343  14.688
21415W        W93730  38.811  14.255  13.873
21416W        W93731  29.209  37.390   2.327
21417W        W93732  40.789  44.866   0.788
21418W        W93733  18.992  43.415  13.471
21419W        W93734  39.176  31.570   3.147
21420W        W93735  39.920  12.156   4.084
21421W        W93736  33.473  17.083  12.125
21422W        W93737  35.852  11.303   2.287
21423W        W93738  13.280  35.163  10.309
21424W        W93739  39.632  33.825   4.179
21425W        W93740   5.602   9.597   3.308
21426W        W93741  32.996  39.067   3.752
21427W        W93742  37.038  38.441   1.822
21428W        W93743  26.262   7.407   0.873
21429W        W93744  16.572  36.309   4.597
21430W        W93745  26.384  19.068   3.281
21431W        W93746   0.986   9.399   4.572
21432W        W93747  26.643  24.631   3.406
21433W        W93748   2.304  39.338  11.521
21434W        W93749  35.919  37.351  12.352
21435W        W93750  22.284  37.645   1.760
21436W        W93751   5.003   4.770   2.420
21437W        W93752  14.753  26.098   3.545
21438W        W93753  10.277  15.231  11.082
21439W        W93754  11.758  29.173  12.188
21440W        W93755  14.930  37.477   2.701
21441W        W93756   9.754   3.038   0.787
21442W        W93757  31.982  32.851   4.767
21443W        W93758  13.042  11.732   2.743
21444W        W93759  28.910  34.880  10.701
21445W        W93760  16.067   7.201   1.860
21446W        W93761  22.558  26.574  10.909
21447W        W93762   2.312   5.670   0.256
21448W        W93763  38.549  42.780  13.820
21449W        W93764  21.221  15.437   3.141
21450W        W93765  28.076  23.478  13.871
21451W        W93766  39.066  30.991   1.931
21452W        W93767  25.691  34.252  14.951
21453W        W93768  24.254  44.513  14.971
21454W        W93769  44.818   7.798  12.396
21455W        W93770  41.603   8.293  12.974
21456W        W93771  36.143   0.441  10.716
21457W        W93772  24.984  17.093  12.404
21458W        W93773   7.273  22.603   3.482
21459W        W93774   5.785  31.431   2.430
21460W        W93775  16.142  30.931  13.585
21461W        W93776  40.905  11.650  11.661
21462W        W93777  22.358   7.265   4.008
21463W        W93778  30.126  10.592  14.503
21464W        W93779  23.676  13.811  11.388
21465W        W93780   6.306  12.768   4.082
21466W        W93781  10.116  20.458  14.119
21467W        W93782  38.647   4.205  14.801
21468W        W93783   9.057  10.590  12.549
21469W        W93784   8.721   9.955  13.281
21470W        W93785  44.367  41.264  13.772
21471W        W93786  30.933  21.031  11.505
21472W        W93787  14.250  43.038   4.237
21473W        W93788  11.438  24.205   0.503
21474W        W93789  37.597  38.541   3.644
21475W        W93790  43.483  34.662  14.253
21476W        W93791  28.552   3.671  13.373
21477W        W93792  38.469  36.000   3.160
21478W        W93793  25.015  31.213   0.672
21479W        W93794  10.279  29.547  13.016
21480W        W93795  16.691  40.496   4.518
21481W        W93796   0.873  25.072  10.796
21482W        W93797  44.011   9.673   9.974
21483W        W93798  32.008  34.094  11.500
21484W        W93799   1.289   8.947   4.131
21485W        W93800  28.047  31.520   9.962
21486W        W93801  39.869  29.909  13.422
21487W        W93802  19.048  24.081   4.387
21488W        W93803  23.060  27.894   2.981
21489W        W93804  12.285  26.750  13.374
21490W        W93805  18.506  11.794  14.861
21491W        W93806   4.408   2.454  11.535
21492W        W93807  40.570  22.232  11.543
21493W        W93808  13.822   4.750  14.659
21494W        W93809  18.468  38.904   4.132
21495W        W93810   8.744   0.421  12.088
21496W        W93811  17.828   7.607  12.388
21497W        W93812  19.544  42.782   4.197
21498W        W93813   6.241  14.232  14.988
21499W        W93814   0.984   1.275   4.471
21500W        W93815  35.405  21.700   4.815
21501W        W93816  33.076  36.285   4.849
21502W        W93817  43.885  39.032  11.712
21503W        W93818  31.445  33.009   2.902
21504W        W93819  26.589  16.898   2.258
21505W        W93820  23.360  36.823   2.781
21506W        W93821  29.614   4.412   0.426
21507W        W93822  13.200   0.874  10.111
21508W        W93823  41.434   1.297   3.142
21509W        W93824  18.571  10.096   4.256
21510W        W93825  25.040  24.009   0.804
21511W        W93826  43.332   3.731   3.726
21512W        W93827  34.717  15.001  11.666
21513W        W93828  18.608   2.888  12.615
21514W        W93829   6.595  27.611  12.933
21515W        W93830  41.459  21.244  12.216
21516W        W93831  34.139  36.399   2.769
21517W        W93832  29.528  24.496   0.059
21518W        W93833   8.258  36.344  11.141
21519W        W93834  30.483  32.426   2.391
21520W        W93835  41.709  15.730  10.426
21521W        W93836   8.148  17.351  11.193
21522W        W93837   7.521  30.358   0.757
21523W        W93838   9.739  44.113  13.960
21524W        W93839  10.613  44.489  11.117
21525W        W93840  21.606   6.403  13.825
21526W        W93841  44.342   4.288   2.183
21527W        W93842  44.135  26.770   1.406
21528W        W93843  33.080  40.291   3.288
21529W        W93844  39.045  30.570   1.321
21530W        W93845  30.137  41.914  14.222
21531W        W93846  27.206  35.505   1.713
21532W        W93847  11.024  24.233   4.139
21533W        W93848  18.143  31.804   4.189
21534W        W93849  19.711   8.099  12.640
21535W        W93850  40.956   7.175   4.230
21536W        W93851  18.551  35.899  11.186
21537W        W93852  25.588   7.867  14.960
21538W        W93853  28.810  23.505   2.821
21539W        W93854  12.496  29.603  11.490
21540W        W93855  27.918  43.526   3.712
21541W        W93856  26.079  14.211   1.790
21542W        W93857   2.868   5.349   4.584
21543W        W93858   4.687  11.641  11.241
21544W        W93859  34.100  43.993  11.994
21545W        W93860   0.204  41.413  14.275
21546W        W93861   2.404  41.713   5.100
21547W        W93862  26.105  22.496   1.388
21548W        W93863   5.114  10.213  12.005
21549W        W93864   4.378  17.565   2.775
21550W        W93865  32.845  30.989   2.225
21551W        W93866   2.352   9.469  10.960
21552W        W93867  31.852  39.568   4.083
21553W        W93868   8.203  23.050   2.894
21554W        W93869   1.249  13.450  11.065
21555W        W93870  25.793  28.873   2.881
21556W        W93871  35.848  44.533  13.397
21557W        W93872  34.522  11.802  12.039
21558W        W93873  16.786   4.182   2.347
21559W        W93874  38.987  17.759  11.039
21560W        W93875  31.166  32.156  14.492
21561W        W93876   4.835  44.207  10.924
21562W        W93877  40.085   2.809  14.853
21563W        W93878  44.386  36.891  12.571
21564W        W93879   3.579   6.667  14.777
21565W        W93880  29.946  27.376  14.418
21566W        W93881   9.063  29.093  12.115
21567W        W93882  14.109  25.620  14.310
21568W        W93883  25.575  16.497  10.855
21569W        W93884  44.327  10.121   3.685
21570W        W93885  11.741  18.289  14.851
21571W        W93886  42.827  21.693  14.514
21572W        W93887   5.871   4.719  12.914
21573W        W93888   3.798  18.678   4.104
21574W        W93889  19.254  11.054   1.627
21575W        W93890  18.279  40.909   5.209
21576W        W93891  28.145  35.465  11.877
21577W        W93892  26.172   9.345   4.326
21578W        W93893  27.591   2.913  11.990
21579W        W93894   7.885  36.026  11.434
21580W        W93895   7.898  28.498  10.545
21581W        W93896  24.785  15.769   3.566
21582W        W93897  37.236  36.814   3.956
21583W        W93898  39.083  42.257  11.145
21584W        W93899  12.290  15.861  13.978
21585W        W93900   0.458  20.417  11.419
21586W        W93901  39.021  23.056   5.204
21587W        W93902   7.318  39.588  13.897
21588W        W93903  39.766  24.073  10.661
21589W        W93904  26.997  22.238   2.240
21590W        W93905  29.224  37.107  13.018
21591W        W93906  23.088  12.948   3.212
21592W        W93907  24.764   3.477  10.878
21593W        W93908  13.726   1.660  12.161
21594W        W93909  19.799   1.271   4.899
21595W        W93910   4.848  43.393  11.694
21596W        W93911  12.849  16.473  12.338
21597W        W93912  18.780  35.027   0.308
21598W        W93913   8.095  34.297   0.470
21599W        W93914  44.522  18.461   2.194
21600W        W93915  22.746  36.345   0.879
21601W        W93916  40.715  19.317  12.067
21602W        W93917  17.215  31.630   2.168
21603W        W93918  17.181  40.413   0.250
21604W        W93919  27.664   6.621  11.163
21605W        W93920  30.102  22.488   1.242
21606W        W93921  36.000   3.647  12.605
21607W        W93922  12.221  36.001  10.737
21608W        W93923  14.979  24.236  13.067
21609W        W93924  14.406  30.506   2.929
21610W        W93925  32.015   0.195  13.093
21611W        W93926  26.753  43.401   3.237
21612W        W93927  40.855  31.570  14.155
21613W        W93928  26.080  28.561   1.348
21614W        W93929  10.525   0.440   3.190
21615W        W93930  34.949   9.647   4.561
21616W        W93931  25.819  36.346  12.428
21617W        W93932  32.840  14.683   2.674
21618W        W93933  18.300  41.391  10.636
21619W        W93934  24.234   5.697   4.053
21620W        W93935   0.392  38.041   1.725
21621W        W93936  40.788  43.841   2.959
21622W        W93937  42.584  26.840   3.995
21623W        W93938   8.644  16.015   2.737
21624W        W93939  24.254  27.723   0.422
21625W        W93940  13.800  30.221   1.769
21626W        W93941  42.350  27.506  13.857
21627W        W93942  22.029   8.680  11.890
21628W        W93943   1.508  29.122   1.795
21629W        W93944   6.430  40.741   0.192
21630W        W93945  37.067  23.908   2.263
21631W        W93946  10.735   8.461  14.352
21632W        W93947   9.310  13.057  14.056
21633W        W93948  16.095  29.710   0.134
21634W        W93949  27.632   8.393  13.859
21635W        W93950  11.402   0.368  11.716
21636W        W93951  17.982  29.487   1.975
21637W        W93952   3.028  44.842   3.649
21638W        W93953  24.777   0.439  12.385
21639W        W93954  35.847  30.485   4.070
21640W        W93955  18.336  39.434   1.230
21641W        W93956  40.283   7.410  13.508
21642W        W93957  37.094  35.496  11.603
21643W        W93958  37.963   9.162  14.497
21644W        W93959  14.691  39.688  12.444
21645W        W93960  22.092  17.446   4.086
21646W        W93961  19.959  33.557  11.602
21647W        W93962  12.357  18.865   3.163
21648W        W93963  25.923  26.337   3.145
21649W        W93964  42.751   2.319  10.420
21650W        W93965  14.736  18.523  12.141
21651W        W93966  37.556   0.924  14.287
21652W        W93967   2.903   5.292   3.227
21653W        W93968  39.024   0.018   0.893
21654W        W93969  26.713  43.576  13.620
21655W        W93970  39.455  33.303   3.246
21656W        W93971  38.113   7.542  12.422
21657W        W93972  41.108  27.598   1.331
21658W        W93973  29.808  25.276   3.701
21659W        W93974  33.897   1.714   3.886
21660W        W93975  26.991  28.417   0.168
21661W        W93976   7.299  37.476  11.065
21662W        W93977  41.969  41.515  13.521
21663W        W93978  37.063  17.242   1.882
21664W        W93979   8.159   1.523   3.198
21665W        W93980  21.414   9.893   4.535
21666W        W93981  16.338   2.237   1.894
21667W        W93982  28.461   5.203   4.242
21668W        W93983   2.357  42.981   0.311
21669W        W93984  17.627  25.477  13.819
21670W        W93985   6.923  19.377   3.766
21671W        W93986  38.778  14.719  12.161
21672W        W93987  44.220  33.584   4.393
21673W        W93988  23.453   5.594   1.795
21674W        W93989  15.820   8.521  14.471
21675W        W93990  24.830   7.843   1.726
21676W        W93991  21.902   1.771  12.394
21677W        W93992  31.532  15.993   4.288
21678W        W93993  36.757  32.194  11.076
21679W        W93994  21.484  25.032  14.630
21680W        W93995  15.267  30.581  14.804
21681W        W93996   0.018  16.189   0.491
21682W        W93997  22.317   0.395   0.699
21683W        W93998  18.292  40.773   3.667
21684W        W93999  22.488  29.446  14.741
21685W        W94000  43.882  24.791  14.048
21686W        W94001  10.142  16.002  12.424
21687W        W94002   8.522  13.229  13.424
21688W        W94003  26.749  34.968   0.957
21689W        W94004  13.763  40.552   1.246
21690W        W94005   6.291  38.958   4.477
21691W        W94006  41.409  22.478  11.151
21692W        W94007  44.486  40.854  11.998
21693W        W94008   8.911  22.585  14.275
21694W        W94009  27.733  32.433   1.132
21695W        W94010  35.786  23.889   0.250
21696W        W94011   1.309  39.292   3.620
21697W        W94012  27.175  25.232   1.795
21698W        W94013  21.723  25.000  13.193
21699W        W94014  25.645  17.529  10.702
21700W        W94015  18.730   3.443  13.499
21701W        W94016  34.879  27.622  14.056
21702W        W94017  17.733  18.777   4.274
21703W        W94018  41.357  30.405   1.915
21704W        W94019  41.273  14.409   4.562
21705W        W94020  44.755  22.890  13.356
21706W        W94021  14.197  19.231  12.290
21707W        W94022  18.063  27.415  12.871
21708W        W94023  34.002   8.410  12.953
21709W        W94024  28.119  18.651  13.268
21710W        W94025  21.202  16.003  10.732
21711W        W94026  19.360  30.498  14.810
21712W        W94027  39.065  27.062  14.019
21713W        W94028  42.636  35.088  14.235
21714W        W94029  38.525  13.725  10.895
21715W        W94030  37.800  33.004   2.156
21716W        W94031  10.873   1.852  12.636
21717W        W94032   2.360   4.193   0.943
21718W        W94033  32.377  14.307  11.483
21719W        W94034  35.018  29.691  13.785
21720W        W94035  16.229   3.015  13.333
21721W        W94036  17.019  17.052   2.177
21722W        W94037  26.194  33.494  13.347
21723W        W94038   9.075  40.479   0.770
21724W        W94039  42.586   2.041  13.374
21725W        W94040   2.976  23.265  12.644
21726W        W94041  23.323  17.576  14.791
21727W        W94042  21.309  33.276   1.383
21728W        W94043  34.864  39.841   1.143
21729W        W94044  23.682   8.202   2.635
21730W        W94045  30.362  22.733   3.785
21731W        W94046  42.484  27.413   9.881
21732W        W94047  28.608   8.935  12.058
21733W        W94048  37.422  41.075  14.436
21734W        W94049  15.279  11.656   2.033
21735W        W94050  39.661   0.422   1.393
21736W        W94051  12.172  19.285  11.188
21737W        W94052   0.640   8.648   0.858
21738W        W94053  28.892  40.222  10.664
21739W        W94054  39.177  42.931  14.201
21740W        W94055  26.592   5.058  13.889
21741W        W94056  33.294   4.022   2.230
21742W        W94057  20.452  10.901  10.593
21743W        W94058  19.707  12.011   5.015
21744W        W94059  14.782  20.691  12.111
21745W        W94060  27.261  31.674   0.713
21746W        W94061  21.243  24.599  11.382
21747W        W94062   6.904  23.358   3.261
21748W        W94063   0.415   0.838  14.830
21749W        W94064  20.805  41.455  10.581
21750W        W94065  14.367  15.674   1.780
21751W        W94066  39.422   1.839  12.808
21752W        W94067  38.334  35.628   4.285
21753W        W94068  28.212  32.423  12.016
21754W        W94069  31.005  37.327  13.284
21755W        W94070   3.341  10.027   0.858
21756W        W94071  20.189  10.055   9.845
21757W        W94072  15.205  24.483   3.309
21758W        W94073  41.384  31.062   3.559
21759W        W94074  25.647  36.985   4.493
21760W        W94075  12.255  17.305  14.012
21761W        W94076  42.937   1.875  10.600
21762W        W94077   0.017  25.013   0.507
21763W        W94078  40.582  27.771   1.388
21764W        W94079   0.432  26.505   4.092
21765W        W94080  12.665   4.382  13.120
21766W        W94081   9.645   7.697   1.130
21767W        W94082  27.498   5.659  11.228
21768W        W94083  36.279  34.099   4.155
21769W        W94084  21.707   3.736  12.543
21770W        W94085  17.763   8.690   2.350
21771W        W94086  43.395   9.290  11.539
21772W        W94087  44.298  32.101   0.334
21773W        W94088  44.678  40.928   3.122
21774W        W94089  23.139  20.511  11.164
21775W        W94090  41.262  29.117   3.125
21776W        W94091  26.790  38.116   1.872
21777W        W94092  25.620   8.007  14.470
21778W        W94093  10.043  33.393   2.945
21779W        W94094   7.156  16.111   0.353
21780W        W94095  12.715  21.461   2.079
21781W        W94096  25.493   0.686  11.107
21782W        W94097  21.003  27.024   1.832
21783W        W94098  37.610  27.439  14.168
21784W        W94099  41.090  26.303   1.350
21785W        W94100  20.330  17.265   0.780
21786W        W94101   1.507  18.996  10.591
21787W        W94102  11.467  35.484  14.510
21788W        W94103  30.226  21.177  12.906
21789W        W94104  42.191  32.100   5.025
21790W        W94105  15.164  11.141   4.633
21791W        W94106   7.934   1.466  12.636
21792W        W94107   9.242  37.301   3.400
21793W        W94108  43.698  33.688  12.560
21794W        W94109  22.120   9.304  11.211
21795W        W94110  38.028  26.228  13.183
21796W        W94111  12.847  15.285   1.944
21797W        W94112   7.752   7.341   1.628
21798W        W94113  26.373   2.013  14.748
21799W        W94114  32.972  18.498   0.346
21800W        W94115  39.110   5.672  11.546
21801W        W94116  13.829   3.545   4.252
21802W        W94117  34.576   4.374  10.510
21803W        W94118  30.414  43.875   2.306
21804W        W94119  29.065  12.201  10.489
21805W        W94120  31.893  10.988  10.994
21806W        W94121   1.295  16.066   1.402
21807W        W94122  14.327  37.624  13.043
21808W        W94123  15.767  44.945   4.127
21809W        W94124   1.261  37.887  13.717
21810W        W94125  42.035  31.050   0.912
21811W        W94126  21.484  23.917   3.197
21812W        W94127  43.976  38.509  14.992
21813W        W94128   8.083  25.570   3.185
21814W        W94129   4.691  25.876  12.395
21815W        W94130  35.080  10.715   1.369
21816W        W94131  37.771  20.177  12.125
21817W        W94132  31.862  24.000   2.795
21818W        W94133  10.632  31.110   1.954
21819W        W94134  10.251  33.482  14.443
21820W        W94135  44.845  20.427  12.604
21821W        W94136   5.196  18.249   3.142
21822W        W94137  41.061   2.437  11.611
21823W        W94138  13.127  22.983  13.887
21824W        W94139  41.959   2.701  14.416
21825W        W94140  33.997  32.387   2.750
21826W        W94141  41.332   4.691   2.935
21827W        W94142  39.065  39.963   4.127
21828W        W94143  26.146  38.318  13.798
21829W        W94144  28.234  40.456  13.543
21830W        W94145   1.817  34.980   5.441
21831W        W94146   7.948  32.883   3.654
21832W        W94147  21.303   4.758  12.922
21833W        W94148  37.808   2.071  12.839
21834W        W94149  21.029  33.479   0.910
21835W        W94150  38.722  24.227  13.315
21836W        W94151  42.931  30.740  14.432
21837W        W94152  36.118  30.628  11.550
21838W        W94153  40.971  22.414   0.696
21839W        W94154  13.813  30.860  10.758
21840W        W94155   7.037  30.395   0.905
21841W        W94156  28.948  33.122  13.466
21842W        W94157  15.897   2.413  13.011
21843W        W94158  31.345  26.597  12.967
21844W        W94159  25.399  35.479  14.425
21845W        W94160  35.894  19.460   1.082
21846W        W94161  12.389   5.741   3.638
21847W        W94162  10.833  18.063   4.250
21848W        W94163  44.006  35.795   4.959
21849W        W94164  31.340  34.947  12.527
21850W        W94165   9.387  25.969   4.940
21851W        W94166  18.849  19.256   3.945
21852W        W94167  19.833  10.710   3.678
21853W        W94168  36.871  13.382  13.079
21854W        W94169  15.364  18.149   2.012
21855W        W94170  26.574  39.759   2.176
21856W        W94171  36.277   7.597   2.802
21857W        W94172  40.157  12.925   3.115
21858W        W94173  31.929  41.361  10.310
21859W        W94174   9.453  19.776   3.718
21860W        W94175  15.159  44.685  14.490
21861W        W94176  32.423  40.104  13.326
21862W        W94177  39.989  15.050  12.889
21863W        W94178  32.437  20.471   4.532
21864W        W94179  16.485  16.114  13.480
21865W        W94180  17.189  33.970   2.267
21866W        W94181  35.675   6.260  11.949
21867W        W94182  11.689   2.304  13.476
21868W        W94183  31.881  44.557   4.533
21869W        W94184  19.465  36.824   2.591
21870W        W94185   4.426  21.991  13.873
21871W        W94186  34.033  16.180   4.553
21872W        W94187  42.535  24.160  10.807
21873W        W94188  31.900  27.010   0.239
21874W        W94189   0.373  41.342   2.760
21875W        W94190   3.685  27.981   0.030
21876W        W94191  27.182  13.855   0.040
21877W        W94192  12.749  18.956   0.908
21878W        W94193  32.116  40.973   0.442
21879W        W94194  10.186  16.111   3.592
21880W        W94195  31.275  19.520  11.216
21881W        W94196  28.943  27.806   1.099
21882W        W94197  29.895  19.311   4.919
21883W        W94198   7.792  41.016  10.802
21884W        W94199  22.719  23.789   2.229
21885W        W94200  36.526  25.735  11.523
21886W        W94201  10.391  18.034  14.787
21887W        W94202  35.554   2.907  12.055
21888W        W94203  21.569  22.999  10.386
21889W        W94204  29.613  28.944   0.679
21890W        W94205  17.672  27.961   9.811
21891W        W94206  16.314   3.838   3.560
21892W        W94207  19.675   5.491   4.163
21893W        W94208  28.555   1.502   4.403
21894W        W94209  14.055   8.170  13.960
21895W        W94210  36.478  32.027  14.801
21896W        W94211   2.851  27.536  12.884
21897W        W94212   9.169  10.837   2.679
21898W        W94213  37.304  22.966   2.320
21899W        W94214  35.692  33.860   3.261
21900W        W94215  34.429  40.892  13.405
21901W        W94216  10.063  44.029   0.383
21902W        W94217  32.104   3.359  13.953
21903W        W94218  38.083  39.491  14.874
21904W        W94219   3.689  25.710   4.886
21905W        W94220  11.782  25.402   2.013
21906W        W94221  28.250  36.929  12.510
21907W        W94222  23.749  31.017  14.270
21908W        W94223  17.232  25.392  10.479
21909W        W94224  32.546  34.948  14.247
21910W        W94225  26.622   4.399   3.696
21911W        W94226  38.793  30.859   2.685
21912W        W94227  25.717  31.730   2.148
21913W        W94228  39.983  38.854  13.267
21914W        W94229   3.759  12.273   3.275
21915W        W94230  20.249  17.542   4.380
21916W        W94231   6.282  27.442   4.349
21917W        W94232  14.942  26.166   2.155
21918W        W94233  31.651  24.022  11.979
21919W        W94234  34.430  28.155   4.923
21920W        W94235   6.222  10.824   3.795
21921W        W94236   3.410  19.715   4.350
21922W        W94237   7.413  14.639  12.665
21923W        W94238  14.740  27.754   2.842
21924W        W94239  26.162  20.129  11.523
21925W        W94240  12.364   8.843   1.704
21926W        W94241  27.470  37.406  12.515
21927W        W94242  21.136  14.775   3.818
21928W        W94243  25.222  20.965   4.970
21929W        W94244  23.438  39.018   3.736
21930W        W94245  39.419  11.201   3.241
21931W        W94246  36.883  18.224   0.064
21932W        W94247  29.426  17.307  12.007
21933W        W94248  19.118  44.360  10.684
21934W        W94249  42.388  40.616   3.138
21935W        W94250   2.249  16.296   2.755
21936W        W94251  30.109  36.839  14.423
21937W        W94252  14.564  24.460   2.708
21938W        W94253  20.216  23.984  12.365
21939W        W94254  25.532  32.438   0.742
21940W        W94255  30.543  17.793   0.994
21941W        W94256  32.419  23.694   4.593
21942W        W94257   3.177  36.419  14.339
21943W        W94258   4.968  15.569  11.071
21944W        W94259  18.851  11.311   4.627
21945W        W94260  37.375  14.199   3.102
21946W        W94261  38.467  42.807  14.338
21947W        W94262  44.384  42.765   1.954
21948W        W94263  23.983  22.871   2.375
21949W        W94264  19.280   8.916  10.253
21950W        W94265   4.228  21.736   3.675
21951W        W94266   5.335  25.238   2.455
21952W        W94267  35.263   8.920   1.881
21953W        W94268   5.283  34.838  10.683
21954W        W94269  28.392  23.726  12.534
21955W        W94270  41.143  30.172  11.892
21956W        W94271  30.606  40.683   0.427
21957W        W94272  24.105   9.896   2.704
21958W        W94273  20.669  30.206  11.670
21959W        W94274  35.625  33.002  13.951
21960W        W94275   6.797   4.474  12.508
21961W        W94276  25.121   8.429  10.893
21962W        W94277  38.832  22.594  13.916
21963W        W94278  27.177   3.875  11.479
21964W        W94279   1.957   9.270  13.469
21965W        W94280   8.116  32.982  12.930
21966W        W94281   6.169  27.338  11.623
21967W        W94282   4.795   3.517  14.273
21968W        W94283  41.915   3.911  13.526
21969W        W94284  24.006   0.993  11.166
21970W        W94285  35.464  10.624  13.445
21971W        W94286  35.860  38.756  14.918
21972W        W94287  15.029  26.363   3.030
21973W        W94288  41.429  39.477   1.728
21974W        W94289   4.416  16.778  11.007
21975W        W94290  25.415   5.370  13.084
21976W        W94291  35.888  10.553   1.966
21977W        W94292  42.940  42.608  13.029
21978W        W94293   2.739  13.800   2.894
21979W        W94294   3.366  13.844  11.114
21980W        W94295   3.676  32.601  14.002
21981W        W94296  40.951  12.233   2.716
21982W        W94297  38.042  27.539  13.779
21983W        W94298   5.263   3.898   3.835
21984W        W94299  44.667  35.604   3.372
21985W        W94300  42.829  17.392  11.509
21986W        W94301  43.860  31.421   4.577
21987W        W94302   2.908   5.653   4.169
21988W        W94303  11.082   6.264  14.917
21989W        W94304  29.128   4.775   3.694
21990W        W94305  24.297   4.509   4.590
21991W        W94306   7.645  43.423   2.633
21992W        W94307  26.447   5.239   2.183
21993W        W94308   6.460  14.149   3.655
21994W        W94309  21.560  39.590   0.709
21995W        W94310   9.830   7.023  12.710
21996W        W94311  18.888  17.157   4.102
21997W        W94312  40.162  27.297   1.401
21998W        W94313  19.976   2.004   4.434
21999W        W94314  14.629  37.870  11.131
22000W        W94315   2.285  10.834  12.809
22001W        W94316   1.332  14.426   2.791
22002W        W94317  34.705  11.762   2.906
22003W        W94318  15.150   1.924   1.670
22004W        W94319  15.202  11.384  13.399
22005W        W94320  42.098  36.403  13.897
22006W        W94321  16.290  15.713  11.671
22007W        W94322  16.675  22.241   1.760
22008W        W94323  15.141   1.233   0.323
22009W        W94324   8.378   2.330  14.335
22010W        W94325   6.592  44.194  13.026
22011W        W94326  18.627  44.364   4.371
22012W        W94327   6.558  28.556   3.107
22013W        W94328  21.226  42.416  13.091
22014W        W94329  11.233   3.226  12.102
22015W        W94330  36.405  12.816  13.961
22016W        W94331  18.291  30.028   9.924
22017W        W94332  13.787  20.335  14.273
22018W        W94333  36.065   6.108  14.526
22019W        W94334  18.228  28.356  13.371
22020W        W94335   0.833  11.242   0.510
22021W        W94336  38.889  30.386  14.070
22022W        W94337  25.033  10.288   1.468
22023W        W94338   7.732  33.116  11.989
22024W        W94339  11.839  32.152   2.950
22025W        W94340  12.644  22.727  14.346
22026W        W94341  37.820  17.051  11.181
22027W        W94342  19.080  35.343  10.646
22028W        W94343  43.491  37.887   0.676
22029W        W94344   6.971  40.114  12.141
22030W        W94345  22.514  18.670   0.391
22031W        W94346  43.021  43.569  12.836
22032W        W94347  13.724   4.445   1.729
22033W        W94348  43.960  29.108  13.467
22034W        W94349   8.523   8.842  11.507
22035W        W94350  20.206   9.054  10.857
22036W        W94351  14.912  29.191   2.559
22037W        W94352  24.968  18.011  14.416
22038W        W94353  20.094  32.425  11.053
22039W        W94354  27.125  17.001  11.620
22040W        W94355  18.522  31.064   2.557
22041W        W94356  29.628  25.921  13.946
22042W        W94357  37.788  18.235   3.131
22043W        W94358  19.595   2.156   0.799
22044W        W94359  11.188  22.183  11.915
22045W        W94360   6.206  31.494   0.172
22046W        W94361   9.134  20.317   1.883
22047W        W94362   1.218  25.586  10.736
22048W        W94363   8.636  23.594   1.915
22049W        W94364  31.972  34.588   1.118
22050W        W94365  15.335  37.943   4.835
22051W        W94366   4.946  17.474  10.718
22052W        W94367  15.311  18.652   4.664
22053W        W94368  28.594  35.837   0.077
22054W        W94369  39.339  30.534  11.998
22055W        W94370  30.857   5.697  12.619
22056W        W94371  34.192  26.033   3.338
22057W        W94372  38.530  30.651   1.341
22058W        W94373  18.845  32.112   0.155
22059W        W94374   9.749  29.482  14.757
22060W        W94375   2.459  19.090  12.504
22061W        W94376  34.641  35.646  14.098
22062W        W94377  34.073  42.092  13.099
22063W        W94378  21.564  37.793  13.835
22064W        W94379  43.245  36.955  12.994
22065W        W94380   7.940  39.486   2.391
22066W        W94381  42.915  22.475  14.763
22067W        W94382  31.622   6.222   0.959
22068W        W94383  32.413   0.950   4.257
22069W        W94384   3.863  35.482   3.678
22070W        W94385  20.062  13.500  13.844
22071W        W94386  42.322  18.391   0.382
22072W        W94387  35.857   4.365   0.265
22073W        W94388  36.972  31.522   3.203
22074W        W94389  26.241   9.280   2.875
22075W        W94390  17.155  29.884  12.533
22076W        W94391  20.582   4.696  10.611
22077W        W94392   3.989  16.112   2.197
22078W        W94393   9.611   3.900  13.307
22079W        W94394  30.446  25.497  10.724
22080W        W94395  21.114   0.182  12.562
22081W        W94396   6.001   6.864  11.405
22082W        W94397  24.629  11.631   4.029
22083W        W94398  16.005  12.423  13.563
22084W        W94399  21.703  34.788   4.279
22085W        W94400  26.245   6.439  12.834
22086W        W94401  18.751  15.144  11.657
22087W        W94402   0.427  36.926   5.039
22088W        W94403  12.294  29.041   0.554
22089W        W94404  29.442   8.256  13.466
22090W        W94405  12.165  17.171   4.071
22091W        W94406  26.515  21.657  13.854
22092W        W94407  27.323  44.917  12.456
22093W        W94408   9.392   4.947   4.139
22094W        W94409   6.622  30.282   2.231
22095W        W94410  27.949  18.536   1.625
22096W        W94411   0.264  11.789   4.593
22097W        W94412  29.428  36.704  13.259
22098W        W94413  17.722  12.659  11.539
22099W        W94414  11.348  30.399  13.135
22100W        W94415  20.329  25.172   4.146
22101W        W94416  37.835  31.554  11.841
22102W        W94417  41.058  20.096  13.024
22103W        W94418  44.073  14.322   1.726
22104W        W94419  10.549  38.087   3.389
22105W        W94420  14.629   7.484  12.874
22106W        W94421   1.276   5.760   3.826
22107W        W94422  32.190  44.237   3.214
22108W        W94423   5.235  39.897  12.064
22109W        W94424   8.718   5.383  14.250
22110W        W94425   8.820  36.625   3.089
22111W        W94426  26.097  42.485   2.419
22112W        W94427  41.403  42.573  14.344
22113W        W94428   6.494  39.296  12.082
22114W        W94429  33.541  44.466  13.766
22115W        W94430   7.684  30.137   1.297
22116W        W94431   5.383  35.573   4.678
22117W        W94432  21.927  12.751   3.863
22118W        W94433  42.248  30.210  14.000
22119W        W94434  27.742  18.348  12.102
22120W        W94435  16.594   8.400   2.372
22121W        W94436  20.112  22.694   1.016
22122W        W94437   0.492  26.982   4.347
22123W        W94438  14.789  43.050  10.693
22124W        W94439  35.416  20.815  10.879
22125W        W94440  16.570   0.295   2.951
22126W        W94441  11.776  15.384   2.676
22127W        W94442  26.639  38.972   4.779
22128W        W94443   2.788   4.996   0.952
22129W        W94444  38.876  24.505   2.906
22130W        W94445  12.598  10.164   3.204
22131W        W94446  13.848  28.932   0.173
22132W        W94447  28.514  29.609  10.664
22133W        W94448   3.415  22.257  14.661
22134W        W94449  34.575  17.893   0.420
22135W        W94450  26.950  19.158  14.459
22136W        W94451  39.475  41.503   4.298
22137W        W94452  15.910  10.595   1.926
22138W        W94453  35.064  28.671   0.932
22139W        W94454  42.405   3.943   3.817
22140W        W94455  35.877  20.648   1.654
22141W        W94456  13.590   3.636   3.313
22142W        W94457  13.105  34.238  12.366
22143W        W94458  33.212  31.826  13.855
22144W        W94459   7.700   7.287  14.509
22145W        W94460   1.261  42.745   2.438
22146W        W94461  14.558  10.793   2.880
22147W        W94462  18.947  21.308   2.488
22148W        W94463  16.324  11.377   2.709
22149W        W94464  23.292  42.391  11.099
22150W        W94465  28.354  30.692   4.630
22151W        W94466   6.675  28.628  13.839
22152W        W94467  17.174  30.076   3.673
22153W        W94468  43.661  17.277  12.032
22154W        W94469   9.889   7.712  13.480
22155W        W94470   6.746  23.412  11.854
22156W        W94471  29.918  17.692   1.721
22157W        W94472   1.276  27.919   1.186
22158W        W94473   5.027   5.211  12.932
22159W        W94474  32.554  26.408   1.916
22160W        W94475   0.339   9.882  10.275
22161W        W94476  40.757   6.684  14.504
22162W        W94477  26.208  26.426  14.534
22163W        W94478   6.453  41.067  11.041
22164W        W94479  13.594  40.743  11.067
22165W        W94480  10.378   8.456  12.620
22166W        W94481  26.734   2.860  14.848
22167W        W94482  18.495  28.889   1.418
22168W        W94483  35.879  30.390   0.998
22169W        W94484  33.861   6.738   2.212
22170W        W94485  12.875   0.276   3.907
22171W        W94486  27.093  11.840   2.932
22172W        W94487  11.043   2.153  13.071
22173W        W94488  19.648  12.374  11.403
22174W        W94489  11.873  35.158   1.738
22175W        W94490  36.102  35.679   1.805
22176W        W94491  35.066  24.206   1.832
22177W        W94492  23.970  39.948   5.452
22178W        W94493  22.247  28.947  14.725
22179W        W94494   8.951  43.872   0.828
22180W        W94495  28.679  43.700  12.698
22181W        W94496  19.489  26.752  10.831
22182W        W94497  12.920  17.286  14.658
22183W        W94498  43.764  25.994   2.775
22184W        W94499  36.456   6.650   3.812
22185W        W94500  16.305  43.321   0.906
22186W        W94501  18.760  28.819  11.604
22187W        W94502  16.393  16.171   0.878
22188W        W94503  36.615  16.350   4.132
22189W        W94504  36.302  42.577  12.504
22190W        W94505  43.295  34.098   4.079
22191W        W94506  31.648  39.954  13.557
22192W        W94507  40.636  43.483   1.354
22193W        W94508  20.251  12.813   1.200
22194W        W94509  43.906  40.480  14.849
22195W        W94510  38.553  26.345   1.250
22196W        W94511  22.709  29.145  12.036
22197W        W94512  35.246  33.753   2.841
22198W        W94513  41.813  35.076   1.261
22199W        W94514  24.382  25.296   3.126
22200W        W94515  30.153  31.409  11.237
22201W        W94516  21.135   1.389   2.211
22202W        W94517  13.056  44.157   4.631
22203W        W94518  36.475   8.684  11.934
22204W        W94519  38.871  33.252   3.597
22205W        W94520   9.967   0.243  11.243
22206W        W94521  29.355  37.808   2.799
22207W        W94522  10.349   0.384  14.833
22208W        W94523  16.176   8.755   0.259
22209W        W94524  40.457   1.219  14.312
22210W        W94525  22.446  41.920   4.603
22211W        W94526   6.209  10.747   2.315
22212W        W94527  24.265   2.853  13.725
22213W        W94528  40.101   3.029  11.482
22214W        W94529  16.788  38.288   1.467
22215W        W94530  31.656  18.256  10.725
22216W        W94531  26.559  30.335  14.301
22217W        W94532  32.427   2.935   2.102
22218W        W94533   7.744  11.665  12.397
22219W        W94534  24.610  36.015  14.303
22220W        W94535  17.037  16.140   2.689
22221W        W94536  33.383  30.989   1.961
22222W        W94537  27.350   1.947   3.991
22223W        W94538  14.977  19.587  14.056
22224W        W94539  39.025  34.497   2.250
22225W        W94540   0.765  24.934  10.309
22226W        W94541  25.590  21.706  14.049
22227W        W94542  21.682  14.021   0.006
22228W        W94543  41.958   3.762  10.670
22229W        W94544  30.916  41.398  12.121
22230W        W94545  13.513  24.614  14.876
22231W        W94546   7.205  39.682  12.318
22232W        W94547  28.475  25.817   3.233
22233W        W94548   8.590  39.360   0.472
22234W        W94549   0.410  38.801   3.167
22235W        W94550  19.239   0.864   0.892
22236W        W94551   8.296   8.899  13.847
22237W        W94552  13.092  20.974  11.330
22238W        W94553  36.031  26.636  14.341
22239W        W94554  21.473   1.866   2.113
22240W        W94555  11.051  41.755   4.264
22241W        W94556  43.072  44.424  12.614
22242W        W94557   8.150  31.559  14.435
22243W        W94558  15.255  29.103  11.310
22244W        W94559   9.813  38.838  10.731
22245W        W94560  21.524  23.457  12.464
22246W        W94561  14.687  12.626   3.129
22247W        W94562  31.241  34.125  13.549
22248W        W94563  40.045   6.120   3.845
22249W        W94564  31.577  19.185  13.303
22250W        W94565  42.823  11.684  13.482
22251W        W94566  34.521  32.189   4.511
22252W        W94567  26.364   0.763  13.663
22253W        W94568   9.624  13.833   1.894
22254W        W94569  35.190   0.728  14.745
22255W        W94570  17.233  10.675  12.946
22256W        W94571   9.755  23.083  12.071
22257W        W94572  17.297  32.924   4.641
22258W        W94573   2.024  39.468   2.396
22259W        W94574  29.309  22.276  11.553
22260W        W94575  12.010  42.607   4.779
22261W        W94576  17.702  36.606   3.681
22262W        W94577   7.166   8.382   4.706
22263W        W94578  10.276  27.866  14.652
22264W        W94579  40.340  18.799  14.085
22265W        W94580  16.217   3.750   4.520
22266W        W94581   7.863  16.045  13.370
22267W        W94582  23.502  23.676   3.791
22268W        W94583  16.561  40.371  13.899
22269W        W94584  20.133  36.661  13.313
22270W        W94585  21.670  22.559  10.132
22271W        W94586   6.436  23.148   3.309
22272W        W94587  18.390  17.100  13.400
22273W        W94588  44.900  24.784  13.631
22274W        W94589  36.395  19.985  14.528
22275W        W94590  24.312  34.655  13.159
22276W        W94591  22.480   5.454  11.925
22277W        W94592  25.214  43.421  13.824
22278W        W94593  15.491  16.757  14.831
22279W        W94594  30.157  11.053  12.260
22280W        W94595  26.242  26.075   4.031
22281W        W94596   3.402  29.592  14.471
22282W        W94597  22.245  21.219  10.124
22283W        W94598  31.192  17.287   3.193
22284W        W94599  14.691   9.898  14.009
22285W        W94600  16.194  33.455  12.182
22286W        W94601  10.596  32.883  14.915
22287W        W94602   0.546  19.563   3.168
22288W        W94603  43.806   1.709   2.800
22289W        W94604  35.112  43.267   0.778
22290W        W94605  30.361  17.295   0.856
22291W        W94606  17.113  37.412   1.578
22292W        W94607  14.058  42.868  10.940
22293W        W94608   6.177  44.309  14.520
22294W        W94609  41.516   1.003  10.687
22295W        W94610  37.514  42.439  14.071
22296W        W94611  12.131  18.242   4.652
22297W        W94612   4.943   1.667  12.147
22298W        W94613  29.426  34.129  12.010
22299W        W94614  18.113  12.099  12.962
22300W        W94615   8.251   0.417   2.639
22301W        W94616  43.199  33.177   0.454
22302W        W94617   9.274  12.637   2.875
22303W        W94618   5.927  44.558   1.737
22304W        W94619  22.813  33.032   0.393
22305W        W94620  19.234  29.454   3.611
22306W        W94621  14.594  37.860   2.760
22307W        W94622  14.288  41.692  12.781
22308W        W94623  43.138  11.789   5.517
22309W        W94624  40.920  36.371  10.739
22310W        W94625   0.743  25.698   3.198
22311W        W94626  40.045   3.924  11.657
22312W        W94627  16.081  18.049   0.856
22313W        W94628  19.296  27.721  11.141
22314W        W94629  25.298  25.585   4.085
22315W        W94630   0.005  34.508  10.137
22316W        W94631  20.601  13.425  11.226
22317W        W94632  16.165   6.389  14.984
22318W        W94633   8.835  19.058  14.351
22319W        W94634  33.422  33.357   1.459
22320W        W94635   0.519  41.934  13.397
22321W        W94636  40.558  35.381   1.285
22322W        W94637  14.282  41.881  11.069
22323W        W94638  14.216  32.359   3.653
22324W        W94639  43.462  26.249  11.221
22325W        W94640  31.209  26.057  10.920
22326W        W94641  26.623  12.073  13.813
22327W        W94642   4.313  25.482   3.671
22328W        W94643  19.377  30.616  11.387
22329W        W94644  24.952  28.105   1.654
22330W        W94645  39.571   9.417   0.897
22331W        W94646  12.430  19.631   4.157
22332W        W94647  36.408  15.974  13.880
22333W        W94648  30.633  19.358  12.421
22334W        W94649  20.332   5.916   0.304
22335W        W94650  41.575  19.510  14.798
22336W        W94651  33.105  17.558   4.131
22337W        W94652   4.280  21.283  12.712
22338W        W94653  31.643  24.138   1.436
22339W        W94654   3.348  14.893  12.585
22340W        W94655  35.801  16.084   4.017
22341W        W94656  38.549  24.124   1.371
22342W        W94657   3.863   1.651  11.075
22343W        W94658   9.812  23.700  11.343
22344W        W94659  39.276   7.970   1.050
22345W        W94660  13.187  28.351  14.314
22346W        W94661   7.795   5.217   2.603
22347W        W94662  18.744  40.046   0.046
22348W        W94663   6.794  43.861   1.647
22349W        W94664  43.884  18.013  11.440
22350W        W94665  39.909  37.486  12.314
22351W        W94666  16.286  11.809  11.582
22352W        W94667  27.136  25.705   4.566
22353W        W94668   6.171  31.564   4.674
22354W        W94669  19.390  28.547   5.592
22355W        W94670  40.412   6.439   4.017
22356W        W94671   5.902  42.230  12.181
22357W        W94672   9.165   7.122  10.649
22358W        W94673  27.409  28.474  11.091
22359W        W94674  17.990  20.625  12.143
22360W        W94675   9.783  43.827  12.042
22361W        W94676  26.415  19.733  12.191
22362W        W94677  40.934  39.423  13.996
22363W        W94678  13.087   8.182   2.753
22364W        W94679   4.682  42.862  12.614
22365W        W94680   8.052   9.032   2.147
22366W        W94681  17.158  32.583   3.328
22367W        W94682  42.838  33.163   2.386
22368W        W94683  26.626  40.353   1.304
22369W        W94684   2.019  28.171   0.881
22370W        W94685   5.519  30.727   0.953
22371W        W94686  28.932  38.826  14.742
22372W        W94687  23.201  26.483  10.666
22373W        W94688  27.646   4.518  11.948
22374W        W94689  26.702   4.269  13.198
22375W        W94690  35.466   2.417  11.626
22376W        W94691   8.688  26.534   4.134
22377W        W94692  32.992  30.158   0.304
22378W        W94693  10.920   9.655   3.646
22379W        W94694  35.382  13.517  14.889
22380W        W94695   8.732  43.429   4.587
22381W        W94696  19.193  27.719  14.324
22382W        W94697  34.485   4.708  14.561
22383W        W94698  11.678   8.934  12.017
22384W        W94699  32.145  15.176   4.341
22385W        W94700  28.119  19.165  11.604
22386W        W94701  29.407   5.364  13.268
22387W        W94702  36.406  28.675  12.998
22388W        W94703  38.558   5.862  12.439
22389W        W94704  36.140  16.349   4.315
22390W        W94705  28.493  37.383  12.397
22391W        W94706   1.162   1.784  10.884
22392W        W94707  17.786  41.628  10.289
22393W        W94708  15.318  11.385  11.621
22394W        W94709  30.276   6.753   3.987
22395W        W94710  12.066  38.032  11.624
22396W        W94711   1.023  18.559   2.217
22397W        W94712   4.237  25.661  11.462
22398W        W94713   7.360  44.962   2.231
22399W        W94714   1.260  35.385   4.156
22400W        W94715  24.134  31.939  10.100
22401W        W94716  29.186  32.985   3.880
22402W        W94717   4.191  14.679  11.615
22403W        W94718   0.716  17.297  11.756
22404W        W94719   9.148   7.634  10.528
22405W        W94720  30.182  44.480   1.340
22406W        W94721  42.572  10.804   1.402
22407W        W94722  39.267  10.230   3.768
22408W        W94723  36.362  21.054  10.816
22409W        W94724  35.638  11.577  14.791
22410W        W94725  10.827  40.365   2.968
22411W        W94726  12.162  42.149   1.820
22412W        W94727  24.891  21.993   2.234
22413W        W94728   1.418  42.294   2.695
22414W        W94729  41.503   4.316   1.699
22415W        W94730  23.680  15.339   3.290
22416W        W94731  30.434  38.839  13.822
22417W        W94732  22.546  23.758   3.755
22418W        W94733  29.734  38.076  13.381
22419W        W94734  26.570   9.151  13.880
22420W        W94735  24.441   6.767  14.668
22421W        W94736  29.807  41.423  11.248
22422W        W94737  40.790  11.147   1.643
22423W        W94738  17.533  14.611   0.722
22424W        W94739  30.221  25.468  11.185
22425W        W94740   4.780  31.839   3.808
22426W        W94741  37.091  12.226  11.559
22427W        W94742  15.308  42.441   4.660
22428W        W94743  36.412  20.248   4.220
22429W        W94744  36.498  12.118  10.705
22430W        W94745   8.388  38.940   2.682
22431W        W94746   9.182  43.106   1.284
22432W        W94747  18.281   4.350   0.053
22433W        W94748   8.742  11.345   3.682
22434W        W94749  44.780  39.108   0.329
22435W        W94750   8.353  34.904   1.478
22436W        W94751  23.206  36.452   1.093
22437W        W94752  34.915  25.350  11.485
22438W        W94753  25.208  25.608  11.094
22439W        W94754  10.026  21.115   4.081
22440W        W94755  20.250   2.367   2.866
22441W        W94756  25.985   0.020   3.653
22442W        W94757  42.948  33.362   4.509
22443W        W94758   8.719  22.503   3.701
22444W        W94759  34.989  21.503   2.906
22445W        W94760  14.195  36.081  12.583
22446W        W94761   4.477   3.298  10.969
22447W        W94762  12.670  13.688  14.239
22448W        W94763  24.024   8.153  13.309
22449W        W94764  26.459   5.801   0.529
22450W        W94765  23.219  28.231   4.340
22451W        W94766   8.401   4.189  13.824
22452W        W94767  31.496   6.899   3.986
22453W        W94768  27.813  26.114  11.493
22454W        W94769  37.837   3.470   3.308
22455W        W94770  22.112  11.630   1.931
22456W        W94771  10.261  11.876   3.862
22457W        W94772   7.514  44.576  13.955
22458W        W94773   7.427  38.939   4.521
22459W        W94774   6.508  41.887   2.669
22460W        W94775  11.400  34.539   4.491
22461W        W94776  18.559  29.968   3.793
22462W        W94777   3.862  35.942  13.526
22463W        W94778  43.201  30.319  11.136
22464W        W94779  43.020  30.686   2.229
22465W        W94780  22.787  31.574   2.759
22466W        W94781  11.565  20.511   3.499
22467W        W94782  38.865  39.586  13.377
22468W        W94783  43.408  32.150  11.178
22469W        W94784  23.030  10.677   0.486
22470W        W94785  39.423   0.485   1.861
22471W        W94786  35.980  14.741   4.826
22472W        W94787  11.878  12.606   1.637
22473W        W94788   9.873  37.988  12.022
22474W        W94789  17.040  40.465   2.686
22475W        W94790  37.160  25.670   2.788
22476W        W94791  11.574  44.452   1.285
22477W        W94792  38.365  15.544   2.908
22478W        W94793  30.320  21.325  11.128
22479W        W94794  33.089  33.907  12.927
22480W        W94795  10.922  33.958   0.356
22481W        W94796  10.712   7.952  14.311
22482W        W94797  14.275   3.439  12.074
22483W        W94798  13.113  29.752   3.997
22484W        W94799   2.911  27.651  13.970
22485W        W94800   5.949  43.454  13.398
22486W        W94801  17.107  41.007  14.438
22487W        W94802  13.712  29.859  14.999
22488W        W94803  39.454  23.047  10.095
22489W        W94804   6.891  13.561  10.920
22490W        W94805  35.787  30.901   0.899
22491W        W94806  34.031  24.504   3.298
22492W        W94807  35.104   7.028   0.520
22493W        W94808   6.388  16.080   2.200
22494W        W94809   3.706  21.847  11.667
22495W        W94810  36.360  24.928  14.386
22496W        W94811  24.416   0.212   3.228
22497W        W94812  20.808   7.905   0.569
22498W        W94813  31.650  17.276   2.332
22499W        W94814  39.879  23.079   3.137
22500W        W94815  29.869  43.365   2.858
22501W        W94816  20.409  26.163   1.445
22502W        W94817  10.391  19.786   0.778
22503W        W94818  16.680  14.609  14.036
22504W        W94819  25.766  24.179  10.652
22505W        W94820  11.829  21.358  11.320
22506W        W94821   2.409  41.405   3.308
22507W        W94822  38.033   5.350  12.939
22508W        W94823  12.886  37.419   3.786
22509W        W94824   2.033   7.608   3.208
22510W        W94825   1.508  44.163   0.581
22511W        W94826  26.661  12.649   1.454
22512W        W94827  30.551  26.725  13.495
22513W        W94828   8.787  24.225   1.264
22514W        W94829  33.107   4.104  13.059
22515W        W94830  44.046  40.283   2.312
22516W        W94831  37.728  19.773  13.018
22517W        W94832  16.350  10.773  13.852
22518W        W94833  29.723  36.001  11.610
22519W        W94834   3.075   9.544  12.958
22520W        W94835  31.660  14.419   0.254
22521W        W94836  23.780  27.782   0.242
22522W        W94837   1.513  31.810   3.782
22523W        W94838  22.255  31.137   4.257
22524W        W94839  37.897   1.462   1.343
22525W        W94840  30.332  43.436   0.429
22526W        W94841  22.480  24.751   4.968
22527W        W94842  38.768  20.050   0.276
22528W        W94843   0.706  10.252  10.263
22529W        W94844   8.247  38.812   0.335
22530W        W94845  27.031  24.803  11.634
22531W        W94846   3.415  15.185  13.308
22532W        W94847  40.972   9.695  14.032
22533W        W94848  43.842  19.574  14.860
22534W        W94849  11.501   9.241  13.989
22535W        W94850  27.545  17.169  14.937
22536W        W94851  26.892  22.200  12.394
22537W        W94852  42.454  11.284   2.442
22538W        W94853  10.517  10.913   4.025
22539W        W94854  17.778  42.095  12.629
22540W        W94855  21.100  31.509   3.265
22541W        W94856  35.760  34.919   1.219
22542W        W94857  31.190  25.719   3.581
22543W        W94858  43.915  24.618   3.386
22544W        W94859  12.602  37.879   0.502
22545W        W94860  37.418  14.632   3.649
22546W        W94861  12.258  22.738   1.422
22547W        W94862  39.811  18.550  11.861
22548W        W94863  37.535  17.916  11.478
22549W        W94864  14.109  31.873  12.338
22550W        W94865  37.478  14.342   2.179
22551W        W94866  36.373  36.109  12.501
22552W        W94867  31.057   7.446   5.066
22553W        W94868  41.354  28.209  10.676
22554W        W94869  30.867  30.137   0.514
22555W        W94870  39.137  32.549  14.865
22556W        W94871  13.526  25.410   3.436
22557W        W94872  20.946   3.806   1.509
22558W        W94873  22.151  18.596  14.366
22559W        W94874  10.913  43.494   2.913
22560W        W94875  39.895  16.377  11.127
22561W        W94876  28.040  35.497   3.719
22562W        W94877  17.137   7.681   3.191
22563W        W94878  18.257  15.034  11.448
22564W        W94879   5.843  10.113  12.487
22565W        W94880  31.931  22.506   2.628
22566W        W94881  26.504  41.035  14.537
22567W        W94882  12.604  37.507  12.800
22568W        W94883  43.362  22.710  10.245
22569W        W94884  13.605  25.290  12.717
22570W        W94885  26.931   1.084   0.288
22571W        W94886  31.356   9.885   3.290
22572W        W94887  38.331  30.134  11.215
22573W        W94888   1.434  18.305   0.821
22574W        W94889  39.467   7.757   1.474
22575W        W94890   6.205  15.239   2.385
22576W        W94891  28.956   0.289   4.072
22577W        W94892  38.996  29.399   2.662
22578W        W94893  11.196  16.377  13.716
22579W        W94894  42.534  10.378   4.132
22580W        W94895  43.395  29.422   3.733
22581W        W94896  32.157  16.562  14.520
22582W        W94897   6.349  25.620  10.715
22583W        W94898  39.533  38.440   3.115
22584W        W94899  41.031  32.589   2.823
22585W        W94900  43.955  27.474   4.598
22586W        W94901  26.629  43.948  13.970
22587W        W94902  15.431  34.633  11.200
22588W        W94903  38.845  13.829  14.571
22589W        W94904  25.760  41.004  12.507
22590W        W94905  32.851  42.931  14.519
22591W        W94906  33.465   8.435  13.473
22592W        W94907  41.041  14.104  13.588
22593W        W94908  15.306   4.121   2.681
22594W        W94909   9.366  36.886  11.437
22595W        W94910  15.404   1.419   3.353
22596W        W94911  31.103  13.351  10.721
22597W        W94912  37.475  18.967  11.703
22598W        W94913  19.033  34.216  11.281
22599W        W94914  44.740  25.552  11.896
22600W        W94915   3.726  32.131   1.815
22601W        W94916  29.820  39.048  10.740
22602W        W94917  32.591  12.143   3.884
22603W        W94918  11.671   6.939  10.413
22604W        W94919  14.064   2.788  10.729
22605W        W94920  19.145  33.034   1.360
22606W        W94921   4.087  20.696   1.361
22607W        W94922   3.438  18.173  14.828
22608W        W94923  19.624  43.293   1.949
22609W        W94924  44.406  15.563  10.767
22610W        W94925  17.796  39.320  12.982
22611W        W94926  15.957   8.601  12.518
22612W        W94927   6.213   2.466   4.362
22613W        W94928  27.885  16.780  14.894
22614W        W94929  12.723  27.530  13.548
22615W        W94930   1.218  13.531   0.928
22616W        W94931  11.764  35.315  12.102
22617W        W94932   9.957   1.749  12.375
22618W        W94933   1.002  12.856   2.368
22619W        W94934  41.245   3.862   1.837
22620W        W94935  43.817  14.332   3.570
22621W        W94936   2.551  37.295   3.696
22622W        W94937  18.253  31.308   2.928
22623W        W94938  44.280  13.296   0.856
22624W        W94939  28.216  44.627  12.647
22625W        W94940  22.739  16.695  13.319
22626W        W94941  30.697  12.245   1.937
22627W        W94942  32.993  13.397   4.630
22628W        W94943  13.262  36.026  13.585
22629W        W94944  23.168  42.910  10.998
22630W        W94945  25.185  39.419  10.946
22631W        W94946  11.261  40.587   2.191
22632W        W94947  15.861  26.389   2.429
22633W        W94948   6.459   6.638  11.186
22634W        W94949  40.951  27.898  10.646
22635W        W94950  19.030  29.157   2.205
22636W        W94951   9.705   7.385  14.451
22637W        W94952  12.292  13.990  14.009
22638W        W94953  28.091  19.354  12.129
22639W        W94954   2.482  28.974   2.080
22640W        W94955  35.236  26.161   0.520
22641W        W94956  36.680   3.311  11.245
22642W        W94957  22.228  40.682  10.745
22643W        W94958  29.416  18.763  12.048
22644W        W94959   3.934  10.275   2.441
22645W        W94960  31.184  21.136   4.647
22646W        W94961  30.688   0.947   1.779
22647W        W94962  41.917  33.824  12.005
22648W        W94963   6.817   5.805   1.694
22649W        W94964  24.988  35.858   0.079
22650W        W94965   4.703  15.220   3.105
22651W        W94966   7.886  29.180   1.499
22652W        W94967  43.472  30.202  10.679
22653W        W94968  18.018  19.976   1.186
22654W        W94969  36.519  11.187  14.495
22655W        W94970  10.930  42.766  13.977
22656W        W94971  43.446  17.515   2.051
22657W        W94972  18.025  28.073  14.989
22658W        W94973  18.150  38.316   2.753
22659W        W94974  43.283  28.085  14.893
22660W        W94975  22.302  13.301   0.385
22661W        W94976   0.668  40.087   4.577
22662W        W94977  44.042  30.511   2.288
22663W        W94978  43.444  19.991  10.712
22664W        W94979  41.411  35.600  10.469
22665W        W94980  34.372  10.262  11.989
22666W        W94981   6.913  33.955   3.607
22667W        W94982   8.983  18.364  13.909
22668W        W94983   6.274   7.941  12.931
22669W        W94984  27.115  37.402  14.304
22670W        W94985  19.576  16.040  12.062
22671W        W94986  18.350  35.459  11.691
22672W        W94987  22.457  14.753  13.441
22673W        W94988  18.740  41.125   4.381
22674W        W94989  37.788  20.085  13.448
22675W        W94990   0.111  19.290   3.312
22676W        W94991  25.692   5.094   3.595
22677W        W94992  33.857  16.420   4.105
22678W        W94993  36.942   3.286   9.883
22679W        W94994  15.388   7.766  14.990
22680W        W94995  30.870  29.141  12.027
22681W        W94996  24.301   7.986  11.065
22682W        W94997  18.312   8.426  13.535
22683W        W94998  14.614   5.437  10.514
22684W        W94999   2.482   9.626   2.899
22685W        W95000  21.455  17.106  11.617
22686W        W95001  39.790  10.969   0.328
22687W        W95002  42.718  40.482  11.252
22688W        W95003  24.978  29.889  13.453
22689W        W95004  41.963  13.180  12.491
22690W        W95005  37.413   9.780   4.778
22691W        W95006  11.850  23.963   0.805
22692W        W95007  27.202  25.792  11.358
22693W        W95008  26.438  16.404  13.031
22694W        W95009  33.060  19.247  11.187
22695W        W95010  35.095  22.127   0.302
22696W        W95011  18.176  17.516   4.300
22697W        W95012  26.729  32.744  10.750
22698W        W95013  21.526  33.109   3.653
22699W        W95014  11.739  44.007   0.306
22700W        W95015  30.344  23.807  13.067
22701W        W95016  12.592  44.910   4.800
22702W        W95017  38.008  25.771   2.980
22703W        W95018  41.298  14.241   3.331
22704W        W95019   8.871  42.228  11.590
22705W        W95020  41.460   0.883   4.744
22706W        W95021   1.986  34.622   2.242
22707W        W95022  41.906   4.950   4.340
22708W        W95023  23.156  31.607   2.132
22709W        W95024  40.859  37.881   0.291
22710W        W95025  30.614  32.159  11.013
22711W        W95026  43.825  32.356   1.834
22712W        W95027  25.426  33.021   5.289
22713W        W95028   3.912  30.951   4.648
22714W        W95029  12.689  16.609   2.156
22715W        W95030  35.934  28.419   0.184
22716W        W95031  24.993  41.407   4.561
22717W        W95032  23.945  26.766  12.875
22718W        W95033   0.491  26.520  12.018
22719W        W95034  29.350   5.410   3.554
22720W        W95035  43.781  36.899  13.437
22721W        W95036  43.539  17.329   1.142
22722W        W95037  23.012  20.241  11.587
22723W        W95038  29.928  30.953  11.281
22724W        W95039   0.711  22.582  13.335
22725W        W95040   7.105  36.780   0.423
22726W        W95041  28.882  43.102  14.872
22727W        W95042  18.517  16.559   2.739
22728W        W95043  32.438   2.400   2.914
22729W        W95044   8.890  12.693  11.678
22730W        W95045   8.766  29.879  14.392
22731W        W95046  14.063  40.267  12.311
22732W        W95047  44.017  31.700   0.606
22733W        W95048  29.730  40.092  10.983
22734W        W95049  38.056  32.057  11.982
22735W        W95050  11.112  39.768   0.710
22736W        W95051  18.089   1.397  11.091
22737W        W95052  27.767  41.619   0.196
22738W        W95053  13.845  42.289   2.349
22739W        W95054  31.513  30.363  13.884
22740W        W95055   0.226   7.455  10.704
22741W        W95056  37.349  33.477  13.456
22742W        W95057   5.626  16.053  10.732
22743W        W95058  43.939   1.319  13.416
22744W        W95059  40.854   2.926  13.476
22745W        W95060   6.782  35.590   3.191
22746W        W95061  35.115  20.890   3.788
22747W        W95062  10.936  43.682   2.395
22748W        W95063  20.693  25.438  12.438
22749W        W95064  33.894  37.144  10.652
22750W        W95065  43.052   0.251  14.385
22751W        W95066  36.807   0.356  11.284
22752W        W95067  32.488  34.643   0.980
22753W        W95068  13.362  10.278  13.923
22754W        W95069  25.763  13.345  12.099
22755W        W95070  26.585   7.624   0.493
22756W        W95071  24.444  38.137  12.689
22757W        W95072  42.303  23.806   3.252
22758W        W95073  35.129  17.177   0.048
22759W        W95074  30.138   5.305   3.197
22760W        W95075  35.674   2.886  11.566
22761W        W95076  31.738  39.328  10.695
22762W        W95077   2.296  37.916   4.063
22763W        W95078  13.895  24.314   0.479
22764W        W95079  29.044  36.339  12.764
22765W        W95080   6.735  27.512  13.879
22766W        W95081  37.402  42.987  13.301
22767W        W95082  25.403   3.334   2.441
22768W        W95083  22.747  36.460  11.199
22769W        W95084  14.210   7.754  10.870
22770W        W95085  35.519   9.423   0.963
22771W        W95086  38.963  16.168   1.762
22772W        W95087  40.126  36.034  14.736
22773W        W95088   2.389  18.339  11.093
22774W        W95089  25.998   4.962  12.397
22775W        W95090  27.032   6.295   2.147
22776W        W95091  25.926  24.899   1.284
22777W        W95092   3.909  11.221  11.569
22778W        W95093  11.747  14.440   3.130
22779W        W95094  42.286  29.041  13.031
22780W        W95095  31.660  26.456   4.866
22781W        W95096  35.053  30.396  12.520
22782W        W95097  13.142  25.053  12.509
22783W        W95098  36.441  22.446  10.871
22784W        W95099  28.412  15.608   2.840
22785W        W95100  41.941  32.420  10.623
22786W        W95101  19.757   5.867  14.959
22787W        W95102  10.630  39.649  13.059
22788W        W95103  40.239  36.047   4.682
22789W        W95104  24.151  22.324  14.233
22790W        W95105  12.329  21.103  13.325
22791W        W95106  41.992   2.610   4.271
22792W        W95107  43.963   7.567   1.923
22793W        W95108  13.241  34.638   0.406
22794W        W95109  14.700  22.341   3.733
22795W        W95110  19.638  20.721   4.935
22796W        W95111  35.450  20.167   1.003
22797W        W95112  13.639  29.121   1.251
22798W        W95113  13.311  35.626  11.905
22799W        W95114  10.296   0.541   1.414
22800W        W95115   7.652  36.491  11.133
22801W        W95116  21.204  30.963  11.573
22802W        W95117  43.493   6.835   1.821
22803W        W95118   3.422  32.553   3.630
22804W        W95119   0.454  29.521  14.419
22805W        W95120  32.003  40.731  14.002
22806W        W95121  13.841  38.432  11.401
22807W        W95122  44.852   3.296   0.734
22808W        W95123  19.585  17.804   1.861
22809W        W95124   6.524   9.295   3.792
22810W        W95125  29.414  40.863  14.511
22811W        W95126  14.167  22.980  11.177
22812W        W95127  35.368  29.463  14.417
22813W        W95128  15.222  41.562   1.420
22814W        W95129  36.129   5.911  13.534
22815W        W95130  35.552  38.341  12.023
22816W        W95131   9.761  12.921  11.471
22817W        W95132  44.524   2.299  12.999
22818W        W95133  40.834  11.232  13.975
22819W        W95134   1.338  32.944   5.204
22820W        W95135  16.240  24.100   1.163
22821W        W95136  39.496  39.879   4.872
22822W        W95137  13.564   4.343   2.206
22823W        W95138  35.830  24.971  14.376
22824W        W95139   3.162  24.466  13.889
22825W        W95140  10.608   3.262  14.755
22826W        W95141  27.629  29.614  12.129
22827W        W95142  27.220  34.655  11.964
22828W        W95143  23.694  42.030   0.766
22829W        W95144  24.367  19.438   3.714
22830W        W95145  27.080   8.028   4.548
22831W        W95146  18.674  38.146  11.022
22832W        W95147  37.057  43.651  12.197
22833W        W95148  41.707   6.395  11.460
22834W        W95149  23.501  27.911   0.699
22835W        W95150  35.090  11.779   2.395
22836W        W95151  33.381  37.583  12.958
22837W        W95152  28.641  14.283   2.119
22838W        W95153  30.713  12.480  13.199
22839W        W95154   2.388   1.037   1.879
22840W        W95155   7.090  36.115  13.351
22841W        W95156  42.808   4.976  14.708
22842W        W95157   4.123  33.817  12.266
22843W        W95158  31.954  19.244   0.255
22844W        W95159  42.987  36.993  14.783
22845W        W95160  23.650  19.135  12.874
22846W        W95161  36.541  29.915  11.699
22847W        W95162  42.477  15.421   0.659
22848W        W95163  43.876  33.586  14.044
22849W        W95164  14.565   4.737   2.937
22850W        W95165  23.512  36.048   2.217
22851W        W95166  21.839  31.423   1.296
22852W        W95167  29.730  11.256   4.252
22853W        W95168  31.874  40.358  12.464
22854W        W95169  14.240  37.519   2.979
22855W        W95170  41.493  32.171  10.537
22856W        W95171  14.169  26.494   2.643
22857W        W95172  11.311   3.894   0.911
22858W        W95173  40.483  29.464   3.920
22859W        W95174  11.422  21.746   3.119
22860W        W95175  38.064  19.607  13.975
22861W        W95176  35.957  10.880   3.784
22862W        W95177  38.587   1.273  11.154
22863W        W95178  24.602  42.225  13.111
22864W        W95179  24.000  14.446  14.282
22865W        W95180  26.334  41.019   3.240
22866W        W95181  33.995  31.370  11.301
22867W        W95182  27.461   9.971   1.479
22868W        W95183   3.674  32.642   1.799
22869W        W95184  16.528  41.046   4.322
22870W        W95185  22.654  44.355  14.434
22871W        W95186   4.322   8.914  14.470
22872W        W95187  29.439  34.957  12.604
22873W        W95188  28.647  34.559  10.409
22874W        W95189   5.674  25.403  14.790
22875W        W95190  20.823  40.726  10.975
22876W        W95191  21.323  22.479  14.870
22877W        W95192  29.007  32.514   1.134
22878W        W95193  34.783  16.704  11.068
22879W        W95194  15.807  34.130  14.457
22880W        W95195  39.342  43.387  12.081
22881W        W95196  24.537  40.615   0.458
22882W        W95197  19.497  20.972  10.260
22883W        W95198  32.136  33.005   1.268
22884W        W95199  11.382   4.793   2.926
22885W        W95200   9.535  31.173   2.802
22886W        W95201  15.147   1.413  11.712
22887W        W95202   3.340  10.139  13.991
22888W        W95203  38.581  22.982   1.879
22889W        W95204  15.491   1.196  12.541
22890W        W95205  20.735  18.767   3.281
22891W        W95206  24.114   5.394  13.480
22892W        W95207   1.224   5.821   2.162
22893W        W95208  30.029  30.229   1.118
22894W        W95209  43.355  23.597  10.680
22895W        W95210  35.858  15.171   5.084
22896W        W95211  35.565  14.402  13.141
22897W        W95212  11.160  14.932   3.642
22898W        W95213  17.960  27.083  14.068
22899W        W95214   5.182  34.651  13.917
22900W        W95215  14.827  35.364   3.817
22901W        W95216  24.095  28.923  14.263
22902W        W95217   8.589  30.032  11.629
22903W        W95218   7.061  17.983  12.609
22904W        W95219  26.644  40.376  14.906
22905W        W95220  17.973   1.725   4.857
22906W        W95221  10.642  23.947  11.302
22907W        W95222  30.950  38.860   3.192
22908W        W95223   5.974  21.099   3.699
22909W        W95224   4.487  38.879   4.195
22910W        W95225   2.004  13.622   3.903
22911W        W95226  38.601   6.865   1.124
22912W        W95227   5.640  36.343  10.639
22913W        W95228  42.110  22.580   3.226
22914W        W95229   9.397  33.900   3.767
22915W        W95230   9.629  32.150  12.231
22916W        W95231   3.989  30.110   3.876
22917W        W95232  40.997   4.276  12.512
22918W        W95233  24.301  13.429  14.293
22919W        W95234   9.154  26.478   2.860
22920W        W95235   9.103  39.014  13.333
22921W        W95236  24.622  33.910   4.075
22922W        W95237  36.900  40.230   4.208
22923W        W95238  18.018  36.504   4.516
22924W        W95239  30.623  42.482   1.934
22925W        W95240  39.007  31.836   1.495
22926W        W95241  12.131  11.103  12.622
22927W        W95242  28.089  43.311  11.581
22928W        W95243   7.923   5.782  10.601
22929W        W95244   0.065  10.913   2.399
22930W        W95245  25.190  24.412  12.352
22931W        W95246  44.401  21.343  13.939
22932W        W95247  29.139  27.376   0.885
22933W        W95248  17.051  11.550   0.902
22934W        W95249   7.923  15.017   1.391
22935W        W95250  16.665  14.700   4.938
22936W        W95251  17.661   7.280  14.074
22937W        W95252   9.346  38.308  10.477
22938W        W95253  21.299  44.985  12.136
22939W        W95254  19.191  33.594  14.318
22940W        W95255  33.152   2.854   3.524
22941W        W95256   3.233   7.287   0.667
22942W        W95257  15.336  18.663   0.027
22943W        W95258  23.087   6.179  14.837
22944W        W95259  40.352  31.557   0.827
22945W        W95260  18.482   1.296  12.005
22946W        W95261  11.244  26.714   4.948
22947W        W95262   0.717  27.681   4.530
22948W        W95263  36.475  24.331  12.839
22949W        W95264  10.030   4.719  11.524
22950W        W95265  29.469   3.489  12.645
22951W        W95266  12.216  20.101  11.509
22952W        W95267   3.390  38.752   3.738
22953W        W95268  32.540  35.788   0.021
22954W        W95269   6.291  21.541  12.441
22955W        W95270  32.321  22.511  10.646
22956W        W95271  29.695  20.118   0.954
22957W        W95272  23.724  29.377  11.669
22958W        W95273   2.162   7.410   4.894
22959W        W95274  32.566  18.337   4.506
22960W        W95275   2.677  20.745   1.223
22961W        W95276  32.941   3.173  14.545
22962W        W95277   7.115  42.877  14.778
22963W        W95278  11.872  14.978   0.490
22964W        W95279  28.554  38.237  12.533
22965W        W95280  26.888  20.620  11.082
22966W        W95281  19.100  10.456  11.601
22967W        W95282  18.130  23.781   0.883
22968W        W95283  16.061  13.679  13.431
22969W        W95284  18.184  19.939   0.218
22970W        W95285  31.561   2.490   0.042
22971W        W95286   3.166  14.760  11.452
22972W        W95287   6.317   3.401  11.851
22973W        W95288  35.561  26.560   2.771
22974W        W95289  42.112  19.065   0.932
22975W        W95290  29.015  29.218   4.633
22976W        W95291  14.406  14.718   1.696
22977W        W95292  30.666  35.891  11.965
22978W        W95293  33.056  19.321   2.863
22979W        W95294  32.339  35.316  11.381
22980W        W95295  25.197  32.640   3.788
22981W        W95296  28.615   2.976   0.854
22982W        W95297  18.090   8.331  11.991
22983W        W95298  41.455  32.809   0.573
22984W        W95299   7.356   3.817   4.091
22985W        W95300  40.484   8.933  11.402
22986W        W95301  27.483  43.289   1.058
22987W        W95302  18.323  39.461   4.717
22988W        W95303  21.681  20.776  10.431
22989W        W95304  18.245  42.291  12.527
22990W        W95305  13.663   8.617   4.518
22991W        W95306  11.653  41.763  10.895
22992W        W95307   1.238  31.294   3.685
22993W        W95308  34.102  19.959   0.138
22994W        W95309  20.868   9.188   4.112
22995W        W95310  16.136  39.263  14.905
22996W        W95311  37.567  29.060  10.792
22997W        W95312  44.490   1.493   4.573
22998W        W95313  39.737  38.896  14.252
22999W        W95314  10.791   0.770  11.543
23000W        W95315  18.962  27.214   0.418
23001W        W95316  28.092   5.415  11.335
23002W        W95317  29.571  42.428   1.921
23003W        W95318  28.652   2.763   1.864
23004W        W95319   5.732  39.950  11.392
23005W        W95320  25.630  22.689  13.025
23006W        W95321  31.565  38.946  11.457
23007W        W95322   7.775  11.826   9.911
23008W        W95323  29.913   0.590   3.749
23009W        W95324  43.099  11.072   9.542
23010W        W95325  29.312  25.261   4.565
23011W        W95326  28.488  26.954  10.411
23012W        W95327  26.240   7.150  13.286
23013W        W95328  12.933  35.332   1.850
23014W        W95329  10.801   1.690  14.868
23015W        W95330  11.848  30.207   3.967
23016W        W95331  43.032  25.637  13.605
23017W        W95332  13.566  37.806  12.495
23018W        W95333   1.328  13.245  13.160
23019W        W95334  15.915  38.533   2.707
23020W        W95335  36.606  44.004   3.244
23021W        W95336  21.022  25.393   0.931
23022W        W95337  43.508  16.465   3.196
23023W        W95338  38.101   9.347   0.831
23024W        W95339   4.320   6.395   4.409
23025W        W95340  39.113  22.965   1.908
23026W        W95341  25.736  33.536   9.982
23027W        W95342  23.552  21.602  14.384
23028W        W95343  28.657  15.352   1.199
23029W        W95344  31.448  33.379  13.429
23030W        W95345   4.994  20.778   5.092
23031W        W95346  40.898  37.171  13.988
23032W        W95347  39.753  21.083  13.074
23033W        W95348  29.499   9.635   0.516
23034W        W95349  14.542  36.864  13.890
23035W        W95350  31.569  30.526  12.063
23036W        W95351   4.235  36.883  12.941
23037W        W95352   6.296  18.398   0.693
23038W        W95353   3.911  26.229  14.694
23039W        W95354   4.816   1.508  13.830
23040W        W95355   0.009  31.443   2.761
23041W        W95356   2.472  19.876  12.934
23042W        W95357  26.068  37.964   0.675
23043W        W95358   0.986  31.916  10.353
23044W        W95359  14.299  41.618   2.386
23045W        W95360  30.947  39.360   3.066
23046W        W95361  34.354   5.055  12.593
23047W        W95362  18.036   7.370   0.389
23048W        W95363  36.736  27.870  10.174
23049W        W95364  36.445  35.033  11.224
23050W        W95365  31.061   9.350  12.915
23051W        W95366  39.125  11.132   2.467
23052W        W95367  37.481   2.172   2.944
23053W        W95368  44.178   6.853   3.662
23054W        W95369  37.902  34.967   3.936
23055W        W95370   3.779  38.467   0.999
23056W        W95371  23.873  11.268   0.409
23057W        W95372  41.282   5.644  12.402
23058W        W95373  31.058  27.446   4.596
23059W        W95374  24.108   7.193  13.129
23060W        W95375  26.062   1.807  12.198
23061W        W95376  12.608  35.216   0.707
23062W        W95377  38.855  23.298  10.202
23063W        W95378  25.482  28.271   3.711
23064W        W95379  16.842  23.052  14.514
23065W        W95380  33.986  29.537  11.228
23066W        W95381  16.767  36.213  12.046
23067W        W95382  20.549  28.550   2.181
23068W        W95383  19.301  34.295   1.681
23069W        W95384   5.358  25.495   2.905
23070W        W95385   1.970   7.685  14.883
23071W        W95386   8.862  40.838  14.504
23072W        W95387  19.017  28.832  13.868
23073W        W95388  13.725  34.106   0.309
23074W        W95389  11.783  13.386   3.391
23075W        W95390  33.537  17.394   5.159
23076W        W95391  44.392  27.693   1.002
23077W        W95392   8.256  33.231   0.556
23078W        W95393  18.647  31.507  12.911
23079W        W95394  11.661  40.335   2.391
23080W        W95395   8.271  13.882   0.803
23081W        W95396  41.711  39.068   2.743
23082W        W95397  39.758  37.458   0.428
23083W        W95398  28.872  29.124  13.072
23084W        W95399  32.586  16.036  11.711
23085W        W95400  33.529  24.958  12.036
23086W        W95401   5.803  41.998  14.308
23087W        W95402  14.707  18.332   0.787
23088W        W95403   1.277  34.431   3.555
23089W        W95404  35.501  26.868   2.302
23090W        W95405  40.211   2.302   2.370
23091W        W95406  33.124  39.496   2.712
23092W        W95407  41.131  26.827  10.913
23093W        W95408  34.192  18.732  14.417
23094W        W95409  12.117  16.658  13.018
23095W        W95410  14.581  33.829  12.472
23096W        W95411   7.475  26.264  10.655
23097W        W95412  16.010  12.767   0.832
23098W        W95413  44.011  38.088   2.859
23099W        W95414  26.156  28.499   2.831
23100W        W95415  10.729  20.970  13.743
23101W        W95416  33.595  39.038   3.089
23102W        W95417  41.033  41.600  14.277
23103W        W95418  29.447  39.798  11.802
23104W        W95419   5.103  24.014  10.207
23105W        W95420  21.685   2.346   1.828
23106W        W95421  35.110  27.097   1.378
23107W        W95422  41.957  20.247  13.505
23108W        W95423  31.505  34.892   1.132
23109W        W95424  39.991  16.391   3.238
23110W        W95425   8.105  16.135   0.519
23111W        W95426   1.691  36.382  13.333
23112W        W95427  27.144  19.276   3.831
23113W        W95428  22.009  43.480   4.282
23114W        W95429  28.277  24.188   0.288
23115W        W95430  10.845  34.543   2.221
23116W        W95431  13.528  11.633  10.642
23117W        W95432  37.575   8.940   3.676
23118W        W95433  41.944  11.543   0.440
23119W        W95434   4.800  19.995   3.560
23120W        W95435  38.611  44.070   0.623
23121W        W95436   3.505   8.792   4.254
23122W        W95437  14.535  34.920   4.929
23123W        W95438  24.263  32.074  11.904
23124W        W95439  16.120  22.189   1.943
23125W        W95440  15.999  37.585   1.864
23126W        W95441  16.830  31.543   4.781
23127W        W95442  16.047  22.474  14.097
23128W        W95443  44.921  36.192  12.536
23129W        W95444   1.933  39.962   3.455
23130W        W95445  29.874   1.799   3.160
23131W        W95446   2.361  20.780  13.077
23132W        W95447  24.525  37.086  11.516
23133W        W95448   6.242  29.604  13.986
23134W        W95449  27.113  34.418   0.000
23135W        W95450  30.133  15.854  10.289
23136W        W95451   9.941   8.614  10.220
23137W        W95452  17.837   6.399  10.630
23138W        W95453  36.312  21.070   3.019
23139W        W95454  33.402  42.842   3.397
23140W        W95455   4.801  44.774  14.111
23141W        W95456  19.199  42.048   1.997
23142W        W95457  26.061  29.615  13.999
23143W        W95458  14.804  39.962   3.067
23144W        W95459  39.298  29.888  11.184
23145W        W95460   5.375   9.381  12.328
23146W        W95461  26.251  31.807  11.100
23147W        W95462  43.334  44.546  13.835
23148W        W95463  14.901   3.499  13.111
23149W        W95464  31.571  34.406  11.397
23150W        W95465  26.834  40.391   3.638
23151W        W95466  39.035  20.474  13.373
23152W        W95467  21.170  39.712  13.043
23153W        W95468  43.740   6.834   1.338
23154W        W95469  25.573   0.014  14.291
23155W        W95470  34.369  23.108  11.176
23156W        W95471   8.205  41.320  13.171
23157W        W95472  28.557  40.195  14.854
23158W        W95473  29.614  17.279  13.488
23159W        W95474   3.183   3.809  13.956
23160W        W95475  18.403   7.224  12.928
23161W        W95476  29.925  40.566  11.635
23162W        W95477   7.903  28.132   4.075
23163W        W95478  35.539  28.547   0.477
23164W        W95479  18.712  24.681   4.500
23165W        W95480  22.192  37.880  10.607
23166W        W95481  12.701  20.612   0.804
23167W        W95482  39.328  13.584  10.693
23168W        W95483  30.506  30.970   2.188
23169W        W95484  13.190  42.399  12.515
23170W        W95485  40.058  35.819   2.688
23171W        W95486   6.706   2.083  11.020
23172W        W95487  36.803  13.110  13.551
23173W        W95488  25.590  26.108  10.749
23174W        W95489   9.282  11.945   0.783
23175W        W95490  14.159  10.935  12.422
23176W        W95491  26.454  43.573  11.153
23177W        W95492  24.525  26.962  12.667
23178W        W95493   9.702  17.678   3.525
23179W        W95494  41.953  28.065   3.874
23180W        W95495  43.449  22.944   0.906
23181W        W95496  23.083  10.449   0.032
23182W        W95497  44.344  13.313   3.998
23183W        W95498  42.324  40.303   2.722
23184W        W95499   5.342  33.647   0.449
23185W        W95500  37.113  42.746   2.186
23186W        W95501   9.266   3.532  11.455
23187W        W95502  11.845  36.618   0.445
23188W        W95503  41.921  14.853   1.202
23189W        W95504   5.346  33.154  14.354
23190W        W95505  41.323  14.778  11.595
23191W        W95506  26.228  36.563  14.761
23192W        W95507  42.631  13.096  11.915
23193W        W95508  32.294  27.666  10.768
23194W        W95509   4.395  34.208   2.784
23195W        W95510  41.807  35.582   3.172
23196W        W95511  24.063  31.847  14.780
23197W        W95512  36.302   4.727   3.447
23198W        W95513  26.210  18.221   4.194
23199W        W95514   9.789   7.893   4.626
23200W        W95515  31.780  44.933  13.520
23201W        W95516  40.163  32.273  11.050
23202W        W95517  27.632  44.291   2.337
23203W        W95518  21.604  41.280   1.447
23204W        W95519   4.667  15.828   0.982
23205W        W95520  30.260  20.312  12.293
23206W        W95521  10.855   3.238  13.911
23207W        W95522  14.111   6.014   9.881
23208W        W95523  23.348  17.987  11.134
23209W        W95524  11.102  31.636   0.054
23210W        W95525   3.709  29.039   0.731
23211W        W95526  32.014   1.009  12.570
23212W        W95527  27.103  44.702   4.713
23213W        W95528  11.069  22.658   2.148
23214W        W95529  35.125  20.526   4.171
23215W        W95530  23.808   3.228  12.514
23216W        W95531  18.532  21.531  11.973
23217W        W95532  30.811  26.600  13.953
23218W        W95533  36.708   4.122   0.772
23219W        W95534  42.611  20.272  12.975
23220W        W95535  13.267  37.564  12.129
23221W        W95536   2.637  43.858  14.002
23222W        W95537  22.420  31.452  13.569
23223W        W95538  44.138  33.654   4.904
23224W        W95539  43.518   0.726  10.826
23225W        W95540  18.818  24.129  14.041
23226W        W95541   9.822   6.856  14.756
23227W        W95542  40.057  36.029   1.759
23228W        W95543  36.703  27.570  13.853
23229W        W95544   8.196  44.977   0.371
23230W        W95545  21.811  18.409   3.708
23231W        W95546  33.833   4.422   1.915
23232W        W95547   4.645  36.073  13.118
23233W        W95548  25.528  41.554   4.100
23234W        W95549  22.995  44.412   4.412
23235W        W95550  33.086  14.306  14.735
23236W        W95551  37.401   6.380  10.692
23237W        W95552  28.799  11.812  13.956
23238W        W95553  38.495  32.401   4.410
23239W        W95554  39.445  43.289  14.528
23240W        W95555  33.183  14.295   4.143
23241W        W95556  37.087  16.707   1.794
23242W        W95557  41.408  38.331  14.137
23243W        W95558  38.564  10.945  10.720
23244W        W95559  43.837   7.200   3.809
23245W        W95560  24.067  15.532   0.294
23246W        W95561   6.359  23.919  14.486
23247W        W95562  40.776   8.651  13.047
23248W        W95563   5.713  35.740  14.384
23249W        W95564   2.023  28.072   2.699
23250W        W95565   6.160  24.135  14.887
23251W        W95566  24.991  17.235   0.955
23252W        W95567  10.356   5.277   3.740
23253W        W95568  29.540  40.617   2.217
23254W        W95569  25.448  41.540  11.435
23255W        W95570  19.087   7.794  13.901
23256W        W95571   9.321  23.063  14.214
23257W        W95572  22.961   8.932   1.090
23258W        W95573  43.242  10.802  13.439
23259W        W95574  31.882  40.116   3.426
23260W        W95575  32.902  12.887   0.190
23261W        W95576  27.633  11.426   1.267
23262W        W95577  18.281  19.678  12.523
23263W        W95578  36.829  13.483   3.379
23264W        W95579  18.288  41.606   2.310
23265W        W95580   2.506   1.762   2.330
23266W        W95581   4.221  20.825  12.473
23267W        W95582   2.255  18.657   1.799
23268W        W95583  11.946  15.832   9.883
23269W        W95584  33.747   4.201  13.968
23270W        W95585  23.128  35.872   3.707
23271W        W95586  26.557  14.087  12.487
23272W        W95587  27.555  31.934   4.788
23273W        W95588  38.451  42.141   2.602
23274W        W95589  35.307  42.970  11.104
23275W        W95590  37.306  21.956  12.398
23276W        W95591  17.940  40.142   0.679
23277W        W95592  28.894  41.798  11.062
23278W        W95593  36.015  17.847   2.399
23279W        W95594   1.835  44.057  14.839
23280W        W95595   1.734  18.554   0.433
23281W        W95596  29.007  13.705  11.670
23282W        W95597   3.968  32.954  12.329
23283W        W95598  36.638  32.392   1.307
23284W        W95599   1.661  39.932   0.208
23285W        W95600  36.105   3.796  11.757
23286W        W95601   7.025  25.107   4.084
23287W        W95602  20.408  28.513   4.481
23288W        W95603  19.121  38.735  11.479
23289W        W95604  35.471  43.401   3.390
23290W        W95605  44.942  14.454   0.249
23291W        W95606  25.950  32.611   4.494
23292W        W95607  24.764  17.565  12.527
23293W        W95608  17.705  21.871  12.914
23294W        W95609  11.638   1.387  12.541
23295W        W95610  29.150  34.919   3.767
23296W        W95611  24.580   3.850   4.198
23297W        W95612  36.384  25.557   1.464
23298W        W95613  37.842  37.970  14.500
23299W        W95614  35.468  28.473  12.585
23300W        W95615  18.285  15.656   2.812
23301W        W95616  14.316  24.497   4.566
23302W        W95617  11.201   9.706  14.809
23303W        W95618  37.577   4.221   4.516
23304W        W95619  22.958  22.743  11.522
23305W        W95620   4.438  24.863  10.206
23306W        W95621   0.804  30.028   2.900
23307W        W95622  10.621  16.220  12.943
23308W        W95623   9.660  43.398  12.859
23309W        W95624  19.137  24.709   4.150
23310W        W95625  27.082  15.036  12.133
23311W        W95626  40.011  41.793   1.415
23312W        W95627  13.518  33.637  11.596
23313W        W95628  12.097  39.470  13.282
23314W        W95629   8.269  16.565  13.426
23315W        W95630  29.232   1.515  13.494
23316W        W95631  44.358   0.449   4.436
23317W        W95632  42.551   7.685   1.802
23318W        W95633  14.846  36.363  13.980
23319W        W95634  34.787  12.441   1.117
23320W        W95635   1.781  34.612   4.259
23321W        W95636  35.281  16.072  11.072
23322W        W95637  13.150  31.534   4.435
23323W        W95638   7.688  16.508  11.259
23324W        W95639  33.131   7.291   2.260
23325W        W95640   6.616   6.232   1.401
23326W        W95641  33.641  12.458   2.325
23327W        W95642  32.380   6.374   3.082
23328W        W95643   3.490  26.225  11.481
23329W        W95644  13.592   6.683   0.193
23330W        W95645  43.816  25.908  11.103
23331W        W95646  26.291  30.986   2.272
23332W        W95647   4.184  30.438   9.921
23333W        W95648  38.282  33.369  11.923
23334W        W95649  24.707  21.966  13.539
23335W        W95650   4.883  33.342   0.555
23336W        W95651   1.962  27.541   0.336
23337W        W95652  22.910  30.015   1.453
23338W        W95653  35.899  33.485  10.557
23339W        W95654  44.392  12.252  11.373
23340W        W95655  27.629  27.072  11.821
23341W        W95656   1.765  14.045   2.153
23342W        W95657  18.591  44.096  10.520
23343W        W95658  17.008  15.405  12.441
23344W        W95659  34.789   9.933   0.876
23345W        W95660  11.832  11.909  11.457
23346W        W95661   2.034  32.170  13.276
23347W        W95662  20.068  27.638  12.101
23348W        W95663  28.305   6.277   3.147
23349W        W95664  20.787  15.875  12.404
23350W        W95665  34.555  25.543   3.331
23351W        W95666  34.824   0.111  12.811
23352W        W95667   4.741  37.068   4.158
23353W        W95668   2.638   1.182   4.051
23354W        W95669  25.381  37.961  13.057
23355W        W95670  44.460  12.322  10.688
23356W        W95671   4.451  13.730  11.426
23357W        W95672  28.434  44.108  12.103
23358W        W95673  37.727  18.687   3.398
23359W        W95674  23.989   9.749   4.576
23360W        W95675  33.213  10.836  14.425
23361W        W95676   7.386  15.512   1.778
23362W        W95677  38.363  24.625   4.596
23363W        W95678  16.736   6.647  13.790
23364W        W95679   6.745  14.761   2.020
23365W        W95680   3.012  33.147   1.461
23366W        W95681  33.708  33.073   2.348
23367W        W95682   0.885   1.333   1.931
23368W        W95683   6.604   9.721  12.420
23369W        W95684  12.727  27.614  14.440
23370W        W95685  23.480  32.319  12.459
23371W        W95686  43.270  26.099   2.789
23372W        W95687  36.176  21.294   0.755
23373W        W95688   6.729  34.194   0.014
23374W        W95689  29.158  26.539  12.006
23375W        W95690   7.425   8.654  10.630
23376W        W95691  38.516  36.008   1.656
23377W        W95692  43.466  39.308  12.927
23378W        W95693   6.738  12.764  12.094
23379W        W95694  26.342   6.228   5.237
23380W        W95695  40.426   7.173   2.847
23381W        W95696  35.527  23.253  12.094
23382W        W95697  18.599  21.328   2.033
23383W        W95698  32.506  10.547   2.305
23384W        W95699   2.280  11.755  13.823
23385W        W95700  14.425  17.613   3.581
23386W        W95701  35.798  16.341   3.565
23387W        W95702  42.778  27.553   4.201
23388W        W95703  20.900  43.261  13.613
23389W        W95704  11.565   7.381  12.209
23390W        W95705   6.396   4.908  14.968
23391W        W95706  21.847   4.959   4.244
23392W        W95707  17.688   6.757   3.866
23393W        W95708  38.609  15.672  14.431
23394W        W95709  29.900  41.829  14.813
23395W        W95710  42.011  29.546   4.248
23396W        W95711  14.365  35.447  13.890
23397W        W95712  36.345  22.178   0.745
23398W        W95713  13.525  34.918   3.546
23399W        W95714   3.830  40.409  14.713
23400W        W95715  37.453  41.536  11.218
23401W        W95716  35.320  44.902   1.169
23402W        W95717  10.860  24.031  14.196
23403W        W95718   3.851  32.493  11.383
23404W        W95719   2.299  44.253  14.965
23405W        W95720  36.481   8.312  10.779
23406W        W95721  10.446  42.858   2.347
23407W        W95722   7.972  31.502  14.949
23408W        W95723  32.681  27.779  12.053
23409W        W95724   8.902  28.226   2.500
23410W        W95725  19.154  17.823   0.271
23411W        W95726  38.856  23.072  13.050
23412W        W95727   6.806  21.606  11.674
23413W        W95728  31.601  37.778  12.772
23414W        W95729  12.321   2.818  13.527
23415W        W95730   6.787   9.386   4.236
23416W        W95731   7.146  33.881  12.003
23417W        W95732  36.118   1.957  11.021
23418W        W95733  17.681  10.732   2.400
23419W        W95734  19.188  18.515   3.743
23420W        W95735  12.537   8.815  14.492
23421W        W95736  16.135  28.387  13.943
23422W        W95737  44.277  35.863  12.509
23423W        W95738   6.021  25.119   4.160
23424W        W95739  42.578  39.327   3.693
23425W        W95740  11.484  29.022  13.315
23426W        W95741   7.224  31.602   4.676
23427W        W95742  12.724  18.048   3.739
23428W        W95743  25.156  34.967  13.026
23429W        W95744   5.492  14.072   1.914
23430W        W95745  20.096  14.863  12.408
23431W        W95746  13.840  41.279   2.388
23432W        W95747  26.751  30.791   0.946
23433W        W95748  40.343  12.147  12.447
23434W        W95749  30.653   6.576   4.493
23435W        W95750  11.600   2.933   1.842
23436W        W95751  10.697  44.195   1.052
23437W        W95752   8.318   9.638   1.468
23438W        W95753  10.420  28.859  13.948
23439W        W95754  18.871   3.746  13.903
23440W        W95755  37.150  42.839  13.965
23441W        W95756  23.086   5.015   3.215
23442W        W95757  28.480  18.106   0.449
23443W        W95758   5.364  14.783   1.533
23444W        W95759   6.203  17.321   0.081
23445W        W95760   2.127  37.996  13.908
23446W        W95761  35.328  15.955   1.333
23447W        W95762  12.613  13.097   2.213
23448W        W95763  32.821  17.715   0.520
23449W        W95764  41.143  34.865   1.808
23450W        W95765  18.175  27.360  12.368
23451W        W95766  20.804  29.720   5.015
23452W        W95767  43.316  44.636   4.788
23453W        W95768  24.605   1.272  12.464
23454W        W95769   7.757  28.155  12.085
23455W        W95770  40.230  17.313  14.105
23456W        W95771  40.779  15.626   1.740
23457W        W95772  43.793  18.311   0.348
23458W        W95773  19.364  42.478  14.421
23459W        W95774  35.058  39.014  10.104
23460W        W95775  28.724  42.720  10.691
23461W        W95776  22.197  24.072  10.597
23462W        W95777  24.208  39.734   0.452
23463W        W95778   7.923  16.833  14.811
23464W        W95779  42.010  21.358   4.094
23465W        W95780  33.907  11.764   0.505
23466W        W95781  15.693  36.349  10.482
23467W        W95782  26.768   8.931  11.126
23468W        W95783  12.717  19.251  10.676
23469W        W95784   4.374  15.561  13.358
23470W        W95785  12.322  35.013   3.423
23471W        W95786  41.807  17.481   4.146
23472W        W95787  29.422  11.582  12.968
23473W        W95788   5.831   0.080  14.419
23474W        W95789  33.471  32.266   2.949
23475W        W95790  13.359  27.648  11.728
23476W        W95791  28.037   3.354  12.270
23477W        W95792  19.189  22.622  13.470
23478W        W95793  38.368  41.561   4.220
23479W        W95794   5.958  22.943   1.679
23480W        W95795  37.620  30.524   4.980
23481W        W95796  36.355  18.167   4.617
23482W        W95797  33.905  23.713   3.685
23483W        W95798  16.258  19.707  10.888
23484W        W95799  18.135  22.765   0.453
23485W        W95800   4.733  14.893  10.577
23486W        W95801   7.699  19.096   0.677
23487W        W95802  39.059  33.803   0.533
23488W        W95803   6.104  28.076   1.369
23489W        W95804  13.131  33.926   0.887
23490W        W95805  22.062  44.435  10.719
23491W        W95806  42.729  27.525   2.781
23492W        W95807  42.620  18.730   3.360
23493W        W95808  17.488  42.015   2.298
23494W        W95809  31.132   2.646   0.329
23495W        W95810  26.205  39.068  12.008
23496W        W95811  21.130  27.591  10.678
23497W        W95812  10.301  30.935  11.982
23498W        W95813  41.734  28.074   2.364
23499W        W95814  28.699  22.273   4.050
23500W        W95815   7.904  30.122   1.784
23501W        W95816  22.130  35.542  10.607
23502W        W95817  11.398   7.468  12.736
23503W        W95818  37.797   9.418   0.419
23504W        W95819  39.873  42.943   2.830
23505W        W95820   4.030  40.267  14.251
23506W        W95821  30.143   3.993  11.027
23507W        W95822  16.858  22.681  13.536
23508W        W95823  21.948  36.426  14.496
23509W        W95824  10.706  29.424   0.736
23510W        W95825  42.115  43.556  12.487
23511W        W95826  12.090  12.153  11.915
23512W        W95827  20.237  24.207   2.116
23513W        W95828  19.621  38.971   0.611
23514W        W95829  12.025  11.353   0.931
23515W        W95830  29.540   5.647   0.472
23516W        W95831  18.523  15.762   1.930
23517W        W95832  41.935  20.151  12.365
23518W        W95833  21.524  31.427   1.709
23519W        W95834  22.513  11.291  13.962
23520W        W95835  12.234   3.379   2.192
23521W        W95836  38.513  25.147  13.287
23522W        W95837  43.985  20.266  11.577
23523W        W95838  19.320  26.409  10.097
23524W        W95839  20.591   1.763  11.583
23525W        W95840  31.026  44.088  14.504
23526W        W95841  39.521  40.779   1.854
23527W        W95842  28.970  12.413  11.980
23528W        W95843   2.818  14.550  14.565
23529W        W95844  24.974   0.931  12.400
23530W        W95845   8.884  24.596  10.856
23531W        W95846  41.827   7.252  14.761
23532W        W95847  21.180   5.142  13.859
23533W        W95848  37.028  30.427   0.292
23534W        W95849  36.364  27.105   0.000
23535W        W95850  18.589  42.799  11.424
23536W        W95851  40.247  19.294   1.412
23537W        W95852   9.615  43.367   2.216
23538W        W95853  21.218  41.156   2.338
23539W        W95854  31.464  32.413  10.455
23540W        W95855  41.295  13.963   0.332
23541W        W95856  41.998  28.998   0.324
23542W        W95857  19.925  15.202   0.892
23543W        W95858  39.112  15.891  14.384
23544W        W95859  14.551  33.506   1.742
23545W        W95860  27.624   9.083   4.130
23546W        W95861  38.296  36.115   1.196
23547W        W95862  41.327  44.998  12.532
23548W        W95863   4.847  25.100   4.819
23549W        W95864   0.146  42.853  14.404
23550W        W95865   9.260  27.888  11.190
23551W        W95866  11.329  29.983  10.395
23552W        W95867  23.249   3.248   0.362
23553W        W95868   6.240  24.389   4.928
23554W        W95869  30.565   6.952   3.611
23555W        W95870  38.027  15.810   3.249
23556W        W95871  19.995  13.341  14.948
23557W        W95872  14.482  40.910  10.768
23558W        W95873  22.782  42.423  13.563
23559W        W95874  20.597   0.936   0.767
23560W        W95875  42.020  29.343   3.779
23561W        W95876  23.744  22.225  13.896
23562W        W95877  12.196  10.962  11.177
23563W        W95878  13.889  21.588   2.997
23564W        W95879  22.069  44.770   3.722
23565W        W95880  14.670  16.035   3.613
23566W        W95881  13.094  30.751  13.906
23567W        W95882  33.729   9.950   0.276
23568W        W95883   2.596  18.249   3.220
23569W        W95884  16.673  24.816  14.319
23570W        W95885  31.808  39.602   2.504
23571W        W95886  34.785   4.838   0.964
23572W        W95887   3.271  16.656  12.483
23573W        W95888  24.557  18.080   0.933
23574W        W95889  24.936  37.475   3.480
23575W        W95890  35.886  35.977   2.345
23576W        W95891  28.636  19.181  12.628
23577W        W95892  23.752  24.172  10.683
23578W        W95893  24.236  15.513   2.320
23579W        W95894  24.108  36.120   0.777
23580W        W95895  14.218  31.878   3.400
23581W        W95896   4.272  44.998   0.058
23582W        W95897  28.671  20.682   0.041
23583W        W95898  36.412  31.881  10.828
23584W        W95899  11.618   3.924  13.813
23585W        W95900   4.492   4.374   3.144
23586W        W95901  13.394   8.274  11.972
23587W        W95902  18.630  39.867   0.519
23588W        W95903  24.135   9.269   1.025
23589W        W95904  33.192  12.384  12.836
23590W        W95905  42.280   8.315   0.333
23591W        W95906   4.581  33.593  11.986
23592W        W95907   0.856  15.573  14.029
23593W        W95908  29.718   1.724   2.258
23594W        W95909  21.114  42.730  10.959
23595W        W95910  10.891  20.015  12.821
23596W        W95911  35.501  14.153   2.879
23597W        W95912  22.143  40.310  10.390
23598W        W95913  25.045  35.440   0.407
23599W        W95914   9.257   8.246   4.422
23600W        W95915  19.002   7.369   2.113
23601W        W95916  20.853  40.003   1.868
23602W        W95917   8.898  13.166  13.786
23603W        W95918  16.733  21.588  11.450
23604W        W95919  40.567   6.151  11.138
23605W        W95920  14.644   7.523  12.125
23606W        W95921   0.286  44.772   3.408
23607W        W95922  31.156  12.016   1.848
23608W        W95923  30.897  38.467  12.998
23609W        W95924  14.830  34.186   0.860
23610W        W95925  28.655   3.680   4.102
23611W        W95926  30.647   5.008   0.298
23612W        W95927   8.486  21.616   0.343
23613W        W95928  34.938  15.481   4.094
23614W        W95929   1.837  14.637  10.687
23615W        W95930   6.312  14.367  13.777
23616W        W95931  17.246  15.393   4.191
23617W        W95932  31.081  34.503  12.815
23618W        W95933  29.434  42.559   1.203
23619W        W95934  43.845  27.726  14.073
23620W        W95935  27.149  37.024  10.616
23621W        W95936  36.862  20.169   1.919
23622W        W95937  32.418   6.571   2.218
23623W        W95938  28.203  29.936  13.039
23624W        W95939  32.545  26.472   2.912
23625W        W95940  27.669  36.465   4.592
23626W        W95941  25.229  44.147   2.855
23627W        W95942  42.667   1.152   1.302
23628W        W95943  31.532   8.646   0.444
23629W        W95944  32.088  37.901  12.854
23630W        W95945  20.146   4.802   1.458
23631W        W95946  30.619  33.079   4.698
23632W        W95947  26.270  11.265  12.996
23633W        W95948  28.412  28.169   3.735
23634W        W95949   7.304  21.376  12.443
23635W        W95950  11.201   4.714   1.302
23636W        W95951   4.693  16.675  12.134
23637W        W95952   2.625  27.972   1.657
23638W        W95953  29.702  24.192   2.278
23639W        W95954  43.450  33.121   2.835
23640W        W95955  25.965  22.460  13.917
23641W        W95956  41.487  21.860   2.257
23642W        W95957  39.899   1.279   3.312
23643W        W95958  15.690   4.892  10.573
23644W        W95959  43.891   8.257   3.726
23645W        W95960  36.632  14.796   3.064
23646W        W95961  34.124  27.058  10.926
23647W        W95962  22.073  22.991   4.537
23648W        W95963  28.070  39.893   0.743
23649W        W95964   4.906  44.268   0.341
23650W        W95965  26.214  35.998   0.856
23651W        W95966   2.411  36.944   0.427
23652W        W95967  32.466  43.320  14.472
23653W        W95968   0.619   8.707   3.913
23654W        W95969  21.617   8.801   1.057
23655W        W95970   3.725   3.944  13.259
23656W        W95971  26.965  40.228   2.763
23657W        W95972  26.687  40.073  14.071
23658W        W95973  42.536  25.179  13.974
23659W        W95974   6.002   9.372  14.270
23660W        W95975  44.489  22.893   0.682
23661W        W95976  11.861  15.476   0.711
23662W        W95977  26.436   4.250   5.073
23663W        W95978   0.760  24.714  13.444
23664W        W95979  33.149  37.446  13.415
23665W        W95980  10.346   4.471  11.856
23666W        W95981  41.848   9.308   0.815
23667W        W95982  42.623  24.786   2.668
23668W        W95983   4.763   5.592  12.651
23669W        W95984  17.600  37.545   1.217
23670W        W95985  44.433  24.219   4.512
23671W        W95986  21.993   4.612  13.529
23672W        W95987  32.468  35.274  14.972
23673W        W95988  35.830   0.433  11.164
23674W        W95989  26.418  10.334   1.674
23675W        W95990  40.236  39.959  10.195
23676W        W95991  12.622  26.086   4.277
23677W        W95992   6.630  17.164  11.719
23678W        W95993  33.821  21.354   1.691
23679W        W95994  44.530   4.433  11.241
23680W        W95995  41.473  13.097  11.193
23681W        W95996  38.459  33.594   4.371
23682W        W95997  12.718  24.264  10.776
23683W        W95998  32.374  19.546  13.551
23684W        W95999   4.186   5.252  13.249
23685W        W96000  19.153  40.620  10.213
23686W        W96001  11.581  38.878  11.923
23687W        W96002  18.131  28.423  11.433
23688W        W96003  27.620  11.367   4.253
23689W        W96004  35.293  25.648  13.574
23690W        W96005   1.982  42.220   1.850
23691W        W96006  44.273  10.572  10.558
23692W        W96007  30.560  21.244   1.518
23693W        W96008  40.312  37.612   2.245
23694W        W96009   6.856  25.915  14.813
23695W        W96010   0.989  13.699  11.434
23696W        W96011   9.875  42.706  13.784
23697W        W96012  19.286  11.249  13.300
23698W        W96013  28.451  20.075   4.137
23699W        W96014  12.798  17.124   3.148
23700W        W96015   9.882  43.028   4.892
23701W        W96016   7.931  44.269   4.242
23702W        W96017  41.218  18.130  11.060
23703W        W96018  35.596  43.238  11.988
23704W        W96019  17.291  44.338  14.757
23705W        W96020   7.861  31.094  14.660
23706W        W96021  21.210  34.949   0.292
23707W        W96022  24.225   0.517  14.870
23708W        W96023  31.034  43.122   0.928
23709W        W96024  15.247  29.761  14.431
23710W        W96025  11.438  40.069  14.425
23711W        W96026  42.144  19.932   0.624
23712W        W96027  33.942   6.412   1.772
23713W        W96028  41.976  27.235   1.794
23714W        W96029  19.059  34.360  12.014
23715W        W96030  30.815   2.066   5.053
23716W        W96031  13.191  21.102  11.809
23717W        W96032  43.034  12.774   2.298
23718W        W96033   1.758  32.835  10.944
23719W        W96034  29.614   3.732  13.074
23720W        W96035   1.843  36.418   4.748
23721W        W96036  23.639  14.412   3.257
23722W        W96037  25.190   2.358  14.199
23723W        W96038  20.113  32.730  13.232
23724W        W96039   0.424  17.696   4.546
23725W        W96040  32.934  21.736   0.407
23726W        W96041  37.403  41.344  13.118
23727W        W96042  30.570  13.331   1.024
23728W        W96043  29.384  20.633   3.535
23729W        W96044  18.133   1.442  14.458
23730W        W96045  19.743  25.143   2.814
23731W        W96046  10.823  27.713   1.442
23732W        W96047  30.105  42.358  11.416
23733W        W96048   1.350   4.948   2.679
23734W        W96049   1.790  42.139  12.189
23735W        W96050   4.400  24.766   1.385
23736W        W96051  24.152  20.956  12.014
23737W        W96052  10.867  43.041   2.599
23738W        W96053  17.626  24.159   1.482
23739W        W96054   4.864  32.108   0.348
23740W        W96055   3.894  14.270  11.619
23741W        W96056   4.877  27.263   1.474
23742W        W96057   4.265  19.581  13.633
23743W        W96058   7.133   8.624   3.727
23744W        W96059  32.908  22.182  14.327
23745W        W96060  10.700  24.205   2.294
23746W        W96061  27.473  10.696   0.491
23747W        W96062  14.648   1.685  12.348
23748W        W96063   7.326  19.667   1.867
23749W        W96064  21.578  38.083  11.374
23750W        W96065   2.094  37.017  10.322
23751W        W96066  41.057  23.434   3.371
23752W        W96067   0.042  43.348   0.306
23753W        W96068   4.806   3.866  12.343
23754W        W96069  16.051  38.879   2.189
23755W        W96070  39.078  11.060  10.657
23756W        W96071   7.761  14.314  11.483
23757W        W96072   6.126  27.071   1.636
23758W        W96073   2.455  28.175  12.581
23759W        W96074   2.856   5.718   0.067
23760W        W96075  37.587  11.663   3.836
23761W        W96076  28.968   8.729  12.373
23762W        W96077  40.364  23.758  12.535
23763W        W96078  19.092  41.292   2.752
23764W        W96079   8.617  40.883  14.018
23765W        W96080  10.920  19.573  14.956
23766W        W96081  20.348  21.331  13.776
23767W        W96082  37.275  35.631   1.908
23768W        W96083  24.697  42.953  12.550
23769W        W96084  34.396  19.035   0.053
23770W        W96085  31.521   4.343   0.349
23771W        W96086  11.292  39.456   2.873
23772W        W96087   0.750   9.196   3.240
23773W        W96088  11.707  11.845   2.089
23774W        W96089  35.789  24.456  13.537
23775W        W96090   5.685  10.626   1.988
23776W        W96091  29.163  23.229  12.621
23777W        W96092  17.922  17.496   2.888
23778W        W96093   8.219   8.042  14.969
23779W        W96094   7.831  37.317  12.595
23780W        W96095  30.050  39.028  14.115
23781W        W96096  41.058   5.706  14.915
23782W        W96097   3.910   5.486   2.268
23783W        W96098  24.219  41.744   1.946
23784W        W96099   0.310  32.089   0.197
23785W        W96100   2.014   5.337   2.284
23786W        W96101   4.127   6.777   2.266
23787W        W96102  24.428  18.952   3.569
23788W        W96103  34.425   9.417  13.875
23789W        W96104  12.318  11.340  11.962
23790W        W96105  42.638  39.076  11.374
23791W        W96106  26.565   0.505  14.989
23792W        W96107  31.649  24.727   0.454
23793W        W96108  10.837  10.376  11.841
23794W        W96109  32.536  31.821   2.329
23795W        W96110  28.508  29.669  12.639
23796W        W96111  25.017  35.812   3.346
23797W        W96112  34.323   0.951  10.764
23798W        W96113   5.393   7.090  10.640
23799W        W96114  10.170  36.088   3.364
23800W        W96115  39.951  26.662   1.243
23801W        W96116  10.951   3.159  11.660
23802W        W96117  24.299  25.565   0.045
23803W        W96118  27.254  20.525  14.798
23804W        W96119  22.634  37.562   3.327
23805W        W96120  22.448  15.772   0.251
23806W        W96121  35.573  19.703  14.754
23807W        W96122  25.712  40.497   1.249
23808W        W96123  43.302  29.133  14.889
23809W        W96124  23.797  41.578  13.533
23810W        W96125  11.183   6.623   1.179
23811W        W96126   7.742   6.726   0.779
23812W        W96127  27.029  35.781   3.271
23813W        W96128  16.971   2.811   1.663
23814W        W96129  17.280  36.164   2.960
23815W        W96130   1.359  19.202   0.832
23816W        W96131  40.282  35.523  14.480
23817W        W96132  10.036   9.155  13.853
23818W        W96133  27.613  16.901  11.860
23819W        W96134  32.909  30.456  12.182
23820W        W96135  44.149  38.707   4.146
23821W        W96136  33.721  30.732  12.456
23822W        W96137   1.833  21.737   4.799
23823W        W96138  15.322   9.358  14.442
23824W        W96139  19.022  36.717   2.913
23825W        W96140   1.189   3.343   4.082
23826W        W96141   6.904  17.585  11.565
23827W        W96142  30.435  16.162  14.909
23828W        W96143   4.872  30.755  13.565
23829W        W96144  29.543  16.115  12.325
23830W        W96145  20.461   9.907  12.972
23831W        W96146  22.985  34.162  12.000
23832W        W96147   5.050  28.193  13.853
23833W        W96148  33.000  28.961  12.599
23834W        W96149   6.597  33.535   3.671
23835W        W96150  25.599  38.304  11.040
23836W        W96151  13.205  34.782   1.284
23837W        W96152  31.564  11.232  12.798
23838W        W96153  14.641  34.086  13.904
23839W        W96154   1.266  33.549   3.708
23840W        W96155   8.831  33.867   0.239
23841W        W96156   2.477  13.620   1.820
23842W        W96157  15.629  39.331  14.975
23843W        W96158  31.278  36.979  13.592
23844W        W96159   8.273  16.770   3.590
23845W        W96160  16.239  19.760  10.379
23846W        W96161   3.420  40.765  14.671
23847W        W96162  40.068  35.798  10.651
23848W        W96163  38.389  23.422   1.666
23849W        W96164  38.384   2.981  11.969
23850W        W96165  20.655   5.024   2.582
23851W        W96166  13.385   9.598   1.766
23852W        W96167  42.554  14.352  14.692
23853W        W96168  23.935  13.592  10.764
23854W        W96169   8.071  40.310  14.492
23855W        W96170  30.999  36.477  11.331
23856W        W96171  21.217  34.507  14.891
23857W        W96172  25.952  16.543  13.236
23858W        W96173  28.479  13.837   2.884
23859W        W96174  39.253  13.043   4.334
23860W        W96175   8.922   1.927   3.201
23861W        W96176  13.564  21.226   2.864
23862W        W96177  18.117  42.469  11.157
23863W        W96178  27.478  40.303  12.269
23864W        W96179  37.445  29.441   1.965
23865W        W96180   8.466  26.226   5.035
23866W        W96181  26.020  16.909  11.608
23867W        W96182  29.614  12.880  12.686
23868W        W96183   0.769  12.594  12.210
23869W        W96184  33.521  36.291   1.429
23870W        W96185  44.352   2.221  10.720
23871W        W96186  42.773  30.610   0.911
23872W        W96187  18.977   9.764   4.351
23873W        W96188   2.777  37.784  10.378
23874W        W96189   7.797   5.369   0.688
23875W        W96190  35.161  12.266  14.006
23876W        W96191  11.618  19.255  14.003
23877W        W96192  17.739  40.841   1.786
23878W        W96193  28.575  29.140  10.934
23879W        W96194  20.020  42.535   3.196
23880W        W96195  24.676  15.531  10.399
23881W        W96196  25.678   6.715   1.025
23882W        W96197  38.893  26.618  11.180
23883W        W96198  40.822  14.878  10.713
23884W        W96199   2.751  11.725   4.793
23885W        W96200  11.379  15.817  11.021
23886W        W96201  32.996   5.961   0.793
23887W        W96202  44.920  35.346   2.873
23888W        W96203  21.970  21.244  12.864
23889W        W96204  24.140  10.357   4.133
23890W        W96205  38.065  25.963   4.687
23891W        W96206   8.798   2.274   4.082
23892W        W96207   5.164   6.290  14.320
23893W        W96208   4.514  24.124   0.769
23894W        W96209   8.674   5.095   2.330
23895W        W96210  38.373  27.125   5.639
23896W        W96211  23.004  16.627   4.550
23897W        W96212  30.155  42.807   4.570
23898W        W96213  33.456  25.757   1.742
23899W        W96214  28.133  18.211   3.760
23900W        W96215  11.938   5.831  10.618
23901W        W96216  34.799  14.491  11.659
23902W        W96217  42.443  42.752   4.468
23903W        W96218  39.366  10.606  14.970
23904W        W96219  21.263   5.845  14.911
23905W        W96220  36.796   2.568   4.654
23906W        W96221   0.779  28.717   4.670
23907W        W96222  35.123  39.980  10.090
23908W        W96223   3.704  17.757  11.667
23909W        W96224   2.060   6.824  11.492
23910W        W96225   3.366  19.923   1.568
23911W        W96226   3.003   0.720   4.745
23912W        W96227  43.923  39.028  12.976
23913W        W96228  15.220  16.187  13.864
23914W        W96229  34.064   5.644  12.595
23915W        W96230  34.619  20.382   0.894
23916W        W96231  15.878  29.783  11.530
23917W        W96232  19.703  23.020   0.321
23918W        W96233   4.351  18.569   2.764
23919W        W96234  24.452   2.701  12.529
23920W        W96235  11.962   7.275  10.697
23921W        W96236  21.115  32.016   5.127
23922W        W96237  33.510  25.625  13.874
23923W        W96238  25.158  28.541  13.075
23924W        W96239   6.369   4.294  12.887
23925W        W96240   4.391  19.698  11.671
23926W        W96241  34.153   9.619   2.523
23927W        W96242   2.313  35.880  12.029
23928W        W96243   7.267  23.717  12.965
23929W        W96244  43.932  24.640   1.476
23930W        W96245  34.443  44.399  14.294
23931W        W96246  27.218  16.083   1.200
23932W        W96247  20.590  39.809  13.901
23933W        W96248  15.287  19.509   1.779
23934W        W96249  20.613   4.848   3.621
23935W        W96250  29.033   8.271   2.359
23936W        W96251  21.509   2.781  13.889
23937W        W96252  19.049  44.962   4.011
23938W        W96253   0.388   7.811   2.875
23939W        W96254  29.594   4.985  13.686
23940W        W96255  37.854   5.802  11.137
23941W        W96256  38.537  41.865   1.438
23942W        W96257  36.058  12.612  13.594
23943W        W96258  43.988  44.988  10.862
23944W        W96259  35.991  18.226   1.625
23945W        W96260  10.418  29.940   1.412
23946W        W96261  35.922  10.143  11.884
23947W        W96262  15.222  39.513  13.297
23948W        W96263  38.586  10.581   3.384
23949W        W96264  17.526  25.065   1.627
23950W        W96265  20.969  18.080  10.754
23951W        W96266  11.737  14.687  14.842
23952W        W96267  10.189   8.951  12.634
23953W        W96268  24.243  30.981  14.441
23954W        W96269   5.384  39.008   3.186
23955W        W96270  23.986  12.395  14.347
23956W        W96271   8.423   6.152   4.383
23957W        W96272   2.220  21.006   0.981
23958W        W96273  25.470  17.553  12.233
23959W        W96274  29.863   2.758   3.339
23960W        W96275  23.775  17.971  13.838
23961W        W96276  11.701  18.250   3.746
23962W        W96277  42.715  27.516  13.487
23963W        W96278  28.030  24.506  12.927
23964W        W96279  44.347   4.204   0.351
23965W        W96280  11.435   7.308  14.003
23966W        W96281   6.206  18.824   3.719
23967W        W96282  25.630  22.137   4.688
23968W        W96283  32.906   3.201   1.380
23969W        W96284   7.480  39.339   3.324
23970W        W96285  36.617  11.380   4.554
23971W        W96286  31.007  21.069   0.690
23972W        W96287   3.969  42.606   3.777
23973W        W96288  13.800  17.306   4.767
23974W        W96289  19.939  26.558  11.993
23975W        W96290  12.004  38.538  14.605
23976W        W96291  40.579  18.569   1.051
23977W        W96292   7.206  31.327   3.338
23978W        W96293  10.315  11.035  13.948
23979W        W96294   6.763  35.157   4.825
23980W        W96295   3.319  38.541  11.126
23981W        W96296  44.894  28.912  14.852
23982W        W96297  40.589  42.395  14.744
23983W        W96298  16.110   8.942  12.126
23984W        W96299   9.578  11.086   1.315
23985W        W96300  42.290  15.046   2.356
23986W        W96301  20.667   3.658  14.709
23987W        W96302  37.500  25.148   0.311
23988W        W96303   7.761  25.644   0.650
23989W        W96304  38.593   5.975   3.291
23990W        W96305   6.904   4.280  11.105
23991W        W96306  37.521  26.762   0.431
23992W        W96307  14.786  38.017   3.643
23993W        W96308  16.261  24.575  12.131
23994W        W96309  44.814  16.267   4.879
23995W        W96310   4.321  18.120   3.647
23996W        W96311  40.061  36.165   4.172
23997W        W96312  33.918  36.104  10.761
23998W        W96313  39.562  11.902  13.971
23999W        W96314  42.797  10.843   0.288
24000W        W96315  27.306  40.568   3.691
24001W        W96316  14.189  15.582  13.355
24002W        W96317  14.562   3.130   4.638
24003W        W96318  27.552  28.471   3.156
24004W        W96319  29.132   5.759   3.860
24005W        W96320   6.253  22.932  14.394
24006W        W96321  35.910  27.422  12.003
24007W        W96322  28.148  32.666   3.150
24008W        W96323  39.838  22.462   1.781
24009W        W96324  31.803   9.606   3.964
24010W        W96325  40.838   3.945   3.291
24011W        W96326   0.295  42.936   4.662
24012W        W96327   4.127  44.040   1.765
24013W        W96328  22.458  12.817   3.896
24014W        W96329  40.059  21.642  11.992
24015W        W96330   5.482   1.851   2.355
24016W        W96331  25.566  39.677  14.751
24017W        W96332  12.627  24.282   2.247
24018W        W96333   7.203  13.436  11.601
24019W        W96334  25.114  23.110   3.841
24020W        W96335  14.119   1.157   0.703
24021W        W96336  14.651  23.730  14.082
24022W        W96337  30.480  31.421   0.405
24023W        W96338  34.639  10.942  14.497
24024W        W96339  31.626  14.638   1.002
24025W        W96340  14.796  33.980   3.675
24026W        W96341  16.831  35.572  10.679
24027W        W96342  25.050  23.683   2.367
24028W        W96343  37.416  39.090  12.041
24029W        W96344   5.854  21.350   0.005
24030W        W96345  24.596  41.380   1.300
24031W        W96346  43.318  28.150  10.767
24032W        W96347  19.683  30.204   0.961
24033W        W96348  28.358  34.145   4.542
24034W        W96349  15.979  17.258  14.045
24035W        W96350   0.370  22.242   4.652
24036W        W96351  38.540  40.383  11.662
24037W        W96352   0.009  25.870  13.279
24038W        W96353   1.887   6.278  12.282
24039W        W96354  38.124  21.514   3.243
24040W        W96355   6.861  10.549  10.963
24041W        W96356  15.629  15.755   2.248
24042W        W96357   1.023  31.323  13.007
24043W        W96358  15.077   0.282   0.428
24044W        W96359  39.380  43.101   1.223
24045W        W96360  16.321  40.957   2.376
24046W        W96361  22.220  11.574  12.468
24047W        W96362   5.894  12.728  12.428
24048W        W96363  16.613  11.354  12.143
24049W        W96364  21.982   5.158   2.857
24050W        W96365  25.256  44.995  14.865
24051W        W96366   8.950  41.811  12.093
24052W        W96367  40.609   1.386  13.278
24053W        W96368  30.637  36.031   0.840
24054W        W96369  34.018  42.813  10.160
24055W        W96370  22.507   8.776  14.941
24056W        W96371   0.675  32.657   1.608
24057W        W96372  23.010  17.760   1.720
24058W        W96373   9.280   2.540   4.141
24059W        W96374   0.845  17.675  10.522
24060W        W96375  30.992  37.236   2.241
24061W        W96376  18.924   1.531   0.832
24062W        W96377   3.907   7.755   3.154
24063W        W96378   5.963  23.194   1.223
24064W        W96379  12.244   3.262  13.896
24065W        W96380  17.639  13.734   0.959
24066W        W96381  38.418  23.956   4.099
24067W        W96382  32.020  25.023   4.578
24068W        W96383   9.582  25.462  12.902
24069W        W96384  29.510  15.240  12.965
24070W        W96385   1.471  40.421  12.970
24071W        W96386  39.350  42.889   3.605
24072W        W96387  13.426  27.143   3.566
24073W        W96388  31.597   6.635   4.959
24074W        W96389  10.860  44.950  11.024
24075W        W96390  30.937  35.629   3.772
24076W        W96391   1.469  29.363  14.350
24077W        W96392  10.411   0.904  14.763
24078W        W96393   1.700  35.396   0.811
24079W        W96394   9.888  12.763  12.899
24080W        W96395  17.497   0.646  11.294
24081W        W96396  33.020  22.768   2.168
24082W        W96397  12.044  14.259  14.392
24083W        W96398  31.488  10.170  14.241
24084W        W96399  28.627  34.809  11.597
24085W        W96400  38.262  34.792   2.121
24086W        W96401  30.545  28.938  14.859
24087W        W96402   0.283  37.967  13.870
24088W        W96403  18.210  41.316   2.777
24089W        W96404  16.412   0.841  14.470
24090W        W96405  18.304   0.340   3.814
24091W        W96406  27.714  33.737  12.204
24092W        W96407  13.731  41.001   2.809
24093W        W96408  12.517  39.350   1.957
24094W        W96409   5.735  13.053  11.129
24095W        W96410  43.890  14.653  14.015
24096W        W96411  39.638  15.326  13.654
24097W        W96412  10.976  30.860   2.870
24098W        W96413  32.605  13.284  12.917
24099W        W96414   0.710  13.706   4.659
24100W        W96415   1.010  36.429  13.032
24101W        W96416   2.346  41.337  10.751
24102W        W96417  16.051  22.664   2.843
24103W        W96418  40.442  18.014  11.556
24104W        W96419  30.342  39.574  11.667
24105W        W96420  27.938  17.195  14.598
24106W        W96421  34.470  29.399  12.948
24107W        W96422  38.927  42.568   3.758
24108W        W96423  18.162  21.498   1.231
24109W        W96424  38.947   2.347   3.741
24110W        W96425  39.732  27.968   4.034
24111W        W96426  17.851  42.024   1.324
24112W        W96427  44.985  30.700  13.091
24113W        W96428  25.486  18.526   3.968
24114W        W96429  18.051   8.823   4.554
24115W        W96430  14.799  33.949   1.833
24116W        W96431  12.580  14.065   4.657
24117W        W96432  26.556  23.919  14.678
24118W        W96433  44.281  38.354   2.459
24119W        W96434  19.077  19.104   2.158
24120W        W96435   3.687  36.543  14.311
24121W        W96436   1.789  10.134   1.219
24122W        W96437   6.740  43.887  13.422
24123W        W96438   3.635  26.108   4.533
24124W        W96439  20.273   7.270   4.122
24125W        W96440  42.938   6.930  14.346
24126W        W96441  17.623  32.178  14.077
24127W        W96442  33.504  37.356   0.526
24128W        W96443   6.361  24.180  12.124
24129W        W96444  22.515  22.110  10.488
24130W        W96445  12.954   9.844   0.271
24131W        W96446  18.339  41.986  12.006
24132W        W96447  24.699   7.382  12.023
24133W        W96448  32.358  37.416  12.946
24134W        W96449  34.808  36.115   3.695
24135W        W96450  20.660   1.798  14.903
24136W        W96451   4.798  15.254  13.352
24137W        W96452  32.985  25.141   1.936
24138W        W96453   4.796  14.383  12.442
24139W        W96454  18.767  14.296  14.868
24140W        W96455  17.508   8.761  13.318
24141W        W96456  40.698  40.378  11.002
24142W        W96457  44.407   3.791  14.501
24143W        W96458  27.913  37.489   1.091
24144W        W96459  25.731  12.336  14.928
24145W        W96460   9.819  42.339   4.322
24146W        W96461  26.612  43.091   1.419
24147W        W96462  27.118  24.739   1.941
24148W        W96463  15.057  12.131   0.270
24149W        W96464   6.691  31.854   0.979
24150W        W96465   8.939  13.358   5.079
24151W        W96466   9.605  24.593  11.468
24152W        W96467  13.055  38.017   0.266
24153W        W96468  35.687  37.950   3.791
24154W        W96469  19.542   2.156  12.921
24155W        W96470  24.515   8.824   1.902
24156W        W96471  30.879  44.339   3.637
24157W        W96472  20.532  38.402  10.682
24158W        W96473  43.616   1.272  14.413
24159W        W96474   5.657  28.558   3.459
24160W        W96475  32.356   7.257   3.658
24161W        W96476   8.403   2.844  12.218
24162W        W96477   8.103  27.641  14.055
24163W        W96478  22.593  27.531  12.353
24164W        W96479  10.935  30.121  14.044
24165W        W96480  24.281  41.813  13.001
24166W        W96481  19.622  27.407  12.054
24167W        W96482   9.897  25.620  14.916
24168W        W96483   4.315   8.276   0.654
24169W        W96484   2.690   1.259   2.232
24170W        W96485  38.155  32.084  11.039
24171W        W96486   4.241  40.558   2.892
24172W        W96487   6.470  31.948  13.323
24173W        W96488  34.318  20.822   0.484
24174W        W96489  44.015   5.698  13.530
24175W        W96490  33.844  15.198  10.775
24176W        W96491  44.421  40.129   9.946
24177W        W96492   3.919  18.327  14.351
24178W        W96493  31.884  29.569   2.864
24179W        W96494  38.730  38.422  13.010
24180W        W96495   4.832  30.005  12.871
24181W        W96496   1.717  39.471   3.344
24182W        W96497  19.218  41.511  11.103
24183W        W96498  42.518  14.565   4.082
24184W        W96499  44.928  14.721  14.636
24185W        W96500  12.268   4.634  12.879
24186W        W96501  41.798  13.082   3.692
24187W        W96502  37.825   7.920  12.237
24188W        W96503  37.401  39.400   3.163
24189W        W96504  19.440  20.079  11.482
24190W        W96505   5.423  39.842   2.510
24191W        W96506  28.067   9.174   4.380
24192W        W96507   1.454  18.082  11.164
24193W        W96508   0.630  21.322  12.496
24194W        W96509   7.218  10.665  14.842
24195W        W96510  14.388  40.443  13.313
24196W        W96511   7.344  15.396   4.900
24197W        W96512  17.586  42.448  11.163
24198W        W96513  10.177   2.379   1.735
24199W        W96514  44.430  36.606  12.022
24200W        W96515  41.794  15.048   2.165
24201W        W96516  33.436  10.725   0.697
24202W        W96517  12.674  17.059  13.307
24203W        W96518  43.948   9.336  11.458
24204W        W96519  26.256  38.349   2.710
24205W        W96520  29.651  39.525   1.311
24206W        W96521   4.559  29.281  13.497
24207W        W96522   9.144  31.057  10.764
24208W        W96523  20.004  21.643  14.983
24209W        W96524  13.132  15.825   3.103
24210W        W96525  32.583   8.048  13.468
24211W        W96526  13.096  23.240  10.801
24212W        W96527  21.017  10.704   1.855
24213W        W96528  26.225  36.599  13.008
24214W        W96529  24.286   8.267  13.744
24215W        W96530  41.268  40.813   2.209
24216W        W96531  10.184  38.386   3.655
24217W        W96532  10.372  28.975  14.453
24218W        W96533  28.078  40.436  14.912
24219W        W96534  23.319   1.871  12.488
24220W        W96535  15.010  43.850  13.233
24221W        W96536  33.267   6.815   4.509
24222W        W96537   0.139  20.259   0.175
24223W        W96538  17.744  32.049  13.074
24224W        W96539  42.700  26.026  13.479
24225W        W96540  12.213  19.606  14.517
24226W        W96541  41.487  33.133   3.612
24227W        W96542   2.246  12.619  12.397
24228W        W96543  13.811  28.649   4.272
24229W        W96544   4.534   4.169  12.029
24230W        W96545   5.786  39.496  11.054
24231W        W96546   1.477   8.995   5.020
24232W        W96547  36.887  38.080   2.175
24233W        W96548   2.352  11.067  11.598
24234W        W96549   7.468  30.008   3.811
24235W        W96550  32.074  20.194   3.288
24236W        W96551  34.069  16.146  10.407
24237W        W96552  17.845  39.291   0.723
24238W        W96553  22.535  43.509   0.000
24239W        W96554   8.308   7.386  13.288
24240W        W96555  30.599   7.110  12.590
24241W        W96556  37.778  31.919   4.552
24242W        W96557  37.077  23.152  12.484
24243W        W96558  37.904  23.572   3.214
24244W        W96559  37.379   7.174  12.067
24245W        W96560  28.915  15.617  12.517
24246W        W96561  29.465   2.236   1.404
24247W        W96562   0.802  25.417   3.628
24248W        W96563  27.968  29.656  11.337
24249W        W96564  25.925  24.993   3.159
24250W        W96565  23.473  18.825   0.483
24251W        W96566  25.701  18.227  13.448
24252W        W96567   2.990  17.549  11.979
24253W        W96568  44.213  35.872   4.495
24254W        W96569  29.855   1.446   1.812
24255W        W96570  33.615  17.252  11.204
24256W        W96571  34.965  18.240   1.355
24257W        W96572  37.897  39.928   1.520
24258W        W96573  17.203  26.426  12.861
24259W        W96574  43.915  27.245   1.411
24260W        W96575   3.442  39.992  12.953
24261W        W96576   3.413  16.843  11.995
24262W        W96577  21.758  30.020   3.120
24263W        W96578  26.640  14.658  11.421
24264W        W96579  37.148  29.521  14.352
24265W        W96580  24.471   8.237   4.070
24266W        W96581  44.823  26.545  11.111
24267W        W96582   5.291  39.679  11.483
24268W        W96583   2.914  40.011  14.945
24269W        W96584  26.125  10.452   1.234
24270W        W96585  39.807   3.573  12.570
24271W        W96586  40.453  38.385   3.095
24272W        W96587  42.026   0.998   3.702
24273W        W96588  31.537  31.108  12.397
24274W        W96589  10.397   7.625   0.752
24275W        W96590   7.227   1.113   4.327
24276W        W96591  39.796  19.349   4.115
24277W        W96592  25.858  33.535  11.322
24278W        W96593  41.079  27.663  11.218
24279W        W96594   3.706  37.970   4.062
24280W        W96595   1.719  25.302  14.864
24281W        W96596  22.731   9.090  13.420
24282W        W96597   5.326  27.478   0.438
24283W        W96598   4.500   3.361  14.952
24284W        W96599   0.500  34.461  12.504
24285W        W96600   2.177   5.327  11.459
24286W        W96601  13.283   3.143  11.138
24287W        W96602   2.916  10.481  14.738
24288W        W96603   1.063  32.558   1.241
24289W        W96604   8.462  23.179  12.952
24290W        W96605  22.156  12.654  11.776
24291W        W96606  34.056  42.985  14.841
24292W        W96607  23.519  29.608  11.191
24293W        W96608  11.728  20.062  10.928
24294W        W96609   0.399   1.401   2.767
24295W        W96610  26.886  26.478   4.536
24296W        W96611  43.542   5.367  14.747
24297W        W96612  36.491  37.527  10.239
24298W        W96613  23.620  15.119  10.677
24299W        W96614  26.860  19.216  13.943
24300W        W96615  16.852   0.915   1.306
24301W        W96616   7.469  38.861  14.465
24302W        W96617  39.884  33.486  10.744
24303W        W96618  14.880  23.231   1.301
24304W        W96619  16.009  38.474   3.584
24305W        W96620  18.239  12.656  14.076
24306W        W96621  25.815  35.385  14.929
24307W        W96622  25.003  21.206  13.574
24308W        W96623  15.273  16.164   1.836
24309W        W96624  44.269  26.666   0.904
24310W        W96625  33.986  29.984   4.149
24311W        W96626  22.237   3.144  13.144
24312W        W96627  16.314  20.687  12.386
24313W        W96628  29.874  26.911   0.941
24314W        W96629   5.495  34.222  11.166
24315W        W96630  34.655  16.487   0.339
24316W        W96631  43.746   1.336   2.409
24317W        W96632  33.744   5.632  13.929
24318W        W96633  32.647  20.100  12.748
24319W        W96634  27.532  24.025   4.582
24320W        W96635  35.815  18.554  12.373
24321W        W96636  40.471  31.408  11.400
24322W        W96637   1.101   0.471  10.343
24323W        W96638   2.720  13.379  13.969
24324W        W96639  17.939   4.529  14.704
24325W        W96640  20.177  11.055   0.877
24326W        W96641  10.957   0.709   1.750
24327W        W96642  19.686   6.501  14.099
24328W        W96643  14.803  21.026  13.762
24329W        W96644  37.327  24.915  11.533
24330W        W96645  12.362  29.425   2.784
24331W        W96646  20.942  10.076   4.687
24332W        W96647  41.769  12.570   5.037
24333W        W96648  42.322  38.489   3.210
24334W        W96649  26.004   6.614   5.091
24335W        W96650   7.723  35.380   2.121
24336W        W96651  35.430  42.588   1.241
24337W        W96652  25.446  36.149  11.137
24338W        W96653  27.904  34.600   3.099
24339W        W96654   3.370   9.117  11.023
24340W        W96655  42.042  44.945  11.143
24341W        W96656  43.308   0.156   4.809
24342W        W96657  36.713   9.198  11.314
24343W        W96658   8.092  41.620   5.015
24344W        W96659   7.447  39.517   2.465
24345W        W96660   6.717   5.330   1.906
24346W        W96661  39.058  19.273  12.675
24347W        W96662  37.583  14.155  12.178
24348W        W96663  23.928  15.127  12.523
24349W        W96664  12.324  27.164  11.126
24350W        W96665  24.598  32.160  12.354
24351W        W96666   2.910  37.478   5.118
24352W        W96667   7.922  27.173  12.959
24353W        W96668  11.060  39.956  12.421
24354W        W96669   8.946   3.232   1.762
24355W        W96670  11.603  18.935   1.218
24356W        W96671  37.008   7.493  10.754
24357W        W96672  39.871  27.014   4.360
24358W        W96673   1.932   6.279   3.712
24359W        W96674  12.058  28.097   0.167
24360W        W96675  30.841  27.058   0.924
24361W        W96676  15.741  42.138  12.857
24362W        W96677  40.612  27.603   4.800
24363W        W96678  16.141  13.162  14.561
24364W        W96679   7.411  31.585   1.671
24365W        W96680  26.212  33.718   9.877
24366W        W96681  40.964  42.003   4.092
24367W        W96682  30.267  15.538  13.992
24368W        W96683  29.425  38.499   2.247
24369W        W96684  38.375  25.527   4.686
24370W        W96685  14.708  37.098   4.148
24371W        W96686   5.120  27.625   5.011
24372W        W96687   0.837  38.248  12.826
24373W        W96688  41.043  14.897   2.470
24374W        W96689   8.716  15.030   4.160
24375W        W96690  44.854  14.279  12.411
24376W        W96691  40.330   2.956   3.678
24377W        W96692  17.217  11.645   2.270
24378W        W96693  18.792  19.016   3.186
24379W        W96694  14.071  36.988  13.481
24380W        W96695  18.234  41.953   1.913
24381W        W96696  21.359  23.562   2.352
24382W        W96697  37.873  13.908   3.291
24383W        W96698  11.742  29.067  11.164
24384W        W96699   9.689  14.115  12.519
24385W        W96700   6.799  40.393  12.554
24386W        W96701  23.246   1.632   1.885
24387W        W96702  10.324  22.053  12.981
24388W        W96703  12.854  31.797   0.333
24389W        W96704   5.928   4.155  13.803
24390W        W96705  14.539  32.717   0.676
24391W        W96706   6.051  43.322  11.623
24392W        W96707   6.865  28.686  14.802
24393W        W96708   4.765  40.289  10.288
24394W        W96709  23.287  11.916   4.269
24395W        W96710  40.646  22.087  14.744
24396W        W96711  19.375   0.290  13.830
24397W        W96712  22.991  44.806   3.603
24398W        W96713  32.594   9.228  14.062
24399W        W96714  13.667  23.492  11.611
24400W        W96715   7.341  14.129  12.912
24401W        W96716  20.762   1.273  11.609
24402W        W96717  22.447  26.640  11.907
24403W        W96718  33.406  36.667   5.000
24404W        W96719   8.109  19.532   4.117
24405W        W96720  34.046  25.013  10.445
24406W        W96721   3.676   4.944  13.472
24407W        W96722  28.887   2.015   0.851
24408W        W96723  16.168  16.641  11.109
24409W        W96724  29.060  24.760  14.373
24410W        W96725   8.087  22.675   1.910
24411W        W96726  43.382  13.751  14.267
24412W        W96727  36.235  13.918   5.153
24413W        W96728  11.153   6.387   2.105
24414W        W96729  26.062   2.800  13.583
24415W        W96730   5.963  29.482   3.309
24416W        W96731  31.421  20.662  14.787
24417W        W96732  21.079  12.236  11.152
24418W        W96733  13.786  41.730  11.084
24419W        W96734  13.949  29.177  10.876
24420W        W96735  43.506  11.770   1.384
24421W        W96736   2.882  38.289  11.871
24422W        W96737  38.090  11.751   3.649
24423W        W96738  24.597  21.270  10.086
24424W        W96739   0.215  43.738  13.479
24425W        W96740   5.975  42.531   0.308
24426W        W96741  15.641  33.102  13.734
24427W        W96742  43.376   0.812   4.163
24428W        W96743  16.707  31.876   5.902
24429W        W96744  34.286  14.738  13.259
24430W        W96745  34.079  26.743   3.614
24431W        W96746  26.525  37.192  11.774
24432W        W96747  18.744  10.385  10.084
24433W        W96748  27.348   3.719  10.637
24434W        W96749   8.861  13.848   4.945
24435W        W96750  23.220  18.002   2.631
24436W        W96751  23.587  39.412  12.841
24437W        W96752  23.819  17.577   0.007
24438W        W96753  18.695   2.378  12.578
24439W        W96754  37.599  43.998   1.633
24440W        W96755  32.863   8.077  14.679
24441W        W96756  42.353  31.694   4.749
24442W        W96757  15.329  13.047   1.906
24443W        W96758  18.169   3.011  12.866
24444W        W96759   5.317   8.133   0.870
24445W        W96760  28.507   1.511   3.050
24446W        W96761  22.049  15.856  12.077
24447W        W96762   4.447  31.894  13.003
24448W        W96763  25.692  27.113  13.460
24449W        W96764   0.351  20.894  11.240
24450W        W96765  44.337   3.395  13.213
24451W        W96766  28.645  22.821  12.031
24452W        W96767  38.055  41.362   0.892
24453W        W96768  14.347  36.790  11.526
24454W        W96769   3.169  42.549   3.596
24455W        W96770   2.418   8.848   0.196
24456W        W96771  37.867  24.533   4.746
24457W        W96772   4.314  44.552   3.630
24458W        W96773  39.451   0.418  12.331
24459W        W96774  34.897  31.612  13.729
24460W        W96775  27.656  21.581   2.193
24461W        W96776  33.091   5.441  12.903
24462W        W96777  16.712  36.998  12.488
24463W        W96778   8.751  37.526  12.850
24464W        W96779   8.691   8.206   0.293
24465W        W96780   2.151  24.295   3.881
24466W        W96781   9.600  29.919   0.257
24467W        W96782  26.525  30.868   3.632
24468W        W96783  35.215  12.760   5.112
24469W        W96784  19.499  14.457   0.476
24470W        W96785   2.699  20.108  13.545
24471W        W96786  23.749  32.634   2.775
24472W        W96787   2.234  10.171   5.420
24473W        W96788   3.885  12.743   2.650
24474W        W96789  27.131  24.600   0.539
24475W        W96790  42.396  14.825  14.015
24476W        W96791  19.775   9.304   0.217
24477W        W96792   2.365  30.982  13.006
24478W        W96793  40.027  43.079  11.622
24479W        W96794  18.276  32.415   3.880
24480W        W96795  24.626  20.774  11.932
24481W        W96796  26.716  43.456  11.584
24482W        W96797   8.476   6.731   0.450
24483W        W96798  31.107  30.160  14.553
24484W        W96799  27.661  25.813  14.853
24485W        W96800  42.554  34.543  13.477
24486W        W96801  11.620  15.743  13.369
24487W        W96802  26.685   8.786   0.025
24488W        W96803  22.732  39.768  11.539
24489W        W96804  21.479   4.913   4.615
24490W        W96805  13.987   0.000  11.426
24491W        W96806  10.338  27.883   0.484
24492W        W96807  33.514  22.722  10.761
24493W        W96808  41.294  29.121  13.013
24494W        W96809  44.323  42.947  11.698
24495W        W96810  21.525  24.494  10.975
24496W        W96811   6.757  24.736  11.457
24497W        W96812   1.567  27.190   2.290
24498W        W96813   2.975  42.257  14.511
24499W        W96814  42.491  17.234  10.612
24500W        W96815  35.813  32.733  12.583
24501W        W96816   0.085  11.828   2.279
24502W        W96817  15.338  20.992  14.899
24503W        W96818  31.455  40.874   3.753
24504W        W96819  15.793   8.269  12.108
24505W        W96820  10.946   1.498  10.974
24506W        W96821  36.830  22.074   0.910
24507W        W96822  38.832  22.148  10.862
24508W        W96823  43.071  27.125   2.364
24509W        W96824  13.187  32.011   3.599
24510W        W96825  36.599   4.885  13.552
24511W        W96826   1.201  33.423   0.335
24512W        W96827  13.185  41.907  14.806
24513W        W96828  10.705  30.929   4.697
24514W        W96829  15.803   5.020   1.288
24515W        W96830   2.745  41.810   4.629
24516W        W96831  20.730  10.860  12.622
24517W        W96832  20.353   2.510   1.850
24518W        W96833  26.281  27.125  14.897
24519W        W96834  23.543  28.003  11.854
24520W        W96835   7.153  15.716  12.440
24521W        W96836   1.174   7.242   0.809
24522W        W96837  10.244  33.851  11.122
24523W        W96838  44.224  44.997  13.395
24524W        W96839   8.660  17.568  12.035
24525W        W96840  26.160   7.139  11.905
24526W        W96841  44.346  31.082   0.352
24527W        W96842  27.876  43.769  11.527
24528W        W96843   1.690  29.464   4.231
24529W        W96844   9.414  28.151   4.237
24530W        W96845  17.752  29.154  14.846
24531W        W96846  36.089  16.100  12.794
24532W        W96847  28.976  34.969  13.883
24533W        W96848   8.427   4.206  12.088
24534W        W96849  10.482  19.821  11.480
24535W        W96850  12.108  16.721   4.610
24536W        W96851  18.167   5.496   0.986
24537W        W96852  17.666  11.870   2.731
24538W        W96853  10.254   7.603   2.389
24539W        W96854   1.598   4.409   1.143
24540W        W96855  35.322  13.742   3.760
24541W        W96856  30.761  14.444  14.282
24542W        W96857  20.210  27.902  12.513
24543W        W96858   5.151  11.595   3.165
24544W        W96859  20.682  18.182  11.161
24545W        W96860  10.153  42.497   2.110
24546W        W96861  34.375  19.167  10.737
24547W        W96862  33.862  24.043  13.339
24548W        W96863   6.774  21.203   0.435
24549W        W96864  25.287  33.079  10.678
24550W        W96865  12.732  19.250  12.069
24551W        W96866   3.704  37.894  11.854
24552W        W96867   5.959  11.971   3.261
24553W        W96868   9.614  30.690  12.644
24554W        W96869  43.476  24.424   4.138
24555W        W96870   5.638  30.909   2.317
24556W        W96871  39.328  27.414  13.533
24557W        W96872   7.406  23.608   3.321
24558W        W96873  24.069  19.739  10.651
24559W        W96874   6.161   3.951   2.848
24560W        W96875  41.896  29.449   2.417
24561W        W96876  26.200  24.581  13.089
24562W        W96877  12.096  16.397   4.206
24563W        W96878  33.683  19.582  13.023
24564W        W96879  36.079  36.992   1.015
24565W        W96880  12.381  17.603  12.486
24566W        W96881  12.402  39.747  12.779
24567W        W96882  36.496  38.298  13.894
24568W        W96883  22.036  24.607   4.227
24569W        W96884  34.162  23.734   2.774
24570W        W96885  10.223  35.362  13.249
24571W        W96886  15.321  39.793  12.042
24572W        W96887   4.308  32.080  10.416
24573W        W96888  11.450  35.414   3.768
24574W        W96889   5.161   0.030  13.849
24575W        W96890   0.690  31.086  12.685
24576W        W96891  40.433  23.398  13.511
24577W        W96892  32.558  34.521   1.913
24578W        W96893  41.337  27.662  11.656
24579W        W96894  44.375  14.640  11.238
24580W        W96895  29.110  15.275  13.381
24581W        W96896   3.648  37.191  11.136
24582W        W96897  36.130  14.803  11.172
24583W        W96898  12.526  39.872   0.475
24584W        W96899  38.241   0.211   1.479
24585W        W96900  17.687   1.643  14.718
24586W        W96901  18.132  18.230   1.707
24587W        W96902  39.316  37.091  11.577
24588W        W96903  10.633  15.061   1.011
24589W        W96904  14.325  28.753   5.191
24590W        W96905  13.208  20.513   0.324
24591W        W96906  25.133  33.567  10.545
24592W        W96907  33.055   2.311  11.677
24593W        W96908  20.679  42.805   4.758
24594W        W96909  34.047   9.346  12.493
24595W        W96910  21.194   5.759   4.473
24596W        W96911  36.613  23.501  12.454
24597W        W96912  43.808  37.073   1.901
24598W        W96913  16.105  15.561   1.686
24599W        W96914  21.993  29.502  12.917
24600W        W96915   6.210  35.496   3.893
24601W        W96916  13.704  26.272   0.435
24602W        W96917  13.170  11.733   3.775
24603W        W96918  44.951  22.528  11.532
24604W        W96919  12.804  12.071  12.039
24605W        W96920  43.265  17.372   0.225
24606W        W96921  31.784   7.350  14.346
24607W        W96922   2.233  41.197  14.016
24608W        W96923  41.341  26.272   2.759
24609W        W96924  23.452  25.608  12.066
24610W        W96925  36.817   1.008  12.920
24611W        W96926  26.999  23.737  14.286
24612W        W96927  27.192  42.933   1.379
24613W        W96928  37.556  31.928  12.085
24614W        W96929  27.251  32.496   0.988
24615W        W96930  10.272   3.744   5.089
24616W        W96931  30.988  25.208   1.203
24617W        W96932   9.151   5.231  12.931
24618W        W96933  27.425  37.953   0.837
24619W        W96934  24.682  25.526   0.436
24620W        W96935  27.999  36.419   2.193
24621W        W96936  22.140   2.258   4.535
24622W        W96937  10.444  19.880   3.849
24623W        W96938  32.556  29.581  13.699
24624W        W96939   1.863  35.113  14.296
24625W        W96940   0.517  35.964   4.483
24626W        W96941  26.398  23.224   1.788
24627W        W96942  21.646  38.877   2.282
24628W        W96943  21.738  16.242  11.933
24629W        W96944  41.887  30.586  13.916
24630W        W96945  43.882  41.444  13.894
24631W        W96946  30.398  40.356  13.847
24632W        W96947  17.361   3.234  11.650
24633W        W96948  33.353  43.966   0.830
24634W        W96949  19.562  30.706   0.847
24635W        W96950  35.382   2.678  11.153
24636W        W96951   2.765   1.691  13.479
24637W        W96952  36.599  37.441   1.744
24638W        W96953  20.925  14.180   1.921
24639W        W96954  36.536  26.931   3.173
24640W        W96955   8.261  19.551   1.272
24641W        W96956  17.748  19.700  10.911
24642W        W96957  25.459  37.193   4.046
24643W        W96958  42.747   0.456   0.423
24644W        W96959  18.299  10.457   4.534
24645W        W96960   9.951  26.508   0.431
24646W        W96961  32.038   7.410  10.472
24647W        W96962  24.677   7.973  10.667
24648W        W96963  30.834  18.899   4.138
24649W        W96964  39.853  21.202  13.562
24650W        W96965  17.185   0.931  13.071
24651W        W96966  13.233   2.960   0.271
24652W        W96967  15.507  22.994   1.907
24653W        W96968  43.548  36.052   2.918
24654W        W96969  32.438   0.687   1.081
24655W        W96970  16.124  16.103   1.596
24656W        W96971  14.609  22.723  10.766
24657W        W96972  24.505   7.432   1.754
24658W        W96973  17.708   5.796   0.463
24659W        W96974  17.618  26.184  12.578
24660W        W96975  27.673  23.471  13.517
24661W        W96976  23.159   4.012   4.461
24662W        W96977   1.938  18.077  10.993
24663W        W96978  39.562  41.764  13.615
24664W        W96979  40.455  18.526   1.946
24665W        W96980  39.364  32.378  13.893
24666W        W96981  33.944  41.624   1.491
24667W        W96982  35.409  21.260   3.059
24668W        W96983  34.598  16.604   4.578
24669W        W96984   7.972  24.188   4.697
24670W        W96985  19.467  36.492   2.122
24671W        W96986  36.104  33.125   1.257
24672W        W96987  30.949   8.985   4.689
24673W        W96988   7.736  38.828   0.945
24674W        W96989  23.769  38.683  14.269
24675W        W96990  15.967  24.252   3.213
24676W        W96991   1.760  40.763  14.384
24677W        W96992  37.344   9.126   3.229
24678W        W96993   0.274  29.048  13.982
24679W        W96994  15.632   5.381  11.471
24680W        W96995  43.738  20.723  13.959
24681W        W96996   4.236  36.361  12.978
24682W        W96997   3.125  21.718   0.523
24683W        W96998  13.613   6.185  14.962
24684W        W96999   0.370  30.121  12.949
24685W        W97000  23.717   1.697   0.500
24686W        W97001  15.196  41.478   4.643
24687W        W97002  43.879  43.181  10.926
24688W        W97003  38.563   0.194   3.094
24689W        W97004  35.656  40.569  14.782
24690W        W97005   4.193  24.661  14.996
24691W        W97006  44.221  12.841  11.501
24692W        W97007  27.808  30.069   2.891
24693W        W97008  41.113  13.748   0.770
24694W        W97009  28.838  20.617  13.562
24695W        W97010  37.373  16.483   4.122
24696W        W97011  30.419  32.576   3.416
24697W        W97012   0.796  18.253  12.501
24698W        W97013  13.747  44.014  12.390
24699W        W97014  32.979   7.854   2.399
24700W        W97015  17.112  40.928  11.602
24701W        W97016  36.889  22.986   4.594
24702W        W97017  41.439  22.134   3.391
24703W        W97018  29.957  15.158   4.685
24704W        W97019  30.631  34.420   2.282
24705W        W97020  36.891   4.971  14.478
24706W        W97021  12.276  15.882   3.206
24707W        W97022   4.611   3.999  13.529
24708W        W97023   2.864  28.514   0.850
24709W        W97024  37.770   8.684  12.163
24710W        W97025   9.194  10.374  14.037
24711W        W97026   3.721  29.032   3.143
24712W        W97027  16.375  29.828  13.762
24713W        W97028  15.732  17.494  11.126
24714W        W97029  18.054  29.819   3.743
24715W        W97030  22.780  18.611   2.229
24716W        W97031  29.479  14.782  14.604
24717W        W97032  43.305  11.170  11.698
24718W        W97033  25.525  23.625   1.466
24719W        W97034  18.792  40.374   0.439
24720W        W97035  16.524   1.250  10.651
24721W        W97036  10.772  39.458  11.763
24722W        W97037  34.481  27.580   2.746
24723W        W97038  43.508  13.178  13.818
24724W        W97039  21.674  14.099   2.325
24725W        W97040   9.222  25.973  10.706
24726W        W97041   9.723  34.533  11.519
24727W        W97042  26.449  29.498   1.426
24728W        W97043  21.112  12.116   4.621
24729W        W97044  28.033  32.496  12.833
24730W        W97045  17.925   7.234  13.108
24731W        W97046  16.290  17.585  10.684
24732W        W97047  28.066   1.359  12.578
24733W        W97048  23.760   6.733   2.543
24734W        W97049   1.257  12.410   4.993
24735W        W97050  31.099  21.635  11.425
24736W        W97051  31.221   7.756   4.182
24737W        W97052  20.763  30.550   2.744
24738W        W97053  22.860  38.295   4.134
24739W        W97054  23.790  24.168   2.209
24740W        W97055   6.428   9.611  14.433
24741W        W97056  42.155  43.929  11.500
24742W        W97057   7.402  20.048  12.071
24743W        W97058  25.919   2.391   0.839
24744W        W97059  12.130   5.827   4.492
24745W        W97060  13.315  25.498   2.980
24746W        W97061  29.211  25.219  14.554
24747W        W97062  21.270  36.026   0.022
24748W        W97063   7.584  30.609   0.304
24749W        W97064   6.208  19.307   4.731
24750W        W97065   0.022   0.034   2.732
24751W        W97066  38.382   2.561   3.749
24752W        W97067  17.433  37.382   4.012
24753W        W97068   6.736  34.767  11.503
24754W        W97069  10.183  11.833  13.502
24755W        W97070  10.977   7.419  13.096
24756W        W97071  16.569  12.247  11.755
24757W        W97072  19.910  17.733   0.184
24758W        W97073  17.634  24.767  12.899
24759W        W97074   2.253  43.896   3.462
24760W        W97075   8.654  21.279   2.890
24761W        W97076  26.605  33.611  13.074
24762W        W97077  26.190  40.754   1.355
24763W        W97078   0.076   8.352   3.682
24764W        W97079  40.245   3.708  12.066
24765W        W97080  29.508  30.434  14.945
24766W        W97081  15.285  40.539   1.481
24767W        W97082  32.699  34.942   2.749
24768W        W97083  35.074  13.321   2.860
24769W        W97084  23.682  18.562   3.777
24770W        W97085  21.617  41.113  13.885
24771W        W97086   9.962  24.730  11.068
24772W        W97087  32.134  42.055   4.965
24773W        W97088  38.837  38.898  12.832
24774W        W97089  11.584  42.844   5.087
24775W        W97090  29.682  15.449   0.788
24776W        W97091  24.685   2.490  11.028
24777W        W97092   8.991  19.441   0.782
24778W        W97093  23.559  26.094  10.675
24779W        W97094  26.498  44.814  12.064
24780W        W97095  26.847   1.910   4.059
24781W        W97096  18.878   2.510   4.077
24782W        W97097   5.902   6.786   1.177
24783W        W97098  11.720  36.713   3.921
24784W        W97099  41.575  40.394   2.339
24785W        W97100  22.828  42.058  13.943
24786W        W97101  24.559  36.673   4.037
24787W        W97102  28.885  38.961  10.664
24788W        W97103   5.785  44.829   1.211
24789W        W97104  22.077  32.724   3.197
24790W        W97105  34.161   4.445   2.327
24791W        W97106   9.626  44.437   3.173
24792W        W97107  33.291   8.585   4.058
24793W        W97108   3.896  44.625   9.923
24794W        W97109   3.257  38.825  11.573
24795W        W97110  36.567   5.066  11.002
24796W        W97111  37.607  12.095  10.685
24797W        W97112  36.489  30.937   3.494
24798W        W97113   9.663  29.496   3.444
24799W        W97114  38.392  14.842   0.687
24800W        W97115  36.463  20.499  13.615
24801W        W97116   2.779  16.820  12.478
24802W        W97117  11.568  29.455  12.595
24803W        W97118   7.883   8.454  10.620
24804W        W97119  36.233   6.496  12.360
24805W        W97120  24.682  29.875   1.827
24806W        W97121  25.401  20.078  14.192
24807W        W97122  17.095  28.251  12.610
24808W        W97123  28.496  38.036   3.197
24809W        W97124  26.025  17.625   3.339
24810W        W97125   2.262   9.293   1.043
24811W        W97126  13.995   8.660   9.985
24812W        W97127  27.403  32.103   1.830
24813W        W97128  22.796  36.588   0.263
24814W        W97129  18.585  40.001  14.238
24815W        W97130  34.249  18.294   0.289
24816W        W97131  28.141  33.359  11.923
24817W        W97132  41.330  18.216   4.155
24818W        W97133  34.172  39.409   2.803
24819W        W97134   6.976  39.387   3.268
24820W        W97135   3.563   0.263  10.487
24821W        W97136  43.006  38.809   5.130
24822W        W97137  21.423  22.725  14.410
24823W        W97138  25.785   8.207  12.508
24824W        W97139   4.194  11.191  10.597
24825W        W97140  12.859   1.737   2.160
24826W        W97141   0.956  23.010  12.884
24827W        W97142  16.793   5.919  11.061
24828W        W97143  43.888  34.973  14.369
24829W        W97144   0.182  44.765   1.444
24830W        W97145  19.551  25.568   0.367
24831W        W97146  39.087  21.678   1.705
24832W        W97147  43.246  25.216  13.390
24833W        W97148  23.473   4.193   2.382
24834W        W97149  15.286  24.422   0.733
24835W        W97150  43.203  36.938   4.099
24836W        W97151  18.014  23.664  13.852
24837W        W97152  37.918  43.757   3.936
24838W        W97153  37.377  15.163   3.771
24839W        W97154  32.409  17.580   0.238
24840W        W97155  29.070   5.652   0.722
24841W        W97156  22.626  37.349  10.072
24842W        W97157  44.372  40.181   2.729
24843W        W97158  17.986  30.613   4.153
24844W        W97159  33.674  14.388  11.084
24845W        W97160  21.312   8.959   4.234
24846W        W97161  32.988  32.964  10.887
24847W        W97162  34.120  18.610   4.821
24848W        W97163  17.259  22.726  14.659
24849W        W97164   1.717  32.221  14.801
24850W        W97165   2.430   8.903  13.474
24851W        W97166  10.838  29.909  10.687
24852W        W97167  21.725  15.223   0.267
24853W        W97168  43.779   4.294   2.193
24854W        W97169  28.060  23.420   3.972
24855W        W97170  30.661  35.003  14.651
24856W        W97171  34.889  40.318   5.049
24857W        W97172  35.434  25.433  14.014
24858W        W97173   4.756  18.705   0.442
24859W        W97174  22.738  18.149   0.364
24860W        W97175  37.606   8.738   0.203
24861W        W97176  26.204  43.559  11.603
24862W        W97177   2.661   2.938   1.711
24863W        W97178  20.558  28.542   0.443
24864W        W97179  32.571  18.369   3.617
24865W        W97180  12.030   0.286   0.206
24866W        W97181   6.817   4.497   3.203
24867W        W97182  20.876  35.656   5.031
24868W        W97183  21.801  24.997   1.030
24869W        W97184  19.964  26.487   3.794
24870W        W97185  13.710  15.108  14.671
24871W        W97186  37.670  20.296   1.313
24872W        W97187  27.406  18.606   2.159
24873W        W97188  23.680  11.458   0.852
24874W        W97189  37.148  40.766   0.854
24875W        W97190  44.180  37.519   1.950
24876W        W97191   5.690   4.550   1.696
24877W        W97192   7.781  36.637   3.886
24878W        W97193   2.383  25.488  14.151
24879W        W97194  26.790  31.603   3.751
24880W        W97195  44.251  44.847   3.145
24881W        W97196  13.870  25.306  13.390
24882W        W97197  34.970  42.289  10.601
24883W        W97198   7.854  35.670   3.688
24884W        W97199  43.040  19.640   3.352
24885W        W97200  12.357  16.791  11.003
24886W        W97201  26.608  24.534  13.389
24887W        W97202  30.523   5.752   3.228
24888W        W97203  26.439  32.632   4.338
24889W        W97204  29.579   7.871  11.154
24890W        W97205   5.918  11.725  11.564
24891W        W97206  25.568   9.311   0.414
24892W        W97207   0.699  26.973   2.586
24893W        W97208  44.551   6.136   3.275
24894W        W97209  22.049  32.438   4.042
24895W        W97210  44.751  26.885   0.833
24896W        W97211  28.535  23.264  12.255
24897W        W97212   5.955  39.655   3.264
24898W        W97213  11.160  15.214  10.594
24899W        W97214  14.116  11.485  12.476
24900W        W97215  41.418  42.091  11.098
24901W        W97216  30.195  42.052   3.010
24902W        W97217  17.213  17.100   2.704
24903W        W97218   0.691  25.933   4.618
24904W        W97219  40.381  30.027  13.397
24905W        W97220  32.227  33.619   3.326
24906W        W97221  28.399  13.774  11.476
24907W        W97222   2.912  28.452  14.283
24908W        W97223  44.467  35.215   2.537
24909W        W97224  13.356   4.204  13.807
24910W        W97225  30.619  41.046  11.106
24911W        W97226  31.877  37.032  12.769
24912W        W97227  31.652   7.935  12.495
24913W        W97228   6.141  28.674  11.909
24914W        W97229   9.268  34.765  11.424
24915W        W97230  23.966  41.013   2.410
24916W        W97231  15.601  20.335  10.701
24917W        W97232  14.895  38.969  14.395
24918W        W97233  16.992   8.880  12.433
24919W        W97234  19.002  35.874   2.645
24920W        W97235  12.658   7.224   1.766
24921W        W97236  39.934  32.005   0.234
24922W        W97237  14.559  28.551  10.380
24923W        W97238  12.740  43.257   1.423
24924W        W97239   0.908  16.194  12.736
24925W        W97240  19.597  38.758  13.086
24926W        W97241  32.457   8.827   4.084
24927W        W97242  30.721  32.142   2.773
24928W        W97243   3.875   3.597   9.678
24929W        W97244   1.896  31.331  11.150
24930W        W97245  15.883  17.261   5.089
24931W        W97246   5.424  24.474   3.784
24932W        W97247  43.128  27.453   3.625
24933W        W97248  41.938   4.424  13.462
24934W        W97249  25.623  20.632  10.495
24935W        W97250  38.694  25.480  14.566
24936W        W97251  19.747  25.068   0.271
24937W        W97252  25.911  11.653  12.981
24938W        W97253  44.458  27.456   3.302
24939W        W97254  19.209  35.456   1.501
24940W        W97255   8.802  35.934   2.293
24941W        W97256  44.309  15.372  12.962
24942W        W97257   3.765  25.472  14.442
24943W        W97258  17.750  32.872  12.502
24944W        W97259   7.006  30.181  14.734
24945W        W97260  36.870  30.112   3.190
24946W        W97261  11.254  32.019   2.005
24947W        W97262   2.274  44.072   1.925
24948W        W97263   8.443  33.104   4.266
24949W        W97264  25.155  41.934   0.885
24950W        W97265  17.020  22.557   2.624
24951W        W97266  20.264  28.224  11.259
24952W        W97267   9.677  12.297   2.781
24953W        W97268  35.322  38.302   0.471
24954W        W97269  43.396  12.197   3.799
24955W        W97270  15.845  18.704   3.197
24956W        W97271   1.400  18.971  12.378
24957W        W97272  34.746  27.211  11.562
24958W        W97273  33.591  43.829   1.312
24959W        W97274  38.609  37.237   1.957
24960W        W97275  17.698  36.612   1.321
24961W        W97276  27.125  25.070  12.899
24962W        W97277  12.174  41.794  13.501
24963W        W97278   0.313  34.857   9.917
24964W        W97279  43.524  43.643  11.099
24965W        W97280   7.863  27.610  14.915
24966W        W97281  26.462  11.579   4.249
24967W        W97282  36.321  35.968   0.130
24968W        W97283   6.972  16.871   3.678
24969W        W97284   9.956  18.341   4.091
24970W        W97285  19.625   7.017  12.796
24971W        W97286  30.579  38.227   4.183
24972W        W97287   4.887  26.013  11.912
24973W        W97288   1.725  11.028   3.654
24974W        W97289   0.236  32.535  13.892
24975W        W97290  17.332  21.015  13.747
24976W        W97291  21.634   5.850   4.149
24977W        W97292  27.899  12.279   2.450
24978W        W97293  11.173   7.798   4.409
24979W        W97294  22.151   1.820  11.548
24980W        W97295  13.520  38.555   2.372
24981W        W97296  39.613  43.287   1.708
24982W        W97297  34.120  11.720   1.429
24983W        W97298  33.469   5.157   1.995
24984W        W97299   0.321  25.706   0.681
24985W        W97300  31.485  24.003   2.437
24986W        W97301  20.625   4.912  13.446
24987W        W97302  17.697  33.871   2.170
24988W        W97303  35.305  14.717   0.815
24989W        W97304  21.083  40.927   2.773
24990W        W97305  14.027  28.180  10.469
24991W        W97306  29.004   4.932  11.569
24992W        W97307   4.589  27.509   2.245
24993W        W97308  12.335  44.972  10.670
24994W        W97309  10.070  40.335   0.894
24995W        W97310  27.335  34.137   4.580
24996W        W97311  29.538  20.240   4.339
24997W        W97312  27.645  11.169   0.767
24998W        W97313  24.827  12.365   3.572
24999W        W97314   7.073  13.110  11.212
25000W        W97315  40.052  24.110   4.300
25001W        W97316  39.961  27.144   3.867
25002W        W97317  36.973  10.044   4.593
25003W        W97318  28.424  22.873  13.612
25004W        W97319  23.018   2.957   3.105
25005W        W97320  34.523   2.002  14.063
25006W        W97321  35.873   9.624  11.048
25007W        W97322  19.186  30.817   3.187
25008W        W97323  33.425  18.855   4.111
25009W        W97324   9.158  32.416  12.205
25010W        W97325  19.087  23.807  12.861
25011W        W97326  29.864  41.917   1.208
25012W        W97327  12.613   8.109   3.884
25013W        W97328  43.829   0.887   4.860
25014W        W97329   1.230  31.521  10.637
25015W        W97330   3.722  12.797  14.226
25016W        W97331  23.983   0.300  13.042
25017W        W97332   8.012  36.871   0.193
25018W        W97333   3.368   5.441   4.068
25019W        W97334  25.162   1.260   5.139
25020W        W97335  28.185  18.974   1.904
25021W        W97336   9.140   3.380   3.879
25022W        W97337  25.273  19.205   1.811
25023W        W97338  24.665  13.536   1.899
25024W        W97339   6.423  39.072   2.563
25025W        W97340  40.315  22.075  13.403
25026W        W97341  33.030  39.257   4.565
25027W        W97342  13.325   1.304   4.209
25028W        W97343  44.807  33.696  11.220
25029W        W97344  28.561  20.065  12.754
25030W        W97345  17.757   8.677  10.294
25031W        W97346   0.512  37.095  13.529
25032W        W97347   2.916  26.630   2.729
25033W        W97348   6.425  22.997  10.754
25034W        W97349   3.063  44.197  13.993
25035W        W97350  23.974  25.621  11.953
25036W        W97351  27.571  29.079   4.544
25037W        W97352   5.980  32.418   3.140
25038W        W97353  12.775  32.341   3.743
25039W        W97354  23.791  22.603  14.489
25040W        W97355  17.600  40.346   2.614
25041W        W97356   1.186  12.261  12.568
25042W        W97357  34.488  33.857  11.105
25043W        W97358  15.589  38.485   4.687
25044W        W97359  27.168  33.725   5.352
25045W        W97360  22.119  15.892  12.583
25046W        W97361  33.460  13.546  11.070
25047W        W97362  16.918  23.286  12.375
25048W        W97363   1.790  35.672  10.750
25049W        W97364   0.965  29.468  11.962
25050W        W97365  32.663  26.613  14.192
25051W        W97366   5.927  43.845  10.492
25052W        W97367  18.395   9.412   1.430
25053W        W97368  43.127  31.509   3.203
25054W        W97369  37.917  31.509   3.114
25055W        W97370   9.349  15.370   2.384
25056W        W97371  32.617  33.139  13.909
25057W        W97372  42.826  17.148   0.371
25058W        W97373   9.240   0.801  13.176
25059W        W97374  18.247  37.455  13.972
25060W        W97375  16.319  44.300   3.170
25061W        W97376  44.448  20.469   0.751
25062W        W97377   4.243  27.484   2.643
25063W        W97378  40.402  17.551  12.884
25064W        W97379  18.052  30.066   3.259
25065W        W97380  23.638  12.190   4.531
25066W        W97381   6.516  29.883   3.402
25067W        W97382   3.323  18.777   3.333
25068W        W97383  24.139  27.383   2.243
25069W        W97384  36.433  40.422   3.335
25070W        W97385  41.082  33.107   2.723
25071W        W97386   0.849   3.519  10.735
25072W        W97387  24.520  32.082  13.913
25073W        W97388  32.017   8.863   4.600
25074W        W97389  43.279   5.847  13.929
25075W        W97390   2.967  10.369   4.206
25076W        W97391   5.638  40.470   1.872
25077W        W97392  28.211  13.332  11.181
25078W        W97393   7.895  18.542  12.595
25079W        W97394   8.165  37.459   0.919
25080W        W97395  28.701  20.662  11.562
25081W        W97396  22.739   8.675  11.649
25082W        W97397  20.759  32.051   4.193
25083W        W97398  15.105  40.821   4.084
25084W        W97399  41.921  18.941  11.963
25085W        W97400  33.388  16.203   3.149
25086W        W97401  43.785  13.459   0.919
25087W        W97402   6.345  42.972  12.516
25088W        W97403  19.250  30.700   2.082
25089W        W97404   5.713  14.295  13.549
25090W        W97405  43.148  19.133   3.315
25091W        W97406  36.797   4.292   0.003
25092W        W97407  13.047  43.780  10.850
25093W        W97408  12.701  32.955  10.567
25094W        W97409  15.825   8.329   4.366
25095W        W97410  44.514  38.413  12.207
25096W        W97411   9.164  25.730  13.105
25097W        W97412  14.343   1.730   2.663
25098W        W97413   6.597  40.936  13.791
25099W        W97414  27.603  23.960  11.626
25100W        W97415  41.498   0.244   0.923
25101W        W97416  40.015  37.418   4.402
25102W        W97417   5.866  40.173   0.381
25103W        W97418   9.818  36.577   3.630
25104W        W97419  12.717  41.078  13.887
25105W        W97420  25.635  43.924   3.834
25106W        W97421  40.870  38.771  10.880
25107W        W97422  31.735  19.510  11.963
25108W        W97423  27.155  18.219   3.794
25109W        W97424  16.369  40.328  14.417
25110W        W97425  37.097  12.740   4.513
25111W        W97426  29.919  29.662   4.628
25112W        W97427   1.311   0.996  12.008
25113W        W97428  43.113  24.192  13.395
25114W        W97429  44.585  42.286  11.126
25115W        W97430  25.629  37.621  12.118
25116W        W97431  27.567  31.638  12.185
25117W        W97432  25.140  24.753  11.956
25118W        W97433   5.039   6.020  12.583
25119W        W97434  42.632  12.882  13.135
25120W        W97435  40.509  31.682  13.338
25121W        W97436   1.037   7.084   1.273
25122W        W97437  38.537   5.394   1.304
25123W        W97438  40.115   8.594   3.629
25124W        W97439  13.693  21.724  11.489
25125W        W97440  29.170  42.372   2.428
25126W        W97441  33.425   7.327   0.579
25127W        W97442  36.454  26.721  13.137
25128W        W97443  19.776  25.030  12.970
25129W        W97444  34.616  37.933   4.660
25130W        W97445  18.163  32.607   2.911
25131W        W97446  21.946  22.592  14.449
25132W        W97447  16.458  12.248  11.228
25133W        W97448   4.285   3.343  11.934
25134W        W97449  27.522  17.710  13.321
25135W        W97450  24.944  18.679  12.950
25136W        W97451  21.772  33.541  12.899
25137W        W97452   4.879  23.280   4.749
25138W        W97453  22.690  32.552  12.006
25139W        W97454  10.699  12.076   1.310
25140W        W97455  37.358  25.204  12.910
25141W        W97456  42.768  12.627  12.040
25142W        W97457  33.136  13.262  12.925
25143W        W97458  35.790  39.828   3.106
25144W        W97459  30.527  29.989  10.679
25145W        W97460  33.966  21.781   0.477
25146W        W97461  18.787  39.323  14.486
25147W        W97462  11.078  42.912  10.449
25148W        W97463   8.431  41.550  11.900
25149W        W97464   6.315   7.396  12.598
25150W        W97465   8.587   9.469  13.347
25151W        W97466   0.005  37.023   0.471
25152W        W97467  20.480  23.621   3.236
25153W        W97468  32.614   2.407  14.802
25154W        W97469  11.510  40.819  12.749
25155W        W97470  19.442   6.699  14.539
25156W        W97471  32.985  32.099  13.457
25157W        W97472  18.243  42.274   4.569
25158W        W97473  28.643  30.732   0.492
25159W        W97474  17.334  10.203   1.463
25160W        W97475  41.643  29.930   1.166
25161W        W97476  40.265  35.117   4.795
25162W        W97477  39.569   4.118  12.426
25163W        W97478  44.254  14.262   3.222
25164W        W97479  13.848  15.179   3.314
25165W        W97480  20.819   2.316   1.689
25166W        W97481   9.929  41.523   1.736
25167W        W97482  27.599  31.778   9.867
25168W        W97483  35.970   8.268  10.681
25169W        W97484  11.150  17.046  10.450
25170W        W97485  14.942   7.127  12.285
25171W        W97486  29.349  18.570  13.432
25172W        W97487  44.748  39.013  14.245
25173W        W97488  37.975  20.604   4.332
25174W        W97489  28.548  23.930   4.577
25175W        W97490  31.830  27.485  11.687
25176W        W97491  20.771  40.922  11.474
25177W        W97492  13.037  31.246   5.064
25178W        W97493  35.103  23.294  14.917
25179W        W97494  10.694   6.851  11.279
25180W        W97495   4.719   7.628   2.253
25181W        W97496  29.102  14.809   4.158
25182W        W97497  43.865  42.413   1.437
25183W        W97498   1.061  42.878   4.170
25184W        W97499  11.509   5.402   0.005
25185W        W97500  14.322   4.771  12.383
25186W        W97501  43.478  16.095  12.523
25187W        W97502  40.706  10.903  10.986
25188W        W97503  25.493   4.276  11.260
25189W        W97504  13.610  41.777   1.900
25190W        W97505  12.363   5.443   3.201
25191W        W97506   4.500  14.274   4.072
25192W        W97507  10.794  32.639   3.793
25193W        W97508  28.758   3.475   0.499
25194W        W97509  27.071   4.625  13.357
25195W        W97510  30.038  39.817   3.276
25196W        W97511  26.532  34.626   0.645
25197W        W97512   6.660   7.415  10.847
25198W        W97513  26.550  44.376  11.734
25199W        W97514  10.355   3.730   3.731
25200W        W97515  33.418  17.096   1.370
25201W        W97516  36.041   3.016   4.193
25202W        W97517   0.564  29.661  12.908
25203W        W97518   5.210  19.937   3.864
25204W        W97519  41.115  18.998  13.829
25205W        W97520  17.548  41.349  14.004
25206W        W97521  39.491  36.909   1.804
25207W        W97522  28.933  32.992   1.764
25208W        W97523  27.958  34.548  13.196
25209W        W97524  15.287  38.898   4.675
25210W        W97525  29.318  14.524   2.736
25211W        W97526   0.994  44.340   3.157
25212W        W97527  32.016  28.559  10.501
25213W        W97528  29.515  14.692  12.888
25214W        W97529   9.712  36.122   4.611
25215W        W97530  18.094  38.061  12.954
25216W        W97531  32.421  28.890  10.632
25217W        W97532   1.864  11.203   0.241
25218W        W97533  24.141   4.472   3.114
25219W        W97534   4.788  31.680   1.703
25220W        W97535  15.844  18.825   2.266
25221W        W97536  19.669  19.855   4.641
25222W        W97537  22.671  44.818  11.167
25223W        W97538  17.374  28.032   3.162
25224W        W97539   1.011  31.763   3.784
25225W        W97540  22.694  32.034  12.067
25226W        W97541  35.370  30.028  11.399
25227W        W97542  29.391  14.127   0.750
25228W        W97543  27.131  31.049  12.574
25229W        W97544  20.068  12.545  10.275
25230W        W97545  15.747  10.503   3.560
25231W        W97546  28.074  21.345   4.051
25232W        W97547  31.001  14.770   1.723
25233W        W97548   4.422  13.848   3.245
25234W        W97549  24.622   5.961  13.945
25235W        W97550  13.089  40.004  11.493
25236W        W97551  20.231   5.711   4.415
25237W        W97552  10.946  22.530  12.239
25238W        W97553  14.609  17.155   4.866
25239W        W97554  15.670  36.688   4.154
25240W        W97555   0.456  35.864  13.715
25241W        W97556  16.820  35.167   4.345
25242W        W97557  30.495   9.907  12.714
25243W        W97558  38.418   2.052   3.770
25244W        W97559   2.165   9.390   2.373
25245W        W97560  11.390  27.144  14.636
25246W        W97561  40.942   6.273   3.358
25247W        W97562   9.072  33.981   0.712
25248W        W97563  14.245  16.147  14.958
25249W        W97564  32.573   9.648   2.816
25250W        W97565  29.697  13.057   2.732
25251W        W97566   2.338  28.223  10.591
25252W        W97567  41.532   5.040  14.430
25253W        W97568  28.954  29.563  12.400
25254W        W97569  11.731  26.674   4.170
25255W        W97570   3.860  36.563   2.783
25256W        W97571   6.195  38.776   3.069
25257W        W97572  22.197   0.375  11.592
25258W        W97573  42.753  18.200   1.430
25259W        W97574  34.125   7.669   4.080
25260W        W97575  19.781  27.477   3.176
25261W        W97576   6.877  22.833   3.240
25262W        W97577   8.059  26.297   2.578
25263W        W97578  39.269  23.689   2.776
25264W        W97579   0.452  43.451   2.519
25265W        W97580  35.652  37.144   3.388
25266W        W97581  10.926  38.940  12.600
25267W        W97582  31.375   0.141   3.739
25268W        W97583  21.017  10.649  13.014
25269W        W97584   1.157  28.580  13.737
25270W        W97585   1.200  28.465  11.203
25271W        W97586  23.926  27.755  11.555
25272W        W97587  26.905  16.329   4.287
25273W        W97588  27.566   6.205   4.234
25274W        W97589  17.223  16.090   0.263
25275W        W97590   4.240  41.596  14.888
25276W        W97591  22.968  34.668  10.786
25277W        W97592  31.679  22.219   1.814
25278W        W97593  32.892  17.540   0.028
25279W        W97594  29.333  10.006   1.318
25280W        W97595  22.206   4.860   0.856
25281W        W97596  26.492  27.066  12.015
25282W        W97597  15.820  40.835  11.163
25283W        W97598  39.120  11.878  13.039
25284W        W97599  27.715   8.952   3.184
25285W        W97600  29.735  13.819  14.436
25286W        W97601  13.597  11.288  11.541
25287W        W97602  21.476  23.111   0.742
25288W        W97603   2.889  43.415   1.680
25289W        W97604  15.051  36.829  13.946
25290W        W97605  20.546  36.600   2.975
25291W        W97606   0.901   5.296   4.529
25292W        W97607  19.705  18.203  14.451
25293W        W97608   6.698  24.513  14.817
25294W        W97609   5.735   9.588   1.992
25295W        W97610  42.412   4.863  11.924
25296W        W97611  33.355   1.022  10.713
25297W        W97612  14.401   0.804  13.526
25298W        W97613   8.708  28.128   2.019
25299W        W97614  40.745  21.604  12.587
25300W        W97615  18.846  13.519   4.100
25301W        W97616  33.185  35.900   0.806
25302W        W97617   3.824  37.914   2.248
25303W        W97618   6.180  44.442  12.131
25304W        W97619  40.223  29.533  13.454
25305W        W97620  43.583  28.188  10.268
25306W        W97621  16.291  26.077   3.195
25307W        W97622  31.075  16.230   4.469
25308W        W97623   2.835  22.603  12.019
25309W        W97624  34.468  23.611  10.499
25310W        W97625   1.811  15.461  11.878
25311W        W97626   7.838   7.938  10.652
25312W        W97627  30.953  26.955   4.436
25313W        W97628  11.235   8.297   4.135
25314W        W97629  36.070  38.453  12.094
25315W        W97630  37.621  16.517   1.846
25316W        W97631  11.863   6.843  13.197
25317W        W97632   6.758  42.659  11.494
25318W        W97633  11.270  37.888   4.691
25319W        W97634  15.260  32.999  12.012
25320W        W97635  16.168  14.462  14.143
25321W        W97636  27.520   4.319   2.350
25322W        W97637  38.559  12.831  14.333
25323W        W97638  44.445   9.705  10.245
25324W        W97639  40.038  34.931   2.626
25325W        W97640  39.057   2.728   0.073
25326W        W97641   6.233   2.451  14.814
25327W        W97642  34.863  21.059   1.758
25328W        W97643   1.894  33.281  11.195
25329W        W97644  29.650  44.435   1.343
25330W        W97645  27.297  33.627  10.171
25331W        W97646  33.184  14.591   2.271
25332W        W97647  18.745  24.933  11.244
25333W        W97648  25.509  27.694   3.733
25334W        W97649  10.364  32.286  12.888
25335W        W97650   0.254  34.508  11.633
25336W        W97651  32.166  16.367  11.625
25337W        W97652  18.307  12.291   3.295
25338W        W97653  35.598  27.434  11.535
25339W        W97654   3.303  40.987   4.377
25340W        W97655  31.401  23.722   2.846
25341W        W97656  44.253  18.121   3.154
25342W        W97657  28.906   9.214  12.559
25343W        W97658  24.509   2.357  14.890
25344W        W97659   2.750   5.096  14.468
25345W        W97660  19.661  37.574   2.280
25346W        W97661  33.513  19.669  11.611
25347W        W97662  25.541  38.485   4.789
25348W        W97663  43.528  28.577   0.815
25349W        W97664  42.855  43.928  14.376
25350W        W97665  18.771  30.865   2.160
25351W        W97666  38.055  38.644   0.480
25352W        W97667  24.159  13.861   4.361
25353W        W97668  13.940  38.814  12.625
25354W        W97669   1.919  25.670   4.562
25355W        W97670  31.324  15.938  11.412
25356W        W97671   4.964  31.363  13.243
25357W        W97672  29.103  42.672   0.155
25358W        W97673  34.949  41.718   0.217
25359W        W97674  11.730  19.001   4.269
25360W        W97675  21.114   3.904  11.407
25361W        W97676   1.289  27.755  10.645
25362W        W97677  11.858   3.945   1.745
25363W        W97678  15.124  21.484   3.666
25364W        W97679  36.945  14.660  12.606
25365W        W97680  29.630   9.755  12.797
25366W        W97681  20.498   8.933  13.240
25367W        W97682  36.199  28.400   4.848
25368W        W97683  22.874  42.093  12.617
25369W        W97684  44.997  24.496  14.846
25370W        W97685   3.951  25.509   0.310
25371W        W97686   4.813   0.173  11.081
25372W        W97687  12.187  26.693   0.338
25373W        W97688  30.090  41.451   2.350
25374W        W97689  18.305  12.690   0.037
25375W        W97690  33.551   3.792   1.409
25376W        W97691  18.225  11.311   3.960
25377W        W97692   5.482  10.283   1.482
25378W        W97693  44.907  18.988  10.981
25379W        W97694  35.271   0.409   1.855
25380W        W97695  20.733   0.983  13.492
25381W        W97696  37.377  15.700  11.495
25382W        W97697  15.567  19.475  12.509
25383W        W97698  33.648  35.287   5.105
25384W        W97699  21.934  38.091   2.388
25385W        W97700  36.993  11.824   2.689
25386W        W97701  34.399  44.357  12.324
25387W        W97702   0.451  12.568   1.314
25388W        W97703  38.605  20.288  13.133
25389W        W97704  43.809   4.500  12.603
25390W        W97705  27.488  38.053   2.220
25391W        W97706  15.557  31.523  12.612
25392W        W97707  24.028  30.431   3.286
25393W        W97708  29.444  25.918   0.870
25394W        W97709   2.458  40.811   1.992
25395W        W97710   2.912  37.340  14.027
25396W        W97711  26.135   4.963   4.358
25397W        W97712   7.354  19.160  11.737
25398W        W97713  23.347  23.674  12.772
25399W        W97714   6.204   7.631  11.022
25400W        W97715  33.657  13.047  10.977
25401W        W97716   9.860   3.760  11.832
25402W        W97717  21.739  31.034  11.608
25403W        W97718  34.013  17.730  13.297
25404W        W97719  25.719   6.689  14.072
25405W        W97720  35.823   6.919   4.352
25406W        W97721  12.760  30.553  11.929
25407W        W97722  35.260  33.583   2.357
25408W        W97723  27.727   8.336   2.874
25409W        W97724  38.038  30.501   2.670
25410W        W97725  30.984  41.949  11.389
25411W        W97726  15.511  16.713   3.470
25412W        W97727   5.266  16.070  11.644
25413W        W97728  19.020  40.715  12.440
25414W        W97729  22.335  35.491   3.450
25415W        W97730  27.834  18.522  10.253
25416W        W97731  13.899  12.589   1.529
25417W        W97732  11.905  35.127  12.917
25418W        W97733  10.127  32.459  12.090
25419W        W97734   7.930   3.868   2.646
25420W        W97735  40.488  42.540  13.781
25421W        W97736  12.356  20.675  12.001
25422W        W97737   9.351  15.324  14.822
25423W        W97738   6.949   6.888   1.800
25424W        W97739  19.755  26.681   1.145
25425W        W97740  42.433  17.564   3.453
25426W        W97741  40.531   7.402  10.714
25427W        W97742  40.972  19.200   4.007
25428W        W97743  25.182  42.827   3.494
25429W        W97744  10.262  22.198  11.966
25430W        W97745  25.198  17.679  14.020
25431W        W97746  39.315  15.585  12.887
25432W        W97747  21.880   7.161  12.484
25433W        W97748  18.778  16.802  13.085
25434W        W97749  11.183  42.714  12.435
25435W        W97750  11.714  14.165  14.852
25436W        W97751   5.803   0.350   1.407
25437W        W97752  25.631  35.099   1.740
25438W        W97753  28.452  33.765   1.165
25439W        W97754   2.415  31.482  11.854
25440W        W97755  40.850   5.721  14.053
25441W        W97756  43.333  20.330   2.214
25442W        W97757   1.912  31.274  13.884
25443W        W97758   8.097  34.120  12.638
25444W        W97759   4.987  36.372   0.804
25445W        W97760   6.602   8.669   4.052
25446W        W97761  15.487  19.991   5.264
25447W        W97762  40.029  28.438  14.396
25448W        W97763   5.339   8.383  13.860
25449W        W97764  19.176  37.004  13.543
25450W        W97765  21.996  19.575  11.628
25451W        W97766  15.757   2.262   0.652
25452W        W97767   8.575  26.545   4.633
25453W        W97768  10.629  15.220  11.486
25454W        W97769  12.983   3.646   3.220
25455W        W97770  11.273  37.362   0.483
25456W        W97771  25.999  37.505   0.894
25457W        W97772   0.701  40.092   1.314
25458W        W97773  16.531  23.154   1.944
25459W        W97774   8.177   9.175  13.416
25460W        W97775  29.858  14.700   2.790
25461W        W97776  39.036  34.955  12.236
25462W        W97777  12.363  32.794   4.226
25463W        W97778  11.785  39.422   4.379
25464W        W97779  38.128  25.086  14.861
25465W        W97780  33.433  18.628  10.640
25466W        W97781   1.345  15.311  12.063
25467W        W97782  31.917  20.449   1.276
25468W        W97783  37.642   2.296   3.410
25469W        W97784  42.258   9.621   3.700
25470W        W97785  41.801   9.625  13.108
25471W        W97786   1.964  36.567  12.919
25472W        W97787  28.608  35.451   2.746
25473W        W97788   5.781  43.757  13.821
25474W        W97789   1.949  18.333   0.840
25475W        W97790  20.279  10.940  11.479
25476W        W97791   2.356  41.169  10.268
25477W        W97792  20.207   3.372  11.619
25478W        W97793  24.694  38.303   1.143
25479W        W97794   6.657  43.361   0.909
25480W        W97795  12.111  27.748  11.828
25481W        W97796  34.546  17.648   3.171
25482W        W97797  25.701   1.804  10.460
25483W        W97798   7.317  21.150  14.693
25484W        W97799  22.456  17.802  11.130
25485W        W97800  35.589  21.219  12.152
25486W        W97801  39.276  35.847   1.396
25487W        W97802  42.587   7.133   1.786
25488W        W97803   7.009  22.983   4.204
25489W        W97804  31.094  37.885  13.454
25490W        W97805  43.220  15.841   3.357
25491W        W97806  19.749  19.673  11.588
25492W        W97807   2.407  11.546   0.424
25493W        W97808  26.577  32.220  11.194
25494W        W97809  28.102  27.203  12.022
25495W        W97810   7.283  29.384  11.885
25496W        W97811  38.220  21.746   2.257
25497W        W97812  25.596  11.549   4.153
25498W        W97813  11.834  14.264   3.617
25499W        W97814  25.104  11.099  14.472
25500W        W97815  25.434  35.614  11.102
25501W        W97816  31.915  22.810  11.553
25502W        W97817  10.210  29.613  10.744
25503W        W97818   8.251  12.109   0.266
25504W        W97819  27.133  26.615   0.797
25505W        W97820  28.846  23.041   3.635
25506W        W97821  39.499   0.617  10.674
25507W        W97822  27.815   9.342  14.292
25508W        W97823  23.438   5.245   4.150
25509W        W97824  17.679  32.950   1.646
25510W        W97825  17.606  40.509   3.565
25511W        W97826   3.254  12.243   1.896
25512W        W97827   7.895   4.359  13.009
25513W        W97828  11.546  23.599  11.103
25514W        W97829  18.854  15.884  12.996
25515W        W97830  39.727  26.377  11.816
25516W        W97831  10.373  11.333  13.502
25517W        W97832  31.238  38.318   2.322
25518W        W97833   2.086  39.319   4.188
25519W        W97834  23.880  26.469  14.793
25520W        W97835  29.660  27.456   2.207
25521W        W97836   8.829  33.528   4.542
25522W        W97837  37.316   2.258  11.595
25523W        W97838  32.045  20.054   1.877
25524W        W97839   0.428  33.495  12.333
25525W        W97840  20.538  21.962  10.468
25526W        W97841  39.778  23.595   1.081
25527W        W97842  28.990  34.532  14.644
25528W        W97843  24.914  22.134   0.297
25529W        W97844  40.785  15.374   3.297
25530W        W97845  34.314  26.534   2.278
25531W        W97846   4.191  16.136  14.771
25532W        W97847  37.442   3.144   3.294
25533W        W97848  39.486  27.756  13.894
25534W        W97849   0.361   5.830  10.426
25535W        W97850  36.375   6.420   3.363
25536W        W97851  34.039   1.754  13.255
25537W        W97852   2.194   3.250  10.724
25538W        W97853  16.269   5.160  14.143
25539W        W97854  27.182   2.391   3.160
25540W        W97855  25.212  44.413  10.606
25541W        W97856  29.148  20.291   1.798
25542W        W97857  23.234  27.726  11.087
25543W        W97858  27.570  22.506   2.662
25544W        W97859   2.931  20.619  10.734
25545W        W97860   7.354  12.010   1.037
25546W        W97861  33.971  20.040  13.379
25547W        W97862  19.114  30.520  13.918
25548W        W97863  39.298   9.641   4.095
25549W        W97864  12.757   1.517   4.257
25550W        W97865  19.223  12.875  13.741
25551W        W97866  13.062  24.281   5.017
25552W        W97867  32.980  40.282  14.056
25553W        W97868  40.293  37.834   1.640
25554W        W97869  27.632   4.287   3.380
25555W        W97870   9.726  16.101  14.462
25556W        W97871   2.778  14.393   2.138
25557W        W97872  28.085   6.295   9.838
25558W        W97873  20.155  14.646  13.920
25559W        W97874  13.243  22.079  11.454
25560W        W97875  43.546   4.929   2.363
25561W        W97876   8.217  13.278   2.845
25562W        W97877   8.951  28.173   3.315
25563W        W97878  41.559  20.496  14.945
25564W        W97879   6.715  36.192   1.423
25565W        W97880  30.451   5.768  10.459
25566W        W97881  35.657  38.182  14.249
25567W        W97882   7.127  27.120   3.397
25568W        W97883   3.382   5.278   0.246
25569W        W97884   2.486  36.051   3.126
25570W        W97885  15.606  32.362  13.023
25571W        W97886   0.800  14.634  13.881
25572W        W97887  37.180  37.335   2.586
25573W        W97888  33.410   5.348  11.119
25574W        W97889  43.415   3.990  14.722
25575W        W97890  22.993  14.564   2.411
25576W        W97891   5.964  15.904   1.204
25577W        W97892   6.923  33.598  13.946
25578W        W97893  21.987   9.268  13.002
25579W        W97894   4.686   0.283   2.208
25580W        W97895  19.768  41.462  10.539
25581W        W97896  35.666  44.780  13.911
25582W        W97897  16.198  24.575   1.377
25583W        W97898  19.760  33.920  13.368
25584W        W97899  14.062  30.875  13.994
25585W        W97900  36.371  27.930  11.442
25586W        W97901  41.400  33.666   4.465
25587W        W97902   1.570   6.972   2.676
25588W        W97903   4.814  18.047  11.563
25589W        W97904  28.067  22.907   4.068
25590W        W97905   0.236  42.065  11.936
25591W        W97906  10.624  36.367   3.349
25592W        W97907   6.370   9.079   4.240
25593W        W97908   6.007  29.200   1.207
25594W        W97909  23.643  26.496   0.238
25595W        W97910  13.330  25.864   3.800
25596W        W97911  22.319  21.137  11.976
25597W        W97912  41.884  13.205   0.900
25598W        W97913  42.872  44.548  10.299
25599W        W97914  14.322  18.761   2.371
25600W        W97915  20.138  32.408   2.750
25601W        W97916   6.425  43.923   4.710
25602W        W97917  24.980  27.596  10.662
25603W        W97918  10.204   8.103   0.761
25604W        W97919  33.354  32.405  12.025
25605W        W97920  37.513   2.388  12.464
25606W        W97921   3.401   3.785   4.230
25607W        W97922  13.649  16.079  14.383
25608W        W97923  33.586   8.695  13.038
25609W        W97924   3.469   3.290  14.010
25610W        W97925  17.157   2.421   3.712
25611W        W97926  21.888   8.615  13.680
25612W        W97927   2.905  19.959   1.373
25613W        W97928  17.639  39.085  13.418
25614W        W97929  26.094  26.095  13.210
25615W        W97930  38.848  18.280   1.798
25616W        W97931   8.675   8.771   0.332
25617W        W97932  14.198  39.598  13.501
25618W        W97933  34.548  19.218   2.282
25619W        W97934   0.884   5.657  13.942
25620W        W97935  31.529   6.237  10.759
25621W        W97936  17.244  38.386   1.206
25622W        W97937  22.243  34.087   4.618
25623W        W97938  42.104   9.484  12.704
25624W        W97939  39.260  14.810   3.204
25625W        W97940  42.217  26.911  13.504
25626W        W97941   9.327  23.098   1.665
25627W        W97942  33.868  44.952  12.919
25628W        W97943  28.156  39.083   9.956
25629W        W97944  32.008   1.995   0.762
25630W        W97945  32.086   6.425  12.122
25631W        W97946  24.000  10.000  14.465
25632W        W97947  42.329  39.379   0.806
25633W        W97948  35.970  16.580  12.152
25634W        W97949   7.320  26.596   3.763
25635W        W97950  18.206   3.046  11.996
25636W        W97951  35.335   5.395   4.367
25637W        W97952  18.712  32.045   1.422
25638W        W97953   9.201  42.595   3.571
25639W        W97954   2.804  38.499   0.364
25640W        W97955  30.337   9.513  13.598
25641W        W97956  25.243  41.233   2.870
25642W        W97957  21.620  38.835   1.242
25643W        W97958  30.411  19.671   2.412
25644W        W97959   4.740  19.518  13.373
25645W        W97960  32.441  27.886  12.998
25646W        W97961  14.049  10.381  12.201
25647W        W97962  37.933  44.522  13.992
25648W        W97963  28.693   4.460   3.407
25649W        W97964  21.162  36.913   1.904
25650W        W97965  15.429  34.065   4.397
25651W        W97966  31.386  12.561  14.953
25652W        W97967  16.612  27.501   0.644
25653W        W97968   4.219   4.574  12.039
25654W        W97969  39.485   2.008  11.902
25655W        W97970   3.382  23.775   4.565
25656W        W97971   3.791  37.372  13.503
25657W        W97972   4.389  43.714   1.414
25658W        W97973   1.514  34.409   0.320
25659W        W97974  24.939   2.697   2.131
25660W        W97975  39.359  25.108   0.747
25661W        W97976  15.251  31.650   2.379
25662W        W97977  31.949  32.394   2.199
25663W        W97978   4.620  30.583   4.700
25664W        W97979  35.046  22.705   4.497
25665W        W97980  11.716  37.481  13.766
25666W        W97981  34.564  14.170   1.304
25667W        W97982  20.304  26.198   4.352
25668W        W97983  33.402  39.971  13.952
25669W        W97984  19.798  13.778  10.718
25670W        W97985  35.045  39.904   0.666
25671W        W97986  30.697   2.020  12.555
25672W        W97987  24.014   7.097   0.479
25673W        W97988  16.175  41.139   1.460
25674W        W97989   2.874  21.691   3.210
25675W        W97990  30.887  13.276   3.432
25676W        W97991  27.523   2.127   1.684
25677W        W97992  40.419  14.822   1.739
25678W        W97993  30.217  24.044  13.528
25679W        W97994   0.683  44.672   1.539
25680W        W97995  20.549  40.237   1.270
25681W        W97996  30.518  24.475  10.553
25682W        W97997  33.128   2.375   3.240
25683W        W97998  38.890  12.679   1.285
25684W        W97999  37.382  16.701  10.657
25685W        W98000  38.928  27.779   1.847
25686W        W98001   0.905  35.139  14.151
25687W        W98002  44.207  10.891  11.317
25688W        W98003  19.742  16.713  13.756
25689W        W98004  12.738  16.464   1.646
25690W        W98005  15.054  44.477  14.032
25691W        W98006  19.566  30.995  12.133
25692W        W98007  11.830  40.054   3.114
25693W        W98008  27.626   4.234   1.834
25694W        W98009  39.312  24.703  14.573
25695W        W98010  18.660  16.236  10.761
25696W        W98011  36.354   1.533  11.183
25697W        W98012  20.535  17.875   4.645
25698W        W98013  31.481  19.075   2.450
25699W        W98014  10.374   9.323   4.654
25700W        W98015  42.250  15.498  12.941
25701W        W98016  32.933  20.022  11.698
25702W        W98017  18.816  31.939  11.113
25703W        W98018  24.688  44.067   3.775
25704W        W98019  15.200   7.370   3.158
25705W        W98020  29.183   8.344   3.894
25706W        W98021  31.029  30.489  13.624
25707W        W98022  21.766  26.038   3.429
25708W        W98023  19.564  14.187   3.743
25709W        W98024  20.107   2.646   0.477
25710W        W98025  22.152  37.936   0.298
25711W        W98026  11.776  16.111  14.500
25712W        W98027  20.078  42.344  14.953
25713W        W98028   1.082  17.035   3.357
25714W        W98029  39.873  31.476  13.737
25715W        W98030  14.120   8.084  12.649
25716W        W98031  18.294   4.891   4.146
25717W        W98032  42.087  25.150  13.053
25718W        W98033  37.993  41.816  13.462
25719W        W98034  25.143  28.577   1.779
25720W        W98035   9.832  34.092   4.004
25721W        W98036  12.265  20.621   3.671
25722W        W98037  29.898  28.968  11.482
25723W        W98038  28.847  39.379   3.785
25724W        W98039   0.261  34.060  14.246
25725W        W98040  15.233   3.452   0.854
25726W        W98041  15.636   5.249  13.524
25727W        W98042  35.314  10.920  11.239
25728W        W98043  37.492  44.468   3.369
25729W        W98044  41.939  22.709   1.359
25730W        W98045  20.024   5.271   4.625
25731W        W98046  11.306   7.391   0.665
25732W        W98047   9.362  27.002   2.735
25733W        W98048  29.549  13.020   4.079
25734W        W98049   9.560  14.648  11.178
25735W        W98050  31.941  10.174  14.901
25736W        W98051  13.781  35.807  10.460
25737W        W98052   3.004   3.761   3.780
25738W        W98053  15.663  12.594  11.550
25739W        W98054   1.491  26.685   2.226
25740W        W98055  30.465  11.101  11.844
25741W        W98056  27.819  43.043  12.464
25742W        W98057  44.117  17.612   3.358
25743W        W98058   9.543  21.235  11.695
25744W        W98059  23.711  20.175   4.278
25745W        W98060  11.845  20.852  10.470
25746W        W98061  32.945  28.078  14.810
25747W        W98062  28.634  24.190  14.911
25748W        W98063  37.406  14.407  11.322
25749W        W98064  28.094  13.424   2.364
25750W        W98065   6.289  44.806  14.375
25751W        W98066   1.164   8.268   4.582
25752W        W98067  39.448  21.983   1.923
25753W        W98068  30.048   3.396  14.017
25754W        W98069  39.489   8.839   0.295
25755W        W98070  35.032  27.661  12.690
25756W        W98071  34.986   3.230  12.899
25757W        W98072  27.707  29.918  14.951
25758W        W98073   7.805  12.597   3.612
25759W        W98074  32.492  14.336   2.455
25760W        W98075  37.309  21.188  12.185
25761W        W98076  10.343   9.610   4.209
25762W        W98077  19.430  12.824  11.528
25763W        W98078  17.383   3.491   2.805
25764W        W98079  24.965  32.812  11.006
25765W        W98080  22.965  17.660  11.145
25766W        W98081  39.314   7.819   2.961
25767W        W98082  40.448  21.554  11.086
25768W        W98083  44.545   5.139   3.157
25769W        W98084  36.532   3.243   4.118
25770W        W98085  15.228  14.752   3.774
25771W        W98086  35.090  16.283   0.549
25772W        W98087  15.737  25.771  14.944
25773W        W98088   6.439  11.910  10.896
25774W        W98089  11.434  30.189  14.037
25775W        W98090  36.399  23.244   3.912
25776W        W98091  10.557  22.632   2.322
25777W        W98092  30.206  10.289  11.179
25778W        W98093   2.919  22.099  10.717
25779W        W98094   9.891  11.598   3.174
25780W        W98095  16.219  21.767  11.199
25781W        W98096  42.353  43.774  12.927
25782W        W98097  31.381  29.519  11.602
25783W        W98098  25.250  27.646  13.535
25784W        W98099  22.184   7.969   0.310
25785W        W98100  39.327   3.270   2.809
25786W        W98101   4.229   5.887   4.332
25787W        W98102  41.163  20.688  10.767
25788W        W98103  20.600  30.654  12.778
25789W        W98104  36.528  19.446  11.669
25790W        W98105  15.208  32.126   2.137
25791W        W98106  25.063  13.400  12.518
25792W        W98107  12.434   1.304   1.313
25793W        W98108  43.873  36.378  11.840
25794W        W98109  22.311  37.183  11.966
25795W        W98110  13.680   7.639  13.371
25796W        W98111  29.072  27.237   3.204
25797W        W98112  32.390  15.636  12.021
25798W        W98113  35.445  17.608   1.727
25799W        W98114  16.813  42.310  11.587
25800W        W98115  14.668  40.608   1.918
25801W        W98116  19.699   5.271  11.987
25802W        W98117  24.984   5.349  14.009
25803W        W98118  30.593  28.766   3.020
25804W        W98119  37.767  24.451  10.163
25805W        W98120  14.168  20.030  14.040
25806W        W98121  33.964  35.564  10.791
25807W        W98122  11.200   8.182  13.223
25808W        W98123  14.095  11.139   4.607
25809W        W98124   1.943   7.740   4.538
25810W        W98125   0.664   5.286   1.819
25811W        W98126  40.453  28.497   0.766
25812W        W98127   9.247  12.529   1.715
25813W        W98128  24.400  34.757  10.158
25814W        W98129  33.268  13.619   3.551
25815W        W98130  34.505  26.280   4.616
25816W        W98131  14.300   9.381  13.475
25817W        W98132  21.918  20.047   0.424
25818W        W98133  25.090  36.593   4.708
25819W        W98134  15.484  13.252   4.636
25820W        W98135   8.193  24.691  13.808
25821W        W98136  13.524   5.989   0.916
25822W        W98137   2.837  41.674  13.717
25823W        W98138  10.169  24.121  11.878
25824W        W98139  42.379   9.229  11.298
25825W        W98140  18.601  33.315  11.138
25826W        W98141  27.425  29.530   1.756
25827W        W98142  13.102  40.602   1.790
25828W        W98143  39.839   6.160  14.502
25829W        W98144  31.661  22.090   3.785
25830W        W98145   2.155  38.803   2.785
25831W        W98146  20.186  16.220   2.871
25832W        W98147  14.345  23.222   4.446
25833W        W98148  30.449   4.750   0.749
25834W        W98149  41.277   5.175  13.384
25835W        W98150  14.269  19.623   0.834
25836W        W98151  24.447   8.707   4.401
25837W        W98152  14.326  20.245   3.376
25838W        W98153  38.023  20.375   2.586
25839W        W98154  13.278  16.611  14.016
25840W        W98155  27.671  34.236  13.939
25841W        W98156  37.219  42.009  11.230
25842W        W98157   2.518  11.091   0.900
25843W        W98158  20.226   6.329  12.464
25844W        W98159  23.712  10.148   0.803
25845W        W98160  22.596  30.394  12.991
25846W        W98161  17.646  29.851   2.337
25847W        W98162   8.453  36.899  13.467
25848W        W98163  43.759  20.177   0.198
25849W        W98164  39.047  21.754   1.206
25850W        W98165  12.745  31.529  13.013
25851W        W98166  37.482   6.346  12.567
25852W        W98167  20.917  30.331  13.085
25853W        W98168  22.263  28.729   4.163
25854W        W98169   7.451  15.912   4.938
25855W        W98170  12.552  30.595   0.205
25856W        W98171   7.549   3.888   0.899
25857W        W98172   9.003   9.359   1.263
25858W        W98173  42.512  16.161   1.768
25859W        W98174  17.025  38.607   1.798
25860W        W98175  27.556  38.597  14.112
25861W        W98176  26.613  12.177  13.309
25862W        W98177  40.839   7.372   0.685
25863W        W98178  30.925   7.767  14.514
25864W        W98179  39.881  20.381  10.725
25865W        W98180  43.185   6.519  11.592
25866W        W98181  17.033   3.927   0.896
25867W        W98182  24.998   8.847  14.987
25868W        W98183   1.812   9.420   0.703
25869W        W98184  41.437   4.741   0.943
25870W        W98185  22.230  29.524  12.473
25871W        W98186  37.546  23.617   5.542
25872W        W98187  42.735   9.383  14.410
25873W        W98188  26.530   7.790  13.041
25874W        W98189  18.507  30.902  14.359
25875W        W98190  20.193  44.981   2.559
25876W        W98191   1.522  32.426  11.683
25877W        W98192   6.693   6.716   2.780
25878W        W98193  32.419  31.137   1.221
25879W        W98194  31.327  14.109  10.585
25880W        W98195   0.817  42.322  10.944
25881W        W98196  17.262  43.351   2.602
25882W        W98197  18.638   0.850   1.458
25883W        W98198   7.409   1.382   0.274
25884W        W98199  31.951  13.034   5.162
25885W        W98200  25.598   9.733   0.003
25886W        W98201   8.356  34.414  13.002
25887W        W98202  13.147   8.756  12.010
25888W        W98203  43.846   6.418  14.640
25889W        W98204  26.523  15.433  14.845
25890W        W98205  14.757  10.409   2.325
25891W        W98206  13.354   7.696  11.883
25892W        W98207   5.270  31.945  12.063
25893W        W98208  34.503  23.580   1.007
25894W        W98209   3.326  25.432   0.805
25895W        W98210  12.599  33.464  14.292
25896W        W98211   1.458  44.501  12.611
25897W        W98212  20.217  23.679   1.931
25898W        W98213  21.145   2.278   3.065
25899W        W98214   3.679  19.470   2.156
25900W        W98215  25.516   7.427  12.303
25901W        W98216  32.846  21.948  14.943
25902W        W98217  17.261  27.924  12.977
25903W        W98218  16.264  30.681  14.032
25904W        W98219   1.404   8.401   1.387
25905W        W98220  14.606  44.358   1.261
25906W        W98221  33.378  29.249  12.393
25907W        W98222  42.797  31.161  11.296
25908W        W98223  25.592   7.918  12.132
25909W        W98224  16.246  23.629  13.077
25910W        W98225  17.476  30.055  11.561
25911W        W98226  12.152  43.979   4.777
25912W        W98227  27.001  13.553   1.330
25913W        W98228  27.179   2.884   4.962
25914W        W98229  21.698  33.182   2.300
25915W        W98230  36.110  25.034  12.107
25916W        W98231  23.313  20.899  12.066
25917W        W98232  42.031  15.319  11.622
25918W        W98233   4.230  37.104   4.182
25919W        W98234  12.689  42.695  14.706
25920W        W98235  31.719   0.113  11.427
25921W        W98236   9.236   1.505  13.713
25922W        W98237  24.017  28.033  13.389
25923W        W98238  29.029   7.401   2.976
25924W        W98239  26.000  18.965   1.283
25925W        W98240   6.374   3.070   0.881
25926W        W98241   7.143  41.048   2.790
25927W        W98242  33.189  24.915   4.650
25928W        W98243  28.170   7.036   0.012
25929W        W98244  33.956  25.932   1.790
25930W        W98245  17.132  10.668   0.834
25931W        W98246   3.299  22.826  10.522
25932W        W98247  28.541  27.680  11.603
25933W        W98248  33.070   3.533  13.571
25934W        W98249  37.006  30.957   0.293
25935W        W98250  10.743  26.949  13.319
25936W        W98251  42.763   3.344   0.416
25937W        W98252  24.416  29.498   3.139
25938W        W98253  37.609  21.516  13.470
25939W        W98254  24.575  13.114  12.550
25940W        W98255  33.501  18.016  12.545
25941W        W98256  20.096   7.646  12.014
25942W        W98257   0.795  40.322   0.842
25943W        W98258  21.443  42.621   1.773
25944W        W98259  17.210   4.949  12.327
25945W        W98260  20.556  12.639  14.771
25946W        W98261  44.471   9.647  13.481
25947W        W98262  24.676   1.628  14.407
25948W        W98263  10.938  43.717  14.047
25949W        W98264  37.604  32.695  14.918
25950W        W98265  44.991  26.525  12.055
25951W        W98266  36.498  16.889  12.168
25952W        W98267   2.685  23.549  14.650
25953W        W98268  44.513  26.756   4.745
25954W        W98269   4.265  35.919   3.657
25955W        W98270  37.802  15.900  13.909
25956W        W98271   0.283   1.477   1.428
25957W        W98272  41.039   5.379   3.123
25958W        W98273   9.422   1.930   3.286
25959W        W98274  14.265  19.248  13.660
25960W        W98275  24.220  38.627   3.629
25961W        W98276  25.039  23.640   1.316
25962W        W98277  40.608  14.662   1.277
25963W        W98278  11.231  18.488   0.700
25964W        W98279  11.980  28.771  12.479
25965W        W98280  21.508  38.765  14.219
25966W        W98281  30.042  11.568  14.484
25967W        W98282   0.975  28.971  11.660
25968W        W98283  35.720  42.366  11.692
25969W        W98284  44.417  11.130  13.352
25970W        W98285  34.104  25.485   4.233
25971W        W98286  36.914  36.887  13.285
25972W        W98287   7.295  23.509   4.673
25973W        W98288  14.701  28.061  13.123
25974W        W98289   5.253  35.618   3.722
25975W        W98290  20.867  27.286  12.454
25976W        W98291  39.304  16.181  13.875
25977W        W98292   8.687  10.277  13.897
25978W        W98293  32.308  25.525  12.212
25979W        W98294  21.623  28.652   1.356
25980W        W98295  28.060  39.563   4.696
25981W        W98296  17.144   6.175   3.827
25982W        W98297  10.661  14.401  14.305
25983W        W98298   6.715  28.963  13.442
25984W        W98299  27.015  13.249   4.397
25985W        W98300  36.353  27.865  14.487
25986W        W98301  26.505  11.178  12.520
25987W        W98302   0.967  32.577  12.424
25988W        W98303  30.243   3.764  12.047
25989W        W98304  29.473  41.346  12.104
25990W        W98305  11.178   6.216  10.649
25991W        W98306  42.329  37.621   0.714
25992W        W98307   2.962  29.573   4.380
25993W        W98308  43.894  26.470  12.493
25994W        W98309   4.961  13.258   3.066
25995W        W98310  37.052  38.613   1.328
25996W        W98311  16.712   0.966  12.849
25997W        W98312  19.492  10.623   3.191
25998W        W98313  44.734   5.706  11.618
25999W        W98314  16.840  44.206  12.434
26000W        W98315  31.391  35.509  14.287
26001W        W98316   3.766  11.258   4.099
26002W        W98317  44.328  36.160  12.943
26003W        W98318  21.639   2.988   0.835
26004W        W98319  31.185   7.194   2.292
26005W        W98320   2.433  20.557  12.091
26006W        W98321  13.057   8.786  14.547
26007W        W98322   4.704  37.069  13.894
26008W        W98323  25.563  23.081  10.534
26009W        W98324  17.799  24.714  13.458
26010W        W98325  35.602  35.478  11.040
26011W        W98326  34.983   4.212   0.317
26012W        W98327  29.490  10.917  11.517
26013W        W98328  18.558  19.103  13.941
26014W        W98329  13.610   4.239   0.283
26015W        W98330  39.866  13.094   1.701
26016W        W98331  14.605  10.928  14.965
26017W        W98332  39.090   4.803   0.480
26018W        W98333  14.224  26.880   4.301
26019W        W98334  31.131  42.244   3.175
26020W        W98335  30.790  44.331  12.971
26021W        W98336   4.719  39.341   4.170
26022W        W98337  28.919  44.002   3.774
26023W        W98338   0.063   5.248  13.998
26024W        W98339  23.650   1.339   4.259
26025W        W98340   1.019  20.781   0.550
26026W        W98341  36.960  14.683  12.105
26027W        W98342  13.121  40.477   3.203
26028W        W98343  36.370  36.304  11.597
26029W        W98344  34.573  12.890   0.188
26030W        W98345  25.954  31.665  10.547
26031W        W98346  35.482  10.668   0.373
26032W        W98347  33.943  13.851   2.310
26033W        W98348  28.395  26.157   9.892
26034W        W98349   2.127  25.139   1.325
26035W        W98350  26.881  28.863  14.897
26036W        W98351  40.045  13.429   3.753
26037W        W98352  40.438   4.916   4.071
26038W        W98353  15.695  35.447  12.431
26039W        W98354  31.542  19.307  12.394
26040W        W98355  38.888  14.571  14.854
26041W        W98356  15.883  22.508   4.731
26042W        W98357   8.848  12.279   1.425
26043W        W98358  24.007  17.521   4.623
26044W        W98359  27.205   7.195   2.210
26045W        W98360  25.703  11.761   3.216
26046W        W98361  15.447  14.330   2.229
26047W        W98362  30.987  18.503  13.319
26048W        W98363  35.432  27.853  11.228
26049W        W98364   3.647  28.524   3.259
26050W        W98365  22.209  13.523  13.947
26051W        W98366   6.907  36.039  10.862
26052W        W98367  43.372  37.434   3.154
26053W        W98368  29.337   5.248  12.509
26054W        W98369  24.998   7.659  14.277
26055W        W98370  29.579  35.784   0.030
26056W        W98371   1.011   8.600  11.928
26057W        W98372  33.671  29.589  13.137
26058W        W98373  11.931  13.626  13.966
26059W        W98374  42.369   3.804  13.301
26060W        W98375  25.146  13.272   4.465
26061W        W98376  20.239  16.775  12.008
26062W        W98377  37.690  11.578   2.310
26063W        W98378   0.344  36.139  13.294
26064W        W98379   0.933   8.863  10.652
26065W        W98380  10.741   4.778   2.661
26066W        W98381  11.038  42.561  12.926
26067W        W98382  44.646  27.236  10.813
26068W        W98383  36.010  30.987  12.074
26069W        W98384  24.276  12.114   2.262
26070W        W98385  19.023  20.031   2.240
26071W        W98386  38.810   3.934  12.767
26072W        W98387  10.921  11.100  14.309
26073W        W98388  44.665  31.122  13.145
26074W        W98389  11.386  36.825   0.681
26075W        W98390  32.494  40.715   3.779
26076W        W98391  41.032  10.679   0.353
26077W        W98392   2.370  11.882   2.672
26078W        W98393  44.763   3.420  14.083
26079W        W98394   0.468   7.689  11.087
26080W        W98395   9.691  37.407  10.290
26081W        W98396   9.136   0.369   2.736
26082W        W98397  40.881  15.921  10.832
26083W        W98398  40.409  16.652  14.010
26084W        W98399  28.248  40.289   2.505
26085W        W98400  14.640  36.271  11.978
26086W        W98401  23.017   6.361   2.921
26087W        W98402  40.033  35.400   2.373
26088W        W98403  11.808   0.565  14.827
26089W        W98404  21.635  31.007   2.876
26090W        W98405  21.876  14.264  13.435
26091W        W98406  12.674  20.085  14.894
26092W        W98407   1.986  15.124  13.326
26093W        W98408  11.230  34.422   3.545
26094W        W98409   3.193  34.078   1.232
26095W        W98410   6.179  17.270   4.514
26096W        W98411  22.108  37.888  13.454
26097W        W98412   0.735  11.286  13.685
26098W        W98413  42.877  40.567  13.511
26099W        W98414  34.465  15.746  10.957
26100W        W98415  44.787  40.891   2.255
26101W        W98416  14.333  10.025   5.009
26102W        W98417  19.761  32.119   4.368
26103W        W98418  24.689  18.138   2.369
26104W        W98419  30.514  14.803   0.434
26105W        W98420  14.150   9.296   1.608
26106W        W98421   3.912  25.737   2.921
26107W        W98422   8.166  42.583   4.472
26108W        W98423  26.590   4.281   2.452
26109W        W98424  25.760  31.498   2.643
26110W        W98425  16.203  39.843  14.280
26111W        W98426  28.947  36.716   4.239
26112W        W98427  26.352  21.631  12.081
26113W        W98428  13.033  41.866   1.334
26114W        W98429  17.419  20.704   1.818
26115W        W98430  15.168   8.980  12.200
26116W        W98431   3.960  30.382  11.653
26117W        W98432  26.002   7.538   3.500
26118W        W98433  39.928   0.386  12.814
26119W        W98434  30.247  27.507  10.795
26120W        W98435  40.339   2.859  13.438
26121W        W98436  28.737  29.244  13.631
26122W        W98437  32.321  43.865  12.545
26123W        W98438  32.109  25.191   0.748
26124W        W98439  26.629   4.207  11.138
26125W        W98440  35.612  10.369   0.796
26126W        W98441  43.291  38.442   3.310
26127W        W98442   7.219  21.645   4.970
26128W        W98443   4.177   3.310   1.187
26129W        W98444  41.501  44.973   1.372
26130W        W98445   3.042  11.091   3.439
26131W        W98446  37.855  28.054   3.262
26132W        W98447  15.635  33.026   4.732
26133W        W98448  11.081  12.112  13.699
26134W        W98449  17.038  19.026  13.844
26135W        W98450   8.833  20.636  14.329
26136W        W98451  39.850  38.977   1.394
26137W        W98452  37.168  19.579   3.173
26138W        W98453  36.313   2.039  12.056
26139W        W98454   3.960  31.974  12.521
26140W        W98455  30.439  21.103  11.578
26141W        W98456  25.446  21.128  10.610
26142W        W98457  25.460  29.995   4.289
26143W        W98458  15.685  18.540   1.833
26144W        W98459  43.524  29.500   0.705
26145W        W98460  26.171  30.002   1.228
26146W        W98461   8.242  28.071  12.235
26147W        W98462  14.661  25.046   2.729
26148W        W98463  24.614  21.185  11.168
26149W        W98464  37.920  28.297  14.421
26150W        W98465   9.912  39.450   3.398
26151W        W98466  12.656  25.212  12.649
26152W        W98467  40.475   2.425  14.066
26153W        W98468  10.320   8.237   1.371
26154W        W98469  29.016  39.529   3.323
26155W        W98470  42.699  32.449  13.545
26156W        W98471  29.959  36.863   1.439
26157W        W98472  23.199  14.496  14.225
26158W        W98473  34.027  27.859  13.340
26159W        W98474   7.733  19.040  13.410
26160W        W98475  25.706  31.468  12.033
26161W        W98476  13.279  12.091   1.841
26162W        W98477   2.257   5.852   0.782
26163W        W98478  30.518  16.100  10.818
26164W        W98479  19.260  17.726  11.320
26165W        W98480   1.504  19.595  12.920
26166W        W98481  37.863  41.845   2.242
26167W        W98482  43.485  22.527  12.901
26168W        W98483  14.740   1.816   0.928
26169W        W98484   5.882  35.161  13.002
26170W        W98485   1.875  40.714  11.915
26171W        W98486  32.312  37.065  12.486
26172W        W98487   8.796  14.348   4.891
26173W        W98488  20.150  36.267   0.954
26174W        W98489  36.031  32.451   2.356
26175W        W98490  13.326  37.545   0.867
26176W        W98491  14.953  20.949   2.450
26177W        W98492  11.616  13.585   4.359
26178W        W98493  33.111   3.225  14.006
26179W        W98494   7.972  14.911   0.789
26180W        W98495  11.793  36.187   9.705
26181W        W98496  28.628  10.897  10.370
26182W        W98497  22.295  11.957  11.635
26183W        W98498  32.390  11.218  12.567
26184W        W98499  28.610   2.781   4.269
26185W        W98500   8.861  26.971   2.712
26186W        W98501  35.948  35.838  11.091
26187W        W98502  14.068  37.033  11.878
26188W        W98503  42.949   1.421  10.848
26189W        W98504  35.910  18.107  13.887
26190W        W98505  21.244  11.778   3.682
26191W        W98506   6.135  15.067   4.740
26192W        W98507   8.721   5.711   0.504
26193W        W98508   1.922  38.741   5.109
26194W        W98509  21.417  14.492  13.526
26195W        W98510   9.397   4.340   1.674
26196W        W98511   0.721  22.906   0.774
26197W        W98512  31.912  37.849  13.688
26198W        W98513  40.431  27.171  10.605
26199W        W98514  24.432   5.076  11.510
26200W        W98515  44.879  40.384  13.664
26201W        W98516  12.296  27.463   3.362
26202W        W98517  20.603  14.096   2.823
26203W        W98518  14.203   0.886  12.502
26204W        W98519   0.267   2.217  14.106
26205W        W98520  12.655  28.507  13.036
26206W        W98521  28.544  41.495   1.401
26207W        W98522   7.103  16.088   2.598
26208W        W98523  41.925  34.900   0.704
26209W        W98524  43.295  13.832   1.846
26210W        W98525   8.978  17.104  12.246
26211W        W98526  10.752  21.968   1.685
26212W        W98527  41.553  16.374  12.433
26213W        W98528   1.001   3.966   1.838
26214W        W98529  25.736  18.201  12.936
26215W        W98530   2.933   4.899   3.551
26216W        W98531  44.466  16.177  12.053
26217W        W98532   3.830  15.242  12.537
26218W        W98533   5.149  27.427  13.432
26219W        W98534  36.880   5.681   1.734
26220W        W98535   9.434   4.388  10.389
26221W        W98536  34.941  32.695   0.440
26222W        W98537  17.863  35.411   2.381
26223W        W98538  22.644  22.990   0.777
26224W        W98539  20.691  36.497   4.492
26225W        W98540  37.906  17.390  13.453
26226W        W98541   0.313   0.699  10.451
26227W        W98542  14.270  21.559   1.328
26228W        W98543  40.182  13.169   4.675
26229W        W98544  16.620  22.210  10.535
26230W        W98545  44.513  44.382  10.714
26231W        W98546   4.820   8.397   3.688
26232W        W98547  18.171  18.971   4.508
26233W        W98548  36.141  40.424   3.765
26234W        W98549   0.395  22.274  12.669
26235W        W98550  25.536   5.699   2.442
26236W        W98551  36.064  18.993   4.526
26237W        W98552  17.143  23.507  10.117
26238W        W98553  29.115  42.612  11.774
26239W        W98554  13.912  13.111   0.380
26240W        W98555   5.843  40.375   2.771
26241W        W98556  14.562  14.800   4.268
26242W        W98557  27.913  10.619   4.249
26243W        W98558   7.187   3.400  11.191
26244W        W98559  36.752  25.011   9.723
26245W        W98560  17.658  34.100  12.923
26246W        W98561   3.169   2.287   4.202
26247W        W98562  25.455  36.236  13.321
26248W        W98563  27.572   8.259  10.518
26249W        W98564  41.381  25.736   0.218
26250W        W98565   3.391  12.631   2.796
26251W        W98566  30.349  42.363  12.343
26252W        W98567   9.722  30.987   2.326
26253W        W98568  35.456   4.773  12.938
26254W        W98569  25.127   7.714   0.159
26255W        W98570  32.515  10.538   4.898
26256W        W98571   3.885  39.938   0.009
26257W        W98572  37.733  15.608   0.509
26258W        W98573   4.637   6.931   0.821
26259W        W98574  23.500  44.578  12.556
26260W        W98575   9.123   9.436  11.198
26261W        W98576  40.492  25.051  13.708
26262W        W98577  10.801  18.056   0.204
26263W        W98578  25.065  23.748  13.322
26264W        W98579  24.758  33.477   3.355
26265W        W98580  18.693  28.454  14.383
26266W        W98581  11.863   1.508  11.981
26267W        W98582   7.305  11.311   4.220
26268W        W98583  42.557   9.168  14.844
26269W        W98584   3.325  27.663  13.672
26270W        W98585  11.824  36.226   0.119
26271W        W98586  34.583   3.507  10.755
26272W        W98587  13.736  17.551   3.103
26273W        W98588  26.018  44.481  14.374
26274W        W98589  34.098  42.722  11.505
26275W        W98590  10.364   2.201  14.456
26276W        W98591  14.866  33.028   2.592
26277W        W98592   2.923  44.208  14.484
26278W        W98593   6.290  13.781  10.344
26279W        W98594  14.196  39.759  14.059
26280W        W98595  32.397  24.072   1.613
26281W        W98596   7.400  30.694   5.138
26282W        W98597  25.548  13.333   1.288
26283W        W98598  26.601  32.748  11.257
26284W        W98599  23.073  22.767  13.621
26285W        W98600   9.405   0.175   0.369
26286W        W98601  44.760  15.774   4.682
26287W        W98602  18.776   9.310  10.959
26288W        W98603  39.692  37.300  14.750
26289W        W98604   8.113  35.364  14.557
26290W        W98605  19.709   8.231   3.206
26291W        W98606  39.142  29.935  13.929
26292W        W98607   5.286  23.770   4.185
26293W        W98608  14.704  41.402  10.708
26294W        W98609  44.303  14.669   1.371
26295W        W98610  22.012  21.395   5.096
26296W        W98611  43.261  23.007   3.155
26297W        W98612  24.087  15.923  13.801
26298W        W98613  21.396  23.762  14.498
26299W        W98614  35.160  44.193   3.189
26300W        W98615  42.164  41.772   0.522
26301W        W98616  13.260  18.484   4.544
26302W        W98617  22.520  33.641   4.575
26303W        W98618  32.565  41.764   1.257
26304W        W98619   8.200  43.427  12.588
26305W        W98620   9.468  27.052  13.889
26306W        W98621  36.056  21.013   1.305
26307W        W98622  34.431   0.650  12.029
26308W        W98623   2.718  20.638  14.192
26309W        W98624  14.711  27.438  13.520
26310W        W98625   3.095  35.353  13.492
26311W        W98626  42.497  32.904  13.447
26312W        W98627  33.128  32.467   2.420
26313W        W98628   4.534  38.922   0.137
26314W        W98629   6.480  40.790   1.890
26315W        W98630  15.907  17.529   1.800
26316W        W98631  17.535  30.114   4.105
26317W        W98632   0.451  33.671  14.955
26318W        W98633  34.824  40.969  11.015
26319W        W98634  23.169  18.646  12.305
26320W        W98635  43.771  37.619   2.793
26321W        W98636  28.211  22.842   0.421
26322W        W98637  44.301  29.686  11.044
26323W        W98638  34.919  12.905  13.527
26324W        W98639  25.264  11.154  11.147
26325W        W98640  24.213  13.605  13.550
26326W        W98641  22.983  29.093   0.200
26327W        W98642  32.836  14.739   0.026
26328W        W98643  10.680  18.623  12.079
26329W        W98644  23.168  40.096  10.815
26330W        W98645  36.432  39.878  13.029
26331W        W98646  28.240   5.588   5.763
26332W        W98647   1.733   0.323   0.466
26333W        W98648   0.848  14.517  14.885
26334W        W98649   5.483  42.537   0.199
26335W        W98650   4.116   0.745  10.069
26336W        W98651   5.994  34.523   1.277
26337W        W98652  21.414  34.442   0.370
26338W        W98653   6.883  10.827   0.349
26339W        W98654  24.925  38.304   1.831
26340W        W98655  14.768  22.700   3.356
26341W        W98656  22.483  15.620  11.343
26342W        W98657  25.370  38.829   5.362
26343W        W98658  28.656  35.592  12.643
26344W        W98659  31.073  39.115   1.031
26345W        W98660  43.396  39.342   0.363
26346W        W98661  43.279   0.926   3.053
26347W        W98662  35.585  20.607  14.799
26348W        W98663   2.852  16.484   3.283
26349W        W98664  28.670  43.926   3.319
26350W        W98665  11.269  15.933  10.088
26351W        W98666  29.989   0.077  12.880
26352W        W98667  20.411   0.412   4.028
26353W        W98668  24.637   7.841   2.821
26354W        W98669  28.173  19.279   3.785
26355W        W98670  32.761  18.833  11.141
26356W        W98671  20.505  43.736   3.751
26357W        W98672  25.975   7.710  11.400
26358W        W98673  12.602  36.088  11.121
26359W        W98674  20.825  37.031   4.417
26360W        W98675  36.054  27.625  13.445
26361W        W98676  42.851  17.643   4.245
26362W        W98677  38.796  36.341   4.823
26363W        W98678   6.771  33.375   0.876
26364W        W98679   8.299  30.196   0.975
26365W        W98680  14.681  42.894   0.056
26366W        W98681  22.960  23.658   9.987
26367W        W98682  28.647  11.312   3.227
26368W        W98683   2.816  44.157  13.063
26369W        W98684  20.725  19.081   0.456
26370W        W98685  20.800  41.857   0.008
26371W        W98686  41.269  36.680   3.768
26372W        W98687  36.815  31.768   3.683
26373W        W98688  31.872   0.960   4.149
26374W        W98689  41.921  14.336   1.021
26375W        W98690  10.122  35.994   1.476
26376W        W98691  35.957  36.925  13.092
26377W        W98692  39.201   4.763  10.774
26378W        W98693  17.556  34.401   4.921
26379W        W98694  30.094  31.529  13.041
26380W        W98695  42.896   6.706   1.792
26381W        W98696  17.323  41.771  14.915
26382W        W98697  11.154  23.259   3.693
26383W        W98698  10.452   7.797   0.273
26384W        W98699   7.460   8.153  13.289
26385W        W98700  19.050  24.245   3.381
26386W        W98701  31.860  16.559  14.026
26387W        W98702  19.781  39.385   3.776
26388W        W98703  23.819   6.786   0.865
26389W        W98704   4.692  25.566  13.915
26390W        W98705  12.674   9.922   2.319
26391W        W98706  41.444  28.761   4.322
26392W        W98707  13.807   6.070  14.480
26393W        W98708  24.433  40.589  11.703
26394W        W98709  16.123  15.925  14.072
26395W        W98710  43.251  41.979   0.449
26396W        W98711  33.978   2.766   3.668
26397W        W98712  29.652  11.933  13.872
26398W        W98713  37.936  15.193   4.659
26399W        W98714  12.375  36.038  11.612
26400W        W98715   8.534  42.107  11.971
26401W        W98716  23.012  22.499   3.602
26402W        W98717   7.676  15.785  14.877
26403W        W98718  22.686  39.783   2.328
26404W        W98719  16.661  28.550   4.540
26405W        W98720  22.494  32.062  10.989
26406W        W98721  41.513   1.521  12.631
26407W        W98722  33.891  26.104   0.831
26408W        W98723  39.080  29.957  10.677
26409W        W98724  16.569  38.021   3.258
26410W        W98725   6.893  27.670   3.552
26411W        W98726  12.158   8.139  12.779
26412W        W98727  26.025  42.232  14.824
26413W        W98728  18.151  40.932   4.681
26414W        W98729  34.924  30.514   1.922
26415W        W98730  33.442  30.727   4.243
26416W        W98731  12.637  43.002   4.243
26417W        W98732   6.460  29.008   3.900
26418W        W98733  37.595  22.098  14.107
26419W        W98734  35.395  41.832  14.970
26420W        W98735  12.593  27.083   3.094
26421W        W98736  24.470  17.118  12.382
26422W        W98737  29.711  37.116   3.274
26423W        W98738  36.331  35.628  11.968
26424W        W98739   4.809  27.702  14.721
26425W        W98740  24.709  27.592   1.757
26426W        W98741  36.832   8.193  13.861
26427W        W98742  32.234  15.528   5.149
26428W        W98743  42.991  20.298  12.152
26429W        W98744  25.522  25.972   1.667
26430W        W98745  18.573  20.854   1.770
26431W        W98746   3.604  35.501  13.395
26432W        W98747  14.528  31.791   4.151
26433W        W98748  17.537   8.180  14.210
26434W        W98749   2.543   7.215   2.891
26435W        W98750  29.188  17.496  12.490
26436W        W98751  27.270  28.680  12.445
26437W        W98752  17.088  40.433   1.753
26438W        W98753  25.034   6.248   0.781
26439W        W98754  22.699  37.585   1.439
26440W        W98755  12.131  43.872   1.972
26441W        W98756  41.427  13.618  11.114
26442W        W98757  27.671  20.068   3.744
26443W        W98758   2.089  33.093  14.423
26444W        W98759  34.892  26.571   0.454
26445W        W98760  33.682  28.445   2.367
26446W        W98761  19.972  19.378  14.215
26447W        W98762   2.258   9.709   0.296
26448W        W98763   5.640  31.023   3.182
26449W        W98764  22.216  38.969   2.275
26450W        W98765  20.948   7.776  12.873
26451W        W98766  24.403  11.435  13.569
26452W        W98767  22.993  22.707  12.322
26453W        W98768  38.609   9.198   4.292
26454W        W98769  28.390  41.458  13.557
26455W        W98770  31.616  27.626   0.041
26456W        W98771  37.092  41.007  12.861
26457W        W98772  10.974  40.974   2.349
26458W        W98773  17.569  11.187   2.180
26459W        W98774  19.291  11.705   4.989
26460W        W98775  23.019  44.046   2.274
26461W        W98776  26.494  39.711  14.418
26462W        W98777  29.648  14.100   2.710
26463W        W98778   2.714  20.622   3.357
26464W        W98779  20.369  38.233   2.070
26465W        W98780  11.277   8.280  12.684
26466W        W98781  10.632   8.365  11.182
26467W        W98782  25.842  34.880  14.956
26468W        W98783  24.330  30.964   4.115
26469W        W98784   0.019  39.294  14.907
26470W        W98785   3.529  35.915   1.400
26471W        W98786  14.740   7.357   2.194
26472W        W98787  12.589  38.430   1.955
26473W        W98788  23.199  35.878  11.704
26474W        W98789   5.910   5.404   0.957
26475W        W98790  15.739   3.827   0.357
26476W        W98791   2.474  38.592   4.514
26477W        W98792  22.573  18.114  13.306
26478W        W98793  37.017   2.787  12.947
26479W        W98794   7.393  43.503   0.125
26480W        W98795  30.682  28.510  11.132
26481W        W98796  43.006  17.550  11.974
26482W        W98797   9.837  14.310   1.945
26483W        W98798  37.940  18.041  14.279
26484W        W98799  34.623   1.497  12.552
26485W        W98800  38.952  20.804   0.755
26486W        W98801  23.568  21.950   4.126
26487W        W98802  17.633   9.231   4.818
26488W        W98803   0.136  32.363  12.953
26489W        W98804  22.478  43.311   0.845
26490W        W98805  21.551  27.549  11.966
26491W        W98806  12.616  36.870  13.599
26492W        W98807  35.098   6.914  14.425
26493W        W98808  26.530   2.039   2.417
26494W        W98809   9.895  18.644  10.182
26495W        W98810  27.736  16.672   4.437
26496W        W98811   1.156  33.897   4.140
26497W        W98812  13.928  35.558  14.597
26498W        W98813  16.646  44.620  14.248
26499W        W98814  25.052  28.700   2.286
26500W        W98815   0.283  34.395  10.581
26501W        W98816  40.836  43.056   2.287
26502W        W98817   0.893  39.402   3.339
26503W        W98818  33.050  37.835  12.637
26504W        W98819   0.435  40.210   0.465
26505W        W98820   1.984   8.217  12.428
26506W        W98821   0.006   1.617   4.612
26507W        W98822   0.770  21.202  10.918
26508W        W98823   3.013  23.601   1.205
26509W        W98824  31.924  35.151  13.102
26510W        W98825   9.799  27.003   2.480
26511W        W98826  40.961  20.105   1.938
26512W        W98827  30.887  37.049   1.572
26513W        W98828  19.118  17.841   2.610
26514W        W98829  18.331  44.189   2.286
26515W        W98830  44.772   9.374   5.006
26516W        W98831  40.838  30.687  13.836
26517W        W98832   9.800  10.067   2.159
26518W        W98833   2.326  36.107  10.679
26519W        W98834  32.896  18.554   4.149
26520W        W98835  31.524  37.205  11.972
26521W        W98836  43.478  29.900  13.496
26522W        W98837   9.227  32.976   1.189
26523W        W98838  23.957   4.973   2.245
26524W        W98839  21.239  22.562  12.307
26525W        W98840  23.484  12.494  13.378
26526W        W98841  33.066   8.937   4.866
26527W        W98842   5.980  35.536  12.133
26528W        W98843  43.408  11.264   9.912
26529W        W98844  32.564  18.345  11.092
26530W        W98845  37.001  43.009   4.346
26531W        W98846  43.926  27.639   1.780
26532W        W98847  16.294  44.665   2.307
26533W        W98848   4.655   5.262   1.871
26534W        W98849  34.855   6.725   0.889
26535W        W98850  34.868   7.209  14.808
26536W        W98851  12.679  15.352   4.768
26537W        W98852  24.541  33.450  12.945
26538W        W98853   9.687  39.503  14.277
26539W        W98854  36.433  37.124  12.351
26540W        W98855  11.265  40.256   1.752
26541W        W98856   1.875   8.675   1.285
26542W        W98857  39.680  41.397  11.137
26543W        W98858  42.887  30.906  10.428
26544W        W98859  40.867  30.884   4.345
26545W        W98860   1.883   3.374   1.830
26546W        W98861  43.056   9.371  14.847
26547W        W98862   6.885  20.700   4.406
26548W        W98863  37.424  12.131   1.437
26549W        W98864  38.103   4.231   2.724
26550W        W98865  38.095  36.759   1.251
26551W        W98866  19.526  29.949  14.734
26552W        W98867  17.344   8.728  11.567
26553W        W98868  21.149  17.329  11.230
26554W        W98869  17.994  23.465   2.121
26555W        W98870  39.420   5.948   4.803
26556W        W98871  30.912  11.093   2.298
26557W        W98872  36.466  11.300   0.559
26558W        W98873  25.168  20.477   5.098
26559W        W98874   8.871  33.941   3.637
26560W        W98875  33.948  32.146  14.551
26561W        W98876  30.854  24.555  11.528
26562W        W98877  27.955  35.064  13.863
26563W        W98878  30.921  24.488   4.127
26564W        W98879  18.591  27.539   2.620
26565W        W98880   9.789   2.733  10.576
26566W        W98881  19.060  39.908   1.392
26567W        W98882  28.794  37.282  12.795
26568W        W98883  20.825  15.052   2.633
26569W        W98884  13.875   4.850  13.294
26570W        W98885  26.546  32.163   1.681
26571W        W98886   5.330  13.390   3.391
26572W        W98887  23.002   7.213  13.312
26573W        W98888   6.267  16.814  13.826
26574W        W98889  38.973   8.725  11.538
26575W        W98890   3.528  16.634   1.411
26576W        W98891   0.547  15.817  14.414
26577W        W98892  30.160  29.249   1.386
26578W        W98893  38.986  28.621  11.195
26579W        W98894  18.939  40.501  12.892
26580W        W98895  43.412   1.918   3.348
26581W        W98896  22.982  31.339  11.383
26582W        W98897  12.731   7.687   4.146
26583W        W98898  17.107  44.584  12.022
26584W        W98899  43.947   7.521  13.032
26585W        W98900  42.496   5.338   3.373
26586W        W98901  22.594   4.796  14.772
26587W        W98902  40.527  13.330   1.377
26588W        W98903  23.658  29.518   2.839
26589W        W98904  35.024  16.495   4.203
26590W        W98905   4.860  21.620  12.152
26591W        W98906  35.413   6.330  10.663
26592W        W98907   8.650  33.018  12.960
26593W        W98908  15.683  16.693  11.391
26594W        W98909  35.252  10.768   2.953
26595W        W98910  11.693  12.729   4.665
26596W        W98911  14.846  28.695  11.396
26597W        W98912  32.587  36.936  12.958
26598W        W98913   6.068   9.710   0.682
26599W        W98914  13.364  39.326  10.604
26600W        W98915  40.369  35.117  12.887
26601W        W98916  43.820  14.173   4.565
26602W        W98917  23.081  28.845   2.304
26603W        W98918  33.381  15.315   1.928
26604W        W98919  20.316  12.580  12.870
26605W        W98920  18.501  27.143   1.339
26606W        W98921   1.775  24.999  10.564
26607W        W98922  21.239  43.557  14.615
26608W        W98923  24.140  31.691  12.949
26609W        W98924  14.545  25.638   2.797
26610W        W98925  29.610   3.682  14.003
26611W        W98926  32.327  36.285  13.545
26612W        W98927  23.021  19.439  10.229
26613W        W98928   2.967  24.790   1.455
26614W        W98929  24.443  13.547  10.877
26615W        W98930  41.136  38.851   0.464
26616W        W98931  18.755  39.234   3.258
26617W        W98932  34.576  31.073   0.968
26618W        W98933  41.256  42.905   4.614
26619W        W98934  31.897  25.983  11.618
26620W        W98935  34.440   3.337   2.618
26621W        W98936   3.115  13.393  11.107
26622W        W98937  25.221  18.182  11.216
26623W        W98938  19.066  44.392   4.688
26624W        W98939  40.780   7.840   4.383
26625W        W98940  21.959  42.462  12.146
26626W        W98941  31.576  19.168  10.986
26627W        W98942  31.145  37.432  14.309
26628W        W98943  13.378  25.087  10.831
26629W        W98944  39.043   5.087  12.432
26630W        W98945  14.069  24.596  14.790
26631W        W98946  33.598  29.616  10.459
26632W        W98947  13.364  39.428   1.490
26633W        W98948   8.684  18.783   0.320
26634W        W98949  20.276   9.337   3.265
26635W        W98950  13.816  20.980  13.966
26636W        W98951  27.203  19.052  11.622
26637W        W98952  20.123  40.387  11.158
26638W        W98953  20.819  35.059  14.497
26639W        W98954  22.479  39.381   2.083
26640W        W98955  14.602   1.458   1.414
26641W        W98956  16.001  24.095   4.577
26642W        W98957  28.044  44.616  14.871
26643W        W98958  17.058  16.630   0.001
26644W        W98959  20.741  35.547  14.769
26645W        W98960  32.200  13.764   0.875
26646W        W98961  24.973  25.880  14.523
26647W        W98962  37.567  29.047   0.157
26648W        W98963  30.705  10.721  13.676
26649W        W98964  16.096   9.151  13.120
26650W        W98965   3.299  21.713   4.317
26651W        W98966  23.094   0.889   2.620
26652W        W98967  26.261  26.079  14.887
26653W        W98968  42.555  15.692   1.427
26654W        W98969  15.841   1.483  14.895
26655W        W98970  38.797  40.420   2.133
26656W        W98971  41.749  36.466  11.002
26657W        W98972  40.915  21.874   0.574
26658W        W98973   1.715  18.974   3.772
26659W        W98974   3.424  20.244  10.696
26660W        W98975  42.571  22.012   4.119
26661W        W98976  16.086  12.294  11.580
26662W        W98977  13.513  26.463   0.011
26663W        W98978   5.328  17.963  10.775
26664W        W98979   6.654  16.589  12.023
26665W        W98980  23.448  30.099   0.406
26666W        W98981  14.632   9.902  11.043
26667W        W98982  29.421   4.632  14.058
26668W        W98983  24.065  15.030   0.434
26669W        W98984  34.603  33.861   0.423
26670W        W98985  44.504  16.788  11.226
26671W        W98986   3.910  19.359  11.621
26672W        W98987  28.838   3.546   3.224
26673W        W98988   8.371  11.921  11.594
26674W        W98989  23.470  12.641  10.715
26675W        W98990  34.898   7.264  10.980
26676W        W98991  13.607   7.960   1.697
26677W        W98992   3.486  29.561  10.804
26678W        W98993  43.095  17.829   4.664
26679W        W98994  14.334  26.224   4.615
26680W        W98995  10.533  27.396   3.786
26681W        W98996  38.408  19.046   0.188
26682W        W98997   1.868  42.581   3.159
26683W        W98998  17.982   0.798  12.321
26684W        W98999  20.676  20.686  14.930
26685W        W99000   0.334   1.175  10.653
26686W        W99001  26.994  15.528  11.646
26687W        W99002  21.067  44.678  12.485
26688W        W99003   8.190  18.086  13.338
26689W        W99004   9.752  41.551   3.254
26690W        W99005  41.291  38.173  11.588
26691W        W99006  26.174  35.827   3.729
26692W        W99007  28.183  14.608  10.353
26693W        W99008   9.871  15.263   3.321
26694W        W99009  21.931  29.122  11.601
26695W        W99010  39.308  30.698   0.846
26696W        W99011  27.234   9.614   3.629
26697W        W99012  31.861  12.402  14.827
26698W        W99013  21.171  34.578   3.150
26699W        W99014  34.673   6.891  11.676
26700W        W99015  43.807  15.737  14.550
26701W        W99016   2.872  10.869  10.877
26702W        W99017  32.958  17.426  10.649
26703W        W99018   4.506   9.523   3.779
26704W        W99019  33.865  41.033   0.840
26705W        W99020  32.085   7.442   0.193
26706W        W99021  13.437  23.981   1.937
26707W        W99022  16.741  18.201   9.870
26708W        W99023  43.707   9.722   1.377
26709W        W99024  14.181  28.536   4.708
26710W        W99025   9.777   0.459  12.596
26711W        W99026  21.703  38.525   0.083
26712W        W99027   6.332  26.710   3.931
26713W        W99028  37.945  31.159  11.078
26714W        W99029  17.620   3.552  14.916
26715W        W99030  30.699  18.645  14.914
26716W        W99031   7.951  20.524   1.317
26717W        W99032  31.933  11.607  13.785
26718W        W99033  28.059  17.786  13.395
26719W        W99034  25.981   4.441  12.413
26720W        W99035  12.135  35.813  12.931
26721W        W99036  28.956  42.549   1.472
26722W        W99037  15.672  19.040   0.899
26723W        W99038  39.205   8.506  10.065
26724W        W99039  30.152  17.178   3.284
26725W        W99040  32.444  41.008  13.866
26726W        W99041   5.921   0.897  13.005
26727W        W99042   8.397   0.781  13.973
26728W        W99043  42.813  16.026  11.126
26729W        W99044  24.086  38.762  11.904
26730W        W99045  20.879   9.364   5.019
26731W        W99046  43.459  19.691   0.170
26732W        W99047  16.204  44.394   1.424
26733W        W99048  26.459  37.069  13.037
26734W        W99049  13.608  21.319   4.623
26735W        W99050  26.654   7.258  10.158
26736W        W99051  28.567  11.363  13.818
26737W        W99052   1.932  39.546  10.554
26738W        W99053   4.010   3.045   3.377
26739W        W99054   5.893  37.326   3.265
26740W        W99055  24.847  42.387  12.333
26741W        W99056   4.165  17.079  14.355
26742W        W99057  38.207  44.911   2.777
26743W        W99058  29.604  41.974  10.672
26744W        W99059  34.629  10.309  14.473
26745W        W99060   6.441  18.787  10.760
26746W        W99061   2.474  16.911   5.038
26747W        W99062  35.545  29.623   2.540
26748W        W99063  19.234   7.636   4.300
26749W        W99064   2.145  18.158  14.028
26750W        W99065  31.473   7.934   1.807
26751W        W99066  39.969  12.503  10.651
26752W        W99067   7.224  35.754  11.675
26753W        W99068  36.720  22.710  10.504
26754W        W99069  20.756  33.894   1.890
26755W        W99070  44.538  17.340  13.557
26756W        W99071  41.914  26.876  10.444
26757W        W99072  27.862  26.699   4.429
26758W        W99073  42.559  37.056  12.354
26759W        W99074  27.190  14.968   3.146
26760W        W99075  40.310  20.695  13.932
26761W        W99076  28.453  18.090  10.951
26762W        W99077   6.966  36.179   3.562
26763W        W99078   4.055  22.600  12.735
26764W        W99079   7.924   4.732  11.777
26765W        W99080   2.321  33.089   4.616
26766W        W99081  27.109  15.710  14.086
26767W        W99082  29.236  28.605  10.696
26768W        W99083   6.860  40.433  11.271
26769W        W99084  43.480  32.647  14.577
26770W        W99085   2.959  10.666  12.334
26771W        W99086   5.587   4.852  13.359
26772W        W99087  24.023  38.422  13.913
26773W        W99088   0.875  20.131  11.906
26774W        W99089   2.169  28.026  14.476
26775W        W99090  37.826  30.893   0.709
26776W        W99091  22.312   6.436   0.417
26777W        W99092  18.635  36.922  12.858
26778W        W99093  20.603   8.864   0.197
26779W        W99094  40.818  31.008   2.411
26780W        W99095  19.008   0.003   1.959
26781W        W99096   3.656  16.261   1.802
26782W        W99097  25.589  38.157  14.230
26783W        W99098  42.129   7.182   3.761
26784W        W99099  14.628  24.950   1.897
26785W        W99100  41.757  15.032   4.996
26786W        W99101  31.159   7.211  12.342
26787W        W99102  10.597  34.375   0.456
26788W        W99103  10.448  17.611   4.372
26789W        W99104  25.020  25.270  12.672
26790W        W99105  22.857  13.399  11.648
26791W        W99106   2.919  24.139  11.840
26792W        W99107  12.327  11.132  14.985
26793W        W99108  10.640  25.771  14.507
26794W        W99109   2.767  20.584  13.300
26795W        W99110  17.754   4.000   2.335
26796W        W99111  33.045  12.727   3.331
26797W        W99112  42.930  42.977   0.016
26798W        W99113  28.157  31.986   3.976
26799W        W99114  37.973  27.367  11.907
26800W        W99115  31.520  28.342  14.334
26801W        W99116   0.655   6.989   3.540
26802W        W99117  23.502  32.137   2.894
26803W        W99118  21.087  22.071   1.273
26804W        W99119  35.647   8.448  14.852
26805W        W99120  32.986  35.286  10.741
26806W        W99121  17.687   3.205   3.710
26807W        W99122  40.737  18.278  10.502
26808W        W99123  37.408  17.547  13.583
26809W        W99124  31.070  38.575  11.191
26810W        W99125   0.569  19.719   0.754
26811W        W99126  15.815  29.188   1.416
26812W        W99127   4.394  38.445  14.258
26813W        W99128  30.437  24.940   1.005
26814W        W99129  21.550   0.401  13.343
26815W        W99130   8.466  33.879   4.559
26816W        W99131   0.849  35.572   0.542
26817W        W99132   7.489  44.547   4.148
26818W        W99133  42.495   4.925   0.483
26819W        W99134  20.512  23.569  12.625
26820W        W99135  30.831  37.608  10.603
26821W        W99136   8.686   8.228   1.222
26822W        W99137  26.687  41.625   1.805
26823W        W99138   6.210  30.123  12.487
26824W        W99139  39.339  25.527   1.535
26825W        W99140  29.137  24.729  13.471
26826W        W99141  37.375  28.262   4.185
26827W        W99142  30.420  33.805   0.386
26828W        W99143   2.755  16.059   1.760
26829W        W99144  35.376   4.215   3.207
26830W        W99145  21.246  21.779  11.152
26831W        W99146  10.621   8.285   0.320
26832W        W99147  43.896  14.702   4.355
26833W        W99148  36.882   4.693   4.345
26834W        W99149   9.580  34.436  14.472
26835W        W99150   4.463  41.567  10.300
26836W        W99151  12.671  32.192   4.789
26837W        W99152  34.180  17.576   4.898
26838W        W99153  40.316  32.620  10.605
26839W        W99154  17.715  41.056  12.479
26840W        W99155  14.852  40.448   3.273
26841W        W99156  25.489  34.100  13.635
26842W        W99157  33.535   7.227  10.301
26843W        W99158   8.473  43.004  11.969
26844W        W99159   7.938  43.382   0.224
26845W        W99160   9.804   1.962   2.297
26846W        W99161  11.504   2.041   2.658
26847W        W99162  31.481   8.078  12.034
26848W        W99163  12.604  31.568  14.031
26849W        W99164  27.730  28.846   0.837
26850W        W99165  27.719   1.017   0.708
26851W        W99166  21.079  42.562   4.583
26852W        W99167  43.356  36.484   0.822
26853W        W99168   9.367  20.578   0.304
26854W        W99169  40.843  24.159   0.661
26855W        W99170  20.107  32.159  10.083
26856W        W99171   5.450  37.586   3.175
26857W        W99172   5.109  42.726  14.818
26858W        W99173  43.292  34.891   1.585
26859W        W99174  39.512  17.512  12.921
26860W        W99175  39.475  37.584   1.225
26861W        W99176  37.327  36.547   1.969
26862W        W99177  16.115  24.071  12.824
26863W        W99178  14.196  32.037   4.941
26864W        W99179   5.669  44.445  12.121
26865W        W99180  16.985  34.306  11.056
26866W        W99181  28.797  33.056   3.532
26867W        W99182  15.540  31.257  12.132
26868W        W99183  37.815   9.999   3.143
26869W        W99184  31.515  43.944   4.148
26870W        W99185  22.272  14.167   2.208
26871W        W99186  15.551  15.865   3.289
26872W        W99187  39.185  11.679  10.839
26873W        W99188  32.934  32.400   1.096
26874W        W99189  32.341  12.583   4.000
26875W        W99190  29.489  32.860  14.329
26876W        W99191  12.889  23.812  11.278
26877W        W99192  20.020  14.233   2.288
26878W        W99193   6.902  29.051  14.017
26879W        W99194  17.123   9.644  14.836
26880W        W99195  29.116  15.748  13.622
26881W        W99196  28.274  36.689  13.001
26882W        W99197  27.905  31.516   1.188
26883W        W99198  23.252  11.982   2.337
26884W        W99199  12.718  15.535  14.489
26885W        W99200  42.454  13.277  12.348
26886W        W99201   0.224  37.480  12.742
26887W        W99202  28.041  39.571  11.304
26888W        W99203  39.938  15.411  12.408
26889W        W99204   0.259  37.156   0.916
26890W        W99205  22.520  31.550   4.360
26891W        W99206   7.144   8.225   1.327
26892W        W99207  43.463   9.803   0.918
26893W        W99208  42.905  31.984  10.972
26894W        W99209  12.591  10.811  13.063
26895W        W99210   6.649  30.904   4.119
26896W        W99211   3.809   3.531   0.869
26897W        W99212   2.745  30.629   1.177
26898W        W99213  26.231  37.078  10.554
26899W        W99214  18.019  26.915   3.159
26900W        W99215  24.641  11.788   0.432
26901W        W99216  30.092   1.083   3.700
26902W        W99217   1.294   2.726  10.620
26903W        W99218  38.021  40.474  12.929
26904W        W99219  19.033  34.173  13.460
26905W        W99220   1.492  42.836  13.813
26906W        W99221  39.953  28.448   0.707
26907W        W99222  41.818  14.837  11.712
26908W        W99223  17.120  28.601   3.783
26909W        W99224  31.653  34.092  11.860
26910W        W99225  32.269  36.476  14.021
26911W        W99226  33.571  36.447  14.429
26912W        W99227   6.005  38.556  13.351
26913W        W99228  30.407  34.622  11.549
26914W        W99229  26.603  44.702   0.473
26915W        W99230   4.228  32.508   2.418
26916W        W99231  32.640  16.530   2.766
26917W        W99232  37.873  42.013   2.763
26918W        W99233   3.423  19.522  13.821
26919W        W99234  42.064  24.724   2.005
26920W        W99235  40.170  29.418   1.759
26921W        W99236  26.702   4.224  10.182
26922W        W99237  23.005  29.473  14.819
26923W        W99238  17.671   2.969   4.178
26924W        W99239  44.988   1.303  12.070
26925W        W99240  30.162  43.520   4.248
26926W        W99241  26.949  21.575  12.930
26927W        W99242   9.602   9.222   2.702
26928W        W99243  31.675  17.766  13.312
26929W        W99244  27.470  41.824   2.219
26930W        W99245  36.227  31.879   4.209
26931W        W99246  38.852  16.300   2.629
26932W        W99247  16.690  35.922   1.630
26933W        W99248  17.275  16.138   3.229
26934W        W99249  12.628  29.042  10.659
26935W        W99250  44.647  31.009  10.205
26936W        W99251  22.564   4.702   4.878
26937W        W99252   4.359  33.501  10.620
26938W        W99253   7.710  32.904  13.350
26939W        W99254  44.553  40.778  13.806
26940W        W99255  39.773   1.873   0.406
26941W        W99256  12.610  12.862  11.111
26942W        W99257  20.754  11.160   3.189
26943W        W99258  43.397  27.553  14.823
26944W        W99259  16.604  18.486   3.785
26945W        W99260  20.602  43.820   1.162
26946W        W99261  40.840  11.978   4.615
26947W        W99262   1.440   7.830   4.707
26948W        W99263   5.953  18.037   3.396
26949W        W99264  37.131  36.144  10.311
26950W        W99265  41.365  37.455   0.825
26951W        W99266  39.274  12.681   3.907
26952W        W99267  23.106   9.403   4.187
26953W        W99268   0.427  24.657   0.760
26954W        W99269  33.335   1.247  12.912
26955W        W99270  29.424  25.503  10.760
26956W        W99271  13.705  10.878   4.323
26957W        W99272  27.187  30.385  12.856
26958W        W99273  23.577  43.421   0.025
26959W        W99274  29.771  25.430  13.966
26960W        W99275  44.243  37.187  14.290
26961W        W99276   3.804  36.450   1.202
26962W        W99277  11.552  19.920   5.197
26963W        W99278  38.641  42.943  12.822
26964W        W99279  24.012  18.986  13.640
26965W        W99280  37.397   2.926  13.278
26966W        W99281  35.936  23.276  10.742
26967W        W99282  32.152  35.991   0.909
26968W        W99283  33.782  17.618   3.628
26969W        W99284  22.713  28.555   0.337
26970W        W99285  41.791  21.227   2.709
26971W        W99286  40.566  19.131  10.474
26972W        W99287  21.582  40.751   4.616
26973W        W99288  31.923  24.340   0.262
26974W        W99289  29.306  29.904  12.524
26975W        W99290  10.786  16.032   4.219
26976W        W99291  32.444  27.476   0.858
26977W        W99292  26.158  15.145  10.832
26978W        W99293  27.450   5.438  10.706
26979W        W99294   5.743  30.380   4.320
26980W        W99295  28.422  10.406   1.173
26981W        W99296  10.897  23.734   2.153
26982W        W99297  39.396   3.385   4.535
26983W        W99298  15.091  23.133   0.299
26984W        W99299  40.919  41.986   1.682
26985W        W99300  42.274  24.461   4.070
26986W        W99301  22.845  20.160   2.942
26987W        W99302  28.773  25.238   4.634
26988W        W99303  42.067  39.439   3.696
26989W        W99304   1.808  12.136   1.438
26990W        W99305  20.053   3.532  11.150
26991W        W99306  41.204  24.194  10.666
26992W        W99307   9.506  42.017  13.016
26993W        W99308  27.062   5.399  12.759
26994W        W99309   8.233  29.765  14.366
26995W        W99310   0.990  25.594  13.999
26996W        W99311  40.230  38.095   2.102
26997W        W99312  12.384  40.564  12.496
26998W        W99313  33.400  35.003  11.986
26999W        W99314  30.449  23.765  11.310
27000W        W99315  24.684   2.227  13.347
27001W        W99316  35.399   2.609   4.517
27002W        W99317  32.702  33.697   0.406
27003W        W99318   9.273  37.282   1.410
27004W        W99319  24.583  25.560   4.841
27005W        W99320  20.643   2.993  12.427
27006W        W99321  26.220  12.373  10.601
27007W        W99322   3.300  41.103  13.708
27008W        W99323   3.144  22.399  12.371
27009W        W99324  44.945  22.989  14.887
27010W        W99325   8.802  44.036   3.698
27011W        W99326  39.621  22.522  14.292
27012W        W99327  25.236  30.858  10.642
27013W        W99328  22.740  17.841   4.581
27014W        W99329  10.444  28.611  10.944
27015W        W99330   5.342  20.778  14.344
27016W        W99331  14.657  10.797  10.579
27017W        W99332   2.914   5.781   2.087
27018W        W99333  28.652  36.775   3.837
27019W        W99334  21.188  26.624   0.395
27020W        W99335   8.700   3.371   4.115
27021W        W99336  19.493  16.864  10.067
27022W        W99337  16.799  31.553  10.542
27023W        W99338  22.543  19.238   5.259
27024W        W99339  26.902   9.813   0.019
27025W        W99340   7.512  26.303   4.162
27026W        W99341   2.637  18.735   2.146
27027W        W99342  32.455   8.589  14.314
27028W        W99343  19.501  44.013  13.290
27029W        W99344  24.949   2.431   0.178
27030W        W99345  12.522   3.868   4.932
27031W        W99346  10.871  12.584  14.907
27032W        W99347   8.988  26.656  11.166
27033W        W99348   3.294  21.230  14.627
27034W        W99349   5.623  25.020  10.946
27035W        W99350  22.640   7.905   1.270
27036W        W99351  22.326  39.858  12.877
27037W        W99352  33.212  30.883   3.800
27038W        W99353  22.299  15.192  11.563
27039W        W99354  20.672   4.276  13.044
27040W        W99355  25.408  22.810   2.272
27041W        W99356  43.820  34.192  12.640
27042W        W99357  10.905   1.763   4.345
27043W        W99358  22.174  27.854   0.515
27044W        W99359   1.120  36.879  14.338
27045W        W99360  28.075  32.935  10.392
27046W        W99361  40.950  36.551  14.831
27047W        W99362   8.831   4.168  14.585
27048W        W99363   5.357   7.082   3.403
27049W        W99364   1.792  17.822  11.501
27050W        W99365  44.325  24.037   1.488
27051W        W99366  28.425  16.067   0.781
27052W        W99367  34.503  40.277   2.202
27053W        W99368  20.977  33.314  14.263
27054W        W99369  14.010   6.329   2.755
27055W        W99370  14.032   6.507   5.189
27056W        W99371  13.667  35.097   1.306
27057W        W99372  18.617  25.677   0.955
27058W        W99373  41.253  35.395  14.509
27059W        W99374  11.692  27.255  12.397
27060W        W99375   4.468   6.427   0.938
27061W        W99376  17.712   0.503  14.458
27062W        W99377  40.113  19.612   2.866
27063W        W99378  28.778  38.065  13.582
27064W        W99379  43.828  10.850  14.308
27065W        W99380  34.924   2.692  14.093
27066W        W99381  33.035  14.712   0.534
27067W        W99382  11.178  17.355  12.094
27068W        W99383  36.549   9.729  10.720
27069W        W99384  15.734  11.353   1.260
27070W        W99385  43.448  21.516   4.365
27071W        W99386  10.410   0.408  11.463
27072W        W99387  32.859   6.828   2.245
27073W        W99388  35.690   6.569  12.505
27074W        W99389  25.180  34.044   4.291
27075W        W99390   6.111   5.266  12.039
27076W        W99391  40.073  33.112  13.401
27077W        W99392  16.267  12.573   4.482
27078W        W99393   9.437   7.390  14.892
27079W        W99394  32.010  15.056  14.010
27080W        W99395  12.839  30.861   2.836
27081W        W99396  30.763   4.841   1.176
27082W        W99397  25.241   3.805   0.747
27083W        W99398  29.481  24.659  11.486
27084W        W99399  23.959   7.839   1.392
27085W        W99400  41.320  31.571  13.900
27086W        W99401  34.558  33.509  13.941
27087W        W99402  42.436  13.101   4.324
27088W        W99403  23.742  20.084  14.990
27089W        W99404   1.028  36.865  11.016
27090W        W99405  41.801   7.219  10.941
27091W        W99406  18.626  41.316   5.244
27092W        W99407  10.770  31.632   3.690
27093W        W99408   9.666  41.696   2.323
27094W        W99409  12.866  27.705   0.372
27095W        W99410  15.275  33.907  10.698
27096W        W99411  30.900  36.038   1.546
27097W        W99412  25.127  10.875   1.178
27098W        W99413  19.953  12.917  14.198
27099W        W99414   4.862  38.339  12.550
27100W        W99415  13.748  36.684   2.292
27101W        W99416  34.356  33.623  13.038
27102W        W99417   2.932  37.272   0.955
27103W        W99418  28.267   8.664   0.733
27104W        W99419  41.303  29.028  11.039
27105W        W99420  42.689  20.504  13.851
27106W        W99421  37.065   5.117   4.587
27107W        W99422  30.619   0.277  10.714
27108W        W99423   0.430  12.285   4.622
27109W        W99424  36.261  13.847   2.736
27110W        W99425   3.997  35.555  11.974
27111W        W99426   5.035  36.897   3.713
27112W        W99427  27.818  17.067  14.123
27113W        W99428   4.177  18.678  13.558
27114W        W99429  14.255  22.963  13.315
27115W        W99430  33.759  30.919  11.395
27116W        W99431  31.922  36.120  11.090
27117W        W99432  43.097  20.206  14.050
27118W        W99433   5.138  23.043  11.081
27119W        W99434  15.882  18.088   2.813
27120W        W99435  41.579  32.872   1.822
27121W        W99436  16.372  40.380   0.875
27122W        W99437  39.411   6.761   4.247
27123W        W99438  41.932  19.453  11.068
27124W        W99439  29.172  26.516   1.214
27125W        W99440  37.415  28.538  10.789
27126W        W99441   1.945  14.472  12.170
27127W        W99442  14.787   0.412  12.352
27128W        W99443  12.454  11.056   0.973
27129W        W99444  29.105  17.559  13.330
27130W        W99445   1.228  24.717  10.577
27131W        W99446  29.571  14.552   4.221
27132W        W99447  15.026  18.591   3.645
27133W        W99448  34.027  26.929   0.378
27134W        W99449   2.904   6.029   2.530
27135W        W99450  33.459  37.053  11.006
27136W        W99451  16.972  25.569   3.138
27137W        W99452  38.760  41.384   3.148
27138W        W99453   1.058  39.394  11.957
27139W        W99454  31.947  13.319  13.458
27140W        W99455  35.454   5.735  10.519
27141W        W99456  39.877  44.852  12.801
27142W        W99457  42.357  17.988   1.736
27143W        W99458   2.896  40.836   2.316
27144W        W99459  25.715  42.008  10.780
27145W        W99460   8.908   5.702  10.723
27146W        W99461   3.811  16.083  12.921
27147W        W99462  41.015  40.433   0.354
27148W        W99463   0.278  30.514   0.797
27149W        W99464  31.957   8.091  14.890
27150W        W99465   6.798  17.525  12.555
27151W        W99466  30.045  25.669  13.598
27152W        W99467  27.077   0.917  13.149
27153W        W99468  43.662  20.401  14.347
27154W        W99469   6.509  34.361  11.155
27155W        W99470  44.550  25.451   1.230
27156W        W99471   8.069  12.477   4.386
27157W        W99472   3.370   0.559   1.674
27158W        W99473   2.265  29.144  10.805
27159W        W99474  20.770  14.279   0.512
27160W        W99475   4.811   7.191  11.996
27161W        W99476  44.729  12.643  14.038
27162W        W99477  23.108  33.155   2.276
27163W        W99478  40.318   0.050   3.122
27164W        W99479  24.402  33.435  14.795
27165W        W99480  21.585  42.421   3.429
27166W        W99481  14.754   5.871   0.427
27167W        W99482  16.547  33.500  13.989
27168W        W99483  15.106  41.537  11.512
27169W        W99484  32.558   2.786   4.209
27170W        W99485  28.053  44.957  10.385
27171W        W99486  44.331  16.870  11.693
27172W        W99487  34.359  40.411  12.027
27173W        W99488  29.885   5.978  13.929
27174W        W99489  17.221  23.024  13.722
27175W        W99490  16.810   6.212   4.691
27176W        W99491  16.230  39.167   1.247
27177W        W99492  11.768  16.828  14.862
27178W        W99493   2.234   3.378  11.959
27179W        W99494  12.081   5.293   4.480
27180W        W99495  39.682  29.550  12.157
27181W        W99496  38.912   0.449   2.783
27182W        W99497   6.102  36.991   1.497
27183W        W99498  26.011   2.202   4.398
27184W        W99499  21.713  15.904   2.842
27185W        W99500  35.690   1.010  11.720
27186W        W99501   9.177  14.035  10.745
27187W        W99502  33.973  11.419   4.499
27188W        W99503   9.328  26.153  13.344
27189W        W99504  32.077  41.101  11.093
27190W        W99505   5.173  19.596  13.689
27191W        W99506  14.325   3.930   2.566
27192W        W99507  23.955  44.459  13.445
27193W        W99508  13.751  32.527   1.390
27194W        W99509   7.003  36.847  14.344
27195W        W99510  35.010  21.438  13.994
27196W        W99511  23.050  22.120   1.414
27197W        W99512  30.450  23.112   0.527
27198W        W99513  15.887   3.218   2.784
27199W        W99514  30.133  12.410   2.720
27200W        W99515  31.237   3.710  12.151
27201W        W99516  27.221  12.084  10.661
27202W        W99517  17.711  20.290  14.036
27203W        W99518  44.541  39.429  11.270
27204W        W99519  32.666   4.135  14.353
27205W        W99520  23.008  41.951   2.262
27206W        W99521   1.758  20.821   1.124
27207W        W99522   5.385   3.769  11.538
27208W        W99523  43.105   7.506  13.496
27209W        W99524  11.285  11.830   4.728
27210W        W99525  25.653  29.187   3.285
27211W        W99526  44.833  22.234  11.958
27212W        W99527   8.084  28.877   0.321
27213W        W99528   6.122  15.625   4.704
27214W        W99529  35.872  18.108  12.071
27215W        W99530   7.345  37.060  11.679
27216W        W99531  30.239   4.920   1.204
27217W        W99532   1.229  28.125  12.981
27218W        W99533  15.836  24.593  13.047
27219W        W99534  12.916  21.110  14.846
27220W        W99535  22.664  13.335   3.801
27221W        W99536  34.368  40.673   3.220
27222W        W99537  44.413  40.965   1.899
27223W        W99538   1.097  42.832  14.672
27224W        W99539   4.016   6.668  10.243
27225W        W99540   2.659  35.683   0.502
27226W        W99541  18.013  23.926  11.589
27227W        W99542  39.777  10.186   4.658
27228W        W99543  10.165  20.234  13.579
27229W        W99544  32.197   7.111  13.378
27230W        W99545  20.126  19.537  13.335
27231W        W99546   8.770  16.958   4.683
27232W        W99547  24.274   6.126  13.065
27233W        W99548   2.868  33.836  10.414
27234W        W99549  35.744  28.037  12.564
27235W        W99550   0.784  15.379   1.235
27236W        W99551  24.956   5.480   3.299
27237W        W99552  18.041  30.416  11.268
27238W        W99553  37.989  21.034  14.882
27239W        W99554  39.170  13.986   5.093
27240W        W99555   9.337  34.566  13.982
27241W        W99556  36.102  36.391   4.551
27242W        W99557  10.629  13.073   1.339
27243W        W99558   3.217  21.367   0.155
27244W        W99559  16.123  40.104  13.793
27245W        W99560  19.299  31.979  12.075
27246W        W99561  31.496  37.657  11.099
27247W        W99562  38.430  23.958   3.218
27248W        W99563  23.959  27.726   4.231
27249W        W99564   5.514  16.275  13.347
27250W        W99565  15.862  36.395   3.207
27251W        W99566  40.903  18.380   0.377
27252W        W99567  44.381  16.382  11.578
27253W        W99568  10.818  43.487   3.430
27254W        W99569  10.321  26.814  11.030
27255W        W99570  40.174  30.233   1.463
27256W        W99571  34.825  33.457  13.013
27257W        W99572  32.883  35.526  14.738
27258W        W99573  14.174  16.036  12.446
27259W        W99574  20.520  31.445  10.983
27260W        W99575  43.248   1.202   2.187
27261W        W99576  29.143  30.369  11.494
27262W        W99577  28.466   3.437  11.085
27263W        W99578  43.513   9.715  10.646
27264W        W99579   8.696  41.318   1.407
27265W        W99580  32.675   8.945   1.380
27266W        W99581   8.180  12.646   0.385
27267W        W99582   7.394   7.335   2.727
27268W        W99583  15.814   3.117  11.132
27269W        W99584  43.206  17.136  14.394
27270W        W99585  42.554  14.658   0.495
27271W        W99586  30.662  31.399   0.902
27272W        W99587  31.531  10.842   2.349
27273W        W99588  13.920  24.392  13.876
27274W        W99589  35.626  26.635   1.819
27275W        W99590  29.630  43.263   3.365
27276W        W99591  41.953  34.424   3.760
27277W        W99592  22.225  33.544   3.455
27278W        W99593  42.854  31.351  10.800
27279W        W99594  27.915  15.339   5.017
27280W        W99595  39.259  20.176  14.262
27281W        W99596   4.701  27.171   2.814
27282W        W99597  14.002  11.950   5.113
27283W        W99598  40.506   8.903  10.895
27284W        W99599  28.521   4.187  13.369
27285W        W99600  35.282  38.403  11.054
27286W        W99601  33.970  14.656  12.011
27287W        W99602  10.426  16.268  11.070
27288W        W99603  37.951  27.853   9.876
27289W        W99604  17.992  16.648  14.426
27290W        W99605  18.536  16.585  14.365
27291W        W99606  15.723  31.648   1.960
27292W        W99607  31.710  14.659  13.127
27293W        W99608  34.984  15.692  10.281
27294W        W99609  16.349  34.196  13.452
27295W        W99610  22.057  28.692   2.869
27296W        W99611  43.033  34.677   2.326
27297W        W99612   9.615  18.877  14.804
27298W        W99613  12.239  33.326   4.345
27299W        W99614  42.248  35.449  11.506
27300W        W99615  25.658  22.147  11.521
27301W        W99616  14.990  10.208  12.105
27302W        W99617   9.360  44.309   1.767
27303W        W99618  34.813   5.819   2.385
27304W        W99619  42.962  44.886  14.759
27305W        W99620  21.745  32.462  12.132
27306W        W99621  14.684   5.055  14.771
27307W        W99622  32.742  24.939  13.833
27308W        W99623  31.220  10.356   2.751
27309W        W99624  38.866  20.749   2.798
27310W        W99625  34.830  11.657  11.648
27311W        W99626  41.419   4.763   4.294
27312W        W99627  27.936  37.345   0.568
27313W        W99628  28.892  34.454  13.633
27314W        W99629  37.065  18.167   3.535
27315W        W99630   5.746  17.703   1.989
27316W        W99631  29.048   8.090  11.166
27317W        W99632  12.089  27.268   2.428
27318W        W99633   8.656  24.467   0.816
27319W        W99634  33.967  11.174  10.542
27320W        W99635  15.225   6.811  14.776
27321W        W99636   3.497  20.568  11.668
27322W        W99637   0.883  34.447  13.653
27323W        W99638  15.298  38.010   3.665
27324W        W99639  39.465  37.110   3.327
27325W        W99640  33.544  32.886  12.087
27326W        W99641  20.427   4.235  12.602
27327W        W99642  43.652  18.918  12.548
27328W        W99643  27.473  42.566  10.750
27329W        W99644   4.749  11.599  13.907
27330W        W99645  39.719  36.879  12.477
27331W        W99646  14.551   2.934  11.542
27332W        W99647  36.053  28.949   1.433
27333W        W99648  24.434  21.484   1.424
27334W        W99649   0.366  29.511   0.839
27335W        W99650   3.800   5.527   2.787
27336W        W99651  44.175   3.878   2.449
27337W        W99652  10.892  11.690   1.779
27338W        W99653  31.495   8.196   3.168
27339W        W99654  26.475  19.670  12.979
27340W        W99655  28.964  15.225   0.030
27341W        W99656  32.783   7.704   1.315
27342W        W99657  33.554  35.360  11.604
27343W        W99658  22.474  34.290  12.008
27344W        W99659  27.559   1.444   3.904
27345W        W99660  15.279  16.325  12.039
27346W        W99661   9.267  23.184   0.183
27347W        W99662  18.555  34.035  13.327
27348W        W99663  20.342  34.950  12.447
27349W        W99664  26.040  40.369   1.722
27350W        W99665   6.093  27.585   1.511
27351W        W99666  19.630   4.296  14.711
27352W        W99667   7.671  17.703  14.563
27353W        W99668  37.435  32.920   0.340
27354W        W99669  44.787  28.162  10.658
27355W        W99670  42.612  18.967   0.894
27356W        W99671  40.196  28.957   0.742
27357W        W99672   7.310   6.096  12.955
27358W        W99673  33.703  21.074   4.719
27359W        W99674  41.577  13.087   4.195
27360W        W99675   7.336  10.424   3.704
27361W        W99676  23.543  42.415  10.655
27362W        W99677  30.570  12.929  12.967
27363W        W99678  44.061  44.398  13.032
27364W        W99679   4.754  18.489   2.440
27365W        W99680  34.028  15.297   0.397
27366W        W99681  13.544   4.102   3.069
27367W        W99682  11.632  28.059   0.449
27368W        W99683  19.526  42.995   2.359
27369W        W99684  32.450  28.410  10.812
27370W        W99685  40.915  33.533   4.416
27371W        W99686  35.873  23.476   3.434
27372W        W99687   4.571   3.385   4.420
27373W        W99688  38.569  12.347  14.698
27374W        W99689   1.923  17.030   2.937
27375W        W99690  35.068  21.993   1.275
27376W        W99691  25.760   8.604  11.123
27377W        W99692   8.797  21.288  10.726
27378W        W99693  43.646  18.795   0.285
27379W        W99694  41.474  24.333  13.502
27380W        W99695   2.968  12.154  11.151
27381W        W99696  17.437  10.827  14.411
27382W        W99697  44.210  15.003  11.578
27383W        W99698   1.198   2.429   2.195
27384W        W99699  30.732   5.674  11.752
27385W        W99700  37.640  20.749  11.492
27386W        W99701  29.470  20.600   2.588
27387W        W99702  14.197  18.326  13.326
27388W        W99703  22.735  38.925   2.126
27389W        W99704   5.958  20.662  12.091
27390W        W99705  18.753  12.598   3.235
27391W        W99706  11.207  41.008  13.733
27392W        W99707  33.660  29.735   3.229
27393W        W99708  13.730   9.383  12.043
27394W        W99709  24.294  42.568  14.431
27395W        W99710  10.158   4.806   1.502
27396W        W99711   2.192  42.442   2.291
27397W        W99712  38.359  25.655  14.928
27398W        W99713  36.039  17.140  10.781
27399W        W99714  37.046  15.006   3.356
27400W        W99715  30.308  20.083  10.632
27401W        W99716   4.200  42.773  14.237
27402W        W99717  10.458  30.537  13.420
27403W        W99718   0.323  16.785  10.511
27404W        W99719  23.403   0.304   2.438
27405W        W99720  23.833  32.411  13.477
27406W        W99721  37.129  41.836   1.139
27407W        W99722   1.904  39.722  11.901
27408W        W99723  39.469  38.448   0.507
27409W        W99724  10.746  28.062   2.237
27410W        W99725  41.814  11.614  12.583
27411W        W99726  25.692   4.866  11.999
27412W        W99727  29.666   5.539   0.945
27413W        W99728  15.729  40.363   4.549
27414W        W99729  19.629  28.043  14.974
27415W        W99730  26.486   9.651  12.532
27416W        W99731  44.940  37.589   0.381
27417W        W99732  37.908  43.907   2.909
27418W        W99733  36.964  25.547   3.250
27419W        W99734  39.484  31.170  14.391
27420W        W99735  19.254  33.082  14.326
27421W        W99736  30.957  27.148   2.433
27422W        W99737  26.701  39.042   0.311
27423W        W99738  38.534   1.444  13.314
27424W        W99739  42.346  40.502   1.817
27425W        W99740  30.044   6.349  12.432
27426W        W99741  42.117   0.850  11.863
27427W        W99742   4.574  32.893   4.219
27428W        W99743  42.709   7.079   3.145
27429W        W99744  43.473   5.850   2.461
27430W        W99745   4.064  14.027  12.046
27431W        W99746   0.342  11.797   2.806
27432W        W99747  15.146   2.739   1.131
27433W        W99748  27.052  41.400  12.364
27434W        W99749  40.518   2.502   3.805
27435W        W99750  20.555  19.677   1.163
27436W        W99751  10.144   1.378   3.300
27437W        W99752  20.772  36.582   2.012
27438W        W99753  43.717  25.957  11.596
27439W        W99754  35.795  16.755   3.213
27440W        W99755  37.735   5.846   2.282
27441W        W99756  23.968   9.648  12.338
27442W        W99757  18.517  34.743   0.781
27443W        W99758  16.336   1.798   3.106
27444W        W99759   3.752  26.665  11.491
27445W        W99760   5.902  40.578  13.100
27446W        W99761  14.043   0.716  10.972
27447W        W99762  24.712  44.281  13.901
27448W        W99763  17.946  12.238  11.683
27449W        W99764  44.808  13.299   4.254
27450W        W99765  40.983  33.132   3.658
27451W        W99766  23.279  11.218   4.634
27452W        W99767  26.902  41.438   1.379
27453W        W99768  40.008   6.595   3.622
27454W        W99769  40.042   6.773   4.611
27455W        W99770  35.002  10.848   0.323
27456W        W99771  23.254  10.659  10.657
27457W        W99772  18.121  28.131   1.021
27458W        W99773   0.891  20.326  10.816
27459W        W99774  23.273   5.720  13.507
27460W        W99775  40.361  40.199  10.653
27461W        W99776  20.475  24.537   4.603
27462W        W99777  31.860  33.920   0.464
27463W        W99778   6.717  34.384   1.854
27464W        W99779  15.591  23.360   4.204
27465W        W99780  28.439  16.581   0.813
27466W        W99781  29.396  44.465  10.921
27467W        W99782   7.956  30.872  11.596
27468W        W99783  11.879  20.730   1.319
27469W        W99784  14.526   5.430   0.284
27470W        W99785  26.129   4.732   0.230
27471W        W99786  43.265   6.249   0.239
27472W        W99787  24.487  18.040  12.424
27473W        W99788  25.118  14.688   2.667
27474W        W99789  43.552  29.537  11.999
27475W        W99790  20.587  29.704  12.532
27476W        W99791  29.935  28.266  12.029
27477W        W99792   6.995  18.159   2.387
27478W        W99793  28.108  27.015   1.855
27479W        W99794   9.728  28.162   2.819
27480W        W99795  29.067   5.314  10.930
27481W        W99796  26.976  22.776  14.493
27482W        W99797  14.679  30.014   4.909
27483W        W99798  22.108   5.347   4.485
27484W        W99799  42.689  27.568  14.432
27485W        W99800   5.692  31.633  12.091
27486W        W99801  31.413  22.645   2.723
27487W        W99802  38.054  27.516   3.958
27488W        W99803   3.869  11.056  14.997
27489W        W99804  42.198  38.808   0.019
27490W        W99805  33.851  18.691  11.176
27491W        W99806  14.808  16.591  12.031
27492W        W99807  38.108  26.649   3.330
27493W        W99808  42.803   1.484   2.175
27494W        W99809  24.227  39.537   1.732
27495W        W99810  13.889  20.974  14.896
27496W        W99811  11.188  19.776   0.385
27497W        W99812  30.611  20.226   3.269
27498W        W99813  39.519  23.021   0.021
27499W        W99814   5.730  13.250   4.574
27500W        W99815  24.615   5.654   2.466
27501W        W99816  43.709  22.215   0.412
27502W        W99817  25.747   0.506  14.309
27503W        W99818  36.256  18.702  10.600
27504W        W99819  21.753  16.820  12.024
27505W        W99820  20.917  28.565   4.605
27506W        W99821  11.399  19.175  12.716
27507W        W99822  38.833  39.554   3.258
27508W        W99823   6.236  28.909  11.455
27509W        W99824   6.337   4.409  14.817
27510W        W99825  28.686  33.520   4.588
27511W        W99826  39.847   9.554  14.873
27512W        W99827  15.349  24.251  13.915
27513W        W99828  12.104  34.340   2.339
27514W        W99829  29.960  29.950   3.827
27515W        W99830   6.178  31.697   2.187
27516W        W99831  39.737  11.480   1.376
27517W        W99832  18.512  12.158   0.265
27518W        W99833  15.632  38.990  10.406
27519W        W99834  30.636  31.102   3.406
27520W        W99835  29.743  28.615  10.734
27521W        W99836   6.901  31.374  13.802
27522W        W99837  14.862  29.608   2.243
27523W        W99838   2.970  23.009  13.098
27524W        W99839  18.065  20.121   3.222
27525W        W99840  43.728  35.677  12.996
27526W        W99841  12.632  22.889   1.125
27527W        W99842  17.220  23.503  12.018
27528W        W99843  19.358   4.995   1.009
27529W        W99844  19.919  43.276   3.319
27530W        W99845  39.068  11.351   1.984
27531W        W99846   8.368  21.865   3.185
27532W        W99847  25.538  36.026  14.406
27533W        W99848  37.461  12.399  13.585
27534W        W99849  44.650  23.551   2.875
27535W        W99850  34.811  29.872  10.659
27536W        W99851   1.766  25.568  11.586
27537W        W99852  12.744  42.993  14.257
27538W        W99853  16.835  44.609  10.703
27539W        W99854   7.553   4.395  14.326
27540W        W99855   4.484   0.007  11.872
27541W        W99856  27.824  32.344   1.671
27542W        W99857   5.588  29.887   3.206
27543W        W99858  37.747   1.914   0.703
27544W        W99859  13.152   7.786  13.898
27545W        W99860  16.163  32.683  12.428
27546W        W99861  38.485  11.408   4.656
27547W        W99862  10.178  15.180  14.576
27548W        W99863  15.519  43.080   0.383
27549W        W99864  16.911  10.796  14.492
27550W        W99865  17.195   5.857   1.969
27551W        W99866  12.767  38.988   2.229
27552W        W99867  20.304  17.266  14.385
27553W        W99868  40.556  22.525  13.329
27554W        W99869   0.171  15.538   2.500
27555W        W99870  31.395   1.240   4.951
27556W        W99871   2.785  41.723   4.105
27557W        W99872  26.375  15.562  10.605
27558W        W99873  44.259   1.771   0.759
27559W        W99874  15.507  23.828   4.461
27560W        W99875   8.393  10.422  11.055
27561W        W99876  12.382  22.178   2.703
27562W        W99877  24.565  41.975  11.538
27563W        W99878  14.745  38.589  14.088
27564W        W99879   2.207  18.801  11.008
27565W        W99880  16.232  23.682   2.647
27566W        W99881  26.401  10.233   3.772
27567W        W99882  25.027  40.126   1.685
27568W        W99883  42.502  37.759  14.017
27569W        W99884  30.862   2.315  11.186
27570W        W99885  23.287  14.195   2.943
27571W        W99886  37.316  34.352   1.949
27572W        W99887  19.347  15.201   3.225
27573W        W99888  39.143  21.702  12.882
27574W        W99889  30.886  21.380  10.219
27575W        W99890  14.377  43.811   0.393
27576W        W99891  35.772   3.217   2.806
27577W        W99892  23.165   7.546  14.120
27578W        W99893  35.496   3.968   3.640
27579W        W99894  12.188  14.947  14.832
27580W        W99895  18.975   7.827  13.012
27581W        W99896  29.616  19.193   2.239
27582W        W99897  21.200  34.845   2.713
27583W        W99898  25.462  44.897  10.623
27584W        W99899  22.088   8.555   1.219
27585W        W99900  29.359  27.858   2.102
27586W        W99901  41.831  14.266   4.605
27587W        W99902   2.961  30.722   0.719
27588W        W99903  29.033   0.575  13.836
27589W        W99904  18.559   3.591  14.324
27590W        W99905  26.745   2.868   2.635
27591W        W99906  41.557  34.545   4.047
27592W        W99907  18.202   1.760   0.669
27593W        W99908   2.157  22.331  13.037
27594W        W99909  24.195  40.738   4.721
27595W        W99910  27.981  16.360   0.825
27596W        W99911  17.019  24.900   4.669
27597W        W99912  29.288  29.523  10.526
27598W        W99913  42.251  33.636  12.844
27599W        W99914  16.643  14.163  12.035
27600W        W99915   2.488  39.986   1.350
27601W        W99916  33.652  40.781  11.956
27602W        W99917  32.655  18.793  14.264
27603W        W99918  20.791  25.004  11.569
27604W        W99919  13.269  32.643   1.689
27605W        W99920   6.719   9.918   4.164
27606W        W99921  21.119  27.150  13.020
27607W        W99922  26.533  34.801  12.485
27608W        W99923  25.736   8.967   4.603
27609W        W99924  31.403  30.050   4.422
27610W        W99925  40.948  12.563   2.252
27611W        W99926  23.900   9.015  12.977
27612W        W99927   5.994  40.818  10.859
27613W        W99928   8.960   0.046   2.214
27614W        W99929  37.356  43.790  12.589
27615W        W99930  22.135  29.211   2.892
27616W        W99931  12.098  41.032  11.487
27617W        W99932  23.239   1.553   0.715
27618W        W99933  42.370  29.502  11.648
27619W        W99934   9.691   0.202   2.045
27620W        W99935  32.630  21.483  14.806
27621W        W99936  27.564  13.633  13.279
27622W        W99937  41.406   0.836  14.090
27623W        W99938  13.683  21.283   0.245
27624W        W99939  33.624   3.948   4.129
27625W        W99940  31.610  36.152   3.225
27626W        W99941  16.530  43.355  11.077
27627W        W99942  20.138   0.859   0.420
27628W        W99943  30.501   3.063  14.834
27629W        W99944  43.299  11.811  13.640
27630W        W99945   2.380  13.112   1.752
27631W        W99946   4.077   4.190  11.223
27632W        W99947   4.205  44.892   2.931
27633W        W99948   6.847  15.299  12.564
27634W        W99949  26.742   4.728  11.215
27635W        W99950   6.582  19.490   5.057
27636W        W99951  31.591  29.862  13.778
27637W        W99952  44.259  41.842  14.422
27638W        W99953  27.937  42.273   1.355
27639W        W99954  28.340  19.605  12.563
27640W        W99955  25.093  14.279  12.863
27641W        W99956   0.418   0.410  11.422
27642W        W99957   7.411  17.006  10.749
27643W        W99958  29.714  17.252   0.024
27644W        W99959  24.029  34.047  12.047
27645W        W99960  11.383  16.953   5.500
27646W        W99961   7.181  17.284  11.149
27647W        W99962  43.736  43.896  10.680
27648W        W99963  33.953  28.101   1.739
27649W        W99964  30.414  24.682   1.903
27650W        W99965  28.976  34.115  14.947
27651W        W99966   2.374  33.303  11.418
27652W        W99967   8.606  43.133  10.474
27653W        W99968  20.128  23.824  13.748
27654W        W99969  27.327  19.519  10.649
27655W        W99970  42.291  40.353   0.926
27656W        W99971   3.749  16.464  14.771
27657W        W99972  38.496  29.175  14.125
27658W        W99973  21.912  29.113  12.543
27659W        W99974   5.789   8.053   4.784
27660W        W99975  34.599  28.768   2.275
27661W        W99976  15.651   1.425  11.610
27662W        W99977  37.412  41.955   2.509
27663W        W99978  15.043   3.315   0.337
27664W        W99979  38.574  29.683   3.855
27665W        W99980  40.406  23.753   5.106
27666W        W99981  33.568  33.518   3.272
27667W        W99982   4.209  27.050   2.919
27668W        W99983  39.697  19.135  12.222
27669W        W99984  38.759  35.321   2.582
27670W        W99985  22.752   0.635  14.872
27671W        W99986  35.433  16.193   2.291
27672W        W99987   6.434   6.277  14.027
27673W        W99988  44.670  21.103   2.760
27674W        W99989  32.365  25.698  11.599
27675W        W99990  15.109   3.232   1.321
27676W        W99991  42.496  44.637  11.990
27677W        W99992  25.996  29.593   3.404
27678W        W99993  40.511  26.239  12.400
27679W        W99994   9.686  11.314  12.188
27680W        W99995  12.317  23.358   3.196
27681W        W99996   5.211  37.397  12.908
27682W        W99997  32.111  41.283   2.645
27683W        W99998   9.724  33.026   1.699
27684W        W99999  11.345  20.613  11.593
27685W        W    0  27.856   5.393  10.399
27686W        W    1  22.981  17.290  10.758
27687W        W    2  39.033   9.354   3.280
27688W        W    3   7.289  10.252  10.418
27689W        W    4  19.421  40.367   9.859
27690W        W    5   0.262   9.892  14.307
27691W        W    6  16.747  42.825   4.083
27692W        W    7  38.825   7.361  11.966
27693W        W    8   3.927   9.650  13.435
27694W        W    9  41.240  43.024   2.766
27695W        W   10   0.852  11.322   1.517
27696W        W   11   9.757  36.079  10.628
27697W        W   12  43.727   0.733  13.056
27698W        W   13  17.866  24.227   1.020
27699W        W   14   3.890   2.676  11.094
27700W        W   15  37.590   6.147  12.104
27701W        W   16   8.518  31.723   0.902
27702W        W   17   2.518  34.648   2.272
27703W        W   18  41.369   5.187   2.769
27704W        W   19  29.621  21.178  14.479
27705W        W   20  19.553   0.919  14.281
27706W        W   21   1.884   6.736   4.449
27707W        W   22  33.100  36.778   4.591
27708W        W   23  26.502  44.846  10.488
27709W        W   24  37.404  11.358   3.193
27710W        W   25  13.655  26.320   4.115
27711W        W   26  40.839  21.857  11.762
27712W        W   27   7.970   8.277  11.913
27713W        W   28  41.107  42.371  14.739
27714W        W   29  43.232   1.141  11.514
27715W        W   30  18.166  17.749  10.999
27716W        W   31  44.074  38.502   2.008
27717W        W   32  31.986   4.438  12.923
27718W        W   33  12.184   9.848  11.071
27719W        W   34   0.606  32.219  10.696
27720W        W   35  23.591  35.512  14.804
27721W        W   36   3.408  22.746  13.775
27722W        W   37  28.248  25.546   2.840
27723W        W   38  31.891  29.198  12.091
27724W        W   39   0.896  11.664   0.951
27725W        W   40  29.488   7.108   4.274
27726W        W   41  34.678  35.504   4.629
27727W        W   42  40.394  16.246  10.991
27728W        W   43  37.093  30.563  11.577
27729W        W   44  10.795  24.710   0.960
27730W        W   45   0.472  28.928   0.288
27731W        W   46  43.450  13.767   0.587
27732W        W   47  25.388   3.874  14.332
27733W        W   48  28.928  26.663  10.334
27734W        W   49  35.181  32.854  13.677
27735W        W   50   0.304  13.820   0.692
27736W        W   51  16.735   7.423   4.114
27737W        W   52   5.836  30.319   3.822
27738W        W   53  11.824  34.899   3.127
27739W        W   54  15.541  37.110   1.861
27740W        W   55  26.101  38.352  13.278
27741W        W   56  30.731  44.446   1.358
27742W        W   57  43.235  44.811  12.961
27743W        W   58  13.686  23.150  14.702
27744W        W   59  31.627  21.986  14.449
27745W        W   60  35.874  22.612   5.059
27746W        W   61   5.097   2.970  13.112
27747W        W   62   5.346   1.437  13.708
27748W        W   63  11.878  15.708  10.940
27749W        W   64  25.465   2.879   3.051
27750W        W   65   4.939  19.069   3.926
27751W        W   66  40.787  23.125  10.419
27752W        W   67  29.884  14.747  10.802
27753W        W   68  11.092  34.492  11.085
27754W        W   69   0.459  17.421   1.362
27755W        W   70  37.848  37.187   2.885
27756W        W   71  28.879  22.490  11.725
27757W        W   72  15.359   1.040  11.389
27758W        W   73  18.625  30.235   4.730
27759W        W   74  41.457  33.803  13.814
27760W        W   75  12.915   7.203  11.018
27761W        W   76  26.457  15.016   0.270
27762W        W   77  10.403  26.241   0.529
27763W        W   78   3.487  39.094   1.271
27764W        W   79  15.995   3.911  14.746
27765W        W   80  40.104   0.977  10.284
27766W        W   81  18.033  16.573   0.323
27767W        W   82  10.766  37.119   2.835
27768W        W   83  12.281  35.522   3.510
27769W        W   84  43.523  26.206   2.335
27770W        W   85  30.826  22.699   4.023
27771W        W   86  17.910  28.098  14.114
27772W        W   87   4.284  25.445   4.570
27773W        W   88  28.699  13.156   1.729
27774W        W   89  40.939  27.244   2.225
27775W        W   90  33.323  43.321   0.181
27776W        W   91  19.064  37.807  13.649
27777W        W   92  37.029   4.388   3.806
27778W        W   93  19.251  12.137  13.527
27779W        W   94  17.359  17.620  13.139
27780W        W   95  39.910  32.709  12.068
27781W        W   96  41.410  33.051  11.001
27782W        W   97  17.713   9.759  11.036
27783W        W   98  25.720   1.714  10.970
27784W        W   99   1.754   6.193  11.558
27785W        W  100  23.257  24.069   2.215
27786W        W  101  23.035  18.581   9.725
27787W        W  102   3.773  43.322   4.066
27788W        W  103  31.077  26.867  11.381
27789W        W  104  27.574   8.604  12.306
27790W        W  105  13.841  35.053  14.468
27791W        W  106   3.929  22.018   0.451
27792W        W  107   0.914  16.814  12.976
27793W        W  108  31.561  42.261  11.613
27794W        W  109  11.253  19.619  11.400
27795W        W  110  14.256  24.954  13.321
27796W        W  111  20.295  20.287   3.725
27797W        W  112  41.498  27.110  10.664
27798W        W  113  15.241   9.779  12.269
27799W        W  114  12.188  24.006  12.786
27800W        W  115  35.398   1.230   0.502
27801W        W  116  32.289  14.004   1.332
27802W        W  117   6.664  29.695   1.556
27803W        W  118  10.932  34.208  13.230
27804W        W  119  14.215  41.359   3.647
27805W        W  120  21.150  17.573  10.779
27806W        W  121  12.335  23.758  10.589
27807W        W  122  30.465  28.308   1.380
27808W        W  123  43.378  31.507   1.812
27809W        W  124  18.144  20.459   4.902
27810W        W  125   1.227   1.780  14.002
27811W        W  126   3.742  17.713   1.938
27812W        W  127  42.060  21.515  11.966
27813W        W  128  44.498  12.715  12.277
27814W        W  129  31.546  16.172   2.819
27815W        W  130   8.788   5.415  12.115
27816W        W  131   2.418  23.281   3.782
27817W        W  132   9.735   1.307  12.992
27818W        W  133  14.184  15.779  11.925
27819W        W  134   8.336  28.922  12.590
27820W        W  135  33.586  26.067  10.687
27821W        W  136   3.849  22.759  14.727
27822W        W  137  15.279  12.529   4.204
27823W        W  138  35.097  12.225  10.985
27824W        W  139  14.072  43.451   1.846
27825W        W  140  29.356  44.559  14.115
27826W        W  141  15.310  34.473  13.791
27827W        W  142  39.501  21.470  12.609
27828W        W  143   0.373  16.015  11.475
27829W        W  144  12.593  28.370  14.839
27830W        W  145  38.788  41.050   1.273
27831W        W  146  40.161  43.217  14.360
27832W        W  147  24.752  22.752   4.100
27833W        W  148   0.833  33.670  11.592
27834W        W  149  34.522  28.050   4.426
27835W        W  150  14.378  10.829  11.013
27836W        W  151   7.393   2.027  14.394
27837W        W  152   7.520   3.867   1.769
27838W        W  153  29.196  29.681  14.419
27839W        W  154   2.930  39.521  14.780
27840W        W  155  21.141  23.250   4.551
27841W        W  156   8.577  34.354   0.268
27842W        W  157  43.380  26.058  10.739
27843W        W  158  22.694  14.850   3.772
27844W        W  159  37.998   6.688   4.888
27845W        W  160  39.227   3.199  11.352
27846W        W  161   4.708  41.364  14.854
27847W        W  162  41.964  27.437   3.190
27848W        W  163  32.490  13.253   4.527
27849W        W  164  12.928   6.260   1.824
27850W        W  165   6.416  27.995   4.670
27851W        W  166  18.052  16.592  10.773
27852W        W  167   1.083  41.903   1.904
27853W        W  168  44.813  24.706   2.443
27854W        W  169  17.553  30.309   0.322
27855W        W  170   7.685  44.927   0.399
27856W        W  171   4.582   7.460   2.742
27857W        W  172  34.417  19.691  11.298
27858W        W  173   5.224   8.388  12.360
27859W        W  174   8.692  13.552  11.159
27860W        W  175  22.284   3.207   4.156
27861W        W  176  26.602  44.548   0.993
27862W        W  177  41.094  29.578  14.365
27863W        W  178  20.218  37.869  11.232
27864W        W  179  13.665   8.368  14.959
27865W        W  180  41.351   8.899  12.478
27866W        W  181  44.014  32.658  11.619
27867W        W  182  42.776  11.813   4.601
27868W        W  183  40.726  41.663  13.834
27869W        W  184  18.231  32.225   1.417
27870W        W  185  28.640  22.469  12.829
27871W        W  186  22.281  16.785  13.531
27872W        W  187  27.740  37.752  14.283
27873W        W  188  12.332  23.722   4.040
27874W        W  189  14.869  20.877  13.282
27875W        W  190  11.864  34.631   2.701
27876W        W  191  38.446   8.952   1.806
27877W        W  192  10.097  28.260  11.126
27878W        W  193  14.816  42.519  10.669
27879W        W  194  18.085  29.477  11.226
27880W        W  195  11.821  21.870  10.497
27881W        W  196   2.930  41.636  11.487
27882W        W  197  43.996  32.823   1.684
27883W        W  198  23.776  30.879   0.982
27884W        W  199  24.591  27.948  13.404
27885W        W  200  15.895   7.780  14.916
27886W        W  201   1.876  28.527  13.256
27887W        W  202  16.107   0.529  11.708
27888W        W  203   4.314   7.154   3.684
27889W        W  204  34.782  26.251  11.160
27890W        W  205   1.406  11.781  12.459
27891W        W  206  22.024  44.833   1.397
27892W        W  207  28.192   4.671   1.337
27893W        W  208  25.087   5.763  13.078
27894W        W  209  26.322   3.892  10.331
27895W        W  210  31.954  18.345  14.872
27896W        W  211   2.240  19.237   2.525
27897W        W  212  42.352  15.275   3.392
27898W        W  213  24.555   7.405   3.102
27899W        W  214  40.410  37.239  10.391
27900W        W  215  17.145  39.793  14.537
27901W        W  216  18.611  43.306   1.871
27902W        W  217  33.937  30.230   3.697
27903W        W  218   4.359  39.042  12.920
27904W        W  219  23.116  11.227   1.360
27905W        W  220  23.074  40.321   3.357
27906W        W  221   3.906   0.855  12.118
27907W        W  222   3.658   9.284  14.901
27908W        W  223  13.581  26.491  10.568
27909W        W  224  35.013  23.582  14.364
27910W        W  225  31.976  29.360   4.152
27911W        W  226   2.213  37.909  14.980
27912W        W  227  10.435   6.789   1.966
27913W        W  228  40.890  34.473  13.765
27914W        W  229  19.703   6.666   0.374
27915W        W  230  11.697  19.634   4.791
27916W        W  231  36.088   7.174   2.076
27917W        W  232   5.858  42.276  10.764
27918W        W  233  17.730  14.278  10.353
27919W        W  234  19.449  40.144   0.812
27920W        W  235  22.252   0.546  12.897
27921W        W  236  12.580   4.734   1.835
27922W        W  237  21.000  34.799   1.747
27923W        W  238  44.233  13.404  14.506
27924W        W  239  19.563  23.218  11.205
27925W        W  240  29.154  25.726  11.646
27926W        W  241  11.199  24.613  14.771
27927W        W  242  31.459  18.780   0.644
27928W        W  243  44.999  44.537  12.981
27929W        W  244  37.027  37.552  13.974
27930W        W  245  44.234  18.631   1.710
27931W        W  246   3.554  24.552   2.612
27932W        W  247  26.684  12.821   4.437
27933W        W  248  41.302  41.954   0.058
27934W        W  249  30.193   4.849  13.331
27935W        W  250  37.567  12.478   2.276
27936W        W  251   3.378   9.090  11.919
27937W        W  252   3.888  21.472  13.525
27938W        W  253   3.712  21.746   3.690
27939W        W  254  44.996  39.037   3.778
27940W        W  255  29.775  35.860  12.113
27941W        W  256  40.818  16.165   0.083
27942W        W  257  43.013  33.585  14.283
27943W        W  258  21.273  41.356   0.510
27944W        W  259  18.535  18.748  12.399
27945W        W  260  30.916  26.686   2.206
27946W        W  261  19.983  10.780   3.181
27947W        W  262  43.535  21.996   0.859
27948W        W  263   7.452   8.323  13.796
27949W        W  264  32.598  40.602   2.968
27950W        W  265   4.699  37.097  13.009
27951W        W  266  20.254  41.822  12.100
27952W        W  267   3.487  20.376  11.194
27953W        W  268  34.597  27.653  13.438
27954W        W  269  42.600   9.691  14.890
27955W        W  270  42.584  25.164   1.361
27956W        W  271  41.647  12.103  11.375
27957W        W  272  17.856  42.875   4.773
27958W        W  273  29.394  33.762   3.368
27959W        W  274   7.226   4.673  10.689
27960W        W  275  31.441   7.934  10.717
27961W        W  276   9.379  30.572   0.400
27962W        W  277  13.160  33.866  12.714
27963W        W  278  14.926  22.106  11.390
27964W        W  279  40.832  10.389  13.496
27965W        W  280  43.976  43.297  13.586
27966W        W  281  39.389  17.994  14.806
27967W        W  282  37.061  32.301  13.921
27968W        W  283  18.162  31.916   2.808
27969W        W  284  44.679  25.101   1.760
27970W        W  285   8.649  23.552  13.364
27971W        W  286  39.456  42.022   0.366
27972W        W  287  20.601  24.455  10.736
27973W        W  288  13.485  16.756   1.129
27974W        W  289  20.543  34.887   2.452
27975W        W  290  18.111  36.629   1.646
27976W        W  291  16.542  13.213   1.318
27977W        W  292  30.473  22.001   0.191
27978W        W  293  35.855  37.101   4.356
27979W        W  294  30.183  33.345   0.508
27980W        W  295  44.443  39.740  12.942
27981W        W  296  30.928  35.374   3.334
27982W        W  297  30.876   3.644  11.451
27983W        W  298  15.777   6.267   1.150
27984W        W  299  29.040  22.549   2.632
27985W        W  300  12.836  15.781   1.764
27986W        W  301  24.726  28.689   2.890
27987W        W  302  41.040   4.354   3.577
27988W        W  303   8.729  15.078   1.953
27989W        W  304  15.800  38.959   4.678
27990W        W  305  27.522  24.551   3.252
27991W        W  306   3.083  11.833   2.234
27992W        W  307  16.656  34.960   0.519
27993W        W  308   5.657   0.409  14.836
27994W        W  309  15.299  21.785  12.798
27995W        W  310  24.321   9.962   0.398
27996W        W  311  22.668  36.083   4.496
27997W        W  312  22.166  32.360  11.194
27998W        W  313  21.528   1.955   0.845
27999W        W  314  12.083  11.840   0.735
28000W        W  315  22.577  40.819  14.290
28001W        W  316  10.175  25.160   4.564
28002W        W  317  28.530  29.676   3.359
28003W        W  318  28.561  18.970   3.592
28004W        W  319  25.853  31.127   1.996
28005W        W  320  41.241  17.557   2.453
28006W        W  321  15.567  10.101   2.721
28007W        W  322  40.999   3.891   2.342
28008W        W  323  37.135  40.472   3.565
28009W        W  324  21.612  12.862   1.663
28010W        W  325  33.623  33.780  10.648
28011W        W  326  36.816   1.849  14.090
28012W        W  327  22.142  12.834  13.372
28013W        W  328  19.694  37.757  13.919
28014W        W  329  37.547  35.060   2.788
28015W        W  330  14.648   9.591   1.790
28016W        W  331  14.785  27.667  14.083
28017W        W  332  29.091  36.081   0.063
28018W        W  333  23.590  43.966   4.669
28019W        W  334  40.480  16.727   2.274
28020W        W  335  35.541  31.654   3.514
28021W        W  336  15.233  21.908  11.732
28022W        W  337  16.814  14.743   1.428
28023W        W  338   3.695  15.977  14.644
28024W        W  339  13.976  33.066   0.076
28025W        W  340  17.679  28.385   4.274
28026W        W  341  15.672  21.547   2.364
28027W        W  342  12.242  13.063  12.730
28028W        W  343  43.389  22.837  13.328
28029W        W  344  37.796   5.353  11.412
28030W        W  345  24.907  38.799   1.202
28031W        W  346  40.255  13.216  14.799
28032W        W  347  29.203  29.756   2.223
28033W        W  348   3.168  26.910  10.977
28034W        W  349  21.033  37.276  12.577
28035W        W  350  38.896  27.132  10.247
28036W        W  351  25.243  13.314  11.489
28037W        W  352  35.965  38.293  13.547
28038W        W  353  42.926  20.554   2.944
28039W        W  354  36.992  32.572  14.364
28040W        W  355   6.817  37.811   0.880
28041W        W  356  17.397  12.831   0.415
28042W        W  357   8.372  26.104   1.229
28043W        W  358   4.356  19.915   3.328
28044W        W  359  37.268  13.289  13.439
28045W        W  360   6.410  32.403  13.602
28046W        W  361  18.710  27.362  13.170
28047W        W  362  12.141  22.220   1.471
28048W        W  363  22.580  29.956  11.667
28049W        W  364  21.675   1.352  12.641
28050W        W  365  13.096   9.881  12.493
28051W        W  366  24.171   2.439  11.125
28052W        W  367  34.315  41.067  14.936
28053W        W  368   7.354  44.485  12.604
28054W        W  369  44.090  20.069  12.945
28055W        W  370   0.952  23.902   4.559
28056W        W  371  22.824  23.240  13.480
28057W        W  372  25.174   1.280   2.561
28058W        W  373  23.159   7.828  11.141
28059W        W  374  28.953   9.055  13.430
28060W        W  375  31.702   0.411  14.268
28061W        W  376  32.898  11.178   1.168
28062W        W  377   8.410  41.151   0.690
28063W        W  378  31.185   3.760   1.697
28064W        W  379  28.651  16.144  12.891
28065W        W  380  11.847  32.460   2.021
28066W        W  381  24.445  40.916  12.832
28067W        W  382  12.984   5.955  14.776
28068W        W  383  21.638  38.487  13.620
28069W        W  384  30.605   9.911   4.409
28070W        W  385  37.508   0.309   2.197
28071W        W  386  32.504  24.886   0.814
28072W        W  387   4.464  42.806  10.493
28073W        W  388  35.618  41.435   1.669
28074W        W  389  40.442  23.772  11.592
28075W        W  390  44.563   0.440  13.066
28076W        W  391  13.566  40.771   3.234
28077W        W  392  17.138  28.648   4.752
28078W        W  393  17.728   1.789  10.306
28079W        W  394  36.409  19.964   1.804
28080W        W  395  27.411  21.499  13.462
28081W        W  396  43.922  32.993  12.948
28082W        W  397  18.579  27.066  14.480
28083W        W  398  24.935  12.776   3.249
28084W        W  399  16.574  28.372  10.579
28085W        W  400  44.397   3.067  11.080
28086W        W  401   3.912  17.977  14.870
28087W        W  402  29.084  34.114  13.281
28088W        W  403  19.262  16.051   4.772
28089W        W  404  17.209  42.437   4.668
28090W        W  405  41.005  19.994  13.979
28091W        W  406  12.644  29.735   0.309
28092W        W  407  24.993  32.577  10.175
28093W        W  408  13.721  34.976  12.358
28094W        W  409  42.814   2.376   0.573
28095W        W  410  39.562  10.214   3.347
28096W        W  411  43.972  44.145   0.532
28097W        W  412  43.493  31.200   3.394
28098W        W  413  28.553  27.291   1.888
28099W        W  414  27.977  17.096   3.939
28100W        W  415  43.151  12.085  12.824
28101W        W  416  16.605  27.663  13.197
28102W        W  417   9.878  41.041   3.316
28103W        W  418  39.949   2.407   3.946
28104W        W  419  17.251  39.761   3.187
28105W        W  420  21.564  27.195   0.045
28106W        W  421   8.257  19.007  13.418
28107W        W  422  40.507  18.694  10.763
28108W        W  423  16.144  11.837   3.662
28109W        W  424  37.121  30.228   1.780
28110W        W  425   2.743  33.916   4.664
28111W        W  426  15.745   6.147   0.240
28112W        W  427   2.279   0.798  11.889
28113W        W  428   9.160  35.881  14.101
28114W        W  429  40.624  11.175   2.856
28115W        W  430  31.108   8.215   0.804
28116W        W  431  44.877  11.001  13.112
28117W        W  432   4.621   9.444   1.374
28118W        W  433  25.725  41.789  14.997
28119W        W  434  12.772  10.157   1.871
28120W        W  435   9.373  24.132   4.869
28121W        W  436  32.465   2.776  12.731
28122W        W  437  42.209   5.260   2.197
28123W        W  438   7.217  24.479  12.554
28124W        W  439  29.388  16.388  14.374
28125W        W  440  20.066  17.204   0.307
28126W        W  441   6.997  13.271  12.055
28127W        W  442  12.459  35.305   2.622
28128W        W  443  39.860   6.187   3.332
28129W        W  444   7.741   7.572   1.168
28130W        W  445  41.269  12.283   1.911
28131W        W  446  22.551   4.022  13.000
28132W        W  447   2.816  11.559   3.402
28133W        W  448  17.126  22.230  11.482
28134W        W  449   0.029  40.453   2.377
28135W        W  450   3.342   1.493   2.932
28136W        W  451  18.378  25.202   0.916
28137W        W  452  22.175  39.007   3.262
28138W        W  453  13.965  28.331  11.228
28139W        W  454  22.342  35.500   3.959
28140W        W  455  34.877  32.493  13.992
28141W        W  456   3.975  13.770  11.582
28142W        W  457  33.588  19.285  11.182
28143W        W  458   6.572  14.272   2.636
28144W        W  459  31.452  24.122   0.438
28145W        W  460   1.378  37.970   4.898
28146W        W  461  15.279  23.696   2.655
28147W        W  462  25.313   6.682  14.403
28148W        W  463  18.010  43.985  13.560
28149W        W  464   5.921  43.952   2.224
28150W        W  465  35.332  24.656  14.859
28151W        W  466   9.732  31.416   4.640
28152W        W  467  29.333  38.878   4.083
28153W        W  468  25.967  37.020  14.826
28154W        W  469  41.249  33.276   0.283
28155W        W  470  40.979  38.769   2.259
28156W        W  471  30.157  11.594   4.136
28157W        W  472   3.018  18.096   1.711
28158W        W  473  34.779  30.058  13.502
28159W        W  474  13.812  29.765   4.785
28160W        W  475  23.214  25.343   3.974
28161W        W  476  27.913   0.374   4.655
28162W        W  477  41.684  24.380  10.914
28163W        W  478  34.887  12.101   3.254
28164W        W  479   6.038  17.767   2.927
28165W        W  480   6.235  31.146   2.293
28166W        W  481  25.215  41.001   1.903
28167W        W  482   2.495   2.550   3.527
28168W        W  483   5.686   8.815   2.724
28169W        W  484  25.139   7.482   2.227
28170W        W  485  25.554   2.062   0.681
28171W        W  486  24.062  15.119   1.479
28172W        W  487  33.587  19.035  13.131
28173W        W  488   9.555   7.762  12.795
28174W        W  489  16.157  28.437   2.898
28175W        W  490  39.399  17.729  13.407
28176W        W  491  23.588   3.661  12.687
28177W        W  492  21.588  24.511   0.979
28178W        W  493  17.402  19.569  11.683
28179W        W  494   5.778  38.574  10.686
28180W        W  495  39.089  21.021   0.290
28181W        W  496  26.924  31.991  11.534
28182W        W  497  15.818  37.901  14.342
28183W        W  498   0.882   8.170   4.130
28184W        W  499   4.824  23.726   4.495
28185W        W  500  10.859  44.538  12.482
28186W        W  501   0.283  32.967  12.149
28187W        W  502  30.561  18.935   2.895
28188W        W  503  23.153   0.955  14.956
28189W        W  504  24.952  33.903   3.670
28190W        W  505   9.964   5.709  14.407
28191W        W  506  19.937  39.086  12.305
28192W        W  507   8.825  29.607  11.465
28193W        W  508  27.944  43.799  14.376
28194W        W  509  40.420   2.191  14.524
28195W        W  510  29.873  30.132  10.940
28196W        W  511  19.646  31.302  14.154
28197W        W  512  38.567  14.259  14.545
28198W        W  513  24.620  34.703  12.442
28199W        W  514  34.652   6.109   2.805
28200W        W  515  31.939  26.501   1.338
28201W        W  516  30.166  19.300   0.366
28202W        W  517  18.055  19.732  14.748
28203W        W  518  29.415  29.204  10.927
28204W        W  519  37.826  36.864  12.612
28205W        W  520   9.592  34.311  13.558
28206W        W  521  34.651  33.588  11.496
28207W        W  522  18.858  43.196  12.919
28208W        W  523  34.683  28.451   1.234
28209W        W  524  18.822  10.446   4.587
28210W        W  525  44.774  40.640   3.857
28211W        W  526   0.297  23.206   0.724
28212W        W  527   6.312  21.813   2.491
28213W        W  528  36.066  31.950  12.140
28214W        W  529   2.725   5.860   1.075
28215W        W  530   8.186  36.907   3.232
28216W        W  531  41.262   0.276  12.054
28217W        W  532  34.162   6.856   0.413
28218W        W  533  22.076   4.896  14.700
28219W        W  534  34.968   0.997   3.961
28220W        W  535  23.234  29.930  14.555
28221W        W  536  22.943  37.428  10.492
28222W        W  537   3.173  20.109   2.561
28223W        W  538  11.695   1.958   1.558
28224W        W  539  23.989  44.782   0.359
28225W        W  540   2.926  15.013   1.845
28226W        W  541  20.134   1.091   4.086
28227W        W  542  34.221  42.466   3.375
28228W        W  543   3.929  29.499   3.200
28229W        W  544  15.100   8.909  10.983
28230W        W  545   3.021  34.352  14.302
28231W        W  546  36.359  33.674  11.865
28232W        W  547  14.078  36.231   3.679
28233W        W  548  18.312   9.609   2.813
28234W        W  549  39.448  23.813  11.429
28235W        W  550  20.566   9.223   3.683
28236W        W  551  17.514   7.990  13.055
28237W        W  552  34.322  19.699  10.810
28238W        W  553  41.291  31.197   2.593
28239W        W  554   6.857  31.591  12.095
28240W        W  555  28.492  31.482   2.869
28241W        W  556  22.406  34.416   3.927
28242W        W  557  28.971  41.381  11.891
28243W        W  558  39.572  25.756  12.841
28244W        W  559  14.842  40.835   3.649
28245W        W  560  19.285  35.832  13.149
28246W        W  561  44.374   3.825   1.863
28247W        W  562  20.809  32.929   4.307
28248W        W  563  10.775   9.595  12.459
28249W        W  564  43.365  25.670   3.707
28250W        W  565  20.360  16.304   0.808
28251W        W  566  10.346  29.062   3.879
28252W        W  567  13.696  12.937   3.825
28253W        W  568  22.579  28.223   1.253
28254W        W  569  44.815  22.662  10.610
28255W        W  570  19.354  27.092   4.619
28256W        W  571   0.997  32.453   0.709
28257W        W  572   6.807  27.248  14.400
28258W        W  573   4.077  20.797  14.283
28259W        W  574   7.953  17.179   2.261
28260W        W  575  10.248  26.612   0.858
28261W        W  576   7.775  14.547  14.248
28262W        W  577  27.004  37.841   2.266
28263W        W  578  40.378  13.548  10.732
28264W        W  579  38.325  37.406  10.230
28265W        W  580   2.692  40.739  13.886
28266W        W  581  10.332  11.268   2.445
28267W        W  582   3.688  10.603   0.204
28268W        W  583   5.693  15.334   4.612
28269W        W  584  44.847  19.772  11.954
28270W        W  585  37.451  40.119  14.670
28271W        W  586  28.883  35.043  11.985
28272W        W  587  42.139  23.960   3.744
28273W        W  588   4.707  31.593  13.648
28274W        W  589  32.137   0.192   3.289
28275W        W  590  34.528  38.561   1.661
28276W        W  591  17.094  40.625  11.082
28277W        W  592   9.394   1.372  11.886
28278W        W  593   9.171  32.974  12.010
28279W        W  594  38.193  22.979   4.956
28280W        W  595   5.495  18.354  12.528
28281W        W  596  42.059  33.979   1.779
28282W        W  597  31.125  34.503  13.887
28283W        W  598   0.555   0.018  11.772
28284W        W  599   6.618  29.056  14.510
28285W        W  600  36.565  44.876  13.725
28286W        W  601  31.147  32.876   1.234
28287W        W  602  15.703  39.880  14.964
28288W        W  603  23.527   0.374  12.816
28289W        W  604  35.600   0.835   0.085
28290W        W  605  19.697   9.254  10.350
28291W        W  606  44.663   5.425  12.029
28292W        W  607   0.382  32.627   4.830
28293W        W  608  40.950  15.395  10.806
28294W        W  609  30.415  36.384  14.347
28295W        W  610  17.332  15.413   1.264
28296W        W  611  18.115  15.215   2.611
28297W        W  612  13.894  25.182   9.817
28298W        W  613  41.112   2.765  14.991
28299W        W  614  40.046   4.426   3.500
28300W        W  615  18.129   7.337  14.342
28301W        W  616  20.700  22.743   3.150
28302W        W  617  32.516  30.854  14.451
28303W        W  618  26.451  21.111  10.491
28304W        W  619   3.216  28.646   2.333
28305W        W  620  16.112  35.703   4.908
28306W        W  621   9.558  28.341   1.726
28307W        W  622  15.127  21.229   3.211
28308W        W  623  39.675  12.789   3.015
28309W        W  624  15.664  34.098   3.169
28310W        W  625  34.385  14.294  14.140
28311W        W  626   4.245   2.723   0.620
28312W        W  627  17.789  15.519   0.312
28313W        W  628  24.738  26.715  10.763
28314W        W  629  12.857   5.107   0.674
28315W        W  630   2.478  14.210   0.811
28316W        W  631  27.939  17.384  11.012
28317W        W  632  23.166  11.903  11.203
28318W        W  633  11.338  23.200  14.750
28319W        W  634  35.041  41.562  13.912
28320W        W  635  39.258  20.000  13.346
28321W        W  636  21.187  14.164   2.887
28322W        W  637  11.529  14.260   4.790
28323W        W  638  13.201   6.485   3.690
28324W        W  639  33.411  44.702  12.935
28325W        W  640  27.663  44.325  10.885
28326W        W  641  26.821  31.711  13.970
28327W        W  642   5.185  38.665   9.929
28328W        W  643  27.616  40.590  10.386
28329W        W  644  28.604   3.651  10.244
28330W        W  645  17.350  40.898  12.901
28331W        W  646  28.369  12.988   2.406
28332W        W  647  36.901  37.320  11.480
28333W        W  648  31.128   4.670   3.711
28334W        W  649  33.547  35.680  13.429
28335W        W  650  40.311   5.038   5.055
28336W        W  651   2.843  38.103   0.714
28337W        W  652   8.904  27.280   3.146
28338W        W  653  11.739  18.323   2.719
28339W        W  654   2.222  13.570  14.408
28340W        W  655  13.606  37.985  11.575
28341W        W  656  31.557  28.920   2.361
28342W        W  657  27.425  15.634   0.887
28343W        W  658  13.300  43.098  13.530
28344W        W  659  24.028  23.040   4.820
28345W        W  660   0.534  38.126   0.759
28346W        W  661  37.624   2.459   4.236
28347W        W  662  17.641  13.624   2.391
28348W        W  663  15.838  16.787  10.526
28349W        W  664  40.863  22.223   4.245
28350W        W  665  31.883  39.381   3.270
28351W        W  666  35.255  33.880   1.543
28352W        W  667   5.619  30.397   2.376
28353W        W  668   9.969  33.456  10.454
28354W        W  669  39.341  40.950  11.037
28355W        W  670  31.471  28.419   2.266
28356W        W  671   8.825  32.639  10.981
28357W        W  672  20.116  44.971   3.930
28358W        W  673  30.623  29.420   4.173
28359W        W  674  34.689  32.972  13.902
28360W        W  675  37.153  27.947   2.494
28361W        W  676   9.276  22.552  11.612
28362W        W  677  26.360  18.209  14.425
28363W        W  678  38.348  22.044   1.034
28364W        W  679  34.067   2.259  14.056
28365W        W  680  22.979  12.110  12.530
28366W        W  681  32.126  11.054   1.493
28367W        W  682  40.299   8.888  11.873
28368W        W  683  30.563  38.411  12.052
28369W        W  684  36.584  25.074   2.558
28370W        W  685  22.064   9.142   4.508
28371W        W  686  27.470  21.128   4.529
28372W        W  687  32.668  43.830  12.974
28373W        W  688  36.342   7.813  12.403
28374W        W  689   6.955  32.423   1.738
28375W        W  690  11.331  19.504   0.824
28376W        W  691   1.362   1.031   0.831
28377W        W  692  25.494  27.220   1.312
28378W        W  693   4.618  17.087  10.550
28379W        W  694  37.525  34.877  11.593
28380W        W  695  11.902  35.448   0.343
28381W        W  696  22.462   4.971   4.452
28382W        W  697  10.775  13.652   3.976
28383W        W  698  18.904   4.201   1.781
28384W        W  699  20.458  42.760   1.961
28385W        W  700  38.287   0.310  13.833
28386W        W  701   4.545  44.227   4.874
28387W        W  702  33.721  36.674   0.922
28388W        W  703  13.316  23.689   2.363
28389W        W  704  15.232  10.099   1.286
28390W        W  705   6.560   3.582   1.003
28391W        W  706  13.795  21.004  10.372
28392W        W  707  27.164  26.364   2.886
28393W        W  708   6.710  14.268   1.347
28394W        W  709   0.635  25.793  11.530
28395W        W  710   7.157  26.667  10.588
28396W        W  711  18.900   5.686   1.405
28397W        W  712  10.827  30.617   2.021
28398W        W  713  24.731  16.038   1.439
28399W        W  714  39.809  26.141  10.304
28400W        W  715  21.806  27.462   0.441
28401W        W  716  14.525  23.038   3.718
28402W        W  717  37.624   0.792   2.801
28403W        W  718  37.992  34.433   3.262
28404W        W  719  40.483  24.071   5.497
28405W        W  720   3.204  39.572   4.182
28406W        W  721   7.326  11.297   1.951
28407W        W  722  22.971  19.104   5.568
28408W        W  723  43.765   1.755   0.602
28409W        W  724  34.404   6.449   4.030
28410W        W  725   7.686  28.024  10.541
28411W        W  726  37.488  30.058  11.562
28412W        W  727   6.302  25.761  12.997
28413W        W  728  24.163   5.360  14.658
28414W        W  729  42.599  31.418   3.156
28415W        W  730  27.065  19.749   3.641
28416W        W  731  37.768  43.889  11.457
28417W        W  732  21.572  11.097   3.977
28418W        W  733  32.521  19.671  10.666
28419W        W  734  18.021   0.058   4.156
28420W        W  735  38.833  21.290  14.852
28421W        W  736   7.796  38.693  13.803
28422W        W  737  37.364  19.742   4.403
28423W        W  738  10.681  29.017   4.712
28424W        W  739  29.989  41.950   2.144
28425W        W  740   1.221  10.389  13.840
28426W        W  741  14.139  17.842  13.492
28427W        W  742  38.592  33.073   1.700
28428W        W  743   3.910  14.503  12.094
28429W        W  744  33.415  30.060  10.619
28430W        W  745  30.854  22.469   0.830
28431W        W  746  15.719  26.812  10.432
28432W        W  747  24.542  36.045   3.239
28433W        W  748  36.320  18.291  11.100
28434W        W  749  20.708  38.527  13.086
28435W        W  750  29.159   7.868  12.448
28436W        W  751  11.782  32.050  11.533
28437W        W  752  13.577  11.705   3.206
28438W        W  753  19.315  24.768  13.286
28439W        W  754  11.364   2.861  13.359
28440W        W  755  24.569  38.403  13.117
28441W        W  756  21.788  19.017  14.376
28442W        W  757  38.573  42.890   9.910
28443W        W  758  24.943  19.209  14.600
28444W        W  759  26.153  31.079  14.656
28445W        W  760  25.498  26.322  13.788
28446W        W  761  26.627  12.657   3.375
28447W        W  762  31.715  33.943  13.447
28448W        W  763   0.496  13.600   0.223
28449W        W  764  35.517  26.716  14.068
28450W        W  765  26.438  17.766  11.980
28451W        W  766  39.771  13.706   1.181
28452W        W  767  29.106  12.631  13.862
28453W        W  768  25.361  37.694   3.701
28454W        W  769  33.837  11.326  14.032
28455W        W  770  16.050  43.544  11.107
28456W        W  771  16.615  36.325  13.916
28457W        W  772  30.902  37.874   1.483
28458W        W  773  27.766  30.832   4.695
28459W        W  774  44.171  43.945  11.564
28460W        W  775  39.359  25.267  11.078
28461W        W  776   8.422  33.685  11.632
28462W        W  777  23.580  11.859  12.006
28463W        W  778  22.050  30.378  11.219
28464W        W  779  30.028   3.971   4.177
28465W        W  780  37.161   3.717  12.989
28466W        W  781  14.816  14.833  11.168
28467W        W  782  23.747  10.689   1.450
28468W        W  783  18.212  15.048   4.122
28469W        W  784  13.068   5.170   1.160
28470W        W  785  29.075   6.901   2.773
28471W        W  786  19.752   8.911  13.794
28472W        W  787  41.658  22.212   3.854
28473W        W  788  31.879  36.933   1.215
28474W        W  789  41.260  14.362  13.190
28475W        W  790  42.292   4.824  12.414
28476W        W  791   4.381   8.149   4.566
28477W        W  792  15.909  44.320  12.864
28478W        W  793  35.599  34.055   4.695
28479W        W  794   5.929  40.021  10.319
28480W        W  795  24.344  16.741  13.504
28481W        W  796  34.358  39.388  11.561
28482W        W  797  33.534  44.807   3.619
28483W        W  798  18.062  16.834   1.657
28484W        W  799  11.224   6.765   3.830
28485W        W  800  30.913  36.346   0.289
28486W        W  801  43.392   1.397  13.539
28487W        W  802  33.492  15.517   4.238
28488W        W  803  18.184   3.363   3.656
28489W        W  804   1.252   2.430   0.268
28490W        W  805  31.400   1.309   0.499
28491W        W  806  30.404  10.701  14.086
28492W        W  807  33.685  25.058   5.022
28493W        W  808  44.384  41.989   0.743
28494W        W  809  11.209   9.136  13.149
28495W        W  810  20.249  11.762   0.293
28496W        W  811  42.799   3.910  13.573
28497W        W  812  17.678  41.767  13.035
28498W        W  813  15.753  17.541   2.857
28499W        W  814   9.556  15.353   3.806
28500W        W  815  20.946   4.336   0.717
28501W        W  816  37.630  15.100   1.823
28502W        W  817  18.633  40.381  13.880
28503W        W  818   4.416  29.002  13.907
28504W        W  819  35.835  35.560  14.875
28505W        W  820  22.103  40.777  13.064
28506W        W  821   9.248  36.336  13.406
28507W        W  822  38.650   9.284  12.890
28508W        W  823  40.862   9.642  10.417
28509W        W  824  12.047  40.916  12.599
28510W        W  825  33.743  41.005  12.433
28511W        W  826  43.585   0.393  14.353
28512W        W  827  24.003  24.256  14.901
28513W        W  828  43.800  18.692   2.786
28514W        W  829  33.974   3.219  14.313
28515W        W  830  17.927   3.418   4.127
28516W        W  831  25.177  26.974   0.967
28517W        W  832   0.223  12.347   4.166
28518W        W  833  21.923  26.689  11.960
28519W        W  834   0.366  29.378   1.819
28520W        W  835  42.733  38.382  13.409
28521W        W  836  39.437  34.608  12.676
28522W        W  837  39.440  10.707  10.620
28523W        W  838  35.544  34.358  13.551
28524W        W  839  21.376  36.994   3.805
28525W        W  840  30.206   2.781   1.570
28526W        W  841  26.006  13.325  12.555
28527W        W  842  17.996   8.249  14.478
28528W        W  843  42.790  27.752  13.971
28529W        W  844  31.817  33.099  11.292
28530W        W  845   8.443  31.671  14.850
28531W        W  846   8.577  44.532  14.449
28532W        W  847   4.934  28.102   2.898
28533W        W  848  38.361  35.617  13.436
28534W        W  849   3.954   2.162   4.454
28535W        W  850  30.743   0.393  12.493
28536W        W  851  32.211   4.329   0.772
28537W        W  852  21.028  34.200  11.258
28538W        W  853   2.356  34.907  14.337
28539W        W  854  43.978  33.541  11.597
28540W        W  855  41.358  13.356   3.817
28541W        W  856   6.513  17.829  10.646
28542W        W  857  33.401  22.584   0.014
28543W        W  858  19.030   4.449   2.347
28544W        W  859  43.859  28.162   1.574
28545W        W  860  33.525   0.609  14.316
28546W        W  861  21.302  24.992  13.572
28547W        W  862   9.181  39.735   4.052
28548W        W  863  37.505  38.356   1.224
28549W        W  864  22.134  22.781  10.260
28550W        W  865  44.880  27.914  12.569
28551W        W  866  28.823  34.039   5.411
28552W        W  867  36.525  16.599  11.461
28553W        W  868  19.737  38.492   4.135
28554W        W  869  38.484  30.456  12.476
28555W        W  870   6.912  17.810   4.531
28556W        W  871  37.323  36.287  12.394
28557W        W  872  36.573  19.075   3.642
28558W        W  873  18.997  12.190  10.119
28559W        W  874  24.605   8.138  11.486
28560W        W  875  22.563  37.800   3.800
28561W        W  876  32.742  36.314  14.181
28562W        W  877   6.692   2.611  10.973
28563W        W  878  26.613  25.701  14.885
28564W        W  879  20.568  10.209   9.492
28565W        W  880  34.893  32.433   2.751
28566W        W  881  35.571  15.041  14.253
28567W        W  882  33.086  11.382   3.733
28568W        W  883  28.255  23.554   1.671
28569W        W  884  16.385  18.100  11.469
28570W        W  885   9.801  19.238  13.517
28571W        W  886  34.898  17.360   0.468
28572W        W  887  39.511  20.095  13.818
28573W        W  888  25.186   2.380  11.109
28574W        W  889   8.651  27.602   0.752
28575W        W  890  34.559   2.930  13.544
28576W        W  891  37.481  20.513   4.772
28577W        W  892  33.819  41.095  14.792
28578W        W  893  37.609  14.738  13.914
28579W        W  894  42.084   2.886   2.321
28580W        W  895  35.532  42.020   3.301
28581W        W  896   0.997  20.232  14.768
28582W        W  897  34.008  41.964   4.489
28583W        W  898  13.131  23.596   3.719
28584W        W  899  30.953  12.540  12.492
28585W        W  900  32.808  27.106  14.266
28586W        W  901  40.524  42.751   4.161
28587W        W  902  31.143  38.858   0.030
28588W        W  903   2.975  27.175  12.007
28589W        W  904  18.202  26.530   0.269
28590W        W  905  25.466  21.310   2.782
28591W        W  906   0.407  23.002  12.018
28592W        W  907  28.198  15.655  11.171
28593W        W  908  42.258  22.235   2.771
28594W        W  909  27.099  44.392  11.683
28595W        W  910  14.085  16.495  12.635
28596W        W  911  10.743  31.973  12.992
28597W        W  912  18.128  41.840   9.956
28598W        W  913  32.200   3.184  13.487
28599W        W  914  35.042   8.780   0.281
28600W        W  915  26.906  25.121   2.235
28601W        W  916  12.671  41.447   1.885
28602W        W  917   2.422  35.003   5.051
28603W        W  918  12.629   5.983  12.786
28604W        W  919   3.330  11.081   3.894
28605W        W  920  39.994   9.440   3.274
28606W        W  921  36.169  29.143  14.318
28607W        W  922  14.649  23.822   3.326
28608W        W  923  22.740  35.270  13.455
28609W        W  924  16.322   2.733   2.855
28610W        W  925  11.873  28.649  10.377
28611W        W  926  25.777  12.845   5.268
28612W        W  927  26.955  40.036  11.014
28613W        W  928  36.818  33.884   1.157
28614W        W  929  21.288  30.162   2.904
28615W        W  930   6.466   6.313   2.302
28616W        W  931  43.458  30.409  13.627
28617W        W  932  34.670  14.267   2.204
28618W        W  933  43.194   3.743  11.121
28619W        W  934  32.821  42.234  13.265
28620W        W  935  44.296  22.729  14.968
28621W        W  936  20.178  20.279   1.257
28622W        W  937  22.563  24.017  10.139
28623W        W  938  21.946   7.796  13.819
28624W        W  939  38.117  12.074  13.856
28625W        W  940  43.378  30.641   2.690
28626W        W  941   1.746  42.782   0.859
28627W        W  942   1.538  27.928   2.633
28628W        W  943  18.155  42.683   0.233
28629W        W  944   4.585  12.798   2.092
28630W        W  945  36.811  44.578   0.567
28631W        W  946   3.570   4.274  11.198
28632W        W  947   6.936  23.532  10.961
28633W        W  948  16.701   5.857   0.407
28634W        W  949  40.736  26.842  12.013
28635W        W  950  13.670  24.139   2.409
28636W        W  951  24.195  17.665  11.620
28637W        W  952   8.626  29.967  12.978
28638W        W  953  34.816  28.112   1.920
28639W        W  954   8.274   5.462  12.928
28640W        W  955  29.602  32.122   1.311
28641W        W  956  26.030  39.388   4.672
28642W        W  957  17.255  38.329  13.475
28643W        W  958   6.052  36.603   1.845
28644W        W  959   5.301  16.454   0.613
28645W        W  960  33.578   2.089   5.079
28646W        W  961  40.081   5.758  13.072
28647W        W  962   0.791  20.244  13.274
28648W        W  963  36.561  17.155   3.852
28649W        W  964  20.548  32.944   3.318
28650W        W  965  39.486   5.334   4.089
28651W        W  966  11.769   9.501  14.415
28652W        W  967  32.457  44.157  10.051
28653W        W  968   4.755  33.514  14.523
28654W        W  969  38.430  21.002   2.670
28655W        W  970  12.173  22.243   4.730
28656W        W  971  43.561  37.336  13.286
28657W        W  972  34.463  29.675  12.491
28658W        W  973   2.550  29.233  11.234
28659W        W  974  35.035   1.330  10.466
28660W        W  975  31.881  24.066  11.077
28661W        W  976  41.033  29.128  11.497
28662W        W  977  42.452   8.090  10.686
28663W        W  978  26.115  33.841  12.953
28664W        W  979  11.884  27.771   3.280
28665W        W  980  14.728  13.390  11.353
28666W        W  981  36.542  31.547   1.001
28667W        W  982   3.191  17.831  10.140
28668W        W  983  23.542  37.306   3.654
28669W        W  984  35.113  37.852   1.815
28670W        W  985  35.484  11.839  11.255
28671W        W  986   1.706  12.899  13.034
28672W        W  987  17.049  13.032  10.282
28673W        W  988  42.979   3.184  14.529
28674W        W  989   0.614   3.488  14.541
28675W        W  990   3.436  34.632  12.518
28676W        W  991   3.790  21.450   2.406
28677W        W  992  44.777   9.694   5.420
28678W        W  993  23.702  44.337   5.041
28679W        W  994  29.206  14.866  11.363
28680W        W  995  37.983  34.954   4.438
28681W        W  996  25.599  13.026   0.842
28682W        W  997   2.219  39.438   3.256
28683W        W  998  24.494  39.761  11.387
28684W        W  999  10.169  32.344   4.539
28685W        W 1000   2.697  28.557   2.308
28686W        W 1001   6.660  29.648  11.125
28687W        W 1002  43.064  40.848  14.843
28688W        W 1003   5.945  31.942   3.397
28689W        W 1004  24.893  26.527   3.321
28690W        W 1005  11.087  39.964   3.823
28691W        W 1006  25.147  32.677  13.024
28692W        W 1007  21.064  15.496  10.768
28693W        W 1008  30.453  39.499  11.163
28694W        W 1009  36.413  44.975   1.282
28695W        W 1010  33.534  18.098  10.801
28696W        W 1011  27.614  19.996  12.494
28697W        W 1012  26.111   1.937  11.233
28698W        W 1013   2.519  38.417   4.009
28699W        W 1014  35.557  39.069  12.507
28700W        W 1015   1.025  44.307  14.784
28701W        W 1016  21.511   2.492  11.231
28702W        W 1017  31.340   3.181   1.252
28703W        W 1018   9.632  10.458  14.315
28704W        W 1019  40.349  44.382  10.736
28705W        W 1020  10.533  28.271  12.503
28706W        W 1021  43.225  35.473   2.278
28707W        W 1022  20.339  13.245   2.312
28708W        W 1023   9.608  19.036   0.356
28709W        W 1024  15.519  20.010   2.701
28710W        W 1025  38.523  38.580   0.742
28711W        W 1026   2.929  38.882   4.070
28712W        W 1027  33.595  35.645  11.160
28713W        W 1028  32.956  15.248   4.744
28714W        W 1029  28.038  29.689   3.206
28715W        W 1030   0.504   4.958   0.736
28716W        W 1031  16.762  23.253  10.953
28717W        W 1032  35.746  16.600   4.085
28718W        W 1033  13.701   8.284  11.550
28719W        W 1034  12.714  19.593   2.870
28720W        W 1035   1.370  14.474  11.132
28721W        W 1036  24.673  17.595   1.619
28722W        W 1037  30.220  40.114  11.668
28723W        W 1038   4.016  32.978  10.623
28724W        W 1039  44.431  37.426   3.392
28725W        W 1040  23.676  39.952  14.829
28726W        W 1041  11.845  28.622  10.896
28727W        W 1042   8.691  42.727  12.573
28728W        W 1043  40.841  27.863  13.416
28729W        W 1044  15.306  34.298   2.653
28730W        W 1045  26.455  24.117  11.250
28731W        W 1046  31.300   0.864  14.278
28732W        W 1047  20.728  35.944   3.180
28733W        W 1048  39.851  26.192  13.507
28734W        W 1049   6.129  42.266   2.639
28735W        W 1050  17.981  37.844   0.345
28736W        W 1051   1.447  10.654  12.483
28737W        W 1052   9.948  28.604   2.612
28738W        W 1053   8.768   4.913  10.327
28739W        W 1054   0.350   9.396  13.375
28740W        W 1055  22.555  23.502   0.839
28741W        W 1056   6.934  35.479  12.103
28742W        W 1057   4.877  10.363   1.509
28743W        W 1058  19.653  14.363  12.965
28744W        W 1059  11.654  25.523   3.409
28745W        W 1060  17.305  39.108   4.563
28746W        W 1061   3.325  37.731  14.792
28747W        W 1062  20.790  44.432   2.443
28748W        W 1063   8.263  25.560  13.609
28749W        W 1064  29.307  16.912   2.469
28750W        W 1065  17.271   6.417   0.298
28751W        W 1066  12.172  17.668   4.197
28752W        W 1067  31.102  18.610   1.905
28753W        W 1068  33.877  35.484  14.473
28754W        W 1069  18.204  36.784  13.294
28755W        W 1070  11.559  35.579  10.747
28756W        W 1071  21.478   9.489  12.907
28757W        W 1072  27.335   0.461   1.939
28758W        W 1073  30.425  32.149   5.098
28759W        W 1074  20.697  22.301   4.004
28760W        W 1075  27.364  29.913  12.752
28761W        W 1076  26.702  12.106   0.315
28762W        W 1077  29.900   5.282  13.381
28763W        W 1078  30.910  16.976  10.575
28764W        W 1079  25.493  15.793  12.080
28765W        W 1080  17.131   1.846  11.203
28766W        W 1081  39.935  30.004  12.485
28767W        W 1082  25.038   3.983  12.586
28768W        W 1083   2.225   0.598  14.048
28769W        W 1084   1.406  32.385  14.411
28770W        W 1085   2.822  15.317   0.007
28771W        W 1086  36.599  42.329   0.133
28772W        W 1087  23.933  25.574   2.748
28773W        W 1088  25.226  22.376  12.833
28774W        W 1089  38.760  24.218   0.919
28775W        W 1090  15.773  44.878  13.572
28776W        W 1091  12.305  39.329   4.208
28777W        W 1092  31.996   3.985   2.178
28778W        W 1093  31.219  30.551  13.134
28779W        W 1094   6.260  32.703   2.249
28780W        W 1095  27.027  44.231  13.099
28781W        W 1096  41.792  42.144  11.631
28782W        W 1097  39.871  11.892   2.174
28783W        W 1098   3.984  19.079   4.861
28784W        W 1099  43.865  33.094  11.835
28785W        W 1100  38.013  43.833   1.902
28786W        W 1101  27.524  16.119   0.800
28787W        W 1102  42.760  39.854   3.624
28788W        W 1103  35.588  13.115   1.433
28789W        W 1104  38.786  39.901   1.523
28790W        W 1105  42.805   9.235   0.291
28791W        W 1106  26.726  33.170  10.461
28792W        W 1107  36.415   9.146   2.831
28793W        W 1108  41.408  30.251   2.808
28794W        W 1109  31.371  26.474  10.179
28795W        W 1110  39.933  28.120   2.680
28796W        W 1111  17.233  34.704   1.382
28797W        W 1112  23.308  25.091   2.359
28798W        W 1113  26.969   1.321  10.669
28799W        W 1114  10.183  37.376   1.851
28800W        W 1115  33.092  30.394  13.065
28801W        W 1116  35.620   1.030  14.605
28802W        W 1117  30.660  29.715  11.135
28803W        W 1118  12.318  29.735  12.938
28804W        W 1119  40.672  44.363   0.596
28805W        W 1120  29.483  19.241   4.569
28806W        W 1121  39.508  43.450  13.597
28807W        W 1122  44.791  20.386  13.605
28808W        W 1123   1.708  40.522  13.810
28809W        W 1124  42.130  34.570   2.340
28810W        W 1125  24.703  27.196  10.945
28811W        W 1126  25.570   0.916  13.528
28812W        W 1127  40.065  22.510  12.021
28813W        W 1128  38.049   0.246   3.695
28814W        W 1129  36.450  18.214   1.326
28815W        W 1130  43.999  34.962  11.528
28816W        W 1131  25.454  12.376   4.513
28817W        W 1132  10.336  32.984   3.156
28818W        W 1133  39.290  29.411   0.578
28819W        W 1134   9.749  24.221  11.150
28820W        W 1135  35.022  21.822  14.918
28821W        W 1136  16.262  21.076  13.294
28822W        W 1137   4.246   6.851  12.154
28823W        W 1138  23.596   5.831   2.714
28824W        W 1139  22.887   9.655  10.739
28825W        W 1140  43.372  17.109  10.315
28826W        W 1141  32.825  24.675  12.530
28827W        W 1142  17.584  42.252  14.196
28828W        W 1143  18.218  31.700   1.426
28829W        W 1144   3.774  14.152   4.892
28830W        W 1145  26.252  27.733   4.174
28831W        W 1146   3.349  28.591  12.408
28832W        W 1147  44.327  13.564  10.887
28833W        W 1148  23.715  42.935  14.771
28834W        W 1149  32.282  11.286   4.071
28835W        W 1150   0.255  24.504  13.351
28836W        W 1151  29.792  23.491   1.964
28837W        W 1152   9.207  25.180  13.950
28838W        W 1153  20.949   4.928   4.585
28839W        W 1154  26.456  42.324   3.646
28840W        W 1155  38.344  20.564   2.937
28841W        W 1156   7.956   7.242  11.381
28842W        W 1157  12.095  43.858   4.265
28843W        W 1158  20.629   6.141   3.915
28844W        W 1159   3.480   1.144   0.795
28845W        W 1160  16.605  11.477   1.174
28846W        W 1161  41.891  34.168  11.583
28847W        W 1162  36.433  37.847   2.022
28848W        W 1163  44.910   2.184  11.918
28849W        W 1164  24.001  26.679  11.104
28850W        W 1165  18.089  28.542   3.205
28851W        W 1166  16.000  29.731  12.943
28852W        W 1167   2.128   4.334  10.943
28853W        W 1168  40.345  40.039  13.965
28854W        W 1169  42.603  29.997   2.510
28855W        W 1170  37.631   6.822   0.364
28856W        W 1171  13.229  40.603  10.335
28857W        W 1172  33.651  23.181  10.605
28858W        W 1173   3.956  30.072   4.892
28859W        W 1174   4.249  18.370   3.214
28860W        W 1175  11.342  15.520  13.908
28861W        W 1176  17.267  34.994  14.532
28862W        W 1177  19.791  21.725  12.622
28863W        W 1178  32.007  16.565   0.390
28864W        W 1179   5.441  44.873   2.214
28865W        W 1180  34.398  35.413  14.498
28866W        W 1181  39.062  41.777  10.458
28867W        W 1182  28.637  37.983  11.634
28868W        W 1183  23.742  43.235  11.009
28869W        W 1184  23.323  40.583  13.477
28870W        W 1185  22.281  12.638   2.295
28871W        W 1186   3.415  19.014  12.894
28872W        W 1187  23.056  37.900   3.185
28873W        W 1188  35.944  43.511  13.506
28874W        W 1189  33.751   5.712  11.039
28875W        W 1190  11.326  40.394  12.518
28876W        W 1191  10.186  25.460   0.327
28877W        W 1192  22.627  41.172   2.331
28878W        W 1193   9.401  14.696   4.353
28879W        W 1194  39.391  31.474  13.930
28880W        W 1195   1.126  43.891  10.492
28881W        W 1196  43.238  31.214  11.575
28882W        W 1197  18.068  27.193  11.019
28883W        W 1198  33.004   2.936   2.704
28884W        W 1199  42.644  20.500  12.508
28885W        W 1200  25.943  37.079  12.972
28886W        W 1201  23.190  25.783   4.205
28887W        W 1202  27.436  24.654  14.299
28888W        W 1203  27.298  27.468   0.507
28889W        W 1204   5.241  11.582   2.648
28890W        W 1205  42.800   9.494  11.131
28891W        W 1206  36.413  26.730   3.628
28892W        W 1207  42.083  24.685   2.601
28893W        W 1208  26.454  16.359   4.545
28894W        W 1209   3.274   9.623  14.037
28895W        W 1210  40.422   6.795   1.693
28896W        W 1211  14.792   1.204   1.876
28897W        W 1212   5.156  15.611  13.354
28898W        W 1213  15.283  10.153  13.952
28899W        W 1214  43.723  40.901   3.554
28900W        W 1215  28.547  25.700   4.583
28901W        W 1216  39.469  43.731   2.605
28902W        W 1217  31.158  42.416  11.219
28903W        W 1218  26.411  29.928  10.751
28904W        W 1219  23.110  12.887   0.994
28905W        W 1220  21.477  18.087   1.427
28906W        W 1221  11.689   2.349   4.924
28907W        W 1222  32.246  32.215   4.083
28908W        W 1223  28.204  17.160   0.039
28909W        W 1224  19.559  12.137   0.465
28910W        W 1225   8.216   5.664  13.949
28911W        W 1226  19.547  10.219  11.817
28912W        W 1227  17.467   0.725  10.774
28913W        W 1228  18.897   9.315   1.436
28914W        W 1229   8.340  18.855  14.440
28915W        W 1230  19.451  34.373   0.342
28916W        W 1231  29.924  29.325   3.161
28917W        W 1232   4.969  27.774  14.224
28918W        W 1233  18.426  39.882  13.303
28919W        W 1234  14.203   5.742  14.483
28920W        W 1235   8.841   0.990   3.426
28921W        W 1236  38.804   6.379  12.029
28922W        W 1237  23.541  28.189   3.300
28923W        W 1238  27.646  25.733  11.127
28924W        W 1239  24.995  11.360   3.775
28925W        W 1240  12.062  36.214  11.996
28926W        W 1241  34.545  42.927   1.518
28927W        W 1242  39.306  44.329  11.424
28928W        W 1243  26.031  38.338   4.713
28929W        W 1244  10.113  22.741   4.190
28930W        W 1245  19.589  28.891   2.343
28931W        W 1246   4.850  32.650  10.562
28932W        W 1247  29.340  37.476   3.211
28933W        W 1248   4.875  11.222   1.323
28934W        W 1249  30.647  23.182   4.028
28935W        W 1250  34.789  44.000  10.553
28936W        W 1251  20.904  28.895  14.030
28937W        W 1252   5.917  13.523  12.954
28938W        W 1253  39.265  22.151   3.308
28939W        W 1254  27.711  36.345  14.852
28940W        W 1255  43.828  39.835  10.777
28941W        W 1256  37.412   5.184   0.295
28942W        W 1257   7.187   2.257   5.073
28943W        W 1258  22.563  26.212   0.674
28944W        W 1259  23.982  32.920   3.121
28945W        W 1260  29.283  36.095  11.073
28946W        W 1261   4.459  27.156  12.378
28947W        W 1262  37.352   2.341  12.975
28948W        W 1263  39.474  13.519   3.003
28949W        W 1264  34.812  26.689  11.429
28950W        W 1265   5.967  36.551  14.135
28951W        W 1266  36.296   4.612   1.530
28952W        W 1267  15.907   2.196   0.161
28953W        W 1268   4.535  36.926   4.609
28954W        W 1269  33.551  21.730   1.396
28955W        W 1270  41.846  42.885   0.130
28956W        W 1271  44.175  21.183   2.739
28957W        W 1272  31.086  29.080  11.567
28958W        W 1273   3.981  36.116   0.818
28959W        W 1274  22.240  31.629  10.960
28960W        W 1275  26.405   2.423  10.532
28961W        W 1276  31.621  33.646  12.623
28962W        W 1277  19.731  36.582   0.699
28963W        W 1278  41.740   3.592  11.100
28964W        W 1279   7.318  23.170  13.818
28965W        W 1280  27.991   7.088  10.516
28966W        W 1281   4.809  21.442   2.312
28967W        W 1282  24.536  31.561   2.349
28968W        W 1283  39.419  10.237   0.375
28969W        W 1284  40.253   9.636   2.842
28970W        W 1285  39.910   5.740   3.029
28971W        W 1286   7.305  23.679  13.841
28972W        W 1287  32.557  22.064   4.674
28973W        W 1288   1.477  18.200   1.727
28974W        W 1289  17.659  37.817   4.580
28975W        W 1290  13.706   0.646   1.370
28976W        W 1291   1.013  19.094   4.175
28977W        W 1292   9.761  37.889  10.992
28978W        W 1293  27.901  36.662  10.765
28979W        W 1294  30.882  29.642   3.533
28980W        W 1295  17.113  31.876  11.817
28981W        W 1296  17.758  44.199   0.735
28982W        W 1297  27.468   8.619   4.238
28983W        W 1298  19.653  27.193   0.017
28984W        W 1299  25.071  23.387  12.930
28985W        W 1300  35.841   8.064  14.010
28986W        W 1301  18.606  15.058   1.382
28987W        W 1302  43.466   5.332   3.604
28988W        W 1303  41.352  18.778  13.416
28989W        W 1304   1.574  19.889  12.453
28990W        W 1305  18.490   4.733   2.665
28991W        W 1306   8.523  30.151   0.020
28992W        W 1307  18.711   0.827   0.414
28993W        W 1308  30.235  19.498   2.930
28994W        W 1309  11.056  12.190  12.658
28995W        W 1310  22.738   4.486  12.879
28996W        W 1311  29.009  18.774   3.205
28997W        W 1312  43.929   0.849   1.624
28998W        W 1313  27.594  19.102  12.828
28999W        W 1314  12.372  39.817  11.077
29000W        W 1315  11.150   6.625  11.453
29001W        W 1316   9.189  18.346   4.664
29002W        W 1317  31.516  33.115   0.446
29003W        W 1318  15.709   4.163   5.163
29004W        W 1319  44.354   2.884   4.526
29005W        W 1320  17.163  24.251   3.251
29006W        W 1321  12.876  38.663  11.545
29007W        W 1322   5.681  38.305  11.598
29008W        W 1323  33.948  32.666  14.555
29009W        W 1324  30.659  33.163   1.857
29010W        W 1325  44.721  12.789  10.644
29011W        W 1326  33.302  29.639   1.885
29012W        W 1327  36.071   5.148  11.075
29013W        W 1328  23.440  21.137  10.739
29014W        W 1329  17.709   9.341   3.717
29015W        W 1330  41.624  30.171   3.703
29016W        W 1331   7.091  21.191  14.230
29017W        W 1332  35.645  42.496   3.076
29018W        W 1333   7.682  36.396  13.018
29019W        W 1334  16.127  29.947  11.077
29020W        W 1335  41.019  17.083   4.871
29021W        W 1336  44.739  31.703   2.328
29022W        W 1337  34.045  34.756  11.239
29023W        W 1338   6.883  23.978   1.011
29024W        W 1339  28.008  16.562   2.189
29025W        W 1340  24.684  30.662   2.860
29026W        W 1341   1.805   3.742   3.685
29027W        W 1342  33.196  13.786   4.947
29028W        W 1343  25.604   6.591  10.894
29029W        W 1344  40.482  15.599   3.652
29030W        W 1345  23.884   8.792   1.004
29031W        W 1346   8.238   8.162   3.774
29032W        W 1347  44.294  15.794   3.738
29033W        W 1348  33.490  37.848   1.400
29034W        W 1349  42.970  37.896   4.740
29035W        W 1350  19.598  42.778   1.859
29036W        W 1351  28.169   1.899   3.649
29037W        W 1352  38.991   6.854   4.549
29038W        W 1353  19.994  16.328  11.972
29039W        W 1354  43.481  23.689   3.722
29040W        W 1355  29.164  30.993  13.360
29041W        W 1356  30.879  38.447  11.660
29042W        W 1357  10.758   6.240   4.154
29043W        W 1358  42.838  11.304  13.837
29044W        W 1359  20.132  35.614   3.100
29045W        W 1360  19.887  28.571  13.933
29046W        W 1361  27.578   1.205  11.459
29047W        W 1362  12.290  31.076  13.293
29048W        W 1363   9.893   6.738   0.295
29049W        W 1364  14.443  25.127   5.071
29050W        W 1365  24.099  26.831  11.597
29051W        W 1366   3.024   3.447  12.670
29052W        W 1367  23.169  44.731  11.306
29053W        W 1368   0.954  35.726   1.425
29054W        W 1369  32.139  17.501   3.156
29055W        W 1370  21.222  31.646  12.010
29056W        W 1371  41.770  32.455  13.554
29057W        W 1372   1.991  34.672   5.067
29058W        W 1373  14.079  32.461   0.729
29059W        W 1374  20.966  30.075   1.313
29060W        W 1375   1.451  31.013  13.043
29061W        W 1376  21.487  36.524   1.694
29062W        W 1377   3.775  39.329  11.917
29063W        W 1378   4.281  32.094  15.000
29064W        W 1379  28.243   4.856  12.898
29065W        W 1380  17.380   7.680  14.347
29066W        W 1381  13.844  41.348  10.435
29067W        W 1382  24.025  34.971  12.810
29068W        W 1383  21.726  41.699   2.809
29069W        W 1384  30.828  15.956  11.573
29070W        W 1385  28.401  31.587   4.658
29071W        W 1386  18.291   0.945   0.708
29072W        W 1387   6.342  40.148  12.475
29073W        W 1388  30.894  30.933   0.911
29074W        W 1389   9.339  15.004  13.923
29075W        W 1390  43.831   3.190  14.757
29076W        W 1391  11.658  10.852   2.181
29077W        W 1392  44.069  21.744  13.927
29078W        W 1393  34.015  34.850  14.728
29079W        W 1394   3.736   7.977   0.208
29080W        W 1395  14.633  35.320   0.905
29081W        W 1396  35.367  27.593   1.252
29082W        W 1397   5.790  43.367   0.894
29083W        W 1398  28.631   0.744  11.118
29084W        W 1399  20.410  17.333  12.462
29085W        W 1400   7.813  19.208  12.072
29086W        W 1401  27.179  44.189  14.760
29087W        W 1402  28.883  40.566  11.600
29088W        W 1403  11.210  26.267   0.820
29089W        W 1404  40.272   3.331   1.385
29090W        W 1405   6.585   3.109   5.240
29091W        W 1406  35.385  18.758  13.806
29092W        W 1407   2.526  13.243   4.540
29093W        W 1408  17.624  20.586   2.759
29094W        W 1409  38.344  39.500  11.506
29095W        W 1410  19.624   2.904  14.802
29096W        W 1411  44.260   7.842  14.344
29097W        W 1412   2.718  26.619   1.758
29098W        W 1413  41.095   4.785  10.815
29099W        W 1414  29.852  14.358   1.448
29100W        W 1415   0.390  22.929   3.056
29101W        W 1416  44.669  33.511  13.504
29102W        W 1417   5.846  35.442   0.214
29103W        W 1418  20.359  14.121   0.814
29104W        W 1419  30.947  14.013  10.210
29105W        W 1420   6.907  36.336  14.341
29106W        W 1421   8.259  31.885  11.925
29107W        W 1422  42.895  29.395   4.455
29108W        W 1423  41.912   5.595  11.132
29109W        W 1424  26.885  22.595   0.403
29110W        W 1425  42.025   7.817  12.850
29111W        W 1426  41.065   2.501  10.707
29112W        W 1427  14.097  11.722   3.253
29113W        W 1428  13.894   2.297  12.816
29114W        W 1429  34.147  26.720   2.757
29115W        W 1430  32.141  37.550   4.107
29116W        W 1431  30.024   3.921   3.167
29117W        W 1432   1.274  16.206  11.931
29118W        W 1433  17.822  41.761   3.893
29119W        W 1434   7.843  41.416   3.185
29120W        W 1435   8.799   4.953  13.775
29121W        W 1436  34.752  31.643   4.144
29122W        W 1437  15.534  17.181  13.027
29123W        W 1438  15.573   8.254  14.923
29124W        W 1439  44.269  11.672   1.755
29125W        W 1440  11.741   2.010  12.108
29126W        W 1441  29.637   3.182   3.173
29127W        W 1442   9.420  31.560   0.197
29128W        W 1443  41.754   1.896  12.946
29129W        W 1444  15.387  32.350  13.914
29130W        W 1445  33.155  25.042  11.261
29131W        W 1446   1.554  13.053  11.750
29132W        W 1447  38.234  15.665  10.106
29133W        W 1448  16.783  28.909   1.955
29134W        W 1449  42.991  27.775  12.453
29135W        W 1450  42.071   1.788  14.749
29136W        W 1451  20.153  24.057  10.975
29137W        W 1452   0.782  22.845   2.339
29138W        W 1453  35.056  30.210  13.965
29139W        W 1454   6.867  38.866  13.324
29140W        W 1455  10.393  26.942   4.080
29141W        W 1456  23.701   1.864   1.802
29142W        W 1457   4.983  30.225   1.655
29143W        W 1458  37.335  39.946   4.683
29144W        W 1459  43.939   6.398  14.136
29145W        W 1460  13.785   5.911   2.286
29146W        W 1461  23.596  20.566   3.226
29147W        W 1462  18.354  17.686   3.173
29148W        W 1463  26.256  44.463   2.513
29149W        W 1464   0.499  13.076   0.263
29150W        W 1465  32.052  40.250  13.807
29151W        W 1466  39.858  23.871  10.003
29152W        W 1467  35.593   9.310  13.088
29153W        W 1468   3.041  25.312   1.374
29154W        W 1469   4.715  34.319  11.249
29155W        W 1470   1.290  18.076   2.755
29156W        W 1471   9.995  35.107   2.409
29157W        W 1472  11.263  33.811  13.994
29158W        W 1473   0.826  44.075  12.997
29159W        W 1474   9.623  33.937  12.116
29160W        W 1475  22.834  44.971  12.066
29161W        W 1476  44.626  18.321  13.986
29162W        W 1477  18.580  13.872   4.581
29163W        W 1478   2.590  41.902   0.769
29164W        W 1479   8.080  39.141  11.150
29165W        W 1480  21.824   4.414  14.764
29166W        W 1481   0.929  17.839  11.940
29167W        W 1482  41.841   8.868   4.599
29168W        W 1483  34.165   8.079  14.309
29169W        W 1484   7.424   2.544  14.407
29170W        W 1485  29.607  38.492  11.152
29171W        W 1486  44.963   5.877   3.094
29172W        W 1487  23.442  25.633   0.749
29173W        W 1488  22.713  33.660  12.821
29174W        W 1489  14.219  24.601   1.827
29175W        W 1490   9.338  19.376   1.733
29176W        W 1491  21.262  44.720  14.538
29177W        W 1492  19.672   5.458   1.783
29178W        W 1493   5.536  32.351   0.390
29179W        W 1494  30.094  33.502   2.892
29180W        W 1495  41.760  25.188  14.431
29181W        W 1496   4.093  33.619   0.934
29182W        W 1497   8.316   5.602  12.030
29183W        W 1498  37.552  32.500   1.425
29184W        W 1499  19.664  13.638   2.883
29185W        W 1500  41.548  38.330   0.471
29186W        W 1501  43.836   0.947  11.164
29187W        W 1502  10.199  14.162  12.508
29188W        W 1503  13.243  19.107  11.364
29189W        W 1504  39.026  40.516  10.885
29190W        W 1505  24.580  16.513  11.551
29191W        W 1506  39.915  36.241  13.821
29192W        W 1507  43.955  11.897   5.421
29193W        W 1508  29.470  34.178  11.106
29194W        W 1509   1.278   9.867  12.893
29195W        W 1510  20.026  26.215   0.280
29196W        W 1511  12.818  35.111  13.017
29197W        W 1512  34.400  30.138  10.981
29198W        W 1513   9.394   5.514  14.823
29199W        W 1514  27.477  31.025   3.766
29200W        W 1515  31.390  18.778  14.252
29201W        W 1516  36.328  24.027   4.406
29202W        W 1517   4.479  23.798   2.599
29203W        W 1518  36.783  12.664   2.784
29204W        W 1519  28.930  14.837   3.654
29205W        W 1520  30.135   0.234  14.899
29206W        W 1521   0.927  10.382   2.777
29207W        W 1522   9.113  32.633   0.814
29208W        W 1523   9.398  24.470  14.507
29209W        W 1524  19.744   1.287   4.378
29210W        W 1525  43.054   2.316  12.597
29211W        W 1526  37.980   6.892  11.027
29212W        W 1527  39.090  26.151   0.044
29213W        W 1528   0.078  38.536   1.880
29214W        W 1529  30.680  35.379  13.337
29215W        W 1530  38.902   1.624   2.268
29216W        W 1531  39.922  26.567   5.123
29217W        W 1532  41.749  41.301   4.207
29218W        W 1533  19.478  14.223   2.230
29219W        W 1534  32.443  16.682   2.312
29220W        W 1535  15.135  11.893   1.185
29221W        W 1536   4.638  23.267   1.444
29222W        W 1537  30.585  37.059   5.022
29223W        W 1538  16.834   9.201  11.179
29224W        W 1539  18.427  39.965  12.442
29225W        W 1540  15.046  35.602   3.248
29226W        W 1541   2.199   0.445   2.820
29227W        W 1542  14.245  23.477  10.318
29228W        W 1543  29.802   9.487   4.219
29229W        W 1544   0.424  39.365  12.464
29230W        W 1545  44.408  34.689  14.409
29231W        W 1546  24.955  38.626  14.856
29232W        W 1547  14.590  11.780   4.237
29233W        W 1548  29.535  40.361   1.757
29234W        W 1549  28.717  22.954   0.350
29235W        W 1550  31.135  14.166   4.193
29236W        W 1551  27.166  27.185  11.564
29237W        W 1552   7.744  32.980  13.859
29238W        W 1553  28.770   1.404   3.927
29239W        W 1554  39.921  32.156  13.449
29240W        W 1555  18.041   4.704  12.453
29241W        W 1556  41.738  28.382  14.351
29242W        W 1557  32.517  18.563  11.557
29243W        W 1558  41.344   0.742   0.992
29244W        W 1559  31.151   6.932  11.019
29245W        W 1560  43.746  19.686  12.903
29246W        W 1561  33.443  39.406  11.613
29247W        W 1562  25.891   3.165  13.895
29248W        W 1563  13.169  35.804   0.011
29249W        W 1564  25.561  24.981   0.482
29250W        W 1565  21.482  19.626  11.665
29251W        W 1566  34.130  40.363  14.496
29252W        W 1567  21.006   3.315  12.670
29253W        W 1568  28.493   3.158  12.474
29254W        W 1569   2.723   4.783   2.172
29255W        W 1570  24.073  43.983  11.988
29256W        W 1571  19.556  39.084  14.297
29257W        W 1572  10.773  40.426   4.655
29258W        W 1573  25.045  35.044   3.782
29259W        W 1574   4.034  44.991  14.572
29260W        W 1575  13.787  22.523  13.784
29261W        W 1576   1.338  29.861   2.259
29262W        W 1577  37.552   3.462  12.093
29263W        W 1578  19.898  13.859   0.917
29264W        W 1579  21.569  11.125   2.704
29265W        W 1580  12.406   5.076  14.785
29266W        W 1581  29.294  27.442   4.758
29267W        W 1582   2.562   6.239   2.197
29268W        W 1583   0.860  42.054  13.014
29269W        W 1584  41.846  42.377   1.494
29270W        W 1585  20.624  26.464   1.094
29271W        W 1586  42.624   8.321   3.091
29272W        W 1587  18.605  26.747  10.691
29273W        W 1588   9.407  17.503  10.722
29274W        W 1589  35.036  31.319   0.779
29275W        W 1590  20.237  40.009   0.200
29276W        W 1591   2.333   6.707  14.749
29277W        W 1592  38.629  38.855  10.426
29278W        W 1593  18.115  20.280  14.756
29279W        W 1594  18.254  24.765  11.289
29280W        W 1595  20.815  29.083  13.309
29281W        W 1596  22.229  42.571   4.137
29282W        W 1597  24.721  35.831  11.586
29283W        W 1598  21.758  12.916  12.033
29284W        W 1599  30.332  42.973  11.316
29285W        W 1600   9.912  40.897  14.346
29286W        W 1601   1.157  11.521  12.859
29287W        W 1602   9.257   0.474  10.688
29288W        W 1603   8.309  17.152   2.628
29289W        W 1604  15.161  39.565   2.213
29290W        W 1605   5.972  35.382  14.710
29291W        W 1606  23.508  15.581   0.924
29292W        W 1607   8.596   4.868  12.542
29293W        W 1608  25.142  20.979  14.937
29294W        W 1609   8.274  25.850   1.756
29295W        W 1610   8.622  24.585  13.403
29296W        W 1611  35.647  26.533   4.145
29297W        W 1612  41.990   5.882  12.179
29298W        W 1613  36.883  22.430  11.160
29299W        W 1614  19.732  25.701  12.493
29300W        W 1615  44.397  10.476   3.292
29301W        W 1616   3.993  25.248  12.441
29302W        W 1617  27.131  20.560  10.631
29303W        W 1618  11.318   3.378   4.893
29304W        W 1619  11.648  17.639  13.360
29305W        W 1620   0.203  14.621   1.219
29306W        W 1621  12.412   7.197   4.145
29307W        W 1622  15.367  32.550  11.754
29308W        W 1623   8.840  15.808  11.152
29309W        W 1624  10.312  39.347  11.484
29310W        W 1625  12.185   4.141  13.026
29311W        W 1626  14.865  31.496  13.891
29312W        W 1627  30.350   7.837   3.695
29313W        W 1628  23.291  42.024  14.879
29314W        W 1629  28.978   8.181   1.296
29315W        W 1630  16.577  17.775  12.061
29316W        W 1631   2.367  21.086  11.238
29317W        W 1632  18.138  14.059  11.122
29318W        W 1633  31.210  41.329  14.777
29319W        W 1634   0.661   9.881   9.879
29320W        W 1635  16.052   1.023  14.968
29321W        W 1636  24.073  27.201  12.570
29322W        W 1637  10.827  19.521   0.967
29323W        W 1638  44.525  29.117   0.185
29324W        W 1639  41.073  20.287  12.084
29325W        W 1640  34.271  16.117  12.702
29326W        W 1641   1.235  37.354   2.184
29327W        W 1642  40.537  37.963   3.393
29328W        W 1643  15.352   1.048   4.613
29329W        W 1644  39.935  14.825   1.899
29330W        W 1645  21.493  23.237  14.460
29331W        W 1646  26.365  38.820   0.004
29332W        W 1647  37.561  44.484   4.533
29333W        W 1648  13.087  43.990   3.327
29334W        W 1649   4.951  26.177   3.747
29335W        W 1650  24.254  29.430  10.770
29336W        W 1651   0.386   3.625  11.964
29337W        W 1652  44.916  44.984   3.699
29338W        W 1653   6.900  29.070   3.615
29339W        W 1654  29.168  36.426   1.248
29340W        W 1655   4.841  11.144  11.044
29341W        W 1656  33.898  30.111  10.800
29342W        W 1657   7.979  23.291  10.756
29343W        W 1658  16.145  11.269  11.334
29344W        W 1659   3.746   9.961   2.091
29345W        W 1660  36.136  20.330  14.949
29346W        W 1661  17.543  11.849  13.336
29347W        W 1662  41.076   8.467  13.750
29348W        W 1663  13.461  15.041   2.954
29349W        W 1664  12.079  17.565   0.199
29350W        W 1665  22.522  11.932   1.769
29351W        W 1666  17.975  24.563   0.353
29352W        W 1667  44.354  17.788  13.738
29353W        W 1668  23.249  30.907   0.985
29354W        W 1669   3.385   5.084  11.967
29355W        W 1670  15.866  37.001  14.282
29356W        W 1671  36.114   8.737  13.398
29357W        W 1672  33.495  39.828   2.458
29358W        W 1673  43.226  24.618  11.283
29359W        W 1674  18.557  12.558   4.213
29360W        W 1675   2.723   2.054   3.920
29361W        W 1676   5.122   7.390   0.167
29362W        W 1677   2.681  29.122   5.000
29363W        W 1678  33.253  44.589   2.246
29364W        W 1679   5.651  35.278  14.179
29365W        W 1680   4.538  32.993  12.979
29366W        W 1681  41.123  44.290   4.502
29367W        W 1682  24.473  21.733   4.176
29368W        W 1683   5.331  44.253  11.081
29369W        W 1684  30.661  13.607   1.878
29370W        W 1685   8.801   4.228  10.952
29371W        W 1686  39.261  20.686  11.919
29372W        W 1687  20.570  37.591   2.650
29373W        W 1688  16.208   9.708  11.017
29374W        W 1689  35.597   4.224  14.006
29375W        W 1690  20.206  42.619   4.856
29376W        W 1691  34.323   0.471   0.335
29377W        W 1692  35.025   1.343   3.158
29378W        W 1693  27.459   6.788  12.923
29379W        W 1694   8.100  41.286   2.477
29380W        W 1695  44.705  38.973   3.359
29381W        W 1696  25.245  40.721  11.176
29382W        W 1697  14.652  24.427   2.046
29383W        W 1698  39.778  19.821  13.442
29384W        W 1699  16.690   0.787   4.724
29385W        W 1700  22.189  16.266  14.422
29386W        W 1701  38.053   6.227   2.097
29387W        W 1702  23.062   4.727   2.761
29388W        W 1703  11.364  24.562   2.325
29389W        W 1704   6.919  16.276  11.639
29390W        W 1705  20.429  29.539  11.169
29391W        W 1706   0.387   4.750  10.428
29392W        W 1707   2.495  21.315  10.806
29393W        W 1708  12.945   9.349  13.401
29394W        W 1709   9.155  26.490   3.375
29395W        W 1710  41.278  31.508   0.917
29396W        W 1711  22.044  44.715  12.518
29397W        W 1712  13.025  18.453   3.666
29398W        W 1713  22.207   4.379  13.137
29399W        W 1714  18.611  38.814  14.527
29400W        W 1715  44.448  19.020   0.602
29401W        W 1716  21.835  42.959   0.826
29402W        W 1717  37.806  26.738   1.439
29403W        W 1718   9.859  12.256   3.862
29404W        W 1719  16.968  44.773   0.493
29405W        W 1720  29.479  44.301   0.875
29406W        W 1721  29.204  36.507   4.645
29407W        W 1722  18.189  31.543   3.382
29408W        W 1723  34.459  38.857  11.965
29409W        W 1724  27.012  33.442  14.791
29410W        W 1725  11.140   5.955  13.347
29411W        W 1726   1.905  34.165   5.191
29412W        W 1727  14.893   3.659   3.421
29413W        W 1728  37.025  24.762   2.593
29414W        W 1729  24.220  17.552  12.548
29415W        W 1730   6.346  40.895   2.748
29416W        W 1731   2.841  23.591   0.144
29417W        W 1732  29.143   0.374   2.411
29418W        W 1733   2.356  37.547   1.420
29419W        W 1734  25.012  36.443   4.201
29420W        W 1735  16.713  25.891   2.433
29421W        W 1736  43.535  40.256   0.383
29422W        W 1737   7.864  31.987  10.733
29423W        W 1738   1.257  10.828   3.697
29424W        W 1739  24.642  24.318  12.363
29425W        W 1740  36.394  30.025   3.916
29426W        W 1741  19.088   9.159   0.028
29427W        W 1742  13.102   1.860   1.504
29428W        W 1743  26.016   8.006   0.228
29429W        W 1744  35.793   6.720   4.848
29430W        W 1745  40.084   9.635  13.470
29431W        W 1746  15.742  28.135  12.004
29432W        W 1747  20.505   7.514  14.548
29433W        W 1748   2.757  37.951  10.895
29434W        W 1749  42.365   9.791   2.431
29435W        W 1750  31.623  34.540  12.128
29436W        W 1751  11.143  21.850  13.860
29437W        W 1752  39.316   3.929   3.207
29438W        W 1753  11.504  22.952   1.862
29439W        W 1754  21.697  18.143   0.492
29440W        W 1755   0.364   2.219   1.948
29441W        W 1756  27.971  14.643  11.844
29442W        W 1757  26.667   4.656   0.347
29443W        W 1758   8.176  36.578  10.701
29444W        W 1759  44.758  40.140  12.414
29445W        W 1760  18.339  10.269  12.455
29446W        W 1761   7.002   7.710   0.778
29447W        W 1762  16.853  14.159   0.810
29448W        W 1763  23.481  10.349   0.355
29449W        W 1764  17.782   3.194   0.883
29450W        W 1765  27.534   3.650   0.028
29451W        W 1766   6.618   3.427  10.589
29452W        W 1767  40.006  32.993  10.751
29453W        W 1768  27.742  18.680  12.503
29454W        W 1769   2.815  36.614  11.107
29455W        W 1770  15.366   2.415  13.816
29456W        W 1771  38.302   7.616   2.215
29457W        W 1772  25.123  33.618  11.378
29458W        W 1773  27.708   9.830   1.052
29459W        W 1774  40.741   4.380  11.535
29460W        W 1775  14.891   9.251  14.108
29461W        W 1776  30.146  14.711  13.809
29462W        W 1777  22.192  36.620  11.182
29463W        W 1778   3.053   1.193  13.962
29464W        W 1779  12.896   9.352  10.604
29465W        W 1780  13.104  25.319  12.019
29466W        W 1781   9.392  29.550  13.181
29467W        W 1782  28.941  29.930  10.653
29468W        W 1783  31.468   0.407   0.735
29469W        W 1784  27.722  33.441  12.645
29470W        W 1785  15.847   0.018   2.207
29471W        W 1786  13.249  19.930  13.440
29472W        W 1787  21.295  15.857  12.891
29473W        W 1788  14.866  43.497  11.544
29474W        W 1789  13.023  24.611  11.611
29475W        W 1790  42.444   9.553  11.704
29476W        W 1791   5.723  35.034   2.381
29477W        W 1792   6.783  27.117  12.150
29478W        W 1793  41.235  33.453  11.977
29479W        W 1794  38.388  34.653  14.463
29480W        W 1795   1.159  44.894   1.603
29481W        W 1796  43.065  30.980   1.809
29482W        W 1797   0.915  25.568  11.166
29483W        W 1798  14.930  13.150  10.527
29484W        W 1799  26.218  40.359  11.492
29485W        W 1800   4.475  22.448  11.144
29486W        W 1801  41.272   3.497   1.429
29487W        W 1802  30.587   7.885  12.193
29488W        W 1803  27.836  37.897   0.429
29489W        W 1804  15.568  34.006   2.277
29490W        W 1805   1.421  30.496  12.968
29491W        W 1806  30.109  40.939   4.881
29492W        W 1807   0.386  38.786   4.713
29493W        W 1808   2.414  40.302   0.058
29494W        W 1809   1.899  26.652   4.534
29495W        W 1810  25.422   2.482   0.412
29496W        W 1811  34.470  20.584  12.841
29497W        W 1812  24.140  12.574  14.936
29498W        W 1813   3.214  36.044   3.890
29499W        W 1814  12.319  17.151   9.746
29500W        W 1815   2.365  16.313   3.382
29501W        W 1816  31.077  18.163  13.770
29502W        W 1817  39.054   1.936  11.605
29503W        W 1818   1.860   4.134   0.744
29504W        W 1819  36.590  36.073  11.182
29505W        W 1820  12.651   0.445   4.842
29506W        W 1821  10.534  16.706  12.871
29507W        W 1822  39.900  13.712   0.274
29508W        W 1823  35.128  42.597   3.834
29509W        W 1824  41.068  29.694  12.069
29510W        W 1825  41.982  34.948  12.978
29511W        W 1826  35.570  31.424   0.927
29512W        W 1827  40.739  19.650   4.087
29513W        W 1828   7.940  25.114  14.398
29514W        W 1829  43.805  26.903   0.860
29515W        W 1830  26.508  21.683  11.100
29516W        W 1831  19.883  15.553  14.368
29517W        W 1832   2.491  25.080  14.422
29518W        W 1833  20.403  37.560  10.742
29519W        W 1834   7.696  11.234  13.713
29520W        W 1835  44.826  20.239   4.210
29521W        W 1836  37.282  38.336  10.797
29522W        W 1837   4.058  25.067   2.138
29523W        W 1838  14.708  37.927   0.282
29524W        W 1839  25.673  22.946   4.198
29525W        W 1840  14.710  31.097   3.752
29526W        W 1841  43.793  39.096   2.810
29527W        W 1842  36.056  19.952  13.917
29528W        W 1843  17.546   6.280  12.014
29529W        W 1844  37.805  13.675   4.786
29530W        W 1845  20.334   1.474  12.820
29531W        W 1846  34.940   8.736   1.502
29532W        W 1847  10.619  36.104  12.972
29533W        W 1848  25.497  19.586  12.832
29534W        W 1849  15.718  13.635   2.709
29535W        W 1850  37.526  36.630  12.999
29536W        W 1851  36.443   2.456  14.864
29537W        W 1852  28.083  15.166  12.547
29538W        W 1853  37.922  14.806   4.307
29539W        W 1854  17.790   2.447   1.254
29540W        W 1855  43.666   2.448  10.828
29541W        W 1856  23.712  21.217  12.043
29542W        W 1857   4.868  28.317   0.926
29543W        W 1858  21.819  23.007   0.348
29544W        W 1859  39.330  14.658   2.668
29545W        W 1860  28.114   8.498  14.868
29546W        W 1861  33.273   5.664  11.944
29547W        W 1862  23.581  34.907   0.998
29548W        W 1863  29.796  29.940  12.348
29549W        W 1864  14.075  12.094  10.704
29550W        W 1865   6.677  22.592  11.612
29551W        W 1866  19.109  13.876  12.378
29552W        W 1867  31.947  22.320   0.274
29553W        W 1868  11.412  16.652   2.870
29554W        W 1869   7.261  24.983  14.382
29555W        W 1870  34.937  26.021   4.596
29556W        W 1871  37.804  29.053  10.329
29557W        W 1872   8.384   6.235   1.312
29558W        W 1873  16.256  16.515   0.471
29559W        W 1874  24.694  32.939  12.960
29560W        W 1875  24.976  26.546   4.204
29561W        W 1876  26.608   5.847  14.524
29562W        W 1877  38.729  38.062  14.515
29563W        W 1878  21.271  12.028   0.740
29564W        W 1879  29.978   1.744  13.601
29565W        W 1880  28.061  21.771   0.553
29566W        W 1881  29.861  22.278  14.028
29567W        W 1882  16.254  35.438  13.988
29568W        W 1883  36.327  15.787  12.462
29569W        W 1884   8.792   7.829   4.538
29570W        W 1885  27.484  19.080   2.407
29571W        W 1886  25.983   3.166  13.117
29572W        W 1887   5.650  44.422  13.034
29573W        W 1888  41.231  41.159   4.150
29574W        W 1889  23.559  23.785   1.897
29575W        W 1890   5.412  35.139  13.262
29576W        W 1891  39.553  22.615   0.821
29577W        W 1892   7.478   4.625   1.284
29578W        W 1893  10.562  22.676   3.303
29579W        W 1894  21.315  25.070   4.047
29580W        W 1895  22.695  27.412  13.778
29581W        W 1896  32.012  35.365   2.275
29582W        W 1897  33.931   3.321   1.481
29583W        W 1898   9.184  27.963   1.725
29584W        W 1899   0.361  18.474  13.069
29585W        W 1900   3.797   4.015   0.726
29586W        W 1901  42.950   9.210  13.302
29587W        W 1902  24.728  11.892  10.715
29588W        W 1903  19.829  31.987   0.563
29589W        W 1904  33.291  16.839  11.143
29590W        W 1905  13.328  33.971   4.085
29591W        W 1906  38.656  11.295   2.304
29592W        W 1907   8.684  20.355  11.931
29593W        W 1908  15.174   5.776  11.150
29594W        W 1909  30.845  23.550  13.992
29595W        W 1910  31.017  31.243   1.330
29596W        W 1911  27.597  17.615   3.175
29597W        W 1912  40.821   5.438  12.526
29598W        W 1913   9.321  23.572  11.469
29599W        W 1914  39.452  35.014  11.901
29600W        W 1915  15.653  27.950   2.235
29601W        W 1916  40.195  43.742  12.595
29602W        W 1917  13.488  23.405   2.858
29603W        W 1918  17.634  27.312  14.403
29604W        W 1919  41.274  12.253   0.538
29605W        W 1920  15.227  10.884  13.287
29606W        W 1921   2.250  14.777  11.904
29607W        W 1922  19.706  32.838  14.163
29608W        W 1923  39.426  15.989   1.927
29609W        W 1924  30.064  13.351  10.408
29610W        W 1925   5.173  36.888  13.033
29611W        W 1926  22.684  12.137   3.138
29612W        W 1927  33.978  17.228   1.898
29613W        W 1928  34.454  32.693   2.637
29614W        W 1929   8.734  22.253   2.019
29615W        W 1930   3.978   8.263   2.749
29616W        W 1931  10.123  41.366  14.348
29617W        W 1932   4.144  10.699  12.944
29618W        W 1933  18.999  29.034   1.324
29619W        W 1934  42.624  34.888  13.060
29620W        W 1935  41.515  24.681   5.042
29621W        W 1936   6.190   6.807  13.413
29622W        W 1937  17.534  30.083   5.023
29623W        W 1938  20.173  32.639   3.199
29624W        W 1939   8.127   3.772   3.563
29625W        W 1940  11.629  23.628  13.529
29626W        W 1941  41.287  35.954   1.479
29627W        W 1942  35.907   2.482  11.876
29628W        W 1943   0.378   6.682  12.003
29629W        W 1944  26.235   3.346  12.214
29630W        W 1945  30.378  19.608   1.110
29631W        W 1946  29.923  40.040   3.735
29632W        W 1947  42.403  37.250  11.424
29633W        W 1948   3.306   8.177  12.062
29634W        W 1949   9.212  15.102   2.890
29635W        W 1950  21.605  43.687   4.763
29636W        W 1951  16.673  20.058  14.552
29637W        W 1952  29.752   8.687  13.425
29638W        W 1953   6.295   8.135   3.292
29639W        W 1954  19.181  25.436  11.960
29640W        W 1955  33.372  33.017  11.231
29641W        W 1956   3.011  16.792   1.424
29642W        W 1957  26.789  22.643   1.480
29643W        W 1958   8.596  26.952   1.233
29644W        W 1959  33.612   2.930  12.698
29645W        W 1960  21.172  16.811   2.182
29646W        W 1961  41.765  23.063  12.461
29647W        W 1962  16.264  44.349  10.923
29648W        W 1963   4.911  42.925   4.541
29649W        W 1964   5.376  35.327   2.742
29650W        W 1965  18.612  27.129  12.159
29651W        W 1966  43.257  30.763  12.562
29652W        W 1967  39.554  39.339  12.866
29653W        W 1968   6.230  21.707  11.462
29654W        W 1969  35.423  37.889   4.242
29655W        W 1970  31.882   3.746  14.178
29656W        W 1971  28.991  13.236   0.849
29657W        W 1972  31.486   0.282   2.895
29658W        W 1973  35.568  23.555  13.526
29659W        W 1974  44.058  26.681  12.055
29660W        W 1975   3.670  13.211  12.903
29661W        W 1976  38.008   4.861   0.231
29662W        W 1977  40.996  12.551   3.725
29663W        W 1978   7.947  27.241   2.799
29664W        W 1979   2.969   7.632  11.201
29665W        W 1980  20.675  44.195   0.090
29666W        W 1981  15.158  27.404   2.717
29667W        W 1982  16.096  43.804   3.329
29668W        W 1983  14.325   8.898  13.296
29669W        W 1984  28.390  27.829  12.966
29670W        W 1985   7.163   2.777   2.620
29671W        W 1986   9.216   0.286  13.301
29672W        W 1987  29.894   6.465  13.767
29673W        W 1988  40.267  10.778   0.106
29674W        W 1989  40.000   6.328   4.309
29675W        W 1990  34.138  14.559   3.700
29676W        W 1991   9.399   2.250  12.821
29677W        W 1992  32.068  23.597   1.860
29678W        W 1993  13.228  12.630   3.693
29679W        W 1994  42.514  11.273  14.392
29680W        W 1995  35.297  42.952   4.202
29681W        W 1996   7.923   6.885  12.057
29682W        W 1997  20.482   3.803  12.883
29683W        W 1998  21.265   4.016  13.487
29684W        W 1999  18.640   9.268  12.405
29685W        W 2000  21.058  44.463   3.116
29686W        W 2001  19.557  31.586  13.184
29687W        W 2002  23.418  27.636   2.652
29688W        W 2003  14.157  11.769   0.932
29689W        W 2004  41.317  22.651   0.292
29690W        W 2005  14.836  44.496  10.491
29691W        W 2006   6.880  31.963   3.793
29692W        W 2007  41.158   1.772  13.780
29693W        W 2008  39.830  25.626  12.368
29694W        W 2009  13.802   3.992  12.573
29695W        W 2010  28.464  21.633   4.211
29696W        W 2011   6.414  27.970  12.378
29697W        W 2012  15.662  12.077   3.657
29698W        W 2013  44.837  23.190  10.762
29699W        W 2014  44.886  26.170   4.375
29700W        W 2015  10.493  25.081  12.061
29701W        W 2016  28.492  24.742  12.980
29702W        W 2017  34.407  34.497   4.409
29703W        W 2018  12.301  24.671   4.089
29704W        W 2019  36.312  16.521   1.978
29705W        W 2020  31.249  34.059   4.015
29706W        W 2021  41.472  11.391   4.345
29707W        W 2022  12.791  21.858   0.312
29708W        W 2023  32.378   5.657   0.595
29709W        W 2024  26.092  29.637  13.068
29710W        W 2025  10.078  37.484   9.944
29711W        W 2026  21.186   9.340  13.916
29712W        W 2027  18.809   9.836  10.103
29713W        W 2028  31.564  42.054   1.609
29714W        W 2029  36.980  21.208   5.033
29715W        W 2030  14.655   1.729   0.428
29716W        W 2031  22.735  33.916   1.772
29717W        W 2032  27.867  11.188   2.160
29718W        W 2033   0.782  32.126  11.618
29719W        W 2034  12.679  30.198  11.103
29720W        W 2035   9.012   1.721  12.009
29721W        W 2036  30.155  26.123  13.356
29722W        W 2037  22.193  16.889   0.728
29723W        W 2038  16.434  27.517   5.054
29724W        W 2039  27.644  34.975   3.366
29725W        W 2040   8.707   0.009   0.351
29726W        W 2041  24.236  20.036   2.272
29727W        W 2042  13.856   0.175   1.007
29728W        W 2043  13.229  37.749   1.752
29729W        W 2044  34.750  15.234  13.069
29730W        W 2045  15.531  17.593  13.364
29731W        W 2046  44.067  22.275   3.084
29732W        W 2047  32.066  25.798  14.528
29733W        W 2048  14.165  16.533  13.975
29734W        W 2049  20.268   1.181  13.577
29735W        W 2050  21.630  43.297   2.919
29736W        W 2051   2.620  29.446  14.913
29737W        W 2052  44.841  16.788   2.728
29738W        W 2053   5.831  25.730   4.692
29739W        W 2054  11.269  30.081   4.079
29740W        W 2055  43.567  33.300   3.766
29741W        W 2056  39.919  25.192  10.576
29742W        W 2057  42.944  24.181  11.118
29743W        W 2058  14.201  35.663  12.894
29744W        W 2059  33.682  24.326   0.446
29745W        W 2060  28.673  36.380  13.552
29746W        W 2061  44.017  11.748  12.870
29747W        W 2062  31.169  24.031   4.177
29748W        W 2063  18.774  41.085   1.712
29749W        W 2064  29.957  37.023   3.727
29750W        W 2065  25.212  39.367   0.486
29751W        W 2066  36.106  18.784  11.098
29752W        W 2067   2.235   7.950  10.631
29753W        W 2068  10.221   4.427   4.282
29754W        W 2069  20.267   2.796   3.123
29755W        W 2070   0.483   3.188   5.224
29756W        W 2071  23.734  20.824  10.436
29757W        W 2072  39.251  41.544  12.613
29758W        W 2073   3.343  29.084  13.908
29759W        W 2074  10.245  34.820   0.792
29760W        W 2075  14.188  21.974   3.529
29761W        W 2076  12.879  19.949   3.694
29762W        W 2077  28.026  39.044   4.669
29763W        W 2078  40.544  20.855   3.817
29764W        W 2079  17.078  36.087  13.989
29765W        W 2080  27.528   2.900   0.454
29766W        W 2081   8.821  17.078  11.771
29767W        W 2082  23.749  36.848  13.361
29768W        W 2083  28.710   0.703   1.328
29769W        W 2084   4.005  23.138  14.354
29770W        W 2085   4.569  11.554  10.734
29771W        W 2086  13.600   8.129   2.850
29772W        W 2087  35.208  12.669  14.399
29773W        W 2088  11.911  14.697  11.514
29774W        W 2089   6.388  42.553   3.835
29775W        W 2090  12.178  42.509  14.801
29776W        W 2091  14.645  14.788  12.656
29777W        W 2092   5.366  26.677   1.502
29778W        W 2093  44.958   7.683   1.215
29779W        W 2094  31.155  26.063  12.884
29780W        W 2095  23.168  29.432  13.390
29781W        W 2096  13.264  20.207  13.885
29782W        W 2097   3.873  40.375  13.289
29783W        W 2098   3.440   5.006   1.613
29784W        W 2099  31.986  15.627   0.370
29785W        W 2100  10.788   5.666   0.420
29786W        W 2101  12.899  14.731  13.599
29787W        W 2102   2.132  21.622   0.178
29788W        W 2103  30.552   7.362  14.500
29789W        W 2104   1.884  11.636   9.721
29790W        W 2105  28.295  44.867  14.467
29791W        W 2106  37.003  26.360  14.363
29792W        W 2107  30.815  34.350   3.324
29793W        W 2108   1.462  35.412  11.966
29794W        W 2109   5.467  29.618   0.515
29795W        W 2110  21.260   2.616   1.662
29796W        W 2111  38.882   9.251   3.791
29797W        W 2112   5.402  22.140  10.487
29798W        W 2113  38.575  37.047   1.111
29799W        W 2114   8.151  44.731   4.121
29800W        W 2115  41.948  21.615  12.785
29801W        W 2116  35.071  43.576  12.954
29802W        W 2117   8.908   9.233  12.696
29803W        W 2118  37.382   3.209   4.558
29804W        W 2119   2.237  13.152  13.958
29805W        W 2120  39.801   5.871   4.451
29806W        W 2121  37.022  13.812  13.357
29807W        W 2122   9.145   4.215   2.567
29808W        W 2123   8.755   9.381   4.170
29809W        W 2124  19.690   7.779  14.863
29810W        W 2125   7.328  42.069  11.624
29811W        W 2126   2.457  19.585  11.250
29812W        W 2127  36.597  16.009  10.899
29813W        W 2128  11.947  33.994   4.054
29814W        W 2129  30.608  44.025  13.821
29815W        W 2130  34.645   3.891   0.003
29816W        W 2131  18.741  37.475   2.094
29817W        W 2132  43.652  40.267   4.640
29818W        W 2133  44.891  27.563   1.714
29819W        W 2134  43.947  24.227   4.319
29820W        W 2135  12.304  12.854   3.485
29821W        W 2136  44.783  21.631   3.550
29822W        W 2137  33.601  39.669  14.373
29823W        W 2138  37.805  16.395  13.748
29824W        W 2139  15.412  11.859  11.796
29825W        W 2140  28.658  22.728   3.289
29826W        W 2141  34.662  36.598   3.541
29827W        W 2142  34.460  42.184  12.776
29828W        W 2143   2.064  16.205  12.590
29829W        W 2144  32.995   8.741  13.356
29830W        W 2145  10.272   8.760  11.688
29831W        W 2146   2.436   7.639  11.211
29832W        W 2147  23.741  41.909   1.832
29833W        W 2148   0.508  26.951   1.081
29834W        W 2149  39.544  23.428   9.756
29835W        W 2150  22.108  37.743  14.814
29836W        W 2151  40.254  25.598  11.338
29837W        W 2152  31.898  15.825   1.902
29838W        W 2153  20.546  28.696  12.369
29839W        W 2154   6.322  15.274  11.203
29840W        W 2155  33.436  23.031   2.365
29841W        W 2156  13.101  40.012  12.376
29842W        W 2157  44.448  16.170   2.217
29843W        W 2158  17.518   2.042   0.020
29844W        W 2159  31.388  40.340  13.344
29845W        W 2160   9.710   2.233   4.205
29846W        W 2161   1.983  28.109  13.887
29847W        W 2162   5.780   1.317   4.265
29848W        W 2163  39.394  29.079  12.271
29849W        W 2164  44.250  29.432   2.336
29850W        W 2165  30.406  18.755  14.475
29851W        W 2166  22.290  32.040   4.289
29852W        W 2167  31.919  15.859   1.200
29853W        W 2168  21.339  26.132   0.389
29854W        W 2169  30.466   8.785   4.635
29855W        W 2170  34.138  19.237   3.214
29856W        W 2171   9.325  43.342  10.358
29857W        W 2172  13.283  43.020   3.598
29858W        W 2173   2.834  23.442  13.957
29859W        W 2174  42.754  17.157   4.127
29860W        W 2175  23.897  42.549  11.936
29861W        W 2176  23.645  37.778   1.275
29862W        W 2177   0.932  40.784   3.698
29863W        W 2178  14.037  33.647  11.599
29864W        W 2179  12.715  14.077   3.351
29865W        W 2180  30.169  16.036  14.084
29866W        W 2181  16.487  41.593   1.192
29867W        W 2182  42.046  14.211   2.774
29868W        W 2183  35.412  41.768   4.848
29869W        W 2184  18.783  31.059   3.715
29870W        W 2185  20.580   8.609   3.650
29871W        W 2186  41.762   4.846   4.847
29872W        W 2187  22.073  36.349   2.427
29873W        W 2188   2.245  20.027  11.987
29874W        W 2189   7.799  43.841   4.528
29875W        W 2190  33.226  17.656   0.850
29876W        W 2191  43.235  20.705  14.094
29877W        W 2192   3.983  16.013   1.416
29878W        W 2193  38.361   0.328  12.840
29879W        W 2194   9.157  20.139  13.295
29880W        W 2195  25.163  20.150   0.521
29881W        W 2196  42.863   4.718   2.575
29882W        W 2197  35.027  22.858  13.345
29883W        W 2198   6.833  38.329   1.000
29884W        W 2199  12.661  11.435  13.909
29885W        W 2200  13.271  10.683  14.855
29886W        W 2201  36.898  25.026  14.390
29887W        W 2202  17.543  36.864   4.541
29888W        W 2203  43.468   1.373   0.839
29889W        W 2204  28.913  26.178  10.733
29890W        W 2205  12.523  37.420   0.249
29891W        W 2206  12.582  19.264   1.291
29892W        W 2207  19.170  31.206   2.154
29893W        W 2208  13.149   1.706   1.005
29894W        W 2209   1.549   7.126   1.253
29895W        W 2210  19.979   0.945  13.955
29896W        W 2211  18.348  41.944  11.114
29897W        W 2212  28.732  22.096  14.827
29898W        W 2213  15.065  42.046  11.473
29899W        W 2214  20.011   6.554   0.779
29900W        W 2215  35.102   8.904  12.054
29901W        W 2216  35.864   9.074   1.178
29902W        W 2217  41.243  23.566   3.828
29903W        W 2218   2.293  16.253  13.552
29904W        W 2219   5.725  30.255   0.755
29905W        W 2220  27.059  32.508  11.360
29906W        W 2221  20.314  20.667  14.106
29907W        W 2222  16.104  12.677   3.256
29908W        W 2223  22.020  11.096  12.459
29909W        W 2224   6.882  26.096   0.754
29910W        W 2225  26.912  10.219   1.837
29911W        W 2226  26.022  37.416  13.410
29912W        W 2227  42.067  10.834   3.807
29913W        W 2228  43.058  27.949  13.570
29914W        W 2229  20.434  23.586  11.096
29915W        W 2230   0.769  11.430   2.042
29916W        W 2231  15.788  16.505   2.680
29917W        W 2232   0.534  15.655   5.142
29918W        W 2233  10.776  43.941  11.658
29919W        W 2234   9.214  19.373  14.003
29920W        W 2235   4.555  40.408   0.348
29921W        W 2236  26.895  43.408  14.329
29922W        W 2237  17.720  40.831   9.846
29923W        W 2238  30.927  27.022   3.409
29924W        W 2239  14.048  27.666  10.640
29925W        W 2240  38.147  14.288  13.589
29926W        W 2241  25.614  15.743  12.963
29927W        W 2242  14.454  16.201  12.935
29928W        W 2243  23.979  24.020   2.831
29929W        W 2244  26.162  30.694  12.805
29930W        W 2245  10.103   3.333  13.387
29931W        W 2246  16.274  21.191   1.290
29932W        W 2247  11.775  25.496   3.948
29933W        W 2248  43.970  32.500   4.569
29934W        W 2249   8.208   9.368   3.367
29935W        W 2250  23.046  40.298  12.867
29936W        W 2251   6.637  26.868  13.482
29937W        W 2252  20.023  27.920  11.634
29938W        W 2253   1.929  36.822  11.589
29939W        W 2254  23.487  42.940  12.786
29940W        W 2255   5.868  23.074  11.638
29941W        W 2256  17.260   5.189  14.736
29942W        W 2257  36.557  44.937  14.253
29943W        W 2258  23.966  34.626   1.770
29944W        W 2259  21.224   1.182  12.402
29945W        W 2260  44.975  22.767   0.795
29946W        W 2261  35.805   8.012   2.304
29947W        W 2262  35.600  15.617   0.996
29948W        W 2263  25.622  29.098  10.474
29949W        W 2264  41.291  31.645  14.393
29950W        W 2265   6.697   6.809  14.894
29951W        W 2266   0.281  31.399  12.550
29952W        W 2267  22.234  17.545  11.526
29953W        W 2268   8.048  32.426   4.898
29954W        W 2269  14.631  38.718   2.469
29955W        W 2270  30.407   8.767   3.827
29956W        W 2271  37.900  40.748  13.335
29957W        W 2272  25.994  44.946  11.634
29958W        W 2273   6.176  23.831   1.979
29959W        W 2274  19.334  33.775   1.708
29960W        W 2275   9.199  22.761   4.356
29961W        W 2276  24.948   5.175  13.061
29962W        W 2277   0.748  11.400  11.531
29963W        W 2278  10.965   3.573   3.184
29964W        W 2279  16.051  42.518  11.144
29965W        W 2280  42.481  38.005   2.418
29966W        W 2281  16.223  12.798  11.612
29967W        W 2282   1.460  14.356   1.857
29968W        W 2283  37.299  23.736   1.346
29969W        W 2284  33.115  40.200  14.959
29970W        W 2285  21.617  25.482  14.416
29971W        W 2286  30.905  24.511  14.901
29972W        W 2287  20.805  40.514  13.404
29973W        W 2288  19.794  25.217  11.464
29974W        W 2289  39.600  34.840  13.526
29975W        W 2290  15.166  42.238   2.197
29976W        W 2291  11.085   5.399   4.334
29977W        W 2292  41.407  36.686   0.125
29978W        W 2293  28.488   4.730  10.252
29979W        W 2294  20.991  13.077  13.945
29980W        W 2295  20.685  33.088  10.728
29981W        W 2296   0.277   5.248  10.401
29982W        W 2297  39.916  23.587  14.646
29983W        W 2298   3.019  30.923  12.432
29984W        W 2299  37.398   8.402  14.882
29985W        W 2300  31.644  24.214  12.468
29986W        W 2301   6.510  44.763  12.574
29987W        W 2302  42.373  38.989   1.301
29988W        W 2303   9.371   9.190  12.452
29989W        W 2304  12.363  39.035  13.503
29990W        W 2305  24.476  34.388   0.794
29991W        W 2306   5.231   4.331   2.618
29992W        W 2307  24.183   1.785  10.715
29993W        W 2308  36.951   4.876   1.273
29994W        W 2309   1.275  32.834  10.716
29995W        W 2310  21.307  10.802   3.653
29996W        W 2311  40.334  15.594   3.160
29997W        W 2312  33.033  10.041  14.796
29998W        W 2313  18.520  29.487  14.572
29999W        W 2314   4.470  33.521   0.297
30000W        W 2315  24.754  25.688   2.353
30001W        W 2316  13.721  37.646  14.334
30002W        W 2317   4.726  43.305   4.903
30003W        W 2318   3.004  29.098   3.651
30004W        W 2319  12.166  32.998  10.679
30005W        W 2320  37.338   5.191  10.518
30006W        W 2321  22.893  19.021   1.444
30007W        W 2322  10.318  37.407  11.114
30008W        W 2323  38.112   0.758   3.679
30009W        W 2324  43.275  26.119  14.300
30010W        W 2325  35.876   5.303   3.711
30011W        W 2326  18.753  10.652  14.868
30012W        W 2327  16.899  12.880   0.571
30013W        W 2328  41.830  36.443  12.520
30014W        W 2329  42.088  27.577   3.717
30015W        W 2330  37.551  29.893   1.708
30016W        W 2331  13.616  37.989   2.902
30017W        W 2332  19.580  26.149  14.140
30018W        W 2333  20.809   8.193   4.365
30019W        W 2334  43.349  17.622   3.460
30020W        W 2335   3.890  33.881   4.635
30021W        W 2336   3.195  11.881   4.542
30022W        W 2337  39.737  18.181  10.934
30023W        W 2338   9.175   3.498  13.323
30024W        W 2339   8.830  31.719   1.778
30025W        W 2340   9.440  25.576   0.115
30026W        W 2341   6.856  13.074  13.925
30027W        W 2342  22.042  12.166   0.428
30028W        W 2343  40.259  19.639  13.587
30029W        W 2344   3.207   0.172  14.757
30030W        W 2345  38.427  41.153   2.243
30031W        W 2346  22.836  23.687  12.821
30032W        W 2347  27.499  36.206  13.017
30033W        W 2348  13.385  15.755   1.794
30034W        W 2349   0.491  37.121   1.796
30035W        W 2350  32.417  19.207  12.018
30036W        W 2351   1.686  28.490  11.083
30037W        W 2352  16.119  43.027  12.599
30038W        W 2353  29.747  13.734   4.807
30039W        W 2354  32.900  14.066  10.624
30040W        W 2355  32.755  41.382   2.142
30041W        W 2356   1.978  12.338  11.206
30042W        W 2357   1.156  36.940  12.092
30043W        W 2358  17.979  40.880   0.287
30044W        W 2359  11.400   8.700  12.408
30045W        W 2360  44.197   8.901   1.264
30046W        W 2361  22.885  28.077  13.525
30047W        W 2362  18.736  25.923  11.139
30048W        W 2363   2.857   2.912   3.635
30049W        W 2364  20.519  16.410   3.650
30050W        W 2365  25.452  17.597  13.556
30051W        W 2366  16.011  27.867   4.524
30052W        W 2367  27.957  18.841  12.056
30053W        W 2368  12.727  28.518  12.499
30054W        W 2369  33.963  36.885  14.321
30055W        W 2370  10.441   1.788   3.428
30056W        W 2371  22.657  27.995   4.476
30057W        W 2372  42.514  41.335   2.325
30058W        W 2373  11.727  43.764   3.434
30059W        W 2374   6.692   8.143   4.865
30060W        W 2375  33.532   4.960   0.421
30061W        W 2376  25.145  37.151  12.974
30062W        W 2377  30.476  26.160   4.625
30063W        W 2378  24.569  35.620   1.194
30064W        W 2379   8.675  18.136   4.080
30065W        W 2380  20.223  37.567   1.317
30066W        W 2381  10.440  43.630  13.949
30067W        W 2382  40.307  25.194  10.252
30068W        W 2383  11.068  17.495  14.687
30069W        W 2384  27.616  40.100   1.020
30070W        W 2385  16.514  32.180   3.332
30071W        W 2386  36.130  32.463  14.083
30072W        W 2387   3.392  10.247  12.934
30073W        W 2388  18.572  19.665   3.814
30074W        W 2389  18.128  35.056   4.569
30075W        W 2390   4.885  42.649  12.087
30076W        W 2391  15.520   7.323   2.738
30077W        W 2392  26.478  10.004  14.718
30078W        W 2393  15.378  38.243  12.940
30079W        W 2394  16.831   4.238   4.161
30080W        W 2395  36.026  44.250   5.386
30081W        W 2396  22.471   4.137  11.060
30082W        W 2397  42.444  13.614  11.963
30083W        W 2398  24.871  26.218   2.138
30084W        W 2399  24.289   1.978  12.103
30085W        W 2400  22.260  41.848   0.746
30086W        W 2401   4.507  38.899   1.181
30087W        W 2402  16.791  31.035  10.769
30088W        W 2403   7.656  36.547  14.894
30089W        W 2404  36.142  22.213   4.856
30090W        W 2405   3.747  20.289   1.562
30091W        W 2406  25.254  13.182   0.464
30092W        W 2407   3.342  38.805   0.879
30093W        W 2408  11.718  44.739   3.097
30094W        W 2409  33.091   3.519  13.047
30095W        W 2410  34.802  11.268   2.236
30096W        W 2411  14.493  20.811   3.250
30097W        W 2412   9.113  16.561  13.035
30098W        W 2413  35.557  27.934   0.095
30099W        W 2414  34.936  22.661  14.347
30100W        W 2415  27.490  39.754   1.404
30101W        W 2416  33.458   3.193  12.278
30102W        W 2417  42.301  28.829   4.125
30103W        W 2418   8.378  41.192  13.653
30104W        W 2419  32.135  44.454  10.417
30105W        W 2420  17.333  42.163   1.379
30106W        W 2421  32.402  35.054   3.265
30107W        W 2422  35.874  21.718  10.662
30108W        W 2423   2.815  34.937   3.141
30109W        W 2424  28.158  31.849   2.635
30110W        W 2425  44.473  39.509   3.326
30111W        W 2426  10.779  17.321  13.382
30112W        W 2427  15.051   1.421   1.031
30113W        W 2428  29.884   6.325  10.621
30114W        W 2429  26.272  44.904  13.392
30115W        W 2430  28.479  31.897  14.449
30116W        W 2431  26.683  36.863  10.786
30117W        W 2432  40.211  44.151   0.903
30118W        W 2433   4.782  19.976  11.008
30119W        W 2434  22.368   4.839  12.985
30120W        W 2435   4.767  14.798  13.554
30121W        W 2436  39.462  38.651   2.275
30122W        W 2437   3.136  30.898  10.698
30123W        W 2438   8.742  43.256  13.177
30124W        W 2439  30.804  38.678  13.491
30125W        W 2440  26.242  28.511  12.399
30126W        W 2441  20.996  14.994  10.662
30127W        W 2442  40.869  43.574   2.079
30128W        W 2443  32.402  20.168  11.302
30129W        W 2444   4.224   8.411   2.195
30130W        W 2445   7.298  16.156  14.865
30131W        W 2446   0.372  44.578  14.057
30132W        W 2447  44.965  11.150  10.999
30133W        W 2448  16.156   0.435   2.648
30134W        W 2449  33.416  42.398   2.264
30135W        W 2450  20.383   5.904   1.296
30136W        W 2451   0.996  18.621  14.046
30137W        W 2452   0.484  31.456  11.143
30138W        W 2453  16.832  10.384  11.066
30139W        W 2454  22.508  21.932   0.460
30140W        W 2455  30.720  28.523   0.125
30141W        W 2456  32.689   1.702   0.870
30142W        W 2457  43.379  10.913  11.240
30143W        W 2458  40.488  17.205   4.702
30144W        W 2459   8.806  14.886  10.794
30145W        W 2460  20.531   9.851  11.377
30146W        W 2461   2.799  36.674  12.039
30147W        W 2462   6.291  42.568  10.752
30148W        W 2463   6.420  23.203  13.196
30149W        W 2464   9.618   1.514  14.533
30150W        W 2465  42.348  38.910  14.181
30151W        W 2466  16.188  32.310   1.221
30152W        W 2467  38.480  44.453   1.901
30153W        W 2468  25.576   8.901   1.798
30154W        W 2469  17.329  28.501   2.877
30155W        W 2470  32.133  14.727   0.246
30156W        W 2471  32.028  21.724   2.905
30157W        W 2472  12.645  25.619  14.403
30158W        W 2473   6.892   9.783   3.255
30159W        W 2474  22.190  35.619   4.473
30160W        W 2475  26.617   5.253   4.490
30161W        W 2476  32.028  21.957   4.755
30162W        W 2477   2.335  41.264   1.807
30163W        W 2478  30.185  15.171   1.725
30164W        W 2479   8.709  17.601   1.260
30165W        W 2480  11.413   7.393   4.172
30166W        W 2481   9.837  42.411   1.246
30167W        W 2482  19.753  21.814   4.238
30168W        W 2483   3.451   2.824  13.785
30169W        W 2484   6.603   0.416   1.003
30170W        W 2485  39.668  26.146  12.492
30171W        W 2486  10.256   3.764   0.572
30172W        W 2487   0.196  29.413   4.187
30173W        W 2488  37.917  34.888  13.852
30174W        W 2489   0.344  36.641   3.841
30175W        W 2490   2.744  22.374   3.955
30176W        W 2491   1.079  42.803  14.096
30177W        W 2492  37.262  37.920   1.377
30178W        W 2493  39.884  10.301  11.613
30179W        W 2494  28.355  21.525   3.665
30180W        W 2495  40.718  18.203  13.252
30181W        W 2496  14.543  32.990  13.365
30182W        W 2497  18.982  20.392   1.843
30183W        W 2498  14.356  12.232   4.103
30184W        W 2499  18.278  41.918  14.805
30185W        W 2500   7.286  18.189   3.629
30186W        W 2501  33.629  18.980  13.620
30187W        W 2502  41.419  28.914  13.529
30188W        W 2503  43.414  13.107  10.761
30189W        W 2504   9.225  15.269  10.622
30190W        W 2505  44.952   6.736   4.166
30191W        W 2506  16.968   9.670   4.191
30192W        W 2507   1.351  38.350   3.685
30193W        W 2508  41.462  40.144  13.531
30194W        W 2509  10.629  15.203   1.999
30195W        W 2510  33.878  31.975  10.454
30196W        W 2511  22.913  29.978   0.543
30197W        W 2512  42.908  38.633   4.111
30198W        W 2513  44.029  37.799  11.049
30199W        W 2514   7.812  27.895   4.526
30200W        W 2515   7.682  37.848   4.639
30201W        W 2516  13.115   5.133   3.735
30202W        W 2517  16.625  32.706   3.346
30203W        W 2518  39.474  38.473  12.447
30204W        W 2519  27.382   3.373   5.096
30205W        W 2520  19.911  32.938   2.638
30206W        W 2521  15.847  40.987  12.069
30207W        W 2522  23.580  36.879  13.859
30208W        W 2523  30.485  31.959  14.331
30209W        W 2524  20.272   0.108   4.430
30210W        W 2525  38.048   6.092  12.381
30211W        W 2526  25.217  22.256   4.379
30212W        W 2527  15.618  21.279   3.338
30213W        W 2528   6.672  15.272   0.431
30214W        W 2529   4.484  22.392   1.375
30215W        W 2530  11.858  19.264   2.837
30216W        W 2531  31.041  22.536  11.379
30217W        W 2532  36.114  37.261   1.829
30218W        W 2533   2.514  35.599   2.826
30219W        W 2534  38.858  21.255  10.693
30220W        W 2535   8.479  13.247   4.720
30221W        W 2536  36.036  13.270   1.212
30222W        W 2537   8.756  10.794   4.410
30223W        W 2538   9.617  32.011  12.988
30224W        W 2539  22.212  38.023  13.949
30225W        W 2540  31.129  42.031  12.802
30226W        W 2541  21.752  21.002   0.963
30227W        W 2542  13.232  29.373  12.607
30228W        W 2543   2.269   6.403   1.737
30229W        W 2544  14.524   4.666  11.154
30230W        W 2545  40.778   2.408  12.066
30231W        W 2546  16.400  25.753  11.186
30232W        W 2547  18.260  13.282   1.183
30233W        W 2548   4.644  13.754   3.723
30234W        W 2549   2.876   5.165  12.868
30235W        W 2550  11.382  18.679   4.563
30236W        W 2551  31.372  31.045  10.662
30237W        W 2552   5.307  36.368   4.367
30238W        W 2553  43.886  43.588   0.433
30239W        W 2554  36.566  37.092  11.172
30240W        W 2555  26.271  13.265   0.302
30241W        W 2556  20.782  35.910  12.079
30242W        W 2557   6.931   4.703   2.719
30243W        W 2558  39.521   9.731   0.244
30244W        W 2559   0.503  44.798   1.056
30245W        W 2560  40.012  33.996  13.119
30246W        W 2561  36.400  16.458  11.004
30247W        W 2562   3.809  27.403   1.720
30248W        W 2563  11.443  17.907   1.398
30249W        W 2564   4.096  37.777  13.601
30250W        W 2565   4.155  37.109  13.805
30251W        W 2566  32.057  20.237   2.762
30252W        W 2567   9.305  44.430   2.590
30253W        W 2568   2.365  31.887  14.056
30254W        W 2569   6.545   7.734   2.641
30255W        W 2570  18.446  19.225   3.547
30256W        W 2571  30.617  18.158  14.831
30257W        W 2572   7.217  27.146   1.414
30258W        W 2573  31.951  37.788   2.789
30259W        W 2574  11.798  16.074   2.450
30260W        W 2575   1.000  20.692  12.046
30261W        W 2576  24.680  27.363  11.904
30262W        W 2577   2.830  34.378   1.835
30263W        W 2578  38.784  35.836   1.239
30264W        W 2579   9.722  16.212   3.385
30265W        W 2580   1.575  43.374   3.889
30266W        W 2581  39.588   1.811   0.897
30267W        W 2582  15.231   9.611   2.264
30268W        W 2583  31.278   4.808  10.658
30269W        W 2584  34.001  13.699   0.544
30270W        W 2585  32.395   4.292   0.235
30271W        W 2586  44.001   7.180  13.492
30272W        W 2587  12.597  34.702   0.811
30273W        W 2588  34.298  21.772  11.931
30274W        W 2589   5.733   3.883   4.716
30275W        W 2590  14.654  11.720   1.015
30276W        W 2591  21.463  37.727   4.112
30277W        W 2592  27.255  42.074  10.773
30278W        W 2593  22.695  34.252   3.408
30279W        W 2594   6.876  24.830   3.640
30280W        W 2595   0.380  41.839  12.892
30281W        W 2596  41.787  34.854   4.656
30282W        W 2597  20.561  29.184  13.776
30283W        W 2598  13.165  17.547  12.879
30284W        W 2599  33.833  14.348   1.882
30285W        W 2600  38.129   0.749  11.702
30286W        W 2601  24.158   9.131  14.893
30287W        W 2602  30.288  25.206  14.838
30288W        W 2603   4.201  33.693  12.792
30289W        W 2604  27.704  10.487  12.148
30290W        W 2605  34.472  21.914  11.004
30291W        W 2606   0.843  24.889   3.763
30292W        W 2607  28.731  11.852  10.697
30293W        W 2608   7.807  35.115   4.578
30294W        W 2609   6.934  24.608   2.714
30295W        W 2610  20.026   0.722   3.163
30296W        W 2611  24.427  30.434   1.006
30297W        W 2612  23.457   9.823  13.127
30298W        W 2613  28.500   6.829   9.953
30299W        W 2614   0.712  26.543   0.832
30300W        W 2615  24.645  34.612   1.236
30301W        W 2616  31.453  31.223   4.335
30302W        W 2617  31.594  42.067  12.983
30303W        W 2618   0.764  32.868  11.857
30304W        W 2619  28.020   7.604  10.499
30305W        W 2620   4.743  30.271  13.387
30306W        W 2621   7.221  16.037  10.510
30307W        W 2622  29.665  35.922  14.515
30308W        W 2623  24.136   7.725   2.972
30309W        W 2624  22.648  35.855   0.694
30310W        W 2625  20.046  16.645  10.669
30311W        W 2626  40.756  24.178   1.796
30312W        W 2627  21.457  28.827  10.717
30313W        W 2628   5.309   9.940  12.387
30314W        W 2629   6.673  25.534  12.168
30315W        W 2630   3.325   3.703   0.557
30316W        W 2631   2.608  23.666   4.170
30317W        W 2632   2.528  14.664   1.753
30318W        W 2633  24.882  40.884  10.861
30319W        W 2634   9.320  15.607  11.004
30320W        W 2635  39.665   6.140   2.672
30321W        W 2636  18.312   3.768   4.795
30322W        W 2637   5.619   9.620  14.837
30323W        W 2638   6.317  42.607  12.123
30324W        W 2639  11.311   8.223   4.671
30325W        W 2640   2.864   4.668  13.050
30326W        W 2641  42.909  14.873  12.446
30327W        W 2642   6.290   1.704   1.861
30328W        W 2643  22.879   1.157   0.375
30329W        W 2644  26.038   6.557   3.302
30330W        W 2645   8.691  17.183   4.227
30331W        W 2646  29.721   7.189  11.565
30332W        W 2647  37.828  15.219  11.713
30333W        W 2648  17.139  38.894   0.897
30334W        W 2649  11.230  27.744  12.740
30335W        W 2650  22.990   2.726  11.178
30336W        W 2651   2.943  27.145  11.487
30337W        W 2652  18.992   9.410   3.414
30338W        W 2653   8.300   9.879  14.913
30339W        W 2654  12.894   7.665  12.112
30340W        W 2655  23.784   3.527   1.253
30341W        W 2656   2.236  13.999   2.692
30342W        W 2657  35.973  43.738   4.576
30343W        W 2658   6.519   4.781   4.461
30344W        W 2659  15.775  10.589  10.643
30345W        W 2660  41.660   6.150  14.509
30346W        W 2661  19.866  11.091   4.661
30347W        W 2662  44.343  44.511   0.840
30348W        W 2663   1.325  38.406   4.653
30349W        W 2664   5.751  32.558   2.296
30350W        W 2665  44.353  22.040  14.439
30351W        W 2666  32.363  24.686   4.059
30352W        W 2667  38.731  14.133  11.120
30353W        W 2668  23.133  39.377  13.984
30354W        W 2669  40.588  24.972   1.204
30355W        W 2670  35.481  43.906   4.658
30356W        W 2671  13.248  22.033   0.469
30357W        W 2672  29.710   1.468  11.692
30358W        W 2673  25.167  18.757  12.497
30359W        W 2674  42.054  16.536  14.916
30360W        W 2675   0.369  40.232  14.937
30361W        W 2676  14.845  43.799   0.005
30362W        W 2677   5.813  26.861   2.767
30363W        W 2678  32.186  40.730   2.662
30364W        W 2679  26.973  36.053  11.564
30365W        W 2680  26.390  18.196   3.083
30366W        W 2681  17.852   5.183  13.257
30367W        W 2682  18.408  13.370   2.773
30368W        W 2683  32.156  32.921   3.642
30369W        W 2684   4.751  25.120  12.862
30370W        W 2685   3.047   7.825   0.778
30371W        W 2686  26.562  41.515   4.723
30372W        W 2687  38.242  27.636  14.796
30373W        W 2688  22.649  40.268   4.336
30374W        W 2689   1.664  22.772   4.697
30375W        W 2690   5.163  34.411   3.210
30376W        W 2691   8.609   9.308  11.297
30377W        W 2692   7.671  11.827   1.403
30378W        W 2693   9.692  16.109   1.441
30379W        W 2694   4.207  21.883  13.431
30380W        W 2695  39.564  38.355  11.087
30381W        W 2696  28.174  16.157  11.930
30382W        W 2697  33.077   6.941  13.608
30383W        W 2698  31.133  33.017   4.576
30384W        W 2699  23.954  28.465   0.125
30385W        W 2700   4.258  13.950   0.474
30386W        W 2701  18.835  23.112   3.584
30387W        W 2702  22.574  41.683   3.249
30388W        W 2703   2.179  27.656  11.541
30389W        W 2704  28.646  44.493   3.855
30390W        W 2705   7.404  15.630  10.751
30391W        W 2706  26.661   8.643  12.532
30392W        W 2707  28.546  20.763   1.047
30393W        W 2708  12.676  39.397  14.438
30394W        W 2709  27.723   9.711   3.611
30395W        W 2710  44.148  25.144   1.780
30396W        W 2711   1.808  31.430  14.561
30397W        W 2712  34.557  34.995   4.588
30398W        W 2713  43.037  11.346   3.282
30399W        W 2714   9.678   2.469  11.850
30400W        W 2715  38.304  11.284   1.219
30401W        W 2716  39.997  42.457  13.945
30402W        W 2717  33.067  11.413  10.404
30403W        W 2718  25.222  33.348   3.100
30404W        W 2719  28.652   5.892   3.098
30405W        W 2720  27.542  12.752  11.669
30406W        W 2721   6.307  20.236   2.688
30407W        W 2722   9.603  29.655   1.260
30408W        W 2723   6.326  42.822  11.207
30409W        W 2724   5.385  31.750  11.559
30410W        W 2725  22.708  35.897   1.807
30411W        W 2726  40.358  26.493   1.599
30412W        W 2727  29.579  43.922  13.549
30413W        W 2728  12.218   7.349   4.611
30414W        W 2729  37.806  11.920  14.825
30415W        W 2730  13.200  32.071  10.424
30416W        W 2731  36.767  36.915   3.817
30417W        W 2732   3.227  19.574   2.390
30418W        W 2733  39.714   8.188   0.910
30419W        W 2734  16.662  31.440  14.326
30420W        W 2735  33.463   1.556   4.172
30421W        W 2736  31.101  34.965  10.684
30422W        W 2737  10.628   5.909  13.779
30423W        W 2738  18.553  20.143  13.138
30424W        W 2739  36.514  30.208   0.996
30425W        W 2740  38.469   3.474  11.967
30426W        W 2741   6.105  18.536  11.074
30427W        W 2742  19.510  10.665  11.255
30428W        W 2743  11.870  24.715   2.376
30429W        W 2744  10.273   9.909   1.944
30430W        W 2745  28.143  31.454   3.658
30431W        W 2746   9.244  33.954   1.194
30432W        W 2747   0.454  13.139  12.769
30433W        W 2748   6.511  20.253   4.434
30434W        W 2749  29.989  23.488   1.279
30435W        W 2750  42.809  21.105  12.655
30436W        W 2751  29.757  26.418  13.965
30437W        W 2752   2.024  15.534   5.371
30438W        W 2753   0.268  33.604   5.287
30439W        W 2754  34.056  16.648  10.542
30440W        W 2755  36.536   1.497  14.821
30441W        W 2756  34.593  42.108   0.927
30442W        W 2757   2.791   4.842  14.943
30443W        W 2758  26.987  39.500  12.086
30444W        W 2759  31.192  32.867  13.952
30445W        W 2760  34.560  35.141  13.035
30446W        W 2761  29.173  16.700   4.494
30447W        W 2762  23.196  10.518  14.008
30448W        W 2763  38.072   7.810  14.738
30449W        W 2764  32.808  27.222   3.668
30450W        W 2765   8.385  32.414   4.472
30451W        W 2766  11.403  12.818   2.636
30452W        W 2767  30.855   8.295   1.291
30453W        W 2768  10.902  26.463   2.116
30454W        W 2769  41.247  17.032  13.845
30455W        W 2770  43.901  38.515  12.931
30456W        W 2771  42.366   4.933  14.254
30457W        W 2772  23.933  15.159   3.745
30458W        W 2773  26.348  34.018  10.288
30459W        W 2774  32.928  25.415  11.002
30460W        W 2775  24.610  21.598   0.945
30461W        W 2776  31.192  15.744   4.626
30462W        W 2777   4.345  36.117   2.606
30463W        W 2778  20.215  20.791   3.741
30464W        W 2779  12.229  10.683   1.326
30465W        W 2780  30.135  28.395  12.946
30466W        W 2781  18.560  28.905   2.333
30467W        W 2782  27.184  11.258   1.035
30468W        W 2783  17.674  43.250   4.292
30469W        W 2784  43.772  32.531   3.199
30470W        W 2785  11.553  14.431  14.398
30471W        W 2786  17.204  38.779  10.615
30472W        W 2787  22.503  43.375   3.004
30473W        W 2788   7.686  17.047  11.190
30474W        W 2789  11.152   3.382  10.753
30475W        W 2790  36.946  29.465   1.234
30476W        W 2791  40.999   3.946  13.337
30477W        W 2792  27.000   6.509  12.867
30478W        W 2793  24.289   9.635  14.844
30479W        W 2794  20.554   5.051  14.442
30480W        W 2795  35.065  26.992  12.860
30481W        W 2796  14.324  42.347  12.599
30482W        W 2797  31.637  14.265  12.399
30483W        W 2798  16.580  12.655   1.614
30484W        W 2799  11.222  31.904   3.709
30485W        W 2800  23.709   2.676   2.397
30486W        W 2801  33.432  37.605   1.872
30487W        W 2802  43.461  30.687  10.869
30488W        W 2803  23.983  34.482   0.008
30489W        W 2804  16.229  25.163   5.059
30490W        W 2805   7.563  41.364  12.106
30491W        W 2806  38.506  13.069  11.196
30492W        W 2807  31.349  28.260  12.169
30493W        W 2808  10.814  10.227  13.048
30494W        W 2809   3.910  12.722  12.837
30495W        W 2810   1.014   3.430   2.500
30496W        W 2811  11.851  23.197  11.235
30497W        W 2812   6.645  16.612   0.841
30498W        W 2813  33.027   9.443   0.831
30499W        W 2814   5.143  19.834  14.564
30500W        W 2815   0.312   0.831   4.570
30501W        W 2816  19.709  25.299  14.386
30502W        W 2817  11.847  30.508  13.275
30503W        W 2818  25.218  13.305   2.600
30504W        W 2819  44.965  12.787   0.364
30505W        W 2820  16.332  36.347   2.380
30506W        W 2821  38.755  24.583   1.340
30507W        W 2822  44.208  42.500  12.566
30508W        W 2823  23.789   9.742  14.055
30509W        W 2824   4.711  22.566   0.859
30510W        W 2825  10.363  43.184  12.415
30511W        W 2826  15.683  35.497   2.597
30512W        W 2827  19.692  12.272   2.769
30513W        W 2828   4.885  37.941  14.081
30514W        W 2829  31.127  29.227  14.564
30515W        W 2830  19.461  17.609   2.940
30516W        W 2831  43.419   9.637  11.956
30517W        W 2832  32.048   4.575   3.753
30518W        W 2833  15.184  28.209   2.179
30519W        W 2834  14.247  31.616  13.860
30520W        W 2835  41.726  28.478   1.240
30521W        W 2836  40.558  37.094  12.125
30522W        W 2837   6.352  35.644   0.298
30523W        W 2838   1.768   8.502  10.937
30524W        W 2839  12.582  27.540   1.804
30525W        W 2840  16.013  42.844  14.767
30526W        W 2841   8.783  31.522  12.962
30527W        W 2842   2.750  31.674  14.333
30528W        W 2843   2.282  24.023   3.231
30529W        W 2844   1.369   1.952  14.970
30530W        W 2845  36.505  32.145   1.737
30531W        W 2846  28.881   4.656   5.040
30532W        W 2847  15.644  25.742   1.919
30533W        W 2848  18.421  19.215   4.906
30534W        W 2849  24.672  39.818   1.885
30535W        W 2850  15.858  15.394   9.869
30536W        W 2851  18.788   8.806  14.754
30537W        W 2852  10.882  17.767  12.433
30538W        W 2853  37.103  23.241   1.463
30539W        W 2854   8.496  30.104  14.007
30540W        W 2855  21.716  42.468  13.287
30541W        W 2856  29.625  25.091   4.184
30542W        W 2857  20.885  22.964   2.736
30543W        W 2858  38.703  22.997  11.970
30544W        W 2859   7.481  31.490  14.741
30545W        W 2860   9.292  28.543  12.981
30546W        W 2861   0.844  16.551  11.957
30547W        W 2862  21.339  32.938  14.208
30548W        W 2863  40.747  26.040   1.884
30549W        W 2864   3.938  41.780   2.643
30550W        W 2865  44.928  13.537   0.954
30551W        W 2866  27.023  28.871   3.788
30552W        W 2867  25.591  19.269   5.102
30553W        W 2868  31.883   5.175  14.769
30554W        W 2869  16.105  37.791   3.315
30555W        W 2870  20.710  19.952  13.718
30556W        W 2871   0.574  25.516   4.917
30557W        W 2872   5.927  23.704   9.994
30558W        W 2873  38.157  14.077  11.024
30559W        W 2874  22.704   5.993   0.925
30560W        W 2875  26.454  42.670  11.380
30561W        W 2876  31.972  20.966  11.291
30562W        W 2877  24.649  20.803  10.384
30563W        W 2878  18.756  22.620   3.761
30564W        W 2879  11.210   7.686  10.972
30565W        W 2880  24.344  18.139   2.760
30566W        W 2881  35.550  19.855   4.294
30567W        W 2882  30.115  38.296  11.128
30568W        W 2883  22.198  23.664  11.239
30569W        W 2884  26.574  32.644  12.123
30570W        W 2885   6.876  36.742  12.148
30571W        W 2886  19.805   0.437  10.305
30572W        W 2887  23.770  21.335   0.227
30573W        W 2888  24.461  26.998   2.123
30574W        W 2889   4.993   1.935   1.234
30575W        W 2890  34.819  23.506   0.339
30576W        W 2891  43.549   3.212   1.198
30577W        W 2892  14.317  33.958   2.724
30578W        W 2893  42.455   1.559  13.545
30579W        W 2894  13.864  34.090   4.137
30580W        W 2895  28.693   5.597   4.042
30581W        W 2896  40.294  33.997   1.442
30582W        W 2897   9.376   6.834  14.495
30583W        W 2898  30.998   3.416   4.681
30584W        W 2899  41.349  41.386   0.980
30585W        W 2900  13.494  25.801  11.962
30586W        W 2901  37.350  27.223  14.585
30587W        W 2902  43.672   1.228   2.922
30588W        W 2903  15.635   5.816  13.030
30589W        W 2904  11.101  12.160   0.480
30590W        W 2905  26.179   3.537  12.689
30591W        W 2906  26.036  11.815   4.059
30592W        W 2907  40.090  24.651   2.461
30593W        W 2908  33.466  22.383   4.158
30594W        W 2909   8.822   2.202  11.156
30595W        W 2910   6.477  24.105   2.291
30596W        W 2911  13.189  10.737  12.043
30597W        W 2912  38.515  27.753   3.888
30598W        W 2913  44.769   8.376  13.583
30599W        W 2914   8.920  36.894   2.046
30600W        W 2915  43.344  40.434  12.061
30601W        W 2916  41.958   0.559   0.156
30602W        W 2917  40.109  36.026  11.146
30603W        W 2918   8.262  16.482   0.132
30604W        W 2919  20.997  34.205  14.510
30605W        W 2920  15.233   7.527   2.241
30606W        W 2921  10.211  29.952  12.434
30607W        W 2922  10.856  35.974   4.909
30608W        W 2923  29.462  22.498  11.111
30609W        W 2924  20.203  19.061   0.386
30610W        W 2925  37.247  43.249   1.317
30611W        W 2926  27.006   1.593   0.221
30612W        W 2927  15.244  29.697   5.450
30613W        W 2928  37.806  17.747   2.901
30614W        W 2929   7.825  20.507   3.294
30615W        W 2930  37.684   1.406   0.574
30616W        W 2931  31.501  44.364  14.570
30617W        W 2932  34.721  26.263  14.092
30618W        W 2933  35.360  15.740  13.899
30619W        W 2934  35.854  21.247  11.560
30620W        W 2935  24.663  11.201   0.861
30621W        W 2936  22.079  13.050  11.486
30622W        W 2937  35.920   7.992   2.814
30623W        W 2938   6.773   1.565   1.966
30624W        W 2939  36.264  22.894   4.796
30625W        W 2940   7.446  42.665   2.088
30626W        W 2941   3.924   5.699  14.948
30627W        W 2942   2.562  11.274  11.150
30628W        W 2943   4.152  35.466  11.477
30629W        W 2944  26.151  12.252   1.683
30630W        W 2945   7.710   6.866   3.308
30631W        W 2946  11.349   6.782   1.784
30632W        W 2947   6.659  25.987  13.731
30633W        W 2948  18.380   8.422   1.335
30634W        W 2949  12.896  32.459  10.944
30635W        W 2950  36.610  39.127  11.309
30636W        W 2951  17.971   0.620  14.921
30637W        W 2952   1.208  23.578  12.068
30638W        W 2953   2.370  24.138  10.736
30639W        W 2954  19.093   2.457   1.851
30640W        W 2955  32.956  27.971   1.418
30641W        W 2956  12.010  27.609  14.951
30642W        W 2957  12.824   5.160   4.174
30643W        W 2958   9.817   2.836   3.518
30644W        W 2959  20.063  39.129  10.680
30645W        W 2960  13.531  29.458   1.978
30646W        W 2961  41.573  15.726   2.327
30647W        W 2962  11.256   3.762   4.069
30648W        W 2963   3.823  13.813  13.386
30649W        W 2964  31.543  37.635  13.957
30650W        W 2965  30.110  41.887  12.409
30651W        W 2966  43.104  38.841   1.006
30652W        W 2967   1.977   9.207  12.951
30653W        W 2968  18.307  10.826   1.783
30654W        W 2969  36.338  38.840   4.178
30655W        W 2970  37.418  44.375  13.435
30656W        W 2971  23.243  34.981  11.723
30657W        W 2972  24.909  33.322   0.414
30658W        W 2973  19.097  36.880  14.041
30659W        W 2974  18.660  24.412  14.899
30660W        W 2975  21.292  17.230   4.410
30661W        W 2976   6.198   8.848   4.666
30662W        W 2977  22.217  14.810   1.464
30663W        W 2978   7.120  13.284  13.465
30664W        W 2979   0.520   8.372  12.483
30665W        W 2980   3.396  29.443   2.726
30666W        W 2981  19.795  24.170  12.594
30667W        W 2982  27.523  17.604   1.769
30668W        W 2983  33.290  16.664   0.899
30669W        W 2984   3.474  32.872  14.377
30670W        W 2985  22.785   6.078  11.659
30671W        W 2986   6.739  28.145   1.849
30672W        W 2987  13.693  22.312   0.148
30673W        W 2988   9.230  18.277  12.038
30674W        W 2989  21.773  37.509   1.875
30675W        W 2990  11.176  34.968  11.228
30676W        W 2991  35.483  40.087  14.773
30677W        W 2992  26.743   3.277  12.067
30678W        W 2993   5.236  28.570   1.190
30679W        W 2994   8.337  27.903  11.181
30680W        W 2995  18.665  30.204  13.883
30681W        W 2996   6.391  34.398  12.880
30682W        W 2997  24.714  12.640   4.039
30683W        W 2998  11.298  43.750  12.527
30684W        W 2999  15.801  13.874  11.116
30685W        W 3000  34.963   9.871  11.121
30686W        W 3001  12.259  38.889   2.137
30687W        W 3002  38.427  19.159  12.907
30688W        W 3003  10.739  25.964  12.505
30689W        W 3004  31.004   3.718   4.029
30690W        W 3005   4.383  14.046   4.563
30691W        W 3006  35.601  23.969   3.292
30692W        W 3007  26.144  33.422  10.307
30693W        W 3008   8.844  34.887   3.755
30694W        W 3009  23.183  41.812  14.256
30695W        W 3010  41.586  42.858   3.203
30696W        W 3011  33.848  41.771  13.873
30697W        W 3012   3.788  24.798  12.736
30698W        W 3013  33.062  35.851   3.026
30699W        W 3014  32.892  27.961  13.300
30700W        W 3015  35.030  35.903   0.993
30701W        W 3016  13.472  31.879  14.547
30702W        W 3017  38.297  12.998  13.039
30703W        W 3018  25.937  27.565   2.870
30704W        W 3019  15.261   2.348   3.443
30705W        W 3020  39.075  24.090   1.297
30706W        W 3021  34.781   5.216  12.838
30707W        W 3022  35.660  40.734  11.987
30708W        W 3023  22.285   2.732   4.741
30709W        W 3024   2.333  34.566   3.540
30710W        W 3025  40.845  28.511  14.438
30711W        W 3026  42.322   5.909   4.191
30712W        W 3027  23.271   5.282  14.322
30713W        W 3028  43.645  39.220  13.392
30714W        W 3029  12.286  33.604   0.519
30715W        W 3030   1.738   6.469   0.372
30716W        W 3031  32.956   2.522  10.906
30717W        W 3032  34.289  35.352   2.801
30718W        W 3033  38.514  39.143   3.162
30719W        W 3034   3.817  40.660  11.126
30720W        W 3035   5.361  36.966  12.076
30721W        W 3036  36.116   1.257  14.991
30722W        W 3037   8.083  28.097  13.157
30723W        W 3038   3.706  31.035  11.562
30724W        W 3039  25.609   2.079  14.297
30725W        W 3040  19.705   2.663  13.828
30726W        W 3041  39.785   7.672  13.321
30727W        W 3042  18.060   9.927   0.864
30728W        W 3043  43.312  25.915  12.882
30729W        W 3044   6.862  44.979  13.502
30730W        W 3045  30.877  44.484  14.813
30731W        W 3046  35.507  30.125   1.243
30732W        W 3047  16.565  13.923   1.844
30733W        W 3048  17.563  29.104  14.356
30734W        W 3049  35.086  42.750   0.822
30735W        W 3050  11.279   2.864  10.706
30736W        W 3051  12.812   9.976  10.191
30737W        W 3052  24.686   9.620   4.012
30738W        W 3053  25.697   7.651   4.353
30739W        W 3054  24.456  35.440  12.960
30740W        W 3055  33.674   7.989   4.220
30741W        W 3056  44.965  29.119   3.560
30742W        W 3057  33.039   7.142  13.109
30743W        W 3058  15.080  35.567   0.773
30744W        W 3059   6.014  25.640   1.278
30745W        W 3060  10.354  31.806   4.519
30746W        W 3061  28.200  10.789  14.738
30747W        W 3062  27.796  33.985   2.805
30748W        W 3063  43.058  24.107  14.764
30749W        W 3064  15.839  40.863   4.612
30750W        W 3065   3.404  40.033  13.920
30751W        W 3066  40.911   0.785   4.081
30752W        W 3067  11.564  40.441   5.015
30753W        W 3068  10.349  23.177   3.167
30754W        W 3069  18.813  35.419   2.800
30755W        W 3070  29.360   1.530   1.932
30756W        W 3071  24.735  14.282   4.651
30757W        W 3072  39.622  20.997  14.551
30758W        W 3073  10.453   3.961   2.469
30759W        W 3074  12.317   7.162   1.360
30760W        W 3075  34.136  13.046   1.797
30761W        W 3076  42.313  33.484  13.869
30762W        W 3077   2.487  37.001  14.545
30763W        W 3078  28.810  37.318  11.998
30764W        W 3079  23.087  23.053   4.705
30765W        W 3080  21.539  11.374   3.551
30766W        W 3081  23.600  37.535  11.652
30767W        W 3082  11.813  36.384   2.424
30768W        W 3083  33.016   9.818   1.799
30769W        W 3084  10.748  19.842  11.031
30770W        W 3085  12.982   1.920   0.425
30771W        W 3086  21.057   4.902   3.875
30772W        W 3087  33.463   8.644  13.956
30773W        W 3088  14.074  21.171  13.098
30774W        W 3089  35.052  14.245   3.510
30775W        W 3090  24.668   4.894   0.280
30776W        W 3091  25.435  29.455   2.223
30777W        W 3092  43.883   5.751  14.815
30778W        W 3093  40.573  23.720   0.558
30779W        W 3094  41.243   0.423   1.386
30780W        W 3095  16.369  22.308   4.285
30781W        W 3096  39.332  17.418  10.371
30782W        W 3097  35.372  38.326   2.879
30783W        W 3098  20.249  26.782  13.996
30784W        W 3099  32.422   4.437  14.710
30785W        W 3100  21.325  35.877  12.103
30786W        W 3101   4.711  16.151  12.821
30787W        W 3102  11.766   6.210  14.568
30788W        W 3103  23.635  16.476  10.392
30789W        W 3104  33.516  43.487  13.709
30790W        W 3105  36.910  30.634  11.103
30791W        W 3106  43.387  16.231   2.743
30792W        W 3107   1.983  24.167   1.729
30793W        W 3108  15.757   3.475  10.752
30794W        W 3109   0.382   7.332  13.350
30795W        W 3110  11.160  28.639   3.332
30796W        W 3111  15.703  11.549   3.682
30797W        W 3112  24.509  14.718   4.367
30798W        W 3113  19.278  31.558  11.457
30799W        W 3114  35.872  26.087   3.675
30800W        W 3115  11.868   6.391   0.479
30801W        W 3116  19.040  33.399  13.848
30802W        W 3117  37.162   4.833  13.624
30803W        W 3118  33.208  41.426  10.779
30804W        W 3119   4.901  10.437  11.605
30805W        W 3120  27.474  11.530  13.369
30806W        W 3121  44.406  21.525   0.244
30807W        W 3122  35.789   5.373  12.869
30808W        W 3123  29.564   1.712  13.911
30809W        W 3124  36.081  30.820   2.266
30810W        W 3125  38.016  11.538   2.765
30811W        W 3126  38.918  31.265   2.349
30812W        W 3127  37.340  37.145  14.321
30813W        W 3128   8.044  33.662   4.326
30814W        W 3129  39.970  28.111  13.411
30815W        W 3130   9.884  41.986   1.954
30816W        W 3131   7.122  12.518  11.097
30817W        W 3132  11.677  18.161   0.773
30818W        W 3133  21.661  25.971   0.780
30819W        W 3134   1.525   3.791  12.808
30820W        W 3135  20.515  31.328   2.375
30821W        W 3136   1.459  20.393   3.787
30822W        W 3137  43.324   4.060   2.398
30823W        W 3138  14.267  28.469   1.859
30824W        W 3139  20.800  11.078   1.336
30825W        W 3140   2.587   4.574  11.115
30826W        W 3141   7.397  23.676  11.210
30827W        W 3142  16.501  11.649   4.292
30828W        W 3143  13.299  21.649  12.628
30829W        W 3144  11.737  10.374   1.414
30830W        W 3145  43.916  15.128  11.980
30831W        W 3146  22.737  34.665   4.224
30832W        W 3147  17.055   0.738  13.867
30833W        W 3148  32.045  22.762  14.317
30834W        W 3149  12.156  17.129   1.858
30835W        W 3150   1.972   9.973  10.955
30836W        W 3151  32.971  22.702  14.370
30837W        W 3152  37.329  24.215   0.603
30838W        W 3153  26.593  43.454  13.131
30839W        W 3154  30.391  33.379   1.421
30840W        W 3155  21.820  10.874   2.287
30841W        W 3156  32.265  22.720   0.562
30842W        W 3157  39.981  36.972   4.193
30843W        W 3158  30.158  25.082   2.874
30844W        W 3159  42.447   9.273   3.252
30845W        W 3160  30.834  31.103   2.931
30846W        W 3161  15.836  39.825  12.039
30847W        W 3162  26.943   6.830  10.080
30848W        W 3163  34.413  31.845  12.463
30849W        W 3164   7.947   6.798   4.728
30850W        W 3165  24.374  23.080   4.059
30851W        W 3166  28.731   1.115   2.684
30852W        W 3167  15.782  30.933  13.962
30853W        W 3168  43.620   2.377  13.474
30854W        W 3169  43.949  20.491   0.862
30855W        W 3170  26.097  26.116  12.667
30856W        W 3171  28.003   6.774  10.054
30857W        W 3172  24.254   4.847   4.193
30858W        W 3173  23.802  15.581  14.807
30859W        W 3174  44.773  30.230  11.726
30860W        W 3175  22.236  39.489   2.947
30861W        W 3176  44.281  25.745  12.923
30862W        W 3177  28.281  24.034  14.298
30863W        W 3178  33.411  13.274  12.491
30864W        W 3179   6.679  43.798   0.610
30865W        W 3180  24.750  14.700  14.449
30866W        W 3181  22.703  31.798  13.830
30867W        W 3182  13.778  36.987   0.768
30868W        W 3183   7.867  14.723   2.849
30869W        W 3184   7.387  41.790  10.763
30870W        W 3185  33.929  36.813   1.863
30871W        W 3186  26.597  41.066  13.001
30872W        W 3187  16.743  44.164   4.671
30873W        W 3188  11.719  43.108   4.066
30874W        W 3189  29.421  30.612   3.326
30875W        W 3190   2.977  13.827  10.788
30876W        W 3191   2.769   0.255   2.285
30877W        W 3192  19.576  41.436   2.682
30878W        W 3193   0.087  29.747   1.195
30879W        W 3194   8.417  44.466   1.398
30880W        W 3195  11.822   3.943   0.708
30881W        W 3196   2.372  31.517   0.862
30882W        W 3197  37.885  30.104  14.429
30883W        W 3198  24.131  35.595   3.533
30884W        W 3199  29.252  35.302   4.119
30885W        W 3200   9.609  14.714  13.007
30886W        W 3201  29.460   6.105   4.150
30887W        W 3202  16.307  16.874  14.007
30888W        W 3203   9.301  29.077  12.951
30889W        W 3204   3.192  25.670  11.489
30890W        W 3205  13.540  21.731   4.302
30891W        W 3206   8.870  39.776  12.208
30892W        W 3207  23.935  23.328  14.860
30893W        W 3208  35.967   7.362   4.026
30894W        W 3209  20.191  15.741  13.987
30895W        W 3210  21.012   9.928   4.201
30896W        W 3211  31.370  29.542   0.026
30897W        W 3212  41.777  26.063  11.977
30898W        W 3213  26.549  37.247   3.850
30899W        W 3214   3.031   5.884  10.779
30900W        W 3215  13.322  30.226   4.146
30901W        W 3216  42.209  10.826   2.545
30902W        W 3217   6.257   9.596  13.461
30903W        W 3218  35.266  20.978   0.831
30904W        W 3219  18.888   6.117   3.711
30905W        W 3220   7.931  43.872   0.906
30906W        W 3221  36.250  25.903  14.422
30907W        W 3222  32.940  19.708  14.585
30908W        W 3223  43.397  27.606   2.252
30909W        W 3224  10.409   8.306  14.852
30910W        W 3225   6.250  14.769   1.828
30911W        W 3226  40.508  37.046   2.861
30912W        W 3227  11.113   4.925   4.090
30913W        W 3228  35.948   9.757   2.236
30914W        W 3229   0.181  42.496   4.336
30915W        W 3230  38.901  25.878  10.183
30916W        W 3231  18.198  25.498  10.582
30917W        W 3232  15.185  27.549  13.306
30918W        W 3233  36.266  20.299   0.842
30919W        W 3234   1.998   3.730   2.784
30920W        W 3235  31.148   1.804  12.045
30921W        W 3236  26.771  39.310  14.291
30922W        W 3237  29.061  20.519   2.285
30923W        W 3238  23.162   3.944  14.099
30924W        W 3239  34.958  32.073  12.556
30925W        W 3240  25.403   5.836   0.292
30926W        W 3241  18.025  18.632  13.424
30927W        W 3242  43.044  28.413  11.112
30928W        W 3243  23.623  31.627   3.061
30929W        W 3244   8.070   5.243   0.265
30930W        W 3245  33.589  19.610   3.769
30931W        W 3246   0.885   4.303  13.587
30932W        W 3247  18.195  25.879  14.953
30933W        W 3248  33.111  19.786   3.836
30934W        W 3249  12.040  11.110   3.747
30935W        W 3250  12.718   2.157   1.688
30936W        W 3251  17.560  11.178   0.361
30937W        W 3252  22.045  10.812  12.032
30938W        W 3253  31.284  27.994  13.615
30939W        W 3254   2.759  17.197   2.724
30940W        W 3255   5.836  41.548   1.157
30941W        W 3256  13.265  15.775  12.018
30942W        W 3257  34.171   2.067   4.218
30943W        W 3258  43.777   5.694  11.863
30944W        W 3259  17.163  13.584   4.566
30945W        W 3260  36.373  20.492   1.820
30946W        W 3261  37.332   0.426   1.665
30947W        W 3262  22.061  41.903  13.850
30948W        W 3263   7.409   8.940  12.992
30949W        W 3264   7.888  27.432   3.726
30950W        W 3265  11.883   7.055   1.716
30951W        W 3266   7.605  12.970  13.165
30952W        W 3267  11.597  22.903   0.795
30953W        W 3268  23.581   8.911   4.962
30954W        W 3269  22.577  18.664  12.886
30955W        W 3270  12.154  25.619   1.212
30956W        W 3271  10.383  42.234  13.397
30957W        W 3272  30.703  27.546  11.063
30958W        W 3273   9.646  20.172  10.353
30959W        W 3274  28.113   4.767  13.911
30960W        W 3275  34.516  27.199  14.264
30961W        W 3276  15.672  28.005  12.856
30962W        W 3277  12.678  38.634  14.915
30963W        W 3278  38.070   7.353   2.616
30964W        W 3279  43.052   6.163  12.388
30965W        W 3280  18.746   0.417  12.393
30966W        W 3281  25.654  31.137  11.171
30967W        W 3282  35.574  25.847   0.293
30968W        W 3283  24.919   8.756   2.870
30969W        W 3284   6.855  22.101   2.226
30970W        W 3285  43.492  14.842  10.729
30971W        W 3286  14.835  42.225  13.261
30972W        W 3287  17.083  40.470  12.813
30973W        W 3288  12.589  15.040   1.539
30974W        W 3289  44.547  35.427  12.560
30975W        W 3290   0.358  19.096  13.362
30976W        W 3291  15.082  19.614  13.180
30977W        W 3292  32.478  22.090  10.914
30978W        W 3293  38.838  41.540   1.178
30979W        W 3294   3.745  10.184  14.420
30980W        W 3295  19.040   6.863  12.160
30981W        W 3296  25.533  43.113   5.017
30982W        W 3297   6.185  15.343   3.056
30983W        W 3298  28.573  25.378   4.157
30984W        W 3299  31.344  40.051  14.019
30985W        W 3300  12.408  21.565  13.585
30986W        W 3301  39.927  32.593   2.827
30987W        W 3302  44.586  13.705   2.260
30988W        W 3303  34.091  29.660  10.748
30989W        W 3304  30.330  24.350  13.104
30990W        W 3305  25.001  20.784  11.164
30991W        W 3306  15.152  13.282   0.537
30992W        W 3307   4.933  14.820  12.154
30993W        W 3308  29.165  39.013   3.620
30994W        W 3309  34.360  43.978   2.780
30995W        W 3310  24.741  14.658  11.483
30996W        W 3311  27.219   7.116   4.954
30997W        W 3312  40.750   8.099  13.931
30998W        W 3313  10.591  28.125  11.038
30999W        W 3314   9.249   4.252  14.061
31000W        W 3315   2.266  32.363  13.859
31001W        W 3316  28.016  25.774   4.657
31002W        W 3317  42.321  11.112  12.558
31003W        W 3318  10.363   0.275   0.956
31004W        W 3319  18.686  32.938   1.585
31005W        W 3320  27.114   4.157  10.507
31006W        W 3321  19.501   9.835   3.245
31007W        W 3322  30.438  41.382  11.927
31008W        W 3323   6.665  23.116   1.980
31009W        W 3324  35.664  16.862   1.271
31010W        W 3325  27.594   6.682  13.389
31011W        W 3326  35.636  24.610  11.436
31012W        W 3327  18.658  20.556   4.818
31013W        W 3328   3.674  23.264  11.179
31014W        W 3329   6.702  36.362  14.840
31015W        W 3330  17.441  18.772  14.419
31016W        W 3331  40.020   4.528  14.305
31017W        W 3332   8.747   3.192  14.928
31018W        W 3333  34.563  13.884  13.876
31019W        W 3334  44.038  41.477  12.536
31020W        W 3335   7.255  34.620  13.378
31021W        W 3336  19.619  26.084   3.803
31022W        W 3337   8.356  33.414   2.731
31023W        W 3338   8.550  26.358  11.154
31024W        W 3339  18.098  22.507  11.448
31025W        W 3340  16.038   3.956   4.035
31026W        W 3341  41.791  28.809  11.127
31027W        W 3342  31.394  38.800   4.129
31028W        W 3343   1.001  24.545  12.483
31029W        W 3344   8.737  26.736  14.972
31030W        W 3345  13.976   1.167  10.754
31031W        W 3346  24.473  39.161   3.731
31032W        W 3347  33.927  21.803  10.974
31033W        W 3348   9.383  28.464  13.820
31034W        W 3349  25.159  43.993  14.450
31035W        W 3350  40.589   1.034  11.095
31036W        W 3351  44.236  43.996  13.322
31037W        W 3352  20.361  39.922   4.171
31038W        W 3353   0.876   1.635   2.413
31039W        W 3354  18.989  37.935   0.424
31040W        W 3355  20.650  26.710   1.582
31041W        W 3356  27.618  12.741   1.805
31042W        W 3357  21.237  17.155   3.910
31043W        W 3358   5.938  17.602   4.209
31044W        W 3359  38.659  26.666   0.849
31045W        W 3360  13.955  21.802   3.951
31046W        W 3361  25.258   2.292   3.734
31047W        W 3362  42.606  40.280   2.232
31048W        W 3363   4.922   8.590   1.452
31049W        W 3364   0.792  20.594   4.341
31050W        W 3365  19.241  24.246  10.486
31051W        W 3366  23.576  21.511  11.643
31052W        W 3367  26.482  33.160   3.190
31053W        W 3368   6.140  40.938   0.928
31054W        W 3369  20.172  38.815   2.898
31055W        W 3370  26.135   3.374   3.592
31056W        W 3371  16.102  14.867  11.554
31057W        W 3372  40.487   5.842   2.733
31058W        W 3373   4.315  23.723   2.117
31059W        W 3374  33.566  29.406   3.640
31060W        W 3375  35.529  41.961   1.863
31061W        W 3376  33.308  25.059   0.210
31062W        W 3377  12.465   5.829  10.587
31063W        W 3378  17.777   9.446   2.740
31064W        W 3379   5.187  25.225   3.692
31065W        W 3380  38.032   3.235  14.383
31066W        W 3381   1.847   7.935  13.549
31067W        W 3382  11.781  34.889   2.192
31068W        W 3383  17.084  19.307  11.167
31069W        W 3384  44.324   5.976   0.861
31070W        W 3385  30.176   9.203   2.941
31071W        W 3386  30.874  19.160   4.584
31072W        W 3387   2.361  11.572  11.536
31073W        W 3388   0.655  30.532  12.547
31074W        W 3389  22.461  25.737  11.946
31075W        W 3390  29.484  27.841  12.495
31076W        W 3391  15.328  27.991   1.730
31077W        W 3392  30.509  33.444  14.621
31078W        W 3393   3.424  13.485   1.330
31079W        W 3394  38.037  36.588  14.920
31080W        W 3395   7.437  10.661  14.379
31081W        W 3396  20.960  15.692   0.225
31082W        W 3397   7.337   5.599   0.443
31083W        W 3398  12.320  42.185   0.668
31084W        W 3399  25.706  24.063  14.352
31085W        W 3400  20.565   3.263  12.912
31086W        W 3401  32.323  10.398   4.140
31087W        W 3402   6.219  27.222   3.894
31088W        W 3403  41.452  13.454   0.416
31089W        W 3404   3.353  17.185  12.363
31090W        W 3405  30.409  21.669  14.753
31091W        W 3406   0.021  15.834   5.122
31092W        W 3407  16.062  42.468   0.890
31093W        W 3408  40.860  28.199  14.880
31094W        W 3409  25.496  10.178   0.837
31095W        W 3410  31.062  33.862  12.295
31096W        W 3411  34.098   4.783  11.662
31097W        W 3412  38.065  20.712  12.427
31098W        W 3413  15.442  25.217  14.833
31099W        W 3414  31.956  19.587   1.699
31100W        W 3415   7.459  15.871  13.868
31101W        W 3416  41.208   3.417   0.267
31102W        W 3417  19.754  16.177  12.544
31103W        W 3418  28.199  16.714   4.194
31104W        W 3419  30.538  19.964  14.989
31105W        W 3420   2.561  13.954  11.935
31106W        W 3421  40.337  23.015   4.062
31107W        W 3422  43.216   8.810  11.579
31108W        W 3423  21.537  23.979  12.383
31109W        W 3424  24.816  40.302   2.171
31110W        W 3425  42.682   5.114   0.949
31111W        W 3426  34.659  33.808   1.677
31112W        W 3427  32.057  31.222   3.329
31113W        W 3428  32.387  44.323  12.315
31114W        W 3429  20.915   3.979   3.369
31115W        W 3430  36.316  34.097  12.775
31116W        W 3431   6.480  35.882  10.605
31117W        W 3432   9.807   9.635  11.986
31118W        W 3433   0.497  10.745  10.167
31119W        W 3434  22.080  36.773   4.466
31120W        W 3435  35.772  22.785   0.333
31121W        W 3436   1.847   7.114   3.150
31122W        W 3437  41.531  31.021   0.950
31123W        W 3438  29.763  26.642   4.779
31124W        W 3439  17.372  41.766   3.204
31125W        W 3440  18.705   4.103  14.258
31126W        W 3441  28.760  26.598   4.528
31127W        W 3442  30.812   7.391  10.207
31128W        W 3443  23.759  31.025   1.893
31129W        W 3444  22.475  37.817  11.617
31130W        W 3445  25.879  19.079   3.167
31131W        W 3446  23.970  31.730   4.626
31132W        W 3447  19.285  26.121   4.288
31133W        W 3448  23.568  13.095  13.986
31134W        W 3449  38.939  37.085  13.487
31135W        W 3450  29.200  26.804  12.483
31136W        W 3451  31.302  31.501   3.881
31137W        W 3452  41.320   8.918   2.797
31138W        W 3453  35.582  15.881   3.576
31139W        W 3454  28.265  11.381  13.390
31140W        W 3455  41.073  44.432   1.389
31141W        W 3456  36.338  15.203   2.578
31142W        W 3457  40.741   9.257   0.284
31143W        W 3458  28.497  11.577   1.979
31144W        W 3459  17.708   2.249   1.738
31145W        W 3460   3.485  18.161   2.169
31146W        W 3461  32.410  38.099  12.481
31147W        W 3462  27.961  39.273  10.419
31148W        W 3463  29.645  15.097  12.484
31149W        W 3464  17.881  16.630   4.270
31150W        W 3465  21.266  40.397   1.018
31151W        W 3466  16.329  27.642   4.173
31152W        W 3467   5.417  19.588  14.958
31153W        W 3468  15.040   3.383   4.654
31154W        W 3469  25.814  27.718  11.939
31155W        W 3470  17.729  22.796   4.940
31156W        W 3471  33.875   7.270   0.334
31157W        W 3472  39.103  33.692   3.724
31158W        W 3473  27.557  30.468  11.417
31159W        W 3474  12.762  36.613  14.015
31160W        W 3475  42.869   1.905   0.346
31161W        W 3476   4.030  30.000   2.331
31162W        W 3477  38.092   5.898  13.397
31163W        W 3478  35.485  33.837  10.664
31164W        W 3479   1.317  23.517   1.508
31165W        W 3480  27.732  15.903  12.051
31166W        W 3481   5.931  35.467   2.629
31167W        W 3482  37.976  12.380   4.225
31168W        W 3483  17.719  25.501  12.404
31169W        W 3484  21.194  23.721   1.866
31170W        W 3485  35.315  42.433  12.590
31171W        W 3486  30.170  22.504  11.498
31172W        W 3487  19.420  39.229  12.428
31173W        W 3488  35.404   8.031  10.404
31174W        W 3489  18.606  31.568  14.334
31175W        W 3490   9.628  37.138   2.220
31176W        W 3491  15.260  22.793  11.858
31177W        W 3492   0.212  13.614  10.981
31178W        W 3493  29.978  40.109   1.927
31179W        W 3494  17.558  40.612   3.036
31180W        W 3495   6.856  44.578  11.031
31181W        W 3496  13.201   6.108   3.295
31182W        W 3497   9.203  33.055  12.891
31183W        W 3498  18.547  18.164  10.290
31184W        W 3499  16.355  42.525   2.703
31185W        W 3500  43.120   5.378   0.843
31186W        W 3501  30.617  21.195   2.035
31187W        W 3502  37.577  14.869   2.293
31188W        W 3503   6.628   0.512   4.540
31189W        W 3504  26.127  22.189  13.488
31190W        W 3505   4.370  17.865   3.190
31191W        W 3506  26.919   2.414   4.743
31192W        W 3507  10.361  18.934  14.644
31193W        W 3508  44.145  20.394  13.782
31194W        W 3509  19.335  44.803  12.981
31195W        W 3510  18.476  31.347  14.795
31196W        W 3511  31.023  37.862  11.025
31197W        W 3512  10.747  22.153  11.377
31198W        W 3513  31.900  41.775  13.920
31199W        W 3514  34.874   1.466   4.084
31200W        W 3515  33.004  36.493  11.204
31201W        W 3516  24.414   2.684   2.154
31202W        W 3517  18.092  15.797  11.216
31203W        W 3518   0.969  24.014  11.935
31204W        W 3519   4.555  12.516   3.364
31205W        W 3520  22.128  17.314   2.254
31206W        W 3521  18.558  21.075  10.752
31207W        W 3522   0.420  22.720   4.392
31208W        W 3523  31.532  25.172   1.378
31209W        W 3524   1.732   6.675   1.985
31210W        W 3525  25.676  11.197  13.013
31211W        W 3526  34.863  44.918  11.541
31212W        W 3527  34.069  14.668  10.842
31213W        W 3528  35.972  11.469   2.849
31214W        W 3529  32.195   0.274  13.987
31215W        W 3530   5.686  44.021   0.218
31216W        W 3531  21.245  27.412   0.755
31217W        W 3532   0.973  21.219  14.698
31218W        W 3533   8.837   6.548  11.137
31219W        W 3534  15.314   7.225   1.320
31220W        W 3535  29.111  43.838   4.243
31221W        W 3536  23.899   0.332  11.470
31222W        W 3537  13.866  29.964  10.646
31223W        W 3538  11.226   1.386  13.452
31224W        W 3539  24.276  42.028  12.017
31225W        W 3540  42.257  28.159  11.493
31226W        W 3541   8.668   8.340   2.177
31227W        W 3542  42.529  28.770   3.321
31228W        W 3543  29.128  16.643   3.978
31229W        W 3544   4.177  13.102   1.323
31230W        W 3545  42.537  37.607  12.113
31231W        W 3546  32.397  34.063   2.118
31232W        W 3547  17.435  19.334  10.754
31233W        W 3548  43.997  10.582  13.848
31234W        W 3549  33.495  15.158   4.708
31235W        W 3550  42.753  36.856  12.947
31236W        W 3551  18.569  14.796  14.814
31237W        W 3552  11.318  30.385  12.611
31238W        W 3553  14.101   3.498   0.394
31239W        W 3554  31.441  22.505  13.383
31240W        W 3555  34.151   6.620   1.327
31241W        W 3556  24.834  34.373   4.084
31242W        W 3557  29.708  34.017  13.781
31243W        W 3558  40.991  27.025   3.393
31244W        W 3559  35.615  30.724   3.647
31245W        W 3560  38.994   6.185  11.589
31246W        W 3561  24.906  15.278  12.545
31247W        W 3562  32.125  17.841  13.533
31248W        W 3563  30.158  40.355  11.199
31249W        W 3564  44.639  13.744   4.078
31250W        W 3565  29.586  12.722  10.949
31251W        W 3566  14.881  20.311  12.446
31252W        W 3567  43.491  37.561   1.347
31253W        W 3568   0.767  27.401  14.129
31254W        W 3569  42.478  34.634  10.941
31255W        W 3570   3.155  22.011  11.165
31256W        W 3571  17.230  11.283  10.385
31257W        W 3572  27.768  15.699   1.780
31258W        W 3573  37.316  41.367   4.992
31259W        W 3574  43.105  34.377   0.724
31260W        W 3575  24.023  27.746   4.961
31261W        W 3576  21.148   7.645  11.825
31262W        W 3577   3.925  17.777   1.445
31263W        W 3578  14.847  22.667  11.215
31264W        W 3579  38.851   1.833   3.666
31265W        W 3580  33.175  33.901  12.421
31266W        W 3581   6.742   5.678   0.649
31267W        W 3582   1.538  11.703   0.311
31268W        W 3583  14.224  17.357   0.386
31269W        W 3584  34.336   7.897  14.867
31270W        W 3585  23.704  14.278  11.049
31271W        W 3586  31.130  19.103   2.034
31272W        W 3587  28.100   6.864  10.971
31273W        W 3588   9.099  12.837   5.163
31274W        W 3589  19.055   0.873   4.695
31275W        W 3590  27.186  22.957  11.125
31276W        W 3591  11.144  27.653   1.858
31277W        W 3592  37.504  17.543   1.711
31278W        W 3593  30.117  24.609  13.537
31279W        W 3594   8.226   5.110  11.933
31280W        W 3595  10.683   6.335   1.887
31281W        W 3596  11.768   1.552  13.009
31282W        W 3597  15.853   5.925  10.652
31283W        W 3598  13.236  32.632   0.222
31284W        W 3599   7.586  28.057  13.045
31285W        W 3600  32.490   5.745   0.005
31286W        W 3601  39.830  12.264   0.378
31287W        W 3602  17.083   5.759   4.678
31288W        W 3603  42.536   2.393  12.570
31289W        W 3604   4.888   3.670  13.255
31290W        W 3605   3.703   5.970   0.334
31291W        W 3606   8.449   1.584   4.544
31292W        W 3607   5.099  12.614  12.442
31293W        W 3608  15.301  34.495  12.839
31294W        W 3609  16.369  37.674   2.872
31295W        W 3610  39.502  31.888   1.662
31296W        W 3611  42.991  37.628  13.878
31297W        W 3612  12.669  13.193  14.411
31298W        W 3613  13.292  21.097  10.335
31299W        W 3614   5.358  41.465   1.973
31300W        W 3615  44.345  42.356   1.647
31301W        W 3616   6.332  43.285  14.930
31302W        W 3617  11.389  11.538  12.986
31303W        W 3618  23.568  18.129   3.509
31304W        W 3619  17.267  11.699  11.189
31305W        W 3620  24.587  14.361  13.775
31306W        W 3621  22.124  24.354  13.083
31307W        W 3622  34.955  43.170   4.998
31308W        W 3623  23.173  21.787  10.762
31309W        W 3624  25.546   8.287   3.167
31310W        W 3625  42.040   2.257  10.675
31311W        W 3626  30.500  26.039   0.562
31312W        W 3627   8.632  23.797   2.423
31313W        W 3628   8.236  31.498   4.622
31314W        W 3629   8.723   4.264  13.114
31315W        W 3630   6.089  25.260   3.254
31316W        W 3631  38.157  10.166  10.330
31317W        W 3632  18.835  38.395   4.089
31318W        W 3633   5.413  12.048  14.477
31319W        W 3634  43.305  28.935   1.792
31320W        W 3635  32.130  13.115  14.274
31321W        W 3636  11.787  10.410  14.917
31322W        W 3637  40.007  29.445  10.709
31323W        W 3638   8.785  20.885   9.920
31324W        W 3639   6.940   8.351  13.960
31325W        W 3640   1.508  36.300  12.869
31326W        W 3641  28.143  43.772   4.100
31327W        W 3642  22.748  28.382  11.615
31328W        W 3643  14.775   2.366  10.720
31329W        W 3644  20.294  41.836   2.061
31330W        W 3645  39.939  43.899   2.358
31331W        W 3646  40.220  17.082   3.771
31332W        W 3647   5.828  14.492   5.094
31333W        W 3648  44.016   5.870   4.565
31334W        W 3649   7.956  26.355  10.492
31335W        W 3650   7.455  21.209   3.374
31336W        W 3651   5.039  11.697  14.783
31337W        W 3652  16.320  25.327  13.922
31338W        W 3653   6.239  23.028   4.619
31339W        W 3654  14.915   1.168   4.113
31340W        W 3655  19.715   8.166   9.930
31341W        W 3656  17.122   4.701  10.677
31342W        W 3657  13.853  23.245   2.537
31343W        W 3658   3.728  17.051  11.591
31344W        W 3659  30.670  18.357  12.461
31345W        W 3660   1.237  13.259   4.136
31346W        W 3661   7.394  30.898   3.778
31347W        W 3662   9.867  34.145   5.050
31348W        W 3663  23.021  16.384   3.611
31349W        W 3664  12.573  24.751  10.685
31350W        W 3665   8.350  26.038   2.235
31351W        W 3666  34.044   6.144   3.145
31352W        W 3667   4.619  22.968  11.123
31353W        W 3668  15.871  12.396  12.877
31354W        W 3669  19.972   9.914  10.727
31355W        W 3670   0.551  18.519  14.884
31356W        W 3671  22.750  10.677  12.600
31357W        W 3672  15.563  41.811  11.519
31358W        W 3673   6.382  12.884  10.734
31359W        W 3674   8.637  37.816  14.382
31360W        W 3675  36.066  34.513  12.613
31361W        W 3676  10.652  17.024  10.627
31362W        W 3677  42.603   4.792  11.455
31363W        W 3678   8.112  22.590   4.217
31364W        W 3679  43.800  40.778   4.649
31365W        W 3680  34.082  43.786  11.098
31366W        W 3681  42.938   0.805   3.870
31367W        W 3682  38.294  10.988  12.127
31368W        W 3683  36.449  37.532  13.514
31369W        W 3684  32.944   5.255   1.320
31370W        W 3685  36.826  36.352  12.408
31371W        W 3686  37.240  12.383   1.875
31372W        W 3687   5.943  13.238   2.887
31373W        W 3688   9.449  18.341  10.307
31374W        W 3689  29.358  27.445   0.010
31375W        W 3690   2.204  10.077   2.903
31376W        W 3691  42.417   7.776  11.666
31377W        W 3692  33.347  14.799   2.710
31378W        W 3693  42.005  44.821   1.398
31379W        W 3694   2.573   8.856  10.437
31380W        W 3695   5.114  37.954  11.935
31381W        W 3696   6.052  37.328  13.103
31382W        W 3697  31.398  11.199   1.997
31383W        W 3698  16.631  37.096   4.141
31384W        W 3699   9.584  17.671  14.979
31385W        W 3700  30.164   2.649  14.759
31386W        W 3701   9.637   8.435  10.620
31387W        W 3702  43.998  39.918   3.272
31388W        W 3703  42.308   0.731   2.086
31389W        W 3704  18.701  22.468  13.532
31390W        W 3705   4.171  32.908   1.666
31391W        W 3706   6.267   1.519   0.375
31392W        W 3707  36.690  22.535  11.632
31393W        W 3708  32.652  21.359   2.420
31394W        W 3709  25.633  36.127   3.157
31395W        W 3710  30.978   7.848   3.715
31396W        W 3711  22.582  34.786  12.051
31397W        W 3712  40.362  32.421   1.480
31398W        W 3713  21.183  19.077  12.600
31399W        W 3714  24.729  36.970   4.735
31400W        W 3715   7.787  25.468  13.805
31401W        W 3716  33.727   6.332   1.268
31402W        W 3717   0.707  13.593  14.685
31403W        W 3718  41.083   6.321   2.868
31404W        W 3719  17.830  34.814   1.781
31405W        W 3720  43.792  14.074  11.560
31406W        W 3721  41.207  10.086  14.336
31407W        W 3722  24.610  36.613   3.241
31408W        W 3723   7.158  36.816   3.263
31409W        W 3724  28.459   6.635   4.078
31410W        W 3725  14.682   1.086  10.169
31411W        W 3726   8.817  33.581   1.712
31412W        W 3727  37.880  14.526  11.000
31413W        W 3728   1.993  10.895  10.423
31414W        W 3729  27.438  21.515  14.888
31415W        W 3730  15.654   4.838  12.964
31416W        W 3731  19.234  14.692  14.213
31417W        W 3732   6.439  28.508  13.343
31418W        W 3733  22.240  41.800   3.739
31419W        W 3734  30.558  13.322   4.418
31420W        W 3735   0.909  25.737   1.454
31421W        W 3736  22.497  29.613  12.048
31422W        W 3737  16.334  22.045   3.242
31423W        W 3738   8.715  16.567  14.351
31424W        W 3739  18.280  29.114   4.191
31425W        W 3740  30.479   7.469   0.911
31426W        W 3741  29.011   4.350   4.252
31427W        W 3742  27.867  35.427   3.236
31428W        W 3743  26.697  14.373  10.925
31429W        W 3744  38.866  37.468   0.398
31430W        W 3745  31.232   4.393  14.381
31431W        W 3746  31.716   0.440   2.432
31432W        W 3747   6.212  10.881  14.992
31433W        W 3748  14.826  18.974  13.456
31434W        W 3749  27.246  38.925   1.950
31435W        W 3750  17.722  29.242   3.864
31436W        W 3751  17.759   1.177  10.749
31437W        W 3752   8.390  39.895  14.485
31438W        W 3753  21.143  12.619   4.544
31439W        W 3754  17.192   9.210  11.543
31440W        W 3755   8.369  22.139  11.165
31441W        W 3756   2.980  20.472   3.783
31442W        W 3757  25.209  15.849  11.659
31443W        W 3758   3.774  41.037   1.477
31444W        W 3759  24.069  31.875  11.469
31445W        W 3760  23.087  31.923   3.661
31446W        W 3761  12.375  11.813   1.725
31447W        W 3762  16.000  13.805   0.838
31448W        W 3763   7.197  30.696   1.689
31449W        W 3764   1.808  31.006   4.710
31450W        W 3765  19.690  30.756   3.731
31451W        W 3766  30.875   9.470  11.173
31452W        W 3767  12.802  37.557  10.564
31453W        W 3768   8.204   0.697  11.492
31454W        W 3769  31.974  11.595   4.607
31455W        W 3770   9.395  37.076  14.479
31456W        W 3771  12.260  24.102   3.708
31457W        W 3772   5.822  33.062  14.508
31458W        W 3773   8.106  16.760  12.973
31459W        W 3774   1.673  17.442   4.732
31460W        W 3775  38.516  37.788  11.540
31461W        W 3776   4.331  43.292  11.928
31462W        W 3777  18.213  42.914   2.652
31463W        W 3778  29.395  42.359  13.480
31464W        W 3779   7.886  36.950   4.651
31465W        W 3780  25.474  28.082  12.033
31466W        W 3781  19.845  28.661   1.922
31467W        W 3782  11.604  35.537   2.825
31468W        W 3783   7.937  16.481   2.875
31469W        W 3784  35.941  10.764  13.533
31470W        W 3785  19.154  37.718   2.826
31471W        W 3786  37.051  34.358   1.021
31472W        W 3787   6.742  42.922  11.964
31473W        W 3788  11.099  23.992   1.305
31474W        W 3789   9.754  21.112   3.634
31475W        W 3790  24.045  27.086   1.778
31476W        W 3791  44.294  39.011  11.432
31477W        W 3792  15.256  40.196   4.699
31478W        W 3793  22.004   9.128   1.846
31479W        W 3794  13.640  25.492   0.977
31480W        W 3795  40.789  40.359   4.586
31481W        W 3796  44.968  27.458   2.758
31482W        W 3797  39.462  11.853   4.762
31483W        W 3798  44.536  28.855   3.341
31484W        W 3799  44.194  23.440   0.804
31485W        W 3800  19.245   7.574  13.430
31486W        W 3801  36.620   5.793  12.923
31487W        W 3802  19.254  41.997   0.793
31488W        W 3803   0.250   5.279   0.402
31489W        W 3804  39.272  36.901   0.380
31490W        W 3805  27.155  16.189  14.818
31491W        W 3806   7.286  22.702  12.873
31492W        W 3807  12.699  35.619  14.884
31493W        W 3808  38.882  12.994   0.836
31494W        W 3809  13.227   9.105   1.853
31495W        W 3810  41.876  10.863   4.819
31496W        W 3811  44.147  28.517   3.471
31497W        W 3812   4.318  21.296   2.149
31498W        W 3813  32.493  22.980  13.054
31499W        W 3814  22.665  26.608   3.698
31500W        W 3815   8.131  43.425   0.695
31501W        W 3816  10.274  22.020   3.661
31502W        W 3817  33.554  25.303  14.803
31503W        W 3818  15.257   7.309  13.048
31504W        W 3819  43.442  34.443   2.105
31505W        W 3820  38.107  35.882  11.128
31506W        W 3821  37.805  16.292   3.296
31507W        W 3822  19.263   6.270  11.573
31508W        W 3823  28.034   7.770   4.125
31509W        W 3824  25.079  15.272  10.661
31510W        W 3825  36.005  34.480   3.913
31511W        W 3826  13.809  34.497  13.970
31512W        W 3827  25.206   0.751   4.783
31513W        W 3828   3.372  15.326   2.944
31514W        W 3829  39.849  26.678   3.637
31515W        W 3830   5.663  33.410   3.823
31516W        W 3831  30.157  18.859   5.063
31517W        W 3832   2.874  25.108   0.673
31518W        W 3833   8.579  26.500   1.482
31519W        W 3834  38.404  10.855   2.426
31520W        W 3835   9.676  41.709   4.152
31521W        W 3836  16.194  10.341  14.060
31522W        W 3837   6.157  37.126  11.543
31523W        W 3838  12.586   2.826   0.808
31524W        W 3839  32.206   3.746  12.057
31525W        W 3840  39.801  14.522   2.814
31526W        W 3841  17.608  32.936   2.698
31527W        W 3842  29.713  20.693   4.517
31528W        W 3843   1.724  12.673   0.061
31529W        W 3844  20.023  13.314  10.691
31530W        W 3845  39.269  24.239   0.813
31531W        W 3846  41.996  29.018   1.227
31532W        W 3847  25.138  26.037  14.024
31533W        W 3848  12.871  39.999   3.260
31534W        W 3849  13.651   8.973  10.929
31535W        W 3850  33.237  25.578  13.346
31536W        W 3851   2.614  29.668  11.528
31537W        W 3852  25.811  34.811  12.073
31538W        W 3853  32.477  17.694   4.272
31539W        W 3854  40.911  31.346  14.643
31540W        W 3855  31.690   7.224   2.359
31541W        W 3856   7.613  27.319   3.215
31542W        W 3857  14.844  16.808   2.322
31543W        W 3858  13.104  30.384  11.538
31544W        W 3859  16.390  28.519  13.114
31545W        W 3860  14.347  36.542  13.515
31546W        W 3861  30.998   7.243   4.078
31547W        W 3862  32.032  23.797   1.354
31548W        W 3863  27.925  21.341  14.884
31549W        W 3864  38.980  25.352  10.263
31550W        W 3865   7.388   8.203  14.308
31551W        W 3866  16.541  21.697  12.157
31552W        W 3867  13.705  38.546   4.414
31553W        W 3868  10.766  29.606   1.909
31554W        W 3869   8.170  36.454   4.694
31555W        W 3870  40.882  41.691   0.252
31556W        W 3871  37.476   1.844   3.588
31557W        W 3872  17.941  14.783  12.491
31558W        W 3873  34.348   7.853   4.516
31559W        W 3874  22.316  31.153  14.413
31560W        W 3875  44.507  17.538   2.968
31561W        W 3876  39.484   7.122   4.636
31562W        W 3877  38.034  29.373  11.527
31563W        W 3878  29.478  13.429   0.891
31564W        W 3879  39.498  44.582   1.411
31565W        W 3880  16.735  36.507  11.643
31566W        W 3881  12.443   5.103  12.584
31567W        W 3882  33.617  23.972  12.030
31568W        W 3883  16.111  43.324  11.962
31569W        W 3884  22.547  24.767   2.249
31570W        W 3885  20.103  28.895   0.769
31571W        W 3886  24.447  18.753   4.871
31572W        W 3887   2.247   2.712  14.362
31573W        W 3888  38.440  27.510   4.338
31574W        W 3889  16.478  37.595  10.682
31575W        W 3890  18.957  40.223  12.457
31576W        W 3891   9.348  19.328   4.608
31577W        W 3892  10.848  38.307   1.222
31578W        W 3893  30.463  43.173  11.892
31579W        W 3894  37.476  20.488  13.490
31580W        W 3895   6.290   6.970  12.934
31581W        W 3896  20.275   8.460   1.057
31582W        W 3897  36.774   2.268  11.689
31583W        W 3898  38.904  44.834  13.982
31584W        W 3899  21.080  15.357   2.260
31585W        W 3900  28.383  28.461  14.969
31586W        W 3901  31.746  20.503   3.055
31587W        W 3902  23.811  38.616   4.220
31588W        W 3903  34.494  36.338  12.439
31589W        W 3904  43.011   1.390   1.699
31590W        W 3905  38.492  28.671   1.475
31591W        W 3906   9.657  28.418   0.815
31592W        W 3907  14.177   8.939  13.781
31593W        W 3908  22.684  41.996  12.142
31594W        W 3909   4.146  39.176   2.024
31595W        W 3910  38.379   4.553  12.074
31596W        W 3911  28.674  31.986   4.776
31597W        W 3912  20.073  33.618   3.384
31598W        W 3913  28.624   0.401   1.744
31599W        W 3914  25.984  30.919   3.494
31600W        W 3915  13.169  17.139   0.975
31601W        W 3916  10.757  26.497   0.777
31602W        W 3917  36.334  13.633   3.330
31603W        W 3918   0.216  25.498  10.628
31604W        W 3919   1.014  36.606   4.048
31605W        W 3920   8.972  36.320  14.430
31606W        W 3921  23.804  39.948  12.974
31607W        W 3922  14.029  23.604   4.243
31608W        W 3923  13.745  27.076  11.678
31609W        W 3924  44.025  20.994   4.206
31610W        W 3925   7.985  20.225  14.069
31611W        W 3926  29.038  27.722  11.495
31612W        W 3927  36.558   9.315  14.469
31613W        W 3928  43.023  29.401  10.713
31614W        W 3929   3.787  27.234   2.616
31615W        W 3930   9.684  15.866  13.192
31616W        W 3931  35.218  10.185   2.591
31617W        W 3932   4.627  40.356   4.618
31618W        W 3933   3.433  13.389   4.543
31619W        W 3934  40.634   7.425   2.427
31620W        W 3935  41.981   5.295  14.343
31621W        W 3936  32.582  20.772   0.383
31622W        W 3937   0.855   6.052   3.679
31623W        W 3938   8.613  15.020  14.509
31624W        W 3939  21.751  36.846  12.867
31625W        W 3940   9.556  27.431  12.583
31626W        W 3941  26.179   3.487  11.153
31627W        W 3942  22.699  17.617   1.327
31628W        W 3943  24.479   3.999   0.351
31629W        W 3944  11.109  31.605  12.085
31630W        W 3945  13.426  11.910   5.048
31631W        W 3946  29.106  11.043   3.298
31632W        W 3947  38.254   1.230  11.545
31633W        W 3948   8.659  43.389   0.838
31634W        W 3949  31.921   2.621   1.504
31635W        W 3950   8.619  21.521   2.346
31636W        W 3951  38.940   4.506   2.318
31637W        W 3952  36.371  21.589   0.387
31638W        W 3953  22.474  12.731  12.155
31639W        W 3954   9.924  19.043   2.837
31640W        W 3955  19.647  16.896  14.241
31641W        W 3956  10.165   4.201   3.215
31642W        W 3957   1.702  37.961   3.540
31643W        W 3958   0.344  44.676   1.939
31644W        W 3959  10.608  43.089   0.329
31645W        W 3960  24.051  38.781   4.941
31646W        W 3961  38.286  25.619   0.855
31647W        W 3962  37.249   0.326   9.947
31648W        W 3963  23.053  12.780  13.422
31649W        W 3964  17.162  12.901   2.869
31650W        W 3965  19.992  37.304  13.935
31651W        W 3966  16.933  27.938  14.301
31652W        W 3967  41.707  18.822  11.500
31653W        W 3968  25.388  19.498  12.055
31654W        W 3969   9.111  39.772   2.740
31655W        W 3970  24.457  18.143  14.362
31656W        W 3971   1.494  12.278  14.864
31657W        W 3972  25.121  41.782   0.367
31658W        W 3973   2.051  24.008  13.471
31659W        W 3974  44.776  42.548  10.707
31660W        W 3975  37.118   9.921   1.696
31661W        W 3976   5.473  36.614   3.658
31662W        W 3977  19.257   5.910  11.946
31663W        W 3978  20.025  44.308   1.395
31664W        W 3979   4.184  21.242  14.972
31665W        W 3980  27.443   8.685   0.431
31666W        W 3981  37.073   6.939   2.664
31667W        W 3982  19.685  28.455  12.030
31668W        W 3983  30.466   8.654   0.353
31669W        W 3984  12.598  24.623   0.491
31670W        W 3985  36.661  39.449   1.263
31671W        W 3986  43.997  15.594   2.319
31672W        W 3987  14.259  24.602  10.962
31673W        W 3988  13.355  38.391  13.148
31674W        W 3989  12.721  10.612   0.994
31675W        W 3990  11.736   3.389   3.622
31676W        W 3991  21.257  12.478  10.269
31677W        W 3992  37.473  21.615  14.318
31678W        W 3993   1.799  38.807   1.005
31679W        W 3994  27.362   2.693   3.999
31680W        W 3995   9.333  44.821  14.578
31681W        W 3996  10.661   2.476  13.309
31682W        W 3997  12.750  20.813   0.295
31683W        W 3998  22.545  11.175  10.894
31684W        W 3999  14.171   1.248   2.372
31685W        W 4000  17.236   5.740   3.336
31686W        W 4001  44.519  33.482  12.349
31687W        W 4002  14.588  36.478  11.182
31688W        W 4003  44.521  16.671   2.341
31689W        W 4004  30.371   2.633   3.449
31690W        W 4005  18.026  24.514  12.655
31691W        W 4006  29.421   4.381   4.597
31692W        W 4007  44.540  36.871   4.727
31693W        W 4008  31.443  31.969  12.778
31694W        W 4009   0.702  40.615   4.534
31695W        W 4010  32.634  37.256  13.371
31696W        W 4011  28.375  38.635  11.546
31697W        W 4012  22.542   4.202   2.253
31698W        W 4013   1.285   6.752   2.245
31699W        W 4014  29.982  15.813   2.448
31700W        W 4015   6.800   3.217  14.969
31701W        W 4016   4.990  43.089   4.063
31702W        W 4017   6.217  39.904  13.786
31703W        W 4018  31.042  30.442   0.954
31704W        W 4019   4.441  17.485   0.726
31705W        W 4020  26.695   6.264   0.309
31706W        W 4021   8.854  29.550   0.803
31707W        W 4022   1.186  22.639   4.861
31708W        W 4023  26.638   3.517   3.764
31709W        W 4024  29.481  11.705   0.715
31710W        W 4025  34.021  33.597  12.623
31711W        W 4026   3.262  22.142  11.640
31712W        W 4027  41.787   1.860   0.199
31713W        W 4028  41.627   6.797   3.067
31714W        W 4029  20.926  26.435   5.163
31715W        W 4030  18.212  23.626  12.958
31716W        W 4031  27.453  11.654   0.847
31717W        W 4032  18.515  34.389  11.984
31718W        W 4033  38.350   5.427   0.799
31719W        W 4034  13.934  22.198  13.404
31720W        W 4035  20.532  37.100  14.791
31721W        W 4036  22.552  21.065  13.447
31722W        W 4037  37.487  29.265  12.090
31723W        W 4038  25.706  24.959   2.513
31724W        W 4039   2.446   3.099   2.486
31725W        W 4040  41.093   2.266   1.683
31726W        W 4041  21.184  19.582  12.735
31727W        W 4042  30.601  33.035  10.584
31728W        W 4043  24.623  32.077  11.489
31729W        W 4044  44.524  30.465   3.184
31730W        W 4045  41.723  13.320  10.177
31731W        W 4046   4.711   3.202  13.348
31732W        W 4047  14.206  40.094  13.660
31733W        W 4048  36.325  16.914  13.049
31734W        W 4049   6.806  12.569  10.703
31735W        W 4050   5.823  32.371  12.578
31736W        W 4051  28.148  43.090   0.833
31737W        W 4052  17.155  42.344  10.119
31738W        W 4053  24.197  10.110  13.379
31739W        W 4054   7.628  23.690  10.753
31740W        W 4055  24.866  32.574   1.416
31741W        W 4056  13.826  17.693  14.375
31742W        W 4057  33.139  16.859   3.559
31743W        W 4058  20.094   8.952   2.855
31744W        W 4059   2.946  13.685  11.518
31745W        W 4060  23.814   7.413   3.671
31746W        W 4061  12.394   6.397   1.824
31747W        W 4062  13.579  44.287  12.999
31748W        W 4063  30.303  30.638  12.981
31749W        W 4064  27.095   7.176   1.259
31750W        W 4065  34.436  24.621  10.677
31751W        W 4066   3.296  12.902  11.166
31752W        W 4067   6.824  24.196  14.417
31753W        W 4068  39.889  42.850   4.567
31754W        W 4069   9.223  28.116   4.725
31755W        W 4070  36.829  43.295  13.126
31756W        W 4071  29.999  43.336   0.027
31757W        W 4072   4.523  16.271  14.348
31758W        W 4073  40.065  35.401  14.003
31759W        W 4074   8.332   6.442   0.842
31760W        W 4075  31.009  30.324   4.149
31761W        W 4076  24.978  36.703  14.783
31762W        W 4077  21.300  25.088  11.649
31763W        W 4078   7.692  23.326  14.927
31764W        W 4079  36.996  11.762   1.225
31765W        W 4080  12.790  33.090  11.912
31766W        W 4081  38.319  33.984   3.991
31767W        W 4082  29.112  19.082   2.345
31768W        W 4083  18.702   8.184   4.988
31769W        W 4084  38.257  19.619  13.136
31770W        W 4085  30.180  15.557   0.940
31771W        W 4086  38.287  37.437  10.734
31772W        W 4087  26.718  42.534   4.467
31773W        W 4088  31.556  26.915   0.803
31774W        W 4089  12.394  34.033   1.306
31775W        W 4090  26.562  20.268   1.256
31776W        W 4091   2.994  17.636  13.982
31777W        W 4092  22.490   9.699   0.880
31778W        W 4093   3.539  38.350  13.046
31779W        W 4094  14.781  26.100   2.646
31780W        W 4095  40.115  17.318  13.299
31781W        W 4096  44.960  27.123   1.252
31782W        W 4097  32.322   9.303   4.733
31783W        W 4098  10.324  16.273  13.750
31784W        W 4099  16.314  44.870  13.609
31785W        W 4100  10.197   6.141  14.530
31786W        W 4101  17.748  26.640   4.551
31787W        W 4102  11.462  33.617   4.629
31788W        W 4103   1.895  26.476  11.527
31789W        W 4104  18.738  39.510   3.706
31790W        W 4105  24.552  29.129  14.406
31791W        W 4106  13.287  18.003   3.726
31792W        W 4107  14.553  21.090  14.503
31793W        W 4108  28.029   6.186   0.378
31794W        W 4109  38.762  41.701   0.239
31795W        W 4110  12.721  31.951  12.703
31796W        W 4111  22.031  19.775   1.277
31797W        W 4112  44.350   1.679  10.741
31798W        W 4113   7.146  38.882   3.199
31799W        W 4114  18.184  41.009   9.706
31800W        W 4115   3.936  44.529  14.338
31801W        W 4116  38.489  26.128   0.717
31802W        W 4117  12.033  38.518   4.602
31803W        W 4118  13.065   4.515   0.493
31804W        W 4119  14.759  18.262  12.601
31805W        W 4120   3.528  25.019  14.354
31806W        W 4121  17.060  10.456  10.251
31807W        W 4122  41.387  30.787   5.072
31808W        W 4123   0.498   5.747   0.238
31809W        W 4124  22.291  14.646   0.523
31810W        W 4125   6.306  33.736   3.226
31811W        W 4126  43.578   7.785   3.183
31812W        W 4127   2.158   4.493  12.597
31813W        W 4128  40.471  29.461   5.130
31814W        W 4129  42.564  33.768  11.012
31815W        W 4130  22.169  11.740   3.754
31816W        W 4131  27.192  21.566   1.844
31817W        W 4132  33.898  10.401  13.916
31818W        W 4133  10.689  44.366  12.016
31819W        W 4134  17.773  10.047   4.174
31820W        W 4135  37.425  26.301   5.044
31821W        W 4136  21.059  37.480  13.482
31822W        W 4137   2.372   2.479  13.452
31823W        W 4138  28.991  10.734   4.268
31824W        W 4139  19.706  13.263  11.567
31825W        W 4140  15.607  35.427   3.128
31826W        W 4141  35.883  31.106   0.378
31827W        W 4142  25.212  28.868  12.021
31828W        W 4143  23.486  21.247  13.900
31829W        W 4144  41.794  24.274  14.308
31830W        W 4145  32.073  35.706   4.249
31831W        W 4146   0.354  18.616   2.749
31832W        W 4147   5.961   2.504  11.540
31833W        W 4148   4.499  39.429  12.016
31834W        W 4149  11.051  16.328   9.715
31835W        W 4150   5.401   1.741  11.957
31836W        W 4151  26.705  18.215   4.038
31837W        W 4152  24.246  18.549  13.488
31838W        W 4153  11.288   3.664   3.577
31839W        W 4154  29.626   1.807  14.959
31840W        W 4155  38.605  29.958  12.047
31841W        W 4156  43.871   8.367  14.966
31842W        W 4157   8.270  27.877   1.877
31843W        W 4158  35.086  28.729   2.719
31844W        W 4159  31.299   5.770   1.009
31845W        W 4160  40.322  15.138   3.388
31846W        W 4161  30.494  15.806   2.302
31847W        W 4162   5.803   3.535  11.095
31848W        W 4163  19.827  42.798  14.877
31849W        W 4164  31.605  37.422   1.184
31850W        W 4165   2.172  19.688  12.514
31851W        W 4166  39.607  16.872  11.151
31852W        W 4167  14.659   4.542  14.868
31853W        W 4168  30.045  32.888   3.638
31854W        W 4169   7.592  32.179  10.323
31855W        W 4170   0.051  34.979  11.733
31856W        W 4171  42.779  35.094  11.851
31857W        W 4172   1.225   0.196   2.211
31858W        W 4173  36.985  31.859   4.996
31859W        W 4174  16.345  11.290  10.861
31860W        W 4175  42.462  19.440  13.261
31861W        W 4176   9.405  15.970  10.349
31862W        W 4177  16.956  36.141   0.336
31863W        W 4178  21.800  19.220   2.890
31864W        W 4179  44.306   8.202  11.113
31865W        W 4180  27.648  38.381   4.329
31866W        W 4181  28.828  27.122  13.861
31867W        W 4182  21.153  23.530   0.842
31868W        W 4183  39.714  30.330   3.142
31869W        W 4184   1.959  38.529   2.388
31870W        W 4185  18.096  13.200  10.451
31871W        W 4186  10.172  15.320   2.912
31872W        W 4187  39.669  30.328   1.766
31873W        W 4188  21.764  27.923   1.845
31874W        W 4189  18.398  16.509  11.613
31875W        W 4190  31.824  44.381  13.089
31876W        W 4191  37.880  29.505   1.109
31877W        W 4192   6.384  15.374  12.255
31878W        W 4193  34.821  38.561   0.326
31879W        W 4194  13.225  21.024   0.252
31880W        W 4195   1.821  37.149  13.920
31881W        W 4196  28.867  32.881   4.958
31882W        W 4197  16.048  29.948   1.124
31883W        W 4198   1.935  20.641  12.234
31884W        W 4199   0.955  41.936   4.197
31885W        W 4200  33.820   9.532  12.017
31886W        W 4201  41.629   0.475  13.273
31887W        W 4202  15.324  19.074  10.658
31888W        W 4203  19.089  25.904  14.017
31889W        W 4204  37.337   2.736  14.352
31890W        W 4205   1.563   5.302   0.930
31891W        W 4206  43.794   3.262   0.261
31892W        W 4207  20.336  27.076   4.229
31893W        W 4208  23.566  16.648  13.508
31894W        W 4209   1.885  11.387  14.751
31895W        W 4210   7.825  33.627  14.277
31896W        W 4211  24.423   2.824   1.230
31897W        W 4212  29.583   9.969  14.025
31898W        W 4213  27.741  14.272  11.510
31899W        W 4214   6.175  44.515  13.014
31900W        W 4215  15.377  30.872   4.631
31901W        W 4216  32.455  17.659  11.591
31902W        W 4217  16.183  35.459  12.175
31903W        W 4218  22.100  18.396   0.741
31904W        W 4219   8.151   0.438  14.448
31905W        W 4220   0.754  25.813  13.579
31906W        W 4221  37.834  21.654  13.910
31907W        W 4222  28.600  30.178   3.567
31908W        W 4223  12.775  17.686   2.361
31909W        W 4224  15.855  29.908  13.852
31910W        W 4225  29.163  21.042   3.801
31911W        W 4226  13.681  20.806  14.448
31912W        W 4227  44.869   0.489   1.838
31913W        W 4228  39.354  11.789  13.505
31914W        W 4229  12.724  17.257   1.295
31915W        W 4230  17.199  19.368   1.240
31916W        W 4231   5.741  30.571  10.717
31917W        W 4232  25.097  34.945  12.490
31918W        W 4233  42.347  10.460   1.104
31919W        W 4234  35.096   9.221  12.993
31920W        W 4235  16.220  25.808  12.216
31921W        W 4236  35.473  42.999   0.467
31922W        W 4237  13.400  42.809   1.005
31923W        W 4238  32.807  36.409   1.086
31924W        W 4239  34.042  24.670   2.803
31925W        W 4240  21.497  25.905  13.466
31926W        W 4241  44.911  15.979   2.389
31927W        W 4242  22.673   5.941  14.269
31928W        W 4243  30.621   9.247   2.665
31929W        W 4244  35.939   5.630  11.155
31930W        W 4245  12.232   6.663  11.105
31931W        W 4246  10.178  13.094  12.572
31932W        W 4247   4.877  30.619   5.150
31933W        W 4248  29.030  27.899   4.789
31934W        W 4249  21.340  32.475  13.618
31935W        W 4250  27.078  20.624  13.311
31936W        W 4251  31.982  39.589   1.023
31937W        W 4252  14.336  35.393  11.936
31938W        W 4253  14.228  35.548  11.133
31939W        W 4254  35.015   4.207   1.247
31940W        W 4255  34.547   0.963   1.430
31941W        W 4256  24.747  24.127  11.861
31942W        W 4257  18.132  30.916   0.191
31943W        W 4258  18.868  14.248   0.966
31944W        W 4259  23.580  39.845   3.350
31945W        W 4260  40.976  30.141   3.612
31946W        W 4261  39.747  36.259   2.693
31947W        W 4262  14.551  25.964  10.780
31948W        W 4263  38.363  19.086   2.592
31949W        W 4264   6.338   8.650  13.452
31950W        W 4265  18.100  38.366   3.300
31951W        W 4266   7.975  36.643   2.368
31952W        W 4267  38.003  44.363   3.259
31953W        W 4268  34.656  10.651  11.623
31954W        W 4269  12.265   7.884  13.942
31955W        W 4270  36.567  19.583   2.733
31956W        W 4271  43.163  19.059  12.394
31957W        W 4272  28.296   5.102   5.562
31958W        W 4273   4.188   4.843  14.564
31959W        W 4274   5.223  26.070  13.269
31960W        W 4275   4.390  18.845   1.382
31961W        W 4276   9.598  34.315   0.409
31962W        W 4277  16.684  20.751   2.587
31963W        W 4278  13.635   4.016  14.281
31964W        W 4279  26.469   2.101  13.916
31965W        W 4280  13.319  36.096  12.632
31966W        W 4281  11.310   3.258   3.896
31967W        W 4282  25.575   2.718  11.025
31968W        W 4283   3.818  16.593  12.983
31969W        W 4284  27.537   9.705   2.752
31970W        W 4285  22.188   1.049  11.070
31971W        W 4286   0.818   8.140   0.772
31972W        W 4287  37.574  36.097   3.694
31973W        W 4288  29.138  12.139  14.496
31974W        W 4289  22.610  25.471  13.327
31975W        W 4290  24.514  23.565   4.040
31976W        W 4291  36.771  28.778  11.567
31977W        W 4292  37.541  29.578   4.667
31978W        W 4293  33.718  21.587   4.344
31979W        W 4294  42.933  40.373  11.734
31980W        W 4295  42.177  15.693  11.301
31981W        W 4296  29.154  34.583   0.148
31982W        W 4297   4.609  37.841   1.811
31983W        W 4298  29.013  29.655  14.916
31984W        W 4299  30.153  38.255   2.250
31985W        W 4300   1.569  26.070  11.590
31986W        W 4301   5.282  10.766   3.647
31987W        W 4302  34.312  43.779   1.859
31988W        W 4303   2.399   9.869   2.445
31989W        W 4304  13.024  34.497  11.440
31990W        W 4305  11.960  15.120   1.871
31991W        W 4306  34.138  29.545   3.167
31992W        W 4307  40.502  37.617  12.087
31993W        W 4308   4.373  35.061  10.600
31994W        W 4309   8.294  21.226  14.760
31995W        W 4310  19.559   2.224   1.741
31996W        W 4311  14.754  35.396   2.583
31997W        W 4312  16.817   5.138   0.002
31998W        W 4313  23.145  30.429  13.641
31999W        W 4314  33.892   5.265  11.360
32000W        W 4315  10.800  39.811   4.929
32001W        W 4316   2.784  25.678   4.919
32002W        W 4317  13.488  23.992  12.988
32003W        W 4318  33.944  43.836   3.605
32004W        W 4319  35.059  44.265  13.082
32005W        W 4320   9.629  44.877  14.992
32006W        W 4321  25.280  36.581   0.213
32007W        W 4322  42.557  42.896   2.730
32008W        W 4323  28.130  18.744   3.744
32009W        W 4324  17.682  21.584   1.913
32010W        W 4325  28.924  43.558  13.835
32011W        W 4326  27.888  20.097   0.573
32012W        W 4327  19.021  27.650  12.882
32013W        W 4328  23.830  32.326  11.648
32014W        W 4329  31.821  37.531   5.059
32015W        W 4330  27.034   1.474   3.823
32016W        W 4331  32.285  29.963   1.838
32017W        W 4332   1.203  42.855  11.572
32018W        W 4333   4.202  39.846  11.968
32019W        W 4334  35.070  22.612  10.253
32020W        W 4335  10.679  44.443   4.158
32021W        W 4336  31.639  27.650   4.929
32022W        W 4337  34.142  11.290   0.469
32023W        W 4338  38.165   7.696  11.336
32024W        W 4339  17.572   0.968   3.369
32025W        W 4340  11.902  18.774  12.536
32026W        W 4341  40.894  42.785  14.983
32027W        W 4342  23.750  34.161   1.691
32028W        W 4343  23.500   5.218   2.184
32029W        W 4344  23.257  31.138   1.898
32030W        W 4345   6.651  34.014  12.078
32031W        W 4346   0.679  40.242   3.673
32032W        W 4347   8.228  23.968  12.654
32033W        W 4348  44.342  20.683   3.650
32034W        W 4349  14.985  30.080   0.491
32035W        W 4350  19.188  35.668   4.492
32036W        W 4351  24.063  16.788   1.809
32037W        W 4352  12.352  11.270  13.095
32038W        W 4353  43.773  39.883  12.435
32039W        W 4354  26.720  16.517   1.917
32040W        W 4355  35.489  14.545   3.345
32041W        W 4356  26.671  10.932  12.974
32042W        W 4357   2.830  22.711  11.108
32043W        W 4358  38.081  22.317  14.254
32044W        W 4359  42.765  28.960  11.917
32045W        W 4360   1.800   3.275  13.836
32046W        W 4361   0.473  25.664  13.979
32047W        W 4362  11.560   8.669   2.176
32048W        W 4363  42.149  21.830   4.902
32049W        W 4364  18.784  21.084   2.921
32050W        W 4365  27.591  44.588   3.714
32051W        W 4366  16.674  22.585  11.618
32052W        W 4367  16.235   7.128   2.423
32053W        W 4368  24.700  33.067   1.263
32054W        W 4369   1.833  30.937   1.404
32055W        W 4370  19.003   7.944   3.195
32056W        W 4371   2.363  22.728   0.844
32057W        W 4372  21.955  14.510  13.883
32058W        W 4373  12.883   5.935   3.656
32059W        W 4374  28.420   0.420  11.979
32060W        W 4375  16.322  13.652  13.884
32061W        W 4376  27.703  27.640  13.405
32062W        W 4377  39.912  39.020  11.541
32063W        W 4378  24.622  37.139   4.241
32064W        W 4379  42.377   1.257  11.662
32065W        W 4380  40.420  16.602  14.532
32066W        W 4381  40.973  10.433   3.273
32067W        W 4382  22.494  39.466   0.264
32068W        W 4383   8.688  12.742  13.576
32069W        W 4384  37.564  27.258   0.235
32070W        W 4385  18.580  42.458   1.844
32071W        W 4386   6.437  35.399  12.996
32072W        W 4387  44.490  23.571  14.039
32073W        W 4388  21.591  16.130   4.197
32074W        W 4389  26.236  13.658   3.601
32075W        W 4390   3.473   1.874   1.256
32076W        W 4391  18.210   5.695   1.871
32077W        W 4392  35.565  39.283   0.232
32078W        W 4393  11.859  28.273  12.385
32079W        W 4394  37.246  44.511  10.889
32080W        W 4395  16.959  13.696   3.123
32081W        W 4396  31.175  28.591  12.961
32082W        W 4397   4.411   6.638   0.424
32083W        W 4398   5.785  36.743  14.700
32084W        W 4399  41.877  11.876  13.552
32085W        W 4400  11.646  24.823  12.515
32086W        W 4401  13.566  34.899   0.816
32087W        W 4402  31.779  15.586  12.838
32088W        W 4403  13.180  22.662   4.045
32089W        W 4404  38.199  35.405  12.796
32090W        W 4405  23.024  26.519  11.151
32091W        W 4406  36.837   3.037  13.548
32092W        W 4407  32.487  10.137   3.729
32093W        W 4408   3.842   9.828  11.699
32094W        W 4409  10.144  16.877   0.490
32095W        W 4410  18.797  13.322  13.016
32096W        W 4411  18.371  35.459   3.111
32097W        W 4412  22.177  36.030  10.761
32098W        W 4413  26.980  35.103   1.416
32099W        W 4414  38.861  27.169   0.806
32100W        W 4415  37.553  26.667  12.299
32101W        W 4416  31.815  34.562   1.611
32102W        W 4417   7.288  25.837   4.178
32103W        W 4418  11.318  26.050  13.879
32104W        W 4419  24.036  30.199  10.539
32105W        W 4420  11.073  16.405   2.101
32106W        W 4421   0.808  17.265   1.022
32107W        W 4422   9.078  23.526   1.656
32108W        W 4423  27.159  44.245   2.129
32109W        W 4424   2.911  16.342   4.262
32110W        W 4425  44.964  39.564  13.473
32111W        W 4426  16.172  13.902   4.785
32112W        W 4427  40.333  11.624  12.459
32113W        W 4428   5.119   6.381   1.103
32114W        W 4429   0.491  23.723   4.801
32115W        W 4430  31.312  38.515  14.659
32116W        W 4431  35.863   3.930   0.814
32117W        W 4432  21.973  14.188   4.633
32118W        W 4433   8.828   2.412   2.287
32119W        W 4434  15.774  43.313  12.335
32120W        W 4435  33.409  38.348   2.332
32121W        W 4436  30.156  25.712   3.672
32122W        W 4437  31.196   0.897   1.720
32123W        W 4438   8.699  17.475   2.774
32124W        W 4439  12.825   0.489   0.863
32125W        W 4440  39.294  19.705   3.180
32126W        W 4441  10.491  15.165  14.998
32127W        W 4442  30.551  26.136   1.508
32128W        W 4443   5.914  37.916  11.328
32129W        W 4444  35.805   7.921   4.507
32130W        W 4445  31.642  39.834  10.653
32131W        W 4446  39.600   4.293  14.114
32132W        W 4447   8.200  21.676  14.071
32133W        W 4448  44.600  20.730   4.894
32134W        W 4449   1.071  18.112  11.523
32135W        W 4450  10.828  43.054  12.209
32136W        W 4451   1.424  39.094   0.792
32137W        W 4452   2.578  12.510   0.776
32138W        W 4453  28.647  18.993   2.125
32139W        W 4454  12.162  24.260  10.734
32140W        W 4455  36.825  17.290  14.180
32141W        W 4456  37.408  39.400  11.621
32142W        W 4457  21.725  11.866   3.528
32143W        W 4458  44.360   7.846  12.196
32144W        W 4459  40.928  31.178  11.366
32145W        W 4460  36.625  44.470  12.029
32146W        W 4461  21.008  13.709   1.711
32147W        W 4462  11.692  10.124   4.231
32148W        W 4463  23.698   8.433   4.788
32149W        W 4464  30.141   8.085  10.671
32150W        W 4465  31.034  17.082  11.067
32151W        W 4466   7.421  35.943   3.842
32152W        W 4467  31.460  18.578  12.866
32153W        W 4468  35.310  29.225   2.769
32154W        W 4469  21.262  38.544   2.465
32155W        W 4470  17.614  13.909   4.540
32156W        W 4471  42.735  22.530  13.851
32157W        W 4472  21.003  21.089  14.940
32158W        W 4473  11.373   9.901   2.807
32159W        W 4474  35.422  40.585   1.837
32160W        W 4475   1.329  39.849   2.233
32161W        W 4476  10.690  38.234   1.727
32162W        W 4477  42.383  12.243   3.767
32163W        W 4478   3.747  11.599   4.958
32164W        W 4479  22.980  29.289   4.062
32165W        W 4480  30.541  20.546  10.728
32166W        W 4481  36.577   7.067   1.863
32167W        W 4482  40.021  28.583   2.449
32168W        W 4483  25.754  13.165  14.464
32169W        W 4484   6.680   3.119  14.448
32170W        W 4485  39.541  32.346  12.119
32171W        W 4486   7.263  39.843   2.121
32172W        W 4487  42.375   8.829   1.269
32173W        W 4488  25.479  18.108   3.118
32174W        W 4489  18.731   2.021   4.175
32175W        W 4490  39.756  12.655  13.787
32176W        W 4491  22.220  22.722   0.563
32177W        W 4492  41.872  35.080  13.837
32178W        W 4493  35.168   6.614  12.623
32179W        W 4494  22.553  14.285  11.180
32180W        W 4495  38.276   9.118   0.368
32181W        W 4496  19.325  30.047  13.082
32182W        W 4497  12.363  12.880   2.984
32183W        W 4498  22.080  40.975   4.679
32184W        W 4499  26.512  27.228  11.119
32185W        W 4500  23.123  30.374   3.132
32186W        W 4501  10.673   3.705   1.680
32187W        W 4502   0.040  12.336   9.817
32188W        W 4503  17.218  15.135  11.051
32189W        W 4504  21.530   0.842  12.116
32190W        W 4505   2.821  22.876   3.832
32191W        W 4506   3.757  17.841  14.382
32192W        W 4507  17.129  44.849   4.867
32193W        W 4508  26.106  26.932  12.695
32194W        W 4509  43.563  42.557  13.350
32195W        W 4510  14.452   0.719   5.091
32196W        W 4511  10.393  27.165  12.433
32197W        W 4512   1.978  25.679   0.765
32198W        W 4513  26.616   3.354   4.642
32199W        W 4514  44.540  20.980   4.041
32200W        W 4515  39.096  29.447   0.071
32201W        W 4516   5.387  30.991   4.598
32202W        W 4517   8.665  40.241  10.778
32203W        W 4518   3.773  19.558  12.495
32204W        W 4519  33.197   1.664   5.065
32205W        W 4520  38.901   3.683  11.768
32206W        W 4521  32.018   9.768   0.908
32207W        W 4522   0.442  34.019   3.651
32208W        W 4523  29.885  33.334   1.553
32209W        W 4524  38.847  27.950   3.555
32210W        W 4525   8.742  21.470  14.890
32211W        W 4526  34.655   8.372   2.813
32212W        W 4527   3.999  27.110   0.850
32213W        W 4528  13.341  35.045  14.533
32214W        W 4529  17.327  34.457  14.465
32215W        W 4530  41.048  31.115  11.885
32216W        W 4531   0.711  34.679  14.861
32217W        W 4532  33.488  43.961   3.372
32218W        W 4533  19.992  12.742  12.485
32219W        W 4534   0.757   3.134  14.951
32220W        W 4535  27.253   0.300  12.094
32221W        W 4536  11.542   6.287  11.518
32222W        W 4537  40.702   8.505   1.737
32223W        W 4538   9.507  21.021   1.458
32224W        W 4539   5.252  13.610  13.417
32225W        W 4540  24.644   8.447   0.679
32226W        W 4541  42.176  19.733  10.697
32227W        W 4542  28.906  16.719  14.815
32228W        W 4543  35.474   2.579  14.469
32229W        W 4544  11.153  18.771   0.272
32230W        W 4545  24.071  14.053   0.282
32231W        W 4546  25.902  44.049   0.985
32232W        W 4547  43.574  34.723   1.161
32233W        W 4548   5.153   9.289  14.791
32234W        W 4549   2.253   9.762  12.862
32235W        W 4550  10.707  26.004  13.574
32236W        W 4551  12.637  17.255  10.677
32237W        W 4552  19.868  30.139   1.998
32238W        W 4553  38.654  11.847   3.741
32239W        W 4554  19.284   5.745   4.874
32240W        W 4555  39.608  19.456  11.634
32241W        W 4556  41.251   1.490   4.076
32242W        W 4557   4.357   5.884   1.017
32243W        W 4558  40.224   0.178   3.862
32244W        W 4559  36.685  29.301  14.371
32245W        W 4560  42.789  44.573  10.807
32246W        W 4561   3.260  29.914   0.243
32247W        W 4562  15.271   8.691   0.296
32248W        W 4563  14.365  10.097   3.696
32249W        W 4564  44.376  27.797   4.626
32250W        W 4565  36.608  29.694   4.617
32251W        W 4566   6.685   6.744   0.833
32252W        W 4567  15.857  30.087   1.614
32253W        W 4568  27.707   7.722  13.571
32254W        W 4569  15.508   7.705  12.850
32255W        W 4570  23.263  32.329  12.914
32256W        W 4571   5.788  42.928   1.691
32257W        W 4572  31.963  22.575   4.003
32258W        W 4573  10.095  20.534   0.835
32259W        W 4574   5.757  15.052   4.179
32260W        W 4575  20.275  24.298   9.955
32261W        W 4576  28.985   6.205  10.721
32262W        W 4577  17.603  15.739  10.476
32263W        W 4578  26.813  34.029   2.774
32264W        W 4579  22.480  18.602  12.340
32265W        W 4580  43.959  14.211  14.895
32266W        W 4581  29.228  22.023  14.989
32267W        W 4582  37.524   9.571  11.643
32268W        W 4583  26.691  34.032  10.689
32269W        W 4584   7.438  25.094  14.867
32270W        W 4585   0.933  20.747  13.333
32271W        W 4586  43.847   2.653  12.843
32272W        W 4587  32.503   6.140  11.934
32273W        W 4588  42.770  23.071   4.951
32274W        W 4589  19.733   8.092  14.447
32275W        W 4590  11.750  28.131  14.222
32276W        W 4591   9.703  29.930  13.342
32277W        W 4592  44.022  12.604   1.138
32278W        W 4593  44.801  25.576  12.849
32279W        W 4594   5.878   4.291  12.091
32280W        W 4595   7.395  29.984   2.758
32281W        W 4596   7.754  39.705   2.838
32282W        W 4597  35.791  17.662  12.921
32283W        W 4598  39.111  30.951  13.027
32284W        W 4599   4.466  26.486   4.616
32285W        W 4600  15.544  20.778   3.255
32286W        W 4601  22.461   7.654  11.514
32287W        W 4602  28.455   0.431   2.237
32288W        W 4603  35.843  23.251  11.597
32289W        W 4604  40.321   8.500  11.196
32290W        W 4605  13.307   3.369  11.620
32291W        W 4606  36.487  11.835  12.460
32292W        W 4607  44.686  24.328  13.543
32293W        W 4608  23.197   4.925   0.928
32294W        W 4609  42.323  25.786   2.665
32295W        W 4610   3.468  43.433  13.603
32296W        W 4611  21.757  24.619  14.074
32297W        W 4612   6.243  36.583  14.895
32298W        W 4613  34.845  18.747   2.297
32299W        W 4614  41.440  25.499   1.167
32300W        W 4615  32.324  38.019   4.145
32301W        W 4616  27.270  16.114  12.116
32302W        W 4617  18.233  38.786  14.922
32303W        W 4618  40.637  16.563  11.639
32304W        W 4619   4.022   0.338   1.731
32305W        W 4620  43.880  19.283  13.568
32306W        W 4621  18.219  23.515   2.589
32307W        W 4622  36.806   1.859  12.024
32308W        W 4623  12.566  14.795   2.956
32309W        W 4624  20.100  44.779   0.756
32310W        W 4625   4.661  17.483  11.421
32311W        W 4626   5.320  40.018   3.366
32312W        W 4627   1.088  41.657   3.710
32313W        W 4628  41.899  24.731  12.791
32314W        W 4629  38.395   7.663   1.331
32315W        W 4630  22.584  43.378  11.564
32316W        W 4631  11.015  24.766   2.896
32317W        W 4632  22.882  38.401   0.889
32318W        W 4633   6.181  20.631   3.630
32319W        W 4634  29.905  15.773  12.569
32320W        W 4635  40.943  34.204   3.672
32321W        W 4636  33.086   5.269  10.519
32322W        W 4637  19.567  28.342   3.064
32323W        W 4638   1.326  40.553  13.453
32324W        W 4639   2.394   1.667   3.312
32325W        W 4640   1.802  40.929  12.851
32326W        W 4641  21.679  15.664   3.318
32327W        W 4642  41.394   4.308   4.577
32328W        W 4643  25.791  42.598   1.271
32329W        W 4644  31.399  28.464   0.673
32330W        W 4645   7.967  34.440  12.088
32331W        W 4646  29.461  11.144   1.982
32332W        W 4647   8.619  41.475  12.881
32333W        W 4648  44.729  40.521  10.743
32334W        W 4649  11.686  43.244   3.554
32335W        W 4650   3.859   3.127  12.064
32336W        W 4651  35.052   6.682  13.571
32337W        W 4652  40.006  15.634   2.772
32338W        W 4653  28.162  41.772   9.848
32339W        W 4654  30.999  16.827   3.343
32340W        W 4655   4.174  28.682  10.581
32341W        W 4656  20.547  35.238   9.897
32342W        W 4657  43.895  30.347   0.257
32343W        W 4658  30.666  31.278  13.607
32344W        W 4659  27.913  18.739   0.764
32345W        W 4660  36.444  41.401   3.563
32346W        W 4661   6.152  34.909  14.919
32347W        W 4662  28.106   4.756   3.464
32348W        W 4663  38.882   1.697  11.193
32349W        W 4664  31.611   2.519   0.566
32350W        W 4665  18.029  28.401   5.584
32351W        W 4666  16.137   3.736  13.750
32352W        W 4667  34.595  27.685   0.029
32353W        W 4668  23.549   5.473   3.704
32354W        W 4669  38.405   0.002  11.082
32355W        W 4670  24.541  40.046  11.989
32356W        W 4671  28.664  19.442  10.516
32357W        W 4672  17.619  31.146   3.806
32358W        W 4673  33.328  43.490   2.224
32359W        W 4674  36.035  30.983  10.791
32360W        W 4675  26.127   9.394  13.944
32361W        W 4676  33.901  37.356   3.617
32362W        W 4677  22.114   6.614  12.852
32363W        W 4678  27.598  15.176   1.782
32364W        W 4679  19.412  23.806   0.233
32365W        W 4680  37.156  25.988   2.384
32366W        W 4681  38.659  15.441   5.093
32367W        W 4682  41.233  39.207  11.599
32368W        W 4683  36.053  26.665   2.804
32369W        W 4684   9.382  10.739  14.984
32370W        W 4685  12.769   0.779   3.780
32371W        W 4686   6.393  15.864  12.050
32372W        W 4687  27.523   3.154   3.137
32373W        W 4688  20.666  43.849   4.684
32374W        W 4689   1.306   7.103  14.483
32375W        W 4690  13.441   6.279   0.478
32376W        W 4691   1.419   8.594  12.543
32377W        W 4692  32.447  38.403   0.901
32378W        W 4693  31.300  19.575  13.025
32379W        W 4694  22.487  21.179   3.806
32380W        W 4695  26.266  28.289  10.533
32381W        W 4696  34.467  29.002  14.853
32382W        W 4697   8.164  37.349  12.093
32383W        W 4698  23.647  17.047  14.898
32384W        W 4699  29.540  16.974   4.134
32385W        W 4700  43.924  30.434  10.778
32386W        W 4701  14.114  13.699  14.005
32387W        W 4702  28.066  16.095   0.383
32388W        W 4703  44.336  22.978  12.963
32389W        W 4704   4.191  37.505  10.692
32390W        W 4705  19.468  42.288  13.080
32391W        W 4706  28.856  43.205  12.530
32392W        W 4707  28.345  41.953   1.464
32393W        W 4708   1.223  20.587   1.277
32394W        W 4709  41.815  26.361   4.136
32395W        W 4710  19.293   9.679  12.042
32396W        W 4711  32.025  34.119   3.402
32397W        W 4712  31.429  31.931  13.761
32398W        W 4713   6.764  39.193   1.352
32399W        W 4714  31.449   7.380  13.935
32400W        W 4715  26.954  17.981  12.672
32401W        W 4716   2.853  21.029  11.059
32402W        W 4717  24.969  40.427   0.845
32403W        W 4718   1.408  39.235  11.308
32404W        W 4719  40.524  29.186  11.553
32405W        W 4720  26.023  28.173  12.072
32406W        W 4721  14.779  23.175   4.165
32407W        W 4722   1.906  22.608  12.033
32408W        W 4723   1.754  14.644  13.418
32409W        W 4724  43.442   6.649   0.940
32410W        W 4725  13.609   6.849  12.287
32411W        W 4726  31.136  20.538   1.922
32412W        W 4727  28.439  26.193   4.509
32413W        W 4728  25.716  29.811   2.509
32414W        W 4729  18.060  20.653  11.646
32415W        W 4730  30.704  42.953  12.998
32416W        W 4731   7.201  28.404   1.774
32417W        W 4732  19.893  18.352   3.111
32418W        W 4733  22.092  17.420  11.037
32419W        W 4734  38.632   3.555   3.671
32420W        W 4735  21.415  44.694   0.722
32421W        W 4736  21.521   9.885  11.465
32422W        W 4737  39.991   1.817   2.275
32423W        W 4738  20.710  20.996  13.953
32424W        W 4739  22.811  14.232   4.202
32425W        W 4740   8.674  26.741  10.766
32426W        W 4741   4.274   2.996  13.461
32427W        W 4742  32.714  40.895  13.410
32428W        W 4743  35.924  19.727   4.687
32429W        W 4744  36.536  25.444   4.166
32430W        W 4745   6.279  28.491   2.645
32431W        W 4746   9.135  16.080   2.726
32432W        W 4747  39.789  14.336  12.351
32433W        W 4748   8.753  24.016   0.359
32434W        W 4749  21.476  13.975  13.629
32435W        W 4750  18.048  26.508   0.770
32436W        W 4751  42.870  12.608   1.835
32437W        W 4752   4.175  42.861  11.554
32438W        W 4753  39.308  23.524  10.201
32439W        W 4754  23.226  28.509   1.338
32440W        W 4755  39.387   6.046   1.778
32441W        W 4756  11.706   3.687   5.030
32442W        W 4757   6.885  14.692   0.145
32443W        W 4758   9.854  13.601   1.478
32444W        W 4759  23.954  26.876   2.235
32445W        W 4760  11.410   2.481   4.500
32446W        W 4761  40.821  35.018   2.212
32447W        W 4762  42.893   1.264  13.506
32448W        W 4763   3.478  32.856   2.319
32449W        W 4764  33.896  16.201  13.086
32450W        W 4765   9.337  43.252  12.445
32451W        W 4766  41.600  43.124  11.708
32452W        W 4767  32.073  16.989  12.405
32453W        W 4768  27.023  14.286   1.893
32454W        W 4769  10.059  14.310   0.425
32455W        W 4770  24.309   5.868  13.511
32456W        W 4771  13.349  43.437   2.341
32457W        W 4772   1.256  16.741   4.581
32458W        W 4773  36.810  30.455  13.831
32459W        W 4774  10.831  11.144  13.342
32460W        W 4775  10.506   2.208   2.803
32461W        W 4776  44.407   9.546  12.606
32462W        W 4777  24.217  11.788   1.435
32463W        W 4778  33.815  17.494  14.688
32464W        W 4779  23.786  16.408   4.176
32465W        W 4780  28.078  10.261   5.104
32466W        W 4781  27.615   6.062   1.524
32467W        W 4782  42.353  40.171   4.078
32468W        W 4783  11.391  40.925  13.252
32469W        W 4784   1.844  41.013   1.287
32470W        W 4785   6.701  38.900  14.928
32471W        W 4786  22.024   7.915  11.394
32472W        W 4787  21.167   7.710  13.340
32473W        W 4788  21.476  33.431  14.021
32474W        W 4789  41.820  28.319  11.287
32475W        W 4790  41.447  15.523  12.160
32476W        W 4791  26.352  44.027  11.391
32477W        W 4792   4.187   3.981   0.404
32478W        W 4793   4.461  42.462   0.351
32479W        W 4794   6.117  30.924  10.871
32480W        W 4795  17.648   6.715  13.857
32481W        W 4796  24.110   2.313  12.549
32482W        W 4797   6.889  10.152  13.112
32483W        W 4798  32.884  38.306  12.828
32484W        W 4799  15.253   8.732   4.707
32485W        W 4800   4.707  37.423   2.142
32486W        W 4801  14.495   1.423  13.063
32487W        W 4802  15.647   7.639   1.261
32488W        W 4803  31.288  35.092   2.535
32489W        W 4804  20.034  33.345  14.759
32490W        W 4805  11.863  44.203  14.473
32491W        W 4806  29.105   4.955   2.689
32492W        W 4807  20.769  28.370  14.030
32493W        W 4808  42.291  35.982   1.330
32494W        W 4809  44.342  37.823  10.624
32495W        W 4810  44.024  18.513  14.841
32496W        W 4811  26.932  10.288  10.513
32497W        W 4812   3.358  42.521  11.610
32498W        W 4813  31.912  41.742  11.731
32499W        W 4814  32.820  14.518  11.172
32500W        W 4815  22.015  17.995  11.606
32501W        W 4816  21.059   2.143  14.143
32502W        W 4817  23.653  37.331  14.102
32503W        W 4818  12.114  27.750   2.658
32504W        W 4819   7.126   6.071  13.448
32505W        W 4820  37.374  13.337   2.509
32506W        W 4821  13.063  21.440  11.142
32507W        W 4822  18.730  28.475  13.489
32508W        W 4823  29.120  32.332   2.225
32509W        W 4824  12.773  31.370  13.576
32510W        W 4825  18.036  29.649  13.161
32511W        W 4826  15.630  31.367  14.859
32512W        W 4827  17.561  26.804  10.457
32513W        W 4828  30.636  26.511  14.437
32514W        W 4829   1.469  32.370  10.818
32515W        W 4830  15.003  32.872  11.563
32516W        W 4831  33.636   5.787   2.854
32517W        W 4832  38.091   1.527   0.859
32518W        W 4833   2.273  28.726   0.453
32519W        W 4834  28.542  36.489  12.569
32520W        W 4835  31.684  44.209  11.183
32521W        W 4836   1.467   9.217   4.556
32522W        W 4837  41.875  18.885   2.688
32523W        W 4838  30.568   0.606   4.958
32524W        W 4839  20.260  16.667   2.628
32525W        W 4840  27.828  13.518   0.291
32526W        W 4841  16.186  43.789   0.197
32527W        W 4842   1.351  19.166  14.830
32528W        W 4843  16.004   6.851  13.053
32529W        W 4844  32.550  27.588  12.515
32530W        W 4845   7.784   6.603  13.802
32531W        W 4846  25.536  23.264  13.897
32532W        W 4847  15.475  34.423  14.746
32533W        W 4848  20.440  17.579   0.358
32534W        W 4849  15.570   6.359  13.256
32535W        W 4850  30.388  44.220   2.722
32536W        W 4851  22.664   0.752   2.902
32537W        W 4852  43.993   1.621   1.579
32538W        W 4853  12.579  41.886   1.611
32539W        W 4854  21.579  14.845  13.847
32540W        W 4855   8.894  38.077  13.965
32541W        W 4856   7.805   3.747   3.142
32542W        W 4857  16.466  15.274  13.584
32543W        W 4858  43.966  32.219  13.387
32544W        W 4859  13.679   3.948  11.207
32545W        W 4860   5.720  23.497   2.720
32546W        W 4861  16.204  31.474   2.143
32547W        W 4862   2.523  20.717   2.224
32548W        W 4863  21.736  17.145   0.248
32549W        W 4864  39.918  17.988   2.446
32550W        W 4865  19.164   0.978   3.821
32551W        W 4866   0.451  14.723  10.729
32552W        W 4867  38.200  31.072  14.834
32553W        W 4868  43.514  31.236   4.185
32554W        W 4869  21.310   4.118  10.415
32555W        W 4870   0.842  23.553  10.482
32556W        W 4871  17.028   4.210   0.307
32557W        W 4872  23.905  10.003  12.982
32558W        W 4873  10.546  33.943  11.520
32559W        W 4874  41.432  43.801   4.706
32560W        W 4875  38.516   6.485   0.748
32561W        W 4876   4.926  43.325  13.113
32562W        W 4877  40.604   8.438  12.589
32563W        W 4878  20.158   2.843   0.972
32564W        W 4879  38.779   5.746   5.093
32565W        W 4880   9.748   0.451  13.109
32566W        W 4881  31.681  20.002   1.467
32567W        W 4882   9.741  39.983   0.623
32568W        W 4883  41.546   1.961  10.672
32569W        W 4884  14.976  33.868  11.670
32570W        W 4885  42.465  37.358   1.155
32571W        W 4886   2.963  11.870   3.835
32572W        W 4887  39.991  18.505   2.381
32573W        W 4888   3.332   0.401   2.634
32574W        W 4889  33.935  24.170   2.592
32575W        W 4890  41.418  44.790  14.898
32576W        W 4891   8.778  27.396   4.653
32577W        W 4892  32.861  23.278  11.124
32578W        W 4893  19.281  21.146  11.911
32579W        W 4894  31.971   7.225   1.773
32580W        W 4895   9.563  26.520  12.735
32581W        W 4896  39.800  32.984   4.618
32582W        W 4897  38.564  11.832  13.984
32583W        W 4898  31.044   1.916   0.841
32584W        W 4899  31.130   5.639  14.968
32585W        W 4900  37.091  33.606  14.945
32586W        W 4901  12.567  33.062  12.857
32587W        W 4902  31.578   3.970  13.843
32588W        W 4903  44.449  30.789  13.828
32589W        W 4904   4.225  25.003  12.054
32590W        W 4905   2.783  12.882   3.660
32591W        W 4906   6.406  39.793  12.123
32592W        W 4907  19.097   3.881   2.758
32593W        W 4908  44.776  14.305  11.521
32594W        W 4909   0.291  29.907   1.645
32595W        W 4910  44.285   0.964   3.708
32596W        W 4911  12.468   6.490   4.726
32597W        W 4912   0.754   1.352  11.630
32598W        W 4913  28.112  11.917  11.422
32599W        W 4914  13.489  21.818   3.723
32600W        W 4915  35.638  42.583  11.224
32601W        W 4916  44.689   4.758  13.067
32602W        W 4917  41.806   1.399  14.947
32603W        W 4918   7.341  37.017   0.010
32604W        W 4919  17.724  31.452   4.838
32605W        W 4920   5.441   8.805   0.270
32606W        W 4921  26.275  19.067  11.298
32607W        W 4922  20.125  39.602  13.947
32608W        W 4923  23.097  42.230   2.724
32609W        W 4924   1.785  27.988   1.290
32610W        W 4925  37.652  44.889   2.747
32611W        W 4926  12.139  24.508  13.315
32612W        W 4927  43.681  36.337   3.325
32613W        W 4928  18.257  19.281   4.050
32614W        W 4929  44.234   0.844   0.732
32615W        W 4930  16.095   7.196   4.059
32616W        W 4931  39.050  36.288   1.259
32617W        W 4932  29.852  23.523  14.291
32618W        W 4933   3.730  16.238  10.636
32619W        W 4934  23.741   4.492   3.718
32620W        W 4935  34.421  42.180   4.232
32621W        W 4936  21.848  19.495  13.358
32622W        W 4937  32.020   9.290   4.320
32623W        W 4938   5.230  13.238   2.119
32624W        W 4939  44.024   8.370  11.506
32625W        W 4940   0.414   7.896   0.447
32626W        W 4941   7.693   0.190  14.496
32627W        W 4942  13.664  19.789   1.283
32628W        W 4943  44.224  36.482   3.297
32629W        W 4944  40.742  17.693   2.498
32630W        W 4945  16.641   0.045  14.559
32631W        W 4946  11.024  28.438  14.962
32632W        W 4947  18.081  38.104  10.291
32633W        W 4948  38.034   8.619   2.794
32634W        W 4949  17.548  14.293   1.777
32635W        W 4950   4.651  41.789  11.156
32636W        W 4951  15.068  19.673  11.665
32637W        W 4952  30.858   6.649  10.695
32638W        W 4953  27.681  42.078   1.795
32639W        W 4954  23.460  22.322   0.414
32640W        W 4955  17.537   8.329   0.262
32641W        W 4956  41.434  42.131   2.915
32642W        W 4957   4.797  29.063   2.813
32643W        W 4958  12.837  20.551  13.979
32644W        W 4959  40.241  25.676   3.704
32645W        W 4960  40.286   3.286  12.774
32646W        W 4961  20.841  17.314   0.677
32647W        W 4962   1.981  40.853   1.768
32648W        W 4963  33.118  10.191   3.122
32649W        W 4964  40.575  23.548  13.012
32650W        W 4965  11.127  17.773  13.435
32651W        W 4966  42.332  31.075   0.501
32652W        W 4967  14.731  37.108  11.619
32653W        W 4968  27.640  29.119   0.397
32654W        W 4969   7.206  34.044   4.044
32655W        W 4970   8.881  39.465  11.186
32656W        W 4971   5.887  12.623  10.855
32657W        W 4972  25.646  38.677  14.368
32658W        W 4973  17.272  30.828  10.825
32659W        W 4974  35.995  10.457   2.813
32660W        W 4975  18.071  39.290  14.932
32661W        W 4976  12.900  36.896   1.874
32662W        W 4977  15.109   5.781   3.135
32663W        W 4978  42.443  26.750  11.512
32664W        W 4979  38.062   6.888  13.677
32665W        W 4980  42.350  10.936   4.593
32666W        W 4981  22.956  44.010   0.284
32667W        W 4982  19.037  44.724  10.322
32668W        W 4983   7.194   4.247  11.547
32669W        W 4984   0.248  25.078   1.788
32670W        W 4985  28.944  35.581  11.432
32671W        W 4986  34.238  12.691  12.479
32672W        W 4987   6.606  31.320  13.359
32673W        W 4988  27.438   3.681   0.859
32674W        W 4989  15.846  22.709   0.309
32675W        W 4990  26.728  41.888  11.659
32676W        W 4991  42.965   1.442  10.328
32677W        W 4992  10.762  13.598  12.087
32678W        W 4993  37.380  25.528  12.488
32679W        W 4994  18.243   7.736   0.048
32680W        W 4995  10.191  12.829  11.186
32681W        W 4996  17.714  38.049   1.366
32682W        W 4997  32.353   3.175   3.783
32683W        W 4998  37.024  32.979   2.676
32684W        W 4999   3.521  44.543  13.854
32685W        W 5000  20.868  18.623  12.151
32686W        W 5001  44.715   4.905   4.087
32687W        W 5002  21.768  38.511  14.570
32688W        W 5003  30.343  25.240   3.658
32689W        W 5004  39.331   6.196   3.055
32690W        W 5005  18.167  14.116  14.722
32691W        W 5006  19.171   8.840   4.635
32692W        W 5007   1.377   6.187  12.470
32693W        W 5008  37.988   9.216   3.468
32694W        W 5009   6.638  34.712   0.023
32695W        W 5010  28.671  32.226   0.535
32696W        W 5011  24.655  14.022   2.063
32697W        W 5012  29.954  16.059   1.786
32698W        W 5013   9.781  11.212  11.257
32699W        W 5014  30.885  16.817   3.881
32700W        W 5015  21.047  26.464   1.392
32701W        W 5016  25.714  24.223  12.971
32702W        W 5017   0.810  10.086  13.734
32703W        W 5018   2.547  40.174   2.725
32704W        W 5019  25.528  36.968  14.042
32705W        W 5020  10.811  37.875  14.023
32706W        W 5021  33.867  25.750   4.603
32707W        W 5022  44.496  21.006   0.298
32708W        W 5023  21.659  22.435  12.605
32709W        W 5024   1.398   9.091   2.006
32710W        W 5025   5.126  23.517   0.370
32711W        W 5026  43.964  39.536  12.851
32712W        W 5027  30.528  25.885  11.086
32713W        W 5028  32.550  30.707  11.076
32714W        W 5029  24.840  36.962  11.125
32715W        W 5030  40.550  10.651   3.538
32716W        W 5031   9.677  28.916   5.170
32717W        W 5032  37.973  11.391   3.285
32718W        W 5033  36.294  23.479  11.601
32719W        W 5034  20.151   8.427  13.593
32720W        W 5035  30.624  39.098   1.295
32721W        W 5036   5.972  43.756   4.106
32722W        W 5037  19.710   4.392   0.232
32723W        W 5038  16.762  39.103  13.393
32724W        W 5039   0.003   6.263  11.193
32725W        W 5040   0.007  16.477   2.337
32726W        W 5041  36.669  20.258   1.449
32727W        W 5042  20.682  25.014   4.500
32728W        W 5043  30.949  31.068   2.435
32729W        W 5044   2.220   0.435   0.557
32730W        W 5045   9.789   0.202   1.363
32731W        W 5046  38.871  10.847  11.127
32732W        W 5047   9.716  31.202  14.345
32733W        W 5048  37.882  39.550   1.901
32734W        W 5049  40.584  28.015   1.853
32735W        W 5050  34.018   2.047   1.878
32736W        W 5051  36.949   0.920   3.397
32737W        W 5052  33.469  25.639   4.198
32738W        W 5053  13.199   5.926  13.504
32739W        W 5054  22.910  40.522   4.776
32740W        W 5055  38.880  12.357  12.895
32741W        W 5056  44.817   0.371   4.110
32742W        W 5057  42.270  44.389   4.643
32743W        W 5058  43.449  16.389   1.182
32744W        W 5059  42.497  15.188  11.750
32745W        W 5060   9.966   5.838  11.610
32746W        W 5061  44.412  39.561  13.987
32747W        W 5062  44.910  39.461  13.989
32748W        W 5063  10.622  35.843   3.409
32749W        W 5064  36.566  18.291  10.649
32750W        W 5065   3.261  31.693   4.896
32751W        W 5066  14.787  34.905   4.112
32752W        W 5067  13.719  10.283  10.721
32753W        W 5068  35.104  28.017  13.785
32754W        W 5069  19.593  26.066   0.511
32755W        W 5070  26.180   0.994   1.456
32756W        W 5071  26.665  18.965  12.579
32757W        W 5072  18.569  32.114  10.684
32758W        W 5073  16.246   3.427  14.809
32759W        W 5074  41.472  12.760  10.777
32760W        W 5075  44.680  34.532   3.249
32761W        W 5076  26.113  31.260   1.284
32762W        W 5077  26.552  12.678   0.947
32763W        W 5078  32.631  13.215  10.619
32764W        W 5079  25.054  42.391   4.266
32765W        W 5080   4.332  38.200   3.104
32766W        W 5081   4.237  14.560   4.399
32767W        W 5082  42.029  31.042   1.879
32768W        W 5083  21.291  39.100  13.877
32769W        W 5084   1.859   1.674  13.382
32770W        W 5085  30.147   9.645   2.124
32771W        W 5086  40.528  26.022   5.035
32772W        W 5087  26.449  34.864  10.504
32773W        W 5088  19.345  42.521   2.222
32774W        W 5089   3.371   0.136  10.953
32775W        W 5090  20.075  29.957  11.208
32776W        W 5091  33.566  28.216   4.249
32777W        W 5092  40.478  39.480  12.920
32778W        W 5093   2.176  31.015  13.495
32779W        W 5094  12.770  43.351  11.528
32780W        W 5095  28.690  15.105   4.079
32781W        W 5096  11.096  18.050   3.694
32782W        W 5097  28.410  44.036   3.753
32783W        W 5098   0.909  40.410  14.918
32784W        W 5099   9.358  40.322   1.842
32785W        W 5100   8.230  29.568   4.177
32786W        W 5101  40.837  28.732  14.950
32787W        W 5102  23.560  20.987  11.606
32788W        W 5103  38.974  23.189   0.873
32789W        W 5104  15.185  39.035   2.115
32790W        W 5105   1.059   6.897  11.556
32791W        W 5106  23.798  18.124   2.645
32792W        W 5107  33.662  36.189  11.232
32793W        W 5108   2.350  37.700   1.929
32794W        W 5109  15.069  39.898  13.582
32795W        W 5110  29.889  11.552   3.676
32796W        W 5111  23.146   5.518   3.387
32797W        W 5112  17.055  10.205  11.652
32798W        W 5113  22.855  27.485  11.337
32799W        W 5114  27.760  35.945  12.584
32800W        W 5115  25.029  44.448  13.490
32801W        W 5116  17.462  35.997   0.306
32802W        W 5117  29.348  19.610   2.337
32803W        W 5118   8.887   5.327  13.359
32804W        W 5119  28.626  21.073   3.811
32805W        W 5120   9.230  24.674   3.595
32806W        W 5121  15.649  21.372  13.999
32807W        W 5122  33.025  37.143  14.330
32808W        W 5123  41.439  20.096   3.742
32809W        W 5124  30.344  17.384  12.101
32810W        W 5125   2.188  41.189  12.649
32811W        W 5126  24.586   5.619  12.354
32812W        W 5127   3.196  40.729  13.362
32813W        W 5128   9.218  11.210  12.900
32814W        W 5129  41.628  17.328   0.837
32815W        W 5130   3.904  11.702   1.273
32816W        W 5131  27.511  13.791  14.252
32817W        W 5132  37.136  12.306   4.797
32818W        W 5133  21.671  32.567  12.637
32819W        W 5134  16.563   4.223  12.577
32820W        W 5135  13.351  27.716   2.253
32821W        W 5136  26.517  22.060   2.969
32822W        W 5137   5.105   6.744  11.973
32823W        W 5138  13.469  18.089   4.275
32824W        W 5139  23.183  19.773   2.881
32825W        W 5140  24.504  29.002   4.110
32826W        W 5141   2.097  12.657   4.087
32827W        W 5142  28.687   7.209  11.999
32828W        W 5143   3.335   4.643   3.746
32829W        W 5144  26.012  23.164   3.659
32830W        W 5145  32.642  29.649  11.142
32831W        W 5146   7.000  11.544  14.815
32832W        W 5147   2.551  32.161  14.479
32833W        W 5148   7.358  11.804  10.574
32834W        W 5149   8.927  25.972   4.683
32835W        W 5150  34.776  36.024   4.594
32836W        W 5151  43.511  21.194  10.767
32837W        W 5152  12.816  37.941  11.112
32838W        W 5153  36.333  40.877   4.702
32839W        W 5154  36.312  13.376   3.782
32840W        W 5155  19.265  25.514   1.212
32841W        W 5156  28.267   3.422   0.384
32842W        W 5157  30.810  21.533  12.954
32843W        W 5158  40.490  37.828  11.583
32844W        W 5159  16.842   4.253  11.691
32845W        W 5160  43.152  11.743   3.637
32846W        W 5161  39.081   5.918   0.010
32847W        W 5162  23.461  30.583   0.639
32848W        W 5163  12.148  44.092   3.336
32849W        W 5164  39.305  41.349  11.681
32850W        W 5165   3.016  42.032  13.372
32851W        W 5166   0.259  29.665  11.000
32852W        W 5167  43.772   5.477   0.242
32853W        W 5168  25.992   6.260   9.719
32854W        W 5169  32.383   4.210  11.982
32855W        W 5170  20.359  28.022   0.756
32856W        W 5171  19.092   6.278  14.882
32857W        W 5172  29.950  17.153   4.536
32858W        W 5173  15.121  30.198  13.163
32859W        W 5174   8.059   4.026   0.937
32860W        W 5175   3.656  40.143   3.686
32861W        W 5176  28.497  14.023   0.710
32862W        W 5177  32.720  35.707   3.596
32863W        W 5178   4.847  31.484   4.172
32864W        W 5179  27.915   5.296   0.369
32865W        W 5180   7.736  34.543   1.818
32866W        W 5181  35.119  30.897  12.398
32867W        W 5182   5.663   8.330  11.771
32868W        W 5183  43.239  27.939  11.697
32869W        W 5184  43.419   4.651  13.975
32870W        W 5185  41.548  18.005   2.475
32871W        W 5186   9.777   3.548   4.975
32872W        W 5187  39.558  44.369  11.887
32873W        W 5188  20.277  17.645  12.840
32874W        W 5189  23.912  30.155   2.868
32875W        W 5190   5.787   7.837  11.457
32876W        W 5191  39.879  33.508  14.752
32877W        W 5192   9.089  23.619   4.191
32878W        W 5193  29.593  40.296   0.325
32879W        W 5194  40.335  27.782   2.693
32880W        W 5195   9.685  19.084  12.146
32881W        W 5196   7.203  19.101  13.449
32882W        W 5197  19.602  14.754  11.520
32883W        W 5198  16.638   2.531   0.843
32884W        W 5199  44.550  28.033  11.620
32885W        W 5200  36.137  42.080  12.395
32886W        W 5201  11.299  17.208  14.023
32887W        W 5202  19.995   9.818   1.761
32888W        W 5203  19.075   1.693  14.299
32889W        W 5204   5.334  25.661  12.005
32890W        W 5205  42.072  21.263   3.157
32891W        W 5206  10.627   9.507  11.495
32892W        W 5207  23.339   0.395  13.911
32893W        W 5208  23.101  19.502  12.253
32894W        W 5209  35.151  39.400  11.841
32895W        W 5210  22.448  27.062   3.559
32896W        W 5211   6.166   4.271   1.818
32897W        W 5212   0.672   1.823   2.884
32898W        W 5213  11.831   3.166  11.056
32899W        W 5214   3.819  24.249  11.905
32900W        W 5215  34.062   1.572   0.297
32901W        W 5216   7.912  38.754   2.608
32902W        W 5217  11.568  32.888   1.295
32903W        W 5218  18.485  12.554  12.581
32904W        W 5219  25.006  23.991  14.911
32905W        W 5220   9.299  30.521   3.151
32906W        W 5221  42.297   8.742   4.298
32907W        W 5222   8.336  31.833  11.050
32908W        W 5223  22.549   7.178  11.177
32909W        W 5224   9.368  44.118  10.763
32910W        W 5225  15.729  24.267   2.453
32911W        W 5226  32.059   0.836   4.615
32912W        W 5227  10.254  12.948  14.555
32913W        W 5228  12.645  24.934   0.915
32914W        W 5229  14.576  13.203  12.343
32915W        W 5230  21.353  30.962   3.304
32916W        W 5231  37.130  42.551  11.895
32917W        W 5232  24.615  22.035   3.178
32918W        W 5233  42.475   6.708   4.639
32919W        W 5234  35.047   7.142  11.974
32920W        W 5235  13.210  24.184  12.006
32921W        W 5236   3.501  12.547  10.623
32922W        W 5237  16.491  15.274  12.358
32923W        W 5238  43.018  14.255  12.881
32924W        W 5239  17.909   0.729  13.534
32925W        W 5240  15.646  17.881   0.294
32926W        W 5241  37.802   2.791  14.589
32927W        W 5242  37.355  22.456   2.159
32928W        W 5243  36.319  17.948  11.919
32929W        W 5244  12.252   2.191   1.462
32930W        W 5245   8.277  31.071   1.930
32931W        W 5246  32.174  21.384   1.178
32932W        W 5247  29.699  28.442  14.983
32933W        W 5248  13.644  12.120   0.235
32934W        W 5249  15.286  13.374  14.004
32935W        W 5250  20.505   3.950   3.053
32936W        W 5251  42.178  26.021  13.385
32937W        W 5252  41.104  10.104   4.204
32938W        W 5253  32.922  23.500   4.572
32939W        W 5254  31.501  15.825   0.420
32940W        W 5255  25.996   9.828   3.185
32941W        W 5256  41.408  28.391  13.598
32942W        W 5257  31.452  32.720  11.334
32943W        W 5258  27.247   0.878  13.686
32944W        W 5259  33.493  23.266   3.247
32945W        W 5260  10.620  14.822  11.955
32946W        W 5261  20.998  28.516  12.815
32947W        W 5262   9.870  17.012   0.905
32948W        W 5263   2.294  13.344   0.723
32949W        W 5264  10.223  18.178  12.398
32950W        W 5265  34.053   0.232   1.980
32951W        W 5266  23.549   0.442  12.323
32952W        W 5267  13.077   9.135  12.943
32953W        W 5268   3.961  29.827  11.700
32954W        W 5269   1.567   6.706  11.569
32955W        W 5270  40.217  11.238   3.779
32956W        W 5271  26.707  38.909   1.947
32957W        W 5272  16.306  24.044  10.537
32958W        W 5273  32.111  42.472   4.082
32959W        W 5274  17.662  21.200   4.058
32960W        W 5275  20.046  10.397  12.577
32961W        W 5276  36.113  11.746   2.337
32962W        W 5277   5.450  41.301   2.449
32963W        W 5278  27.583  10.493   3.315
32964W        W 5279  21.541   3.704  11.664
32965W        W 5280  21.204  25.176  13.109
32966W        W 5281  38.019  14.694   0.318
32967W        W 5282  36.776  17.805  14.309
32968W        W 5283   2.466  23.473   0.990
32969W        W 5284  25.166  10.052   3.364
32970W        W 5285  11.765  16.079  12.157
32971W        W 5286   2.569  27.128  13.076
32972W        W 5287  29.013  10.087   3.043
32973W        W 5288  11.308  20.212   2.746
32974W        W 5289  22.672   6.369  13.966
32975W        W 5290  34.413  31.387   1.356
32976W        W 5291  20.772  27.095  11.147
32977W        W 5292  34.519  14.646   5.089
32978W        W 5293  27.618  14.892  14.306
32979W        W 5294  22.939  12.299   3.626
32980W        W 5295  10.931  36.521   0.480
32981W        W 5296   0.013  23.283   3.197
32982W        W 5297  33.613  14.740  13.159
32983W        W 5298  18.483  28.896   3.771
32984W        W 5299   6.123  16.492  11.170
32985W        W 5300  44.847  13.926   1.862
32986W        W 5301  34.081  24.388   4.586
32987W        W 5302  21.986  18.769  12.262
32988W        W 5303   9.509  26.920  14.910
32989W        W 5304  34.929  21.313  14.921
32990W        W 5305  21.342  15.662  10.351
32991W        W 5306  25.261  31.856  13.451
32992W        W 5307  22.985  23.681   0.578
32993W        W 5308  33.582   6.940   2.808
32994W        W 5309  20.787  40.410  11.388
32995W        W 5310  15.668  22.110   3.481
32996W        W 5311  27.587  38.451  10.604
32997W        W 5312   0.420   2.066   3.282
32998W        W 5313  23.046  21.245   0.847
32999W        W 5314  24.589  13.818  14.489
33000W        W 5315   1.988  14.330   1.737
33001W        W 5316   8.406  18.677   3.242
33002W        W 5317  39.338  14.777  14.442
33003W        W 5318  18.245  26.646   4.470
33004W        W 5319  41.038   4.859   3.330
33005W        W 5320  33.122  15.211  11.968
33006W        W 5321  12.212  17.989   5.076
33007W        W 5322  10.196  42.037   4.996
33008W        W 5323  18.244  39.993   0.218
33009W        W 5324  13.851  18.297   0.188
33010W        W 5325  17.684  35.160  14.771
33011W        W 5326  25.748  14.648   0.348
33012W        W 5327  13.354   1.914   3.820
33013W        W 5328  27.518  39.659  14.931
33014W        W 5329  10.196  25.662   4.677
33015W        W 5330  21.486  29.844  12.107
33016W        W 5331  31.725   8.343   3.609
33017W        W 5332  42.889  22.994  12.936
33018W        W 5333  25.550   4.684   2.308
33019W        W 5334  23.322  38.644  13.434
33020W        W 5335  41.630  29.207   4.577
33021W        W 5336  14.595  17.255  14.001
33022W        W 5337  20.649   4.672   4.942
33023W        W 5338   2.864  10.904   0.044
33024W        W 5339  16.119  36.035   4.537
33025W        W 5340  32.248   1.288   4.776
33026W        W 5341   5.377  14.135   5.054
33027W        W 5342  20.605  37.420  11.682
33028W        W 5343  22.685  34.760  13.492
33029W        W 5344  19.501  31.183  10.854
33030W        W 5345  22.340  33.813  12.069
33031W        W 5346  27.127  43.361   0.706
33032W        W 5347  21.121  14.185  10.738
33033W        W 5348   1.825  35.547  11.243
33034W        W 5349   4.782  22.244  13.563
33035W        W 5350  19.756  44.999  11.566
33036W        W 5351  20.337  19.420  12.415
33037W        W 5352  35.165  36.382  12.969
33038W        W 5353  24.978   8.890  10.730
33039W        W 5354   3.246  18.800  12.057
33040W        W 5355  10.492  36.150  14.647
33041W        W 5356   7.509  34.578  11.301
33042W        W 5357  32.450  38.998  13.951
33043W        W 5358  27.094  10.092   4.542
33044W        W 5359  36.068   7.079  14.315
33045W        W 5360  27.004  29.371  11.066
33046W        W 5361  14.746  13.340   3.730
33047W        W 5362  41.780  25.006  10.340
33048W        W 5363   1.497  17.168  14.539
33049W        W 5364   7.406  16.185  12.031
33050W        W 5365  41.624  44.320   4.551
33051W        W 5366  43.010  32.095  13.745
33052W        W 5367  17.622   1.399   3.091
33053W        W 5368  33.646  20.157  14.195
33054W        W 5369  38.207  20.353   1.366
33055W        W 5370  36.875  36.806  11.548
33056W        W 5371   7.952  12.561  11.466
33057W        W 5372  36.086  33.644   4.540
33058W        W 5373   5.371  10.498  13.355
33059W        W 5374  25.371  29.528   4.046
33060W        W 5375  16.031  21.104  12.832
33061W        W 5376   2.108  17.140  12.049
33062W        W 5377  28.080   2.821   3.918
33063W        W 5378  27.371  23.062  13.830
33064W        W 5379  44.826  41.417   3.237
33065W        W 5380  34.371  23.617  13.979
33066W        W 5381  31.353  12.031  13.307
33067W        W 5382  24.249   2.917   0.739
33068W        W 5383  43.372   8.609   1.146
33069W        W 5384   2.302  35.033   3.235
33070W        W 5385  40.528  13.418   2.317
33071W        W 5386  28.905  27.236  12.546
33072W        W 5387   4.829  35.153  11.544
33073W        W 5388  44.235   1.903  14.715
33074W        W 5389  18.980  28.229   3.296
33075W        W 5390  40.140  37.807   2.692
33076W        W 5391  36.308  41.942   2.842
33077W        W 5392  34.289   9.308  12.033
33078W        W 5393  23.771   3.269  10.819
33079W        W 5394   1.943  14.571   4.754
33080W        W 5395  18.682   5.006  14.013
33081W        W 5396  29.000  25.086   4.183
33082W        W 5397  37.017  12.592   3.260
33083W        W 5398   1.761  15.036  14.990
33084W        W 5399   3.447  37.218  14.707
33085W        W 5400  13.798  43.025   5.055
33086W        W 5401  11.229  31.823  10.833
33087W        W 5402  30.170   7.067  11.863
33088W        W 5403  20.041  12.046   0.748
33089W        W 5404  26.114  42.747  12.598
33090W        W 5405  43.852   5.501  14.324
33091W        W 5406  34.593  17.106  10.814
33092W        W 5407   3.937  28.039   0.965
33093W        W 5408  38.705  37.271  11.592
33094W        W 5409  34.870   2.282   3.467
33095W        W 5410  16.972  12.646  13.596
33096W        W 5411  24.678   9.695  14.507
33097W        W 5412  34.028  27.976   4.647
33098W        W 5413  17.575  11.244   3.651
33099W        W 5414  14.017  17.026   1.727
33100W        W 5415  28.891  33.521  13.771
33101W        W 5416  29.662   8.217   1.682
33102W        W 5417  11.211  26.627  10.893
33103W        W 5418  41.709  42.799  12.109
33104W        W 5419  42.016  12.834   4.118
33105W        W 5420  22.290  44.950   0.967
33106W        W 5421  42.191  40.086  12.479
33107W        W 5422  34.478   0.259   0.787
33108W        W 5423  24.613  23.752  11.519
33109W        W 5424  15.567  34.126  11.134
33110W        W 5425   9.911  23.813   0.736
33111W        W 5426  23.476  24.686   0.387
33112W        W 5427  15.258  26.958  14.108
33113W        W 5428  19.953  11.746   3.610
33114W        W 5429  20.817  20.816  11.012
33115W        W 5430  42.322  25.113  14.986
33116W        W 5431  30.044  33.788   1.331
33117W        W 5432  11.347  24.477   1.304
33118W        W 5433  29.968  10.302  14.930
33119W        W 5434  32.585  40.961   3.348
33120W        W 5435   9.181  41.621   4.492
33121W        W 5436  37.931  38.145  12.636
33122W        W 5437  25.174   0.263  12.099
33123W        W 5438  16.336  36.529   3.374
33124W        W 5439  30.932  44.187   9.935
33125W        W 5440  43.547   8.869  14.081
33126W        W 5441   7.398   9.239   0.705
33127W        W 5442  22.476  15.220   2.060
33128W        W 5443  43.329  29.736   1.133
33129W        W 5444  27.600   6.221   4.760
33130W        W 5445  35.728  31.661   2.613
33131W        W 5446  25.136  40.646   1.502
33132W        W 5447   9.019  40.061   1.093
33133W        W 5448   9.167  25.893   1.948
33134W        W 5449   2.404  43.651   4.686
33135W        W 5450   3.129   2.715  12.053
33136W        W 5451  25.598  27.678   4.607
33137W        W 5452  31.871   7.387   4.594
33138W        W 5453  15.932   6.368  12.862
33139W        W 5454  25.059  44.227  11.059
33140W        W 5455  13.299  43.878  13.138
33141W        W 5456  23.217  30.149   4.298
33142W        W 5457  18.152  23.225  11.114
33143W        W 5458  36.088  43.817  12.588
33144W        W 5459  30.607   7.661  14.079
33145W        W 5460  37.312  14.348  13.995
33146W        W 5461   6.490  23.349   0.304
33147W        W 5462  13.294   7.622   0.457
33148W        W 5463  30.933  35.940   3.351
33149W        W 5464   2.799  36.000   0.896
33150W        W 5465  30.870   6.803  13.455
33151W        W 5466  24.024  26.118   1.819
33152W        W 5467  18.376  31.111  12.681
33153W        W 5468  29.757  27.656   0.439
33154W        W 5469   3.809  26.004   4.054
33155W        W 5470   0.979  23.148  13.912
33156W        W 5471  42.924  44.378  14.121
33157W        W 5472   2.334  25.021  11.166
33158W        W 5473   6.075  44.778  11.094
33159W        W 5474  28.983  19.225  11.424
33160W        W 5475   0.104   5.112   4.364
33161W        W 5476  10.157   7.769  13.931
33162W        W 5477  39.377  18.517   1.770
33163W        W 5478  13.320  42.839  12.195
33164W        W 5479  34.008  24.776  10.911
33165W        W 5480  11.481  30.896  13.309
33166W        W 5481  41.542  35.971   1.935
33167W        W 5482  44.441  34.163  14.458
33168W        W 5483  16.648  28.562   2.776
33169W        W 5484  31.006  14.778   4.713
33170W        W 5485  19.173  30.095   0.095
33171W        W 5486  39.785  34.632   1.810
33172W        W 5487  30.970   1.238   1.426
33173W        W 5488  36.973  12.270  13.484
33174W        W 5489  19.637   9.319  11.901
33175W        W 5490  43.242  40.150   2.128
33176W        W 5491  13.924  18.293   4.497
33177W        W 5492  27.457   0.979  11.906
33178W        W 5493  24.216   4.742   1.847
33179W        W 5494  25.514  24.019  13.469
33180W        W 5495  23.429  23.772   0.923
33181W        W 5496  13.654  23.993  11.658
33182W        W 5497  16.534  17.758  13.487
33183W        W 5498  42.560  29.657  10.741
33184W        W 5499   5.854  31.451   1.491
33185W        W 5500  27.315   7.379  14.860
33186W        W 5501   4.833  30.436  10.409
33187W        W 5502   4.687  41.452  10.759
33188W        W 5503  15.011  27.079   0.466
33189W        W 5504  29.603  40.963  10.536
33190W        W 5505  28.471   4.285  13.908
33191W        W 5506  32.905  41.826   2.784
33192W        W 5507  14.653  44.480  11.484
33193W        W 5508  30.387  21.663   0.947
33194W        W 5509  20.385  35.458   2.644
33195W        W 5510  44.200   3.334  12.384
33196W        W 5511  27.589  26.703   2.657
33197W        W 5512  26.200  29.376   0.458
33198W        W 5513  16.362  28.165   0.586
33199W        W 5514   8.070  32.366  13.781
33200W        W 5515  29.696   1.456   2.756
33201W        W 5516  31.634  19.242  11.515
33202W        W 5517   8.937   8.575   1.803
33203W        W 5518  25.041   6.616  10.140
33204W        W 5519  15.532  19.379  14.068
33205W        W 5520  24.250   5.176  14.172
33206W        W 5521  35.399   3.247  10.723
33207W        W 5522  28.199  37.544  14.712
33208W        W 5523  20.031  39.257   0.785
33209W        W 5524  24.163  16.229  12.095
33210W        W 5525  37.425  42.462   1.731
33211W        W 5526  17.388  25.043  10.860
33212W        W 5527  25.897  37.435  12.559
33213W        W 5528   6.370   1.900   9.991
33214W        W 5529  40.476  39.393   1.459
33215W        W 5530  28.138  22.046   1.006
33216W        W 5531  40.618  28.866   0.439
33217W        W 5532  41.778  13.348  10.764
33218W        W 5533  22.116  37.550   3.179
33219W        W 5534  38.384   2.710   0.700
33220W        W 5535  38.361   4.534   1.858
33221W        W 5536   7.582   4.445   0.066
33222W        W 5537  21.693  35.140  13.183
33223W        W 5538  18.204  27.269   1.866
33224W        W 5539  43.882  35.640   3.788
33225W        W 5540  21.039  31.929  14.418
33226W        W 5541   7.875  34.834   4.120
33227W        W 5542  13.154   4.661  13.833
33228W        W 5543   1.858  27.236  11.180
33229W        W 5544  29.810  14.257  10.759
33230W        W 5545  30.412  35.462   2.800
33231W        W 5546  25.148  37.642   0.700
33232W        W 5547   9.769  23.527  12.338
33233W        W 5548  25.019  41.449  14.980
33234W        W 5549   2.277   0.425   4.624
33235W        W 5550  34.387  39.772   2.371
33236W        W 5551  26.332   9.538   4.780
33237W        W 5552  37.989  27.725   2.818
33238W        W 5553   6.213  25.485   4.954
33239W        W 5554  32.728  23.381   2.825
33240W        W 5555   0.292  24.673   2.223
33241W        W 5556  28.562  37.345   2.444
33242W        W 5557  43.789  24.588  12.140
33243W        W 5558  26.641   2.843   4.913
33244W        W 5559  30.644   7.397   2.767
33245W        W 5560  21.239  11.321   4.320
33246W        W 5561  36.422  37.870   1.004
33247W        W 5562  44.526  41.888  11.642
33248W        W 5563  40.716   3.434   0.466
33249W        W 5564  22.977   1.388  11.578
33250W        W 5565  37.041   4.743   1.764
33251W        W 5566  15.451  18.354   0.427
33252W        W 5567  18.784  14.906  14.003
33253W        W 5568  30.580  28.097   0.901
33254W        W 5569  24.324  43.742   4.135
33255W        W 5570  11.638  29.485   2.277
33256W        W 5571  34.015  33.873  14.912
33257W        W 5572  32.637  24.206  12.651
33258W        W 5573  43.207  42.388  14.499
33259W        W 5574  22.596  31.803  12.588
33260W        W 5575   2.768  16.100  13.724
33261W        W 5576   8.381  18.127  12.854
33262W        W 5577   3.556  24.000  13.156
33263W        W 5578   1.579  41.906  11.755
33264W        W 5579  44.363   1.359   3.368
33265W        W 5580   1.325  21.122   4.368
33266W        W 5581  34.619  16.674  10.555
33267W        W 5582  23.956   1.581   5.076
33268W        W 5583  22.937  25.218  12.545
33269W        W 5584  33.913  19.392  10.730
33270W        W 5585  21.310   4.212   1.706
33271W        W 5586   3.706  35.309   3.218
33272W        W 5587  25.771   2.065  12.546
33273W        W 5588  20.562  13.226  10.754
33274W        W 5589  17.178  44.704   3.469
33275W        W 5590  38.272  44.241  10.751
33276W        W 5591   4.219   4.176   2.706
33277W        W 5592   1.684   7.732   0.409
33278W        W 5593  14.755  33.126  10.330
33279W        W 5594  37.952  34.499   0.189
33280W        W 5595   7.958  11.419   0.685
33281W        W 5596   6.822  19.365   0.353
33282W        W 5597  27.435   7.729   3.720
33283W        W 5598  11.140  37.962  11.738
33284W        W 5599   3.886  43.403  10.558
33285W        W 5600  32.951   8.958   4.242
33286W        W 5601  14.707  15.483   3.670
33287W        W 5602  27.401  25.570  14.439
33288W        W 5603  29.613   9.148  11.908
33289W        W 5604   3.030  36.459   0.700
33290W        W 5605  20.921  29.210   1.462
33291W        W 5606   9.673   1.904   4.610
33292W        W 5607   6.360  16.505   3.332
33293W        W 5608  12.868  42.510   4.350
33294W        W 5609   5.046  27.686  10.951
33295W        W 5610  14.226  22.136  14.463
33296W        W 5611  25.157  41.303   3.669
33297W        W 5612  32.370  36.053  12.928
33298W        W 5613  23.185  20.000  11.113
33299W        W 5614  22.605  19.716   9.983
33300W        W 5615  39.551  29.169   3.791
33301W        W 5616  43.818   5.011   0.498
33302W        W 5617  36.358  26.081  11.878
33303W        W 5618  17.834  28.505   1.891
33304W        W 5619  10.827  18.184  11.097
33305W        W 5620  36.787  26.023  13.281
33306W        W 5621  25.631  13.014   2.775
33307W        W 5622  40.505  36.300  14.986
33308W        W 5623  44.561  23.068   3.571
33309W        W 5624  32.735  10.211   0.195
33310W        W 5625  35.617  40.989  11.556
33311W        W 5626  33.516  33.534  11.503
33312W        W 5627  39.443  28.654   3.806
33313W        W 5628  32.161  29.947  14.734
33314W        W 5629   6.247  16.398   4.601
33315W        W 5630  13.064  40.746  10.806
33316W        W 5631  15.279  41.617   0.412
33317W        W 5632  24.888   3.732   2.806
33318W        W 5633  10.918  40.945   0.961
33319W        W 5634  43.284  10.158  12.591
33320W        W 5635   8.186  14.501   0.003
33321W        W 5636  36.827  21.212   4.169
33322W        W 5637   6.704  27.486  14.862
33323W        W 5638  32.861  14.778  14.480
33324W        W 5639  39.656  30.000   2.177
33325W        W 5640  29.750  36.320  11.080
33326W        W 5641  42.386  17.460   0.463
33327W        W 5642  34.500   1.749   3.311
33328W        W 5643   2.538  30.474   4.743
33329W        W 5644  16.866  43.862   2.968
33330W        W 5645  14.575   7.393  11.619
33331W        W 5646  17.941  34.330  13.765
33332W        W 5647  25.678  11.830   0.328
33333W        W 5648  30.628  10.721   2.084
33334W        W 5649  18.298  16.632   1.253
33335W        W 5650  38.330  37.310   4.836
33336W        W 5651  37.536   6.695   2.729
33337W        W 5652  36.868  22.674   1.403
33338W        W 5653  44.471  23.923   3.550
33339W        W 5654  39.407  10.223  11.355
33340W        W 5655  14.214  22.354  14.959
33341W        W 5656  29.585  40.044  14.857
33342W        W 5657   4.801   1.864   2.922
33343W        W 5658   5.209  35.963  12.109
33344W        W 5659   1.499  37.421   2.628
33345W        W 5660  44.022  38.595  14.057
33346W        W 5661   5.844   8.714  14.925
33347W        W 5662  36.390  19.803   1.221
33348W        W 5663  26.592   1.702   3.653
33349W        W 5664  31.410   6.700   0.819
33350W        W 5665  38.271  31.423   3.482
33351W        W 5666  11.214  17.000  11.715
33352W        W 5667   6.799  24.708  14.304
33353W        W 5668   7.101  42.308   0.333
33354W        W 5669  30.996  18.577   0.767
33355W        W 5670  30.969  40.337  10.598
33356W        W 5671   9.180   4.856   1.449
33357W        W 5672  41.811  10.050   5.083
33358W        W 5673  33.897  22.541  11.430
33359W        W 5674  38.608   2.262   0.974
33360W        W 5675  14.683  18.516   1.835
33361W        W 5676  40.936  37.889   2.448
33362W        W 5677   9.632   3.473  13.620
33363W        W 5678  25.565  33.804  14.056
33364W        W 5679  11.707  23.365   3.220
33365W        W 5680  41.420  23.532   2.421
33366W        W 5681  14.354   5.279   1.784
33367W        W 5682  16.051  34.580  14.330
33368W        W 5683  13.080  43.926   0.881
33369W        W 5684   8.324   9.387  14.001
33370W        W 5685  44.500  20.207   2.733
33371W        W 5686  43.972  27.733  11.096
33372W        W 5687  26.970  20.060  11.426
33373W        W 5688  10.994   5.672   2.686
33374W        W 5689   2.384  25.580   1.068
33375W        W 5690  19.516  37.006  12.484
33376W        W 5691  10.547  33.758  13.868
33377W        W 5692  14.091  27.217  10.397
33378W        W 5693  31.659  25.765  10.988
33379W        W 5694  14.741   6.323   1.664
33380W        W 5695   2.187  41.731  13.930
33381W        W 5696  14.120  29.642  11.061
33382W        W 5697  43.967   8.687  11.091
33383W        W 5698  19.265  40.502   3.120
33384W        W 5699  15.325  33.167   2.880
33385W        W 5700  44.843  29.440   0.849
33386W        W 5701   2.571   0.995  13.999
33387W        W 5702  10.771  14.659   3.901
33388W        W 5703  32.453   8.215  14.973
33389W        W 5704  14.128   6.410  13.272
33390W        W 5705  42.164   6.150   3.781
33391W        W 5706   2.132  33.071  12.275
33392W        W 5707   8.898  29.794   1.785
33393W        W 5708  28.960  40.976  14.279
33394W        W 5709  13.732  19.608  12.548
33395W        W 5710  26.593  23.917  11.693
33396W        W 5711  34.472  32.691   1.692
33397W        W 5712  32.687  22.592   4.599
33398W        W 5713   3.298  21.568  11.455
33399W        W 5714  30.964  42.542   4.977
33400W        W 5715  20.194  43.777   2.371
33401W        W 5716  14.513  13.082   2.299
33402W        W 5717  28.750  12.660   0.962
33403W        W 5718  15.732  34.236  12.055
33404W        W 5719  44.084  16.115  14.827
33405W        W 5720  24.871  29.266  11.184
33406W        W 5721   4.733  28.968   3.324
33407W        W 5722  27.665  11.860   2.260
33408W        W 5723  17.171  30.906  14.115
33409W        W 5724  27.418  28.582   4.709
33410W        W 5725  35.849  38.566  11.644
33411W        W 5726  36.432  42.313   1.762
33412W        W 5727  12.235  36.756  12.020
33413W        W 5728  38.985  34.098  13.896
33414W        W 5729  20.481   3.848  12.051
33415W        W 5730  24.958   0.403   0.731
33416W        W 5731  35.628  30.502  11.492
33417W        W 5732   1.605   3.973   0.189
33418W        W 5733   1.193  15.785   0.316
33419W        W 5734  38.048  24.178   1.440
33420W        W 5735  30.393   4.804  14.442
33421W        W 5736  10.784  26.721   3.212
33422W        W 5737  44.399  14.861   0.864
33423W        W 5738  28.159  20.546   0.277
33424W        W 5739  38.009  26.218   2.695
33425W        W 5740   3.870  38.045   3.572
33426W        W 5741  14.534  41.838   4.613
33427W        W 5742  12.504   0.347  14.238
33428W        W 5743  42.978  32.981  12.831
33429W        W 5744  33.593   1.465   0.891
33430W        W 5745  38.362  11.717   1.487
33431W        W 5746  13.428  26.730  12.465
33432W        W 5747  41.764  44.259  10.620
33433W        W 5748  34.379  40.966   3.741
33434W        W 5749  22.483  42.858  12.703
33435W        W 5750  28.575  13.558  14.790
33436W        W 5751  32.122  26.684   1.795
33437W        W 5752  28.131  36.833   0.447
33438W        W 5753  21.794  21.749  14.866
33439W        W 5754   5.200  28.232  13.016
33440W        W 5755  32.010  21.181  13.422
33441W        W 5756   6.249  34.517   2.713
33442W        W 5757  16.000  10.131   4.560
33443W        W 5758   8.822  42.014   2.201
33444W        W 5759  14.963   8.520   0.749
33445W        W 5760  38.137  44.377   4.597
33446W        W 5761  35.583  16.269  14.829
33447W        W 5762  10.274  15.951  13.345
33448W        W 5763  17.265  16.291  11.026
33449W        W 5764  11.287  27.905   2.838
33450W        W 5765  42.294  20.560  11.739
33451W        W 5766   3.816  27.657   2.894
33452W        W 5767   1.973  44.456  12.606
33453W        W 5768   2.490  28.771   4.120
33454W        W 5769  13.149  40.418  12.043
33455W        W 5770   3.926  38.436   2.876
33456W        W 5771  12.190  30.562  12.489
33457W        W 5772   9.580  19.573   2.865
33458W        W 5773  24.318  32.787   1.482
33459W        W 5774  28.041   2.344   1.809
33460W        W 5775   1.256  17.450   3.597
33461W        W 5776   7.197  23.630   0.699
33462W        W 5777  33.423   7.275   3.689
33463W        W 5778  33.885  22.985   4.026
33464W        W 5779  38.370   7.418   4.304
33465W        W 5780  25.591   4.994   4.977
33466W        W 5781  41.441  31.471  13.426
33467W        W 5782  30.953  43.935   4.857
33468W        W 5783  30.079  22.043   1.526
33469W        W 5784  10.824  10.899  13.815
33470W        W 5785  22.540   8.597  11.156
33471W        W 5786  42.832   1.769   4.205
33472W        W 5787  36.330  44.477   4.914
33473W        W 5788   7.445  12.684  11.508
33474W        W 5789  27.085   3.721  11.986
33475W        W 5790  10.618  24.725   3.637
33476W        W 5791  27.082  30.120  14.576
33477W        W 5792  38.846  37.626  11.211
33478W        W 5793  20.712  39.881  12.865
33479W        W 5794  28.683   4.495   9.805
33480W        W 5795  32.940  29.819  13.972
33481W        W 5796  13.278  30.550  13.483
33482W        W 5797   6.598  10.651   0.860
33483W        W 5798  31.666  39.456  12.047
33484W        W 5799  39.368  22.335   4.159
33485W        W 5800  29.476  13.790  12.514
33486W        W 5801  20.863  11.348  10.296
33487W        W 5802  28.775  13.027   0.390
33488W        W 5803  36.508   6.109  10.724
33489W        W 5804  24.259   3.526   0.308
33490W        W 5805  33.093  43.258   4.375
33491W        W 5806   3.423  40.872   3.880
33492W        W 5807  22.300  30.855   0.728
33493W        W 5808  41.465   0.325   2.726
33494W        W 5809  22.028  31.867  11.365
33495W        W 5810  28.187  20.810   4.626
33496W        W 5811  14.156   4.202   3.756
33497W        W 5812  41.994  33.872   0.915
33498W        W 5813  38.924  21.276   5.025
33499W        W 5814  19.009  31.777   4.182
33500W        W 5815  17.384  37.062   0.430
33501W        W 5816  35.094   1.442  13.438
33502W        W 5817  12.736  18.102   5.008
33503W        W 5818   0.978   4.952  12.998
33504W        W 5819  10.715  24.630   1.968
33505W        W 5820  33.521  38.100   1.871
33506W        W 5821  22.518  23.710   0.324
33507W        W 5822  33.051  42.278   4.364
33508W        W 5823  32.949   4.727  10.531
33509W        W 5824   3.944  33.651  11.527
33510W        W 5825  30.555  26.905  11.876
33511W        W 5826   9.855  31.994  10.721
33512W        W 5827  16.047   9.772  10.159
33513W        W 5828   4.943  42.822   1.030
33514W        W 5829  14.921  23.578   0.064
33515W        W 5830   4.076  21.561   0.741
33516W        W 5831  35.013  32.972  11.831
33517W        W 5832   7.308  31.151   1.384
33518W        W 5833  31.481  15.578   1.266
33519W        W 5834  14.300  15.035   2.361
33520W        W 5835   2.950  14.367   4.831
33521W        W 5836  11.216  14.744  14.722
33522W        W 5837  30.875  10.994   1.222
33523W        W 5838  29.996  38.883  13.091
33524W        W 5839  11.641  29.627   0.298
33525W        W 5840  41.009   3.262   3.110
33526W        W 5841  21.533  24.663   4.329
33527W        W 5842  23.603  26.007  12.674
33528W        W 5843  10.338   9.148  14.763
33529W        W 5844  26.519  33.635  14.966
33530W        W 5845  41.324   0.919   1.947
33531W        W 5846  33.407  25.950   4.704
33532W        W 5847  41.285  11.733   4.755
33533W        W 5848  23.081  33.502   1.218
33534W        W 5849  35.515  10.295   2.999
33535W        W 5850  30.931  14.236  13.044
33536W        W 5851  37.992   6.358  11.873
33537W        W 5852  36.520  40.195   1.728
33538W        W 5853  41.548  14.138   4.193
33539W        W 5854  12.631  35.099   2.179
33540W        W 5855   7.760  20.035   1.383
33541W        W 5856  34.858  34.581   0.866
33542W        W 5857  38.462   4.535   0.822
33543W        W 5858  19.731   2.350   1.260
33544W        W 5859  30.923   6.482  14.727
33545W        W 5860   6.632   9.224  13.487
33546W        W 5861  19.713   9.801   0.076
33547W        W 5862   2.640   4.823   3.121
33548W        W 5863  17.070  13.710   0.967
33549W        W 5864  22.462  17.154  14.510
33550W        W 5865  24.132   4.827  14.546
33551W        W 5866  20.796  16.733  12.883
33552W        W 5867  25.660   3.977  13.275
33553W        W 5868  20.197  42.750   5.374
33554W        W 5869   8.590   2.034  13.907
33555W        W 5870  31.107  42.240  14.913
33556W        W 5871   6.050  30.650   0.834
33557W        W 5872  33.583  16.232   0.980
33558W        W 5873  12.212   4.170   0.215
33559W        W 5874  22.461   7.793  13.887
33560W        W 5875  20.735  21.521   0.525
33561W        W 5876  24.649   1.705  12.883
33562W        W 5877  38.737  36.482   3.805
33563W        W 5878  37.906  24.823   0.254
33564W        W 5879  42.535  26.136   2.325
33565W        W 5880  33.535  32.426   3.818
33566W        W 5881  37.741  26.645  10.892
33567W        W 5882  19.097  40.488   2.240
33568W        W 5883   5.872   6.673   0.324
33569W        W 5884  32.878  36.103   0.400
33570W        W 5885  11.986  23.735   3.055
33571W        W 5886  17.224   9.309   0.765
33572W        W 5887  33.651  10.520  13.480
33573W        W 5888   8.802  27.109   1.676
33574W        W 5889  36.840  39.108   2.804
33575W        W 5890  20.180   9.369   1.948
33576W        W 5891   5.633  42.220   4.212
33577W        W 5892  13.574   0.541   4.847
33578W        W 5893   4.327   2.463   4.725
33579W        W 5894   1.807  25.124  12.125
33580W        W 5895   9.785  29.117  10.632
33581W        W 5896  10.720  25.211   1.138
33582W        W 5897   6.483  39.012   4.005
33583W        W 5898   2.688  33.963  14.408
33584W        W 5899  14.371   5.889   1.419
33585W        W 5900  12.639   0.334  11.986
33586W        W 5901  42.922  20.933   0.833
33587W        W 5902  21.550  11.397   1.777
33588W        W 5903  26.084   3.543  14.777
33589W        W 5904   2.930   5.380   3.737
33590W        W 5905   0.257  41.359  13.773
33591W        W 5906   1.245  38.576  12.928
33592W        W 5907  31.395  27.473  14.011
33593W        W 5908  26.749  36.814   3.648
33594W        W 5909  27.660  24.609   0.554
33595W        W 5910   6.168  28.669   0.729
33596W        W 5911  17.170  16.008  10.619
33597W        W 5912  32.716  44.946   1.775
33598W        W 5913  36.361  25.590  13.977
33599W        W 5914  12.608  16.598  14.409
33600W        W 5915  34.882   4.874   5.098
33601W        W 5916  39.484   5.722   1.384
33602W        W 5917   5.846  25.220   4.634
33603W        W 5918  37.551  30.990   2.229
33604W        W 5919  16.178   8.511  14.061
33605W        W 5920  20.386  43.058  11.578
33606W        W 5921  37.877  10.839  13.316
33607W        W 5922   5.907  42.686   3.603
33608W        W 5923   6.207  10.775  13.862
33609W        W 5924  18.009  38.484  11.142
33610W        W 5925  30.491  31.148   4.433
33611W        W 5926  37.929   3.016  11.231
33612W        W 5927  28.685  41.491   4.016
33613W        W 5928  38.341  24.522  14.457
33614W        W 5929   9.174   8.220  10.578
33615W        W 5930  42.288  12.532  14.862
33616W        W 5931  44.178  12.644   3.763
33617W        W 5932  15.237  22.494   3.523
33618W        W 5933  26.033   6.013   0.786
33619W        W 5934   8.208   1.442  14.578
33620W        W 5935  18.525   6.675   1.398
33621W        W 5936  20.277  44.951  11.508
33622W        W 5937  44.844  36.284  13.075
33623W        W 5938  36.638  39.468   4.594
33624W        W 5939  24.020  33.665  12.913
33625W        W 5940  10.452  44.717  14.364
33626W        W 5941  38.321   6.750  11.756
33627W        W 5942   1.021  37.617   4.231
33628W        W 5943  30.558  16.038  13.261
33629W        W 5944   6.156  33.481   1.571
33630W        W 5945  27.048  11.842  13.313
33631W        W 5946  41.098   8.694   1.453
33632W        W 5947   1.888  31.720  14.134
33633W        W 5948  19.346  28.231  11.096
33634W        W 5949  14.659  40.988  11.640
33635W        W 5950  35.105   9.608   4.074
33636W        W 5951  33.795  28.538  11.231
33637W        W 5952  25.459  21.932  12.560
33638W        W 5953   6.405   4.333   3.450
33639W        W 5954  41.295  30.729  12.529
33640W        W 5955  19.279  12.603   0.390
33641W        W 5956  37.628   1.921   4.089
33642W        W 5957  29.264  42.330   3.303
33643W        W 5958  23.575   1.014  10.806
33644W        W 5959  27.257  19.317   0.892
33645W        W 5960  19.157  44.517   2.832
33646W        W 5961  41.856  31.124  11.128
33647W        W 5962  25.271   4.888  13.978
33648W        W 5963  27.628  36.956  11.475
33649W        W 5964  33.764   8.500   4.232
33650W        W 5965   7.682  26.100  11.504
33651W        W 5966  15.565  36.384   0.427
33652W        W 5967  19.757  34.314  12.546
33653W        W 5968   5.535  32.874   0.347
33654W        W 5969  22.800  18.916   2.659
33655W        W 5970  38.534   8.469   3.077
33656W        W 5971  15.817  40.968  14.772
33657W        W 5972  10.145  28.148   0.071
33658W        W 5973  34.281  22.519  14.770
33659W        W 5974  25.767  31.699   0.592
33660W        W 5975  40.062  34.192   4.097
33661W        W 5976   8.288  42.034   0.816
33662W        W 5977   0.846  38.043   0.183
33663W        W 5978   4.327  36.383  11.704
33664W        W 5979  22.587  32.484   3.209
33665W        W 5980  18.759  41.010   0.042
33666W        W 5981  19.631  16.913  11.440
33667W        W 5982  14.833  14.191   0.857
33668W        W 5983   1.157  14.359   5.087
33669W        W 5984  41.064  44.133  14.387
33670W        W 5985  32.102   5.373  14.344
33671W        W 5986  15.557   7.379   1.823
33672W        W 5987  17.872  26.121  11.669
33673W        W 5988  28.332  38.803  12.468
33674W        W 5989   1.519  13.021  11.076
33675W        W 5990   8.925  21.646  14.426
33676W        W 5991  11.804  32.897   0.286
33677W        W 5992   0.014  29.467   2.667
33678W        W 5993  26.500  37.732   2.174
33679W        W 5994  41.526   1.451  10.954
33680W        W 5995  38.208  39.871  13.535
33681W        W 5996   0.501   1.364  12.077
33682W        W 5997  18.279  20.231  11.864
33683W        W 5998  19.730   3.447   0.298
33684W        W 5999   3.504   4.374   2.218
33685W        W 6000   1.851  20.648  13.160
33686W        W 6001   3.771   1.790  12.563
33687W        W 6002  30.225  18.102   3.085
33688W        W 6003  25.475  33.367  11.637
33689W        W 6004   4.697  36.821   3.321
33690W        W 6005  20.142  27.507   4.454
33691W        W 6006  14.742  44.056  14.018
33692W        W 6007   6.574  22.592   4.605
33693W        W 6008  20.725  10.783  12.117
33694W        W 6009  23.286  16.295   0.307
33695W        W 6010  35.809   5.643   0.890
33696W        W 6011  12.890  20.936   1.188
33697W        W 6012  20.714  16.225   2.680
33698W        W 6013  23.856  24.497   2.642
33699W        W 6014  11.046  28.106  13.245
33700W        W 6015   9.226  44.487   1.291
33701W        W 6016  19.186  17.737  11.828
33702W        W 6017  36.913   2.698   2.358
33703W        W 6018  17.672  16.846  11.981
33704W        W 6019  16.782   8.393  12.382
33705W        W 6020  25.215  37.472   2.547
33706W        W 6021  11.367  27.113   0.428
33707W        W 6022  34.334  21.173   1.703
33708W        W 6023   9.680  17.535   1.879
33709W        W 6024  37.099  25.819   0.331
33710W        W 6025  23.967  39.799   1.361
33711W        W 6026  26.371  19.691  10.303
33712W        W 6027  15.573  12.125   4.144
33713W        W 6028   5.614  29.431   3.891
33714W        W 6029   4.761  38.687  12.937
33715W        W 6030  19.553  17.779   3.815
33716W        W 6031   3.692   0.321  14.801
33717W        W 6032  21.590   7.785   4.309
33718W        W 6033  32.509  11.375  13.054
33719W        W 6034  22.507   8.663  12.465
33720W        W 6035  13.361   3.961  10.801
33721W        W 6036  36.550   2.258  14.370
33722W        W 6037  35.350  22.464   1.427
33723W        W 6038  25.143  20.204  13.347
33724W        W 6039  36.354  40.258   4.198
33725W        W 6040  31.398  29.630   3.605
33726W        W 6041   3.728  30.562  14.769
33727W        W 6042   1.710  13.549  14.411
33728W        W 6043  35.891  27.883  13.872
33729W        W 6044  28.028  35.536   0.697
33730W        W 6045  34.861   3.147   2.836
33731W        W 6046   8.340  27.471   0.360
33732W        W 6047  11.600   4.669  11.088
33733W        W 6048  16.247  22.572  10.451
33734W        W 6049  24.603   3.277   2.789
33735W        W 6050  16.748  23.978  12.099
33736W        W 6051   7.508  24.453  10.834
33737W        W 6052  32.944  42.414   0.308
33738W        W 6053   8.259  26.069  10.799
33739W        W 6054  18.229  27.484  14.249
33740W        W 6055  22.059  21.045   5.467
33741W        W 6056  41.715   6.041   1.779
33742W        W 6057   1.724  11.545   3.666
33743W        W 6058  27.368  19.237   1.504
33744W        W 6059  18.326   3.802  14.966
33745W        W 6060  41.918   0.006   3.625
33746W        W 6061  28.600  35.454   0.431
33747W        W 6062  13.561   8.350   0.915
33748W        W 6063  16.535  34.198   1.436
33749W        W 6064  20.688  14.798   3.500
33750W        W 6065   0.028  14.113   4.141
33751W        W 6066   8.300   8.485   3.380
33752W        W 6067  30.834  44.530  13.842
33753W        W 6068  44.442  44.524   4.131
33754W        W 6069   5.610   7.821   2.228
33755W        W 6070   1.917  42.551   4.022
33756W        W 6071  27.082  33.148  14.340
33757W        W 6072  41.394  38.694  12.444
33758W        W 6073  28.633  43.972  13.657
33759W        W 6074  12.887   8.667   2.716
33760W        W 6075  37.467   3.153   0.290
33761W        W 6076   4.607  15.730  12.541
33762W        W 6077  16.180  27.402   4.608
33763W        W 6078  37.758  39.287  12.432
33764W        W 6079  14.197  39.020  10.507
33765W        W 6080   8.621  10.188   0.864
33766W        W 6081  19.121   5.471  12.799
33767W        W 6082   9.829  27.125  13.535
33768W        W 6083  14.687  12.891  11.458
33769W        W 6084  18.502   9.437   1.937
33770W        W 6085  20.246   0.514   4.800
33771W        W 6086  43.938  44.809   0.994
33772W        W 6087   8.654  28.566   0.743
33773W        W 6088  40.336  18.214   4.512
33774W        W 6089  32.386  13.022  13.301
33775W        W 6090  40.443  35.829   4.252
33776W        W 6091  29.982  13.876   1.315
33777W        W 6092  37.124   5.329   1.454
33778W        W 6093  10.402  29.145  13.495
33779W        W 6094  19.130  14.107  12.876
33780W        W 6095  14.757  21.563   4.125
33781W        W 6096   0.384  31.709   3.050
33782W        W 6097  10.894  38.282   4.712
33783W        W 6098  14.565  41.914  10.649
33784W        W 6099  25.468  16.071   4.283
33785W        W 6100  40.746  27.382  13.548
33786W        W 6101  35.917  30.064  11.365
33787W        W 6102  16.145  43.267   0.035
33788W        W 6103  43.911  13.717  10.418
33789W        W 6104   0.753  33.015   5.041
33790W        W 6105  16.082   5.156  14.615
33791W        W 6106  10.874  23.073   3.217
33792W        W 6107  26.950  27.667   1.471
33793W        W 6108  11.646   8.724   0.813
33794W        W 6109   5.190  42.379   1.211
33795W        W 6110  22.528   5.306  12.835
33796W        W 6111  19.101  22.281  13.093
33797W        W 6112  12.043  29.633  13.972
33798W        W 6113  21.639  18.318  11.809
33799W        W 6114  28.172  25.945  14.652
33800W        W 6115  22.634  14.278  13.545
33801W        W 6116  39.883  36.633  11.673
33802W        W 6117   9.840  14.768  14.591
33803W        W 6118  27.737  34.792   4.102
33804W        W 6119   0.944  36.009   3.188
33805W        W 6120  24.596  10.601   4.651
33806W        W 6121  17.141  37.405   1.033
33807W        W 6122  39.557  23.999   4.497
33808W        W 6123   3.129  30.734  13.524
33809W        W 6124   9.732  37.845   2.941
33810W        W 6125  14.594  26.034  13.485
33811W        W 6126  15.221  26.553  11.892
33812W        W 6127  36.995   7.201   2.232
33813W        W 6128  39.024  44.996   4.564
33814W        W 6129  37.947  42.377   1.836
33815W        W 6130  32.961   5.955   4.087
33816W        W 6131  32.888  14.151   2.176
33817W        W 6132  17.510   1.529  12.499
33818W        W 6133  19.865  25.428  11.004
33819W        W 6134  43.986  28.005   3.736
33820W        W 6135  22.248  26.152  14.342
33821W        W 6136  23.289  18.174   1.918
33822W        W 6137  38.986  38.962  12.346
33823W        W 6138  11.554   0.287  13.318
33824W        W 6139   9.141   3.978  14.998
33825W        W 6140  13.723  14.504   1.522
33826W        W 6141  14.793  40.757   2.823
33827W        W 6142  25.124  20.233   5.540
33828W        W 6143  17.219  13.888  13.489
33829W        W 6144  13.765  35.898   1.719
33830W        W 6145   8.564  19.398   2.173
33831W        W 6146  24.703  13.405  12.132
33832W        W 6147  26.275   1.610  13.936
33833W        W 6148  43.481  37.017   4.516
33834W        W 6149  24.075  16.082  11.605
33835W        W 6150   0.865   3.009   1.398
33836W        W 6151  36.721   5.511   4.575
33837W        W 6152  43.320   7.266  12.981
33838W        W 6153  16.242  26.025  14.853
33839W        W 6154  29.943  21.187   2.737
33840W        W 6155  44.037  34.754  11.047
33841W        W 6156   5.191  33.675  14.280
33842W        W 6157   5.112  20.979  13.369
33843W        W 6158  39.902  22.982  12.927
33844W        W 6159  13.212  42.028   3.393
33845W        W 6160  14.464  15.322  11.930
33846W        W 6161  17.308  42.203  12.459
33847W        W 6162  34.613  11.837  10.686
33848W        W 6163  22.654   4.930   1.742
33849W        W 6164  21.472  25.074   3.537
33850W        W 6165  30.965  25.489   4.051
33851W        W 6166   0.455  40.281  12.938
33852W        W 6167   8.626   9.136  14.354
33853W        W 6168   3.044  38.096  13.018
33854W        W 6169  28.959  33.516   2.399
33855W        W 6170  13.040  17.668   4.954
33856W        W 6171  36.985  41.964   0.227
33857W        W 6172  15.978   2.831  12.454
33858W        W 6173  16.119  25.590  14.374
33859W        W 6174   0.797   0.929   4.811
33860W        W 6175  30.132  31.440   0.769
33861W        W 6176  21.702   2.913   1.750
33862W        W 6177  42.261   3.441  10.418
33863W        W 6178  25.135  43.712   3.850
33864W        W 6179  38.452  36.222   0.699
33865W        W 6180   5.279  17.187   1.155
33866W        W 6181  40.423  27.402  14.787
33867W        W 6182  29.169   0.811  10.672
33868W        W 6183   1.191  27.420  11.736
33869W        W 6184  10.058   4.690   0.962
33870W        W 6185  34.125  35.062  10.809
33871W        W 6186  34.072  33.683  10.373
33872W        W 6187  36.102  36.864   4.765
33873W        W 6188  38.807  28.100   1.015
33874W        W 6189   4.941  28.659  12.022
33875W        W 6190  15.154  20.655  13.706
33876W        W 6191   6.920  32.333   0.250
33877W        W 6192   0.443  33.600  12.838
33878W        W 6193  28.450   8.862   5.055
33879W        W 6194  21.452   2.932   3.708
33880W        W 6195  44.921  21.751  13.280
33881W        W 6196  43.527  17.593  13.340
33882W        W 6197  26.348  41.530  13.064
33883W        W 6198  30.950  15.603  14.017
33884W        W 6199  12.624  15.114  10.449
33885W        W 6200  26.949   1.322   1.384
33886W        W 6201  24.132  44.272  11.428
33887W        W 6202  22.788   3.368   1.284
33888W        W 6203  34.351  23.013   4.355
33889W        W 6204  24.518  31.541   1.812
33890W        W 6205  42.280  28.603   2.674
33891W        W 6206  25.979  20.287  14.415
33892W        W 6207  24.497  11.105  12.396
33893W        W 6208   9.761  39.045   0.940
33894W        W 6209   9.396  37.797  10.585
33895W        W 6210   4.334  40.923  12.362
33896W        W 6211   9.183  37.049   2.482
33897W        W 6212   0.995  24.642  11.103
33898W        W 6213   5.660  33.585   0.874
33899W        W 6214  33.833   5.436   1.716
33900W        W 6215   8.633  13.187  14.834
33901W        W 6216  37.425  10.169   5.417
33902W        W 6217  11.832   6.652  13.691
33903W        W 6218  38.823  35.280   0.857
33904W        W 6219  21.499  23.157  10.869
33905W        W 6220  40.526  37.460   0.266
33906W        W 6221  29.958  12.502   0.918
33907W        W 6222  16.743  13.267   4.496
33908W        W 6223  14.455  32.587  12.142
33909W        W 6224  31.001  10.888   3.858
33910W        W 6225  44.415  18.138   1.784
33911W        W 6226   7.918  28.046   0.797
33912W        W 6227  21.692   2.034   4.080
33913W        W 6228  43.011  17.789   1.214
33914W        W 6229  25.760  19.117   0.830
33915W        W 6230   7.807  35.173  12.873
33916W        W 6231  26.889  13.092   1.495
33917W        W 6232   5.708  28.054  13.084
33918W        W 6233  26.430   2.371   5.158
33919W        W 6234  23.925  36.956   1.334
33920W        W 6235   5.258  27.935  13.441
33921W        W 6236  37.825  31.384  13.941
33922W        W 6237   6.493  43.119   2.122
33923W        W 6238  44.074  31.115  13.975
33924W        W 6239  16.024   4.848   2.860
33925W        W 6240  40.648   3.413  11.973
33926W        W 6241  39.895  18.195   0.079
33927W        W 6242  23.276   6.075   1.683
33928W        W 6243  12.616   1.819   1.252
33929W        W 6244   6.444  15.110   0.865
33930W        W 6245  17.384   1.418  10.454
33931W        W 6246  15.076   1.820   3.321
33932W        W 6247   4.937  24.257   3.811
33933W        W 6248  13.020  29.845   0.709
33934W        W 6249  40.002   1.491  12.438
33935W        W 6250   9.928  23.407   2.422
33936W        W 6251  22.142   9.654   4.607
33937W        W 6252  40.576  14.011  10.906
33938W        W 6253  19.955   6.176   1.137
33939W        W 6254  31.408  20.843   4.172
33940W        W 6255   4.828  12.896  14.429
33941W        W 6256  44.283   6.367   5.207
33942W        W 6257  17.102  22.713   3.107
33943W        W 6258   4.240  40.623  13.873
33944W        W 6259  42.807  40.994  11.091
33945W        W 6260  26.228   2.577   4.043
33946W        W 6261  10.323   7.134   0.958
33947W        W 6262  21.661  37.287   1.380
33948W        W 6263  17.818  34.345  14.271
33949W        W 6264  44.990  39.422  10.983
33950W        W 6265  38.947  31.650  11.097
33951W        W 6266  22.946  40.739   2.977
33952W        W 6267  28.360  39.697  14.904
33953W        W 6268  11.848  21.234   4.147
33954W        W 6269  37.629  16.836   3.187
33955W        W 6270   3.430  26.401  11.944
33956W        W 6271  32.831   9.614  11.532
33957W        W 6272   7.871  34.506   3.119
33958W        W 6273  25.959  43.724   1.393
33959W        W 6274  13.925  30.099  12.479
33960W        W 6275  40.937  40.262   3.177
33961W        W 6276   0.698  34.548  11.876
33962W        W 6277  44.149  33.243  10.188
33963W        W 6278  16.678  17.145   0.826
33964W        W 6279  35.501  13.651   2.179
33965W        W 6280  24.925  36.226  13.290
33966W        W 6281   5.609  31.523   3.430
33967W        W 6282  39.047   8.203  13.408
33968W        W 6283  17.137  27.544   0.995
33969W        W 6284  13.306  24.731  13.455
33970W        W 6285  26.464  20.096  14.342
33971W        W 6286  11.346  13.405  13.520
33972W        W 6287   8.882  22.442   4.578
33973W        W 6288  19.580  41.262  11.929
33974W        W 6289   0.805   4.942  14.396
33975W        W 6290  20.137  25.451  14.133
33976W        W 6291  41.015  29.889   1.835
33977W        W 6292  41.361  38.829   1.250
33978W        W 6293  43.386  38.531  14.799
33979W        W 6294   4.398  30.660  13.367
33980W        W 6295  26.792   8.066  11.243
33981W        W 6296  36.024  39.002   1.390
33982W        W 6297  41.833  35.810  13.226
33983W        W 6298  24.062  26.968   4.562
33984W        W 6299  21.759   1.006   0.978
33985W        W 6300  13.802  15.097   2.188
33986W        W 6301   5.590   5.946  12.573
33987W        W 6302  18.670  29.970   4.295
33988W        W 6303  17.693  38.694   0.131
33989W        W 6304   3.547  13.682   4.944
33990W        W 6305  30.580  22.829   3.064
33991W        W 6306  33.521  29.074  12.870
33992W        W 6307   9.700  19.587  12.000
33993W        W 6308  37.505  19.349   2.658
33994W        W 6309   3.358  42.819  11.191
33995W        W 6310  32.032  27.953  11.720
33996W        W 6311  35.116  27.526   1.716
33997W        W 6312  28.583  26.110  13.822
33998W        W 6313   7.530  11.756   1.875
33999W        W 6314  13.142  33.922  11.920
34000W        W 6315  36.063   6.180   2.649
34001W        W 6316   3.842  31.353  13.746
34002W        W 6317   3.364   5.964  10.332
34003W        W 6318  25.054  27.635  12.523
34004W        W 6319   7.261  25.588   2.987
34005W        W 6320  18.192  28.057  10.504
34006W        W 6321  28.658   6.588   2.930
34007W        W 6322  37.759  34.188  10.655
34008W        W 6323  28.467  34.810  13.831
34009W        W 6324  33.468  42.560   4.253
34010W        W 6325  41.366  15.668  11.679
34011W        W 6326  14.860  39.512  10.693
34012W        W 6327  15.595  26.609   0.044
34013W        W 6328   8.790  17.775  10.769
34014W        W 6329   7.862  37.552   2.260
34015W        W 6330  21.653  21.410   4.085
34016W        W 6331   2.505   5.950   1.771
34017W        W 6332   3.735  26.474  10.616
34018W        W 6333  10.710  35.677   2.028
34019W        W 6334  30.437  38.320  13.856
34020W        W 6335  27.066  43.066  11.545
34021W        W 6336  36.471   0.912   3.549
34022W        W 6337   0.203  37.553   1.778
34023W        W 6338   3.973  38.503  14.579
34024W        W 6339  35.806  37.020   1.460
34025W        W 6340  15.609  33.818  13.103
34026W        W 6341  27.127  17.722  13.689
34027W        W 6342  38.817  26.387   4.731
34028W        W 6343  40.345  10.117   4.670
34029W        W 6344  31.648  33.844   3.699
34030W        W 6345   3.857   3.313  14.326
34031W        W 6346  42.824  24.988   1.803
34032W        W 6347  13.668  12.777  14.565
34033W        W 6348  18.565  35.787  14.543
34034W        W 6349  40.902  36.253  13.464
34035W        W 6350  28.195   5.700   0.223
34036W        W 6351  41.050   7.154   1.643
34037W        W 6352  43.072  23.663  11.121
34038W        W 6353  22.955  19.947  11.998
34039W        W 6354   2.344  26.941   0.305
34040W        W 6355  28.227   8.293   2.822
34041W        W 6356  23.214  26.710   4.560
34042W        W 6357   5.982  21.061  14.275
34043W        W 6358  24.676  24.687  11.210
34044W        W 6359   0.291  18.600   3.660
34045W        W 6360   6.607   9.764   2.262
34046W        W 6361  32.819  34.901  12.833
34047W        W 6362  27.585  32.880  14.308
34048W        W 6363   8.879  16.028  13.523
34049W        W 6364  11.079  25.090  14.095
34050W        W 6365  37.879  19.890  10.961
34051W        W 6366  10.519  21.248   4.083
34052W        W 6367   1.818  36.450   0.771
34053W        W 6368  25.699  32.899  14.562
34054W        W 6369  17.088  21.733  14.771
34055W        W 6370  29.590  15.038  11.102
34056W        W 6371  32.162  20.892   4.450
34057W        W 6372  37.337  43.962   4.550
34058W        W 6373  20.621  42.745  12.511
34059W        W 6374  38.581  39.231  14.924
34060W        W 6375  16.624  20.649  11.969
34061W        W 6376   6.871  41.297  14.729
34062W        W 6377  13.770  36.774   4.324
34063W        W 6378  32.166  26.413   5.016
34064W        W 6379  27.006  24.777  12.487
34065W        W 6380   6.474  23.860   0.219
34066W        W 6381  44.253  14.257  10.271
34067W        W 6382  13.644  33.141   3.719
34068W        W 6383  12.778  20.030  13.968
34069W        W 6384  26.926  43.293  11.093
34070W        W 6385   4.467   7.650  13.098
34071W        W 6386  18.733  42.534  12.575
34072W        W 6387  17.017  11.972   0.141
34073W        W 6388  14.077  40.005  10.735
34074W        W 6389  41.517   3.272   1.842
34075W        W 6390  25.391  20.247   4.655
34076W        W 6391  38.850  32.850  13.178
34077W        W 6392  36.300  35.931  10.738
34078W        W 6393  25.922  26.512   0.454
34079W        W 6394  14.254   5.004   0.447
34080W        W 6395   8.103  17.703  12.908
34081W        W 6396  38.452  25.845   1.293
34082W        W 6397  43.970   1.220  11.905
34083W        W 6398  32.524  25.444   1.946
34084W        W 6399   7.327  40.534   2.773
34085W        W 6400   3.434   0.660   1.162
34086W        W 6401  31.639  15.884  12.424
34087W        W 6402   5.310  15.738   9.985
34088W        W 6403  28.596  13.381   2.648
34089W        W 6404  21.032  21.019  12.434
34090W        W 6405  41.970   3.330   3.402
34091W        W 6406  27.226  12.374  14.529
34092W        W 6407  27.079   3.385   5.525
34093W        W 6408  24.110  39.274  14.096
34094W        W 6409   8.430  22.231   4.462
34095W        W 6410  25.216  42.927  12.541
34096W        W 6411  13.048  34.106   3.260
34097W        W 6412  30.328  39.087  10.873
34098W        W 6413  25.780  33.000  10.843
34099W        W 6414  12.193  24.720   2.777
34100W        W 6415   0.556  44.228  10.713
34101W        W 6416   7.817  23.340   2.601
34102W        W 6417  14.288  41.846  13.266
34103W        W 6418  26.897  26.563  11.657
34104W        W 6419  12.077   8.180   3.890
34105W        W 6420   2.534  33.016  12.615
34106W        W 6421  18.156  18.482   4.270
34107W        W 6422  14.192  34.360   3.643
34108W        W 6423  20.979  16.659  14.886
34109W        W 6424  32.433  12.853  14.943
34110W        W 6425  13.716  19.825  14.303
34111W        W 6426  29.171  15.520   5.083
34112W        W 6427  29.907  34.524   2.168
34113W        W 6428   5.559  18.244   4.742
34114W        W 6429  13.667   2.773  12.906
34115W        W 6430  22.371  17.456   4.514
34116W        W 6431  37.300  17.821  14.413
34117W        W 6432   2.726  44.369   1.787
34118W        W 6433  32.442  35.076  13.758
34119W        W 6434  40.006  28.066  12.480
34120W        W 6435  17.794  15.483   2.916
34121W        W 6436  33.875  15.879  14.046
34122W        W 6437  29.157  42.689   3.662
34123W        W 6438   6.280  34.620   0.382
34124W        W 6439  43.523  38.023   1.605
34125W        W 6440  29.455  20.155   2.283
34126W        W 6441  32.436  11.631   0.398
34127W        W 6442  21.502  28.535  13.019
34128W        W 6443  36.551  32.964   2.905
34129W        W 6444  26.552  13.862  10.993
34130W        W 6445  25.193  19.108  11.162
34131W        W 6446  35.866  43.421  11.584
34132W        W 6447   0.855  17.542   0.531
34133W        W 6448  39.449  38.934   3.263
34134W        W 6449   6.125  25.222   1.573
34135W        W 6450   7.629  42.983  14.775
34136W        W 6451  29.863  32.127  10.666
34137W        W 6452  42.652  19.709  10.520
34138W        W 6453  17.600  18.138  14.063
34139W        W 6454  29.716   4.512   5.020
34140W        W 6455  22.010  29.389  14.951
34141W        W 6456  22.213  24.245  12.580
34142W        W 6457  15.108  24.542   0.256
34143W        W 6458   4.477   0.574  10.402
34144W        W 6459  33.895  37.161   0.808
34145W        W 6460  41.133  42.348   1.968
34146W        W 6461   5.322  34.094   2.223
34147W        W 6462   2.357  23.119  14.654
34148W        W 6463   0.457  32.223   0.689
34149W        W 6464  11.703  13.636  10.563
34150W        W 6465  38.230   3.784   3.463
34151W        W 6466  42.369  11.824  11.817
34152W        W 6467  44.354   6.233  10.584
34153W        W 6468   8.799  38.421  13.521
34154W        W 6469  13.404  39.335   0.536
34155W        W 6470  10.871  19.007   1.780
34156W        W 6471  30.009   4.214  11.466
34157W        W 6472   6.735  42.816   3.066
34158W        W 6473   4.731  31.583  14.878
34159W        W 6474  20.842   1.120  14.297
34160W        W 6475  13.578  20.646  12.526
34161W        W 6476  36.329  17.592  12.955
34162W        W 6477  31.657  29.551   1.489
34163W        W 6478   3.505  37.363   0.188
34164W        W 6479  41.383  11.884  10.518
34165W        W 6480   7.493   4.082  13.345
34166W        W 6481   6.145   0.722  12.586
34167W        W 6482   0.517  31.478  12.085
34168W        W 6483  10.849  27.283   1.147
34169W        W 6484  20.267  25.714  12.505
34170W        W 6485   0.628   7.603   0.062
34171W        W 6486  30.124  39.152  12.136
34172W        W 6487  10.732  22.905  10.849
34173W        W 6488  23.556  13.359   3.213
34174W        W 6489  38.141   0.715  13.557
34175W        W 6490  28.100  10.791  12.913
34176W        W 6491  23.138   9.604   0.241
34177W        W 6492  24.483  24.887   4.070
34178W        W 6493  23.008  16.746   0.286
34179W        W 6494  24.570  14.452   2.320
34180W        W 6495   8.286  26.524  11.567
34181W        W 6496   1.405   2.473  13.418
34182W        W 6497   7.604  31.378   3.751
34183W        W 6498  38.492  13.112  13.523
34184W        W 6499  37.356  26.588   2.199
34185W        W 6500  36.348  25.618  12.672
34186W        W 6501  41.953   9.696   1.168
34187W        W 6502  37.414  43.669   3.200
34188W        W 6503  19.178  10.163  10.264
34189W        W 6504  32.613  10.138  10.231
34190W        W 6505   4.777   2.170   2.111
34191W        W 6506  16.323  11.774  12.121
34192W        W 6507  38.816  41.279   4.135
34193W        W 6508  35.019  34.005  10.849
34194W        W 6509  22.278  30.960  13.498
34195W        W 6510  25.915  42.274  12.459
34196W        W 6511   8.771  23.991  11.600
34197W        W 6512  44.345  30.321   0.900
34198W        W 6513  28.510   0.293  10.538
34199W        W 6514  44.335   0.853  14.829
34200W        W 6515  12.707  21.339  13.089
34201W        W 6516  16.795   4.679   2.473
34202W        W 6517  41.982  43.934   0.308
34203W        W 6518   5.695  21.144   4.190
34204W        W 6519   7.398  11.611   3.245
34205W        W 6520  30.245   8.345   2.890
34206W        W 6521  23.973   5.772   3.609
34207W        W 6522  28.831   1.680  11.597
34208W        W 6523  41.371  15.757  10.810
34209W        W 6524  12.262   1.467  14.017
34210W        W 6525  21.219  28.378   3.251
34211W        W 6526   2.769  32.632  13.847
34212W        W 6527  33.583   3.099   0.658
34213W        W 6528  25.990  36.606   4.281
34214W        W 6529  30.917  25.097   1.732
34215W        W 6530  32.997  44.940   4.735
34216W        W 6531  29.630  30.133   2.915
34217W        W 6532   8.433   8.420   4.189
34218W        W 6533  37.000  19.593  12.495
34219W        W 6534   0.333   6.133  13.278
34220W        W 6535  39.304   7.706  13.548
34221W        W 6536   5.911  10.938  12.867
34222W        W 6537  16.796   7.367   1.475
34223W        W 6538  39.931  19.753   1.909
34224W        W 6539  34.047  38.526  11.929
34225W        W 6540   5.191  11.771   0.445
34226W        W 6541  10.070  30.705  10.272
34227W        W 6542  40.748  42.959   1.337
34228W        W 6543  27.987   9.627   1.458
34229W        W 6544   4.142  41.540  13.978
34230W        W 6545  11.375   5.049   3.432
34231W        W 6546  12.144  25.229  11.044
34232W        W 6547  20.211  14.778   1.958
34233W        W 6548   0.865  39.894  11.389
34234W        W 6549  11.796   2.516  12.187
34235W        W 6550   5.470   9.303   1.620
34236W        W 6551  44.975  43.746   4.988
34237W        W 6552   5.400  35.354   3.284
34238W        W 6553  17.293  39.929   0.011
34239W        W 6554  13.866  21.143   5.027
34240W        W 6555  29.905  36.369  14.418
34241W        W 6556  29.723   4.852   0.145
34242W        W 6557  42.740  15.350  10.483
34243W        W 6558   1.797  13.404  13.012
34244W        W 6559  33.976  18.840   4.037
34245W        W 6560   2.373  42.611  11.049
34246W        W 6561  39.793  22.183   3.348
34247W        W 6562  34.469   8.419   1.384
34248W        W 6563  42.139  20.704  13.714
34249W        W 6564  38.811   2.315  11.868
34250W        W 6565  15.402  26.104   0.261
34251W        W 6566  15.250  17.565   0.241
34252W        W 6567  40.411  21.820   1.905
34253W        W 6568  20.125  39.461  13.451
34254W        W 6569  29.038   9.692  14.728
34255W        W 6570   5.498  23.065   1.009
34256W        W 6571  22.996  38.150  14.901
34257W        W 6572  33.538  22.240  11.622
34258W        W 6573  20.281  34.069  10.769
34259W        W 6574  32.647  17.215  13.714
34260W        W 6575  30.891  34.382  11.438
34261W        W 6576  32.880  30.145   2.665
34262W        W 6577  14.330  35.110  14.608
34263W        W 6578  36.156  18.026   4.152
34264W        W 6579  16.209   2.530   3.784
34265W        W 6580  19.778   9.817  12.102
34266W        W 6581  31.528  19.640   0.809
34267W        W 6582   1.262  35.363  13.820
34268W        W 6583   8.919   7.292   0.842
34269W        W 6584  19.022  32.477   2.786
34270W        W 6585   3.983   4.776  12.459
34271W        W 6586  17.127  25.766   0.532
34272W        W 6587  25.494   9.368  11.138
34273W        W 6588  37.018   9.497  11.599
34274W        W 6589  31.336  22.349  12.421
34275W        W 6590  28.644   8.339  14.079
34276W        W 6591  20.734  21.326  10.978
34277W        W 6592  26.626   1.172  11.648
34278W        W 6593  31.518  35.823   4.536
34279W        W 6594  29.165  16.395  12.059
34280W        W 6595  37.172  20.998  11.469
34281W        W 6596  12.765  35.021  12.135
34282W        W 6597  19.692  13.165  12.488
34283W        W 6598   3.764   3.483   2.295
34284W        W 6599   8.885  24.973   4.463
34285W        W 6600  39.947  24.940   1.822
34286W        W 6601  28.709  30.622   3.795
34287W        W 6602  33.654   8.531   3.113
34288W        W 6603   1.456  16.562   2.259
34289W        W 6604  24.514  21.570   4.673
34290W        W 6605  13.392  39.860  13.788
34291W        W 6606  29.947  28.013   4.885
34292W        W 6607   8.668  27.653   4.168
34293W        W 6608  35.548  35.956  14.361
34294W        W 6609  13.047  37.962   0.773
34295W        W 6610  23.050  21.364  13.503
34296W        W 6611  42.905   6.488   2.506
34297W        W 6612  42.873  15.180   2.624
34298W        W 6613   2.884  20.357   2.209
34299W        W 6614  10.375   9.320  12.927
34300W        W 6615   3.502  36.666   4.502
34301W        W 6616  23.099  35.600   0.542
34302W        W 6617  43.836  40.104  14.474
34303W        W 6618   7.527  23.310   1.837
34304W        W 6619  22.291   1.329   4.085
34305W        W 6620  18.713  43.687  13.065
34306W        W 6621  26.733  39.984  12.190
34307W        W 6622   7.980   0.377  11.161
34308W        W 6623  44.882  23.915  14.203
34309W        W 6624  30.201  28.959   0.827
34310W        W 6625  19.650  36.772  12.911
34311W        W 6626  30.613  29.261   2.931
34312W        W 6627   0.235  30.579  11.112
34313W        W 6628   6.764  13.813  11.353
34314W        W 6629  13.376  24.996  11.671
34315W        W 6630  44.290  33.144  10.679
34316W        W 6631  39.300   3.742  12.643
34317W        W 6632  42.252  11.256   1.446
34318W        W 6633  10.251  11.453   1.660
34319W        W 6634  21.041  28.742  11.091
34320W        W 6635  32.892  44.560  12.945
34321W        W 6636  14.472  16.509   2.123
34322W        W 6637  14.183   6.954   4.203
34323W        W 6638  15.354  25.774  11.190
34324W        W 6639  44.390  29.546   4.729
34325W        W 6640  28.445   8.243   1.931
34326W        W 6641  10.764  15.714   1.964
34327W        W 6642   4.128  18.190  13.845
34328W        W 6643   5.732   2.613   4.152
34329W        W 6644  21.835  36.772   2.676
34330W        W 6645  20.296  39.380   2.285
34331W        W 6646  26.015   2.470  10.902
34332W        W 6647   7.762   3.792  12.057
34333W        W 6648   6.994   3.330  14.049
34334W        W 6649  38.342  22.187  11.020
34335W        W 6650  28.698  41.709  13.917
34336W        W 6651   5.491  10.986  13.438
34337W        W 6652  38.353  19.004   1.206
34338W        W 6653  37.558   3.007  12.317
34339W        W 6654  40.036   9.386  14.400
34340W        W 6655  10.135   8.548  10.713
34341W        W 6656  10.832  38.803   4.657
34342W        W 6657  14.055   0.313   0.287
34343W        W 6658  43.437  43.654   3.016
34344W        W 6659  43.476  30.633  13.056
34345W        W 6660  18.500   2.514  11.188
34346W        W 6661  17.701  14.551   1.216
34347W        W 6662  27.036  11.237  11.560
34348W        W 6663  34.094   1.466  12.001
34349W        W 6664  34.365  17.741  14.018
34350W        W 6665  40.055  21.807   4.579
34351W        W 6666  20.047  40.855   3.220
34352W        W 6667   8.662  40.748   2.856
34353W        W 6668  22.732   0.823   0.781
34354W        W 6669  24.946  32.485  14.815
34355W        W 6670  14.138  22.024  11.154
34356W        W 6671  28.339   4.355   0.415
34357W        W 6672   4.265  10.857   2.202
34358W        W 6673  17.986   8.129   1.189
34359W        W 6674  32.873  39.454   4.097
34360W        W 6675  23.499  26.641  13.871
34361W        W 6676   6.778   8.690   0.178
34362W        W 6677  13.645   1.404   4.624
34363W        W 6678   8.023  16.668   1.273
34364W        W 6679  34.039  39.187   3.362
34365W        W 6680  23.992  18.579  11.295
34366W        W 6681   9.760  13.082  13.306
34367W        W 6682   3.977  12.228   0.874
34368W        W 6683  32.443  16.262  13.338
34369W        W 6684  34.599   1.257  13.439
34370W        W 6685  25.550  17.768  11.256
34371W        W 6686  11.904  12.562   2.772
34372W        W 6687  20.037  26.644   4.274
34373W        W 6688   4.334  27.841  11.133
34374W        W 6689  18.154   5.777  11.026
34375W        W 6690   5.777   6.942   3.725
34376W        W 6691  38.749  32.892   0.259
34377W        W 6692  23.392  24.467  11.164
34378W        W 6693  13.627  25.645  10.595
34379W        W 6694  22.698  35.959  13.119
34380W        W 6695  28.899  28.566   2.832
34381W        W 6696  13.648  41.514   2.822
34382W        W 6697  43.143  17.089   5.140
34383W        W 6698  32.002  33.879   2.400
34384W        W 6699  34.306  34.635  12.992
34385W        W 6700  37.450  40.952  13.442
34386W        W 6701  28.668   1.511  14.810
34387W        W 6702  38.306  15.743  13.984
34388W        W 6703   8.373   5.177  13.925
34389W        W 6704  42.024  17.394   2.749
34390W        W 6705  41.920  41.355  11.220
34391W        W 6706   1.281   0.373   2.700
34392W        W 6707  39.040  27.443  12.868
34393W        W 6708  13.344  36.592   4.093
34394W        W 6709  44.422  36.099  12.045
34395W        W 6710  29.194  12.705  10.603
34396W        W 6711  23.058  25.154  13.431
34397W        W 6712   4.293  30.878  14.328
34398W        W 6713   3.916  18.549   0.868
34399W        W 6714  18.794  37.522   3.993
34400W        W 6715  40.126  20.135   0.685
34401W        W 6716  30.541  23.513   4.423
34402W        W 6717  40.448   7.946   0.407
34403W        W 6718   8.688  17.930   0.849
34404W        W 6719  20.075  38.468   3.731
34405W        W 6720  17.721  15.052   0.545
34406W        W 6721  22.065  21.107   4.112
34407W        W 6722  15.622  38.874  13.424
34408W        W 6723   5.380  14.663   0.595
34409W        W 6724  11.325   3.140   1.404
34410W        W 6725  32.326  42.084  12.626
34411W        W 6726  35.827  42.862   3.390
34412W        W 6727   5.416   6.810  13.037
34413W        W 6728  39.060  14.286   3.623
34414W        W 6729   8.187  15.569  13.444
34415W        W 6730  40.907  17.825  10.730
34416W        W 6731   5.652  14.637   2.938
34417W        W 6732  25.247  40.991  12.509
34418W        W 6733  12.187   7.363  13.858
34419W        W 6734   7.071  15.069   2.736
34420W        W 6735  31.448  40.013   0.381
34421W        W 6736  38.090  10.093  14.036
34422W        W 6737   0.851  28.013   5.097
34423W        W 6738  12.748  36.008   3.863
34424W        W 6739  38.371   4.148  11.138
34425W        W 6740  22.562  20.848   2.447
34426W        W 6741   4.983  39.452   4.588
34427W        W 6742  18.855  36.965   0.451
34428W        W 6743   1.309  13.086  14.274
34429W        W 6744  16.964  37.415  10.732
34430W        W 6745  33.975  16.263  10.897
34431W        W 6746   5.806  17.686   1.475
34432W        W 6747  43.895   8.283  14.444
34433W        W 6748  19.372  19.675   4.269
34434W        W 6749  32.845   3.543   0.564
34435W        W 6750  12.298  22.140  11.401
34436W        W 6751  31.884   8.519   3.138
34437W        W 6752  36.012   8.769   1.990
34438W        W 6753  33.508  17.626   1.279
34439W        W 6754  34.593  23.560  10.989
34440W        W 6755   9.143   9.755   2.195
34441W        W 6756  42.551  13.917   0.798
34442W        W 6757  40.389  41.375  10.688
34443W        W 6758  28.649   5.156   2.725
34444W        W 6759   9.236  36.043   0.538
34445W        W 6760  37.776  42.347   1.348
34446W        W 6761  30.123  10.235   4.647
34447W        W 6762  41.302  36.382  12.609
34448W        W 6763  43.486  44.240  12.383
34449W        W 6764  29.949  36.603  14.884
34450W        W 6765  30.747   4.827   2.367
34451W        W 6766  22.695  16.863  10.987
34452W        W 6767  43.897   7.733   1.414
34453W        W 6768   1.185  11.743  13.809
34454W        W 6769  38.099  44.384   2.731
34455W        W 6770  39.016   9.474   1.367
34456W        W 6771  44.911  17.785   0.835
34457W        W 6772  11.959   0.535   2.355
34458W        W 6773  35.755  39.481   3.623
34459W        W 6774  25.885  36.766  14.384
34460W        W 6775  13.625  41.100  12.545
34461W        W 6776  16.309  43.460  13.443
34462W        W 6777   9.489  33.582  10.630
34463W        W 6778  35.829  14.737   1.878
34464W        W 6779   4.188  21.650  11.899
34465W        W 6780  30.932  36.375  14.270
34466W        W 6781  35.363   8.281  13.983
34467W        W 6782  36.361  28.466  11.484
34468W        W 6783  11.725   6.959   4.139
34469W        W 6784  27.651  15.275   0.291
34470W        W 6785  39.415  44.057   3.064
34471W        W 6786  25.134  40.289   3.805
34472W        W 6787  44.744  23.595  11.698
34473W        W 6788  27.118   0.939  11.529
34474W        W 6789   2.442  37.322   0.783
34475W        W 6790   3.266  23.719   0.402
34476W        W 6791  22.969  21.447   3.803
34477W        W 6792  19.129  30.256   3.203
34478W        W 6793  29.488  39.045   4.557
34479W        W 6794  12.278  27.403  14.563
34480W        W 6795  19.836  40.174  12.493
34481W        W 6796  13.074   0.655  11.002
34482W        W 6797  10.446  34.860   2.312
34483W        W 6798  24.109  27.493  14.249
34484W        W 6799  41.424  36.833  12.427
34485W        W 6800  10.814  43.465   3.946
34486W        W 6801  24.735  33.847  14.852
34487W        W 6802  33.653  18.227  11.284
34488W        W 6803  20.082  43.737  12.643
34489W        W 6804  19.279  22.214   2.261
34490W        W 6805   2.362  28.708  13.404
34491W        W 6806  23.135  11.451   0.866
34492W        W 6807  24.593   1.960   3.028
34493W        W 6808  21.110  16.137   1.167
34494W        W 6809  23.642  41.587   3.456
34495W        W 6810  37.511  11.820   0.403
34496W        W 6811  41.819  40.425   1.835
34497W        W 6812  31.632   3.868  11.425
34498W        W 6813   0.970  33.636   1.854
34499W        W 6814  15.725   3.036   4.174
34500W        W 6815   3.640  14.424  14.986
34501W        W 6816   0.399  32.190   4.480
34502W        W 6817  38.071  41.862   1.734
34503W        W 6818  43.821   4.424   3.643
34504W        W 6819   9.347  10.261   3.396
34505W        W 6820  28.753  21.811   3.844
34506W        W 6821  26.479   5.926  11.448
34507W        W 6822  40.535  27.564  12.107
34508W        W 6823  41.549  41.356  13.239
34509W        W 6824  13.116  15.932   0.810
34510W        W 6825  34.012  25.199   2.823
34511W        W 6826  43.818  23.539   2.496
34512W        W 6827   8.345  14.572   4.731
34513W        W 6828  21.515  34.211  12.989
34514W        W 6829  42.447  32.660  10.729
34515W        W 6830  41.326  40.522  12.895
34516W        W 6831   3.440  31.126  14.959
34517W        W 6832   5.416   3.294  10.313
34518W        W 6833  14.830  15.568  11.638
34519W        W 6834   5.165  14.692   1.083
34520W        W 6835  26.147  35.434   4.678
34521W        W 6836  19.387  40.320   3.583
34522W        W 6837  19.912  20.349  14.572
34523W        W 6838  36.964  28.480   1.289
34524W        W 6839  42.188  20.820   2.900
34525W        W 6840  15.119  33.455   0.751
34526W        W 6841   8.504  31.521   2.140
34527W        W 6842  29.415  43.338   2.617
34528W        W 6843  23.722  35.900  13.991
34529W        W 6844  11.961  40.284   4.192
34530W        W 6845  31.079  26.941  14.822
34531W        W 6846  36.759  35.811   0.395
34532W        W 6847   6.922  35.753  13.730
34533W        W 6848  11.767   6.586   0.948
34534W        W 6849  42.982  43.338  11.470
34535W        W 6850  11.407  18.687  12.502
34536W        W 6851  21.759  27.624  14.389
34537W        W 6852  23.139  20.021   4.516
34538W        W 6853  21.558  11.351   0.864
34539W        W 6854  40.412   4.745  12.769
34540W        W 6855  25.779   9.224  14.926
34541W        W 6856  38.520   7.716   0.003
34542W        W 6857   7.320  30.493  14.426
34543W        W 6858  26.041  38.794  10.258
34544W        W 6859  28.955   4.121  12.891
34545W        W 6860  36.719  18.601   3.740
34546W        W 6861  32.561   5.495  12.514
34547W        W 6862  10.145  18.623   2.450
34548W        W 6863   3.680  34.507  14.929
34549W        W 6864  24.465  14.648   4.897
34550W        W 6865  13.227  24.208   0.983
34551W        W 6866   1.235   6.171   4.674
34552W        W 6867  25.593   2.857  12.936
34553W        W 6868   9.607  43.237  13.771
34554W        W 6869  22.762  29.668   4.332
34555W        W 6870  24.543  22.082   5.507
34556W        W 6871  39.191   3.890   1.888
34557W        W 6872   0.971  31.673   2.647
34558W        W 6873  24.684  21.516  12.656
34559W        W 6874  21.274  33.305  12.821
34560W        W 6875  31.679  10.871  14.404
34561W        W 6876  32.660   6.709  13.375
34562W        W 6877  41.098   5.375  14.369
34563W        W 6878   0.100  23.216   2.208
34564W        W 6879  16.904  32.814  12.596
34565W        W 6880  13.470   8.714  12.467
34566W        W 6881  21.786  12.326  11.877
34567W        W 6882   2.852  10.372   1.834
34568W        W 6883  27.549  40.081  14.072
34569W        W 6884   8.790  44.785   1.233
34570W        W 6885  37.394  36.970   2.905
34571W        W 6886   1.576   4.203   3.622
34572W        W 6887  12.430  35.537  11.593
34573W        W 6888  36.657  22.579   0.901
34574W        W 6889  27.892  44.841   1.397
34575W        W 6890  12.982  11.741   0.922
34576W        W 6891   1.535  18.482   3.703
34577W        W 6892  27.645  42.308  14.294
34578W        W 6893  17.657  36.356   1.779
34579W        W 6894  36.759  35.446  13.722
34580W        W 6895  19.181  32.626   3.268
34581W        W 6896  18.564  16.522   0.302
34582W        W 6897  39.958  37.842   4.130
34583W        W 6898  30.336  13.856   2.197
34584W        W 6899  36.339  39.511  10.620
34585W        W 6900   3.441  22.105   1.207
34586W        W 6901   0.482  38.262   1.260
34587W        W 6902  33.026  15.016   0.944
34588W        W 6903  20.744  23.208  11.937
34589W        W 6904  33.046  13.387   4.095
34590W        W 6905  26.095  34.946  14.503
34591W        W 6906  13.902  25.508   3.073
34592W        W 6907  28.012  25.474  13.913
34593W        W 6908  25.041  20.570   2.668
34594W        W 6909  36.110  25.402  14.404
34595W        W 6910  19.785  36.393   4.044
34596W        W 6911  44.365  43.486   2.730
34597W        W 6912  16.596  25.028   2.426
34598W        W 6913  19.126  43.022  12.077
34599W        W 6914  36.032  38.614   4.597
34600W        W 6915   2.423   2.444   1.700
34601W        W 6916  36.046  31.334   4.568
34602W        W 6917   9.983  42.853  10.665
34603W        W 6918  36.829  10.654  12.820
34604W        W 6919  29.676  25.554   1.185
34605W        W 6920  27.007   8.412   0.527
34606W        W 6921  26.051   8.413  14.336
34607W        W 6922  28.927  37.530  11.554
34608W        W 6923  41.048  12.719   1.750
34609W        W 6924   1.682   5.355   1.884
34610W        W 6925  28.589  29.653  11.674
34611W        W 6926  29.556   1.697  12.411
34612W        W 6927  34.956   9.159  10.325
34613W        W 6928   1.479  11.696  11.470
34614W        W 6929   6.320   9.083   3.340
34615W        W 6930  11.355  20.728   1.288
34616W        W 6931  32.928  20.421   1.355
34617W        W 6932  24.492  10.191  11.312
34618W        W 6933   3.039  39.073  12.857
34619W        W 6934  39.291  23.622   0.799
34620W        W 6935  20.839  26.382  14.647
34621W        W 6936  18.661  10.914   0.865
34622W        W 6937   1.756  21.346   4.121
34623W        W 6938  37.041  17.839   4.161
34624W        W 6939  10.860  44.860  12.016
34625W        W 6940  19.019  13.422  10.724
34626W        W 6941   8.725  10.131   1.746
34627W        W 6942  42.902  25.677  13.125
34628W        W 6943   9.113  31.492   3.390
34629W        W 6944  40.605  21.108  10.912
34630W        W 6945  17.222  35.634   1.881
34631W        W 6946   4.410  31.690  12.515
34632W        W 6947  40.549  34.420   4.011
34633W        W 6948  13.767  35.945   2.628
34634W        W 6949   2.229  20.481  14.009
34635W        W 6950  11.797   4.986   4.829
34636W        W 6951  29.214  12.852   2.720
34637W        W 6952  44.076  21.228   1.210
34638W        W 6953  27.022  20.076   1.445
34639W        W 6954  21.008   8.897  13.429
34640W        W 6955  28.922  17.809   2.600
34641W        W 6956  11.135   1.706   3.892
34642W        W 6957  33.419  31.664   2.117
34643W        W 6958  31.089  32.657  11.687
34644W        W 6959   1.680  27.991  14.274
34645W        W 6960   7.851  14.297   3.600
34646W        W 6961  20.634  20.138   0.963
34647W        W 6962   2.276  39.495   1.401
34648W        W 6963   4.749  24.568   0.930
34649W        W 6964  21.202  32.815  12.945
34650W        W 6965  12.391  32.538   1.303
34651W        W 6966  35.348   0.310   0.822
34652W        W 6967  44.228  19.531  11.175
34653W        W 6968   7.302  17.758   1.047
34654W        W 6969  20.109   8.513  11.860
34655W        W 6970  33.219   1.408  14.713
34656W        W 6971  12.615  16.527  11.402
34657W        W 6972   4.800   9.078  12.575
34658W        W 6973  22.574  20.606   2.947
34659W        W 6974   3.227   9.466  10.662
34660W        W 6975   5.364  43.437  10.936
34661W        W 6976   7.847  18.695   2.111
34662W        W 6977  36.927  41.923   2.735
34663W        W 6978   1.830  39.542  11.437
34664W        W 6979  42.540  38.358  11.580
34665W        W 6980  30.396  27.766   1.264
34666W        W 6981  40.617  21.197  11.442
34667W        W 6982  16.025  10.434   2.766
34668W        W 6983  21.332  43.545   1.466
34669W        W 6984  19.555  40.005  10.214
34670W        W 6985   1.076  44.366  10.703
34671W        W 6986  32.503   7.870   4.818
34672W        W 6987  24.540  33.602   1.319
34673W        W 6988  25.557  29.665   4.675
34674W        W 6989   6.938   6.471   2.364
34675W        W 6990  15.640  27.635  14.057
34676W        W 6991  44.888  32.094  11.799
34677W        W 6992  34.423  14.676  13.763
34678W        W 6993  26.934  11.358   4.196
34679W        W 6994  29.448  14.135  12.895
34680W        W 6995   7.213   4.838   4.557
34681W        W 6996  13.351  24.319   3.276
34682W        W 6997  42.088  17.414  10.849
34683W        W 6998  10.785  29.298  11.448
34684W        W 6999  27.469  15.637   2.843
34685W        W 7000  15.531   9.092  12.531
34686W        W 7001  18.812  20.197   2.682
34687W        W 7002  23.929   0.318   3.128
34688W        W 7003  22.012   3.963  12.890
34689W        W 7004  43.093  43.205  13.241
34690W        W 7005  41.066  23.053   3.783
34691W        W 7006   2.694  33.655  11.256
34692W        W 7007   4.375  12.748   4.262
34693W        W 7008  29.688  25.878   3.772
34694W        W 7009  10.470  38.104   3.977
34695W        W 7010  22.835  43.750  10.750
34696W        W 7011  30.727  30.383  13.153
34697W        W 7012  19.334  35.174  11.085
34698W        W 7013  27.980  16.587  12.519
34699W        W 7014  16.853   4.725  14.028
34700W        W 7015  12.708  41.326   3.387
34701W        W 7016  32.943  30.114  10.368
34702W        W 7017   9.848   8.700   3.730
34703W        W 7018   0.339  23.125   1.672
34704W        W 7019  18.106   4.776   2.299
34705W        W 7020  25.393  36.698  14.502
34706W        W 7021   8.876  10.671   0.877
34707W        W 7022  29.835   3.195  10.411
34708W        W 7023  25.406  37.784  13.928
34709W        W 7024  42.587  24.256   3.674
34710W        W 7025  39.817  42.471   3.692
34711W        W 7026  30.921  25.143  14.009
34712W        W 7027  22.239  28.971   4.614
34713W        W 7028  24.647  43.936  14.362
34714W        W 7029  42.058  15.693   0.538
34715W        W 7030  30.228   0.312  11.656
34716W        W 7031   6.424   4.166  13.514
34717W        W 7032  26.236   5.036  14.373
34718W        W 7033  30.902  15.726   4.167
34719W        W 7034  28.452  14.376  12.768
34720W        W 7035  19.010  19.399   0.836
34721W        W 7036  18.361   8.747   3.185
34722W        W 7037  30.727  19.431   2.843
34723W        W 7038  12.608  12.935  12.066
34724W        W 7039   3.807  25.618   4.394
34725W        W 7040  11.832  23.663  10.686
34726W        W 7041   8.214  26.667   0.893
34727W        W 7042  18.767  40.341   1.305
34728W        W 7043  20.059  41.033   2.709
34729W        W 7044  30.014  11.871  11.731
34730W        W 7045   3.742   7.894  11.957
34731W        W 7046  21.157  43.250   0.552
34732W        W 7047  26.587   5.222  11.134
34733W        W 7048  41.266  43.549   2.852
34734W        W 7049  31.389  13.740  10.950
34735W        W 7050  24.691  20.299   2.356
34736W        W 7051   2.731  17.638   1.789
34737W        W 7052  24.177   5.736  12.058
34738W        W 7053  42.942  39.373  11.685
34739W        W 7054  30.535  27.689   4.658
34740W        W 7055   9.931  32.974  12.182
34741W        W 7056   5.906  25.479   2.667
34742W        W 7057  29.005  23.505   2.331
34743W        W 7058  22.413  14.351  14.012
34744W        W 7059   5.746  32.206   1.701
34745W        W 7060  26.603  31.540   3.217
34746W        W 7061   3.319   0.690  14.839
34747W        W 7062   9.251   2.026   4.174
34748W        W 7063  37.785   3.973   3.271
34749W        W 7064   2.666  41.201  11.481
34750W        W 7065   0.408  30.859   4.271
34751W        W 7066  18.496   0.837  12.219
34752W        W 7067  13.277  40.727   2.775
34753W        W 7068  43.980   0.430  12.468
34754W        W 7069  41.649  38.437  12.818
34755W        W 7070  18.517  11.572   4.320
34756W        W 7071   0.003  12.834   4.224
34757W        W 7072  44.315  29.505   3.248
34758W        W 7073  36.120  15.653   0.987
34759W        W 7074  36.413  11.230  10.740
34760W        W 7075  17.243  27.979  13.880
34761W        W 7076   0.021  38.035   0.903
34762W        W 7077  27.261  35.926   0.894
34763W        W 7078  33.073  21.984  12.431
34764W        W 7079  12.214   8.536  12.402
34765W        W 7080  34.645  19.268   3.156
34766W        W 7081  40.274  21.456  12.490
34767W        W 7082  33.169   7.185   3.213
34768W        W 7083  30.574   5.841  12.215
34769W        W 7084   5.278   9.792   1.804
34770W        W 7085  19.015  34.875   4.121
34771W        W 7086  42.033  36.465  12.007
34772W        W 7087  13.110  24.455   3.708
34773W        W 7088  16.278  22.971   0.416
34774W        W 7089   9.233  11.292  11.935
34775W        W 7090   8.921  16.291  11.319
34776W        W 7091  24.454   3.940  11.983
34777W        W 7092  32.092  30.619   1.982
34778W        W 7093  28.181   4.378  12.579
34779W        W 7094  29.963  42.923   3.182
34780W        W 7095  37.475  15.111  13.537
34781W        W 7096  27.788  31.588   5.087
34782W        W 7097  19.769  24.601  10.659
34783W        W 7098  15.798  37.934  12.843
34784W        W 7099  14.468  32.759   2.396
34785W        W 7100  18.887   6.501   2.834
34786W        W 7101   3.681  18.565   1.868
34787W        W 7102  42.890  21.947  13.004
34788W        W 7103  25.006  21.246   5.343
34789W        W 7104  19.504  40.440   4.560
34790W        W 7105  27.732   3.846  14.021
34791W        W 7106   8.404  12.115   4.215
34792W        W 7107  32.882  16.315   0.279
34793W        W 7108  33.717   5.969   0.008
34794W        W 7109  39.853  30.573  11.322
34795W        W 7110  37.533  17.791   0.702
34796W        W 7111  22.759  17.418   3.032
34797W        W 7112   2.860  10.840  10.324
34798W        W 7113   8.768  40.331   4.715
34799W        W 7114  10.373   1.323   1.654
34800W        W 7115  14.585   3.657   4.567
34801W        W 7116   4.927  23.301   4.201
34802W        W 7117   2.912  30.049  13.713
34803W        W 7118  40.973  14.817   0.278
34804W        W 7119   5.084  17.146  11.463
34805W        W 7120  32.191  31.262   0.587
34806W        W 7121  23.290  12.621  13.850
34807W        W 7122  37.359  39.035  14.817
34808W        W 7123  10.372  40.004  11.054
34809W        W 7124   0.368  25.182  12.444
34810W        W 7125  44.580  17.194   1.324
34811W        W 7126  18.716  44.384   3.330
34812W        W 7127  22.617   5.268   2.215
34813W        W 7128  28.000  27.487  13.795
34814W        W 7129  10.730  40.844   2.801
34815W        W 7130  14.578   3.523   2.802
34816W        W 7131  32.674  25.379  11.884
34817W        W 7132  38.986  32.529  11.949
34818W        W 7133  19.259  35.884  14.883
34819W        W 7134   6.985  28.908   1.328
34820W        W 7135  30.487  22.125   1.183
34821W        W 7136  13.855   4.282  13.886
34822W        W 7137  29.951  13.790  11.202
34823W        W 7138  15.665   8.257   2.423
34824W        W 7139  12.183  39.510  11.873
34825W        W 7140  38.704  40.542  14.887
34826W        W 7141  13.375  22.410  10.223
34827W        W 7142  23.678  38.886  12.717
34828W        W 7143  23.380  35.910   3.205
34829W        W 7144  12.277  16.400   3.192
34830W        W 7145  28.599  18.502  13.075
34831W        W 7146  26.700  26.605  12.129
34832W        W 7147  29.124   2.523  13.883
34833W        W 7148  16.280  32.463   3.692
34834W        W 7149  18.029  15.574  10.720
34835W        W 7150  32.525  31.084   3.163
34836W        W 7151  23.924  36.456  11.667
34837W        W 7152  15.094  44.512   3.707
34838W        W 7153  10.877  16.317  14.952
34839W        W 7154  40.297  10.852  10.672
34840W        W 7155  14.757  17.093   3.847
34841W        W 7156  19.289  38.496  10.147
34842W        W 7157  18.289  42.764  13.878
34843W        W 7158  22.987  40.962  12.507
34844W        W 7159  22.569  38.116   0.552
34845W        W 7160  34.481   4.971   0.500
34846W        W 7161  35.892  21.790  11.561
34847W        W 7162  42.374  15.976   2.315
34848W        W 7163   6.251  39.299  11.182
34849W        W 7164  23.466  42.787   1.916
34850W        W 7165  44.313  26.106  13.910
34851W        W 7166   4.259  21.112  11.202
34852W        W 7167  28.144  40.448  11.016
34853W        W 7168  29.179  39.426  13.570
34854W        W 7169  24.263  18.153  13.837
34855W        W 7170   6.193  37.173  13.574
34856W        W 7171  27.713   5.920   1.032
34857W        W 7172  12.011  23.523  12.802
34858W        W 7173  10.127  12.869   0.317
34859W        W 7174  14.601   1.963   2.307
34860W        W 7175   7.340   4.241   3.791
34861W        W 7176  39.044  28.508  14.340
34862W        W 7177   9.703  34.014  11.621
34863W        W 7178  18.749  21.532  12.474
34864W        W 7179  16.419  44.531  12.365
34865W        W 7180  27.587  36.621  12.087
34866W        W 7181  37.041  35.411  13.286
34867W        W 7182  14.615   1.211   0.426
34868W        W 7183  18.573  14.645  11.601
34869W        W 7184  12.919  14.824   2.161
34870W        W 7185  41.443   2.873  12.337
34871W        W 7186  18.642   0.958  11.659
34872W        W 7187  36.442  34.273   2.712
34873W        W 7188  39.780  11.984  13.290
34874W        W 7189  12.487   8.762   4.995
34875W        W 7190   4.892  26.910  12.605
34876W        W 7191  37.698  15.403   2.390
34877W        W 7192  43.777   5.624   1.670
34878W        W 7193  23.412  14.895   2.405
34879W        W 7194  28.570  11.059  14.243
34880W        W 7195  36.317   2.722  14.358
34881W        W 7196  26.657  42.798   3.638
34882W        W 7197  18.731  26.703  12.521
34883W        W 7198  25.775   4.881  13.656
34884W        W 7199  21.570  36.801   1.215
34885W        W 7200  39.953  20.275   4.547
34886W        W 7201  17.585  43.335   3.351
34887W        W 7202  15.703  14.183   1.801
34888W        W 7203  15.698  18.770  10.478
34889W        W 7204  28.062  24.008  11.830
34890W        W 7205  41.018  41.015  11.595
34891W        W 7206   1.024  40.587  14.408
34892W        W 7207  44.809  36.343  11.734
34893W        W 7208   8.282  44.720  13.993
34894W        W 7209  28.133  15.029  14.407
34895W        W 7210  16.278  23.448  14.553
34896W        W 7211  27.992  24.936   3.641
34897W        W 7212  36.621  10.386   0.936
34898W        W 7213  41.892  39.117  13.998
34899W        W 7214  17.566   5.013  10.692
34900W        W 7215  13.261  44.819   4.128
34901W        W 7216  14.377  34.283  13.275
34902W        W 7217  42.492  43.743  14.030
34903W        W 7218  21.114  35.101  10.826
34904W        W 7219  35.524  27.264   4.634
34905W        W 7220  15.090  14.836   4.268
34906W        W 7221  43.867  10.084  13.959
34907W        W 7222   2.874  27.124  12.551
34908W        W 7223   3.791   5.347   3.801
34909W        W 7224  11.463  35.938   3.715
34910W        W 7225  42.623   6.240   5.036
34911W        W 7226  43.983  24.422   3.845
34912W        W 7227  33.198  35.183   1.926
34913W        W 7228  38.800  39.294  11.599
34914W        W 7229   7.133  44.342   2.420
34915W        W 7230  37.152  39.423   4.675
34916W        W 7231  14.382  22.319   2.351
34917W        W 7232   6.664   1.988   0.296
34918W        W 7233  23.774  19.769   2.219
34919W        W 7234  43.031  13.103   2.723
34920W        W 7235   5.676  28.515   3.960
34921W        W 7236  39.276   6.861  12.822
34922W        W 7237   3.777  28.024  12.874
34923W        W 7238  37.513  40.127  12.216
34924W        W 7239  22.484  23.195  11.138
34925W        W 7240  12.960  28.360   2.714
34926W        W 7241  34.435   1.493   1.412
34927W        W 7242  40.558  38.425   1.257
34928W        W 7243  35.881  29.573  14.301
34929W        W 7244  36.010  22.496  12.078
34930W        W 7245  35.418  40.038   1.918
34931W        W 7246  43.576  31.427  12.030
34932W        W 7247  37.034  36.113   1.813
34933W        W 7248  27.372  42.928   0.258
34934W        W 7249  21.305  42.441   2.910
34935W        W 7250  37.817  13.509   2.342
34936W        W 7251   6.367   7.700   4.247
34937W        W 7252  33.373  42.757  14.487
34938W        W 7253  25.913   5.720   0.372
34939W        W 7254   6.132  29.850  13.544
34940W        W 7255  13.711  26.536   2.385
34941W        W 7256   9.072  14.576   0.225
34942W        W 7257  21.416  33.176  10.083
34943W        W 7258  40.933  35.461  14.930
34944W        W 7259  12.043  30.015   2.221
34945W        W 7260  12.702  23.950  14.930
34946W        W 7261  24.962   7.363  13.836
34947W        W 7262  10.648  19.196   1.356
34948W        W 7263  29.451  37.228  10.985
34949W        W 7264   1.056  36.097   0.503
34950W        W 7265   5.401   7.309  14.739
34951W        W 7266  42.256  10.386  10.741
34952W        W 7267  13.654  38.484  14.772
34953W        W 7268  37.645  38.146  10.454
34954W        W 7269   7.190  39.365   4.824
34955W        W 7270   5.232   7.770   0.497
34956W        W 7271   8.994  34.886  14.273
34957W        W 7272  13.828  36.098  11.436
34958W        W 7273   7.786  24.641   2.054
34959W        W 7274  10.733  34.948   3.576
34960W        W 7275  39.928   9.952   1.312
34961W        W 7276  21.020  29.150   3.725
34962W        W 7277  28.508   5.746  11.395
34963W        W 7278  19.669  35.350   1.245
34964W        W 7279  14.275   9.579  14.909
34965W        W 7280  21.009  15.658   1.217
34966W        W 7281  37.402  11.599  14.829
34967W        W 7282  16.159  18.535  11.613
34968W        W 7283   5.793  24.065  10.575
34969W        W 7284  35.164  22.156   4.330
34970W        W 7285  23.487  43.029  11.424
34971W        W 7286  30.627  19.635   4.611
34972W        W 7287  22.924  28.491   0.899
34973W        W 7288  18.649  10.859   5.450
34974W        W 7289  22.095  44.889  11.411
34975W        W 7290   3.950  22.626   3.152
34976W        W 7291  27.049  21.064  11.247
34977W        W 7292  29.963  40.450  12.564
34978W        W 7293  33.159   2.042  13.646
34979W        W 7294  28.388  28.684   0.491
34980W        W 7295  40.383   2.800  12.551
34981W        W 7296  40.810   6.894  11.157
34982W        W 7297  35.666   9.724  11.989
34983W        W 7298  28.250  41.079   3.096
34984W        W 7299   4.024  41.322   3.298
34985W        W 7300  35.445  26.389   3.632
34986W        W 7301  42.870  26.186  13.959
34987W        W 7302   5.225  18.636  11.590
34988W        W 7303  39.197  15.727  11.642
34989W        W 7304  29.921  37.327  14.302
34990W        W 7305   4.407  27.957   3.785
34991W        W 7306   7.743  36.190   0.903
34992W        W 7307  25.809  33.433  12.035
34993W        W 7308  13.226  17.314   0.486
34994W        W 7309  34.618   7.834  10.507
34995W        W 7310  32.518  19.722   1.841
34996W        W 7311  36.615  44.998  11.966
34997W        W 7312   8.890  41.312   3.391
34998W        W 7313  18.475  21.647  14.833
34999W        W 7314  20.745  19.506  14.001
35000W        W 7315  16.363   7.915   0.802
35001W        W 7316   9.275   3.228   0.376
35002W        W 7317  28.887  34.069  14.394
35003W        W 7318  32.890  21.257   2.863
35004W        W 7319  24.849  28.264   0.797
35005W        W 7320   2.130  44.385   3.697
35006W        W 7321  41.115  44.816  10.851
35007W        W 7322  18.564  20.263   0.501
35008W        W 7323  17.049  27.133   2.950
35009W        W 7324   9.743  34.972  10.491
35010W        W 7325  10.335  40.920  10.382
35011W        W 7326  19.089  44.464  11.733
35012W        W 7327  18.296  27.646  13.282
35013W        W 7328  14.328   4.952   1.279
35014W        W 7329  13.613  33.916  12.922
35015W        W 7330  26.038  17.527   4.269
35016W        W 7331   2.983  39.405  10.901
35017W        W 7332   3.998  16.606   3.814
35018W        W 7333  40.031  31.292   3.272
35019W        W 7334   7.412   0.904  12.852
35020W        W 7335  12.462  14.205  13.570
35021W        W 7336  24.705  15.305  13.769
35022W        W 7337  37.334  22.280  13.092
35023W        W 7338   9.342  40.980   0.934
35024W        W 7339  24.718  34.930   5.134
35025W        W 7340  29.988   3.226  12.600
35026W        W 7341  31.109  42.376   1.613
35027W        W 7342   8.620  36.861   0.488
35028W        W 7343  10.412  43.236  13.354
35029W        W 7344   1.452  36.318  13.842
35030W        W 7345  36.864  27.985  14.478
35031W        W 7346  25.463  25.945   0.754
35032W        W 7347  41.777  23.316   0.249
35033W        W 7348   1.482  12.445  13.001
35034W        W 7349  41.099  13.707  13.929
35035W        W 7350  29.935  28.784  12.041
35036W        W 7351   3.176  37.066   4.648
35037W        W 7352  37.953  44.954  11.346
35038W        W 7353  15.557  36.836   4.689
35039W        W 7354  34.852  39.873   2.132
35040W        W 7355  30.669  37.834  13.754
35041W        W 7356  37.312  25.644  10.242
35042W        W 7357   4.513  15.646   0.544
35043W        W 7358  25.582  30.410   1.781
35044W        W 7359   1.232  40.048  13.550
35045W        W 7360   3.716  39.807  12.133
35046W        W 7361  43.833  17.633  14.624
35047W        W 7362  31.619  41.896   4.783
35048W        W 7363  10.173  10.575  10.678
35049W        W 7364  31.132  33.357  14.783
35050W        W 7365  30.591   7.690  13.465
35051W        W 7366  21.083  18.600   5.021
35052W        W 7367   8.708  38.850   0.897
35053W        W 7368  43.857   5.632   3.279
35054W        W 7369  31.756  29.391   3.321
35055W        W 7370   0.029  33.897   4.956
35056W        W 7371   2.800  22.775  12.543
35057W        W 7372  16.068  22.107  14.524
35058W        W 7373  36.791  32.589   1.868
35059W        W 7374  13.164  39.559   3.269
35060W        W 7375  43.663  22.075  14.070
35061W        W 7376  24.970  25.987   4.727
35062W        W 7377  31.142   9.345   1.732
35063W        W 7378   7.457  11.257  10.628
35064W        W 7379  42.318  18.118  13.775
35065W        W 7380  10.657  25.360  14.201
35066W        W 7381   6.107  44.010  14.935
35067W        W 7382  29.464  21.031  12.420
35068W        W 7383  26.428   1.861   0.716
35069W        W 7384  21.761  24.123  14.246
35070W        W 7385  37.614  21.591   4.203
35071W        W 7386  34.356  13.613   0.926
35072W        W 7387  37.442  22.769  11.915
35073W        W 7388  13.850  23.286  12.046
35074W        W 7389   9.920  16.050  14.935
35075W        W 7390  40.808  40.226  13.969
35076W        W 7391  26.744  36.632  14.757
35077W        W 7392  31.969  29.406   1.082
35078W        W 7393   6.739  34.656  10.806
35079W        W 7394  13.666  15.669   3.583
35080W        W 7395  30.890  39.943   2.225
35081W        W 7396  29.166  21.745  14.515
35082W        W 7397   7.766  37.404   4.350
35083W        W 7398   5.914  13.114  10.633
35084W        W 7399  25.000   7.412  11.520
35085W        W 7400   9.761   8.933  10.599
35086W        W 7401  19.135   3.731   1.745
35087W        W 7402   0.408  24.173  12.967
35088W        W 7403   6.623  29.922  13.353
35089W        W 7404  33.998  12.957   3.173
35090W        W 7405  41.891  29.409  14.297
35091W        W 7406  38.544   6.770   3.657
35092W        W 7407  30.324  27.352  12.689
35093W        W 7408   9.874   5.975   1.889
35094W        W 7409  39.973  35.608  11.748
35095W        W 7410   6.888  16.174  12.657
35096W        W 7411  33.371  44.351  10.154
35097W        W 7412  29.441  29.947   3.787
35098W        W 7413   6.762  24.516  12.853
35099W        W 7414  29.873  38.539  10.722
35100W        W 7415  15.192  33.663   4.677
35101W        W 7416  38.185  26.584   5.580
35102W        W 7417  13.414  29.438  14.900
35103W        W 7418  12.310  31.103  10.798
35104W        W 7419  12.255   1.385   4.425
35105W        W 7420  38.618  26.023  14.686
35106W        W 7421  27.992  17.838  11.930
35107W        W 7422  18.156   2.009  13.041
35108W        W 7423  41.411  25.410   3.314
35109W        W 7424  30.453  26.448   2.269
35110W        W 7425  41.314  39.209  12.476
35111W        W 7426  42.875  16.373  13.500
35112W        W 7427  25.355  28.358   0.822
35113W        W 7428   8.812  13.189  11.525
35114W        W 7429  29.794  34.047   2.408
35115W        W 7430  17.264   5.295   1.407
35116W        W 7431  23.558   7.413   0.327
35117W        W 7432  36.317  44.825   2.227
35118W        W 7433   2.772  19.005   1.284
35119W        W 7434   5.163  44.454  12.080
35120W        W 7435  40.777   3.885   0.698
35121W        W 7436  12.629  22.446   2.298
35122W        W 7437  19.626  17.051  14.755
35123W        W 7438  39.343  11.974  14.441
35124W        W 7439   9.836  32.147   3.654
35125W        W 7440  31.228  31.837   3.495
35126W        W 7441  29.987  35.507  11.472
35127W        W 7442   8.756   5.144   1.826
35128W        W 7443  21.857  10.191  12.405
35129W        W 7444   8.913  16.034   2.260
35130W        W 7445  11.660  36.578   4.763
35131W        W 7446   8.678  41.470   2.404
35132W        W 7447   9.747  41.951   0.873
35133W        W 7448  10.165  13.581   4.475
35134W        W 7449  14.627  22.238   2.813
35135W        W 7450   3.480   0.772   2.985
35136W        W 7451  21.034  14.921   3.112
35137W        W 7452  20.790  25.721  12.011
35138W        W 7453  12.820  44.725   1.319
35139W        W 7454  18.622  10.646  10.515
35140W        W 7455  35.460  16.991  14.302
35141W        W 7456  31.357  13.556  11.430
35142W        W 7457  16.643  27.480   1.161
35143W        W 7458  43.521  39.926   3.904
35144W        W 7459  21.756   6.448   1.607
35145W        W 7460  35.026  41.312   4.627
35146W        W 7461  30.011  34.997  11.355
35147W        W 7462  35.559  28.183   2.371
35148W        W 7463  36.040  17.875  11.129
35149W        W 7464  29.279   9.730   1.967
35150W        W 7465  25.073   4.677   2.759
35151W        W 7466   0.533  12.678  11.072
35152W        W 7467  30.686  15.554  13.326
35153W        W 7468  20.537  33.093   1.790
35154W        W 7469  35.755  18.310  14.438
35155W        W 7470  21.238  12.182  13.586
35156W        W 7471  12.861  44.407   0.790
35157W        W 7472  21.541  13.198  12.881
35158W        W 7473  18.216  18.987  12.067
35159W        W 7474  12.012  24.711  11.563
35160W        W 7475  14.329  25.551  12.352
35161W        W 7476  18.830  38.312  11.481
35162W        W 7477   2.274  43.704  11.011
35163W        W 7478  25.006  33.824   1.247
35164W        W 7479  20.049  42.613   0.419
35165W        W 7480  19.702  18.997   4.250
35166W        W 7481  22.293  43.379   2.419
35167W        W 7482   2.143  43.810  10.517
35168W        W 7483  14.119   6.258  14.832
35169W        W 7484   1.082  34.487   1.241
35170W        W 7485  10.225  33.149   9.985
35171W        W 7486   1.257   4.573  13.338
35172W        W 7487  23.284  15.657   3.927
35173W        W 7488  24.018  40.653   3.129
35174W        W 7489   7.180  27.539   1.011
35175W        W 7490  30.156  30.570  11.037
35176W        W 7491  23.612  35.104  11.190
35177W        W 7492  39.562   1.749   4.100
35178W        W 7493  23.075  23.057  11.931
35179W        W 7494   5.888  35.598   4.710
35180W        W 7495   5.348  36.991  14.962
35181W        W 7496  26.213  18.151   0.245
35182W        W 7497  25.020  20.599  11.673
35183W        W 7498  37.781  33.569   2.765
35184W        W 7499  38.986  31.502   1.880
35185W        W 7500  14.012  16.449   4.843
35186W        W 7501  21.718  32.956  12.301
35187W        W 7502  14.761  43.147   2.801
35188W        W 7503  14.015  12.002  12.527
35189W        W 7504  14.576   6.493  11.107
35190W        W 7505  24.070  19.072  10.192
35191W        W 7506  11.295  21.647  14.458
35192W        W 7507  26.568  34.499   1.171
35193W        W 7508  35.369  40.038   4.351
35194W        W 7509  44.773  39.769   2.881
35195W        W 7510  19.052  29.938   3.600
35196W        W 7511  20.771  35.509   0.718
35197W        W 7512  28.438   8.377  10.386
35198W        W 7513   3.352  41.007   2.189
35199W        W 7514  12.028  26.448  14.823
35200W        W 7515  14.128  19.261  11.794
35201W        W 7516  27.921  42.102   4.872
35202W        W 7517  44.426  18.363  10.653
35203W        W 7518  43.066  13.462  13.829
35204W        W 7519  34.655   1.194  14.349
35205W        W 7520   6.426   5.753   3.882
35206W        W 7521  36.522   3.613   0.295
35207W        W 7522  44.308  18.117  12.363
35208W        W 7523  38.139   0.701   1.788
35209W        W 7524  16.856  20.230  11.278
35210W        W 7525  33.250  29.387   3.224
35211W        W 7526   8.983  40.815   3.280
35212W        W 7527  40.065   3.314   4.947
35213W        W 7528   9.738  32.621   2.709
35214W        W 7529  26.693  13.586  14.221
35215W        W 7530  14.781  26.641  10.272
35216W        W 7531  20.844  40.592   0.176
35217W        W 7532  18.987  36.132  11.029
35218W        W 7533  34.023  15.265  14.872
35219W        W 7534  22.606  28.693  14.360
35220W        W 7535  23.448   5.368   0.913
35221W        W 7536  29.771  19.838   5.076
35222W        W 7537  26.384  11.123  10.631
35223W        W 7538  29.158   1.980   1.811
35224W        W 7539   6.381   4.300  11.866
35225W        W 7540  41.229  28.560   1.308
35226W        W 7541   3.802  34.942   1.326
35227W        W 7542  26.887   7.802   1.931
35228W        W 7543  43.961   1.779  12.597
35229W        W 7544  31.031  11.697  13.560
35230W        W 7545  17.224  22.157  14.433
35231W        W 7546   5.419  10.725  12.034
35232W        W 7547   2.788  37.470   4.599
35233W        W 7548  38.426  31.566   0.025
35234W        W 7549   4.486  43.500  13.897
35235W        W 7550  26.272  28.457   0.169
35236W        W 7551  33.342  21.949   2.314
35237W        W 7552  25.629  27.252  12.004
35238W        W 7553  38.134  16.695   3.199
35239W        W 7554  13.074   7.940   2.269
35240W        W 7555  11.134  43.222   0.311
35241W        W 7556  14.719  43.994  11.586
35242W        W 7557  20.683  22.662   0.977
35243W        W 7558  27.110  28.496   2.336
35244W        W 7559  40.753  28.004  12.901
35245W        W 7560  20.796  15.397  13.505
35246W        W 7561  34.095  42.333  11.118
35247W        W 7562  40.482  32.856  11.577
35248W        W 7563  44.305  28.038   1.829
35249W        W 7564   9.404  44.650   0.415
35250W        W 7565  22.969   0.064   2.247
35251W        W 7566   0.199  29.642  10.483
35252W        W 7567  38.037  42.562  13.917
35253W        W 7568  34.785  44.257   3.706
35254W        W 7569  10.859   5.697   4.991
35255W        W 7570   4.329  18.067   2.673
35256W        W 7571  25.016  44.730   0.453
35257W        W 7572   5.466  36.633  14.289
35258W        W 7573   6.287   6.346   4.119
35259W        W 7574   7.757   2.219   1.357
35260W        W 7575  14.185  27.830   4.135
35261W        W 7576  20.687  27.478  11.496
35262W        W 7577   4.412  20.796   3.763
35263W        W 7578  21.444   5.153   2.589
35264W        W 7579  31.855   3.570   3.716
35265W        W 7580  32.375   8.998  11.099
35266W        W 7581  15.557  39.050   0.815
35267W        W 7582   7.465   3.850   4.605
35268W        W 7583  34.169  28.932   3.167
35269W        W 7584  22.220  36.133   0.821
35270W        W 7585  22.609  31.566   4.892
35271W        W 7586  24.372  16.290   2.888
35272W        W 7587  11.660  28.437   2.237
35273W        W 7588  18.779  19.489  14.223
35274W        W 7589   5.946   5.007   3.697
35275W        W 7590  44.184   4.745  14.925
35276W        W 7591  28.391  42.039   2.236
35277W        W 7592  38.829  19.883  10.539
35278W        W 7593  21.075  35.895  13.533
35279W        W 7594  17.089  34.979   2.291
35280W        W 7595  29.085  41.346  10.904
35281W        W 7596  38.864  43.873  12.578
35282W        W 7597  18.692  37.841  12.914
35283W        W 7598   8.324  12.504  13.899
35284W        W 7599  44.861   6.307   3.853
35285W        W 7600   9.705  36.320   0.030
35286W        W 7601  28.934  17.373  12.078
35287W        W 7602  37.535  23.913  10.395
35288W        W 7603  11.204  26.617   0.435
35289W        W 7604  30.142  34.527   0.021
35290W        W 7605  38.754   7.276   1.440
35291W        W 7606  18.749  21.762  13.929
35292W        W 7607   0.478  25.629   2.718
35293W        W 7608  34.574  10.786   1.423
35294W        W 7609   5.195  26.104   0.282
35295W        W 7610  25.501  23.462  12.562
35296W        W 7611  10.943  12.443   3.253
35297W        W 7612   4.403  14.192  11.705
35298W        W 7613   8.349  14.060  14.796
35299W        W 7614  44.259  22.799   5.066
35300W        W 7615  21.014  12.221  14.038
35301W        W 7616  38.594  15.945   2.336
35302W        W 7617  13.181  32.953   0.700
35303W        W 7618  41.890  32.402   4.680
35304W        W 7619   5.863  13.383   0.031
35305W        W 7620  30.184  14.069   0.486
35306W        W 7621  36.668  36.517   2.700
35307W        W 7622  13.717  44.665   0.976
35308W        W 7623  37.378  13.275  14.778
35309W        W 7624  10.405  15.571  12.388
35310W        W 7625  22.165  24.138   1.371
35311W        W 7626   6.022  13.661   1.167
35312W        W 7627  12.873  35.379  11.789
35313W        W 7628   0.797   1.901   0.692
35314W        W 7629  13.875   4.221  11.617
35315W        W 7630  19.534  26.578   4.134
35316W        W 7631  24.532  42.905  10.701
35317W        W 7632  12.867  32.592  12.836
35318W        W 7633  42.037   6.448   2.781
35319W        W 7634  10.649  17.618  11.003
35320W        W 7635  13.286  36.898   2.228
35321W        W 7636  10.710  32.562   4.648
35322W        W 7637  23.270  18.249  13.611
35323W        W 7638  39.460  25.257  12.896
35324W        W 7639  30.116  18.285  13.528
35325W        W 7640  27.216  31.641  11.294
35326W        W 7641  27.160  27.119   0.868
35327W        W 7642  30.678  12.897   4.813
35328W        W 7643  26.774   9.195   4.650
35329W        W 7644  28.215   3.695   4.429
35330W        W 7645   4.114   0.391  13.824
35331W        W 7646   3.452  34.460  13.347
35332W        W 7647  25.748   0.916   1.202
35333W        W 7648  27.708  19.035   3.734
35334W        W 7649  37.834   6.963  14.763
35335W        W 7650  15.318  24.692  12.993
35336W        W 7651   8.698   8.769  12.913
35337W        W 7652  15.667  20.436  11.560
35338W        W 7653  37.540  22.048   1.496
35339W        W 7654  37.387   9.081   0.535
35340W        W 7655  36.481   5.121  11.857
35341W        W 7656   8.322   9.237  10.705
35342W        W 7657  25.946  37.544   1.412
35343W        W 7658  40.721  33.444  12.962
35344W        W 7659  14.607  39.890   1.245
35345W        W 7660   1.376  43.852   3.756
35346W        W 7661  22.573  15.601  14.370
35347W        W 7662  20.020  31.560  12.953
35348W        W 7663  17.559   2.054  12.404
35349W        W 7664  19.264  13.726  14.361
35350W        W 7665  23.569  40.187  11.219
35351W        W 7666   1.261  20.383   1.799
35352W        W 7667   3.428   7.236   1.186
35353W        W 7668  14.573  33.942   3.173
35354W        W 7669  27.218   9.748  11.866
35355W        W 7670  13.768  11.316   2.362
35356W        W 7671  34.149  21.279   3.776
35357W        W 7672  35.114  34.614  13.487
35358W        W 7673   8.295   9.453   2.351
35359W        W 7674  38.557  36.745  11.879
35360W        W 7675  21.067  40.409   2.769
35361W        W 7676  10.812  26.275  10.664
35362W        W 7677  12.761   4.734  12.383
35363W        W 7678   3.725  41.469  12.989
35364W        W 7679  20.678   5.297   3.379
35365W        W 7680   0.266  30.740  14.835
35366W        W 7681  15.322   7.211  11.429
35367W        W 7682   6.687   8.027   1.231
35368W        W 7683  37.153  25.940  11.474
35369W        W 7684   2.754   8.892  13.933
35370W        W 7685   7.076  44.412  13.046
35371W        W 7686  41.275  44.072  13.107
35372W        W 7687  35.626  22.371   4.147
35373W        W 7688  23.501   6.912   1.694
35374W        W 7689  26.590  25.109   3.646
35375W        W 7690  24.046   8.415   1.328
35376W        W 7691   5.933  25.857   3.746
35377W        W 7692   5.268  25.238   1.904
35378W        W 7693   3.480  24.721  11.049
35379W        W 7694  25.540   9.705   1.971
35380W        W 7695  39.063  24.594   2.420
35381W        W 7696  38.407  13.058   1.733
35382W        W 7697  24.050  36.767   0.417
35383W        W 7698  26.447  11.824   0.859
35384W        W 7699  28.537   7.408  12.462
35385W        W 7700   3.812  12.805   0.255
35386W        W 7701  18.155  25.551   2.706
35387W        W 7702  43.937  40.361  11.700
35388W        W 7703   9.664  29.380   3.951
35389W        W 7704  26.479   6.019   4.342
35390W        W 7705  32.587  37.889  12.935
35391W        W 7706   8.840   8.145  11.216
35392W        W 7707   6.421  23.495  10.934
35393W        W 7708   8.524  21.436   4.719
35394W        W 7709   8.689  28.572  14.813
35395W        W 7710  18.080  12.916   1.991
35396W        W 7711   7.365  23.807   1.821
35397W        W 7712  44.818  39.080   2.410
35398W        W 7713  38.958  10.446   0.464
35399W        W 7714   5.858  13.761  13.746
35400W        W 7715  42.497  21.100   0.024
35401W        W 7716  11.368  10.894  12.448
35402W        W 7717  26.516  25.515   2.220
35403W        W 7718  39.085  28.116  14.986
35404W        W 7719  33.074  16.239  12.990
35405W        W 7720  42.282  12.730   0.342
35406W        W 7721  11.246  44.774   3.340
35407W        W 7722  21.137  34.647  14.271
35408W        W 7723  42.434   1.802  14.367
35409W        W 7724  17.053  14.176   3.266
35410W        W 7725   0.918   4.393  12.998
35411W        W 7726   5.301  15.527   1.513
35412W        W 7727  40.764  14.052   0.363
35413W        W 7728   9.679  23.763   3.421
35414W        W 7729  30.135   2.791   1.063
35415W        W 7730  31.653  21.458   1.351
35416W        W 7731   1.305  15.920   0.900
35417W        W 7732  22.972  17.981   3.102
35418W        W 7733  30.530  24.999   3.247
35419W        W 7734  34.645  20.194  14.083
35420W        W 7735  22.266  19.636   5.507
35421W        W 7736  44.909  17.581  10.675
35422W        W 7737  10.395  39.318   3.874
35423W        W 7738   9.268  42.059  14.838
35424W        W 7739  44.866   6.885  13.009
35425W        W 7740  26.186  31.856  13.821
35426W        W 7741   9.182  34.083  13.929
35427W        W 7742  38.336   9.822   0.769
35428W        W 7743  38.173  11.782  11.266
35429W        W 7744   3.115  23.981   3.771
35430W        W 7745  36.145  23.118   0.584
35431W        W 7746  27.534  42.617   2.650
35432W        W 7747  42.967  23.741   4.324
35433W        W 7748  42.801  44.545   0.481
35434W        W 7749  10.408  43.983  11.305
35435W        W 7750  32.697  16.540  14.304
35436W        W 7751  14.468   2.798  12.455
35437W        W 7752   9.105  20.584  14.783
35438W        W 7753  34.494  34.565   1.881
35439W        W 7754  14.265  41.011  13.856
35440W        W 7755   2.960  41.423   0.963
35441W        W 7756  16.166   2.670   0.995
35442W        W 7757  33.002  17.814   2.648
35443W        W 7758  24.559  35.067  10.966
35444W        W 7759  11.822   8.939   1.272
35445W        W 7760  19.671  33.247   5.148
35446W        W 7761   1.721  26.146   3.691
35447W        W 7762   1.235  22.148   4.621
35448W        W 7763  41.071  22.076   4.739
35449W        W 7764  25.035  29.026   0.257
35450W        W 7765   1.670  31.054  13.492
35451W        W 7766  19.551  26.153   4.717
35452W        W 7767   1.728  31.940   3.338
35453W        W 7768  39.792   2.387  12.091
35454W        W 7769  22.133  39.743  14.978
35455W        W 7770  35.982  35.383   2.218
35456W        W 7771  42.189   8.256   4.056
35457W        W 7772  11.833   7.181  12.618
35458W        W 7773  22.588   0.287   0.244
35459W        W 7774  40.464  28.745  13.163
35460W        W 7775  41.242  27.522  13.513
35461W        W 7776  19.472  20.747   0.293
35462W        W 7777  35.984  15.212   2.210
35463W        W 7778   5.199   2.983   0.467
35464W        W 7779  23.662  22.584   5.256
35465W        W 7780  16.336  44.330   4.343
35466W        W 7781   1.426  22.184  14.701
35467W        W 7782  20.493   0.549   1.751
35468W        W 7783  17.939  28.023   4.603
35469W        W 7784  11.705  43.762   1.704
35470W        W 7785  21.184  28.687   2.818
35471W        W 7786   9.331  16.271  12.171
35472W        W 7787  12.711  19.059   2.710
35473W        W 7788   4.077  20.817   3.347
35474W        W 7789   0.451   2.266  13.095
35475W        W 7790   1.293  27.040  12.488
35476W        W 7791  38.984  37.307   3.235
35477W        W 7792   1.844  27.078  10.689
35478W        W 7793  40.498  29.209   2.935
35479W        W 7794  14.838  40.358   2.384
35480W        W 7795  33.029  17.544  13.560
35481W        W 7796  27.186   6.881   5.867
35482W        W 7797  12.221  43.078   4.927
35483W        W 7798  42.086  10.490   2.156
35484W        W 7799  22.088   7.624   4.520
35485W        W 7800  24.249  21.377  12.928
35486W        W 7801  11.448  15.369   3.592
35487W        W 7802  20.930  24.492   4.888
35488W        W 7803  17.796  42.890   1.724
35489W        W 7804  38.504  36.862  14.859
35490W        W 7805  35.540  15.228  13.718
35491W        W 7806  16.290   7.682   4.157
35492W        W 7807  20.164  42.324  12.255
35493W        W 7808  12.175  26.802   2.773
35494W        W 7809  16.830   5.881   4.237
35495W        W 7810  24.167  41.844   2.794
35496W        W 7811   3.280  44.800  10.578
35497W        W 7812  11.771  22.758  12.554
35498W        W 7813  32.976  30.967   4.245
35499W        W 7814  42.409  14.772   1.380
35500W        W 7815  44.284  26.094  13.302
35501W        W 7816  16.802  42.666   0.596
35502W        W 7817  29.720  40.808   0.306
35503W        W 7818   3.441  19.884  11.104
35504W        W 7819   2.263  18.335   2.826
35505W        W 7820   1.747  20.685   4.949
35506W        W 7821  14.029   0.283  13.803
35507W        W 7822  16.710   6.893   4.129
35508W        W 7823   8.890  36.876   4.797
35509W        W 7824  38.396  25.384   1.581
35510W        W 7825  33.487  32.147   1.940
35511W        W 7826  39.055  32.222   4.517
35512W        W 7827   7.378  31.458   2.852
35513W        W 7828  33.228  12.706   3.832
35514W        W 7829  42.378   2.191   0.763
35515W        W 7830  12.729  35.009   1.226
35516W        W 7831  37.023  37.353  12.343
35517W        W 7832  35.014  36.538   0.195
35518W        W 7833  17.686  14.049   1.361
35519W        W 7834  28.410   7.912   0.169
35520W        W 7835  30.065   6.276  14.333
35521W        W 7836  28.322  17.340   0.500
35522W        W 7837  27.921  10.760   2.465
35523W        W 7838  22.020  30.864  14.789
35524W        W 7839  15.021  37.511  10.764
35525W        W 7840  25.128  16.224  10.810
35526W        W 7841  13.164  38.502   0.052
35527W        W 7842  10.132  43.286   2.229
35528W        W 7843  13.918  25.978   4.445
35529W        W 7844  26.423  38.474   1.952
35530W        W 7845  29.357  38.289  13.034
35531W        W 7846   6.197  34.555   4.004
35532W        W 7847  40.097  42.351   4.609
35533W        W 7848  34.846  22.802  12.632
35534W        W 7849  15.310  35.546  14.787
35535W        W 7850  43.471  32.112   3.036
35536W        W 7851  36.391  31.984  12.573
35537W        W 7852  13.210  18.016   1.422
35538W        W 7853  18.255  38.010   1.161
35539W        W 7854  23.753  21.704  13.920
35540W        W 7855   5.202  20.154   0.602
35541W        W 7856  16.855  15.297   0.517
35542W        W 7857  14.723  37.303  12.965
35543W        W 7858   0.867  23.192  11.065
35544W        W 7859  30.143  21.720   4.544
35545W        W 7860   9.286  31.569   1.330
35546W        W 7861  24.965  26.986  11.364
35547W        W 7862  29.946  33.569  10.954
35548W        W 7863   0.314   8.612   4.677
35549W        W 7864  21.331   2.892  14.399
35550W        W 7865  35.913   1.267  12.115
35551W        W 7866  43.867   2.076   3.179
35552W        W 7867  41.621  24.321  11.437
35553W        W 7868  22.999  31.846   0.896
35554W        W 7869  10.501  25.766  11.928
35555W        W 7870  22.120  31.354  11.398
35556W        W 7871   7.383  43.568  12.815
35557W        W 7872  24.746   5.387   1.360
35558W        W 7873   6.320  12.440  11.449
35559W        W 7874   9.392   1.386   2.851
35560W        W 7875   9.907   3.261   4.536
35561W        W 7876  16.304  36.441  14.923
35562W        W 7877  35.708  15.062  14.779
35563W        W 7878  10.685  35.022   1.236
35564W        W 7879  17.701   5.908  14.422
35565W        W 7880  44.985  35.691  12.453
35566W        W 7881  23.294  19.241  14.586
35567W        W 7882   1.531  22.626   3.905
35568W        W 7883  11.666  29.536  10.379
35569W        W 7884  40.770  34.953  11.082
35570W        W 7885  34.178   3.932   4.317
35571W        W 7886  39.579  14.557   1.567
35572W        W 7887  11.685   1.773  11.113
35573W        W 7888   6.733  25.337   3.692
35574W        W 7889   8.722   3.764   4.499
35575W        W 7890  35.004  39.820   1.643
35576W        W 7891   8.775   7.835   2.340
35577W        W 7892   8.680  32.218   3.235
35578W        W 7893  23.733  15.629  11.504
35579W        W 7894   4.296  21.912   1.292
35580W        W 7895  32.681  12.497  14.527
35581W        W 7896  24.237  20.577   0.515
35582W        W 7897  19.305   0.222   3.326
35583W        W 7898  27.714  17.554   4.442
35584W        W 7899   1.027   2.273  11.023
35585W        W 7900  37.571  26.975  13.042
35586W        W 7901  35.958  27.566   2.125
35587W        W 7902  41.456   2.898  14.362
35588W        W 7903  10.082  31.130  10.610
35589W        W 7904   5.349  38.723  11.584
35590W        W 7905   5.786  22.557  12.163
35591W        W 7906  26.748  22.044  12.884
35592W        W 7907  29.929   5.937   0.700
35593W        W 7908  16.482  13.300  11.440
35594W        W 7909  14.371   1.190   4.173
35595W        W 7910  21.924   6.425  13.382
35596W        W 7911   7.122  43.327   4.785
35597W        W 7912  19.623   8.690   2.921
35598W        W 7913  14.107  44.267   1.306
35599W        W 7914  21.436  29.369   0.576
35600W        W 7915  42.369  44.435   1.464
35601W        W 7916   4.078  38.332  12.452
35602W        W 7917  29.674  24.047  14.425
35603W        W 7918  22.720  33.036   2.837
35604W        W 7919  30.178   3.776   4.678
35605W        W 7920   2.248  23.501  13.572
35606W        W 7921  23.682  18.245   4.396
35607W        W 7922  28.970  43.535   3.566
35608W        W 7923  26.029  26.526  12.962
35609W        W 7924   2.329   1.960  13.366
35610W        W 7925  29.430  42.806   4.094
35611W        W 7926  24.057  35.110  13.286
35612W        W 7927  43.982  14.275  11.128
35613W        W 7928  19.124  19.718  10.723
35614W        W 7929   3.136  29.066   0.190
35615W        W 7930  24.752   8.681  12.892
35616W        W 7931   1.151   5.139   3.688
35617W        W 7932  12.247  40.986   3.671
35618W        W 7933  13.066  25.724   3.376
35619W        W 7934  19.234  31.562   2.904
35620W        W 7935   8.315  43.298   1.698
35621W        W 7936   1.662  14.012  11.560
35622W        W 7937  37.392   0.388  13.339
35623W        W 7938  22.423   3.907  14.602
35624W        W 7939  44.946   2.395   0.753
35625W        W 7940   4.132  43.040  12.572
35626W        W 7941  38.522  34.418   1.380
35627W        W 7942   7.721   8.667  12.130
35628W        W 7943   0.727  43.204  13.971
35629W        W 7944  13.652   2.723   0.447
35630W        W 7945  26.573  24.295  13.856
35631W        W 7946  20.181   8.883   4.586
35632W        W 7947   7.250   9.160  13.461
35633W        W 7948  13.876  17.773   4.505
35634W        W 7949  33.881   5.222   1.244
35635W        W 7950   8.989  34.621  12.233
35636W        W 7951  36.943  36.710   1.676
35637W        W 7952  44.964   3.445  10.481
35638W        W 7953  33.631  18.105   3.721
35639W        W 7954   5.630  40.844   0.869
35640W        W 7955  26.236  33.510  11.725
35641W        W 7956  22.754  11.081   4.529
35642W        W 7957  23.013  15.825   3.520
35643W        W 7958  44.364  10.196  12.037
35644W        W 7959  40.051  34.459   1.400
35645W        W 7960  37.276  14.332  14.747
35646W        W 7961   7.144  26.332   4.535
35647W        W 7962  33.699   1.024  12.483
35648W        W 7963  29.474  25.022  11.139
35649W        W 7964  41.015  40.353   4.109
35650W        W 7965   5.210  26.061  14.744
35651W        W 7966   5.424  28.473   2.158
35652W        W 7967  27.658   7.826  10.853
35653W        W 7968  25.397  34.144   3.420
35654W        W 7969  44.951  23.463   1.786
35655W        W 7970  42.428  40.600  12.218
35656W        W 7971   0.692  37.850  14.709
35657W        W 7972  44.738   1.851  14.782
35658W        W 7973  18.008  25.533   0.346
35659W        W 7974  37.331   9.097  11.496
35660W        W 7975  31.124  13.050  10.294
35661W        W 7976   9.344  36.964  10.924
35662W        W 7977  14.281  33.614  12.071
35663W        W 7978   7.197  16.534  12.843
35664W        W 7979   5.762  44.918  12.799
35665W        W 7980  16.590   4.821  13.562
35666W        W 7981   9.372  31.059   4.806
35667W        W 7982   3.853   8.667   2.437
35668W        W 7983  16.661  14.825   0.464
35669W        W 7984  35.470  17.599   2.710
35670W        W 7985  24.160  13.742  14.856
35671W        W 7986  25.477  35.031   2.642
35672W        W 7987  20.747  16.666   1.383
35673W        W 7988   4.156   0.812  13.485
35674W        W 7989  25.341   9.101   0.845
35675W        W 7990  30.478  35.157  11.458
35676W        W 7991  28.247   1.765  10.393
35677W        W 7992  35.555  28.486   0.998
35678W        W 7993  30.037  11.330   0.000
35679W        W 7994   4.791  43.820   3.520
35680W        W 7995  17.380  39.248  11.465
35681W        W 7996  12.219  42.848  10.494
35682W        W 7997   6.703  14.569   3.384
35683W        W 7998  23.651   3.367   1.799
35684W        W 7999  12.098  31.905   9.792
35685W        W 8000  42.503   8.795   5.235
35686W        W 8001  15.179  44.085   2.885
35687W        W 8002  35.442  44.004   0.190
35688W        W 8003   6.361  37.964   1.111
35689W        W 8004  22.964   8.826  14.008
35690W        W 8005  35.584  20.109  13.097
35691W        W 8006   4.479  36.878  11.518
35692W        W 8007  38.157  36.784   3.571
35693W        W 8008  40.570  40.079   4.192
35694W        W 8009  25.023  18.255  14.878
35695W        W 8010  17.755  39.634   3.344
35696W        W 8011  15.345  30.557  11.017
35697W        W 8012  29.056  13.532   2.197
35698W        W 8013  30.469  17.883  11.223
35699W        W 8014  26.095  13.263   1.929
35700W        W 8015  36.963  32.670  10.793
35701W        W 8016   4.868  10.672   3.012
35702W        W 8017   9.625  13.426  10.616
35703W        W 8018  27.100  17.255   4.950
35704W        W 8019  18.535  29.128  12.942
35705W        W 8020   5.366  33.482   3.297
35706W        W 8021  20.603  27.349   1.451
35707W        W 8022  17.244  28.230  13.414
35708W        W 8023   0.928   4.492   1.350
35709W        W 8024  12.928  12.091   0.129
35710W        W 8025   4.132  13.573  14.768
35711W        W 8026  28.703   1.062   4.672
35712W        W 8027  21.781  21.175   3.077
35713W        W 8028   3.166  39.528   2.817
35714W        W 8029  37.996   0.965   4.138
35715W        W 8030   0.380  27.377   0.362
35716W        W 8031  28.295  10.588   2.790
35717W        W 8032  38.523  19.072  13.414
35718W        W 8033  44.845  23.496  12.507
35719W        W 8034  14.676   7.149   4.236
35720W        W 8035  30.638   3.360   2.931
35721W        W 8036  15.763  26.055  13.882
35722W        W 8037  30.697  28.358   3.305
35723W        W 8038  33.837  34.965   3.849
35724W        W 8039  21.194  39.908  12.552
35725W        W 8040  17.768  18.560   0.525
35726W        W 8041  16.779  15.946  10.986
35727W        W 8042  34.518  38.067   3.299
35728W        W 8043   5.378  26.575   0.513
35729W        W 8044  37.293  26.976  10.627
35730W        W 8045  22.046  36.918  11.585
35731W        W 8046   5.805  12.722   2.812
35732W        W 8047  20.582  13.611  13.607
35733W        W 8048  40.886   7.737  11.580
35734W        W 8049   1.747  11.396   0.698
35735W        W 8050   0.287  31.542   4.463
35736W        W 8051   4.639   6.145   2.770
35737W        W 8052  21.602   7.343   4.592
35738W        W 8053   3.776  19.626  13.419
35739W        W 8054  11.204   8.900   1.841
35740W        W 8055  19.053  17.650  12.301
35741W        W 8056  13.579  21.067   1.634
35742W        W 8057  25.881  19.908  14.051
35743W        W 8058  11.756   3.438  13.986
35744W        W 8059  32.938  16.170  13.994
35745W        W 8060   5.276  10.860   2.215
35746W        W 8061   7.264  44.091   2.932
35747W        W 8062  22.181  43.510   3.738
35748W        W 8063  14.870  41.392  13.365
35749W        W 8064  34.873  24.296  13.522
35750W        W 8065  41.435  14.146  11.138
35751W        W 8066  39.083  38.719   3.847
35752W        W 8067   4.685  39.664  10.375
35753W        W 8068  23.306  44.040   4.225
35754W        W 8069  42.600   4.156   0.840
35755W        W 8070  42.727  25.658  12.151
35756W        W 8071  29.243  35.788   4.246
35757W        W 8072   3.728  41.319  13.489
35758W        W 8073  21.926  12.830   4.921
35759W        W 8074  32.548   7.266  12.968
35760W        W 8075  11.786   4.541   4.546
35761W        W 8076  13.812  44.514  13.405
35762W        W 8077  10.920   6.855  13.377
35763W        W 8078  10.329  25.907   2.397
35764W        W 8079  38.826   1.760  13.660
35765W        W 8080  25.157  39.570   1.845
35766W        W 8081  26.542  41.821   3.723
35767W        W 8082   8.324  16.220   1.444
35768W        W 8083   2.189   8.333   2.314
35769W        W 8084  19.665  14.848  13.867
35770W        W 8085  43.555   4.668  11.127
35771W        W 8086  17.312  40.027  14.079
35772W        W 8087  43.075  22.249   3.309
35773W        W 8088  30.030  39.843   1.477
35774W        W 8089  25.592  43.321  13.139
35775W        W 8090  13.122   8.847   2.297
35776W        W 8091  17.180   1.834  10.235
35777W        W 8092  43.451   2.248   2.811
35778W        W 8093  43.543  35.234   1.296
35779W        W 8094   3.447   4.072  12.109
35780W        W 8095  41.909  13.409  11.250
35781W        W 8096  35.377  19.355  10.817
35782W        W 8097  10.160  35.877  12.069
35783W        W 8098  27.301  11.196  10.150
35784W        W 8099   0.488  37.634  13.524
35785W        W 8100  10.265   6.915  14.982
35786W        W 8101  29.585   7.775   1.944
35787W        W 8102   5.448  39.170  10.811
35788W        W 8103   0.984  23.931   0.758
35789W        W 8104   1.438  27.780  13.638
35790W        W 8105  29.621  10.649  14.705
35791W        W 8106  23.582  13.322   0.698
35792W        W 8107  13.397  14.327  14.257
35793W        W 8108  13.313   3.277   0.755
35794W        W 8109  13.008   8.966  12.452
35795W        W 8110  43.935  43.021   4.109
35796W        W 8111  14.557  40.276  14.707
35797W        W 8112  40.327  15.157   4.426
35798W        W 8113  21.147  39.514  12.216
35799W        W 8114  40.085   4.949  10.603
35800W        W 8115  16.869  33.942   1.792
35801W        W 8116   1.570  12.408   2.869
35802W        W 8117  31.003  10.380  13.986
35803W        W 8118  26.710  31.123  11.910
35804W        W 8119  32.761  35.988   1.802
35805W        W 8120  38.943  11.132  11.544
35806W        W 8121  11.934  23.817   2.574
35807W        W 8122   8.954  27.655  13.731
35808W        W 8123  19.141   8.633  12.061
35809W        W 8124   2.340  34.614   0.537
35810W        W 8125   5.199  31.696   0.909
35811W        W 8126  39.540  26.272   3.524
35812W        W 8127  33.120  24.137  11.332
35813W        W 8128  39.257  36.157  14.522
35814W        W 8129  33.133  29.884   1.370
35815W        W 8130   4.453  38.931   2.863
35816W        W 8131   2.500  18.173   1.779
35817W        W 8132  10.210  32.927   0.266
35818W        W 8133  11.219  34.895  12.654
35819W        W 8134  42.268  37.911  11.156
35820W        W 8135   9.916  30.779  12.266
35821W        W 8136   0.919   6.796  12.058
35822W        W 8137  38.805   8.905   3.121
35823W        W 8138  17.006  30.384   4.078
35824W        W 8139  21.771  24.111  12.813
35825W        W 8140   9.746  14.772   4.748
35826W        W 8141   7.893  36.427   3.210
35827W        W 8142   5.012  25.508   4.103
35828W        W 8143   4.250  30.866  10.923
35829W        W 8144   6.769   6.100   5.037
35830W        W 8145   1.606  38.051  12.261
35831W        W 8146   0.392  18.884   4.206
35832W        W 8147  44.787  32.362   1.855
35833W        W 8148   3.363  29.094  12.529
35834W        W 8149  13.758   6.953  11.228
35835W        W 8150  37.329   8.507  10.360
35836W        W 8151  36.481   4.777   4.011
35837W        W 8152  22.889  32.500   0.228
35838W        W 8153   7.069  36.517   1.674
35839W        W 8154  42.291  14.327   3.680
35840W        W 8155   3.458  12.394  14.930
35841W        W 8156  13.339  11.648   4.617
35842W        W 8157  23.735   6.123  11.194
35843W        W 8158  28.750  37.939   0.942
35844W        W 8159  32.976  14.287   0.259
35845W        W 8160  42.051   8.974   0.436
35846W        W 8161  25.017  12.015  11.210
35847W        W 8162  32.891  21.123   4.223
35848W        W 8163   0.644   3.330  13.320
35849W        W 8164  40.589   6.299   3.001
35850W        W 8165  35.818  18.156   4.524
35851W        W 8166  24.255   0.230  14.399
35852W        W 8167  22.465  20.653   3.897
35853W        W 8168  35.601   8.930   2.277
35854W        W 8169   1.690   5.410  13.332
35855W        W 8170  17.731  11.062  14.888
35856W        W 8171  15.722  10.843  12.907
35857W        W 8172  10.349  38.856  10.682
35858W        W 8173  40.005  41.332   1.154
35859W        W 8174  16.972  39.267   2.295
35860W        W 8175  18.002  31.092   2.470
35861W        W 8176  15.690  13.251  14.314
35862W        W 8177  34.519  31.931   2.141
35863W        W 8178  27.537  31.516   2.444
35864W        W 8179  36.930   5.111   4.062
35865W        W 8180  39.994   3.411   0.940
35866W        W 8181  17.729  30.630  10.904
35867W        W 8182  30.846  34.665  14.309
35868W        W 8183  29.276  39.776  13.189
35869W        W 8184  24.283  37.031  11.997
35870W        W 8185  21.184  22.083  12.123
35871W        W 8186  18.586  13.357  12.144
35872W        W 8187  39.577  18.682   3.212
35873W        W 8188   0.466   7.882   4.201
35874W        W 8189  44.213  29.182  11.102
35875W        W 8190  43.732  38.004   1.139
35876W        W 8191  36.959   0.066  12.520
35877W        W 8192  34.780   9.822   1.679
35878W        W 8193  24.706  44.504   4.600
35879W        W 8194  22.013  15.206   4.025
35880W        W 8195  12.653  34.590   2.136
35881W        W 8196  31.039  44.994   1.972
35882W        W 8197  44.454  27.600  11.325
35883W        W 8198  16.610  16.896  12.922
35884W        W 8199   6.191  44.015  14.076
35885W        W 8200  40.964  22.538   2.410
35886W        W 8201  18.190   2.933  11.149
35887W        W 8202  40.497  11.046  13.022
35888W        W 8203  43.444  33.832  13.946
35889W        W 8204  17.165  29.052   0.304
35890W        W 8205  21.497  38.051  14.575
35891W        W 8206  43.058  22.477  10.657
35892W        W 8207   0.411  14.443   4.045
35893W        W 8208  20.002  23.007  11.020
35894W        W 8209   1.182  17.771   1.789
35895W        W 8210  11.351  21.013  10.482
35896W        W 8211   2.634  24.405   3.180
35897W        W 8212  38.719   6.250   3.738
35898W        W 8213  40.356  33.559  14.980
35899W        W 8214  22.576  12.402  11.620
35900W        W 8215  35.285  28.634  11.491
35901W        W 8216  28.886   6.984  11.580
35902W        W 8217  24.610  20.297  12.209
35903W        W 8218  27.180  33.907  11.420
35904W        W 8219   8.400  11.854  13.428
35905W        W 8220   4.178  33.398   1.859
35906W        W 8221  28.011  34.992   3.728
35907W        W 8222  29.652  24.679  10.076
35908W        W 8223  13.226  38.030   2.590
35909W        W 8224  21.021  34.488  13.776
35910W        W 8225  39.047  34.524   4.115
35911W        W 8226  10.658  31.478   2.334
35912W        W 8227  43.670   7.398  11.596
35913W        W 8228  44.437  42.526  12.065
35914W        W 8229  28.190  18.652   0.256
35915W        W 8230  25.689   9.251   3.743
35916W        W 8231  21.174   4.230   1.204
35917W        W 8232  22.114  30.177   1.802
35918W        W 8233  41.514  11.553   3.839
35919W        W 8234  34.424  28.081   1.533
35920W        W 8235   8.362  16.057  13.560
35921W        W 8236  27.981   7.889   5.071
35922W        W 8237  24.789  25.710  12.741
35923W        W 8238  11.460  22.598   3.583
35924W        W 8239  24.426  43.931   0.237
35925W        W 8240  21.460  30.812   2.419
35926W        W 8241  21.249  41.237  13.161
35927W        W 8242  17.307   8.700  10.568
35928W        W 8243   3.662  11.828   0.183
35929W        W 8244  22.590  33.485  11.129
35930W        W 8245  20.420   3.187   3.754
35931W        W 8246  31.477  20.045  11.179
35932W        W 8247  21.418  32.916   2.643
35933W        W 8248  25.430  40.224  11.064
35934W        W 8249  36.911  43.298  14.046
35935W        W 8250  35.419  26.998   0.039
35936W        W 8251  25.639  35.376  10.687
35937W        W 8252   5.685  16.115  13.824
35938W        W 8253  37.900  41.910   0.221
35939W        W 8254  39.886  43.922   2.854
35940W        W 8255   5.843  12.295   4.574
35941W        W 8256  40.261   6.250  13.143
35942W        W 8257   6.120  13.399  10.996
35943W        W 8258   0.797  35.399   1.044
35944W        W 8259  26.646  23.047   0.718
35945W        W 8260  31.129  34.816  12.069
35946W        W 8261   8.608  11.253   4.580
35947W        W 8262   8.324  34.986  14.247
35948W        W 8263  31.607   9.529   3.025
35949W        W 8264   9.071  19.520  14.491
35950W        W 8265  36.860  12.408  11.971
35951W        W 8266  24.027   0.285  13.606
35952W        W 8267  13.679   8.852  11.979
35953W        W 8268   1.676  24.282   1.334
35954W        W 8269   6.699   6.309  14.476
35955W        W 8270   1.455  40.895  10.676
35956W        W 8271  26.622  30.624   4.116
35957W        W 8272  33.483  23.684  13.507
35958W        W 8273  41.162  37.423   5.189
35959W        W 8274  21.644  30.401   1.730
35960W        W 8275  40.508  19.259  10.969
35961W        W 8276   2.736   5.868  12.126
35962W        W 8277  20.135  15.303  11.986
35963W        W 8278  11.092  26.933   0.020
35964W        W 8279  33.183  38.054  11.838
35965W        W 8280  12.093   2.964   0.862
35966W        W 8281   0.552   2.625   3.240
35967W        W 8282   9.193  13.775  11.872
35968W        W 8283  26.099  27.013  13.184
35969W        W 8284  37.884  27.576   3.475
35970W        W 8285  14.098  19.137   4.569
35971W        W 8286  25.697  23.621  11.693
35972W        W 8287  26.283   6.753  14.793
35973W        W 8288  27.471  23.650   1.309
35974W        W 8289   7.845  41.517  10.785
35975W        W 8290  43.892  25.326  14.085
35976W        W 8291  10.220  28.138   3.726
35977W        W 8292  37.314   2.114  10.588
35978W        W 8293   5.017   6.735   1.903
35979W        W 8294  15.102  32.293   1.148
35980W        W 8295   5.310  31.642  12.481
35981W        W 8296  11.670  38.527  13.261
35982W        W 8297   5.736  11.140  10.436
35983W        W 8298  35.112   6.275   2.322
35984W        W 8299  41.348  18.733  14.431
35985W        W 8300  29.561  30.188   1.913
35986W        W 8301  21.057  30.191   3.699
35987W        W 8302  25.625  40.802   4.212
35988W        W 8303  23.672  17.591  12.541
35989W        W 8304  10.867  10.209   4.527
35990W        W 8305  32.452  17.338  12.154
35991W        W 8306  30.627  21.606  12.220
35992W        W 8307  13.295  11.379   1.205
35993W        W 8308  41.345  16.214  13.838
35994W        W 8309  25.017  39.463  10.476
35995W        W 8310  29.908   6.593  13.261
35996W        W 8311  19.641  29.150   0.790
35997W        W 8312  23.592  40.037   2.320
35998W        W 8313  10.275  29.835   1.943
35999W        W 8314  39.528  25.105  14.234
36000W        W 8315  16.252  29.515   2.140
36001W        W 8316   0.054  31.222  14.044
36002W        W 8317  31.193  27.856  12.458
36003W        W 8318  22.908  17.156   1.490
36004W        W 8319   5.421  40.664  11.584
36005W        W 8320  35.037   8.958  11.056
36006W        W 8321  38.927   8.797  14.046
36007W        W 8322  11.265  43.247   4.310
36008W        W 8323  40.352   4.878  11.503
36009W        W 8324  23.633  37.883  12.976
36010W        W 8325   3.511  33.356   4.159
36011W        W 8326  42.510  21.723   1.816
36012W        W 8327   5.232  41.250   5.249
36013W        W 8328  19.432  28.768   2.834
36014W        W 8329   5.797  21.022  12.950
36015W        W 8330  11.214  40.506  10.592
36016W        W 8331   3.920  31.419   0.730
36017W        W 8332  13.089   3.270   1.213
36018W        W 8333  40.810  33.117   3.159
36019W        W 8334  42.391  35.345  13.061
36020W        W 8335  16.238  33.597   3.765
36021W        W 8336   2.412   1.809  14.463
36022W        W 8337  12.759  34.075  14.997
36023W        W 8338  10.833  24.182  12.871
36024W        W 8339  28.484  41.561  11.693
36025W        W 8340  19.771   8.426   0.869
36026W        W 8341  26.469   2.178   3.805
36027W        W 8342  28.287  19.723  13.543
36028W        W 8343  11.389  28.640  10.638
36029W        W 8344   4.442  40.994  10.566
36030W        W 8345  14.065  29.005  12.158
36031W        W 8346  40.797  24.030  11.949
36032W        W 8347  32.501  31.387   4.481
36033W        W 8348  27.423  18.294  14.379
36034W        W 8349  18.606  34.609   3.150
36035W        W 8350   3.846  15.170   1.788
36036W        W 8351   5.520   6.774   1.843
36037W        W 8352  23.425  28.159   2.761
36038W        W 8353   0.320   0.762  10.988
36039W        W 8354  20.252  30.002   4.106
36040W        W 8355  17.367  15.632  14.255
36041W        W 8356  41.946  31.457   4.997
36042W        W 8357   0.480  43.289  12.146
36043W        W 8358  18.817  10.863  11.845
36044W        W 8359  30.587  12.280   2.432
36045W        W 8360   3.302   6.654  12.097
36046W        W 8361   6.268  16.770  12.885
36047W        W 8362  23.265  24.876   4.947
36048W        W 8363  23.001  37.800  11.598
36049W        W 8364  24.000  28.433  13.025
36050W        W 8365  27.986  34.632  14.658
36051W        W 8366  11.301   8.414   2.763
36052W        W 8367  16.771  36.831  11.208
36053W        W 8368  40.626  20.669  14.963
36054W        W 8369   4.071   7.865  14.789
36055W        W 8370  27.098   7.672  10.572
36056W        W 8371  18.068  39.326  10.764
36057W        W 8372  27.374  40.230  11.244
36058W        W 8373  27.962  22.835   2.762
36059W        W 8374  30.527  11.598   2.594
36060W        W 8375   1.638  44.281   3.607
36061W        W 8376  32.147  38.296   4.524
36062W        W 8377   2.557  23.938  13.426
36063W        W 8378  33.878  33.146  14.373
36064W        W 8379  26.667  12.226  12.405
36065W        W 8380  38.065  36.977   4.493
36066W        W 8381   0.748   1.675  14.827
36067W        W 8382  12.324  10.113   3.646
36068W        W 8383  35.519  28.230   4.304
36069W        W 8384  32.430   6.122   4.188
36070W        W 8385  28.136  22.742  14.935
36071W        W 8386  39.309  28.925  12.755
36072W        W 8387  44.895  15.321   0.302
36073W        W 8388  16.613   2.265  14.596
36074W        W 8389  11.703  13.315  11.475
36075W        W 8390  18.506  31.737   0.254
36076W        W 8391  17.148  35.339  13.517
36077W        W 8392   8.829  31.203   1.745
36078W        W 8393  38.263  18.561   0.946
36079W        W 8394  39.955  25.375  12.828
36080W        W 8395  17.868  25.637  11.506
36081W        W 8396  23.758  12.760   1.413
36082W        W 8397  36.518  20.999  13.304
36083W        W 8398  21.347  29.566  13.614
36084W        W 8399  13.655  24.380   1.269
36085W        W 8400  13.078  33.433  13.501
36086W        W 8401   9.611  19.847  12.431
36087W        W 8402  36.493  28.149  10.594
36088W        W 8403  44.427  17.662   4.324
36089W        W 8404   1.922  30.174  14.726
36090W        W 8405  18.498   4.517   3.132
36091W        W 8406  33.613   3.178   3.312
36092W        W 8407  34.531  38.920  11.427
36093W        W 8408  40.499  12.608  12.228
36094W        W 8409  35.778  34.468  12.186
36095W        W 8410  44.317  43.458   3.242
36096W        W 8411  41.507  39.006   4.920
36097W        W 8412  16.612  11.829   3.444
36098W        W 8413   8.364  29.226   3.750
36099W        W 8414   2.277  41.426   0.344
36100W        W 8415  39.880  16.043  13.003
36101W        W 8416  10.915  17.096   2.759
36102W        W 8417   5.440  11.566   1.146
36103W        W 8418  15.428  41.315  11.953
36104W        W 8419   8.337  14.157   2.301
36105W        W 8420   7.871   4.296   1.396
36106W        W 8421  42.543  23.260   1.754
36107W        W 8422  30.503  26.713   1.264
36108W        W 8423  16.610  25.008   1.899
36109W        W 8424  40.352  23.200  12.686
36110W        W 8425   6.920  41.043   1.832
36111W        W 8426  22.636  42.459   3.860
36112W        W 8427  10.071   6.899   9.610
36113W        W 8428   7.457  41.869  12.078
36114W        W 8429  10.670  14.834   4.810
36115W        W 8430  35.010   2.299  10.947
36116W        W 8431  10.577  41.330   0.833
36117W        W 8432   8.687   7.916   3.685
36118W        W 8433  44.006  38.472   1.033
36119W        W 8434   2.347   3.819  12.196
36120W        W 8435  40.763  38.679   0.865
36121W        W 8436  29.499   3.136   1.475
36122W        W 8437  11.823  30.427   3.360
36123W        W 8438  21.579   6.841   0.848
36124W        W 8439  14.194  20.240   0.909
36125W        W 8440   0.569  10.284  13.063
36126W        W 8441  37.516  30.580   0.418
36127W        W 8442  39.600  18.171  12.122
36128W        W 8443  16.822  28.414   1.812
36129W        W 8444  22.461   8.417  12.015
36130W        W 8445   4.716  12.592  11.171
36131W        W 8446  29.111  11.219  12.311
36132W        W 8447   8.020  21.043  12.567
36133W        W 8448  41.942  23.091  14.331
36134W        W 8449  27.812  15.576  13.376
36135W        W 8450  43.923  10.143   2.650
36136W        W 8451  16.230  40.133   1.305
36137W        W 8452  34.642  13.547   1.362
36138W        W 8453   6.255   2.141   4.763
36139W        W 8454  12.971   6.423  10.308
36140W        W 8455   1.353   6.978   4.347
36141W        W 8456  27.056  31.031   1.311
36142W        W 8457   0.477  39.205  12.949
36143W        W 8458  30.070  43.867   3.873
36144W        W 8459  30.815  11.840   2.232
36145W        W 8460  24.739  41.961   0.034
36146W        W 8461  12.817  15.603  13.125
36147W        W 8462  16.906  33.998   0.034
36148W        W 8463   7.771   1.715  14.463
36149W        W 8464  38.379  31.098  12.607
36150W        W 8465   8.993   6.771  13.697
36151W        W 8466  10.292   0.793   3.603
36152W        W 8467  10.357   6.409  12.054
36153W        W 8468  44.403  40.676   0.920
36154W        W 8469  18.005   8.809  13.453
36155W        W 8470  33.449  41.522  11.608
36156W        W 8471  41.760  42.988   2.370
36157W        W 8472  39.015  41.365  14.940
36158W        W 8473  37.405   9.603   4.257
36159W        W 8474   6.388  33.909  14.747
36160W        W 8475   8.733  26.220   0.056
36161W        W 8476  41.302  17.566  13.788
36162W        W 8477  10.313  42.279   3.643
36163W        W 8478  36.809  34.115  10.892
36164W        W 8479  41.257   6.751  13.589
36165W        W 8480  21.019  15.277  14.294
36166W        W 8481  17.785  30.196  14.437
36167W        W 8482  22.939  21.305  10.720
36168W        W 8483   8.809  15.814  11.681
36169W        W 8484  38.422  43.059   2.118
36170W        W 8485  12.332  23.166  14.292
36171W        W 8486   0.279   1.756  13.844
36172W        W 8487  19.924  22.830   2.454
36173W        W 8488  11.165  12.104   4.300
36174W        W 8489   6.251  15.553   0.257
36175W        W 8490  25.291  23.108  11.159
36176W        W 8491   5.979  13.473   4.145
36177W        W 8492  18.652   2.160  13.049
36178W        W 8493  21.573  43.795   2.710
36179W        W 8494  16.261  40.512  10.185
36180W        W 8495  35.141  17.124   0.877
36181W        W 8496  30.358   1.024   1.389
36182W        W 8497  42.271  28.028  13.973
36183W        W 8498  43.380  38.888  10.819
36184W        W 8499  14.176   7.644  11.857
36185W        W 8500  29.448  28.008   5.032
36186W        W 8501   2.584  35.342  12.801
36187W        W 8502  26.159  36.048  13.121
36188W        W 8503   9.945  31.192  13.808
36189W        W 8504  27.410   9.487   1.298
36190W        W 8505  13.187  19.634  11.692
36191W        W 8506  18.235  37.899  14.828
36192W        W 8507  43.478   0.006   1.843
36193W        W 8508  15.820  40.349  13.330
36194W        W 8509  33.489   5.975   4.246
36195W        W 8510  17.054  32.726  14.475
36196W        W 8511   7.111  32.296  13.903
36197W        W 8512   8.285  30.584  14.133
36198W        W 8513  19.293  21.179   2.895
36199W        W 8514  34.642   3.409   0.244
36200W        W 8515  19.891  27.977   0.990
36201W        W 8516  38.388  13.888   4.027
36202W        W 8517  20.082  23.198   0.002
36203W        W 8518  16.609  12.617   3.099
36204W        W 8519   2.028  38.292  12.162
36205W        W 8520  43.286  32.100   4.001
36206W        W 8521  44.023  25.598  13.344
36207W        W 8522  10.864   0.673  14.684
36208W        W 8523  22.525   6.017   3.854
36209W        W 8524   3.956  25.234  14.846
36210W        W 8525  30.805  17.181  13.906
36211W        W 8526  32.383  40.243   4.654
36212W        W 8527  38.575   1.845  10.720
36213W        W 8528   9.874  38.285   1.338
36214W        W 8529  37.021  24.078   3.213
36215W        W 8530  30.349  27.945   4.146
36216W        W 8531  36.337  12.071   3.092
36217W        W 8532  18.180   2.196   3.166
36218W        W 8533  35.527  44.441   2.024
36219W        W 8534  12.438  14.966   2.025
36220W        W 8535   7.216  21.716   2.153
36221W        W 8536  12.071  26.273   1.877
36222W        W 8537  24.124  21.750   5.626
36223W        W 8538  31.927  33.068  10.761
36224W        W 8539  35.679  36.961   1.968
36225W        W 8540  25.953  33.872   5.577
36226W        W 8541  21.134  13.063   0.841
36227W        W 8542   9.807  24.497  11.948
36228W        W 8543  32.849   3.704   2.311
36229W        W 8544  36.302  17.655  13.463
36230W        W 8545  35.848  23.775   2.121
36231W        W 8546  26.126  41.045   3.723
36232W        W 8547  10.662  20.358   3.863
36233W        W 8548   0.414  19.587  11.183
36234W        W 8549   6.966  18.471  11.576
36235W        W 8550  33.655  42.654   4.746
36236W        W 8551  27.667  34.915  13.434
36237W        W 8552  25.787   4.920  14.159
36238W        W 8553  11.258  22.084  12.936
36239W        W 8554  40.508  39.857   0.329
36240W        W 8555  17.450  37.053   1.445
36241W        W 8556  21.119  33.224   4.583
36242W        W 8557  26.857  33.652  11.094
36243W        W 8558  40.718  25.967  10.248
36244W        W 8559  14.193  41.015  14.843
36245W        W 8560  41.774  30.817  11.522
36246W        W 8561  41.337  35.039   2.261
36247W        W 8562  11.396   1.181  12.968
36248W        W 8563  40.428   7.519  11.426
36249W        W 8564  40.776  13.409  12.448
36250W        W 8565  35.256  30.930  11.531
36251W        W 8566  41.558   0.391  14.344
36252W        W 8567   0.327  43.952   3.643
36253W        W 8568   4.820  35.492   3.987
36254W        W 8569  42.074   0.200  10.677
36255W        W 8570  24.404  19.136  13.306
36256W        W 8571  22.770  33.106   1.328
36257W        W 8572  13.588  29.496  10.647
36258W        W 8573  39.296  26.441   9.678
36259W        W 8574  36.131   6.647   2.888
36260W        W 8575  41.506  41.046   3.380
36261W        W 8576  18.114  39.175  10.271
36262W        W 8577  30.957   0.322  13.595
36263W        W 8578  29.189  42.833  14.256
36264W        W 8579  23.518  26.957   3.802
36265W        W 8580  20.102   3.275   2.283
36266W        W 8581  29.183   1.845   2.851
36267W        W 8582  20.748  29.272   1.957
36268W        W 8583  17.522  10.637   1.205
36269W        W 8584  36.352  13.774   4.670
36270W        W 8585  22.064   2.950   3.771
36271W        W 8586  36.928  10.075   0.449
36272W        W 8587  34.783  12.386  14.434
36273W        W 8588  21.536  16.587  11.602
36274W        W 8589   4.060  26.526   0.481
36275W        W 8590  29.575   5.091  14.192
36276W        W 8591  22.725  18.551   1.270
36277W        W 8592  10.542  33.906  10.698
36278W        W 8593  22.373  19.515  13.357
36279W        W 8594  31.572  38.978  14.742
36280W        W 8595  21.057  23.683   4.236
36281W        W 8596  31.014  16.143   1.876
36282W        W 8597   3.488  41.850   2.357
36283W        W 8598  13.014  42.891  11.790
36284W        W 8599  40.430  42.112   3.250
36285W        W 8600  16.564  40.403   1.825
36286W        W 8601  12.792  21.237   4.001
36287W        W 8602  40.450  20.080   3.268
36288W        W 8603  37.006  19.822   0.192
36289W        W 8604  38.080  32.888   0.523
36290W        W 8605   0.927  23.150   1.184
36291W        W 8606  24.673  15.300  12.101
36292W        W 8607   1.782   2.488  14.377
36293W        W 8608   0.483  25.254   3.068
36294W        W 8609  23.441  30.620   4.171
36295W        W 8610  17.379   2.479   0.359
36296W        W 8611   5.129  29.496  13.528
36297W        W 8612  33.136  42.427   3.889
36298W        W 8613  35.511  37.851  11.811
36299W        W 8614  34.395  37.511  11.987
36300W        W 8615  16.172   4.708   4.600
36301W        W 8616  10.294  37.762   4.928
36302W        W 8617   9.825  15.172   1.462
36303W        W 8618   4.917  36.579   4.096
36304W        W 8619  13.310  12.647  12.667
36305W        W 8620  29.014  37.426  14.210
36306W        W 8621  44.810  44.063  12.895
36307W        W 8622  43.331  44.037  11.925
36308W        W 8623  34.134  10.839   3.712
36309W        W 8624   3.290  34.862  13.008
36310W        W 8625  22.353  18.124  12.467
36311W        W 8626  41.041   0.265  11.595
36312W        W 8627   7.044  12.935   0.735
36313W        W 8628  17.681   9.167  13.608
36314W        W 8629   8.249   5.307   4.168
36315W        W 8630  31.053  22.752  14.387
36316W        W 8631  36.687  30.537  10.406
36317W        W 8632  30.472  21.500   0.245
36318W        W 8633  32.461   4.778   1.967
36319W        W 8634  22.550  41.122  13.845
36320W        W 8635  21.267   8.317   4.017
36321W        W 8636  41.593  26.806  11.637
36322W        W 8637  23.169  34.999   2.652
36323W        W 8638  30.611  12.171   1.417
36324W        W 8639  34.365   3.538  12.226
36325W        W 8640   8.024  41.218  11.987
36326W        W 8641  38.745   2.270  13.270
36327W        W 8642   0.056  10.234   0.463
36328W        W 8643   2.795   2.372  11.898
36329W        W 8644  30.626  34.934   2.155
36330W        W 8645  40.307  34.599  10.847
36331W        W 8646  42.713  40.864  12.561
36332W        W 8647  20.710   3.530  14.236
36333W        W 8648   4.473  37.519  13.849
36334W        W 8649  44.955  15.695   4.216
36335W        W 8650  25.280  39.523   2.426
36336W        W 8651  22.162  38.418  12.496
36337W        W 8652  26.951  42.370  12.471
36338W        W 8653  36.225  44.067   2.290
36339W        W 8654  16.656  21.371   4.859
36340W        W 8655  30.488   0.394  13.403
36341W        W 8656   3.796  13.272  11.616
36342W        W 8657   5.153   6.919   4.670
36343W        W 8658  38.639  22.774   0.834
36344W        W 8659   8.484  15.817  10.670
36345W        W 8660  16.672   6.712   0.665
36346W        W 8661  13.608  21.327  14.327
36347W        W 8662  30.410  23.215   2.756
36348W        W 8663  21.248  42.386   3.803
36349W        W 8664  31.692   9.030   3.117
36350W        W 8665  19.011  37.065  12.492
36351W        W 8666   5.859  22.071  11.691
36352W        W 8667   3.426  18.342   4.326
36353W        W 8668  11.083  25.522  14.446
36354W        W 8669  33.606  27.908  10.774
36355W        W 8670  26.913  36.331   3.748
36356W        W 8671  16.023  12.593  11.166
36357W        W 8672  18.432  24.774   3.515
36358W        W 8673  36.280  32.174  11.259
36359W        W 8674  14.907   7.907   3.708
36360W        W 8675   7.897  30.549   1.057
36361W        W 8676  22.967  11.715   1.971
36362W        W 8677  24.693  20.360   0.381
36363W        W 8678   2.720  22.217   4.492
36364W        W 8679  43.881  35.482  14.967
36365W        W 8680  10.605  35.400   2.443
36366W        W 8681   0.364  21.321   4.965
36367W        W 8682  27.236  37.578  12.991
36368W        W 8683   2.894  40.602   1.852
36369W        W 8684  20.308  16.735   1.097
36370W        W 8685  28.794   9.245   3.175
36371W        W 8686  43.992  24.253  12.489
36372W        W 8687  25.592  10.650   2.967
36373W        W 8688   5.213   8.621   1.001
36374W        W 8689  40.331  21.906   0.818
36375W        W 8690   7.774  29.783  12.491
36376W        W 8691  44.261  41.524   1.776
36377W        W 8692  30.512   9.709   1.310
36378W        W 8693  35.470  20.755   3.075
36379W        W 8694  27.395  25.663   2.625
36380W        W 8695  43.499  26.526  13.378
36381W        W 8696  28.667   0.397  14.827
36382W        W 8697  23.688  32.588  12.079
36383W        W 8698   0.376  13.360   9.554
36384W        W 8699  40.425  21.038   1.680
36385W        W 8700   5.902   6.441  11.101
36386W        W 8701  18.637  16.013   0.484
36387W        W 8702  13.759  25.085   0.685
36388W        W 8703  20.651   9.844   0.481
36389W        W 8704  29.814  33.070   2.804
36390W        W 8705  21.594  24.065   1.868
36391W        W 8706  16.056  42.409  12.006
36392W        W 8707  19.687   6.171  13.606
36393W        W 8708  30.154  16.290   4.160
36394W        W 8709  30.104   6.354   0.971
36395W        W 8710  27.591  11.729  11.474
36396W        W 8711  36.401   1.492   4.856
36397W        W 8712  42.396  28.918   1.910
36398W        W 8713  18.810  18.659   0.405
36399W        W 8714  37.974  22.151  13.764
36400W        W 8715  33.678   1.552  14.500
36401W        W 8716  34.931  37.757  12.464
36402W        W 8717  22.640  40.693  11.518
36403W        W 8718  38.973  25.993   2.636
36404W        W 8719  10.755   0.881   3.846
36405W        W 8720  15.082  36.807   2.141
36406W        W 8721  21.691  42.497   2.228
36407W        W 8722  27.235  13.700   3.738
36408W        W 8723  40.351   5.037   4.545
36409W        W 8724   0.286  18.712  12.620
36410W        W 8725   7.315   1.422   2.596
36411W        W 8726  19.125  25.446  10.512
36412W        W 8727  19.101  12.595   4.349
36413W        W 8728  35.756  32.331   4.021
36414W        W 8729  14.528  12.232  13.000
36415W        W 8730  40.788   3.907  12.132
36416W        W 8731  13.232   4.789  11.471
36417W        W 8732  12.288  31.563  13.563
36418W        W 8733  24.707  18.084  11.946
36419W        W 8734   5.730   1.940  11.617
36420W        W 8735   7.817  34.635  12.957
36421W        W 8736  13.573  34.251   0.980
36422W        W 8737  27.006  27.724  10.588
36423W        W 8738  37.963  14.329  11.449
36424W        W 8739   2.236  30.715   1.156
36425W        W 8740  28.706  26.648  10.796
36426W        W 8741   2.992  42.734  14.270
36427W        W 8742  35.993  41.278   3.835
36428W        W 8743  20.766  15.824  12.900
36429W        W 8744  19.674  17.779  11.680
36430W        W 8745  37.100  30.369  10.672
36431W        W 8746  24.205  41.437  11.293
36432W        W 8747  20.149   6.494   1.684
36433W        W 8748  19.285  21.912  11.095
36434W        W 8749  31.438   1.679   4.641
36435W        W 8750  40.348   0.929   1.392
36436W        W 8751  22.528  43.819   1.708
36437W        W 8752  11.228  16.738   3.850
36438W        W 8753  33.308  38.984   4.981
36439W        W 8754  24.218  12.827   2.674
36440W        W 8755  43.439  36.572   3.762
36441W        W 8756  14.782  21.576  14.580
36442W        W 8757   2.819  29.218  13.869
36443W        W 8758  18.678  30.441   1.248
36444W        W 8759  26.378  31.988   3.076
36445W        W 8760  23.972  28.134  11.189
36446W        W 8761   3.891  11.826  13.375
36447W        W 8762  41.327  37.498   4.257
36448W        W 8763   8.888  30.392  11.474
36449W        W 8764   5.641  26.378   2.642
36450W        W 8765   2.898  34.409  13.381
36451W        W 8766  30.567  26.766  12.641
36452W        W 8767   4.733  14.634   3.715
36453W        W 8768  27.667  12.416  12.921
36454W        W 8769   8.371  23.003  12.070
36455W        W 8770  14.193  33.645  10.769
36456W        W 8771  12.398  27.154   3.752
36457W        W 8772  10.206  10.771  12.151
36458W        W 8773  19.021  24.058   2.394
36459W        W 8774  19.814  29.526  14.461
36460W        W 8775  39.338  27.177   9.990
36461W        W 8776  22.716  36.019   5.167
36462W        W 8777   0.392  35.530   0.296
36463W        W 8778  10.640  44.857   3.855
36464W        W 8779   4.346  29.944  11.396
36465W        W 8780  25.979  27.479   3.758
36466W        W 8781   7.418  15.507  12.876
36467W        W 8782  26.708   1.053   0.769
36468W        W 8783  18.912  28.096   1.204
36469W        W 8784  42.398  20.547   1.205
36470W        W 8785  17.038  32.407  11.946
36471W        W 8786  14.668   9.583   2.699
36472W        W 8787  25.289  21.642   5.127
36473W        W 8788  11.634   7.878  11.205
36474W        W 8789  42.219  13.933  11.625
36475W        W 8790  34.823  32.013   5.070
36476W        W 8791  20.424  19.132  14.177
36477W        W 8792  39.597   2.489   3.386
36478W        W 8793  20.568  17.377  11.570
36479W        W 8794  38.024  42.198  11.034
36480W        W 8795  38.589   2.955   4.821
36481W        W 8796  19.659   4.264  10.864
36482W        W 8797  31.106  36.391  10.827
36483W        W 8798   6.921  31.226   2.679
36484W        W 8799  32.440  44.939   2.667
36485W        W 8800  43.774  18.677  13.793
36486W        W 8801  39.429  44.876  14.133
36487W        W 8802  23.536  10.163  13.857
36488W        W 8803  23.303  13.274   1.901
36489W        W 8804  35.887  40.449  11.557
36490W        W 8805  11.341  33.427  10.617
36491W        W 8806   9.189   1.890   0.396
36492W        W 8807  29.043   3.040  14.240
36493W        W 8808   2.719   9.399   4.339
36494W        W 8809  26.021  25.622  12.561
36495W        W 8810   5.302  34.033   4.564
36496W        W 8811  42.838   3.619   3.647
36497W        W 8812  43.943  36.482  14.694
36498W        W 8813  28.393  21.485   0.883
36499W        W 8814  22.178   8.484   0.227
36500W        W 8815  40.593  21.985  13.856
36501W        W 8816  26.427  41.842  11.211
36502W        W 8817  35.090  28.841   3.652
36503W        W 8818  43.016   7.285   3.522
36504W        W 8819  35.631  19.045   3.170
36505W        W 8820  18.555  37.383   0.304
36506W        W 8821  41.598   3.343  12.177
36507W        W 8822  41.428  41.320  10.627
36508W        W 8823  43.797   6.235   2.531
36509W        W 8824  33.858   6.291  13.340
36510W        W 8825  15.547  38.565   4.167
36511W        W 8826  26.300  34.256   5.460
36512W        W 8827  33.484   9.751  10.752
36513W        W 8828  20.149  10.726  10.208
36514W        W 8829   9.905  34.804   1.761
36515W        W 8830   8.812  21.992  11.377
36516W        W 8831  20.996  14.018  13.833
36517W        W 8832  25.121  39.106   2.072
36518W        W 8833   0.752  28.558  13.445
36519W        W 8834   2.175   9.720  11.927
36520W        W 8835   6.981  31.775   4.254
36521W        W 8836  31.438  40.283  10.813
36522W        W 8837  19.823  12.913   0.894
36523W        W 8838  36.096  36.200   1.920
36524W        W 8839  24.019  10.367  11.220
36525W        W 8840  44.374  41.234   4.215
36526W        W 8841  34.624  37.572   3.135
36527W        W 8842  24.488  25.125  13.403
36528W        W 8843  39.983  10.474  13.279
36529W        W 8844  41.773  35.943  10.325
36530W        W 8845   3.116  18.176  13.866
36531W        W 8846   9.358  39.493  11.024
36532W        W 8847  25.186  28.996  10.830
36533W        W 8848   7.176  28.648   4.428
36534W        W 8849  25.858   9.288   0.848
36535W        W 8850  15.990   1.380  10.781
36536W        W 8851  41.160  12.724   2.723
36537W        W 8852  21.502  27.684   1.437
36538W        W 8853   2.967   3.869   1.494
36539W        W 8854  20.089  28.391  12.578
36540W        W 8855   6.640   0.490  11.034
36541W        W 8856  34.114  13.108  11.562
36542W        W 8857  37.443  16.175   3.686
36543W        W 8858  38.770   0.215   1.305
36544W        W 8859   1.653  20.494  11.460
36545W        W 8860  29.390  20.570  13.319
36546W        W 8861  19.809  17.357  14.349
36547W        W 8862  39.410  16.217  11.696
36548W        W 8863  11.270  10.249  10.285
36549W        W 8864  32.604  25.688   1.233
36550W        W 8865  39.107  13.828   3.855
36551W        W 8866   8.389  10.622  14.196
36552W        W 8867   4.432  11.870  12.641
36553W        W 8868  18.265   8.472  14.065
36554W        W 8869   9.955  43.750   2.079
36555W        W 8870  22.747   3.660  13.917
36556W        W 8871  25.133   0.518  14.921
36557W        W 8872   3.872  13.065   1.962
36558W        W 8873  21.063  32.373  13.199
36559W        W 8874  32.444   6.996  11.133
36560W        W 8875  11.588  28.100  13.730
36561W        W 8876  28.161  20.782  10.571
36562W        W 8877  35.593  11.717   2.137
36563W        W 8878  17.461  17.960   4.974
36564W        W 8879  41.967  41.363   1.371
36565W        W 8880  23.079  39.693   1.333
36566W        W 8881  17.228   3.414  11.182
36567W        W 8882  15.472  20.749   1.965
36568W        W 8883  26.322  17.284  12.943
36569W        W 8884  29.212  35.127   3.283
36570W        W 8885  39.119  24.343  13.643
36571W        W 8886  30.854  27.975   1.362
36572W        W 8887  33.988  24.692  12.132
36573W        W 8888  12.589  35.068   4.359
36574W        W 8889  21.695  10.361  11.472
36575W        W 8890  24.660   4.454   0.544
36576W        W 8891   8.263  25.579   1.310
36577W        W 8892  10.602  30.793  11.161
36578W        W 8893  39.893  18.649   4.701
36579W        W 8894  20.555  40.219  10.959
36580W        W 8895   4.813  38.475   0.172
36581W        W 8896   9.174  35.335  12.900
36582W        W 8897  25.119   1.029   0.023
36583W        W 8898   3.342   2.178   3.265
36584W        W 8899  16.919  28.141   4.642
36585W        W 8900  28.177  32.581   1.388
36586W        W 8901   2.963  17.685   1.343
36587W        W 8902  44.524  37.117   2.755
36588W        W 8903  40.905  13.414   4.761
36589W        W 8904  28.871  44.201  11.029
36590W        W 8905  24.076  34.173  13.569
36591W        W 8906  38.490  40.822  12.966
36592W        W 8907  10.133   7.830  14.859
36593W        W 8908  35.664   3.468  14.271
36594W        W 8909  12.216  31.562   2.110
36595W        W 8910  26.480   0.498   2.306
36596W        W 8911  19.678   3.442   3.214
36597W        W 8912  30.816  39.385  11.568
36598W        W 8913  27.195  40.459  14.833
36599W        W 8914  12.827  21.053  14.076
36600W        W 8915  22.702  26.557  12.621
36601W        W 8916   7.689  13.937   0.524
36602W        W 8917  40.358   5.448   1.404
36603W        W 8918  21.974  42.811  11.106
36604W        W 8919  17.664   1.668   0.760
36605W        W 8920  44.539  36.787   0.426
36606W        W 8921  17.186  39.053   0.399
36607W        W 8922  29.500  15.346   1.300
36608W        W 8923  17.467  37.262  10.701
36609W        W 8924   9.278  14.554   4.814
36610W        W 8925   7.223   2.337   2.245
36611W        W 8926   9.305  26.030  14.392
36612W        W 8927  12.169  15.794   4.228
36613W        W 8928  13.677   6.749   4.180
36614W        W 8929  29.572  41.747  13.401
36615W        W 8930  40.080  38.990   1.900
36616W        W 8931  40.913  16.369  12.039
36617W        W 8932  14.725  18.267   1.349
36618W        W 8933   5.969  39.399  12.049
36619W        W 8934  23.219  21.459  12.070
36620W        W 8935  33.978   6.643  10.621
36621W        W 8936  26.951   8.126   2.357
36622W        W 8937  42.453  44.750   2.343
36623W        W 8938  41.867  28.171  13.370
36624W        W 8939   3.281  38.048  12.071
36625W        W 8940  20.495  39.790   3.238
36626W        W 8941   8.845  19.195   4.885
36627W        W 8942  12.992   9.163   0.001
36628W        W 8943  18.198  23.967   3.637
36629W        W 8944  13.887  25.043   2.270
36630W        W 8945  44.958  18.020  14.942
36631W        W 8946  38.872  29.702  13.115
36632W        W 8947  33.130  32.384  13.862
36633W        W 8948  39.532  29.246   2.624
36634W        W 8949  44.488  13.073   2.650
36635W        W 8950  40.794  29.731   2.282
36636W        W 8951  36.303  30.095   4.956
36637W        W 8952  21.967  39.320  11.565
36638W        W 8953  36.861  33.652  12.106
36639W        W 8954   1.461  22.237  11.635
36640W        W 8955  34.939   0.578  12.952
36641W        W 8956  40.962  11.134   2.434
36642W        W 8957  41.386  30.503   0.927
36643W        W 8958  28.332  34.526  11.306
36644W        W 8959  10.776  22.368  12.776
36645W        W 8960   2.103  12.562  13.220
36646W        W 8961   1.068  38.044  11.489
36647W        W 8962  10.261  19.513  11.130
36648W        W 8963  28.173  32.136   3.115
36649W        W 8964   9.611  41.934   2.787
36650W        W 8965  37.373  25.130   3.786
36651W        W 8966  43.554  17.751  11.128
36652W        W 8967  23.202   8.365  13.893
36653W        W 8968  16.796  13.300   3.666
36654W        W 8969  43.486  23.417  12.149
36655W        W 8970   5.810   3.006  10.606
36656W        W 8971  10.056  36.524  10.524
36657W        W 8972  34.664  37.081  12.046
36658W        W 8973  24.259  41.241   0.345
36659W        W 8974   1.284  19.018   2.853
36660W        W 8975  39.351  34.342   0.497
36661W        W 8976   0.234  35.979   0.026
36662W        W 8977  41.852   1.503   2.243
36663W        W 8978  30.464   9.713   2.530
36664W        W 8979   2.467  39.377  10.631
36665W        W 8980  36.503  33.559  14.908
36666W        W 8981  35.998  33.442   3.245
36667W        W 8982  33.030  22.272   4.831
36668W        W 8983  13.543  24.633  10.545
36669W        W 8984  34.930  24.759  10.832
36670W        W 8985   5.403  37.479  11.920
36671W        W 8986  20.323  38.377   3.112
36672W        W 8987  32.604  40.522   2.463
36673W        W 8988  32.869  39.384  11.707
36674W        W 8989  39.146   9.170   4.272
36675W        W 8990  22.510   4.191   4.030
36676W        W 8991  17.466  37.622  14.729
36677W        W 8992   9.613  44.315  12.092
36678W        W 8993  13.178  37.536   2.728
36679W        W 8994  31.160   2.886  11.966
36680W        W 8995  28.044  16.649  13.862
36681W        W 8996   9.551   2.317  12.327
36682W        W 8997  21.821  29.765  14.313
36683W        W 8998  28.928  25.045   1.789
36684W        W 8999  14.296  42.858   4.758
36685W        W 9000  44.307   7.090   4.115
36686W        W 9001  13.200   5.932   4.535
36687W        W 9002  40.856  42.070  10.711
36688W        W 9003  11.413  17.693  13.865
36689W        W 9004   3.658  44.759   1.362
36690W        W 9005  43.402  23.216  14.561
36691W        W 9006  44.836  16.777   3.726
36692W        W 9007  21.440   8.938   1.910
36693W        W 9008   3.856   5.166   0.017
36694W        W 9009  44.165  13.666   1.285
36695W        W 9010  13.950  36.969  14.717
36696W        W 9011  25.756  13.359  13.950
36697W        W 9012  19.560   1.421  13.492
36698W        W 9013  41.567  21.085   0.801
36699W        W 9014  19.828  38.527   3.233
36700W        W 9015  17.607  41.293  14.558
36701W        W 9016   7.903  34.071   0.025
36702W        W 9017  34.183  13.097   0.876
36703W        W 9018   7.904  37.984  11.508
36704W        W 9019  18.711   7.505   3.645
36705W        W 9020  28.975  34.510  14.132
36706W        W 9021  32.076  28.697   1.696
36707W        W 9022  17.275   3.180   0.937
36708W        W 9023  31.544  41.263  11.618
36709W        W 9024  20.731  33.974  10.488
36710W        W 9025  26.262  14.525   3.657
36711W        W 9026   8.560  10.703  12.402
36712W        W 9027  44.248   1.821  13.025
36713W        W 9028   7.176   5.737  13.861
36714W        W 9029  35.131  20.984  13.036
36715W        W 9030  10.666  33.546   3.354
36716W        W 9031  12.812  31.969  11.180
36717W        W 9032   2.959  22.240   1.966
36718W        W 9033  23.120  17.215   3.335
36719W        W 9034  26.626   6.094  12.905
36720W        W 9035  37.667  15.654   4.552
36721W        W 9036  35.152  19.740   2.175
36722W        W 9037  16.532  44.280  13.367
36723W        W 9038  29.996   6.794   0.690
36724W        W 9039  15.331  36.377   2.297
36725W        W 9040  19.599   5.971   0.768
36726W        W 9041  41.647  37.492  13.516
36727W        W 9042  19.308  31.522  13.801
36728W        W 9043  10.615   6.499  14.901
36729W        W 9044   6.399  15.211  14.354
36730W        W 9045  27.118   2.747   3.534
36731W        W 9046   8.218  43.760   1.926
36732W        W 9047  16.102   3.032   3.801
36733W        W 9048   1.785   6.731  12.485
36734W        W 9049  34.095  30.370   4.504
36735W        W 9050  35.034  13.893   2.198
36736W        W 9051  25.923  25.636   3.801
36737W        W 9052  32.735   1.374  14.953
36738W        W 9053  36.943  18.112   3.035
36739W        W 9054  18.905  44.826   0.403
36740W        W 9055  11.677  35.460   2.288
36741W        W 9056   9.986  12.538   3.147
36742W        W 9057  37.906  39.335   3.126
36743W        W 9058  20.220  35.899  12.821
36744W        W 9059  29.664  13.149  10.686
36745W        W 9060  34.142  29.467   4.476
36746W        W 9061   3.016  13.149  14.343
36747W        W 9062  11.363   1.148   2.693
36748W        W 9063  13.283   1.521   1.882
36749W        W 9064  15.132  21.070  11.638
36750W        W 9065  33.080  11.368   2.800
36751W        W 9066  31.390   4.833  14.173
36752W        W 9067  24.114  14.874  10.690
36753W        W 9068   3.547  41.935  12.010
36754W        W 9069  37.444   6.129  11.175
36755W        W 9070  39.814  12.133  11.808
36756W        W 9071  31.352  27.180   4.182
36757W        W 9072  31.218  18.799  14.786
36758W        W 9073  36.525  26.500  10.450
36759W        W 9074  17.378  17.778   1.164
36760W        W 9075  31.338  25.018   3.335
36761W        W 9076  15.064  15.136   2.744
36762W        W 9077  38.445  23.720   0.680
36763W        W 9078   2.968  15.184  11.680
36764W        W 9079   4.520  27.994  11.686
36765W        W 9080   4.149  16.407   1.722
36766W        W 9081  24.697  18.129   4.194
36767W        W 9082  44.895  19.947  12.430
36768W        W 9083  41.203  29.392   1.782
36769W        W 9084  38.529  35.382  10.598
36770W        W 9085  44.206  22.731   2.910
36771W        W 9086  12.076  37.433   3.172
36772W        W 9087   1.687   8.145   3.219
36773W        W 9088  27.736  33.142  13.775
36774W        W 9089  13.796  34.890  12.879
36775W        W 9090  28.374  28.891   2.629
36776W        W 9091   2.528  11.222  14.783
36777W        W 9092  20.845  31.926  13.071
36778W        W 9093   2.050  11.125   4.476
36779W        W 9094  42.304  15.780  13.884
36780W        W 9095  32.627  33.373  11.706
36781W        W 9096  35.992  21.021  10.077
36782W        W 9097   9.125  24.551  13.510
36783W        W 9098  28.994  42.449   0.967
36784W        W 9099  10.295  39.819   2.026
36785W        W 9100  18.122  38.991   1.390
36786W        W 9101  39.761  17.469   4.681
36787W        W 9102   5.464  36.038  13.503
36788W        W 9103  34.959  28.066  11.127
36789W        W 9104   4.177  24.244   0.348
36790W        W 9105  41.195   8.297   0.893
36791W        W 9106  13.875  12.823  12.010
36792W        W 9107   3.512  14.819  11.092
36793W        W 9108  30.130   5.216  12.929
36794W        W 9109   5.892  15.766  14.434
36795W        W 9110  39.005  10.889   1.437
36796W        W 9111  10.714  39.078   0.841
36797W        W 9112  13.316   9.198   3.605
36798W        W 9113  27.848  28.807  14.802
36799W        W 9114   6.325   8.865   1.411
36800W        W 9115  32.989  38.805  14.696
36801W        W 9116  14.240  11.795   0.380
36802W        W 9117   4.792  32.618   0.018
36803W        W 9118   6.978  41.452   2.127
36804W        W 9119   9.291   9.818  14.896
36805W        W 9120  31.902   8.391  13.186
36806W        W 9121  43.406  36.359  11.613
36807W        W 9122   4.833   8.179  14.003
36808W        W 9123   5.987  14.277   3.795
36809W        W 9124   4.805  35.990   2.812
36810W        W 9125  11.765  35.906  14.398
36811W        W 9126   1.373   4.168  13.912
36812W        W 9127  17.642   7.668   2.338
36813W        W 9128  25.327   5.645   9.976
36814W        W 9129  25.210  32.980   1.428
36815W        W 9130   0.774   0.712  12.956
36816W        W 9131  20.339   7.407   3.323
36817W        W 9132  18.001  43.314   0.876
36818W        W 9133  18.143   8.620   1.748
36819W        W 9134  31.409  25.294  14.044
36820W        W 9135  26.860  11.403  13.098
36821W        W 9136  31.652  38.339   3.799
36822W        W 9137   4.445  14.775   2.314
36823W        W 9138  43.367   2.200   4.614
36824W        W 9139   6.956  44.651   4.157
36825W        W 9140  39.594  39.526   1.328
36826W        W 9141  36.887  33.674  10.606
36827W        W 9142   9.092  13.389  14.969
36828W        W 9143   7.909   5.856  12.997
36829W        W 9144   9.881  28.963  12.419
36830W        W 9145  29.620  38.797  10.342
36831W        W 9146   2.866  36.022   4.835
36832W        W 9147   5.219  27.229   2.774
36833W        W 9148  35.906  16.039   2.078
36834W        W 9149  34.899  42.718  12.471
36835W        W 9150  36.347  29.601  14.072
36836W        W 9151   6.408  36.384   0.860
36837W        W 9152  38.199  17.481   4.259
36838W        W 9153   4.978   7.234   5.036
36839W        W 9154   1.798  33.366  14.097
36840W        W 9155  11.127  29.852  13.375
36841W        W 9156  15.776   3.145  13.511
36842W        W 9157  12.047  17.814   3.283
36843W        W 9158  40.974   8.226   3.573
36844W        W 9159  18.584   0.662  11.252
36845W        W 9160  34.456  33.996   3.601
36846W        W 9161   0.076   8.157   4.525
36847W        W 9162  34.989  31.483  13.248
36848W        W 9163  33.815  26.485   2.440
36849W        W 9164   8.885  36.022  11.672
36850W        W 9165  23.293  14.299  10.727
36851W        W 9166  29.296  29.108   1.061
36852W        W 9167  39.900  17.469   2.466
36853W        W 9168  21.642  24.957  11.223
36854W        W 9169  11.695  17.035   1.229
36855W        W 9170  29.154  23.023   2.393
36856W        W 9171  26.729  11.775   1.280
36857W        W 9172  30.221  10.885  10.590
36858W        W 9173  37.743  41.633   5.057
36859W        W 9174  19.712  32.885   0.661
36860W        W 9175  28.514   6.316  11.626
36861W        W 9176  32.495  17.523  12.833
36862W        W 9177  37.833  26.244   5.406
36863W        W 9178  42.018  13.848   3.256
36864W        W 9179  22.725  15.931  11.705
36865W        W 9180  16.708  30.112  11.084
36866W        W 9181  21.057  41.299   0.051
36867W        W 9182  42.972  36.356   3.614
36868W        W 9183   9.919  36.381  12.013
36869W        W 9184   5.878   1.391   1.891
36870W        W 9185  35.986  25.144   3.792
36871W        W 9186  38.016   6.466   2.583
36872W        W 9187  39.613  14.630  14.013
36873W        W 9188  14.060  16.341  11.092
36874W        W 9189  36.913  20.992  11.916
36875W        W 9190  32.460  20.534   2.652
36876W        W 9191  18.568  14.644   2.668
36877W        W 9192   2.489  14.138   1.757
36878W        W 9193   2.687   4.300   1.313
36879W        W 9194  16.520  40.476   2.645
36880W        W 9195  15.310  23.796  14.810
36881W        W 9196   8.425   0.724   1.694
36882W        W 9197  12.889  22.677  12.010
36883W        W 9198   4.316  34.412   3.887
36884W        W 9199  23.527  43.902  10.182
36885W        W 9200  42.837  20.764   1.403
36886W        W 9201   3.827  33.349   4.605
36887W        W 9202  29.385   5.156  11.302
36888W        W 9203  18.026   3.031  13.765
36889W        W 9204  39.459  10.723   3.486
36890W        W 9205  39.486  36.099   3.450
36891W        W 9206  26.695   0.462  12.288
36892W        W 9207   3.942  23.109   2.873
36893W        W 9208   5.700  15.148  12.032
36894W        W 9209   5.165  37.301  10.856
36895W        W 9210  41.022  41.005  10.663
36896W        W 9211   6.110  40.434   4.798
36897W        W 9212  11.787  40.429  10.346
36898W        W 9213  25.789  23.741   1.897
36899W        W 9214  11.177  20.901  12.012
36900W        W 9215  28.148  27.485   3.598
36901W        W 9216  42.041  35.980  12.242
36902W        W 9217  34.605   4.961   1.434
36903W        W 9218  27.594   9.540   1.790
36904W        W 9219  38.922  23.948   0.515
36905W        W 9220  37.344  26.037   1.658
36906W        W 9221   3.754  26.058  11.094
36907W        W 9222   7.957  20.180   4.451
36908W        W 9223  31.898  33.904  14.928
36909W        W 9224   3.202  18.960   1.596
36910W        W 9225  11.640  25.081   4.230
36911W        W 9226   0.942  32.051   1.305
36912W        W 9227  32.363  39.963  11.191
36913W        W 9228  27.473  25.521   3.618
36914W        W 9229  29.084   9.076  11.556
36915W        W 9230  44.854  28.643   4.624
36916W        W 9231  20.020   4.823  11.518
36917W        W 9232  20.357  24.745  13.531
36918W        W 9233   2.562  23.977  14.958
36919W        W 9234   2.949  36.525   2.545
36920W        W 9235  39.370  44.968  12.100
36921W        W 9236   1.844  37.538   0.219
36922W        W 9237  24.657  32.948   0.652
36923W        W 9238   6.012  25.431  13.478
36924W        W 9239  40.052   9.624   0.938
36925W        W 9240   1.021   5.310   0.006
36926W        W 9241  10.233  19.724   0.265
36927W        W 9242  40.972  38.845  12.724
36928W        W 9243  20.311   0.327  10.404
36929W        W 9244   9.360  44.453   3.953
36930W        W 9245  33.142   2.924  10.625
36931W        W 9246  39.736   2.968   0.869
36932W        W 9247  20.091  44.350   4.151
36933W        W 9248  19.662  25.108   4.688
36934W        W 9249   3.989   8.366  10.841
36935W        W 9250  14.118  31.573  13.285
36936W        W 9251  25.732  30.468   3.658
36937W        W 9252  39.574  42.473   4.405
36938W        W 9253  18.358  34.079   1.920
36939W        W 9254  36.793  21.481   4.608
36940W        W 9255  24.633   3.957  10.980
36941W        W 9256   9.879  24.213   0.407
36942W        W 9257   3.039  30.000  11.505
36943W        W 9258  39.405  14.883   3.706
36944W        W 9259  24.200  36.932   3.174
36945W        W 9260  44.464   6.796   2.801
36946W        W 9261  25.033  22.631   0.952
36947W        W 9262  37.231  18.682   3.650
36948W        W 9263  39.644  22.935   1.836
36949W        W 9264  24.168  20.472  11.088
36950W        W 9265  37.616  11.208  13.556
36951W        W 9266   2.745  15.757   1.336
36952W        W 9267  22.015  30.889   1.204
36953W        W 9268  28.133  25.574  11.125
36954W        W 9269  25.138  12.697   1.644
36955W        W 9270   9.142  43.555   2.162
36956W        W 9271  42.985   1.682  14.399
36957W        W 9272  11.826   1.038  12.214
36958W        W 9273   3.847  15.690   3.952
36959W        W 9274  38.558  22.429   3.192
36960W        W 9275  39.864   9.416  11.172
36961W        W 9276  36.809  36.385  13.409
36962W        W 9277  13.544   7.330  14.019
36963W        W 9278  43.174  38.281  13.015
36964W        W 9279  28.675  37.519  10.688
36965W        W 9280  27.046   5.729  12.306
36966W        W 9281   3.570  27.036  13.044
36967W        W 9282   9.712  12.121   0.483
36968W        W 9283  19.996  15.127  14.621
36969W        W 9284  38.041   8.255   4.115
36970W        W 9285  35.297   8.152   2.263
36971W        W 9286   1.671  39.550   1.318
36972W        W 9287   2.630   2.163   2.704
36973W        W 9288  14.914   8.030   1.707
36974W        W 9289  38.835  15.817  13.954
36975W        W 9290  17.340  18.274   0.389
36976W        W 9291  32.144  29.492   0.580
36977W        W 9292  31.533  43.020   1.136
36978W        W 9293  13.735  35.016  13.853
36979W        W 9294   3.766  34.013  13.288
36980W        W 9295  35.601  41.041   2.016
36981W        W 9296  44.427  15.144  12.503
36982W        W 9297  43.672  28.403  12.498
36983W        W 9298   6.394  24.047   0.719
36984W        W 9299  37.632  23.221   3.484
36985W        W 9300   6.214  43.088   0.762
36986W        W 9301  11.742  14.683   3.916
36987W        W 9302  25.662  23.182   1.213
36988W        W 9303   5.911  39.272  12.542
36989W        W 9304  10.190   7.159  14.497
36990W        W 9305  34.121  27.591  14.340
36991W        W 9306  17.151   9.309   2.568
36992W        W 9307  12.372   7.283   3.286
36993W        W 9308  34.076   6.667  11.555
36994W        W 9309  44.524  30.373   2.401
36995W        W 9310  20.722  10.298   3.381
36996W        W 9311   4.684  20.465   1.294
36997W        W 9312  28.729  16.672   4.798
36998W        W 9313  26.247  18.253  12.891
36999W        W 9314   3.705   8.041   1.392
37000W        W 9315  39.974  39.125   0.215
37001W        W 9316  39.993  21.127  14.056
37002W        W 9317  37.447   6.199  13.916
37003W        W 9318  22.051  12.922  11.009
37004W        W 9319  33.602  27.733   4.409
37005W        W 9320   4.782  29.921   2.967
37006W        W 9321  20.286  31.102   0.453
37007W        W 9322  19.562  33.386   1.454
37008W        W 9323  40.533  14.267   9.886
37009W        W 9324  22.635  13.133   4.816
37010W        W 9325  35.071  22.353  13.494
37011W        W 9326  34.016  32.384   0.001
37012W        W 9327  30.694  15.598   0.790
37013W        W 9328  35.739   4.320   2.472
37014W        W 9329  16.879  24.281  11.709
37015W        W 9330   2.307  28.120   3.144
37016W        W 9331  34.894  15.537  12.524
37017W        W 9332  33.875  22.092   4.317
37018W        W 9333  11.245  16.185   4.482
37019W        W 9334  39.358  33.401   1.872
37020W        W 9335  18.690   7.931  14.876
37021W        W 9336  42.245   5.810  13.430
37022W        W 9337   4.837   8.413   4.530
37023W        W 9338  19.796  15.683  12.435
37024W        W 9339  31.933  44.407   2.742
37025W        W 9340  14.045  41.002   3.247
37026W        W 9341  26.676  36.160   3.294
37027W        W 9342  40.500  36.054  10.776
37028W        W 9343  20.182  40.834  12.434
37029W        W 9344  26.502  19.774  14.739
37030W        W 9345  11.094   7.246   1.659
37031W        W 9346  23.604  43.464  10.539
37032W        W 9347  24.445  23.966   4.762
37033W        W 9348  19.662  14.247  11.566
37034W        W 9349  18.993  40.862   0.468
37035W        W 9350  13.780  39.878   2.958
37036W        W 9351  20.078  19.548   4.712
37037W        W 9352  17.712   1.958   3.116
37038W        W 9353  35.300  15.846  14.840
37039W        W 9354  11.704  28.183  10.111
37040W        W 9355  28.621  20.469   3.254
37041W        W 9356  32.606  42.482   3.339
37042W        W 9357  39.983  28.975  14.352
37043W        W 9358   8.796  32.870  11.550
37044W        W 9359  18.261  28.414   3.671
37045W        W 9360  27.403   5.342   0.487
37046W        W 9361   6.263   2.865   3.359
37047W        W 9362  38.884  43.638  11.237
37048W        W 9363  36.629   8.475  14.878
37049W        W 9364  43.485  25.459  13.786
37050W        W 9365  36.419  40.413   5.026
37051W        W 9366  20.977   0.418   2.189
37052W        W 9367   2.459   4.438  14.010
37053W        W 9368   1.708   3.422  12.088
37054W        W 9369  38.538  35.553   4.744
37055W        W 9370  16.817   3.361  11.484
37056W        W 9371  28.533  41.268  14.913
37057W        W 9372  23.759  39.834  10.437
37058W        W 9373   6.708   2.059   1.846
37059W        W 9374  30.030  12.111   4.095
37060W        W 9375  33.075  39.842   0.926
37061W        W 9376  12.698  28.494   1.780
37062W        W 9377   2.880  37.710  12.037
37063W        W 9378  12.936  44.160  13.376
37064W        W 9379  40.899  12.259  13.279
37065W        W 9380   1.458   5.884   2.606
37066W        W 9381   9.952  16.622   2.736
37067W        W 9382  19.453  44.894  11.161
37068W        W 9383  19.076  16.777   0.432
37069W        W 9384  29.957  30.656  13.388
37070W        W 9385  27.272  30.641   2.271
37071W        W 9386  27.946  27.944   3.641
37072W        W 9387  24.798  40.113   3.452
37073W        W 9388  25.698  13.124  11.631
37074W        W 9389  31.110  21.685   2.599
37075W        W 9390   8.367  39.997   4.606
37076W        W 9391   4.805   0.810   2.172
37077W        W 9392  10.452  29.055   1.264
37078W        W 9393  44.832  15.749  13.536
37079W        W 9394  28.483  39.829   2.538
37080W        W 9395  12.750  41.563  14.006
37081W        W 9396  23.841   6.234   3.230
37082W        W 9397  40.588  25.707  11.713
37083W        W 9398   1.223  26.844  13.011
37084W        W 9399  15.050  31.440   0.678
37085W        W 9400  19.109  19.702   3.842
37086W        W 9401  40.872   8.648  11.188
37087W        W 9402   6.306  44.640   4.560
37088W        W 9403   0.358  27.741  12.456
37089W        W 9404  23.711  35.920  13.033
37090W        W 9405  13.732  22.792   2.810
37091W        W 9406  39.428  43.763   1.698
37092W        W 9407  34.913   1.019   1.782
37093W        W 9408   8.217   0.461   3.165
37094W        W 9409   6.466  11.198   3.555
37095W        W 9410  12.099  20.577   2.543
37096W        W 9411  32.292   9.502  11.111
37097W        W 9412  10.363  21.938  14.870
37098W        W 9413  20.063  22.980  14.535
37099W        W 9414  10.302  15.209   2.426
37100W        W 9415  28.881  13.032   2.259
37101W        W 9416  29.117  44.532   2.164
37102W        W 9417   6.672  18.195   4.295
37103W        W 9418  44.335   4.382  10.743
37104W        W 9419  22.408  44.030  13.315
37105W        W 9420  23.662  30.120  14.909
37106W        W 9421   4.182  22.162   3.247
37107W        W 9422   2.406  33.585  14.748
37108W        W 9423   7.228  42.362  13.999
37109W        W 9424  26.167  33.112  14.325
37110W        W 9425   2.404   3.398  13.266
37111W        W 9426  13.513   4.753   3.826
37112W        W 9427  25.709   5.283  11.660
37113W        W 9428  12.827  23.630   4.134
37114W        W 9429  37.088  43.518   4.503
37115W        W 9430   8.822  10.134  10.848
37116W        W 9431  17.041  44.047   0.907
37117W        W 9432  25.444  39.089   3.425
37118W        W 9433  37.028  27.271  12.090
37119W        W 9434   1.863  14.040  14.774
37120W        W 9435  15.069  33.379  11.524
37121W        W 9436   7.378  15.588   2.770
37122W        W 9437  19.005  11.306  14.366
37123W        W 9438  23.029  11.110  12.470
37124W        W 9439  29.417  43.961   1.293
37125W        W 9440  16.494  42.158  13.749
37126W        W 9441   9.074  21.067  13.448
37127W        W 9442  34.773  11.842  11.172
37128W        W 9443  11.413  21.698   2.196
37129W        W 9444  11.253  12.529   2.245
37130W        W 9445  35.944  29.492   2.198
37131W        W 9446  26.822  35.947  14.246
37132W        W 9447  15.645   9.681   1.750
37133W        W 9448   7.926  18.883   1.635
37134W        W 9449  24.663  21.078   4.052
37135W        W 9450  22.361   2.293  10.857
37136W        W 9451   0.935   8.119   1.287
37137W        W 9452   4.896  18.265   0.721
37138W        W 9453  44.898  23.024   1.309
37139W        W 9454   9.308  23.229   0.714
37140W        W 9455  36.421  29.949  11.216
37141W        W 9456   6.959   8.234   0.835
37142W        W 9457   8.555  39.404  13.340
37143W        W 9458   3.876  36.858   2.341
37144W        W 9459   8.306  40.467   4.908
37145W        W 9460  13.334  36.560   1.862
37146W        W 9461   4.716  28.950  10.698
37147W        W 9462  36.084  41.358  14.440
37148W        W 9463  38.956  35.902   3.285
37149W        W 9464  20.727   8.489  13.279
37150W        W 9465   3.765   1.104   4.598
37151W        W 9466   7.023   3.973   1.737
37152W        W 9467  30.545  36.825   4.566
37153W        W 9468  16.431  38.563   2.810
37154W        W 9469  16.592  28.685  13.916
37155W        W 9470  24.045  32.521   1.044
37156W        W 9471  11.334   2.617   1.314
37157W        W 9472  39.968   4.812  11.990
37158W        W 9473  26.474   9.265  14.388
37159W        W 9474   8.293  38.919  13.129
37160W        W 9475   6.222  32.123  12.299
37161W        W 9476   0.479  14.088   3.087
37162W        W 9477   5.799  25.558  13.012
37163W        W 9478   5.709  16.805  11.083
37164W        W 9479  19.811  24.206  13.839
37165W        W 9480  30.060   4.754   1.668
37166W        W 9481   4.413  26.900  12.809
37167W        W 9482   7.482  39.539  13.332
37168W        W 9483  20.570   3.989   1.193
37169W        W 9484  33.584  16.039  14.438
37170W        W 9485   3.449  20.935   1.930
37171W        W 9486  22.639  26.416   4.570
37172W        W 9487  41.338   6.028  11.565
37173W        W 9488  21.800   1.420  13.998
37174W        W 9489  15.818  43.295   2.660
37175W        W 9490  15.322  40.792  11.050
37176W        W 9491  21.502  30.963  14.780
37177W        W 9492  12.098  38.827   4.149
37178W        W 9493  20.031  20.233  10.804
37179W        W 9494  18.212   5.982  11.661
37180W        W 9495  41.450   0.845  13.586
37181W        W 9496   6.712  29.523  14.307
37182W        W 9497  12.648  30.566   1.959
37183W        W 9498  15.061  24.101  11.691
37184W        W 9499  34.925  16.658   0.876
37185W        W 9500  40.983  17.255  13.477
37186W        W 9501  25.579  24.108  11.520
37187W        W 9502  41.924   2.958  13.924
37188W        W 9503  42.694  24.271   2.635
37189W        W 9504  12.666   5.493   2.067
37190W        W 9505  30.686  25.005   4.050
37191W        W 9506  34.398  36.375  10.697
37192W        W 9507  18.094  29.005   0.488
37193W        W 9508  10.306   5.319  14.492
37194W        W 9509  16.162   4.192   2.744
37195W        W 9510  40.917  39.860   3.900
37196W        W 9511  34.862  39.938   2.635
37197W        W 9512  19.962   1.856  12.376
37198W        W 9513  38.537  32.623   1.420
37199W        W 9514  33.628  23.648  10.796
37200W        W 9515  37.419  20.983   3.123
37201W        W 9516  24.574  35.420   4.872
37202W        W 9517   5.334   9.844   2.326
37203W        W 9518  36.943  37.793   3.881
37204W        W 9519  34.409  20.164  11.553
37205W        W 9520   1.757  26.155   4.503
37206W        W 9521  32.963   7.590  12.786
37207W        W 9522  23.728  28.525   1.995
37208W        W 9523   8.185  12.651   3.933
37209W        W 9524   1.168  18.551  14.563
37210W        W 9525  31.455  21.688   0.700
37211W        W 9526  33.017  23.986   2.339
37212W        W 9527   7.094  22.548   4.498
37213W        W 9528  17.243   0.237  13.762
37214W        W 9529   4.004  17.687  13.931
37215W        W 9530  22.630  41.368  12.945
37216W        W 9531   0.545  32.990   2.592
37217W        W 9532  30.867  41.791  14.820
37218W        W 9533  36.850  14.239   3.722
37219W        W 9534  12.689  28.637  13.547
37220W        W 9535  28.345  18.641   2.405
37221W        W 9536   4.951  41.780   4.557
37222W        W 9537  32.151  19.251   4.206
37223W        W 9538  23.708  40.004   1.797
37224W        W 9539  42.693   2.538  13.564
37225W        W 9540   2.009  18.763   4.594
37226W        W 9541   8.417  30.989  13.760
37227W        W 9542   2.857   5.744  11.238
37228W        W 9543  34.644  12.372   0.234
37229W        W 9544  26.420  25.221  14.981
37230W        W 9545  21.205  38.505   3.002
37231W        W 9546  35.048  37.970  13.715
37232W        W 9547  29.927   0.030   4.573
37233W        W 9548   9.400  29.016   4.291
37234W        W 9549  36.479  21.763  12.880
37235W        W 9550   9.777  21.000  10.878
37236W        W 9551   9.729  33.460  14.370
37237W        W 9552  27.122   4.374  11.310
37238W        W 9553  35.022  23.616  12.131
37239W        W 9554   1.178  25.078  14.044
37240W        W 9555  41.931  39.310   3.225
37241W        W 9556  24.220   2.899  12.128
37242W        W 9557   8.442   2.405   4.696
37243W        W 9558  25.672  21.012   4.190
37244W        W 9559  13.404  16.843   0.622
37245W        W 9560  20.756  30.215   1.751
37246W        W 9561   3.523  27.667  14.610
37247W        W 9562  38.902   3.222  10.817
37248W        W 9563  40.072  26.616   4.096
37249W        W 9564   7.441  33.868  14.959
37250W        W 9565   2.999  32.896  12.900
37251W        W 9566  18.082  20.759  13.400
37252W        W 9567   5.450  39.528   3.210
37253W        W 9568  14.723  43.787   2.865
37254W        W 9569  38.906  27.697   4.182
37255W        W 9570   4.793  38.127  13.000
37256W        W 9571  42.114  40.765   2.593
37257W        W 9572  29.603  37.099  11.443
37258W        W 9573  43.977  14.608   4.851
37259W        W 9574  11.555  40.890  10.437
37260W        W 9575  16.607  24.200  13.471
37261W        W 9576  38.425   2.230   1.473
37262W        W 9577  29.997   1.979  14.071
37263W        W 9578  14.177  44.842  14.323
37264W        W 9579  43.321  31.120  10.611
37265W        W 9580   8.771  22.217  10.374
37266W        W 9581  27.182   4.017   2.039
37267W        W 9582  14.337  28.123   3.731
37268W        W 9583  25.526  19.199   2.318
37269W        W 9584  39.013   0.383   3.299
37270W        W 9585  29.676   5.474  12.852
37271W        W 9586  40.897   5.953  12.501
37272W        W 9587  16.123  40.072   5.511
37273W        W 9588  11.089  38.802  11.111
37274W        W 9589  22.300   4.479  13.934
37275W        W 9590  41.413  21.778   1.755
37276W        W 9591  39.835  22.311   2.841
37277W        W 9592  12.995   4.909  11.031
37278W        W 9593  16.864  34.868   3.416
37279W        W 9594  19.462  14.136   0.869
37280W        W 9595  28.243  27.771  10.298
37281W        W 9596  43.270   0.333   0.420
37282W        W 9597  25.567  41.480  10.776
37283W        W 9598  21.260  14.122   0.811
37284W        W 9599  10.997  32.738   4.253
37285W        W 9600   1.902   3.916   1.875
37286W        W 9601   8.747   5.798  14.988
37287W        W 9602  30.931  30.142  10.967
37288W        W 9603  13.318  12.353  11.409
37289W        W 9604  21.181  18.346  11.153
37290W        W 9605  31.191  24.634   4.553
37291W        W 9606   4.816  20.631  10.662
37292W        W 9607  32.701  40.159   0.772
37293W        W 9608  17.623  26.761   0.954
37294W        W 9609  15.854  15.678  14.485
37295W        W 9610  25.080   7.344  11.018
37296W        W 9611  24.521  36.101   1.349
37297W        W 9612  42.286  29.624  12.531
37298W        W 9613  24.679  28.325  12.991
37299W        W 9614  41.692  39.770  13.231
37300W        W 9615   2.907  16.572  12.923
37301W        W 9616  24.232   8.636  12.861
37302W        W 9617  43.440   9.935   1.848
37303W        W 9618  38.021  27.491   0.241
37304W        W 9619  23.652  21.621  10.763
37305W        W 9620  20.678  22.955   3.672
37306W        W 9621  41.576  26.073   1.367
37307W        W 9622   9.505  14.837   0.025
37308W        W 9623  39.131   9.706  12.523
37309W        W 9624   1.779  32.576  13.034
37310W        W 9625  29.903  15.746   2.944
37311W        W 9626   1.629  14.986   0.889
37312W        W 9627  32.372  35.184  12.837
37313W        W 9628  34.353  32.785  14.254
37314W        W 9629  28.042  28.208   3.205
37315W        W 9630  28.698   6.239  11.163
37316W        W 9631  23.652   4.103  14.031
37317W        W 9632  21.101  19.502  11.306
37318W        W 9633  24.174  28.601  11.267
37319W        W 9634  27.994  42.076  12.456
37320W        W 9635   7.432  44.760  10.941
37321W        W 9636  44.495  39.124   1.664
37322W        W 9637  14.478  24.026  13.393
37323W        W 9638  17.531  35.282   2.772
37324W        W 9639  22.030  14.292   3.750
37325W        W 9640  41.143  39.857  13.836
37326W        W 9641  24.038  36.456   1.961
37327W        W 9642  23.582  19.081   0.010
37328W        W 9643  11.172  27.196   4.722
37329W        W 9644  16.158  30.230  11.491
37330W        W 9645  38.414  20.465   4.088
37331W        W 9646  16.571  13.163   0.307
37332W        W 9647  39.566   2.854  12.162
37333W        W 9648  21.767   5.673   1.209
37334W        W 9649  19.998  30.948   4.350
37335W        W 9650  18.648  36.783   3.290
37336W        W 9651  39.095  37.319   4.418
37337W        W 9652  20.862  36.988   3.892
37338W        W 9653  39.380  22.499   4.768
37339W        W 9654  33.508  20.999   1.480
37340W        W 9655  18.578   4.821   0.493
37341W        W 9656   8.248  29.670   4.693
37342W        W 9657  28.055  18.795   4.634
37343W        W 9658  11.259  15.222   4.468
37344W        W 9659   9.634  32.243   4.133
37345W        W 9660  35.279  42.593   4.589
37346W        W 9661  35.306   0.181  11.646
37347W        W 9662  32.963  41.347   2.626
37348W        W 9663  26.905  36.095  13.728
37349W        W 9664   0.805  35.922   0.925
37350W        W 9665  16.563  19.996   0.946
37351W        W 9666   1.214  41.000   4.093
37352W        W 9667   7.477   7.111   1.199
37353W        W 9668  30.972  15.226   1.046
37354W        W 9669  15.882  17.924  11.596
37355W        W 9670  36.794  38.935   1.867
37356W        W 9671  33.846   0.491   4.504
37357W        W 9672  25.213   8.964   2.481
37358W        W 9673  41.289   5.242   4.090
37359W        W 9674  24.168  43.942   1.644
37360W        W 9675  21.824  42.822  14.950
37361W        W 9676   7.513  29.057  11.254
37362W        W 9677   4.077  13.719   4.815
37363W        W 9678  16.794  26.604   1.404
37364W        W 9679  13.248  18.994  14.710
37365W        W 9680  41.791  14.223  14.211
37366W        W 9681  28.317  30.609  14.248
37367W        W 9682  43.962  19.158   0.499
37368W        W 9683  33.467  35.138  11.145
37369W        W 9684  40.794  29.464   4.723
37370W        W 9685  35.401   1.079  12.165
37371W        W 9686   6.941  24.476   0.275
37372W        W 9687  14.608  40.929  13.466
37373W        W 9688  30.457  21.245  13.387
37374W        W 9689  42.379  38.857  13.320
37375W        W 9690  20.156  16.683   2.102
37376W        W 9691   4.459  25.611   0.314
37377W        W 9692  38.280   3.714   4.670
37378W        W 9693   5.753  31.317   4.434
37379W        W 9694  25.902   1.410  14.937
37380W        W 9695   3.812  26.529   1.877
37381W        W 9696   5.707  18.126   2.714
37382W        W 9697   7.801   9.440  14.542
37383W        W 9698  27.709   4.792  12.944
37384W        W 9699   8.702  24.783  13.888
37385W        W 9700  29.667  27.353   3.646
37386W        W 9701  13.357  35.046   5.009
37387W        W 9702  33.657  34.314  11.044
37388W        W 9703  43.495  33.440  11.689
37389W        W 9704   0.762   9.610   2.901
37390W        W 9705  39.278  34.439   2.719
37391W        W 9706  20.133  13.831  13.422
37392W        W 9707  32.115  32.432  11.669
37393W        W 9708  43.296  43.632   4.353
37394W        W 9709  18.986   9.758  11.178
37395W        W 9710   1.276   9.461   4.143
37396W        W 9711  22.457  30.365   0.648
37397W        W 9712  11.208  20.130  14.410
37398W        W 9713  30.439   4.238  12.067
37399W        W 9714  14.776  18.753   3.187
37400W        W 9715  16.061  36.862   3.033
37401W        W 9716  43.842  29.463  12.424
37402W        W 9717  44.409   5.899   1.402
37403W        W 9718   1.538  24.086  14.299
37404W        W 9719  20.766   7.805   1.175
37405W        W 9720  33.638   2.371   1.816
37406W        W 9721  18.909  17.644   3.230
37407W        W 9722  15.534  40.071  11.655
37408W        W 9723   4.461  22.281   2.311
37409W        W 9724  33.886  41.265  14.041
37410W        W 9725  14.863  38.858  12.144
37411W        W 9726  28.035   2.252  11.604
37412W        W 9727  21.635  21.985   1.418
37413W        W 9728  33.079   8.561   4.530
37414W        W 9729  18.471  39.530  10.409
37415W        W 9730   0.795  27.113  13.130
37416W        W 9731  22.081  23.793   4.032
37417W        W 9732   9.280  10.734  10.581
37418W        W 9733  25.276  11.734  13.771
37419W        W 9734   9.179  22.039  11.724
37420W        W 9735  27.004   0.525  14.401
37421W        W 9736  19.556  18.598  13.315
37422W        W 9737   5.338  34.298   2.705
37423W        W 9738  37.860  25.946   1.805
37424W        W 9739  22.049   1.301  11.536
37425W        W 9740  26.612  38.408  11.060
37426W        W 9741  16.017  16.659   3.606
37427W        W 9742  40.980  39.396   1.362
37428W        W 9743  33.092  17.063  12.474
37429W        W 9744  22.520  37.088   1.478
37430W        W 9745   5.704   9.768   0.347
37431W        W 9746  11.189  38.494  13.452
37432W        W 9747  36.401  30.701  11.979
37433W        W 9748  31.012   4.381   4.634
37434W        W 9749  44.449  22.053  10.167
37435W        W 9750  29.428   2.635  11.204
37436W        W 9751  24.578   9.831   2.948
37437W        W 9752  27.080  31.450   0.296
37438W        W 9753  25.727  40.016  10.618
37439W        W 9754  31.822  39.064   2.383
37440W        W 9755  18.151  11.750   2.527
37441W        W 9756  28.507  14.551   1.679
37442W        W 9757  15.258  13.421  14.535
37443W        W 9758  44.792  25.006   0.019
37444W        W 9759   6.392  37.671  10.005
37445W        W 9760  24.129  26.277   0.251
37446W        W 9761  37.313  27.745  14.540
37447W        W 9762  14.412  34.506   2.690
37448W        W 9763  39.348  24.916  12.105
37449W        W 9764  10.017  39.431   2.391
37450W        W 9765  31.890  13.760  14.947
37451W        W 9766  27.105   2.977   1.912
37452W        W 9767  14.105   8.661  11.017
37453W        W 9768  42.899  18.611   1.139
37454W        W 9769  17.602  29.618  11.268
37455W        W 9770  40.242  40.942   4.345
37456W        W 9771   3.917  13.306  13.558
37457W        W 9772  31.998   0.714  13.033
37458W        W 9773  26.518  35.090   4.551
37459W        W 9774   2.229  26.390   1.668
37460W        W 9775   8.936  37.768   4.927
37461W        W 9776  32.711  31.676   4.861
37462W        W 9777  12.920  32.917   1.162
37463W        W 9778  42.535  16.494  11.170
37464W        W 9779  25.022   9.286  14.448
37465W        W 9780   2.166  29.225   4.056
37466W        W 9781  28.412  13.590  12.346
37467W        W 9782  28.950  25.679  12.915
37468W        W 9783   7.341   8.440   3.280
37469W        W 9784  40.731   0.343   3.864
37470W        W 9785  13.723   9.796   2.141
37471W        W 9786  31.208  26.987  10.429
37472W        W 9787   0.577  30.944   0.836
37473W        W 9788  38.514  35.880  13.871
37474W        W 9789  24.261  17.648  13.844
37475W        W 9790  43.397   1.183  14.897
37476W        W 9791  14.084  36.541  14.454
37477W        W 9792  33.107  10.626   0.277
37478W        W 9793  25.141  21.115   0.425
37479W        W 9794  43.742  35.940  10.573
37480W        W 9795  34.986  39.754  11.098
37481W        W 9796   7.654  33.890  12.459
37482W        W 9797  14.999  42.985   0.445
37483W        W 9798  26.750   5.009  14.386
37484W        W 9799  16.958  38.075   0.403
37485W        W 9800  35.657  18.655   3.686
37486W        W 9801  28.057   4.000  11.487
37487W        W 9802  33.166  27.969   0.938
37488W        W 9803  26.943   8.859   1.908
37489W        W 9804   4.885   2.327   4.100
37490W        W 9805  23.859  11.703  12.433
37491W        W 9806  36.264  39.106  12.644
37492W        W 9807  40.141   6.088  10.311
37493W        W 9808  16.466  39.510   4.560
37494W        W 9809  17.246  13.071   4.564
37495W        W 9810  38.444  26.658   0.261
37496W        W 9811   5.240   1.443   0.179
37497W        W 9812   0.504  26.024  12.795
37498W        W 9813   2.830  25.229   3.495
37499W        W 9814   1.444  38.836   3.843
37500W        W 9815  25.041   4.711  12.079
37501W        W 9816   6.566  25.047   3.283
37502W        W 9817  27.670  39.586   0.938
37503W        W 9818  20.648  13.536  11.846
37504W        W 9819  36.420  14.102   1.398
37505W        W 9820  11.374  23.289   0.256
37506W        W 9821   9.727  37.667   3.899
37507W        W 9822   3.423   2.495  11.302
37508W        W 9823  42.081  35.956  14.501
37509W        W 9824  37.477  41.073  12.506
37510W        W 9825  44.262  23.984   0.976
37511W        W 9826  43.839   2.434   4.564
37512W        W 9827  33.018   7.920  13.768
37513W        W 9828  42.322  16.946  12.115
37514W        W 9829  13.915   8.402  11.986
37515W        W 9830  20.075  31.823   1.183
37516W        W 9831   3.852  18.292   4.655
37517W        W 9832  19.695  13.784   2.374
37518W        W 9833  30.145  24.698   0.527
37519W        W 9834   7.640  18.168  13.394
37520W        W 9835   0.056  26.981  13.809
37521W        W 9836  24.956  11.851   3.643
37522W        W 9837  30.697  35.384  11.867
37523W        W 9838  10.635  22.805   0.857
37524W        W 9839   1.128  33.398   5.018
37525W        W 9840  39.441   2.307   0.228
37526W        W 9841  10.166  36.829  11.955
37527W        W 9842   8.341  22.098  10.662
37528W        W 9843  37.268  20.231   5.182
37529W        W 9844  20.207   2.189  13.557
37530W        W 9845  38.555   5.211  14.775
37531W        W 9846   6.862  34.654  12.912
37532W        W 9847  13.189   7.838   0.001
37533W        W 9848  12.702  35.572   1.450
37534W        W 9849  36.907  42.549   1.751
37535W        W 9850   5.102   6.712  11.264
37536W        W 9851  38.486   6.679  14.016
37537W        W 9852  22.290  21.006   0.329
37538W        W 9853   7.835  21.679  13.112
37539W        W 9854   1.953  35.732   3.808
37540W        W 9855   0.655  32.132   3.797
37541W        W 9856  31.916  10.062  13.955
37542W        W 9857  30.381  43.826  11.413
37543W        W 9858  34.813  19.721   1.344
37544W        W 9859  28.100  41.386   1.125
37545W        W 9860  27.159  10.822   0.083
37546W        W 9861   1.361  14.744   4.754
37547W        W 9862  21.095  34.266   1.657
37548W        W 9863   3.690  12.193   1.290
37549W        W 9864  22.859  18.098   2.230
37550W        W 9865  35.933  34.678   4.811
37551W        W 9866  18.633  10.078   2.173
37552W        W 9867  33.600  28.521   0.684
37553W        W 9868  23.152  23.053   1.371
37554W        W 9869  38.437  38.268  12.601
37555W        W 9870  36.554   1.630   1.686
37556W        W 9871  38.489  43.268   0.308
37557W        W 9872  39.034   6.195   5.030
37558W        W 9873  42.062  42.283  13.832
37559W        W 9874  24.128  23.650  11.582
37560W        W 9875  37.631   0.765   1.926
37561W        W 9876  39.627  32.949  14.295
37562W        W 9877  41.559  33.143  12.372
37563W        W 9878  21.164   4.417   3.151
37564W        W 9879  22.157  10.372   3.630
37565W        W 9880  39.281  42.497  14.487
37566W        W 9881  12.094   8.452   0.763
37567W        W 9882  44.326  37.403  12.548
37568W        W 9883  34.326   3.566   2.185
37569W        W 9884  31.585  29.038   1.438
37570W        W 9885  38.840   2.255   4.993
37571W        W 9886  17.274  15.111   0.818
37572W        W 9887   0.346  16.207   1.746
37573W        W 9888   2.877  20.578  12.343
37574W        W 9889   9.225   9.131   4.187
37575W        W 9890  27.238   2.301  13.482
37576W        W 9891  13.204  20.029   0.511
37577W        W 9892   9.372  37.304   3.901
37578W        W 9893   9.898  26.075   3.706
37579W        W 9894   4.511  34.236   1.456
37580W        W 9895  37.290  18.521   1.825
37581W        W 9896   4.295  44.484   4.483
37582W        W 9897  30.039  32.857   0.215
37583W        W 9898  43.800  43.742  13.447
37584W        W 9899  10.520  19.156  10.576
37585W        W 9900  17.654  18.666   3.761
37586W        W 9901   7.958  17.693   2.227
37587W        W 9902  32.633  33.578   2.835
37588W        W 9903  39.081  17.795  12.793
37589W        W 9904  42.522  34.994   3.007
37590W        W 9905   6.130  24.661  10.368
37591W        W 9906   9.227  31.407  14.293
37592W        W 9907  39.830  30.667  10.827
37593W        W 9908  26.997  25.731   1.631
37594W        W 9909  41.020  32.114  14.868
37595W        W 9910   3.789  14.622  12.612
37596W        W 9911   9.164  22.091  14.478
37597W        W 9912  35.186  23.436   4.054
37598W        W 9913  34.169  14.302   2.267
37599W        W 9914  30.501   6.686   2.227
37600W        W 9915  23.292  18.728   2.792
37601W        W 9916  40.691   4.416   1.301
37602W        W 9917  26.946  12.730  11.222
37603W        W 9918  29.676  33.292   4.576
37604W        W 9919  20.976  26.130  13.084
37605W        W 9920   5.049  14.647  14.719
37606W        W 9921  24.073   1.339   4.634
37607W        W 9922  15.905   5.750   2.885
37608W        W 9923   1.812   4.451   0.281
37609W        W 9924  22.584  28.157  14.352
37610W        W 9925  17.567  39.865   1.385
37611W        W 9926  22.018  30.005  12.532
37612W        W 9927   4.480   8.278  10.948
37613W        W 9928  24.567  21.014  13.370
37614W        W 9929  41.480  17.079  12.061
37615W        W 9930   0.669  25.097   4.597
37616W        W 9931   9.952  12.188   4.869
37617W        W 9932  26.974  22.709  11.517
37618W        W 9933  18.876  28.407   5.799
37619W        W 9934   4.258   7.437  10.772
37620W        W 9935  42.497  11.290  13.445
37621W        W 9936   5.839  16.596  13.599
37622W        W 9937  25.531  29.542  13.937
37623W        W 9938  24.239  35.864  13.902
37624W        W 9939   9.427   3.243   4.726
37625W        W 9940  17.673  30.108  11.079
37626W        W 9941  37.491  19.516  12.621
37627W        W 9942   1.776  28.550   4.552
37628W        W 9943  36.510  44.902  10.928
37629W        W 9944  13.448  29.362  11.124
37630W        W 9945  16.718  16.246  10.522
37631W        W 9946  40.025   0.838   0.991
37632W        W 9947  15.387  30.771  12.005
37633W        W 9948   7.269  13.631   0.430
37634W        W 9949   1.400  37.062   4.442
37635W        W 9950   9.879  22.544   0.375
37636W        W 9951  35.077  43.251  14.513
37637W        W 9952   5.282  30.711  10.513
37638W        W 9953   4.765   7.947  11.531
37639W        W 9954   3.274  39.611  11.957
37640W        W 9955  43.645  27.780  13.614
37641W        W 9956   5.844  13.301   1.499
37642W        W 9957  42.043   3.618  11.493
37643W        W 9958  30.867   7.290  13.223
37644W        W 9959  37.676  31.979  13.089
37645W        W 9960   8.367  43.023   4.651
37646W        W 9961  35.349   1.518   2.397
37647W        W 9962  35.031   1.756   2.704
37648W        W 9963  35.898   7.384   0.265
37649W        W 9964  25.077  33.652   0.770
37650W        W 9965  42.887  44.318   4.925
37651W        W 9966   2.446  34.603  12.399
37652W        W 9967  12.162  40.322  10.702
37653W        W 9968   1.549  15.125   1.372
37654W        W 9969  40.846  18.494  12.772
37655W        W 9970  31.218  24.934   4.125
37656W        W 9971  40.301  19.777  12.110
37657W        W 9972  31.121  28.438   1.843
37658W        W 9973  20.039  17.689   0.688
37659W        W 9974  19.347  29.741   3.165
37660W        W 9975  40.377  11.765  11.629
37661W        W 9976  44.450  44.360  12.682
37662W        W 9977  19.080  15.663   0.915
37663W        W 9978  14.588  41.233  11.183
37664W        W 9979  11.272  18.532   3.697
37665W        W 9980  44.406  35.462  14.888
37666W        W 9981  17.653  19.139   1.376
37667W        W 9982  39.251  23.462  11.103
37668W        W 9983  11.785   1.411   4.635
37669W        W 9984  23.231  28.679   0.434
37670W        W 9985  21.681  27.818  12.396
37671W        W 9986   4.184   2.034  12.374
37672W        W 9987   1.902   1.789  14.272
37673W        W 9988  15.373  43.483  11.509
37674W        W 9989  12.178  33.519  10.609
37675W        W 9990  18.035  24.245  13.515
37676W        W 9991   5.401  39.011   4.476
37677W        W 9992   9.349  40.520   2.757
37678W        W 9993  28.052  14.728  11.355
37679W        W 9994   1.967  15.313   0.390
37680W        W 9995  32.352  23.460  12.976
37681W        W 9996   6.625   3.035  11.603
37682W        W 9997  10.406  36.986   4.528
37683W        W 9998  42.819  26.395  11.506
37684W        W 9999  29.199  43.372   3.114
37685W        W10000  16.706  40.767  14.776
37686W        W10001   6.634  43.579  10.897
37687W        W10002  22.751  38.004  12.019
37688W        W10003   8.609   2.863  11.369
37689W        W10004  28.501   9.179  14.482
37690W        W10005  13.705  43.448  14.417
37691W        W10006  39.977  33.043  14.998
37692W        W10007   0.190  33.154  14.020
37693W        W10008  31.178  11.687  14.456
37694W        W10009   3.254  34.734   1.686
37695W        W10010  11.715  23.243   4.133
37696W        W10011  41.256   6.315   1.735
37697W        W10012  20.993   8.563  14.403
37698W        W10013  34.577  10.213  11.040
37699W        W10014  19.824  18.702  12.893
37700W        W10015  22.140  22.103   4.648
37701W        W10016  14.730  14.381   5.108
37702W        W10017  14.535  11.297  11.164
37703W        W10018   5.687  16.051  10.158
37704W        W10019  33.618  27.730  14.296
37705W        W10020  19.113  42.010   3.342
37706W        W10021  22.943   9.897  14.470
37707W        W10022  16.153  38.593   5.542
37708W        W10023   6.960  12.093  14.869
37709W        W10024  41.167  17.569   0.760
37710W        W10025  30.585  16.188  12.771
37711W        W10026  34.624  29.141   3.944
37712W        W10027  20.642  20.161  14.976
37713W        W10028   8.877  34.344   3.285
37714W        W10029  38.072  16.290  10.750
37715W        W10030  33.911  19.522  13.526
37716W        W10031   6.854  19.618   2.720
37717W        W10032  13.821  19.330   3.369
37718W        W10033   2.435   5.377  12.999
37719W        W10034  42.447  38.162  12.048
37720W        W10035  34.793  16.036  12.623
37721W        W10036  19.304  23.033   3.150
37722W        W10037   6.599  35.928  14.082
37723W        W10038  29.999  27.950  12.441
37724W        W10039  27.588  26.496  10.588
37725W        W10040  33.999  25.555  11.535
37726W        W10041  20.134  34.551   1.693
37727W        W10042  10.123  40.486  13.474
37728W        W10043  21.847  25.195   1.849
37729W        W10044  10.925  18.550  13.857
37730W        W10045  33.557  36.198  13.274
37731W        W10046  18.337  18.707  11.051
37732W        W10047  37.738  32.502   0.416
37733W        W10048  26.572  16.933  14.798
37734W        W10049  34.962  34.994  10.405
37735W        W10050  35.005  28.497   4.066
37736W        W10051  33.596   9.196  13.072
37737W        W10052  26.238  35.887   1.831
37738W        W10053  22.103  11.336  12.927
37739W        W10054  13.033   2.516   2.720
37740W        W10055  39.095  25.117   4.205
37741W        W10056  14.777  32.798   1.153
37742W        W10057  15.553  23.199  11.914
37743W        W10058  31.677  19.705   0.285
37744W        W10059  24.621  10.197   4.300
37745W        W10060  39.638  28.047   1.354
37746W        W10061  42.673  37.088   2.783
37747W        W10062   9.110  39.536  13.406
37748W        W10063  27.665  20.709  13.836
37749W        W10064   3.825   5.455  11.946
37750W        W10065  32.204  18.105  11.624
37751W        W10066  40.774  34.494  10.658
37752W        W10067   1.883  12.844   0.530
37753W        W10068   3.806  17.008   3.330
37754W        W10069  26.282  44.393  13.916
37755W        W10070  34.966  35.959   2.868
37756W        W10071  16.329  11.740   1.758
37757W        W10072  26.424  42.701   4.086
37758W        W10073  29.585  43.351  14.727
37759W        W10074  11.886  18.772   2.932
37760W        W10075  21.989  41.415   0.638
37761W        W10076  26.124  31.976   1.911
37762W        W10077  25.502   6.146  11.559
37763W        W10078  44.227  40.359  10.746
37764W        W10079   3.892  44.809  13.585
37765W        W10080  26.376  22.647   0.545
37766W        W10081  29.320   8.378  12.532
37767W        W10082  27.610  19.640  12.107
37768W        W10083   1.056   2.551   1.278
37769W        W10084  39.517   2.064  10.535
37770W        W10085   8.249   4.475   1.691
37771W        W10086  43.358  14.759  13.958
37772W        W10087  11.155   2.019   1.697
37773W        W10088  37.070  21.110   0.923
37774W        W10089   5.607   6.881   0.719
37775W        W10090  31.938  38.402  14.436
37776W        W10091  25.760  24.041  12.016
37777W        W10092   1.419  12.623   0.474
37778W        W10093  26.064   7.635  14.847
37779W        W10094  24.570  25.275   0.875
37780W        W10095   6.675  31.461  14.281
37781W        W10096  35.158   0.999  11.720
37782W        W10097  24.235   4.172  10.722
37783W        W10098  12.660   4.826   3.824
37784W        W10099  32.049  31.973   2.486
37785W        W10100  26.163  36.398  11.161
37786W        W10101  17.133  22.139   0.915
37787W        W10102   0.403  44.916   2.398
37788W        W10103  42.808  24.127  14.301
37789W        W10104  28.151  22.544  11.256
37790W        W10105  24.407  34.205  10.381
37791W        W10106  35.668  23.728   2.798
37792W        W10107  21.322  19.567  12.213
37793W        W10108  40.357  38.063  13.356
37794W        W10109  38.329   9.079   3.855
37795W        W10110  26.014  10.826   3.203
37796W        W10111   1.267  33.615  13.398
37797W        W10112   9.845  36.584  12.981
37798W        W10113  18.176  36.869  14.804
37799W        W10114  27.984   7.962  14.862
37800W        W10115  38.146  16.174   2.197
37801W        W10116   0.822  43.794  10.896
37802W        W10117  25.021  11.100  14.960
37803W        W10118  30.718  20.258   0.949
37804W        W10119   2.021   9.693  14.399
37805W        W10120  13.921   1.690  14.449
37806W        W10121  18.560  21.553  13.511
37807W        W10122  13.727  18.756   4.642
37808W        W10123  28.848  37.628   1.507
37809W        W10124   8.418   1.399   0.484
37810W        W10125  24.928  31.841  11.149
37811W        W10126  36.840  31.002  14.450
37812W        W10127  31.725  27.556   2.485
37813W        W10128  28.466  43.692  14.065
37814W        W10129  23.113  27.403  14.343
37815W        W10130   9.350  28.716   1.320
37816W        W10131   5.241  29.447  12.435
37817W        W10132  26.756  10.701  12.539
37818W        W10133  25.072  18.983   1.382
37819W        W10134  32.578   6.619  12.138
37820W        W10135   2.829  26.989   4.154
37821W        W10136  42.791   2.058   1.550
37822W        W10137   5.020  34.864  13.050
37823W        W10138  11.241  42.020  14.644
37824W        W10139  15.345  40.452  10.640
37825W        W10140  36.690  18.842   2.656
37826W        W10141  10.931  12.706   1.871
37827W        W10142  36.391  27.956   4.161
37828W        W10143  24.228  14.897  14.399
37829W        W10144  42.979  37.224  12.636
37830W        W10145  10.389  20.028  14.009
37831W        W10146  12.885  42.816  13.742
37832W        W10147  26.070  42.443   3.349
37833W        W10148  34.812  24.417   4.177
37834W        W10149   2.878  38.446  12.356
37835W        W10150  27.636  41.535   1.813
37836W        W10151  35.484  39.082   2.272
37837W        W10152  34.893  30.533  12.032
37838W        W10153  24.070  22.938  12.357
37839W        W10154  24.983  31.299  10.682
37840W        W10155  35.537  26.923  11.239
37841W        W10156  39.860  12.279  12.844
37842W        W10157  27.877  19.698   4.038
37843W        W10158  11.706  24.771  14.500
37844W        W10159  26.196  26.720   0.825
37845W        W10160  42.724  44.749  12.868
37846W        W10161   4.945  33.929  12.209
37847W        W10162  12.105  16.560  11.418
37848W        W10163  17.103   0.675   2.258
37849W        W10164  35.031  34.114  14.348
37850W        W10165  39.058  22.474   0.694
37851W        W10166  13.899   5.514  12.493
37852W        W10167  23.654   2.682   4.617
37853W        W10168  20.926   4.453  12.617
37854W        W10169  42.429  30.858  12.016
37855W        W10170  21.512  35.161   2.448
37856W        W10171   7.712  25.938   2.413
37857W        W10172  38.663  29.416  12.324
37858W        W10173  16.141   9.143   2.230
37859W        W10174  20.315  19.792   2.464
37860W        W10175  15.873  14.292   0.745
37861W        W10176  26.229  37.416   3.428
37862W        W10177  22.269  38.999   0.413
37863W        W10178  26.566   8.137   0.483
37864W        W10179  10.308  41.558  11.019
37865W        W10180  35.009  39.284   4.506
37866W        W10181  24.139   6.241  12.128
37867W        W10182   9.892   5.018  13.031
37868W        W10183   4.366  38.000  10.683
37869W        W10184  30.091   2.406  11.516
37870W        W10185  17.788   6.872   0.225
37871W        W10186  27.103  24.770   5.082
37872W        W10187  21.993   8.820  11.075
37873W        W10188  31.699  34.567   0.687
37874W        W10189   6.716  41.128  11.476
37875W        W10190  11.691  37.588   4.555
37876W        W10191  21.360  35.108   4.469
37877W        W10192  29.032  36.551   0.289
37878W        W10193  34.962  14.742   3.360
37879W        W10194  38.623  34.331  13.529
37880W        W10195  41.931  44.600  12.747
37881W        W10196  31.407  35.420   3.636
37882W        W10197  22.312  17.883  12.916
37883W        W10198  17.448  15.290  14.873
37884W        W10199  38.459  27.232   3.839
37885W        W10200  19.670   3.860   5.009
37886W        W10201  12.188  25.797  13.071
37887W        W10202  26.142  32.065  14.343
37888W        W10203  23.370   8.797  10.778
37889W        W10204  29.708  22.651   3.177
37890W        W10205   0.407  37.379   2.979
37891W        W10206   3.485   3.362   2.716
37892W        W10207  17.369  42.947   4.643
37893W        W10208  16.026  35.215   4.957
37894W        W10209  13.354  11.519  14.419
37895W        W10210   2.217   3.833  10.700
37896W        W10211   6.368  17.779  14.920
37897W        W10212  18.314  12.950   2.480
37898W        W10213  35.854   2.791   1.703
37899W        W10214  32.281  39.025  12.585
37900W        W10215  40.229  41.456   1.803
37901W        W10216  25.910  10.349   1.697
37902W        W10217  41.703   1.176  11.684
37903W        W10218   6.609  18.041   4.913
37904W        W10219  22.117  27.675   2.719
37905W        W10220  32.414   1.490  13.122
37906W        W10221  43.707   0.066   3.166
37907W        W10222  29.927  32.140  14.490
37908W        W10223  34.205  27.220   3.495
37909W        W10224  11.850  42.778   1.154
37910W        W10225  22.175  39.485   3.445
37911W        W10226  41.000  23.550  14.505
37912W        W10227  20.554  13.649   2.554
37913W        W10228  23.241  36.986  10.651
37914W        W10229   8.800  16.346  14.858
37915W        W10230  31.224  23.438   9.928
37916W        W10231  42.459  19.711  11.887
37917W        W10232  37.559  39.024  10.321
37918W        W10233   7.391  43.968  12.443
37919W        W10234  39.498  18.660  14.471
37920W        W10235  21.331  16.600  13.923
37921W        W10236  31.305  17.258  13.888
37922W        W10237  16.727  14.700  12.074
37923W        W10238  30.867  11.957  13.112
37924W        W10239  41.404  38.616  10.794
37925W        W10240  28.174   7.022   5.439
37926W        W10241  17.274  22.613   4.673
37927W        W10242  37.346  44.964   3.188
37928W        W10243  20.992  40.964  10.528
37929W        W10244  12.623  39.302   0.410
37930W        W10245  28.125  31.667  10.970
37931W        W10246   2.508   6.084  11.058
37932W        W10247  20.935  20.609   3.171
37933W        W10248   0.904  34.624  14.140
37934W        W10249  18.078  29.667   1.472
37935W        W10250   7.672   0.903   0.377
37936W        W10251  43.679  13.875   4.132
37937W        W10252   1.362  29.461  13.843
37938W        W10253  37.788   6.314   1.606
37939W        W10254  33.353  21.977   4.506
37940W        W10255  31.898  14.238   4.658
37941W        W10256  43.331  27.980   3.417
37942W        W10257  28.750  14.352   3.541
37943W        W10258   0.495  16.086   0.733
37944W        W10259  23.681  23.414  13.074
37945W        W10260   0.666  15.189   0.776
37946W        W10261  16.726  10.014   1.290
37947W        W10262  16.699  26.358  14.565
37948W        W10263  21.586  26.285  11.896
37949W        W10264  44.668  25.678   3.115
37950W        W10265  19.534  33.392  14.915
37951W        W10266  33.978   7.385  11.093
37952W        W10267  26.396  11.554   2.158
37953W        W10268  36.990  29.339  12.139
37954W        W10269  18.600  37.963   2.210
37955W        W10270  21.703  40.534  14.819
37956W        W10271  37.322  17.900   4.616
37957W        W10272   5.211  35.056   2.314
37958W        W10273  24.269   3.361  13.033
37959W        W10274  16.844  10.057  10.643
37960W        W10275  14.264  39.862   4.633
37961W        W10276  11.085  11.119  12.079
37962W        W10277  29.174  41.007  11.584
37963W        W10278  36.756   7.240  13.249
37964W        W10279  11.584   3.291  12.494
37965W        W10280   9.139   5.171   4.524
37966W        W10281  10.951  32.927  14.045
37967W        W10282  11.384  27.461  13.998
37968W        W10283  39.483  39.846  14.004
37969W        W10284  38.455   6.843  12.563
37970W        W10285  31.159  22.258  11.889
37971W        W10286  11.718  40.838   1.290
37972W        W10287  14.765  19.594   1.755
37973W        W10288   4.024  13.122   0.610
37974W        W10289  28.156  10.276   0.258
37975W        W10290  34.132  24.547   2.280
37976W        W10291  41.304  13.721   2.695
37977W        W10292  41.292  21.097   2.764
37978W        W10293  42.518  40.194  13.572
37979W        W10294  30.123  24.550   2.989
37980W        W10295  36.611  43.910   1.965
37981W        W10296  37.554  14.179  10.300
37982W        W10297   2.962   1.466   0.701
37983W        W10298  36.365   1.782   0.764
37984W        W10299  31.556   3.927  10.929
37985W        W10300  40.044  38.157  14.903
37986W        W10301   0.921   5.291  11.097
37987W        W10302  26.844   1.783  14.777
37988W        W10303  17.506   0.459  13.393
37989W        W10304  43.760   8.661   1.483
37990W        W10305  36.841  18.574  11.413
37991W        W10306   8.412   6.625   4.597
37992W        W10307  23.702  23.230  11.566
37993W        W10308  37.368  42.663   4.200
37994W        W10309  15.026  11.815   2.473
37995W        W10310  20.163  34.625   3.204
37996W        W10311  42.927  37.037   4.530
37997W        W10312   4.053  14.613  13.063
37998W        W10313   9.329  12.442   0.672
37999W        W10314  24.893  11.748  12.829
38000W        W10315  40.966  44.950   1.340
38001W        W10316  10.350  25.014  14.413
38002W        W10317   3.564  26.455   3.628
38003W        W10318  27.877  11.651   4.587
38004W        W10319  18.586   1.807  10.380
38005W        W10320  32.515  31.410   1.951
38006W        W10321   4.869  24.051   1.591
38007W        W10322  42.470  23.748  10.476
38008W        W10323  26.907  41.720  14.056
38009W        W10324  41.817  22.064   2.586
38010W        W10325  42.441  14.433   0.953
38011W        W10326  39.817   1.423  13.789
38012W        W10327  12.321   5.186   1.719
38013W        W10328  36.823   1.637   2.223
38014W        W10329   6.373  17.205   2.603
38015W        W10330   9.605  29.098  13.372
38016W        W10331  34.915  16.284   1.358
38017W        W10332  17.018  33.223  11.560
38018W        W10333  12.687   9.615  13.766
38019W        W10334  23.030  43.987   1.725
38020W        W10335  40.435  35.215  14.891
38021W        W10336  33.557  42.893   0.034
38022W        W10337  19.547  33.144   3.020
38023W        W10338  39.789  39.434  10.729
38024W        W10339  27.999   2.932   2.909
38025W        W10340  37.419  39.367   4.121
38026W        W10341  22.666  33.921  14.233
38027W        W10342   8.204  34.686   2.441
38028W        W10343  34.458  40.385  10.574
38029W        W10344   8.055  20.823  11.464
38030W        W10345  15.705  38.105   3.377
38031W        W10346  38.507  12.292  11.890
38032W        W10347  18.692  41.715   4.070
38033W        W10348  24.749  11.580  12.339
38034W        W10349   3.238  13.588  14.085
38035W        W10350  32.342  39.176   2.305
38036W        W10351  44.976  23.110   3.854
38037W        W10352  22.106  18.989   3.234
38038W        W10353  11.887  21.165   1.024
38039W        W10354   8.938  11.777   1.582
38040W        W10355  27.236  10.738  12.336
38041W        W10356  31.971  28.589   2.676
38042W        W10357  15.007  16.865  14.016
38043W        W10358   5.720   0.399  12.532
38044W        W10359   1.535  17.307   3.181
38045W        W10360  14.152  17.683  14.792
38046W        W10361  44.976  19.032   0.054
38047W        W10362  20.667  23.036   0.266
38048W        W10363  40.641  30.638   2.785
38049W        W10364   2.897  20.426   0.105
38050W        W10365  33.049  24.687  12.058
38051W        W10366   2.733  21.587   0.847
38052W        W10367  17.799  23.698  12.672
38053W        W10368  43.312  10.427   1.478
38054W        W10369  18.948  33.914  10.562
38055W        W10370  18.645  33.120  13.568
38056W        W10371  10.402   8.870  10.414
38057W        W10372  16.381  43.241  11.548
38058W        W10373  26.978  37.273   0.613
38059W        W10374  31.465  15.352   3.207
38060W        W10375  32.388  21.605   2.047
38061W        W10376   0.614  25.356  14.359
38062W        W10377  32.036  26.485   4.523
38063W        W10378  28.355   5.266  12.581
38064W        W10379   3.231   1.474  13.525
38065W        W10380  43.696  34.639   3.424
38066W        W10381  38.422  36.698  14.299
38067W        W10382   2.863  40.500   0.225
38068W        W10383  38.739   5.412   3.792
38069W        W10384   7.238  43.307  11.095
38070W        W10385  19.176  19.826   1.788
38071W        W10386  35.262  27.498  14.393
38072W        W10387  14.945  44.203  12.710
38073W        W10388  17.071  31.177  14.558
38074W        W10389  15.503  16.204   3.718
38075W        W10390  40.517  41.836   4.411
38076W        W10391   2.195  43.088   1.718
38077W        W10392   1.080  19.662   0.832
38078W        W10393  31.422  43.348   3.771
38079W        W10394  41.780  29.017  12.882
38080W        W10395  18.799  16.183   1.807
38081W        W10396  13.032  32.956  11.436
38082W        W10397   3.953   2.746   3.796
38083W        W10398   3.689  38.981  14.539
38084W        W10399  13.876   9.227   0.603
38085W        W10400  12.809   3.471  11.709
38086W        W10401  26.560  28.459  14.740
38087W        W10402  28.652  36.393   4.607
38088W        W10403  10.199  19.347   9.784
38089W        W10404  15.586  19.718   0.389
38090W        W10405  38.772  42.379  14.550
38091W        W10406   1.421  10.351  14.327
38092W        W10407  17.219  30.696   1.404
38093W        W10408  28.022   6.586  10.545
38094W        W10409  27.993  32.760  14.012
38095W        W10410  35.931  13.156   0.244
38096W        W10411  31.498  19.975   4.139
38097W        W10412  15.182  11.907  13.448
38098W        W10413  37.295  14.550   1.317
38099W        W10414  26.481   1.027  14.999
38100W        W10415  29.039  17.156   4.222
38101W        W10416  41.597  23.525  12.149
38102W        W10417  17.858  12.059   3.285
38103W        W10418  12.563   1.384  14.455
38104W        W10419  36.449  12.795   1.934
38105W        W10420  23.655  32.691  14.908
38106W        W10421   3.771  35.333   2.365
38107W        W10422   2.093  34.517   5.549
38108W        W10423  18.897   5.708   4.040
38109W        W10424  42.373  42.266  11.162
38110W        W10425  35.351  18.286   0.523
38111W        W10426  28.133   1.384   4.032
38112W        W10427  38.325  38.723  12.838
38113W        W10428   2.873  10.855   2.010
38114W        W10429   1.005  38.813   0.901
38115W        W10430  28.773  18.445  10.730
38116W        W10431  22.637  27.608   0.705
38117W        W10432  24.533  18.943   1.362
38118W        W10433   8.383   7.913  11.079
38119W        W10434  29.671  25.497   0.650
38120W        W10435  39.797  11.253  14.444
38121W        W10436  15.841  15.688   0.365
38122W        W10437  41.297  20.595   0.949
38123W        W10438   4.659   0.873  13.369
38124W        W10439  32.788  37.052   3.226
38125W        W10440  33.465  34.904   0.318
38126W        W10441  26.491   4.307  10.640
38127W        W10442   7.230  22.490   1.532
38128W        W10443  24.103  41.290  13.098
38129W        W10444  11.689  35.995  13.893
38130W        W10445  40.387  34.487  13.611
38131W        W10446  40.617  26.059  12.870
38132W        W10447  44.471  18.039   0.861
38133W        W10448  36.521   7.633   1.892
38134W        W10449  31.826   9.404   4.831
38135W        W10450  10.211  26.471   3.572
38136W        W10451  41.365  12.206   2.403
38137W        W10452  20.205  24.081   1.605
38138W        W10453  13.136  27.412   0.777
38139W        W10454  33.276  12.744  12.477
38140W        W10455  43.897  35.352   1.693
38141W        W10456  24.234  11.340   1.776
38142W        W10457  38.715   6.368   1.220
38143W        W10458  17.365  37.589  13.863
38144W        W10459  20.773  12.756   4.898
38145W        W10460  43.789  18.251   1.643
38146W        W10461  22.111  20.459  14.497
38147W        W10462  18.052  42.763  11.571
38148W        W10463  32.558  26.628   3.405
38149W        W10464  24.520  42.546   0.547
38150W        W10465  42.342  32.497   0.218
38151W        W10466  19.237  23.894  11.476
38152W        W10467  18.033  18.678   1.915
38153W        W10468  24.937  27.119   1.965
38154W        W10469  43.470  19.922  14.305
38155W        W10470  20.740  11.382   4.184
38156W        W10471  24.162  11.483  14.583
38157W        W10472  17.588  43.108  12.536
38158W        W10473  38.533   7.946  14.516
38159W        W10474  42.766  26.033   4.382
38160W        W10475  11.575  29.718   1.816
38161W        W10476  42.512  14.245  11.332
38162W        W10477  43.398  25.970  13.818
38163W        W10478  33.372  39.098   1.824
38164W        W10479  18.539  25.876  12.791
38165W        W10480   3.411   6.722   4.534
38166W        W10481  18.009  41.094  13.336
38167W        W10482  10.188   2.370   4.127
38168W        W10483  34.927  32.148   0.425
38169W        W10484  32.878  30.380  11.659
38170W        W10485  24.701  40.221  11.488
38171W        W10486  21.095  35.566  10.567
38172W        W10487  29.962   2.708  12.487
38173W        W10488  32.733  37.587  14.345
38174W        W10489  42.897   0.806   4.382
38175W        W10490  33.359  33.888   1.410
38176W        W10491  34.030   5.363   2.204
38177W        W10492  37.372  21.683   0.317
38178W        W10493  14.619   6.353  14.802
38179W        W10494  34.324   4.176   1.908
38180W        W10495  18.542  37.382  13.086
38181W        W10496  22.197  28.872  13.413
38182W        W10497  25.670  38.149   3.163
38183W        W10498  42.576  36.059  14.457
38184W        W10499   8.259  42.942  13.424
38185W        W10500  40.979  25.012  11.153
38186W        W10501  42.991  17.358  10.586
38187W        W10502  41.703   1.327  12.186
38188W        W10503  18.662  23.695   2.791
38189W        W10504  24.538   2.620   4.742
38190W        W10505  42.824  41.315  11.889
38191W        W10506  43.042  11.132  14.808
38192W        W10507  28.356  34.779  12.929
38193W        W10508   8.149  35.172   2.303
38194W        W10509  22.234  34.068   2.681
38195W        W10510  17.764  29.052   4.341
38196W        W10511  13.167  13.371   3.163
38197W        W10512  25.987   1.413  10.645
38198W        W10513   5.313  43.611   0.889
38199W        W10514  21.488   6.404   4.126
38200W        W10515  32.994  19.523  11.605
38201W        W10516  23.504   5.863   4.552
38202W        W10517  13.357  43.757   1.324
38203W        W10518  15.545  15.037  12.461
38204W        W10519  16.285   8.192  13.126
38205W        W10520  26.531  34.521   2.259
38206W        W10521  37.216  19.737  13.017
38207W        W10522  18.307  37.793  10.657
38208W        W10523   6.376  16.816   4.325
38209W        W10524  20.839  10.271  11.424
38210W        W10525  42.745   4.476  14.712
38211W        W10526  43.165  44.813   1.462
38212W        W10527  27.282  23.812   3.853
38213W        W10528  18.196  23.221  14.516
38214W        W10529  27.582  43.552  11.901
38215W        W10530  23.458  32.507   4.095
38216W        W10531  38.546  15.043  11.134
38217W        W10532  23.226   4.315   1.447
38218W        W10533  36.990  27.260   5.120
38219W        W10534  38.747  39.219  10.095
38220W        W10535  44.162  13.801  11.310
38221W        W10536  34.792  17.457  12.931
38222W        W10537  17.671  20.038  12.631
38223W        W10538  40.773  14.717  14.766
38224W        W10539  24.249  38.584   4.509
38225W        W10540  40.725  29.642   2.788
38226W        W10541  27.267  27.433  12.021
38227W        W10542  10.048   3.039   1.192
38228W        W10543  29.054  37.565   4.778
38229W        W10544   1.475  40.763   3.705
38230W        W10545  12.865  14.302   3.795
38231W        W10546  31.686  39.566   4.600
38232W        W10547  42.256   3.161   5.347
38233W        W10548  21.566   7.178   3.686
38234W        W10549  22.404  34.445   0.959
38235W        W10550  35.882  36.588  14.903
38236W        W10551  26.346  25.915  11.492
38237W        W10552   0.901   8.364  14.861
38238W        W10553  39.782  37.292  12.769
38239W        W10554  10.494  20.223   3.085
38240W        W10555   3.356  27.579  13.162
38241W        W10556   0.404  31.202   3.180
38242W        W10557  14.991  18.576   0.402
38243W        W10558  26.990  11.652  10.796
38244W        W10559  28.068  27.127  11.100
38245W        W10560   3.493  11.620  13.684
38246W        W10561  31.493  31.974  14.847
38247W        W10562  11.024  15.848   0.523
38248W        W10563  43.397  33.611  12.154
38249W        W10564  10.757  28.123   0.727
38250W        W10565  36.286  31.976  13.454
38251W        W10566  22.078  43.390  12.852
38252W        W10567  33.429  22.620   1.198
38253W        W10568  43.541  33.577  11.155
38254W        W10569  36.824  22.653  13.967
38255W        W10570  27.462   1.877   2.127
38256W        W10571  26.004  31.883   3.416
38257W        W10572  23.246  37.575  12.826
38258W        W10573  22.300   3.963   3.608
38259W        W10574  20.315   2.287   3.366
38260W        W10575  10.189   7.465   3.247
38261W        W10576  42.317  18.448  13.364
38262W        W10577   7.095  25.793   3.429
38263W        W10578   4.406   0.655   1.841
38264W        W10579  19.566  15.200  12.381
38265W        W10580  32.926  27.006  13.298
38266W        W10581  37.561  42.086   0.948
38267W        W10582  13.614  37.214  10.510
38268W        W10583  34.986   9.604   2.133
38269W        W10584   7.780  20.487   3.820
38270W        W10585  11.834  43.383  11.455
38271W        W10586   0.832  25.008  12.604
38272W        W10587  19.201  34.877  12.911
38273W        W10588  30.909  10.193   4.086
38274W        W10589  44.966   5.407  14.885
38275W        W10590  14.729  43.354  14.745
38276W        W10591  44.422  36.184  14.614
38277W        W10592  28.638  10.205  10.976
38278W        W10593  11.498  28.129   3.283
38279W        W10594  39.911  23.578   5.148
38280W        W10595  23.613  21.870  10.312
38281W        W10596  26.487  12.100   2.742
38282W        W10597  37.731  34.661   1.975
38283W        W10598  15.907   5.830  10.141
38284W        W10599  17.166  18.064  13.320
38285W        W10600  35.511  34.023  12.141
38286W        W10601  13.405  24.650   5.075
38287W        W10602  35.609  11.934  13.950
38288W        W10603  12.123  13.568   4.286
38289W        W10604  22.437   8.866   0.972
38290W        W10605   6.458  28.111  11.136
38291W        W10606  19.706  43.843   2.146
38292W        W10607  25.027  26.527  13.872
38293W        W10608   6.430   5.467   4.322
38294W        W10609   8.811  31.374  14.608
38295W        W10610  30.693   8.144  13.933
38296W        W10611  16.361  35.410  13.005
38297W        W10612  12.601   9.369  12.955
38298W        W10613  23.578  28.607   4.399
38299W        W10614  37.999  18.881   2.884
38300W        W10615  14.823   8.436  11.087
38301W        W10616  10.648  39.622   0.913
38302W        W10617   7.627  15.630   4.543
38303W        W10618   7.888  42.810   4.868
38304W        W10619  32.853   4.313  11.831
38305W        W10620  43.729  40.267  13.989
38306W        W10621   9.006  13.299   4.568
38307W        W10622  19.445  19.704  11.147
38308W        W10623   1.896  30.978  14.314
38309W        W10624  11.045   9.157  12.274
38310W        W10625  13.580  14.027  11.080
38311W        W10626   3.543  11.989  12.558
38312W        W10627  10.331  26.165  12.787
38313W        W10628   1.133   9.406  14.078
38314W        W10629  35.649  36.463   2.715
38315W        W10630  40.052  25.214   0.376
38316W        W10631  28.539  33.959  11.172
38317W        W10632  16.546  41.964   4.636
38318W        W10633  33.480  10.271  14.854
38319W        W10634  41.924  38.811   3.135
38320W        W10635  13.046   7.411   0.882
38321W        W10636  16.212  22.906   2.269
38322W        W10637  37.999  36.621  10.635
38323W        W10638  10.092  36.531  11.096
38324W        W10639  24.497   2.417  13.939
38325W        W10640  12.761  11.684  11.317
38326W        W10641  39.373  34.584  12.157
38327W        W10642   6.492  16.763   2.869
38328W        W10643   2.436  41.402   0.876
38329W        W10644   2.943   5.283  13.924
38330W        W10645  41.453  29.006  12.468
38331W        W10646  15.207  26.912   0.916
38332W        W10647  18.104  14.727  10.843
38333W        W10648  17.256  31.176   0.445
38334W        W10649  39.338  26.579   1.964
38335W        W10650  18.416  12.564  13.489
38336W        W10651   9.741  31.380  14.827
38337W        W10652  31.776  25.242  10.913
38338W        W10653  26.964  38.302  12.335
38339W        W10654  42.519  21.055  11.654
38340W        W10655  27.120  27.900  14.419
38341W        W10656  12.239   4.674  12.366
38342W        W10657  24.691  32.385  11.900
38343W        W10658  10.160  17.829   1.784
38344W        W10659  17.543  34.404  11.901
38345W        W10660  10.770  19.340  11.122
38346W        W10661   9.082   4.008   0.822
38347W        W10662  44.987  25.209   1.363
38348W        W10663  13.245   2.215  13.337
38349W        W10664   2.261   9.765  10.552
38350W        W10665  41.043  18.739   0.730
38351W        W10666   7.711  26.444  14.982
38352W        W10667  14.587  40.481  11.983
38353W        W10668  13.001  15.434   0.810
38354W        W10669  21.172  10.807   2.783
38355W        W10670  21.279  35.361   2.841
38356W        W10671   1.031  34.860   3.732
38357W        W10672  16.673   1.767   3.762
38358W        W10673   9.274   4.994  14.839
38359W        W10674  18.569   3.800   2.858
38360W        W10675  22.256  24.125   4.399
38361W        W10676  12.228  18.737   4.256
38362W        W10677  20.116   6.302  12.967
38363W        W10678  10.239  17.133   4.565
38364W        W10679  23.243  22.538   3.119
38365W        W10680  24.179  35.991   4.486
38366W        W10681   8.764  23.992   4.630
38367W        W10682   5.312   2.935  12.643
38368W        W10683  36.379  44.454   2.582
38369W        W10684  37.834  37.061  13.077
38370W        W10685   0.266  40.853  12.484
38371W        W10686  27.947  16.932  10.718
38372W        W10687  42.570  40.368  12.656
38373W        W10688   7.219   9.289   4.554
38374W        W10689  42.868  29.727  14.326
38375W        W10690   7.915   1.640   0.837
38376W        W10691   3.238  14.034   0.016
38377W        W10692  20.108   7.422   2.861
38378W        W10693  28.425  44.457  13.093
38379W        W10694  37.513  43.744  14.089
38380W        W10695  44.696   4.714   1.508
38381W        W10696  18.536  24.423  12.558
38382W        W10697   9.267  36.977  13.333
38383W        W10698  30.626  23.059  10.728
38384W        W10699   1.452  25.404  13.765
38385W        W10700  22.056   3.612  14.388
38386W        W10701  31.503  30.459   4.090
38387W        W10702  23.042   9.667  12.868
38388W        W10703  36.662  19.360   4.069
38389W        W10704  30.641  11.147  14.009
38390W        W10705   1.825  30.017   0.452
38391W        W10706   8.810   0.475  13.959
38392W        W10707  19.246  23.241  11.625
38393W        W10708  11.077   3.438  14.526
38394W        W10709  29.110   0.304  13.334
38395W        W10710  20.966  42.009  12.906
38396W        W10711  28.486  34.460   2.317
38397W        W10712  31.612  30.643   1.768
38398W        W10713  36.537   8.281  12.492
38399W        W10714   4.593   9.780  13.703
38400W        W10715  33.329   9.458  11.641
38401W        W10716  22.559  25.495  10.026
38402W        W10717  41.344  10.886   1.717
38403W        W10718  42.783  26.212   0.864
38404W        W10719  11.896  37.877   4.108
38405W        W10720   8.892  29.066   3.119
38406W        W10721  31.557  40.359  12.020
38407W        W10722  26.441  40.101  11.090
38408W        W10723  25.582  44.497   3.113
38409W        W10724   2.935  24.499   4.180
38410W        W10725  10.914  15.893   2.449
38411W        W10726   7.967  17.772   0.447
38412W        W10727   2.242  18.832  12.907
38413W        W10728   2.454  10.123   0.547
38414W        W10729  20.779  14.109   1.414
38415W        W10730   7.151   7.350   0.400
38416W        W10731  40.741  23.204  11.864
38417W        W10732  19.263  43.564   1.431
38418W        W10733  20.260   3.143   0.528
38419W        W10734  41.483  23.620   0.556
38420W        W10735  44.928  10.797  13.591
38421W        W10736  17.550  11.662   3.338
38422W        W10737  23.246   4.260  13.640
38423W        W10738  30.522   6.485   2.714
38424W        W10739  19.195  22.332   3.673
38425W        W10740  10.848  27.683   3.011
38426W        W10741  12.499  26.563  14.965
38427W        W10742  44.425  39.251  12.735
38428W        W10743  39.834  44.483  14.861
38429W        W10744   7.905   3.504   0.943
38430W        W10745   6.115  23.639   0.483
38431W        W10746   8.942  31.965   1.336
38432W        W10747  28.973  24.443  11.491
38433W        W10748   4.247  25.723   4.124
38434W        W10749  19.074  41.546   1.853
38435W        W10750  25.942  26.022   0.298
38436W        W10751   7.828  25.595   1.692
38437W        W10752  25.711  11.167   0.773
38438W        W10753   8.431  42.285  12.442
38439W        W10754  34.117  19.273  11.183
38440W        W10755   3.530  28.342   1.823
38441W        W10756  39.101  44.153  13.417
38442W        W10757  32.383  31.119  13.054
38443W        W10758  43.370   5.746   0.470
38444W        W10759   1.887  23.751  13.904
38445W        W10760  20.127   2.710  12.666
38446W        W10761  28.194  28.649   0.972
38447W        W10762   3.477  26.452  14.466
38448W        W10763   4.278  25.674   1.815
38449W        W10764  19.611  10.305  12.306
38450W        W10765  17.698  35.383   1.888
38451W        W10766   8.212  25.654  14.594
38452W        W10767  37.643  25.497  14.447
38453W        W10768  14.204  15.762  12.867
38454W        W10769   3.476   4.730  11.589
38455W        W10770  20.966  15.373   0.774
38456W        W10771  23.551   2.241   3.226
38457W        W10772  41.001  42.025   3.195
38458W        W10773  14.743   4.465  10.712
38459W        W10774  39.834  22.133   4.240
38460W        W10775  42.199   2.610   2.888
38461W        W10776  28.410  43.230  13.829
38462W        W10777  44.575  27.268  12.638
38463W        W10778  18.146  10.964   0.859
38464W        W10779  29.165  34.917   0.812
38465W        W10780  32.526  21.609   2.953
38466W        W10781  33.848  33.377   1.785
38467W        W10782  40.361   5.394  13.369
38468W        W10783  27.499  30.717   4.230
38469W        W10784  37.930  17.235   3.045
38470W        W10785   5.433  21.727  11.954
38471W        W10786  21.227  22.303   2.251
38472W        W10787   5.580  19.574  12.900
38473W        W10788  25.657  28.456   2.617
38474W        W10789  12.658  14.828   3.925
38475W        W10790  18.944  34.533   0.294
38476W        W10791   5.018  41.131  11.678
38477W        W10792  11.224   5.381  13.992
38478W        W10793   0.062  43.402   2.190
38479W        W10794   3.355  31.946   2.796
38480W        W10795  21.559   2.980   3.112
38481W        W10796   0.329  27.907   4.814
38482W        W10797  28.560  29.123  10.422
38483W        W10798  17.675  19.005  12.667
38484W        W10799  37.973   5.356  10.908
38485W        W10800   9.719  24.973  10.638
38486W        W10801  41.750   7.733   1.515
38487W        W10802   6.990  21.437   3.190
38488W        W10803  32.655  29.494   0.702
38489W        W10804  25.861  34.969   2.268
38490W        W10805  36.237   3.387   2.725
38491W        W10806   8.870  14.273  13.872
38492W        W10807  36.040   8.612  13.917
38493W        W10808   5.017  37.488  13.854
38494W        W10809  43.783  43.301  14.990
38495W        W10810  22.662  43.369   3.946
38496W        W10811   2.354  33.505   3.770
38497W        W10812  22.036  20.558   1.182
38498W        W10813  27.512   0.683  11.297
38499W        W10814  17.026  31.885   1.747
38500W        W10815  43.792  27.717   4.173
38501W        W10816  42.577  26.126  12.303
38502W        W10817  18.979  26.761  12.028
38503W        W10818   1.192  35.746   0.166
38504W        W10819  23.545  23.959  14.134
38505W        W10820  18.465  26.644  12.067
38506W        W10821  25.327  38.267  10.581
38507W        W10822  28.339  18.591  10.957
38508W        W10823  24.920  40.354  11.035
38509W        W10824  38.539  41.883  13.448
38510W        W10825  31.810  36.881  12.280
38511W        W10826  32.670   9.297  13.020
38512W        W10827  15.098  33.855  13.966
38513W        W10828  16.756  27.418  14.822
38514W        W10829  34.104  43.475   0.772
38515W        W10830  21.056  13.761  13.345
38516W        W10831  10.738   9.334  13.284
38517W        W10832  26.443   6.925   4.149
38518W        W10833   1.784  15.262   2.750
38519W        W10834   6.710  12.871  14.405
38520W        W10835  37.122  29.161  11.660
38521W        W10836   4.648  32.878   0.505
38522W        W10837  35.380  12.791   4.622
38523W        W10838   2.659  20.114   0.495
38524W        W10839  37.767  21.896   3.301
38525W        W10840  37.482  35.624   3.252
38526W        W10841  36.165  21.047   0.289
38527W        W10842  17.112   4.248   3.162
38528W        W10843  41.278  25.151   1.748
38529W        W10844  37.102  42.405   2.571
38530W        W10845  39.360  23.673   0.288
38531W        W10846   9.680  38.368   2.868
38532W        W10847   2.876  11.422   4.403
38533W        W10848  13.912   0.793   2.221
38534W        W10849   9.359  40.509  11.999
38535W        W10850  19.751  31.299  13.636
38536W        W10851  28.900  35.524   3.191
38537W        W10852   0.067  27.000  10.984
38538W        W10853  34.869   0.149   1.356
38539W        W10854  31.335  13.533   3.203
38540W        W10855  28.454   4.780  12.427
38541W        W10856  10.627  28.542   1.918
38542W        W10857  19.081   3.069   0.965
38543W        W10858   7.942  24.388   4.106
38544W        W10859  29.888  22.519   1.718
38545W        W10860  38.561  37.742   1.891
38546W        W10861  36.534  23.818  12.835
38547W        W10862  42.067  44.393   0.598
38548W        W10863  42.966  36.191   4.628
38549W        W10864  27.562  42.212  13.793
38550W        W10865  41.024  36.878  12.100
38551W        W10866  10.820  21.113   2.110
38552W        W10867  20.154  35.164   2.272
38553W        W10868   8.930  36.118  13.024
38554W        W10869  16.535  36.407  14.445
38555W        W10870  22.057  33.607   1.407
38556W        W10871   1.956  19.161  12.001
38557W        W10872  26.235  38.304   0.321
38558W        W10873  41.976  27.170  13.940
38559W        W10874   3.352  27.150   0.426
38560W        W10875  23.514   1.527  10.737
38561W        W10876  40.370  37.903   5.019
38562W        W10877   7.321  28.841   0.841
38563W        W10878   7.178  36.160   1.185
38564W        W10879   4.720  34.075  10.766
38565W        W10880  31.298  25.625   1.228
38566W        W10881  26.973   4.253   5.073
38567W        W10882   6.316  16.253  12.929
38568W        W10883  23.736   2.885   0.689
38569W        W10884  24.895  15.735  10.830
38570W        W10885   7.271  38.584   0.812
38571W        W10886  31.087  12.165  12.145
38572W        W10887  22.195  37.411   1.252
38573W        W10888  11.499  13.069   4.346
38574W        W10889  32.496  32.475   4.442
38575W        W10890  33.518   1.247   5.129
38576W        W10891   0.876  15.661   0.767
38577W        W10892   0.364  35.601  13.279
38578W        W10893  23.473   1.478  11.576
38579W        W10894   9.935  21.554   1.769
38580W        W10895  39.774   8.920   1.660
38581W        W10896  18.780  12.847   4.671
38582W        W10897   4.621  24.931   3.383
38583W        W10898  16.826  36.059  13.497
38584W        W10899  11.299  19.501   2.199
38585W        W10900  32.950  44.858  14.430
38586W        W10901  32.810  33.460  10.723
38587W        W10902  38.840  19.115  10.707
38588W        W10903  40.172  31.563   4.105
38589W        W10904  26.368  25.001  13.334
38590W        W10905   2.912   1.723   1.482
38591W        W10906  25.457  40.426  13.867
38592W        W10907   6.688  12.080  13.993
38593W        W10908  25.546  40.305   4.134
38594W        W10909  18.165  24.905   2.279
38595W        W10910  32.393  29.472   1.974
38596W        W10911  40.005  20.218  12.083
38597W        W10912  11.587  27.400   2.325
38598W        W10913  30.713  39.062  14.772
38599W        W10914  25.558  43.985   4.830
38600W        W10915  14.302  16.633  11.726
38601W        W10916   5.523   4.715   2.364
38602W        W10917  33.208  16.799   4.530
38603W        W10918  33.142  39.981  14.453
38604W        W10919  44.006  26.960   3.680
38605W        W10920  25.355  17.147   4.550
38606W        W10921   4.920  25.808   2.659
38607W        W10922  12.539  15.714   5.119
38608W        W10923  18.663  13.039  11.659
38609W        W10924  32.419   4.485   3.301
38610W        W10925  26.447   5.370   0.806
38611W        W10926  10.670  13.724   1.846
38612W        W10927   5.624  32.003  13.925
38613W        W10928  11.498  37.324  11.154
38614W        W10929   7.970  26.740  13.640
38615W        W10930  11.387  16.822   0.855
38616W        W10931  33.165  10.341  13.476
38617W        W10932  42.050  26.287  12.899
38618W        W10933  37.612   7.413  12.478
38619W        W10934  25.027  13.733   4.650
38620W        W10935  11.807  28.244   0.902
38621W        W10936   5.980  31.420   0.633
38622W        W10937  37.777  23.776   2.223
38623W        W10938   3.194  35.315   3.264
38624W        W10939   1.780  43.858  13.315
38625W        W10940  34.591  29.505   3.551
38626W        W10941   4.994  35.540   2.418
38627W        W10942  33.026  22.128   0.786
38628W        W10943  32.523   4.455   4.570
38629W        W10944  18.741  18.066   1.355
38630W        W10945  26.980   8.807   2.679
38631W        W10946  26.404  21.331  13.404
38632W        W10947  12.468  10.809   1.879
38633W        W10948  11.254  15.764   1.685
38634W        W10949   3.858  11.912  13.897
38635W        W10950  38.078   3.246  13.855
38636W        W10951  26.357  35.902  14.427
38637W        W10952  12.314  16.914   3.247
38638W        W10953  26.076  27.153  14.422
38639W        W10954  18.327  11.145   1.302
38640W        W10955  32.192  18.631  11.958
38641W        W10956   5.896  11.177   4.784
38642W        W10957   2.423  17.343  12.954
38643W        W10958   8.111  41.885   1.891
38644W        W10959  33.841  18.281   3.267
38645W        W10960  11.123  20.840   1.720
38646W        W10961  33.693  42.957  10.557
38647W        W10962  35.874  25.038  11.189
38648W        W10963  31.475  24.520   1.753
38649W        W10964  10.993  35.944   2.388
38650W        W10965  13.629  31.428  13.513
38651W        W10966  20.584  30.533  12.277
38652W        W10967  27.597  43.998   1.884
38653W        W10968   4.271  16.828  13.038
38654W        W10969  38.265  38.238  13.091
38655W        W10970  38.109  23.084  14.028
38656W        W10971  35.837   0.035  13.508
38657W        W10972  39.041   6.404  12.901
38658W        W10973  38.186  34.355  13.222
38659W        W10974  43.434   4.002   2.910
38660W        W10975  20.171   0.656  12.485
38661W        W10976  33.235  26.510  12.490
38662W        W10977  35.978   4.395  13.020
38663W        W10978  18.341  23.807  13.450
38664W        W10979  40.013   8.405   3.159
38665W        W10980  15.255   0.248  11.236
38666W        W10981  11.565  24.307  12.450
38667W        W10982  17.037  16.739  13.172
38668W        W10983  42.385  39.660  14.524
38669W        W10984  44.668  13.747  13.615
38670W        W10985   7.824  12.431   2.251
38671W        W10986   5.234  25.790  11.518
38672W        W10987   6.733  42.886   2.558
38673W        W10988  16.827  34.937   1.847
38674W        W10989  25.210  29.196   3.691
38675W        W10990  27.261  36.652  14.836
38676W        W10991  31.428  19.643  14.427
38677W        W10992  36.319  21.578   2.068
38678W        W10993  34.166  18.711  12.945
38679W        W10994  19.757  11.170   1.425
38680W        W10995   1.043  10.560   4.108
38681W        W10996  29.852  32.554  14.075
38682W        W10997   6.879  19.440   1.218
38683W        W10998  33.174   1.556  12.031
38684W        W10999   0.364  19.149   2.879
38685W        W11000  36.968  29.248   2.770
38686W        W11001  26.654   1.279  14.547
38687W        W11002  23.178  13.776  11.477
38688W        W11003  12.315  13.401   0.793
38689W        W11004   0.070  16.547   4.120
38690W        W11005   6.256  32.311   4.034
38691W        W11006  41.007  13.260  14.222
38692W        W11007  23.307  17.179   1.155
38693W        W11008  26.000  38.054   4.175
38694W        W11009  40.827  35.845   0.288
38695W        W11010  37.943  19.876   1.377
38696W        W11011  29.172  40.965   4.521
38697W        W11012  38.352  40.987  14.966
38698W        W11013   5.843  41.063   2.697
38699W        W11014  42.875  20.349  14.962
38700W        W11015  20.036  28.677   1.251
38701W        W11016  15.876  40.398  10.613
38702W        W11017   8.422  37.883  11.631
38703W        W11018  30.407   4.455  12.525
38704W        W11019  40.758  38.048  14.359
38705W        W11020  39.929  34.704   4.098
38706W        W11021  19.739  29.239  12.464
38707W        W11022  23.095  34.432   3.128
38708W        W11023  31.646  23.131  14.504
38709W        W11024  23.243  34.389  11.129
38710W        W11025  29.638   7.385   3.815
38711W        W11026  31.954  20.302  13.330
38712W        W11027  16.263  22.186   0.934
38713W        W11028  31.893  27.022   1.238
38714W        W11029  20.692  36.898   3.392
38715W        W11030   6.778   2.752   3.277
38716W        W11031  10.924  26.998   0.690
38717W        W11032  39.853  37.020   4.725
38718W        W11033  35.696  18.453  11.197
38719W        W11034  20.755  23.966  12.900
38720W        W11035  17.747  34.317   2.923
38721W        W11036  33.489  10.121   2.393
38722W        W11037  13.809  15.124  13.211
38723W        W11038  34.909  27.377  10.713
38724W        W11039  27.995  29.043  12.586
38725W        W11040  36.755  34.654  12.058
38726W        W11041  29.208  11.182   4.095
38727W        W11042  32.675  44.651   1.351
38728W        W11043  13.379  43.359  13.052
38729W        W11044  26.605  25.854   0.748
38730W        W11045  35.778  32.151  13.441
38731W        W11046   6.157  31.165   4.115
38732W        W11047  38.314   9.046   4.720
38733W        W11048   8.680   1.837  14.411
38734W        W11049  23.232  37.899   2.162
38735W        W11050  11.355  34.002  13.502
38736W        W11051  31.682  13.689  13.738
38737W        W11052  41.476  15.997  13.375
38738W        W11053  27.864  33.667  13.934
38739W        W11054  38.049  28.154  13.537
38740W        W11055  10.400  35.031  12.051
38741W        W11056   0.520  41.128  11.028
38742W        W11057  30.121  30.024  14.472
38743W        W11058  41.958   0.721   4.719
38744W        W11059  34.143  31.587  12.088
38745W        W11060  23.677  36.774  12.006
38746W        W11061   5.311  13.809  11.005
38747W        W11062  39.459  14.983   1.853
38748W        W11063  24.196  38.996   0.941
38749W        W11064  39.138   0.322   0.475
38750W        W11065   0.345  37.772   3.293
38751W        W11066  43.839  16.888  13.238
38752W        W11067  43.439  42.888  12.960
38753W        W11068  23.062  29.400   3.034
38754W        W11069   3.321  40.114  11.985
38755W        W11070  38.152  37.098  11.832
38756W        W11071   8.775  29.181  12.536
38757W        W11072   9.771  29.398   4.951
38758W        W11073  14.997  26.510  14.218
38759W        W11074  42.359  11.360  12.082
38760W        W11075  37.441  22.463  12.480
38761W        W11076  30.643  22.494  11.739
38762W        W11077  43.924  21.735   1.266
38763W        W11078  32.047  11.549   1.320
38764W        W11079  19.859  30.503  10.022
38765W        W11080  43.010  17.060  14.902
38766W        W11081  24.844   5.153   2.749
38767W        W11082  39.505  37.991   3.356
38768W        W11083  15.828  35.415   4.539
38769W        W11084  37.289  15.606   4.163
38770W        W11085  24.969   8.266   1.432
38771W        W11086  20.271   2.371   3.861
38772W        W11087   1.384  37.947   4.381
38773W        W11088   2.323  11.548   4.573
38774W        W11089   4.304  13.661  10.451
38775W        W11090  13.821  25.573  12.310
38776W        W11091  30.648  35.810   4.304
38777W        W11092  30.989  28.929  12.570
38778W        W11093  16.005  27.695   3.772
38779W        W11094  25.362  29.172   0.991
38780W        W11095  30.443  21.698   1.854
38781W        W11096  15.128  14.854  14.771
38782W        W11097   4.665  10.711  13.662
38783W        W11098  26.954  25.274  12.425
38784W        W11099  29.428  20.664  12.801
38785W        W11100  12.110  41.037   3.154
38786W        W11101  31.136  18.090   3.617
38787W        W11102   5.707  38.655   2.978
38788W        W11103  10.456  17.077   3.691
38789W        W11104  14.555  44.063   2.449
38790W        W11105   0.896  20.025   5.072
38791W        W11106  37.074  11.634  12.392
38792W        W11107  38.912  18.406  11.885
38793W        W11108  39.384  20.644   0.500
38794W        W11109  12.736  24.411   0.961
38795W        W11110   7.153  29.933   2.276
38796W        W11111   0.517  14.804  14.517
38797W        W11112  17.725  25.966   4.099
38798W        W11113  12.793  29.084   0.898
38799W        W11114  18.770   8.823   2.872
38800W        W11115   2.318  30.433  13.001
38801W        W11116  10.195  33.429   0.443
38802W        W11117  33.924  44.929   4.379
38803W        W11118  21.939   2.043  11.135
38804W        W11119  44.050  28.525  14.055
38805W        W11120  15.901  36.071   2.788
38806W        W11121   8.398  22.747   4.613
38807W        W11122  25.420  42.601  10.623
38808W        W11123  32.009  25.639   1.983
38809W        W11124  14.814   5.537  14.843
38810W        W11125  15.478  22.180   4.500
38811W        W11126  42.401  44.337  14.274
38812W        W11127  18.516  35.964  11.687
38813W        W11128  14.734   5.304  12.894
38814W        W11129  10.629   1.962   5.315
38815W        W11130  24.659  16.326   3.985
38816W        W11131  28.533  30.657  11.650
38817W        W11132  19.689  28.372  13.473
38818W        W11133   5.266  10.794  14.766
38819W        W11134  38.799  29.113  11.100
38820W        W11135   5.318  37.427   4.506
38821W        W11136  21.594  39.664   1.630
38822W        W11137  39.507   5.612  14.913
38823W        W11138  29.971  26.221   4.546
38824W        W11139  32.905  20.138   2.377
38825W        W11140  39.532  15.664   3.015
38826W        W11141  25.212  37.853   4.837
38827W        W11142  33.431  21.196  12.407
38828W        W11143   0.196  33.957   1.311
38829W        W11144  34.863   3.053  14.462
38830W        W11145  29.944  43.079  12.014
38831W        W11146  44.526  27.249  13.148
38832W        W11147  21.160  44.932   2.911
38833W        W11148  14.150  19.191  11.288
38834W        W11149  44.318  28.668   0.404
38835W        W11150  40.158  36.176  12.056
38836W        W11151  22.119  25.659   1.599
38837W        W11152  11.598  22.768  10.492
38838W        W11153   3.253  10.749  12.985
38839W        W11154  19.497  31.392   3.335
38840W        W11155  34.116  19.244  14.365
38841W        W11156  42.617  26.464  10.598
38842W        W11157  39.285  27.445   1.620
38843W        W11158  27.170  24.997   0.855
38844W        W11159  40.657  33.803  14.510
38845W        W11160  44.282  22.440  12.977
38846W        W11161   3.819  24.102   3.322
38847W        W11162  18.751  22.075   0.513
38848W        W11163  40.574  28.570   4.450
38849W        W11164   7.033  30.586  11.206
38850W        W11165  35.323  10.908   4.153
38851W        W11166  15.124  34.161   0.398
38852W        W11167  21.426   5.403   2.092
38853W        W11168  25.081  38.464  11.886
38854W        W11169   6.162  11.056  11.101
38855W        W11170  15.147   3.825   0.209
38856W        W11171   2.717   7.183   0.787
38857W        W11172  20.118  13.525   4.883
38858W        W11173  32.517  44.515  13.832
38859W        W11174   5.780   8.184   2.547
38860W        W11175  44.872  40.400   0.900
38861W        W11176  40.930  10.214   2.117
38862W        W11177  35.303  24.292   4.286
38863W        W11178  32.914  40.796   4.050
38864W        W11179   2.425  23.296  10.889
38865W        W11180  36.124  29.660   4.772
38866W        W11181  39.502  29.430   1.972
38867W        W11182   3.929  26.482  13.446
38868W        W11183  37.023  19.257  13.014
38869W        W11184  24.691  18.246  13.030
38870W        W11185   6.733   7.878  13.819
38871W        W11186  32.979   3.397   4.636
38872W        W11187  12.740  13.592  14.753
38873W        W11188   3.848  21.114  10.896
38874W        W11189  34.867  25.049  12.914
38875W        W11190  15.864  23.768  14.479
38876W        W11191  33.241  19.584  10.318
38877W        W11192  32.723  29.603   2.391
38878W        W11193  13.091  28.165   0.349
38879W        W11194  27.081  33.660  14.303
38880W        W11195  43.367  25.451  11.918
38881W        W11196  11.692  37.174  10.679
38882W        W11197  10.654  25.452   0.690
38883W        W11198  19.809  37.193  14.545
38884W        W11199  27.199  44.406  10.663
38885W        W11200  20.649  37.918  10.441
38886W        W11201  19.698  22.087   3.737
38887W        W11202   0.817  18.050   0.411
38888W        W11203   8.937  24.251  12.996
38889W        W11204  39.351   6.144   0.432
38890W        W11205  14.726  18.852  14.425
38891W        W11206  32.026  12.591   0.304
38892W        W11207  42.714   7.358  11.599
38893W        W11208  17.249   0.434  14.240
38894W        W11209  14.611  14.643  11.628
38895W        W11210  28.417  28.671   3.632
38896W        W11211  11.322  11.846  11.747
38897W        W11212  12.407  41.342  11.801
38898W        W11213  15.207  42.739   2.240
38899W        W11214  22.801  10.698   4.171
38900W        W11215   5.776   5.722   1.354
38901W        W11216   4.845  31.414  12.430
38902W        W11217  20.860  15.928   5.317
38903W        W11218  17.151  34.381   4.544
38904W        W11219  15.652  41.256  13.541
38905W        W11220  25.947  44.312   2.113
38906W        W11221   1.985  17.680  10.553
38907W        W11222   9.549  15.172  12.374
38908W        W11223  11.751  13.128  13.887
38909W        W11224   1.726   0.396  10.575
38910W        W11225  33.592  28.104  13.941
38911W        W11226  40.648  13.164   0.123
38912W        W11227   7.819  11.277   2.127
38913W        W11228  41.909  19.815   0.166
38914W        W11229  26.211  18.223  11.994
38915W        W11230  16.118  13.878   2.971
38916W        W11231  23.119  22.315   9.890
38917W        W11232   9.799  24.026  13.126
38918W        W11233  28.096  11.875   3.328
38919W        W11234  18.619   3.170   2.188
38920W        W11235  43.920  28.560   1.232
38921W        W11236  10.475  17.141  11.210
38922W        W11237  28.420  40.861  10.957
38923W        W11238   5.535  11.526  10.753
38924W        W11239  37.283  30.906   0.738
38925W        W11240  20.843  18.769   1.274
38926W        W11241  16.780  14.668  10.638
38927W        W11242  18.563   7.090   2.227
38928W        W11243  27.649  28.042  11.152
38929W        W11244  24.999  18.101   4.730
38930W        W11245  35.345  21.303   1.704
38931W        W11246  13.808  30.400   3.629
38932W        W11247  41.492  30.415  12.171
38933W        W11248  28.327   7.296  11.218
38934W        W11249  35.566  12.389   2.851
38935W        W11250  22.098  22.993   1.495
38936W        W11251  26.341  29.050   9.761
38937W        W11252  15.124   1.789   0.182
38938W        W11253  21.677  39.782  14.299
38939W        W11254  37.565  20.804  10.598
38940W        W11255  13.162  25.918  13.024
38941W        W11256  40.281  18.219   3.627
38942W        W11257  43.223   8.259   0.756
38943W        W11258   0.642  28.759   3.780
38944W        W11259  11.352  13.802  14.978
38945W        W11260  29.510  31.119   2.944
38946W        W11261  34.959  27.270   0.008
38947W        W11262  35.933  33.530  11.565
38948W        W11263  11.807   9.387  12.820
38949W        W11264  42.545  27.531   1.415
38950W        W11265   6.837   7.399  13.612
38951W        W11266   9.085  40.448  13.521
38952W        W11267  44.259  31.352  10.343
38953W        W11268  18.129   5.945   0.219
38954W        W11269   3.673   8.831   2.891
38955W        W11270  28.923  20.986  13.919
38956W        W11271  12.213  18.805   0.915
38957W        W11272  17.841  25.122  11.568
38958W        W11273  36.097   7.893   4.086
38959W        W11274  32.097  39.194   3.714
38960W        W11275   1.832   0.794   0.722
38961W        W11276  37.791  36.352   1.243
38962W        W11277  33.974   1.362   1.232
38963W        W11278  12.215  29.129  14.101
38964W        W11279  20.102  15.570  10.208
38965W        W11280  17.227  43.880   0.014
38966W        W11281  44.769  23.838  13.700
38967W        W11282   7.339  36.998  12.204
38968W        W11283  22.772   8.552   0.741
38969W        W11284   9.907  44.826  14.322
38970W        W11285   7.242  32.875  14.865
38971W        W11286  40.113   4.888   0.468
38972W        W11287  30.043  29.948   2.638
38973W        W11288  37.361  14.861   0.909
38974W        W11289  18.696   1.816   0.012
38975W        W11290   2.321   8.346   0.224
38976W        W11291  36.321  24.697   2.824
38977W        W11292  25.181  36.311   5.146
38978W        W11293  33.500   1.116  14.295
38979W        W11294  25.327  15.485   1.476
38980W        W11295  38.395   5.817   3.731
38981W        W11296   1.841  43.894   2.846
38982W        W11297  15.758   3.717   0.861
38983W        W11298   0.971  38.481  14.951
38984W        W11299  42.545  13.271  12.835
38985W        W11300  10.568  33.801  12.989
38986W        W11301  12.736  12.524  14.936
38987W        W11302  12.044  19.013  12.092
38988W        W11303  39.851  11.854   3.123
38989W        W11304  17.272  10.083   4.228
38990W        W11305   1.866  21.846   2.995
38991W        W11306  17.138  20.077  14.832
38992W        W11307  33.209  19.306   2.147
38993W        W11308  39.843  15.519   4.980
38994W        W11309  38.371  44.875  12.064
38995W        W11310  26.722  21.574  12.457
38996W        W11311  35.519  19.994   2.787
38997W        W11312  36.891  29.426  13.026
38998W        W11313   5.973   5.242   3.219
38999W        W11314  38.319  22.238  13.386
39000W        W11315  34.418   9.888  13.205
39001W        W11316  15.249  37.905   0.703
39002W        W11317  23.934  16.408  11.223
39003W        W11318  29.625  23.243   4.104
39004W        W11319  11.859  25.022   3.748
39005W        W11320  42.544   0.490  11.625
39006W        W11321  44.203  38.004   4.189
39007W        W11322  27.669  10.236   0.376
39008W        W11323  12.810  11.408  10.615
39009W        W11324  26.888  20.665   1.363
39010W        W11325   9.455  25.880   1.489
39011W        W11326  42.802  39.481  12.181
39012W        W11327  18.641  17.850   3.624
39013W        W11328  37.045  19.618  10.421
39014W        W11329  17.293  29.013   2.693
39015W        W11330   6.358  40.212   0.237
39016W        W11331  20.850  21.518  14.660
39017W        W11332  14.070   5.731   1.830
39018W        W11333  29.587  30.800  14.550
39019W        W11334  24.426  28.984   3.184
39020W        W11335  28.990  23.485  13.096
39021W        W11336  44.920   3.445   3.161
39022W        W11337  13.136  42.856   4.066
39023W        W11338  11.594  16.504   2.198
39024W        W11339  43.502  30.044  12.045
39025W        W11340  12.303  30.336  14.812
39026W        W11341   4.521  25.555  11.008
39027W        W11342   1.882  23.464   2.269
39028W        W11343  20.144  41.653  13.029
39029W        W11344  15.633   1.328   2.798
39030W        W11345  42.787  41.066  13.498
39031W        W11346   3.352  12.596   0.409
39032W        W11347  25.592  31.963  11.922
39033W        W11348  11.801  33.912   2.315
39034W        W11349   1.301   5.695   1.173
39035W        W11350  43.554  41.450   2.286
39036W        W11351   7.665  43.461   1.127
39037W        W11352  34.508  30.178  12.211
39038W        W11353   4.550   9.876  10.375
39039W        W11354  31.118  35.581  13.186
39040W        W11355  34.497  37.683  14.834
39041W        W11356   5.464  15.671  11.955
39042W        W11357   7.302  30.934  10.481
39043W        W11358  37.070  25.946   3.981
39044W        W11359  40.391  11.022  13.848
39045W        W11360  21.312  35.498  13.297
39046W        W11361  10.184  17.595  13.000
39047W        W11362  30.083  35.617  10.542
39048W        W11363  42.504   1.809   2.459
39049W        W11364  17.077  23.286   2.339
39050W        W11365  35.999   8.184  12.589
39051W        W11366  32.469   2.370  13.504
39052W        W11367  20.549   6.779  13.437
39053W        W11368  16.767  35.429   1.726
39054W        W11369   7.844  36.065  10.917
39055W        W11370  35.119   9.729   0.341
39056W        W11371   8.239  39.425  14.346
39057W        W11372  32.942  18.283  11.981
39058W        W11373  36.304  22.684  13.926
39059W        W11374   9.668   0.978   1.321
39060W        W11375  17.321  25.428   1.300
39061W        W11376   8.282  22.151   4.971
39062W        W11377  34.925  35.312  11.235
39063W        W11378  42.550  31.007   1.831
39064W        W11379  19.185   0.740   3.364
39065W        W11380  23.565   8.257   0.748
39066W        W11381   3.896   3.612  12.919
39067W        W11382  39.414  12.309  13.095
39068W        W11383   1.238  26.577   0.860
39069W        W11384  39.359  30.736  11.044
39070W        W11385  24.507   3.651   3.181
39071W        W11386   7.337   5.501  12.447
39072W        W11387   4.278  20.331   0.443
39073W        W11388   0.887   0.733   3.358
39074W        W11389  30.814  19.758  11.163
39075W        W11390   5.950  21.498  12.840
39076W        W11391  27.440  15.974   3.261
39077W        W11392  18.567  19.685   4.726
39078W        W11393  35.387  12.117   3.322
39079W        W11394  15.647  19.559   5.011
39080W        W11395  10.619  43.330   1.320
39081W        W11396  31.601  20.575  11.192
39082W        W11397  27.476  34.622   4.512
39083W        W11398  12.581  28.633   4.694
39084W        W11399  20.191  44.850  10.629
39085W        W11400  38.178  42.070  11.601
39086W        W11401  20.888  43.141   5.064
39087W        W11402   3.404  12.097   3.706
39088W        W11403  15.347   7.125  10.922
39089W        W11404  28.890  44.813   3.145
39090W        W11405   3.029  32.185   4.959
39091W        W11406  41.443  23.832   3.421
39092W        W11407  16.358  15.670  11.178
39093W        W11408  44.426  30.966  14.337
39094W        W11409  43.018   8.633  12.130
39095W        W11410  43.410   9.103   3.089
39096W        W11411   2.468  25.877   1.722
39097W        W11412  15.764  22.443  11.279
39098W        W11413  40.002  16.845  11.997
39099W        W11414  30.173  38.872  10.418
39100W        W11415  28.155  15.658  14.115
39101W        W11416  36.436  42.031  14.025
39102W        W11417  40.088  24.121   3.765
39103W        W11418  34.098  27.560  12.147
39104W        W11419  25.940  28.360  13.424
39105W        W11420  21.414  21.061  13.158
39106W        W11421  43.963   1.484  10.439
39107W        W11422   4.514  42.404  12.427
39108W        W11423  36.078  35.280  14.485
39109W        W11424  30.183  20.234  12.787
39110W        W11425  12.437  40.830   1.042
39111W        W11426   4.674  42.417   1.242
39112W        W11427  34.910  41.695  12.277
39113W        W11428  23.579  11.668   4.637
39114W        W11429  28.482  25.184  11.212
39115W        W11430   9.039  27.835  12.043
39116W        W11431  40.246   1.213  14.786
39117W        W11432   2.359  37.472  11.997
39118W        W11433  12.518  27.552   4.708
39119W        W11434   9.605   9.916   3.122
39120W        W11435  18.383  21.050  11.708
39121W        W11436  42.977  21.237   4.530
39122W        W11437   3.973  44.237  13.879
39123W        W11438  17.971  42.550  13.470
39124W        W11439   9.134  27.634   4.946
39125W        W11440  11.572  36.646  13.617
39126W        W11441  17.837  10.168   5.399
39127W        W11442  38.515  29.449   0.868
39128W        W11443   1.961  32.187  12.743
39129W        W11444  15.814  35.620  14.765
39130W        W11445   1.640  21.769   3.844
39131W        W11446  41.324  12.228  10.891
39132W        W11447  19.552  15.653   0.032
39133W        W11448  26.734  35.891   0.910
39134W        W11449  11.639  29.519  10.901
39135W        W11450  15.413  36.704  12.981
39136W        W11451  36.494   0.241  12.403
39137W        W11452  10.866  23.808   0.836
39138W        W11453   1.880  39.924  12.892
39139W        W11454  20.127  20.839  11.398
39140W        W11455  34.488   8.170  13.049
39141W        W11456   9.734   7.191   1.243
39142W        W11457  40.951  32.301  12.852
39143W        W11458   9.637  20.207  13.526
39144W        W11459  37.861  36.835  11.427
39145W        W11460  41.274  36.161  13.845
39146W        W11461  39.013  10.231   0.000
39147W        W11462  32.594  39.931   5.006
39148W        W11463  34.021  16.270  12.137
39149W        W11464  34.018  34.068   3.880
39150W        W11465   7.389  33.336  14.009
39151W        W11466  17.002  26.626  14.979
39152W        W11467  25.213  14.280   2.950
39153W        W11468  43.995  34.490  12.279
39154W        W11469  39.687  25.094  12.464
39155W        W11470   9.192   9.363  13.632
39156W        W11471  19.704  30.454   2.874
39157W        W11472  41.786  40.461  12.480
39158W        W11473  42.551  30.073   3.845
39159W        W11474  37.415  10.375   3.271
39160W        W11475  19.200  25.998  11.360
39161W        W11476  35.518  18.095  13.081
39162W        W11477  36.528  37.773  11.653
39163W        W11478  27.513  34.389   9.827
39164W        W11479  26.829  35.363   3.065
39165W        W11480  31.586  36.954   2.669
39166W        W11481  20.070  43.263   1.083
39167W        W11482  38.041  25.605   4.285
39168W        W11483  11.484  15.209  14.856
39169W        W11484  32.518  39.880  12.844
39170W        W11485  20.327  32.124  12.129
39171W        W11486  39.926  25.964  11.176
39172W        W11487  42.252  26.294   2.747
39173W        W11488  42.509   9.873  12.105
39174W        W11489  43.850   1.564   3.305
39175W        W11490  40.083  31.219  13.011
39176W        W11491  30.453  10.123  14.903
39177W        W11492  31.065  35.598  12.663
39178W        W11493  21.024  25.518  11.446
39179W        W11494  35.862   9.177  13.501
39180W        W11495   0.885   6.286  13.948
39181W        W11496  32.077  38.547  12.484
39182W        W11497  15.159  12.861  13.902
39183W        W11498  39.543  24.671   0.957
39184W        W11499  30.833   0.216   1.494
39185W        W11500   2.566  17.125   0.746
39186W        W11501  29.576  39.829   1.774
39187W        W11502   8.845  35.993   4.097
39188W        W11503  39.490  26.412   1.206
39189W        W11504  38.995  10.138  13.976
39190W        W11505  19.977  36.923   1.860
39191W        W11506  31.589  33.087  12.144
39192W        W11507  25.357   9.990  13.834
39193W        W11508  15.699  25.719  12.142
39194W        W11509  21.213  41.391  14.113
39195W        W11510  42.891  19.339  12.760
39196W        W11511  18.866  10.824   0.350
39197W        W11512   3.277  23.547   2.322
39198W        W11513   5.231  42.341  12.933
39199W        W11514   5.363  10.287  14.704
39200W        W11515   2.335  19.234   3.015
39201W        W11516  32.478  12.715  14.076
39202W        W11517  28.676  20.087   2.868
39203W        W11518   8.821   0.459  12.614
39204W        W11519  35.912  43.209  14.431
39205W        W11520  38.008  28.482   0.738
39206W        W11521  28.428   9.925   1.329
39207W        W11522  15.891   0.750  14.554
39208W        W11523   5.503  28.388  13.445
39209W        W11524  40.963  15.703  12.094
39210W        W11525   9.609  14.342  10.774
39211W        W11526  42.361   9.163   0.850
39212W        W11527  24.651  12.840  13.693
39213W        W11528  43.592   7.491  13.382
39214W        W11529  23.109   1.968  13.981
39215W        W11530  14.629  12.836   3.615
39216W        W11531  27.013  42.092   2.229
39217W        W11532  28.988  27.104  13.036
39218W        W11533   8.863  30.212   3.127
39219W        W11534  33.971  36.923  13.800
39220W        W11535  11.677  19.597  12.871
39221W        W11536   3.355  44.022   2.571
39222W        W11537  42.669  18.345  14.069
39223W        W11538  32.795  27.017   0.869
39224W        W11539   8.895   5.787  12.877
39225W        W11540  35.563  36.332   0.417
39226W        W11541  35.572  28.874  13.663
39227W        W11542  35.094  27.054   0.471
39228W        W11543   4.532   3.244  10.462
39229W        W11544  21.475   4.355   0.721
39230W        W11545   6.670  13.898  14.227
39231W        W11546  30.399   7.413   1.843
39232W        W11547  43.462  19.472  10.584
39233W        W11548   0.621   0.429   0.821
39234W        W11549  28.222  12.029  10.708
39235W        W11550  27.000  30.071   0.887
39236W        W11551   4.649  18.685   3.206
39237W        W11552   3.401  28.932   2.740
39238W        W11553   7.387  24.968   2.794
39239W        W11554  28.136  16.663   3.681
39240W        W11555   6.163  25.183  14.914
39241W        W11556  23.984  43.708   0.157
39242W        W11557  26.912  37.999  13.035
39243W        W11558  22.093  19.946  14.400
39244W        W11559  15.696  26.150   1.418
39245W        W11560  29.467  13.221   4.672
39246W        W11561  35.462   8.666  11.806
39247W        W11562  42.390   9.778  11.242
39248W        W11563  23.071  19.521   3.313
39249W        W11564  29.042   7.587  14.831
39250W        W11565  13.794   7.896  12.081
39251W        W11566  27.123  10.347   0.317
39252W        W11567  33.508  30.519   1.740
39253W        W11568  16.316   2.358  13.793
39254W        W11569  41.851  31.457  11.579
39255W        W11570   0.935  26.713   1.275
39256W        W11571   3.167  23.173  11.977
39257W        W11572  34.955  40.373   0.399
39258W        W11573  36.485   2.818   3.098
39259W        W11574  38.871  21.970   0.267
39260W        W11575  41.460  37.184  14.940
39261W        W11576   1.763  38.085  13.528
39262W        W11577  18.727  33.829  14.297
39263W        W11578   7.768  21.251  12.180
39264W        W11579  20.154   1.539   4.548
39265W        W11580  37.544  39.873   0.661
39266W        W11581   5.762  28.461  14.923
39267W        W11582  32.041  38.507   3.511
39268W        W11583  17.589  30.098  12.385
39269W        W11584  19.792  23.734   1.583
39270W        W11585  33.440  44.736   4.535
39271W        W11586  17.576  23.330  13.016
39272W        W11587  12.398  11.802  12.154
39273W        W11588  19.993  21.982  13.476
39274W        W11589   2.588  23.895   1.303
39275W        W11590  21.010  43.355   4.160
39276W        W11591   7.781  29.937  11.164
39277W        W11592  33.823  42.479  13.336
39278W        W11593  23.755  14.653  12.891
39279W        W11594  25.730  21.077   1.265
39280W        W11595  20.739  10.375   0.445
39281W        W11596  28.204   0.914  10.197
39282W        W11597   4.593  30.428  13.854
39283W        W11598  29.392  15.356  11.528
39284W        W11599  39.101   3.613  14.759
39285W        W11600   0.323  33.982  13.761
39286W        W11601  10.142  13.269   2.706
39287W        W11602  30.425  20.247   0.471
39288W        W11603   0.258   2.043   4.509
39289W        W11604  37.378  24.125   5.603
39290W        W11605  26.584  34.105  11.188
39291W        W11606  37.568   6.769   3.368
39292W        W11607  40.529   6.857   4.826
39293W        W11608  38.579   5.381   4.550
39294W        W11609   4.245   2.959   1.670
39295W        W11610   1.665  42.425   2.225
39296W        W11611  15.795   2.229   3.760
39297W        W11612  10.701  39.634  14.000
39298W        W11613  14.142  27.743  14.357
39299W        W11614  10.634  23.735  10.294
39300W        W11615  20.221   5.305  11.121
39301W        W11616  11.973  29.845   1.480
39302W        W11617   1.507   2.256   3.166
39303W        W11618  28.906  40.197   3.727
39304W        W11619   8.707   1.735  10.636
39305W        W11620  34.870  32.948   2.780
39306W        W11621  12.453  20.204   4.526
39307W        W11622  22.638  35.374   2.695
39308W        W11623  38.083  11.686  14.177
39309W        W11624  36.746   8.365  11.583
39310W        W11625   3.040   0.868   0.243
39311W        W11626  43.996  40.104   3.750
39312W        W11627  36.964   9.889   2.180
39313W        W11628  12.180   5.933  12.573
39314W        W11629   6.298  20.313  13.236
39315W        W11630  41.197  24.405   2.422
39316W        W11631  32.865  40.371   4.343
39317W        W11632   9.953   8.978   1.248
39318W        W11633  41.211  25.334  13.345
39319W        W11634  36.020  26.907  12.895
39320W        W11635  26.693  21.780   4.580
39321W        W11636  37.048  15.270  11.196
39322W        W11637  13.273  44.932  11.947
39323W        W11638  35.531  37.395   1.200
39324W        W11639  41.857  16.342   4.633
39325W        W11640   7.233   2.258  11.700
39326W        W11641  19.233  44.246   3.265
39327W        W11642   9.964  38.780   2.665
39328W        W11643  14.276  30.489   3.408
39329W        W11644  36.459  30.168   2.059
39330W        W11645   1.877   8.189   1.900
39331W        W11646  30.405   4.264   4.833
39332W        W11647   2.428   7.456  12.578
39333W        W11648  42.308  43.623  11.932
39334W        W11649   5.803   0.679  11.070
39335W        W11650  38.479   4.153   3.798
39336W        W11651  14.635  22.201   0.228
39337W        W11652  41.912  39.677  14.759
39338W        W11653  41.943  12.903  14.928
39339W        W11654  16.558  34.521   0.755
39340W        W11655  31.653   5.232  10.415
39341W        W11656   2.219  19.395   5.077
39342W        W11657  14.875   2.951  13.335
39343W        W11658  43.468   1.167   4.596
39344W        W11659   6.723  13.421  12.954
39345W        W11660  13.773   8.830  14.724
39346W        W11661   5.849  11.913   4.134
39347W        W11662  32.911  26.072   4.646
39348W        W11663  25.658   7.739  13.126
39349W        W11664  10.638  15.257  10.484
39350W        W11665  28.999  23.885   1.181
39351W        W11666   5.652  24.158  11.057
39352W        W11667  14.165  10.424   0.961
39353W        W11668  35.343   2.064  14.550
39354W        W11669  39.893  30.641   4.603
39355W        W11670  24.234  16.046   2.167
39356W        W11671  20.575  40.553   2.696
39357W        W11672  34.922  43.395   4.207
39358W        W11673  19.583  41.191  10.962
39359W        W11674  31.011   2.434   0.783
39360W        W11675  37.964  34.388  13.679
39361W        W11676   8.101  43.712  11.198
39362W        W11677  17.379  15.187   1.870
39363W        W11678  22.412  24.147  11.066
39364W        W11679  42.458  17.588   2.949
39365W        W11680  24.936  27.984  13.805
39366W        W11681  30.184   4.343   1.946
39367W        W11682  41.468  28.603  13.102
39368W        W11683  16.069  30.619   1.810
39369W        W11684  33.140  18.693   3.687
39370W        W11685  22.985  31.098   2.319
39371W        W11686  28.129  25.971  14.103
39372W        W11687  21.850  31.885   2.439
39373W        W11688  36.369   6.975   4.205
39374W        W11689   0.397  37.850   0.338
39375W        W11690   6.342  28.434   1.621
39376W        W11691  11.063  19.126  12.333
39377W        W11692  13.856  37.401  13.772
39378W        W11693   3.030   2.433   3.594
39379W        W11694  10.445  44.908  10.305
39380W        W11695  29.138  27.680  13.369
39381W        W11696  18.788  43.905   4.181
39382W        W11697  12.613  30.126   2.241
39383W        W11698  24.528   8.291   1.148
39384W        W11699   7.157   2.247  14.792
39385W        W11700  25.553  27.234  11.508
39386W        W11701  15.862   7.778  14.025
39387W        W11702  33.511  31.229   4.384
39388W        W11703  36.695   4.628   3.146
39389W        W11704  23.308  20.773   0.318
39390W        W11705   4.018  26.043  10.663
39391W        W11706  39.862  44.310  10.583
39392W        W11707   5.727   9.076  12.534
39393W        W11708  10.758   7.805  11.205
39394W        W11709  11.066  38.769   2.834
39395W        W11710   2.917   5.623   2.835
39396W        W11711  36.910  44.750  10.543
39397W        W11712   8.210  36.675  13.890
39398W        W11713  43.838  20.244  13.396
39399W        W11714  42.890  33.690  13.362
39400W        W11715   6.827  23.178   1.061
39401W        W11716  14.627  39.580   3.355
39402W        W11717  13.070  27.511   3.770
39403W        W11718  14.910  44.914   2.192
39404W        W11719  14.823  31.172  12.495
39405W        W11720  40.094  41.312  11.491
39406W        W11721   5.378   6.761  14.409
39407W        W11722   5.774   7.148   2.720
39408W        W11723  10.247  20.703   1.867
39409W        W11724  41.526  23.168  14.030
39410W        W11725  41.874  36.633   1.372
39411W        W11726  15.762  14.481  11.973
39412W        W11727  44.731   6.740  11.188
39413W        W11728  10.826   3.702  13.616
39414W        W11729  17.245  33.024   1.334
39415W        W11730   5.084  20.633   0.929
39416W        W11731  31.406  41.558  12.097
39417W        W11732  18.031   1.323   0.460
39418W        W11733  27.657  34.478   2.653
39419W        W11734  38.527  23.095   5.326
39420W        W11735   3.429   7.679   4.623
39421W        W11736  31.025   9.756  14.905
39422W        W11737  21.753   3.975   1.855
39423W        W11738  42.370   0.323   2.472
39424W        W11739   5.685  38.922  11.945
39425W        W11740  26.621   1.985   1.195
39426W        W11741   1.437  37.379  12.053
39427W        W11742   3.177  36.578  13.404
39428W        W11743  10.722  43.948  13.184
39429W        W11744  39.870  39.792   3.946
39430W        W11745  14.646  27.689   4.819
39431W        W11746  19.153  42.127   4.974
39432W        W11747  43.888  36.766  10.992
39433W        W11748   0.136  33.567  10.367
39434W        W11749  16.682  41.688  12.893
39435W        W11750  16.331  19.044   2.298
39436W        W11751  23.482   9.417  14.303
39437W        W11752  20.814  33.354   3.168
39438W        W11753  21.783   3.354   2.678
39439W        W11754  37.341  34.100  13.799
39440W        W11755  17.647  33.849   3.147
39441W        W11756   7.995   8.328  12.413
39442W        W11757  18.004  36.456  14.045
39443W        W11758  21.885  38.469  11.175
39444W        W11759   7.489   0.210  11.220
39445W        W11760  15.394  11.439  10.775
39446W        W11761  38.454  40.240   1.750
39447W        W11762  18.325  18.063   4.011
39448W        W11763   7.239  33.166   4.256
39449W        W11764  28.626  31.138   4.633
39450W        W11765  21.519  30.452   3.281
39451W        W11766  21.011  42.338   1.765
39452W        W11767  13.370  27.096  13.943
39453W        W11768  43.202  17.094  12.204
39454W        W11769  23.416   3.670  13.167
39455W        W11770  16.809  38.371   2.461
39456W        W11771  16.538  10.790  14.856
39457W        W11772  18.344  10.918  14.072
39458W        W11773   2.285  17.937  11.866
39459W        W11774  26.828  34.284   4.536
39460W        W11775  14.736   5.930   2.398
39461W        W11776  18.279  43.443   2.785
39462W        W11777   7.920  28.911   3.774
39463W        W11778   8.527  21.036   1.457
39464W        W11779   1.014  14.726  11.454
39465W        W11780  25.207  20.115   1.389
39466W        W11781   4.120  34.258  12.527
39467W        W11782  15.729  26.496  12.780
39468W        W11783  35.076  38.118  11.545
39469W        W11784   6.360  44.271  12.577
39470W        W11785   9.624   6.457   3.670
39471W        W11786  32.219  22.059  13.573
39472W        W11787  28.188   5.938  11.737
39473W        W11788  27.811  31.686   0.667
39474W        W11789  11.199  36.918  11.052
39475W        W11790  13.393  29.037   5.125
39476W        W11791   1.066  28.250   9.875
39477W        W11792  20.057  38.734   0.742
39478W        W11793   0.514  23.309  13.796
39479W        W11794  29.017  22.543   0.446
39480W        W11795  35.476  10.633   3.757
39481W        W11796   3.506   9.310  12.814
39482W        W11797  19.913  25.932   3.378
39483W        W11798   3.492  29.196   4.551
39484W        W11799  20.680  19.660  11.060
39485W        W11800  41.684   4.955   3.863
39486W        W11801  32.897  36.088  12.918
39487W        W11802  21.120   4.693   1.829
39488W        W11803  36.557  23.764  12.019
39489W        W11804   2.508  16.757  12.001
39490W        W11805  14.043   0.492  12.770
39491W        W11806  33.579  18.644   4.977
39492W        W11807  11.324  43.184  12.623
39493W        W11808  36.408  44.458  13.995
39494W        W11809  27.614  39.100  12.996
39495W        W11810  40.248  39.037   4.213
39496W        W11811  31.531  35.851   0.357
39497W        W11812   3.326  32.418   2.590
39498W        W11813  16.059   7.868  10.728
39499W        W11814  10.705  22.300   0.720
39500W        W11815  36.094  26.406  12.947
39501W        W11816  27.902   7.548  13.117
39502W        W11817   6.879   4.018   3.945
39503W        W11818  25.426   6.104   9.722
39504W        W11819   0.747  27.303  13.593
39505W        W11820  10.042   3.116   4.070
39506W        W11821  42.081  29.890   3.867
39507W        W11822  24.520  33.198  11.248
39508W        W11823  22.267   6.926   0.211
39509W        W11824   2.684  13.468  11.920
39510W        W11825  19.654  16.605  12.273
39511W        W11826  41.515   7.788  12.909
39512W        W11827   8.187  43.442   1.197
39513W        W11828  32.395   7.767   3.639
39514W        W11829  18.307  43.206  11.587
39515W        W11830   1.224   3.260  12.000
39516W        W11831  18.983   8.330  14.717
39517W        W11832  36.136  20.977  12.935
39518W        W11833  14.724   5.919  14.502
39519W        W11834  43.125  37.995  10.350
39520W        W11835  15.357  39.879   3.855
39521W        W11836   7.622  16.376   0.714
39522W        W11837  44.023  10.164   0.348
39523W        W11838   9.207   0.171  13.809
39524W        W11839   4.206  41.560   3.779
39525W        W11840  26.232   6.470   4.251
39526W        W11841  13.893  17.761   3.557
39527W        W11842  18.756   0.243  11.008
39528W        W11843  21.605  28.764   2.160
39529W        W11844  37.076  42.125   0.736
39530W        W11845  40.965  19.072   1.705
39531W        W11846   8.457   9.283  12.407
39532W        W11847  24.218  29.540  11.650
39533W        W11848  29.422  20.046   1.393
39534W        W11849   9.406  14.293  12.143
39535W        W11850  15.719   8.754  14.919
39536W        W11851  26.434  13.383  13.273
39537W        W11852  20.749  19.012  12.939
39538W        W11853  26.910  38.906  14.836
39539W        W11854  27.921  33.909  12.695
39540W        W11855   3.081  44.309   4.732
39541W        W11856  27.081  27.971  11.061
39542W        W11857  29.512  36.182   3.690
39543W        W11858  33.125  35.742  11.672
39544W        W11859   6.014  15.941  11.703
39545W        W11860  28.128  20.666   2.357
39546W        W11861  23.324  11.932  13.014
39547W        W11862   9.208   8.898   1.459
39548W        W11863   5.412  31.227   2.761
39549W        W11864  35.956  19.101  12.988
39550W        W11865  14.373  16.238  12.025
39551W        W11866  28.615  19.411   1.179
39552W        W11867   3.389   0.425   0.274
39553W        W11868   5.218  15.025   2.819
39554W        W11869   2.359   1.029  11.069
39555W        W11870   2.915   7.137  11.422
39556W        W11871  33.325  11.438   2.324
39557W        W11872  21.531   3.444   4.409
39558W        W11873   1.589   0.819  12.382
39559W        W11874   5.389  34.120  12.423
39560W        W11875  12.165  36.780   2.318
39561W        W11876  13.873  29.522  12.453
39562W        W11877  33.123   2.195   1.932
39563W        W11878  37.347  11.881  13.527
39564W        W11879   4.718  30.965   0.360
39565W        W11880  33.379  17.155  10.750
39566W        W11881  21.508  30.333  13.849
39567W        W11882  22.065  40.496   2.071
39568W        W11883  12.574  30.024  13.305
39569W        W11884  38.397  24.470   4.119
39570W        W11885   0.400  31.629  13.913
39571W        W11886   6.984  20.487  12.843
39572W        W11887  10.317  20.687   1.311
39573W        W11888  41.880  18.619   3.452
39574W        W11889  34.362  27.428  10.630
39575W        W11890  36.062   7.727  12.848
39576W        W11891  28.434  35.774  11.518
39577W        W11892  31.385  39.324   2.344
39578W        W11893  39.231  30.185   3.056
39579W        W11894   8.960   0.729   1.604
39580W        W11895  19.494  37.461  13.506
39581W        W11896   4.673  34.936  12.082
39582W        W11897  28.101  19.517   1.257
39583W        W11898   9.520  22.632  10.718
39584W        W11899  18.031  10.658  12.609
39585W        W11900   5.902  36.848  13.319
39586W        W11901  36.981  35.114  11.937
39587W        W11902  35.965  44.077   3.707
39588W        W11903  21.617  27.625  12.886
39589W        W11904  35.077  27.718  13.207
39590W        W11905   8.472  40.517  11.955
39591W        W11906  20.035  36.898  11.689
39592W        W11907  39.853  16.320   4.158
39593W        W11908  37.959  21.814  14.375
39594W        W11909  11.016   6.134   1.114
39595W        W11910  42.544   3.859   0.396
39596W        W11911  33.267  17.749   3.690
39597W        W11912   6.742  28.680   0.336
39598W        W11913  21.028  37.747   0.782
39599W        W11914  37.985  28.070  14.899
39600W        W11915  36.798  21.772  13.699
39601W        W11916  39.412  11.114  12.987
39602W        W11917  38.780  11.162   1.024
39603W        W11918  16.012   4.407   3.771
39604W        W11919  25.614  12.040   1.797
39605W        W11920  42.995  32.203  12.378
39606W        W11921  23.267  12.269  12.072
39607W        W11922  36.524  13.799  13.972
39608W        W11923  31.195  23.079  14.787
39609W        W11924   6.838  39.068   3.635
39610W        W11925  30.495   5.954   3.709
39611W        W11926   8.187   4.968   4.587
39612W        W11927  39.279  29.712  13.471
39613W        W11928  21.559  16.292   4.675
39614W        W11929  30.979   7.366   1.352
39615W        W11930  41.837  10.310  13.626
39616W        W11931   8.734   3.253   4.606
39617W        W11932   6.793  40.063  11.659
39618W        W11933  21.852  43.550  11.970
39619W        W11934  26.628  43.471  14.882
39620W        W11935  34.316  11.400  13.036
39621W        W11936   7.740  35.368  13.603
39622W        W11937  25.539  40.063  12.021
39623W        W11938  42.900   0.009   0.651
39624W        W11939  23.297  11.419   3.339
39625W        W11940   1.378  10.269   1.542
39626W        W11941   7.742  43.595  12.449
39627W        W11942  35.061  43.168  12.644
39628W        W11943   2.730  35.817   5.581
39629W        W11944  42.825  25.109   2.311
39630W        W11945  27.311   3.495   4.144
39631W        W11946  42.473  34.603   4.030
39632W        W11947  36.518  42.910   4.502
39633W        W11948  44.335  14.726   4.087
39634W        W11949  17.053  38.568  12.012
39635W        W11950  10.775  28.998  11.849
39636W        W11951  25.030  15.751   0.824
39637W        W11952  11.163  36.805   2.715
39638W        W11953  34.564  22.171  13.462
39639W        W11954   9.890  22.239   2.730
39640W        W11955  44.673  44.725   1.375
39641W        W11956  34.479  34.055  11.609
39642W        W11957   9.178  41.858   4.039
39643W        W11958  20.001  21.712   4.689
39644W        W11959  11.901  42.440  11.124
39645W        W11960  32.974  19.219  12.029
39646W        W11961  41.051   4.389   2.623
39647W        W11962   9.317   9.621  12.178
39648W        W11963  10.036  18.576  14.836
39649W        W11964  39.028  17.836   0.129
39650W        W11965  15.289  35.395  13.743
39651W        W11966  42.704  25.593   0.716
39652W        W11967  26.202   3.838   5.391
39653W        W11968  29.632   2.482   1.843
39654W        W11969  15.073  10.196  11.083
39655W        W11970  27.545  25.743  11.713
39656W        W11971  23.546  38.898  10.857
39657W        W11972   1.892  40.271  14.292
39658W        W11973  11.394  35.104  13.096
39659W        W11974  16.682   7.399   2.393
39660W        W11975  17.531  39.461   4.279
39661W        W11976   2.765  16.196  14.658
39662W        W11977  21.232  42.041  11.925
39663W        W11978  10.849  38.279  14.779
39664W        W11979  18.686   3.715   3.671
39665W        W11980  24.430   5.464   3.426
39666W        W11981   3.210   1.425   1.174
39667W        W11982  29.998  15.543  12.106
39668W        W11983  36.365  33.553   1.773
39669W        W11984  29.596   4.964  12.934
39670W        W11985  44.379  26.323  12.277
39671W        W11986  32.447  13.802  12.911
39672W        W11987  19.551  36.590   3.058
39673W        W11988  40.967  20.808   0.348
39674W        W11989  13.557  24.735  12.577
39675W        W11990  15.046  41.975   4.625
39676W        W11991   8.754  27.905   4.626
39677W        W11992  42.475  28.656  14.884
39678W        W11993  15.390  12.152  12.699
39679W        W11994  30.574  29.566  12.043
39680W        W11995  36.471   7.397  10.852
39681W        W11996  21.947   8.711   3.665
39682W        W11997  44.845  14.836   0.599
39683W        W11998  27.444  23.618  14.518
39684W        W11999  32.933   1.026  10.406
39685W        W12000  32.482  34.843   5.140
39686W        W12001  16.835  23.194  10.406
39687W        W12002  26.393   3.740  14.309
39688W        W12003  11.610  39.672  13.026
39689W        W12004  42.397  36.095   3.752
39690W        W12005  43.058  14.154   2.675
39691W        W12006  23.490   6.759   4.586
39692W        W12007  26.604  34.130   4.097
39693W        W12008  18.349   7.838  14.484
39694W        W12009  42.981   8.659   0.356
39695W        W12010  16.595  40.307  12.014
39696W        W12011  14.580  19.066  14.894
39697W        W12012  10.884  18.025  13.816
39698W        W12013  20.616  34.693   1.407
39699W        W12014  37.879   1.458   4.258
39700W        W12015  29.168  18.388   1.751
39701W        W12016  38.537  23.651  10.582
39702W        W12017  19.836  13.597   4.424
39703W        W12018  18.675  19.587  11.421
39704W        W12019  18.329  36.082  14.196
39705W        W12020  10.443   4.263   3.815
39706W        W12021  28.862   3.876   2.822
39707W        W12022   6.672  23.588   0.725
39708W        W12023  42.350  13.428   0.843
39709W        W12024  41.059   2.926   4.882
39710W        W12025  11.677   5.270  14.527
39711W        W12026  41.470   3.848   0.438
39712W        W12027  29.705   8.841  10.756
39713W        W12028  35.378  36.402  11.480
39714W        W12029  23.755   5.680   2.230
39715W        W12030   4.191  27.589   0.848
39716W        W12031  23.533  34.338  10.699
39717W        W12032   6.234   6.742  13.926
39718W        W12033   5.197  10.609   1.148
39719W        W12034  30.687  31.718  12.376
39720W        W12035  43.901   3.217  11.957
39721W        W12036   3.859  29.596   4.614
39722W        W12037  32.552  33.320  12.551
39723W        W12038  18.551   7.076  12.446
39724W        W12039  10.879   0.012   2.130
39725W        W12040  31.102   9.853   4.534
39726W        W12041   0.635  36.519   9.777
39727W        W12042  14.355   7.682  13.822
39728W        W12043  41.965  26.563  11.234
39729W        W12044  27.413   1.787  11.444
39730W        W12045   4.888   9.299  12.123
39731W        W12046  20.726  41.428   1.359
39732W        W12047  41.017   9.224  10.696
39733W        W12048   8.685  36.405   4.971
39734W        W12049   6.921   1.845   0.791
39735W        W12050  10.359  37.504   0.006
39736W        W12051   3.748  34.991   4.573
39737W        W12052   8.351  29.865  12.056
39738W        W12053  44.387  37.035  14.770
39739W        W12054  44.584  41.364   4.671
39740W        W12055   7.378  21.714   3.409
39741W        W12056  19.308  29.459  12.610
39742W        W12057  37.617  15.645   3.751
39743W        W12058  28.582   4.832  14.587
39744W        W12059  30.785  42.299   1.170
39745W        W12060  18.805  25.122   0.186
39746W        W12061  19.405  32.609   1.211
39747W        W12062  23.948  19.638   1.414
39748W        W12063  13.662  32.391  13.859
39749W        W12064  23.204  26.145   2.853
39750W        W12065  12.836  21.851  10.501
39751W        W12066   2.759  34.992   1.166
39752W        W12067  37.738  35.372  13.890
39753W        W12068   3.774  16.297   4.592
39754W        W12069  19.824  37.081   2.314
39755W        W12070  24.112  14.644   1.673
39756W        W12071  38.025  21.199  12.638
39757W        W12072  44.411   7.481   2.351
39758W        W12073  16.668  35.772  11.144
39759W        W12074   7.781   9.646  12.696
39760W        W12075   8.857  44.267  10.735
39761W        W12076  26.841   2.364   2.760
39762W        W12077  22.940  21.737   4.652
39763W        W12078  14.875  35.316  11.961
39764W        W12079   4.127  41.471  11.549
39765W        W12080  35.073  11.914   3.690
39766W        W12081   2.436  42.393   0.892
39767W        W12082   8.259  30.356  11.977
39768W        W12083  35.968  10.125  12.401
39769W        W12084  27.463  16.488   3.024
39770W        W12085   1.886  11.162   1.148
39771W        W12086  44.429  33.998  11.466
39772W        W12087  15.171  32.707   3.740
39773W        W12088  21.019   1.224   0.659
39774W        W12089  11.217   9.382   4.022
39775W        W12090   3.621   0.945   3.617
39776W        W12091   3.402  24.075  11.664
39777W        W12092  27.804  20.570  14.830
39778W        W12093  31.574   5.267  12.342
39779W        W12094  10.387   8.868   3.729
39780W        W12095   5.470   5.715  11.689
39781W        W12096  37.202   8.495  12.957
39782W        W12097  34.064  11.729  10.570
39783W        W12098  13.912  36.042   0.721
39784W        W12099  27.481  11.390  12.424
39785W        W12100  16.821  42.538  10.732
39786W        W12101  22.113  31.975   3.817
39787W        W12102  28.670  28.617  12.452
39788W        W12103  23.583   6.733   4.079
39789W        W12104  29.157  41.245   0.289
39790W        W12105  32.500  23.971  13.473
39791W        W12106  21.151  37.782  13.070
39792W        W12107  29.200   5.353   1.731
39793W        W12108  21.154  10.321   2.973
39794W        W12109  12.654  24.988   2.640
39795W        W12110   0.546   1.189  13.028
39796W        W12111  41.081  29.470  10.732
39797W        W12112  16.231   5.795  13.396
39798W        W12113  15.781  22.116   1.181
39799W        W12114  24.302  40.056   3.573
39800W        W12115  44.889   2.254   3.214
39801W        W12116  32.137  44.736  14.885
39802W        W12117  11.039  40.030  11.578
39803W        W12118   4.710  44.271  13.280
39804W        W12119   1.459  31.678  11.080
39805W        W12120  41.741  14.644   1.861
39806W        W12121  24.597  44.404  11.265
39807W        W12122  27.543   6.465  10.678
39808W        W12123  33.533  34.845   1.709
39809W        W12124  40.071   2.023   0.827
39810W        W12125   7.806  21.481   3.652
39811W        W12126  11.357  14.885  13.413
39812W        W12127  29.611  36.137   3.174
39813W        W12128  14.993   6.817   4.517
39814W        W12129  11.150  12.797  11.985
39815W        W12130  22.451   8.867   0.454
39816W        W12131  37.078   6.847   0.389
39817W        W12132   3.647  34.970  13.366
39818W        W12133  27.661   4.846   0.376
39819W        W12134  33.595   4.830  11.785
39820W        W12135  19.041  27.517   2.887
39821W        W12136  32.039  34.966  14.041
39822W        W12137   8.646  21.658  12.649
39823W        W12138  41.970   4.690   0.745
39824W        W12139   8.398  21.678  11.441
39825W        W12140  16.115  25.108   3.198
39826W        W12141  20.110   7.222  14.734
39827W        W12142  12.826  18.610   2.490
39828W        W12143  38.438  23.262   0.983
39829W        W12144   9.282  44.326  13.831
39830W        W12145   7.252  26.384   5.059
39831W        W12146  10.774  35.495  13.997
39832W        W12147  14.289   9.595  11.888
39833W        W12148  15.669  30.580  10.610
39834W        W12149  27.458  15.878  14.487
39835W        W12150  29.180  41.052  12.570
39836W        W12151  12.725  17.513  14.210
39837W        W12152   1.909  42.078   0.177
39838W        W12153  32.840  36.484  13.706
39839W        W12154   8.719   2.964   0.892
39840W        W12155  17.627  43.977   1.187
39841W        W12156  30.510  35.446   4.639
39842W        W12157  36.472   6.458  14.756
39843W        W12158  30.125  17.161   2.289
39844W        W12159  13.520  33.380  14.879
39845W        W12160  23.153  27.191  13.892
39846W        W12161  12.286  36.824  12.896
39847W        W12162  29.210   4.279   0.727
39848W        W12163  15.813  26.697   0.515
39849W        W12164  31.978  36.572   3.396
39850W        W12165  21.200  13.869   1.264
39851W        W12166  43.904  23.138  14.905
39852W        W12167  41.279   5.258  14.837
39853W        W12168  15.293  29.197   1.235
39854W        W12169  22.597   7.285   2.997
39855W        W12170   7.345  43.075   5.187
39856W        W12171   9.348   4.700  12.074
39857W        W12172  25.105   6.364   1.762
39858W        W12173   2.431  23.543   3.340
39859W        W12174  10.220  22.727  11.209
39860W        W12175  20.063   7.936   2.799
39861W        W12176   9.276  29.454   0.044
39862W        W12177   6.222  14.176   0.497
39863W        W12178  39.485  39.023  12.444
39864W        W12179   3.833  37.405   3.216
39865W        W12180  37.897  10.510   3.101
39866W        W12181  15.381  44.452   1.929
39867W        W12182  18.222  28.415  12.302
39868W        W12183  14.695  29.482   0.367
39869W        W12184  32.400  11.230   1.000
39870W        W12185   0.448  16.193   2.266
39871W        W12186  30.570  11.364   0.354
39872W        W12187  31.436  44.709   2.247
39873W        W12188  26.708  28.113   1.315
39874W        W12189  34.932  23.150  11.898
39875W        W12190  30.575   1.372  12.157
39876W        W12191   0.513  32.296   3.337
39877W        W12192  36.485   1.307   0.988
39878W        W12193  37.367  35.630  12.011
39879W        W12194  33.454  19.510   1.714
39880W        W12195   8.874  20.264  10.622
39881W        W12196  43.345  43.738  14.265
39882W        W12197   2.346  25.359   5.330
39883W        W12198  22.181  34.096   0.088
39884W        W12199  28.501  32.722  10.623
39885W        W12200  30.537   2.179  13.630
39886W        W12201  34.125  14.231   4.446
39887W        W12202  11.643  10.802   3.093
39888W        W12203  40.116  12.376   1.398
39889W        W12204  38.831  44.947  10.786
39890W        W12205  44.132  36.834  11.677
39891W        W12206  32.073  29.916   0.270
39892W        W12207  22.996  18.892   0.287
39893W        W12208  37.105  25.101  14.951
39894W        W12209  35.546  26.825  12.701
39895W        W12210   9.038  16.581   3.809
39896W        W12211  26.134  23.969   2.345
39897W        W12212  27.620  28.178  13.361
39898W        W12213  12.883  12.643  11.506
39899W        W12214  12.376  42.316  11.291
39900W        W12215   3.690  37.984  10.851
39901W        W12216  42.612  27.497   3.741
39902W        W12217   3.130  23.567  14.383
39903W        W12218  37.896  16.713  14.531
39904W        W12219  39.922   2.019   4.619
39905W        W12220  28.563   1.226  10.959
39906W        W12221  40.938  42.315  11.161
39907W        W12222  18.739  28.799  14.770
39908W        W12223  26.492  21.110   9.925
39909W        W12224  37.484  13.067   4.447
39910W        W12225  36.699   3.168   2.693
39911W        W12226  16.281  33.087   0.891
39912W        W12227   5.941  40.336   4.313
39913W        W12228  34.364  38.848   4.254
39914W        W12229   1.070   2.330  14.779
39915W        W12230  25.077  17.333  11.529
39916W        W12231  42.045  17.925  14.579
39917W        W12232  32.710  32.962   3.610
39918W        W12233  37.469  29.559  11.675
39919W        W12234  37.372  30.956  12.570
39920W        W12235  41.944  43.448  14.276
39921W        W12236  22.580  29.131   1.114
39922W        W12237  14.240  10.768  11.911
39923W        W12238  33.958  30.086  13.121
39924W        W12239  14.333  23.251   0.798
39925W        W12240  22.563  12.705  14.860
39926W        W12241  11.769   2.910   1.316
39927W        W12242  14.351  21.588   3.228
39928W        W12243  27.204   9.965  14.633
39929W        W12244   6.786  39.634   4.520
39930W        W12245  42.323  16.797  12.597
39931W        W12246  26.552  20.825   4.523
39932W        W12247  36.636  37.127  11.885
39933W        W12248  20.282  36.520   1.918
39934W        W12249   1.756  27.578  10.775
39935W        W12250  24.768  18.176  10.940
39936W        W12251  30.055  24.611  11.990
39937W        W12252  23.563   0.236   1.065
39938W        W12253  42.324  26.228  11.481
39939W        W12254  11.441  12.393  14.523
39940W        W12255   5.200  15.119   0.797
39941W        W12256   3.755  42.717   0.360
39942W        W12257  10.539  21.354  10.205
39943W        W12258  26.370  21.966  12.497
39944W        W12259   6.382  34.078   3.618
39945W        W12260   5.253  14.705   3.738
39946W        W12261  30.805  37.423   3.935
39947W        W12262   5.231  21.990  13.449
39948W        W12263  34.331  14.853  11.278
39949W        W12264  36.097  31.325   0.817
39950W        W12265  32.166   2.957  10.708
39951W        W12266   7.032  17.875  10.694
39952W        W12267   5.204  39.566  12.748
39953W        W12268  10.334  28.402   0.480
39954W        W12269  24.680  36.515  11.322
39955W        W12270  35.747  31.802   3.983
39956W        W12271  35.533  44.955  13.126
39957W        W12272  22.205  36.153  12.050
39958W        W12273  20.131  20.315  12.670
39959W        W12274  42.831  34.806  13.819
39960W        W12275  26.631  38.924  10.466
39961W        W12276  37.788  44.028   4.766
39962W        W12277  15.541  15.364  11.161
39963W        W12278   8.447  23.076   1.439
39964W        W12279  19.598  36.441   4.535
39965W        W12280  24.803   9.577  13.017
39966W        W12281   7.277  37.257  14.533
39967W        W12282   2.525   5.901  12.832
39968W        W12283  30.512  23.574  12.078
39969W        W12284  32.816  42.107   3.655
39970W        W12285  29.920  15.168  13.882
39971W        W12286   7.045  10.158   4.505
39972W        W12287  29.290  28.833  13.004
39973W        W12288  12.558  21.688   1.618
39974W        W12289  24.550  34.193  13.336
39975W        W12290  32.240  24.552   4.569
39976W        W12291  16.380   5.292  13.441
39977W        W12292   8.940   2.794  13.564
39978W        W12293  30.548   2.522   1.260
39979W        W12294  21.264  44.495   2.632
39980W        W12295   2.483   0.196   3.153
39981W        W12296  14.651  15.594  13.075
39982W        W12297   3.182   4.885   3.035
39983W        W12298  25.242   5.135   9.822
39984W        W12299   0.481  39.556  13.343
39985W        W12300  34.100  17.093   0.854
39986W        W12301  29.581   7.985   2.409
39987W        W12302  27.975  43.861   0.447
39988W        W12303  32.992  17.328   3.673
39989W        W12304  27.549  32.931   0.860
39990W        W12305  32.303  20.629   0.842
39991W        W12306  24.603  39.653  12.354
39992W        W12307  10.011  26.302  11.013
39993W        W12308   2.470  23.980   1.810
39994W        W12309  43.281  27.367  12.589
39995W        W12310   4.202  10.378   0.364
39996W        W12311  28.418  16.352  11.518
39997W        W12312  27.225  28.959   0.885
39998W        W12313  19.784  26.319   5.157
39999W        W12314  21.900  13.796   3.574
40000W        W12315  30.272  43.068  10.809
40001W        W12316  43.457  14.207  12.186
40002W        W12317  18.014  30.035   0.335
40003W        W12318   5.848  12.255  12.657
40004W        W12319  21.632  29.898  10.776
40005W        W12320  44.217  33.373  13.732
40006W        W12321  19.306  44.246  14.689
40007W        W12322  34.943  14.774  13.824
40008W        W12323  32.194  22.088  12.172
40009W        W12324   1.400  25.593   1.473
40010W        W12325   7.963  39.483   3.266
40011W        W12326   2.185   1.426   0.219
40012W        W12327   7.184  33.136  12.627
40013W        W12328   8.698  44.207  13.010
40014W        W12329  24.124  14.516  10.297
40015W        W12330  34.605  30.702   2.318
40016W        W12331  29.552   3.908   3.687
40017W        W12332  39.299   8.763  14.392
40018W        W12333  42.091  44.902   4.175
40019W        W12334   7.411  34.719   4.606
40020W        W12335   0.132  15.763   3.353
40021W        W12336  37.387  24.555  14.065
40022W        W12337  18.082  41.389   1.862
40023W        W12338  40.557  24.834   3.295
40024W        W12339  30.226  29.688   2.172
40025W        W12340   7.530  25.892  13.817
40026W        W12341  43.552   0.480   0.925
40027W        W12342   2.758  16.652   0.409
40028W        W12343   1.838   4.867   1.808
40029W        W12344  33.428   5.114   0.952
40030W        W12345  13.575  33.018  10.693
40031W        W12346  38.094  21.618   0.861
40032W        W12347  19.073   1.464   1.715
40033W        W12348  25.027  22.760   4.582
40034W        W12349  17.537   5.570   2.243
40035W        W12350   2.964  26.690   1.291
40036W        W12351  12.537  33.232   1.295
40037W        W12352   7.752  25.108  11.127
40038W        W12353  35.861  29.193  11.291
40039W        W12354  21.043  44.422  11.584
40040W        W12355  37.403  40.038   1.381
40041W        W12356   4.025  20.160   2.000
40042W        W12357  11.009  11.650  11.127
40043W        W12358  32.224  14.634   3.371
40044W        W12359  15.508  16.211  13.395
40045W        W12360   8.614  25.732  14.894
40046W        W12361   5.498  24.230   4.247
40047W        W12362  43.994  29.411  10.675
40048W        W12363   8.889  27.045  13.151
40049W        W12364  31.509  29.061  14.881
40050W        W12365  37.348   6.775   2.233
40051W        W12366  44.521   5.909  12.197
40052W        W12367   7.722  41.526   0.348
40053W        W12368  22.726   8.220   3.463
40054W        W12369   1.307   2.432   2.713
40055W        W12370   0.975  43.306  13.444
40056W        W12371  36.772  14.628   1.919
40057W        W12372   4.482  34.988   3.475
40058W        W12373  42.013  13.866   4.170
40059W        W12374   4.401  39.031  11.562
40060W        W12375  34.786  30.973  13.301
40061W        W12376  38.488  27.731   4.815
40062W        W12377  27.648  37.624   2.469
40063W        W12378  44.973  20.619   0.532
40064W        W12379  29.076  40.075   4.499
40065W        W12380   3.678  36.523  12.059
40066W        W12381   1.125  20.102   2.689
40067W        W12382  31.078  40.416  14.347
40068W        W12383   2.845  39.946   4.127
40069W        W12384  16.248  16.717   0.945
40070W        W12385  29.487   8.107   4.232
40071W        W12386  24.993  14.205   2.466
40072W        W12387  41.436  24.652  10.566
40073W        W12388   7.619  34.580   2.672
40074W        W12389  38.531  34.478  10.708
40075W        W12390  24.039  35.965   2.183
40076W        W12391  19.172  26.278   2.311
40077W        W12392  32.346  37.361   0.021
40078W        W12393   6.361  44.216  11.686
40079W        W12394  25.050  42.366   2.203
40080W        W12395  26.541   2.342  14.379
40081W        W12396  10.240   7.225  12.428
40082W        W12397   7.591  10.191  14.145
40083W        W12398  43.941   6.412   1.052
40084W        W12399  37.535  16.187   1.373
40085W        W12400  21.423  10.381  12.828
40086W        W12401  16.564   3.735  14.109
40087W        W12402  11.279  15.258   2.626
40088W        W12403  26.317   5.877   3.517
40089W        W12404  40.310  35.100   3.383
40090W        W12405  29.195  24.370   2.911
40091W        W12406   6.792  42.151  11.616
40092W        W12407  32.018  37.818   2.233
40093W        W12408  39.952   7.221   0.454
40094W        W12409   0.910  15.794  11.210
40095W        W12410  25.029   9.772  11.913
40096W        W12411   1.880  32.634  14.519
40097W        W12412   2.815  38.584  14.848
40098W        W12413  18.545  10.384   5.030
40099W        W12414  35.512  28.002  10.741
40100W        W12415   9.186   0.191   4.502
40101W        W12416  27.684  22.227  11.208
40102W        W12417   1.287  21.354   3.885
40103W        W12418   9.227  27.173   1.273
40104W        W12419  23.123  44.634  14.305
40105W        W12420  14.283  12.282   3.116
40106W        W12421  21.909   4.646   0.486
40107W        W12422  19.100  22.558   3.215
40108W        W12423   9.849   9.155  14.858
40109W        W12424  27.571  41.817  14.728
40110W        W12425  23.298  15.845   2.184
40111W        W12426  43.449  26.451   3.217
40112W        W12427  32.642  25.754   0.277
40113W        W12428   5.218  35.607  14.296
40114W        W12429  38.598   4.107   1.103
40115W        W12430  13.313  12.280  14.859
40116W        W12431  24.785  19.265   1.073
40117W        W12432  34.108  26.040  12.372
40118W        W12433  25.562  22.295  10.148
40119W        W12434  12.291  19.371   3.069
40120W        W12435  36.844  23.071  12.940
40121W        W12436  30.659   0.393   3.260
40122W        W12437  21.581  19.565   2.583
40123W        W12438   4.431  16.242   1.248
40124W        W12439  13.079  31.443   2.392
40125W        W12440  19.203   4.859   4.624
40126W        W12441  22.505  22.506  11.491
40127W        W12442  29.540  32.271  11.558
40128W        W12443  23.249  33.032  10.722
40129W        W12444  24.802   4.381  14.603
40130W        W12445   4.750  29.732  11.177
40131W        W12446   7.606  24.960  12.122
40132W        W12447  40.822  14.477  11.062
40133W        W12448  31.043   5.982  13.042
40134W        W12449  27.924  28.486  11.139
40135W        W12450   4.505  17.771  10.775
40136W        W12451  14.706  34.848  14.861
40137W        W12452  23.112   7.672   0.517
40138W        W12453  17.152  24.013  12.770
40139W        W12454  24.264   0.561   1.495
40140W        W12455   7.413   4.177  12.006
40141W        W12456   4.960  18.779   2.814
40142W        W12457   3.393  32.532  11.137
40143W        W12458  11.189  29.493  12.182
40144W        W12459   0.421  44.372  12.652
40145W        W12460  43.603  31.714   3.327
40146W        W12461   7.831  29.685  14.694
40147W        W12462  30.524  18.800   0.752
40148W        W12463  43.710   2.830   3.643
40149W        W12464  11.385  33.139   4.261
40150W        W12465  37.772  38.517  10.851
40151W        W12466  38.620  25.942  10.595
40152W        W12467   7.985  35.008   1.834
40153W        W12468   5.106   6.612   3.276
40154W        W12469  20.343  11.830  11.611
40155W        W12470  33.884  26.702  11.227
40156W        W12471  37.529  44.914  11.076
40157W        W12472   9.925   6.519   4.700
40158W        W12473  27.618  24.942  10.661
40159W        W12474  13.348  34.255  10.706
40160W        W12475  18.589  18.172   3.244
40161W        W12476  25.040  14.352  10.584
40162W        W12477  17.182  11.229  11.411
40163W        W12478  36.424  41.378  13.950
40164W        W12479  27.301   6.312   1.148
40165W        W12480  41.393  20.022  12.404
40166W        W12481   0.735  18.122   2.281
40167W        W12482  19.162  43.277   2.788
40168W        W12483  28.025  38.857   0.891
40169W        W12484  23.948  17.116   3.657
40170W        W12485  22.765  14.182   2.097
40171W        W12486   1.289  37.311  11.106
40172W        W12487  14.182  10.650   4.402
40173W        W12488  13.418  37.658   2.243
40174W        W12489  20.789  22.516  12.615
40175W        W12490   4.359   9.914  11.584
40176W        W12491   8.857  31.973  10.721
40177W        W12492  12.132   0.623   1.863
40178W        W12493  40.094   0.493  11.480
40179W        W12494  13.271  32.156   1.773
40180W        W12495  38.901  19.828   0.983
40181W        W12496   8.180  31.415   1.193
40182W        W12497  37.968  38.244   3.089
40183W        W12498   1.117  22.549  13.958
40184W        W12499  23.161  17.136   4.654
40185W        W12500  31.827  27.939   1.413
40186W        W12501   7.976  35.254   0.439
40187W        W12502  27.968   9.749   4.862
40188W        W12503  20.515  16.870   3.881
40189W        W12504   0.762  16.311  11.305
40190W        W12505  31.103  15.143  11.867
40191W        W12506  26.722   4.079  11.638
40192W        W12507  31.411  33.611  11.935
40193W        W12508  32.832  15.659  13.902
40194W        W12509   9.372  11.510   1.726
40195W        W12510   9.174  18.653   0.486
40196W        W12511  32.345  24.186  13.940
40197W        W12512   3.718  40.792   2.996
40198W        W12513  23.930  43.886   2.095
40199W        W12514  34.045  34.053   0.397
40200W        W12515  21.829  14.775   0.702
40201W        W12516   8.625  21.985  13.522
40202W        W12517  37.940  35.597   0.898
40203W        W12518   8.747  27.016   4.314
40204W        W12519  31.645   6.693   0.329
40205W        W12520  32.761   8.202  11.515
40206W        W12521  40.291  24.963  11.938
40207W        W12522   9.344  42.373   2.572
40208W        W12523  33.136   1.493   4.571
40209W        W12524  32.867   5.387  14.902
40210W        W12525   8.261   2.742  11.719
40211W        W12526  18.735  38.999   1.672
40212W        W12527  32.478  21.279  12.498
40213W        W12528  41.443  24.568  13.043
40214W        W12529  39.814   8.096   2.764
40215W        W12530  24.080  13.129  13.826
40216W        W12531  10.771  21.610  12.398
40217W        W12532   4.778  22.323   2.727
40218W        W12533   4.151  24.765   0.517
40219W        W12534  21.866  31.354  14.878
40220W        W12535  26.141  23.102   4.168
40221W        W12536  25.099  20.693  12.161
40222W        W12537  35.494  22.022   0.934
40223W        W12538  34.610  43.886   0.508
40224W        W12539  32.363  34.507   3.331
40225W        W12540  36.567  44.394   0.029
40226W        W12541   4.257  28.373   2.692
40227W        W12542  18.488  41.755  14.377
40228W        W12543  28.088  23.237   4.469
40229W        W12544  20.553  29.533   0.352
40230W        W12545  36.494  26.520  12.637
40231W        W12546  30.913  32.436   1.297
40232W        W12547  38.827  22.463   0.223
40233W        W12548  16.927  19.707  11.555
40234W        W12549   4.602  44.378   9.708
40235W        W12550  38.188  23.658  14.552
40236W        W12551   5.681  11.854  11.981
40237W        W12552  16.807  25.154  13.921
40238W        W12553  25.808   1.409  13.471
40239W        W12554  30.974  40.852  12.534
40240W        W12555  35.477  41.335  10.751
40241W        W12556  38.604  28.744  11.511
40242W        W12557  41.764  16.225   1.246
40243W        W12558  36.619  25.543  13.118
40244W        W12559  41.832   1.156   4.477
40245W        W12560  14.754  11.347  13.988
40246W        W12561  27.003   7.044  12.872
40247W        W12562  37.663  24.024  13.390
40248W        W12563  15.088   9.714   0.346
40249W        W12564  28.985  33.460  10.562
40250W        W12565   6.809  32.254   2.801
40251W        W12566   3.032  32.193   3.639
40252W        W12567  29.895  31.166  10.824
40253W        W12568  37.474  35.431   0.166
40254W        W12569   1.459  30.528  12.049
40255W        W12570  30.575  32.072   1.177
40256W        W12571  37.599   1.706  12.535
40257W        W12572  14.126  30.646   1.798
40258W        W12573  38.325  22.962   1.401
40259W        W12574  38.352  32.560   1.898
40260W        W12575  23.732  42.029  12.052
40261W        W12576  10.573  28.476   3.277
40262W        W12577   5.499  23.695   3.294
40263W        W12578  39.919  21.279  11.543
40264W        W12579  17.541  28.631  11.506
40265W        W12580   5.453  16.716   0.190
40266W        W12581   5.869   1.698   1.310
40267W        W12582  17.778  11.097   4.104
40268W        W12583  21.589  20.227  12.792
40269W        W12584  28.542  39.397   0.325
40270W        W12585  30.769  34.103  12.650
40271W        W12586  10.125  26.823   2.122
40272W        W12587  37.789  10.704   0.621
40273W        W12588  32.652  40.441   1.902
40274W        W12589   6.676  31.997  13.827
40275W        W12590   2.401  43.260  14.873
40276W        W12591   4.392  12.174  13.136
40277W        W12592  36.596   4.001   2.243
40278W        W12593   1.219  13.773  10.651
40279W        W12594  33.096  21.483   1.258
40280W        W12595   3.712  27.562   4.187
40281W        W12596  43.004  12.300   4.666
40282W        W12597   8.697   2.417   3.183
40283W        W12598  41.951  36.801  14.178
40284W        W12599  18.797  15.286  10.938
40285W        W12600  25.460  43.814  14.065
40286W        W12601  39.358   8.178   4.682
40287W        W12602  34.410  33.203   2.765
40288W        W12603  36.834  20.050  12.231
40289W        W12604  38.793  11.676   1.141
40290W        W12605  33.926  21.197  10.111
40291W        W12606  23.261  11.644  11.642
40292W        W12607   3.783  12.298   0.385
40293W        W12608  41.049  27.906   3.365
40294W        W12609  44.518   6.250  11.078
40295W        W12610   3.339  11.852  12.063
40296W        W12611  35.039  16.820   0.411
40297W        W12612  14.747  34.447  12.914
40298W        W12613   7.429  42.299   3.259
40299W        W12614  32.993  43.716   4.153
40300W        W12615  15.369  40.495   3.240
40301W        W12616   5.838  35.961   0.393
40302W        W12617  33.981   3.230  12.957
40303W        W12618  35.041  14.700  12.056
40304W        W12619  14.794  22.181  13.382
40305W        W12620  16.531  31.993  10.994
40306W        W12621  37.203  21.816  13.354
40307W        W12622  23.277  38.546   2.558
40308W        W12623  40.557  44.934   3.575
40309W        W12624  12.918  22.332  13.428
40310W        W12625   0.881   5.974   5.002
40311W        W12626   0.343   8.372   4.157
40312W        W12627   6.100  20.482   1.430
40313W        W12628  38.166  20.281  11.153
40314W        W12629  36.051  31.506  10.694
40315W        W12630  17.115   8.310   2.457
40316W        W12631   0.839  28.644   3.308
40317W        W12632  19.584  37.462   1.260
40318W        W12633  14.554  31.354   0.754
40319W        W12634  28.410  21.544  13.004
40320W        W12635  22.665   1.862   1.809
40321W        W12636   1.962   4.403   4.447
40322W        W12637  16.632  27.517  14.313
40323W        W12638  32.460  29.575  12.434
40324W        W12639  29.337   7.475  12.789
40325W        W12640  25.672  44.333  12.135
40326W        W12641   0.865  32.692  13.277
40327W        W12642   7.821  44.626   3.036
40328W        W12643  34.140  10.731  11.627
40329W        W12644  33.482  34.907   4.751
40330W        W12645  38.821   3.186  14.757
40331W        W12646  16.852  29.240   3.402
40332W        W12647  41.900  24.636   3.107
40333W        W12648  26.130   1.464   3.743
40334W        W12649  37.417  41.023   2.734
40335W        W12650  10.739  17.831   4.771
40336W        W12651  19.968  29.173   0.357
40337W        W12652  37.977  37.099  14.932
40338W        W12653  32.984  35.943   2.292
40339W        W12654  25.573  43.079   2.154
40340W        W12655  42.056  31.173  13.821
40341W        W12656  31.566  10.307   2.324
40342W        W12657   8.556  34.059   0.688
40343W        W12658   4.461  36.891   3.760
40344W        W12659   6.604  11.585   1.819
40345W        W12660  27.459  26.989   4.576
40346W        W12661  18.023  23.265   0.888
40347W        W12662  43.390  27.565   1.731
40348W        W12663  29.495  44.572  12.752
40349W        W12664  43.895  17.315   4.129
40350W        W12665  21.210  44.421  13.838
40351W        W12666  33.023  33.972  13.824
40352W        W12667  20.078   6.109   5.019
40353W        W12668  25.524  33.398   1.798
40354W        W12669  30.970  43.361  12.641
40355W        W12670  23.511  18.987  13.355
40356W        W12671  23.541  35.383  10.755
40357W        W12672  25.695   5.694  10.354
40358W        W12673  19.051   9.052  13.351
40359W        W12674   8.356  28.352  11.421
40360W        W12675  24.481   4.270   0.989
40361W        W12676  33.431  24.958   2.170
40362W        W12677  26.869  30.113   4.921
40363W        W12678  23.635  16.971   0.811
40364W        W12679  25.991   8.687  11.596
40365W        W12680   2.771  20.297  12.853
40366W        W12681  32.860  16.079   4.175
40367W        W12682  44.422  34.930  12.473
40368W        W12683  40.870  28.024   2.769
40369W        W12684  23.933  42.985   2.110
40370W        W12685  17.716  10.268  12.406
40371W        W12686  20.986  19.530   3.771
40372W        W12687  14.205   3.942   1.320
40373W        W12688  29.328  10.466   4.565
40374W        W12689   2.470  18.346   0.846
40375W        W12690   2.279   8.038  13.873
40376W        W12691  25.173  11.306  14.024
40377W        W12692  39.969  26.210   2.748
40378W        W12693  21.981  21.013  12.363
40379W        W12694  34.368  38.507  10.578
40380W        W12695  40.909  10.710  12.984
40381W        W12696  19.236   8.158  14.295
40382W        W12697  42.999  42.433  14.964
40383W        W12698  25.765   2.906   0.841
40384W        W12699  14.653  23.162  11.131
40385W        W12700  14.300  37.012  12.902
40386W        W12701  15.153  21.460   2.200
40387W        W12702  42.815  24.712  12.169
40388W        W12703   2.346  38.516  14.005
40389W        W12704  16.582  35.034   2.435
40390W        W12705  16.573  11.468   3.817
40391W        W12706  12.314  34.383  13.002
40392W        W12707  21.376  17.422   2.799
40393W        W12708  10.086  14.826  12.863
40394W        W12709  37.757  16.614   0.039
40395W        W12710  24.674  29.466  13.446
40396W        W12711   7.320  28.772   2.315
40397W        W12712  11.219  25.258  11.960
40398W        W12713  35.959  31.568   1.270
40399W        W12714  42.899  40.022   2.908
40400W        W12715  31.278  14.605   0.569
40401W        W12716  14.962  44.550   2.832
40402W        W12717  15.167  27.479  11.990
40403W        W12718  40.375  13.782  11.659
40404W        W12719  34.189   5.885   2.723
40405W        W12720  20.958  17.048  11.605
40406W        W12721  35.313  21.474  12.516
40407W        W12722  29.483  36.801  14.746
40408W        W12723   7.321   9.471  11.156
40409W        W12724  39.749   2.804  13.990
40410W        W12725  25.013  22.218  14.375
40411W        W12726  40.536  36.562  13.094
40412W        W12727  34.058  34.477   2.628
40413W        W12728  32.916  32.624  12.118
40414W        W12729  14.806   2.746   0.426
40415W        W12730  28.513   4.675  13.573
40416W        W12731  18.540   8.101   2.362
40417W        W12732  22.260  18.654   3.586
40418W        W12733  26.109  30.560   2.533
40419W        W12734  28.860   2.238   0.002
40420W        W12735   5.210  13.176  11.217
40421W        W12736  25.087  11.163  12.162
40422W        W12737  10.394  21.750   2.019
40423W        W12738  44.937  17.392  12.376
40424W        W12739   3.194  13.411   0.842
40425W        W12740  34.559  39.914  12.357
40426W        W12741   5.690  38.322   3.351
40427W        W12742   6.962  31.384   0.654
40428W        W12743  42.932   3.842   2.148
40429W        W12744  18.236  38.816  13.489
40430W        W12745  25.321  37.188  13.469
40431W        W12746  16.183  40.814   1.877
40432W        W12747  44.713  34.853  13.335
40433W        W12748  11.876  20.325  10.502
40434W        W12749   3.819  20.511   4.725
40435W        W12750  27.137  35.011   2.796
40436W        W12751   2.645  35.935   0.021
40437W        W12752   0.463  14.600   2.659
40438W        W12753  33.723  11.033  13.580
40439W        W12754  14.676   2.900   1.337
40440W        W12755   6.444  24.365   0.281
40441W        W12756  34.323  12.707  10.599
40442W        W12757  35.346   1.450   1.503
40443W        W12758  24.869  41.288   2.234
40444W        W12759  24.383  24.199  13.912
40445W        W12760  13.165  12.290   2.351
40446W        W12761  15.362  18.611   2.285
40447W        W12762  17.057  11.524   5.052
40448W        W12763   0.710  36.921   0.645
40449W        W12764  24.921  11.400  13.525
40450W        W12765  36.918  43.823   0.337
40451W        W12766  12.807  10.570  11.046
40452W        W12767  11.854  21.450   3.156
40453W        W12768  33.127   2.058   2.433
40454W        W12769  13.585   4.234   1.271
40455W        W12770   9.723  40.801   3.753
40456W        W12771   6.432  13.747   0.194
40457W        W12772  17.149  12.155  12.962
40458W        W12773  44.859  35.372  13.200
40459W        W12774  38.083  24.299  11.141
40460W        W12775  19.754  40.345   5.008
40461W        W12776  24.219  10.759   3.833
40462W        W12777  29.971  31.427   1.769
40463W        W12778  37.860  30.001  12.493
40464W        W12779  32.672  44.794  10.656
40465W        W12780  15.094  22.247   0.496
40466W        W12781  29.705   7.723  12.452
40467W        W12782  20.083  24.305  13.388
40468W        W12783  25.819  42.071   2.624
40469W        W12784  20.574   2.759   2.677
40470W        W12785  21.274  41.764  13.258
40471W        W12786   6.215  38.552  11.646
40472W        W12787  22.490   0.335   2.155
40473W        W12788  28.014  34.808   0.156
40474W        W12789  31.977  22.665  13.412
40475W        W12790  37.350  23.518  14.270
40476W        W12791  18.974  34.189   4.764
40477W        W12792  36.578  25.955   3.232
40478W        W12793  19.202   7.731  12.018
40479W        W12794  22.953  41.484   0.890
40480W        W12795  27.564  25.121   3.996
40481W        W12796  10.720  29.523  11.955
40482W        W12797  43.441  23.154   2.701
40483W        W12798   7.194  17.824  11.998
40484W        W12799  10.287   5.774   2.838
40485W        W12800   0.998  18.622  11.506
40486W        W12801   0.364  17.490   0.812
40487W        W12802  20.835   1.745   1.353
40488W        W12803  10.136  44.330  12.065
40489W        W12804  33.096  22.255   0.292
40490W        W12805  15.809  10.805   3.149
40491W        W12806  10.377  40.920  13.410
40492W        W12807  21.034  12.180  10.629
40493W        W12808  31.712  41.771   4.280
40494W        W12809   0.972  26.552  11.195
40495W        W12810  15.094   0.722  11.077
40496W        W12811  22.578  14.141   0.943
40497W        W12812  22.473  19.502  11.470
40498W        W12813  20.711  33.915  10.996
40499W        W12814  16.194  12.095   4.670
40500W        W12815  18.181   1.446  10.574
40501W        W12816  26.156   6.086  14.419
40502W        W12817  19.738  34.850  11.983
40503W        W12818   6.282  41.473   1.395
40504W        W12819   8.025  21.219   4.526
40505W        W12820  11.516  32.157   0.768
40506W        W12821   1.355  21.910   3.203
40507W        W12822  37.126  18.330   0.510
40508W        W12823  38.632   8.435  14.319
40509W        W12824   3.727   3.917   1.997
40510W        W12825  30.161   8.318   3.892
40511W        W12826  23.472  13.536  10.535
40512W        W12827   9.979  13.069   3.164
40513W        W12828   2.616  34.316   4.338
40514W        W12829  11.659   8.644   3.110
40515W        W12830   9.872  33.123  13.799
40516W        W12831  36.773  22.494   3.802
40517W        W12832  31.517  14.029  13.296
40518W        W12833  16.234  13.564  11.056
40519W        W12834  24.351  39.332  11.155
40520W        W12835  18.899   8.341   1.296
40521W        W12836   1.826  43.375  11.823
40522W        W12837  32.522   8.239   0.482
40523W        W12838   4.329  32.565   2.907
40524W        W12839  19.766  17.564   1.430
40525W        W12840  31.499   1.164  11.545
40526W        W12841  15.804  38.411  13.574
40527W        W12842   1.769  18.568   1.995
40528W        W12843   0.277  41.480   1.835
40529W        W12844  33.653  12.705   0.346
40530W        W12845  24.654  19.473  10.072
40531W        W12846   3.857  20.140   0.701
40532W        W12847  28.774   9.289  14.916
40533W        W12848  28.570   3.670  11.567
40534W        W12849  13.481  40.492   0.817
40535W        W12850  40.703   5.169   0.705
40536W        W12851  36.362  21.638  11.469
40537W        W12852  28.211  34.822   2.735
40538W        W12853  41.075   1.460  14.562
40539W        W12854  10.453   2.886   0.300
40540W        W12855  24.575   5.304  14.965
40541W        W12856   2.222  22.117  14.091
40542W        W12857  44.900   6.206  12.457
40543W        W12858   7.252  21.055   0.687
40544W        W12859  35.581  39.882  10.443
40545W        W12860  20.292  20.774  14.608
40546W        W12861  24.950  38.484  12.764
40547W        W12862  34.319  19.796   1.450
40548W        W12863   8.098  11.825   2.712
40549W        W12864  40.075  42.858  13.033
40550W        W12865   8.722  20.639   2.102
40551W        W12866  35.860   4.133  13.462
40552W        W12867  28.450   4.699   0.050
40553W        W12868   9.981  43.848   0.860
40554W        W12869  13.646  25.338  14.323
40555W        W12870  29.568  30.582   0.977
40556W        W12871  17.004  22.214  14.899
40557W        W12872   5.729   4.306   0.842
40558W        W12873   7.072  18.788   1.186
40559W        W12874  30.548   0.768   2.737
40560W        W12875  20.576   5.005   1.224
40561W        W12876   0.170  18.069  11.356
40562W        W12877  16.534  37.344   1.782
40563W        W12878  40.907  41.029  12.571
40564W        W12879  39.456  27.920   1.835
40565W        W12880  33.041  33.462   1.103
40566W        W12881  26.305  34.154   2.568
40567W        W12882   4.336  39.827  14.259
40568W        W12883   4.938  30.598  11.620
40569W        W12884  25.185  39.967  13.827
40570W        W12885  35.003  39.060   2.477
40571W        W12886  20.553  27.639  12.009
40572W        W12887   7.646  37.614  14.943
40573W        W12888  25.971  38.811  11.041
40574W        W12889  11.939   9.932   1.681
40575W        W12890  41.046  10.610   4.236
40576W        W12891  34.635  43.450   3.338
40577W        W12892   9.303  26.914   1.736
40578W        W12893  31.294  35.577   2.692
40579W        W12894  20.776  43.530   0.772
40580W        W12895  19.170  36.661   4.291
40581W        W12896  34.516  18.017  10.613
40582W        W12897  41.896  39.043   0.380
40583W        W12898  41.864  33.773   3.187
40584W        W12899  16.179  10.209   5.041
40585W        W12900  28.681  14.640   4.937
40586W        W12901  44.478  12.849   4.158
40587W        W12902   6.294  37.439   0.317
40588W        W12903   2.349  21.772   4.584
40589W        W12904   3.337   9.780   1.304
40590W        W12905  21.585   2.120  13.279
40591W        W12906  30.333  42.511   4.200
40592W        W12907   1.852   5.882  14.241
40593W        W12908  30.520  41.783  13.397
40594W        W12909  33.640  27.042   3.610
40595W        W12910  15.816  26.221   1.933
40596W        W12911  31.903   7.601  11.440
40597W        W12912  35.365   5.043   0.522
40598W        W12913  24.220  14.580   0.687
40599W        W12914   5.203  39.062   1.925
40600W        W12915  27.383   0.436   2.819
40601W        W12916  24.211   1.362   0.373
40602W        W12917   9.265  41.061   3.674
40603W        W12918  42.024  38.934   2.335
40604W        W12919  13.712   2.363  11.648
40605W        W12920  22.902  34.659   2.135
40606W        W12921   6.770  24.315   4.907
40607W        W12922  13.143   6.695   0.455
40608W        W12923  42.934  34.080   4.698
40609W        W12924  19.413  40.360  10.574
40610W        W12925   9.889  31.620  12.403
40611W        W12926  32.142   6.044   2.011
40612W        W12927  33.530  35.407   4.627
40613W        W12928  34.919  38.788   4.299
40614W        W12929  32.669  14.813   3.156
40615W        W12930  36.976  39.918   2.404
40616W        W12931   6.319  38.770  11.187
40617W        W12932   3.789  34.471  10.874
40618W        W12933   6.250  44.507  13.959
40619W        W12934  25.196  34.455  13.002
40620W        W12935  10.260   7.257   0.393
40621W        W12936  21.200  43.860   1.880
40622W        W12937  42.108  27.383  13.385
40623W        W12938  18.535  42.391  14.843
40624W        W12939  30.665  42.987   2.673
40625W        W12940  24.524  42.378   4.251
40626W        W12941  38.564   9.305   2.887
40627W        W12942  19.903  27.344   0.434
40628W        W12943  21.193  32.893  11.497
40629W        W12944  20.188   6.431   3.110
40630W        W12945   1.328   4.444  12.138
40631W        W12946  40.085  12.928   3.636
40632W        W12947  24.655   6.695   2.270
40633W        W12948  40.076  24.831  12.687
40634W        W12949  39.703  17.227   3.276
40635W        W12950  26.141  27.024   1.665
40636W        W12951  15.490  30.059  12.162
40637W        W12952  10.950  32.118  11.174
40638W        W12953  38.812  17.260   4.982
40639W        W12954  43.362  11.014   4.033
40640W        W12955  34.425   7.071  11.210
40641W        W12956  15.804  36.169  14.744
40642W        W12957   6.580  18.532  13.928
40643W        W12958  39.346  11.842  12.171
40644W        W12959  43.433  19.242   0.495
40645W        W12960  38.860   5.752  14.483
40646W        W12961  21.181  30.374   2.462
40647W        W12962  26.968  11.152  10.589
40648W        W12963  42.085  32.439  11.586
40649W        W12964  12.384  34.384   2.784
40650W        W12965   8.663  22.459   0.750
40651W        W12966  25.765   8.785   0.934
40652W        W12967  31.434   8.247   2.194
40653W        W12968   8.377  30.212   3.941
40654W        W12969  29.795  37.568   2.970
40655W        W12970  42.183  14.228   5.038
40656W        W12971  19.987  32.565   0.013
40657W        W12972  19.856  32.006  11.201
40658W        W12973  43.330  33.378  13.514
40659W        W12974  17.702  14.326   3.818
40660W        W12975  10.428  23.755  13.964
40661W        W12976  18.658  28.603   3.400
40662W        W12977   8.626   9.240   2.691
40663W        W12978   0.593  41.227  12.315
40664W        W12979  40.504   1.906   2.211
40665W        W12980  15.115  25.250   1.829
40666W        W12981   4.309  13.736   4.160
40667W        W12982  21.239  43.704   0.975
40668W        W12983   1.217  22.130  13.085
40669W        W12984  23.630  15.328   2.204
40670W        W12985  35.634   0.471  13.320
40671W        W12986  31.433   4.684   4.548
40672W        W12987  12.121  12.351   0.849
40673W        W12988  43.801  28.252  13.409
40674W        W12989   1.382  17.317   0.053
40675W        W12990  22.003  20.208   1.917
40676W        W12991  43.533  32.175  11.670
40677W        W12992  32.170  19.598   2.201
40678W        W12993  20.500  22.545   4.785
40679W        W12994  37.815  23.322  14.443
40680W        W12995  15.204   6.481   1.950
40681W        W12996   2.159  15.719  12.381
40682W        W12997  39.432   2.232  12.453
40683W        W12998   1.971  35.026  13.535
40684W        W12999  24.139  39.107   2.669
40685W        W13000  25.038  29.098   4.869
40686W        W13001  32.217  38.294  14.966
40687W        W13002  34.058   1.691   2.229
40688W        W13003  12.754  22.321  11.213
40689W        W13004  41.101  25.796   1.426
40690W        W13005  40.281  16.148   2.441
40691W        W13006   6.636  20.041   2.324
40692W        W13007   4.245  24.653  10.651
40693W        W13008  34.484  20.613  11.798
40694W        W13009  26.089  34.918   2.756
40695W        W13010  28.702  42.499  11.468
40696W        W13011   3.861   2.795   1.377
40697W        W13012  20.117  13.888   2.720
40698W        W13013   5.863  44.448   2.791
40699W        W13014  29.768  21.378   4.484
40700W        W13015  14.754  41.416  12.457
40701W        W13016   7.401  14.241  13.822
40702W        W13017  17.518  11.448  12.177
40703W        W13018  15.092  29.434  10.727
40704W        W13019  26.860   7.555   2.958
40705W        W13020  31.474  42.427   4.878
40706W        W13021  16.932  12.845   1.259
40707W        W13022  44.011   1.389   3.766
40708W        W13023  11.052  31.521  13.866
40709W        W13024  22.154  19.662  10.244
40710W        W13025   7.264  34.105  13.368
40711W        W13026  18.798  39.526  12.978
40712W        W13027  41.179   1.517   1.289
40713W        W13028   7.740  28.204  11.576
40714W        W13029   1.270  12.084   3.153
40715W        W13030  39.921   2.856   1.691
40716W        W13031   3.499  12.383  12.907
40717W        W13032  13.729  25.858   1.321
40718W        W13033  26.425  27.462   2.808
40719W        W13034  41.507  28.026   3.617
40720W        W13035  44.366  42.772  13.913
40721W        W13036  14.198  37.067   1.596
40722W        W13037  15.151  37.330   4.008
40723W        W13038  10.457  24.511  11.146
40724W        W13039  38.587   8.388   3.978
40725W        W13040  22.066  20.506   5.352
40726W        W13041  30.071  37.101   0.777
40727W        W13042  14.225  23.504  11.112
40728W        W13043  27.204  27.800  13.481
40729W        W13044  39.858  15.140   3.643
40730W        W13045  28.418   4.206  14.912
40731W        W13046  30.969  37.890   4.132
40732W        W13047  35.442  33.426   3.239
40733W        W13048   1.806  14.108   3.885
40734W        W13049  22.492  23.117  14.019
40735W        W13050  35.826   2.935   1.186
40736W        W13051   0.835  22.267  12.390
40737W        W13052  15.939   6.134   4.798
40738W        W13053  25.087  38.771   4.769
40739W        W13054  11.768  35.505  13.722
40740W        W13055  29.127   4.808   4.596
40741W        W13056  33.513  17.852   3.264
40742W        W13057   7.295  36.346   3.094
40743W        W13058  33.950  16.819   1.292
40744W        W13059  14.083  10.155   2.327
40745W        W13060   0.963  28.749   1.212
40746W        W13061  14.097  26.159  11.652
40747W        W13062  19.745   4.996   4.281
40748W        W13063  32.610  14.902  10.773
40749W        W13064  38.932   1.986   4.556
40750W        W13065  35.364  23.760  14.956
40751W        W13066   1.691   7.963   2.346
40752W        W13067  11.549  27.491   3.750
40753W        W13068  25.541  40.204   1.656
40754W        W13069  37.852  39.608   0.336
40755W        W13070  38.253  13.754   1.278
40756W        W13071  42.374  25.468  11.853
40757W        W13072   6.916   1.075   1.982
40758W        W13073   0.534   3.669  12.904
40759W        W13074  40.494  41.264   1.402
40760W        W13075  32.166  28.040   1.014
40761W        W13076  16.733  21.657   4.408
40762W        W13077   6.968  14.605   2.456
40763W        W13078  27.162   6.261   5.041
40764W        W13079  37.943   4.900  11.127
40765W        W13080  29.895  28.419  14.016
40766W        W13081  11.163  37.487   1.437
40767W        W13082  36.154  23.731  12.482
40768W        W13083  12.791  36.119  14.848
40769W        W13084   5.839  11.689   1.452
40770W        W13085  24.774  26.955  12.224
40771W        W13086  25.178  42.297  11.958
40772W        W13087   9.216  35.877   1.007
40773W        W13088  38.096  44.724  14.440
40774W        W13089  17.524  44.341   3.605
40775W        W13090  40.479   8.715  10.411
40776W        W13091  41.132  34.873  10.736
40777W        W13092   5.515   7.944   3.701
40778W        W13093   9.313  30.338   0.852
40779W        W13094   6.564  43.637  14.110
40780W        W13095  28.942  23.911  11.537
40781W        W13096  41.899  22.449  14.212
40782W        W13097  33.270  36.368  13.964
40783W        W13098  10.794  21.923   3.660
40784W        W13099  39.046  43.899  12.090
40785W        W13100  24.955  28.560  10.652
40786W        W13101  38.575  14.369   3.818
40787W        W13102  10.228  23.292   1.164
40788W        W13103   1.511  44.218   3.128
40789W        W13104   9.195  13.530   3.208
40790W        W13105  31.908  18.738  14.066
40791W        W13106   5.569  23.636  12.224
40792W        W13107  22.697  34.875   0.908
40793W        W13108  21.722  36.065   1.781
40794W        W13109  12.317  40.279   4.539
40795W        W13110   1.917   3.588  14.938
40796W        W13111  42.413   8.695  14.648
40797W        W13112   2.305  21.493   1.145
40798W        W13113  13.378   4.360  11.704
40799W        W13114  44.171  24.208   3.191
40800W        W13115  35.992   6.125   1.002
40801W        W13116  29.527  18.725  12.957
40802W        W13117   6.430  21.412   3.297
40803W        W13118  26.674  25.934   4.372
40804W        W13119   7.983  12.978  11.145
40805W        W13120  39.804  42.425   0.306
40806W        W13121   8.819  44.707  11.027
40807W        W13122  23.015   0.601  13.560
40808W        W13123  20.004  36.889   2.757
40809W        W13124  29.530  29.864  14.907
40810W        W13125  19.251  39.350   0.460
40811W        W13126  13.710  29.979  13.024
40812W        W13127  15.997   2.404  11.453
40813W        W13128  13.939  19.178   3.847
40814W        W13129  19.497  10.366   3.948
40815W        W13130  12.325   1.893  10.868
40816W        W13131  25.074  42.158  11.461
40817W        W13132  43.440  41.476   4.287
40818W        W13133  42.465   3.219   0.823
40819W        W13134  13.341  30.307  13.978
40820W        W13135  10.111   0.318   2.395
40821W        W13136  16.870  26.934  13.284
40822W        W13137  18.714   0.308   0.321
40823W        W13138  21.046  17.225   2.460
40824W        W13139  33.524   9.402  14.455
40825W        W13140  28.582  33.009   4.526
40826W        W13141  38.087   1.850  12.450
40827W        W13142  28.417  43.546   3.583
40828W        W13143  36.083  42.844  11.686
40829W        W13144   7.905  20.552  12.816
40830W        W13145   1.391  15.290  10.715
40831W        W13146  32.043   1.266  12.108
40832W        W13147  20.580  38.012   0.794
40833W        W13148  17.609   2.161   3.682
40834W        W13149  22.967   5.868   4.598
40835W        W13150  19.059   0.266  12.015
40836W        W13151  43.142  33.012   3.243
40837W        W13152   4.707  37.841   3.139
40838W        W13153  40.922  36.877   3.144
40839W        W13154  37.395  18.894   2.442
40840W        W13155  12.658  39.482   3.171
40841W        W13156  15.793  22.025   4.903
40842W        W13157   6.323  40.029  14.271
40843W        W13158   1.823  27.444  13.438
40844W        W13159  19.662   7.724   4.036
40845W        W13160  16.420   5.342   1.701
40846W        W13161   8.333   7.860   0.469
40847W        W13162  32.330  17.557   1.818
40848W        W13163  28.724   1.798  14.064
40849W        W13164  14.137   3.838  14.957
40850W        W13165  12.888  37.087   3.377
40851W        W13166  43.109  19.636   0.526
40852W        W13167   0.707  44.835  13.389
40853W        W13168  10.412  20.488  10.611
40854W        W13169  27.966  30.016  12.121
40855W        W13170   1.735  12.764  13.595
40856W        W13171  34.992  34.847  11.397
40857W        W13172  19.106  14.379   3.903
40858W        W13173  19.543   0.539  13.339
40859W        W13174  35.334   4.214  13.563
40860W        W13175  32.331  23.663  13.887
40861W        W13176  44.920  28.091   0.926
40862W        W13177  12.346  34.900  13.092
40863W        W13178  29.702   7.915  13.799
40864W        W13179  30.023   8.972   0.388
40865W        W13180  11.097  12.937  13.520
40866W        W13181  28.688   9.601   3.692
40867W        W13182  16.994  44.060  11.618
40868W        W13183  34.994  21.366   4.753
40869W        W13184  12.834  41.434   0.443
40870W        W13185  41.358  26.436   4.483
40871W        W13186  44.851  31.631   4.157
40872W        W13187   4.807  32.108  13.785
40873W        W13188  35.538  14.234  10.746
40874W        W13189  10.613  32.917   2.702
40875W        W13190   0.531  40.822  10.573
40876W        W13191   6.559   3.692   3.692
40877W        W13192  27.001  13.787  10.515
40878W        W13193  43.557   6.667   0.130
40879W        W13194  15.199  30.661  11.536
40880W        W13195  27.073  25.512  13.300
40881W        W13196  20.154  35.794   0.781
40882W        W13197  34.174   0.747   3.155
40883W        W13198  42.001  19.238  11.549
40884W        W13199  21.947  12.645  10.585
40885W        W13200  38.500  32.605  12.860
40886W        W13201   7.178  30.102  12.455
40887W        W13202  22.590  37.667  13.392
40888W        W13203  11.106  19.070  11.397
40889W        W13204  26.570  32.367   4.761
40890W        W13205  26.794  10.708   1.621
40891W        W13206   6.383  42.419   0.023
40892W        W13207  23.176  28.246  11.030
40893W        W13208  43.955  22.166  10.420
40894W        W13209  16.047  35.923  11.412
40895W        W13210  27.680  39.858  11.526
40896W        W13211  13.130  31.504   0.758
40897W        W13212   4.477  16.311   2.123
40898W        W13213  15.172  40.786   1.009
40899W        W13214  41.449   9.207   4.734
40900W        W13215   1.815  25.201   2.834
40901W        W13216  10.117  26.450   4.071
40902W        W13217  43.314  18.704  11.547
40903W        W13218  13.721  36.472   4.747
40904W        W13219  28.010   8.768   2.686
40905W        W13220  25.261  15.830  14.276
40906W        W13221  19.754  24.901  14.777
40907W        W13222  12.623  27.864  13.969
40908W        W13223  16.344  18.335   2.829
40909W        W13224  38.256  33.023  11.035
40910W        W13225  26.955  10.796   2.841
40911W        W13226   5.111  33.618   2.292
40912W        W13227  13.285  25.521  11.568
40913W        W13228  14.506  41.478  13.940
40914W        W13229   1.009  24.005  14.348
40915W        W13230   6.924  40.176   2.781
40916W        W13231  34.612  12.152   3.672
40917W        W13232  18.305  27.945   2.370
40918W        W13233  21.779  37.115   2.276
40919W        W13234  18.121  44.385   2.734
40920W        W13235  30.794   0.835  14.317
40921W        W13236  24.656  44.340  10.755
40922W        W13237  34.941  44.302  13.600
40923W        W13238  23.019  10.066   2.940
40924W        W13239  11.848  39.661  11.135
40925W        W13240  14.175   4.340  13.462
40926W        W13241  25.531   6.856   4.899
40927W        W13242  14.212  31.111  14.917
40928W        W13243  22.670   8.798  14.426
40929W        W13244  19.693   2.803  11.036
40930W        W13245  16.595  36.498  12.510
40931W        W13246  39.507  25.570   4.310
40932W        W13247  15.802  33.743  11.955
40933W        W13248  43.791   0.901  14.079
40934W        W13249  23.993  34.949   1.326
40935W        W13250  25.955  25.177   0.221
40936W        W13251  39.115  30.021  14.848
40937W        W13252  26.524   7.629  14.552
40938W        W13253   3.209  41.263   3.592
40939W        W13254  25.019   9.144   0.419
40940W        W13255   8.224  18.564   4.560
40941W        W13256  15.018   7.186   2.658
40942W        W13257  19.630  25.440   2.379
40943W        W13258  12.258   8.339  11.385
40944W        W13259  15.346  23.553  12.547
40945W        W13260  39.990   2.341  13.885
40946W        W13261   8.858  30.908  13.441
40947W        W13262  27.200   3.213  11.834
40948W        W13263  13.736  25.725   1.814
40949W        W13264  40.611   7.357   3.896
40950W        W13265   0.176  32.674   3.269
40951W        W13266   7.726   2.548  14.000
40952W        W13267   7.989  26.013  12.925
40953W        W13268   0.883  30.040   2.389
40954W        W13269  11.802  41.264   0.020
40955W        W13270  31.364   1.803   3.185
40956W        W13271  36.503  26.075   1.023
40957W        W13272  41.494  10.353  11.218
40958W        W13273  42.418   0.643   3.467
40959W        W13274  35.293  29.612  10.559
40960W        W13275   3.171  42.182   5.237
40961W        W13276  44.426  10.700  12.492
40962W        W13277   8.102  40.225   3.528
40963W        W13278  21.066  31.976   4.598
40964W        W13279  17.634  35.488  13.336
40965W        W13280  11.706  43.242  14.528
40966W        W13281  24.514  39.534  11.843
40967W        W13282  26.828  16.861   2.711
40968W        W13283  17.629   5.252  12.147
40969W        W13284  32.873   8.692   3.686
40970W        W13285   3.662   8.322   4.086
40971W        W13286   7.709  32.981   4.728
40972W        W13287   3.876   5.906  14.463
40973W        W13288  35.310  33.561  12.145
40974W        W13289  16.887  23.923   5.191
40975W        W13290  18.231  42.873   0.732
40976W        W13291  36.053  12.369  10.628
40977W        W13292  43.818  15.888   1.891
40978W        W13293  22.161   2.701   4.228
40979W        W13294   8.308  17.574  10.724
40980W        W13295  34.446  38.448   2.933
40981W        W13296  34.628  13.630   3.170
40982W        W13297  40.475   9.269  13.477
40983W        W13298  36.590  30.196   0.468
40984W        W13299  41.808  26.685   3.744
40985W        W13300  43.211  35.481   3.656
40986W        W13301   1.752  38.884  13.489
40987W        W13302  39.017   0.826   1.800
40988W        W13303  30.548  27.969   2.340
40989W        W13304  44.768   6.739   3.219
40990W        W13305  18.041  18.606  11.507
40991W        W13306   0.782   1.299   3.345
40992W        W13307  17.048  24.761   1.686
40993W        W13308  34.179  12.586   0.998
40994W        W13309  32.761  12.911   2.371
40995W        W13310  30.983  28.438   2.870
40996W        W13311  20.217  29.475  13.521
40997W        W13312  39.612  44.278   4.900
40998W        W13313   2.680  17.677  11.576
40999W        W13314   6.964   0.805  14.871
41000W        W13315  42.945  13.022  13.594
41001W        W13316  43.389   5.779   1.011
41002W        W13317   7.716  40.905   3.194
41003W        W13318  23.131  28.722  10.771
41004W        W13319  11.540   6.357   2.881
41005W        W13320   5.410   7.691   4.771
41006W        W13321  37.441   3.744  10.861
41007W        W13322   9.871   9.626   1.436
41008W        W13323  24.183  17.712   0.982
41009W        W13324   1.372  32.085  12.188
41010W        W13325  15.844   2.392  13.982
41011W        W13326  29.953  15.381  14.864
41012W        W13327  14.194  20.127   2.363
41013W        W13328   1.688  36.879  12.104
41014W        W13329   2.151   2.927   1.722
41015W        W13330  29.129  11.697  12.517
41016W        W13331  17.559  16.204   2.768
41017W        W13332  18.256  17.708  13.999
41018W        W13333  40.609  34.957   5.342
41019W        W13334  17.810  22.944  11.411
41020W        W13335  30.383  16.878  13.840
41021W        W13336  40.295  42.732   2.593
41022W        W13337  19.160  25.907   0.804
41023W        W13338  39.261  27.064   1.117
41024W        W13339  39.477   7.356   3.684
41025W        W13340  37.735  41.424  10.746
41026W        W13341  19.609  17.806   0.978
41027W        W13342  36.536  36.791   0.285
41028W        W13343  35.646  11.839   1.189
41029W        W13344  13.660  32.125   3.771
41030W        W13345  41.621  37.455   0.351
41031W        W13346  13.481  38.481   1.038
41032W        W13347  11.846  15.616  12.404
41033W        W13348  24.718  37.451  14.447
41034W        W13349  21.188  28.525  13.774
41035W        W13350  43.543  24.343   1.620
41036W        W13351  24.991   5.400   0.345
41037W        W13352  23.701  40.543   1.245
41038W        W13353  36.615  11.764   4.208
41039W        W13354   9.440   7.275   0.799
41040W        W13355   6.595   1.624  11.629
41041W        W13356  33.416   1.673   3.336
41042W        W13357  10.961  17.559   4.404
41043W        W13358  33.021  11.868  10.639
41044W        W13359  23.446  17.554  12.054
41045W        W13360  40.421   5.843  10.697
41046W        W13361  16.271  37.305   3.215
41047W        W13362  27.549  15.092  14.802
41048W        W13363  28.209  30.450  12.887
41049W        W13364  38.596  15.134  12.433
41050W        W13365  29.560  30.069   4.753
41051W        W13366  13.439  22.307  13.461
41052W        W13367   2.135  22.689  13.861
41053W        W13368   7.461  14.629   1.572
41054W        W13369  31.639  29.682   4.719
41055W        W13370  15.214   2.303   4.999
41056W        W13371  38.596  16.038  10.158
41057W        W13372  25.822  37.870  10.898
41058W        W13373  35.802  25.120  13.011
41059W        W13374  31.821  11.646   3.659
41060W        W13375  42.175   1.736  11.943
41061W        W13376  23.585   1.183  12.017
41062W        W13377   3.493  12.813  13.173
41063W        W13378  44.936  29.947  12.645
41064W        W13379  12.391  38.402   4.262
41065W        W13380  20.369  39.305  12.489
41066W        W13381  16.072  14.716   4.083
41067W        W13382  34.653  30.489   3.651
41068W        W13383  27.181   6.459   0.339
41069W        W13384  42.047  13.513   1.300
41070W        W13385  44.077  23.514  11.239
41071W        W13386  43.142  18.607   3.259
41072W        W13387  29.637  43.732   0.058
41073W        W13388   1.989  39.351  13.537
41074W        W13389  42.377  35.336   2.604
41075W        W13390  30.926  24.209   0.317
41076W        W13391  32.110  43.439   2.889
41077W        W13392  37.100  10.202  13.125
41078W        W13393   5.723  28.670  12.220
41079W        W13394  39.268  24.562   1.391
41080W        W13395  34.364  28.447   3.225
41081W        W13396  24.074  31.785   2.254
41082W        W13397   0.952   2.610  12.621
41083W        W13398  11.824  34.943   0.380
41084W        W13399  35.454  17.703  11.895
41085W        W13400   2.756  24.728  14.692
41086W        W13401  42.927  23.684   1.343
41087W        W13402  43.272  24.082   4.595
41088W        W13403  39.133  16.356   2.211
41089W        W13404  35.907  42.209   1.423
41090W        W13405  39.907  31.153   4.484
41091W        W13406  10.114  35.620  11.400
41092W        W13407   4.575   0.359   9.911
41093W        W13408  40.330   0.092  12.914
41094W        W13409   7.248  17.970  14.796
41095W        W13410  34.323  15.325  10.706
41096W        W13411  12.879  28.234   4.488
41097W        W13412  22.974  44.666  13.713
41098W        W13413   5.387  13.768   2.357
41099W        W13414  24.199   6.670  13.149
41100W        W13415   7.004  35.651   3.664
41101W        W13416  19.906  17.441  12.520
41102W        W13417  25.761  38.384   1.198
41103W        W13418   1.369  38.787  14.328
41104W        W13419  20.610  10.885   4.235
41105W        W13420   2.730  23.458  13.416
41106W        W13421  28.418  41.856  10.848
41107W        W13422  27.583  38.355   2.842
41108W        W13423   8.636   2.351  13.472
41109W        W13424  38.445  14.645   2.582
41110W        W13425   0.456  39.759  12.852
41111W        W13426  21.060   8.791  11.177
41112W        W13427   5.786  30.077  10.937
41113W        W13428  42.437  18.440   0.896
41114W        W13429   6.423  30.483  12.112
41115W        W13430  26.495  32.215   2.643
41116W        W13431  28.565  41.212  13.994
41117W        W13432  44.574   8.367   4.500
41118W        W13433  31.315  32.359  14.022
41119W        W13434  19.190  13.125   1.903
41120W        W13435  20.006   0.305  14.721
41121W        W13436  10.237  42.505   0.326
41122W        W13437   3.967  36.366  12.498
41123W        W13438  23.514  17.602   1.786
41124W        W13439  44.782   4.070  14.796
41125W        W13440  42.316  19.258  12.046
41126W        W13441  24.510  35.545  11.189
41127W        W13442   0.290  39.840   2.915
41128W        W13443  20.097  10.068   2.221
41129W        W13444  24.717  43.319  11.925
41130W        W13445   9.116  39.342   0.526
41131W        W13446  23.228  38.027  13.910
41132W        W13447   3.050  26.526   3.693
41133W        W13448   6.495  26.489  12.319
41134W        W13449  21.720  32.894  10.394
41135W        W13450  42.582  25.692  13.877
41136W        W13451  22.566   9.859   2.795
41137W        W13452   8.170  11.430  12.163
41138W        W13453  38.335  31.030   1.679
41139W        W13454   2.368  20.225  14.448
41140W        W13455   1.596   8.845  12.962
41141W        W13456  34.902  16.476   3.204
41142W        W13457  13.078  36.829   4.472
41143W        W13458  31.361  19.657   3.226
41144W        W13459   4.330  38.275   3.629
41145W        W13460  40.330  38.521   4.129
41146W        W13461  16.288   8.304  13.613
41147W        W13462  15.254  31.610  11.868
41148W        W13463   6.301  19.815  13.280
41149W        W13464  33.041   2.313   0.119
41150W        W13465  44.375  28.944  12.852
41151W        W13466  11.980   2.770   2.177
41152W        W13467  29.034  14.429  11.174
41153W        W13468  34.931  37.647  10.656
41154W        W13469  24.246   8.284  10.652
41155W        W13470   7.252  22.202  12.037
41156W        W13471  10.332   0.400  10.929
41157W        W13472  22.018   0.881   0.533
41158W        W13473  16.177  33.806  13.756
41159W        W13474  43.523   1.677  14.749
41160W        W13475  28.935  31.976   1.907
41161W        W13476  22.014  39.433  14.049
41162W        W13477  41.258   0.271   2.258
41163W        W13478   8.010   9.096  12.004
41164W        W13479  43.491   0.912   2.568
41165W        W13480   2.795  12.682  12.348
41166W        W13481   4.554   2.508  14.336
41167W        W13482  30.660   7.373  12.148
41168W        W13483   8.116  33.946  12.141
41169W        W13484  43.905  24.276  13.963
41170W        W13485   6.223  34.170  11.851
41171W        W13486   7.480  32.684  11.771
41172W        W13487  11.265  41.603   1.416
41173W        W13488  44.890  38.404  11.028
41174W        W13489  29.391   8.653  10.373
41175W        W13490  25.237  41.131   4.167
41176W        W13491  31.697  38.845   3.685
41177W        W13492  15.762   6.125  11.938
41178W        W13493   7.843  19.746  12.040
41179W        W13494   2.021  31.929   3.776
41180W        W13495  32.407  42.483  13.436
41181W        W13496  14.669   4.172  11.175
41182W        W13497  24.076   0.944   2.822
41183W        W13498   6.883   5.136  12.970
41184W        W13499  42.930  44.243  11.631
41185W        W13500   3.714   4.687  12.040
41186W        W13501  27.459  41.524  13.300
41187W        W13502   9.671   1.738   0.407
41188W        W13503   6.215  36.535  12.211
41189W        W13504  28.762  23.940  14.478
41190W        W13505  42.972  23.261   4.496
41191W        W13506  34.554  39.071   1.789
41192W        W13507  31.061  22.016   0.761
41193W        W13508  21.888   6.600   2.313
41194W        W13509   4.137  21.551  10.973
41195W        W13510  19.580   3.144   2.249
41196W        W13511  10.891   9.287   4.837
41197W        W13512   9.242  13.826  13.314
41198W        W13513  18.142   1.485   1.923
41199W        W13514   0.871  37.580  11.562
41200W        W13515   2.611  42.387  10.665
41201W        W13516  25.390  42.378   2.615
41202W        W13517  43.994  41.172   5.015
41203W        W13518   7.723  40.796  10.344
41204W        W13519  26.098  28.129  12.984
41205W        W13520  39.148  33.145  14.338
41206W        W13521   0.102  16.799  14.284
41207W        W13522  37.833  28.775   2.696
41208W        W13523  26.027  18.985   2.244
41209W        W13524  11.360  25.755  12.469
41210W        W13525  41.165  29.090   0.768
41211W        W13526   6.956   3.863   4.438
41212W        W13527  16.939  31.753  12.456
41213W        W13528  25.947  20.410   3.421
41214W        W13529  26.339  20.004   2.126
41215W        W13530   0.777  17.210   2.113
41216W        W13531  32.052  13.621  12.606
41217W        W13532  26.680   4.722  12.936
41218W        W13533  18.797  43.758   1.705
41219W        W13534  34.323  16.620  12.524
41220W        W13535  12.126  33.611  12.361
41221W        W13536  20.503   5.301   0.824
41222W        W13537  16.831   6.593   3.695
41223W        W13538  28.937   0.043  10.673
41224W        W13539  13.094   0.085   3.145
41225W        W13540  25.267  24.642  13.826
41226W        W13541  10.449  43.728   2.213
41227W        W13542  44.521  38.656  13.933
41228W        W13543   6.169  23.619   1.510
41229W        W13544   3.549  37.248   2.474
41230W        W13545  24.121   4.232  11.719
41231W        W13546  12.768  26.239   1.415
41232W        W13547  21.990   4.144   0.549
41233W        W13548  18.290  44.924   2.702
41234W        W13549  42.408  21.770  12.942
41235W        W13550  12.325  41.498   1.307
41236W        W13551  32.865  40.758   0.827
41237W        W13552  40.507   4.465   2.729
41238W        W13553  36.553  34.461   0.490
41239W        W13554  31.485  13.506  13.279
41240W        W13555  12.607  40.459  12.026
41241W        W13556  10.589  37.381  12.144
41242W        W13557  33.353  16.151   2.307
41243W        W13558  17.297  18.066  12.403
41244W        W13559  23.543  20.911   2.805
41245W        W13560  25.502   1.944   3.100
41246W        W13561  35.072  22.378  14.788
41247W        W13562  36.652  15.625   1.042
41248W        W13563  11.050  22.820   1.646
41249W        W13564  22.221  34.006  14.571
41250W        W13565  36.957  27.586  12.507
41251W        W13566  36.927  40.840   1.894
41252W        W13567  37.568  27.114  11.062
41253W        W13568  12.887  33.944  10.753
41254W        W13569  13.200  38.318   3.677
41255W        W13570  18.556  21.257   1.045
41256W        W13571  20.153  21.797   3.817
41257W        W13572  14.417  44.988   2.268
41258W        W13573  33.131   2.305  12.636
41259W        W13574   6.430   3.327  12.828
41260W        W13575  41.518  27.696   3.221
41261W        W13576  26.298  22.242   3.621
41262W        W13577   1.972   2.776   3.694
41263W        W13578  32.139  33.408  14.867
41264W        W13579  28.175  35.038   0.715
41265W        W13580  27.672   0.509   0.815
41266W        W13581  11.818  31.634   4.609
41267W        W13582  32.573  17.055  12.612
41268W        W13583  36.342  11.195   3.567
41269W        W13584  13.383  12.990   0.408
41270W        W13585  37.577  38.818  11.630
41271W        W13586   4.700   4.366  12.473
41272W        W13587  34.585  26.988   0.280
41273W        W13588  41.988  43.472   0.756
41274W        W13589  32.899  27.616  13.861
41275W        W13590  36.021  37.721  12.680
41276W        W13591  12.396   4.415   4.140
41277W        W13592   1.959  39.065   1.429
41278W        W13593   9.631  10.923  14.547
41279W        W13594  20.059   5.793   1.716
41280W        W13595  19.817  22.522  13.861
41281W        W13596  19.286  36.023   2.239
41282W        W13597  29.968  28.600   3.630
41283W        W13598  44.619  18.591  10.229
41284W        W13599  19.025  33.098   3.946
41285W        W13600   9.320  37.421   2.894
41286W        W13601  15.127   7.029   2.192
41287W        W13602  39.414   7.336  13.921
41288W        W13603  19.010  24.088   1.534
41289W        W13604   3.160  21.269   0.786
41290W        W13605  11.016  10.661  13.365
41291W        W13606   0.278  42.335   1.683
41292W        W13607  14.317  24.682  13.760
41293W        W13608  21.063  19.188   0.994
41294W        W13609  16.628  43.963   3.406
41295W        W13610   5.893  37.852   3.257
41296W        W13611   2.797  31.616  13.280
41297W        W13612   9.178  32.894   3.716
41298W        W13613  43.180  20.354   3.356
41299W        W13614  29.243   5.585  10.079
41300W        W13615  13.727  17.139   0.353
41301W        W13616  13.612  21.287  13.397
41302W        W13617   5.670   0.729  13.431
41303W        W13618  13.645   2.352   3.699
41304W        W13619  43.974  13.598   3.760
41305W        W13620   9.107  21.491  12.472
41306W        W13621  23.007  43.711  11.606
41307W        W13622  43.628  14.661  13.521
41308W        W13623   3.387  15.807  12.054
41309W        W13624  26.404   7.440  11.532
41310W        W13625  38.024  29.524   4.330
41311W        W13626  18.707  36.868   4.167
41312W        W13627   3.178  38.418   2.664
41313W        W13628  41.921  42.247   2.802
41314W        W13629   1.852  13.828   3.452
41315W        W13630   9.709   6.448  11.517
41316W        W13631  33.415  44.483  12.475
41317W        W13632  14.736  10.627  11.946
41318W        W13633  22.804   3.327   4.158
41319W        W13634   0.292  13.235   4.079
41320W        W13635  12.828  14.345   2.910
41321W        W13636  13.799  21.118   0.725
41322W        W13637  34.968  40.155  14.026
41323W        W13638  33.825  23.697  13.883
41324W        W13639  36.872  16.316  11.201
41325W        W13640   9.465   5.782  14.384
41326W        W13641  29.886  39.565  11.941
41327W        W13642   4.711  22.853   0.015
41328W        W13643  44.394  36.499  13.899
41329W        W13644  13.070  24.463  12.478
41330W        W13645  17.103  40.461   5.310
41331W        W13646  36.149  42.433  12.004
41332W        W13647  39.352  37.864   0.374
41333W        W13648  10.102  40.967   0.190
41334W        W13649  43.255   3.469  10.680
41335W        W13650  10.987  26.424  12.407
41336W        W13651   6.312   7.894  11.469
41337W        W13652   0.408  20.968  12.085
41338W        W13653  33.163  19.264  13.877
41339W        W13654  35.763   4.482   4.191
41340W        W13655  30.704  27.221  13.541
41341W        W13656  26.687  22.821   3.120
41342W        W13657  40.835  13.034  11.586
41343W        W13658  24.026  37.896  11.579
41344W        W13659  43.718  28.455   3.774
41345W        W13660  31.307  39.609   3.368
41346W        W13661   6.484  12.925   3.633
41347W        W13662   9.297  35.982   0.058
41348W        W13663  33.084  12.910   4.363
41349W        W13664  22.240  33.099   4.552
41350W        W13665  35.302  27.517   0.319
41351W        W13666  12.655  32.381  13.604
41352W        W13667   0.822  11.972   4.499
41353W        W13668  15.829   0.016  14.986
41354W        W13669  22.272  10.599   1.420
41355W        W13670   8.841  18.936  12.597
41356W        W13671  12.552   2.735   3.159
41357W        W13672  25.564  34.682   1.332
41358W        W13673  19.078  27.841   0.763
41359W        W13674  28.581   7.383   4.791
41360W        W13675  32.524  23.893  10.459
41361W        W13676  22.224   3.190   0.325
41362W        W13677   3.953  39.725  11.157
41363W        W13678  13.764  29.103   0.736
41364W        W13679  15.822  16.583   1.688
41365W        W13680  22.258  35.905   2.629
41366W        W13681   4.553  26.072  10.688
41367W        W13682  14.763  32.053   2.725
41368W        W13683  23.513  38.530   1.951
41369W        W13684  20.138   2.138   0.387
41370W        W13685   2.301  24.647   0.918
41371W        W13686  18.013  26.624  11.828
41372W        W13687  19.775  41.355   0.455
41373W        W13688   1.926   7.107   2.235
41374W        W13689  33.024  12.397  10.515
41375W        W13690  24.159  44.463   0.935
41376W        W13691  30.493  22.165  10.779
41377W        W13692  38.484  16.365  12.105
41378W        W13693  26.679   7.438   1.383
41379W        W13694  13.663   9.699   0.741
41380W        W13695   4.301  33.952   2.365
41381W        W13696  24.934  12.113  12.061
41382W        W13697   0.244  42.371  14.181
41383W        W13698  44.879  38.848   2.892
41384W        W13699  31.577  15.370   1.745
41385W        W13700  36.099  44.277   0.822
41386W        W13701  33.036   3.973  14.698
41387W        W13702  10.131  26.483  11.920
41388W        W13703  17.148  30.876  11.319
41389W        W13704  32.061   6.291  11.617
41390W        W13705  19.449   6.854   4.094
41391W        W13706  33.379   0.743  12.776
41392W        W13707  44.686  39.434   1.248
41393W        W13708  19.449   8.693  13.416
41394W        W13709  30.683  16.645  13.005
41395W        W13710   9.687  44.685   1.371
41396W        W13711  17.630  26.307  14.455
41397W        W13712  42.010  40.896   1.681
41398W        W13713  34.065  21.177   1.263
41399W        W13714  42.996  12.894   0.723
41400W        W13715  43.842  14.579  12.902
41401W        W13716  20.537  37.563  13.450
41402W        W13717  18.394  15.834   3.766
41403W        W13718  41.842  25.265   0.909
41404W        W13719   8.772  36.068   4.597
41405W        W13720  12.466  38.909  10.665
41406W        W13721  28.172  15.559   1.380
41407W        W13722  42.788  22.316   2.875
41408W        W13723  17.105  39.058  13.980
41409W        W13724  39.474  36.965   0.851
41410W        W13725  33.100  44.195  13.707
41411W        W13726  30.012   5.408   1.308
41412W        W13727  30.933  20.857   1.560
41413W        W13728   8.624   0.704   2.923
41414W        W13729   0.232  33.403   1.312
41415W        W13730  29.571   0.748  10.981
41416W        W13731  12.404  38.615  12.686
41417W        W13732  15.564  24.193  11.687
41418W        W13733   3.212  12.884   0.824
41419W        W13734   0.736  33.914  12.516
41420W        W13735  41.229  38.423  13.106
41421W        W13736  44.615  29.391  12.034
41422W        W13737  37.100  38.456  12.125
41423W        W13738  34.897  10.308  11.994
41424W        W13739  12.800  32.158   2.865
41425W        W13740   2.464  13.076  12.191
41426W        W13741   1.515  27.567  14.552
41427W        W13742  27.644  23.043  14.264
41428W        W13743  12.891  27.201  11.953
41429W        W13744  28.492  22.451   4.812
41430W        W13745  36.299  25.328  13.539
41431W        W13746  34.649  33.385  10.971
41432W        W13747  26.417  11.385   1.148
41433W        W13748   0.926  14.759   2.886
41434W        W13749  14.183  36.521   4.110
41435W        W13750  17.395  43.514  12.793
41436W        W13751  10.498  20.150   2.179
41437W        W13752  40.314   7.800   4.659
41438W        W13753  12.275  30.235   1.266
41439W        W13754  27.492  32.375  14.522
41440W        W13755  21.976  20.406   9.681
41441W        W13756  11.371   8.368  11.685
41442W        W13757  15.116  39.533   3.555
41443W        W13758  15.393  14.089  13.084
41444W        W13759  12.747  40.869  14.763
41445W        W13760   4.967   0.061   4.028
41446W        W13761  40.450  39.975  13.092
41447W        W13762   5.626   6.732  14.868
41448W        W13763  44.961  22.792   3.364
41449W        W13764  27.194  27.731   4.057
41450W        W13765  39.794  14.721  13.254
41451W        W13766  44.700   9.815   1.305
41452W        W13767   4.549   1.656  13.320
41453W        W13768  13.438  34.396  14.972
41454W        W13769  17.728   0.132   1.657
41455W        W13770  31.951  13.409  11.623
41456W        W13771  35.824  27.183  12.488
41457W        W13772  13.574  11.649   2.687
41458W        W13773  30.235  34.849  14.386
41459W        W13774  10.183  32.018   0.372
41460W        W13775  32.679   6.000  11.101
41461W        W13776  10.876  19.509   1.729
41462W        W13777  13.276  32.379   2.818
41463W        W13778  15.028  21.264  12.976
41464W        W13779  30.146  16.308  11.654
41465W        W13780  11.114  22.980  10.490
41466W        W13781  36.920  19.206   2.378
41467W        W13782  40.355  43.082  11.044
41468W        W13783  16.875   5.225  13.357
41469W        W13784  16.871   3.400   4.101
41470W        W13785  11.931   4.100  11.579
41471W        W13786   3.015  30.800  14.842
41472W        W13787  43.481  25.542  11.399
41473W        W13788  24.274  34.911  11.876
41474W        W13789  26.989  27.006  12.014
41475W        W13790   9.875  39.739   1.692
41476W        W13791  42.057   1.946  13.420
41477W        W13792   3.848   9.608  12.521
41478W        W13793  23.079  21.813   4.178
41479W        W13794  33.105   8.230   3.728
41480W        W13795  31.603  35.524  11.868
41481W        W13796  23.123  16.330  12.919
41482W        W13797  30.348  41.609   3.261
41483W        W13798   3.904  10.181  10.735
41484W        W13799  24.758  19.357   9.592
41485W        W13800  42.923   7.004   2.633
41486W        W13801  27.283  39.344  14.319
41487W        W13802   1.406  13.085   1.257
41488W        W13803  44.322  34.331  11.906
41489W        W13804  18.769  31.850  12.525
41490W        W13805  38.350  43.829  13.935
41491W        W13806  35.458   1.643   3.292
41492W        W13807  11.114   4.374   2.789
41493W        W13808   0.979  36.231   1.297
41494W        W13809  43.905  40.020   4.249
41495W        W13810  35.476  43.483  14.282
41496W        W13811  27.726  36.281   1.226
41497W        W13812  30.333  25.981   2.423
41498W        W13813  41.057  35.573   3.683
41499W        W13814  14.138  27.490   1.687
41500W        W13815   2.518  18.832   3.712
41501W        W13816  41.782  32.644   4.222
41502W        W13817   1.911   9.386  11.638
41503W        W13818  28.621  31.886   4.263
41504W        W13819  14.791   4.342   1.834
41505W        W13820  17.093  12.979  11.957
41506W        W13821  41.441  35.736   0.500
41507W        W13822  27.019  26.858   2.806
41508W        W13823  12.706  31.053  14.990
41509W        W13824  28.903  19.723   1.669
41510W        W13825  17.647  23.672   0.212
41511W        W13826  36.200   3.717  13.425
41512W        W13827   5.489  13.579   4.247
41513W        W13828  40.442   6.351   0.242
41514W        W13829  10.386  18.653  12.576
41515W        W13830   1.845  24.737   0.616
41516W        W13831  33.634   5.735   4.686
41517W        W13832  21.656   0.683  14.494
41518W        W13833  11.097  32.795  10.969
41519W        W13834   6.816   1.036  11.133
41520W        W13835   9.405  29.820  11.088
41521W        W13836  30.938  44.267  12.469
41522W        W13837  43.947   3.168  12.946
41523W        W13838  32.295  14.682  14.766
41524W        W13839  40.024  15.023   2.831
41525W        W13840  29.808  32.915  11.581
41526W        W13841   4.503   5.991  10.971
41527W        W13842  11.329  34.323  13.996
41528W        W13843   7.246  18.102   0.670
41529W        W13844  32.497   9.142   2.686
41530W        W13845  29.049   6.066  10.204
41531W        W13846  10.337   8.970  13.343
41532W        W13847  34.650   1.952  10.726
41533W        W13848   4.728  27.321  14.351
41534W        W13849  19.255  35.351  14.942
41535W        W13850  15.151  42.353  14.868
41536W        W13851   3.371  26.055  12.308
41537W        W13852  43.785  34.366  11.289
41538W        W13853  42.975  21.478   2.654
41539W        W13854  12.289  17.119   2.765
41540W        W13855  16.722  22.121   1.242
41541W        W13856  40.775  44.082   1.822
41542W        W13857  11.780  39.324  12.147
41543W        W13858   1.266  14.173   2.335
41544W        W13859  12.812  10.636  13.500
41545W        W13860   1.360  17.959   3.694
41546W        W13861  14.599  36.406  12.477
41547W        W13862   0.307  10.815   0.710
41548W        W13863  43.718  42.501   4.322
41549W        W13864  16.573   0.765   1.754
41550W        W13865  36.233  18.205   0.685
41551W        W13866  33.258  11.801  10.083
41552W        W13867   6.625  20.397   0.177
41553W        W13868  38.908  33.375  10.410
41554W        W13869  44.493   4.852  10.910
41555W        W13870  11.711  29.556  14.396
41556W        W13871  43.872  20.994   1.774
41557W        W13872  41.531   1.780  14.732
41558W        W13873  21.798  29.186  13.559
41559W        W13874  34.379  36.999   4.205
41560W        W13875  31.896  40.533  14.700
41561W        W13876   2.204  14.642   3.250
41562W        W13877  35.534  44.428  14.897
41563W        W13878  19.391  39.960  13.395
41564W        W13879  44.441   0.249  12.607
41565W        W13880  26.949  40.834  13.467
41566W        W13881  18.692   9.595  13.223
41567W        W13882  32.129  12.318  11.923
41568W        W13883  15.670   2.724   3.713
41569W        W13884  42.521   8.342  14.241
41570W        W13885   8.327   4.591  14.763
41571W        W13886   0.858  13.867   2.196
41572W        W13887  15.027  35.412   1.286
41573W        W13888  35.478  38.690   1.868
41574W        W13889   3.336  20.057  13.771
41575W        W13890  24.249  41.107  12.345
41576W        W13891  37.505   8.807  13.800
41577W        W13892  31.036  28.346   1.030
41578W        W13893  12.891  19.029  12.556
41579W        W13894   3.798   2.172  11.064
41580W        W13895  24.000   7.190   4.084
41581W        W13896  26.750  35.963  11.099
41582W        W13897  29.586   9.338  10.875
41583W        W13898  36.500  40.944  11.043
41584W        W13899  30.838  14.600   4.236
41585W        W13900  12.584  43.524  12.789
41586W        W13901   1.950  33.548  12.188
41587W        W13902  15.555  29.992   4.186
41588W        W13903  35.864  24.217   2.761
41589W        W13904  25.491  19.716   2.448
41590W        W13905   7.653  38.108   3.718
41591W        W13906  38.473  25.216  12.352
41592W        W13907  11.624  17.549   3.348
41593W        W13908   7.159  26.109   1.644
41594W        W13909  25.658  28.617   1.620
41595W        W13910  17.220  23.083  12.729
41596W        W13911   4.253  35.206   1.408
41597W        W13912  18.261  39.108  13.040
41598W        W13913  23.511  32.495  13.908
41599W        W13914   6.164   4.753   1.512
41600W        W13915  10.014  37.774  14.329
41601W        W13916  34.027  40.635  14.963
41602W        W13917   6.506  14.645   0.503
41603W        W13918  37.826   0.834   4.592
41604W        W13919  19.738  35.143  13.887
41605W        W13920  38.626  29.975  13.901
41606W        W13921   3.574  33.563   0.831
41607W        W13922   2.472  21.700  13.285
41608W        W13923  41.943  22.972  13.361
41609W        W13924  38.436  14.803   4.080
41610W        W13925   3.224  22.654   1.799
41611W        W13926  37.628  12.671  11.040
41612W        W13927  40.055  35.899   3.726
41613W        W13928   3.739  32.479   0.819
41614W        W13929  37.011   3.702  11.214
41615W        W13930   5.492  24.575   4.639
41616W        W13931  41.778  37.795  14.710
41617W        W13932   9.057   1.879  14.001
41618W        W13933  19.500  14.823  10.637
41619W        W13934  41.129  24.199   3.605
41620W        W13935  39.975   6.852   1.422
41621W        W13936  37.906  17.829  10.732
41622W        W13937  39.035  23.228  14.969
41623W        W13938  31.176  23.185   0.968
41624W        W13939  18.069  42.859   2.157
41625W        W13940  29.121  34.013   1.860
41626W        W13941  37.878  27.935  11.953
41627W        W13942   2.024  22.592   2.303
41628W        W13943  13.586   3.491  10.877
41629W        W13944  28.544  30.877   4.184
41630W        W13945  23.546  16.217  14.476
41631W        W13946   1.554  10.263  13.444
41632W        W13947  15.151  43.351  11.994
41633W        W13948  20.811  21.528  12.523
41634W        W13949  25.682  39.244  11.046
41635W        W13950  41.290   0.486  12.868
41636W        W13951  25.090   4.718   4.141
41637W        W13952  18.070  33.431  11.967
41638W        W13953  15.890  24.163  10.850
41639W        W13954  25.989  28.785   3.368
41640W        W13955  34.329  22.467  10.994
41641W        W13956  37.578  29.557   0.453
41642W        W13957  33.910  22.887  11.049
41643W        W13958  30.598   8.647  13.906
41644W        W13959  17.798  26.532  11.359
41645W        W13960   1.727   8.782   2.730
41646W        W13961   4.762  42.015   0.446
41647W        W13962  39.439  12.163   2.215
41648W        W13963  26.364  33.583  11.184
41649W        W13964  22.850  36.739   2.773
41650W        W13965  24.781  15.544  11.681
41651W        W13966  24.249  34.210   2.844
41652W        W13967  39.576   6.874   3.766
41653W        W13968  27.729  23.609   0.828
41654W        W13969  26.752  13.044  12.997
41655W        W13970   7.895  30.990  13.819
41656W        W13971  24.030  13.250  14.865
41657W        W13972  18.623   8.882   4.604
41658W        W13973  29.933  25.109  11.507
41659W        W13974   1.246  24.010   1.230
41660W        W13975  15.094  35.921  14.054
41661W        W13976  40.807   8.931   2.832
41662W        W13977  28.230  33.546  12.926
41663W        W13978  41.849  43.709  12.935
41664W        W13979   5.085  24.469  13.905
41665W        W13980  32.920   9.431  11.997
41666W        W13981   9.489  36.351  14.547
41667W        W13982   6.724  17.845  14.394
41668W        W13983  37.545  21.738   2.874
41669W        W13984  15.310  19.641  13.641
41670W        W13985  42.459  23.399  11.794
41671W        W13986  18.265  22.234  13.393
41672W        W13987  23.139  37.080  12.885
41673W        W13988   0.277   3.882  14.721
41674W        W13989  37.094  44.337   2.261
41675W        W13990  36.464  20.975  10.325
41676W        W13991   5.439   0.255   4.040
41677W        W13992  33.849  35.605   2.869
41678W        W13993  37.451  39.377   0.730
41679W        W13994  43.012   0.880   1.791
41680W        W13995  21.491  11.605  13.963
41681W        W13996   4.373  42.736   0.921
41682W        W13997  23.271  28.427  11.603
41683W        W13998  25.422  44.599  11.059
41684W        W13999  18.486  13.043   3.241
41685W        W14000  39.050  36.011  12.021
41686W        W14001   3.198  26.452  10.659
41687W        W14002  25.199   5.922   3.085
41688W        W14003  13.109  27.094   3.148
41689W        W14004  33.281  33.902  14.505
41690W        W14005  41.751   8.331   4.588
41691W        W14006  29.394   1.287  12.093
41692W        W14007   9.168   0.250   3.600
41693W        W14008  28.917  24.575  10.602
41694W        W14009  34.101  19.010   4.495
41695W        W14010  30.634  20.527   3.711
41696W        W14011  42.494  44.144   0.431
41697W        W14012  34.511  27.899   0.496
41698W        W14013  15.029  17.703  13.412
41699W        W14014  39.435  42.802   1.646
41700W        W14015  27.724  34.567  11.978
41701W        W14016  41.193  38.703  11.727
41702W        W14017  14.747  42.376   4.508
41703W        W14018   3.248  24.424  10.685
41704W        W14019  10.819   7.925   0.651
41705W        W14020   8.901  26.906   4.816
41706W        W14021  44.285  41.318  12.097
41707W        W14022  38.796  41.004  14.634
41708W        W14023  37.921  39.952  12.802
41709W        W14024  34.337  24.211   2.917
41710W        W14025  30.918   0.503   1.925
41711W        W14026  42.059   8.064  13.324
41712W        W14027  27.147  30.387  11.116
41713W        W14028   2.321   2.261   2.319
41714W        W14029   0.215  13.617  13.376
41715W        W14030   2.289  43.837  11.869
41716W        W14031  22.167  27.949   1.011
41717W        W14032  12.011  32.033   0.884
41718W        W14033   6.601  44.422   2.426
41719W        W14034  34.519  44.378   0.335
41720W        W14035  37.629  32.311  11.697
41721W        W14036  30.792  41.601  10.253
41722W        W14037   3.208   8.645  13.952
41723W        W14038  26.081  32.932   2.906
41724W        W14039  43.212   5.994  13.413
41725W        W14040  11.180   8.776  11.956
41726W        W14041   2.224  34.195  13.503
41727W        W14042  34.543  33.572   4.433
41728W        W14043  38.504  24.659   0.857
41729W        W14044  21.281  11.117   3.196
41730W        W14045  27.938  11.401  12.116
41731W        W14046   0.923  35.269  12.509
41732W        W14047  10.403   6.478   3.170
41733W        W14048  42.710  35.529   0.242
41734W        W14049   5.118  21.512  11.611
41735W        W14050   4.410  32.514   4.875
41736W        W14051   2.063  10.356  13.526
41737W        W14052  19.066  30.690  14.432
41738W        W14053  42.075  33.802  14.268
41739W        W14054  12.816  26.713   4.167
41740W        W14055  24.524  36.971   0.352
41741W        W14056  16.179  30.842   0.003
41742W        W14057  27.803  33.209   0.486
41743W        W14058  28.628  22.560   0.032
41744W        W14059   4.382  19.432   4.186
41745W        W14060   7.987  18.711   4.994
41746W        W14061  38.911  20.335   2.483
41747W        W14062   4.506   0.943   0.390
41748W        W14063  13.504  16.307   4.321
41749W        W14064  33.431   8.115   3.333
41750W        W14065  41.449  35.649  10.983
41751W        W14066  43.748   8.168   2.784
41752W        W14067   9.349  29.145   4.792
41753W        W14068  19.805  10.668  11.992
41754W        W14069   1.933  33.936  11.868
41755W        W14070  10.812  35.482   4.223
41756W        W14071  24.727  24.101   2.342
41757W        W14072   4.188  40.010   4.511
41758W        W14073   3.844  23.593   3.204
41759W        W14074  27.707  39.508   2.309
41760W        W14075  44.845  10.288  13.608
41761W        W14076   1.685  36.712   5.158
41762W        W14077  20.813  40.552  14.277
41763W        W14078  42.033  19.264   4.119
41764W        W14079  29.020  11.786   2.818
41765W        W14080  43.884  30.107   1.673
41766W        W14081  22.562  41.687   2.335
41767W        W14082  44.522   9.876  11.652
41768W        W14083  27.822   7.633  11.367
41769W        W14084  14.703  25.483  10.663
41770W        W14085  31.548  30.832  11.095
41771W        W14086  10.066  42.759   3.716
41772W        W14087  44.379   9.415   3.150
41773W        W14088  19.897   6.715   2.580
41774W        W14089  41.847  24.752  13.324
41775W        W14090  12.646   0.867  11.156
41776W        W14091   7.369  26.155   3.184
41777W        W14092  23.721  21.343  10.317
41778W        W14093  18.669   0.304  12.902
41779W        W14094  13.846  10.375  11.724
41780W        W14095  33.705  20.087   1.232
41781W        W14096  11.762  32.684  13.544
41782W        W14097  36.605   8.123   1.713
41783W        W14098  32.807   9.805  12.839
41784W        W14099   9.657  21.475  11.041
41785W        W14100  39.859   8.210  14.887
41786W        W14101  17.861  31.194   1.756
41787W        W14102   6.077   8.691  12.541
41788W        W14103   5.091  28.151  14.784
41789W        W14104  13.164  36.114   0.459
41790W        W14105  35.781   4.955   9.939
41791W        W14106  37.546   1.468  13.834
41792W        W14107   7.221   9.191  11.601
41793W        W14108   1.982   2.822  10.944
41794W        W14109  10.603  31.907   4.089
41795W        W14110  21.518  43.984  13.789
41796W        W14111  25.116  19.338   4.030
41797W        W14112  39.945   1.017   0.518
41798W        W14113  34.859  35.058   0.665
41799W        W14114  36.891  27.775  11.918
41800W        W14115  26.617  25.286  14.070
41801W        W14116  13.127  30.044   2.223
41802W        W14117  17.128   3.432   3.653
41803W        W14118  24.447   0.432   0.754
41804W        W14119  21.570  28.226   2.238
41805W        W14120  29.788  42.066   2.607
41806W        W14121  36.605  42.610  11.680
41807W        W14122  23.268  41.888  13.751
41808W        W14123  36.965  36.280   1.318
41809W        W14124  14.374   1.857  10.579
41810W        W14125  27.974  34.327  10.970
41811W        W14126  38.463  24.392  12.003
41812W        W14127  29.036   5.266   0.377
41813W        W14128  43.247   6.659   1.420
41814W        W14129  18.078  38.973   0.377
41815W        W14130  16.551  29.018  12.980
41816W        W14131   3.804  44.516   1.806
41817W        W14132  24.060  12.667   0.976
41818W        W14133  27.246   2.018   4.989
41819W        W14134   8.399  41.439  10.689
41820W        W14135  10.775  42.082   4.644
41821W        W14136   8.262   2.343   2.208
41822W        W14137  11.344  22.882   3.988
41823W        W14138   2.356   3.719   1.757
41824W        W14139  36.816   0.388   3.665
41825W        W14140   4.314  42.016   2.929
41826W        W14141  28.211  34.024   2.262
41827W        W14142  44.315   2.381   4.374
41828W        W14143  32.555  37.307  11.162
41829W        W14144  37.688  12.275   2.760
41830W        W14145  22.509  25.084   2.682
41831W        W14146  41.692  42.643  11.563
41832W        W14147   3.279   1.435   2.443
41833W        W14148  15.787  12.368   2.363
41834W        W14149  33.455  14.342   1.529
41835W        W14150   5.900   5.804   0.267
41836W        W14151  16.770  19.561   1.904
41837W        W14152  14.062  42.041  14.726
41838W        W14153  29.615   8.961  13.930
41839W        W14154   5.115  26.991   1.850
41840W        W14155  24.414  43.466  14.400
41841W        W14156  11.819  16.736   3.220
41842W        W14157  43.492   1.891  13.466
41843W        W14158  43.542   7.319   1.591
41844W        W14159  27.769  12.309   3.137
41845W        W14160   8.801  39.158   1.438
41846W        W14161   3.516  18.611  10.660
41847W        W14162   5.853  18.536   4.419
41848W        W14163   1.816  18.532  11.180
41849W        W14164  43.034  35.255  14.954
41850W        W14165  16.052   9.681   0.065
41851W        W14166  29.941   8.785  12.417
41852W        W14167  15.351   3.501  12.851
41853W        W14168  41.852   0.094  14.996
41854W        W14169  20.543  14.121  13.591
41855W        W14170  13.800  39.625  12.867
41856W        W14171  28.841  14.881  10.973
41857W        W14172  44.445  30.659  10.572
41858W        W14173  17.337   8.836  12.834
41859W        W14174  36.368  44.751   4.161
41860W        W14175  11.697  19.315  11.410
41861W        W14176  43.949  37.274  11.011
41862W        W14177  37.161  12.292  14.011
41863W        W14178  38.291  10.388   3.790
41864W        W14179   9.688  10.418  10.689
41865W        W14180  32.486  33.471   4.270
41866W        W14181   2.240  23.764  14.435
41867W        W14182   1.798  40.733  13.324
41868W        W14183  33.021  29.681   2.840
41869W        W14184  33.631  19.076   1.946
41870W        W14185  38.565   9.579   0.339
41871W        W14186  23.077   7.276  11.122
41872W        W14187  39.176  32.127  11.196
41873W        W14188  40.076  16.648   1.295
41874W        W14189  11.698  30.693  12.410
41875W        W14190  44.407  30.690   4.158
41876W        W14191  32.542  41.915   3.256
41877W        W14192  38.599  37.005   3.881
41878W        W14193  26.133   0.421   3.357
41879W        W14194  16.048  17.777   1.317
41880W        W14195  39.012  33.797  12.935
41881W        W14196  22.310  16.593  13.059
41882W        W14197  21.108   9.415  12.532
41883W        W14198  20.617  34.926  10.652
41884W        W14199  40.531  29.464  13.064
41885W        W14200   0.101  26.493  13.464
41886W        W14201  19.019  35.929  11.523
41887W        W14202  41.378  36.650  10.661
41888W        W14203   3.743  12.274   2.174
41889W        W14204  34.848  23.172   4.376
41890W        W14205  13.957   6.333   0.345
41891W        W14206  42.238  12.691   4.586
41892W        W14207  16.206  15.716  12.162
41893W        W14208   7.962   4.393  14.005
41894W        W14209  37.390  32.966   3.083
41895W        W14210  17.393   2.550   4.142
41896W        W14211  24.617  15.099   4.730
41897W        W14212  43.545  39.532  11.136
41898W        W14213   4.808  25.444   1.688
41899W        W14214  29.729  36.259   2.664
41900W        W14215  35.655  41.541   0.851
41901W        W14216  30.938   8.709   3.752
41902W        W14217  39.785  16.681   3.660
41903W        W14218  19.990  40.344   4.212
41904W        W14219  18.891  17.039  13.524
41905W        W14220  23.192  31.798  12.027
41906W        W14221  12.267   3.906   2.084
41907W        W14222  40.088  36.934   1.075
41908W        W14223  27.544  29.083  12.293
41909W        W14224   8.451  40.017  12.019
41910W        W14225   7.020  12.916  11.683
41911W        W14226  28.028  37.845   3.383
41912W        W14227  41.536  14.403  10.716
41913W        W14228  19.570  13.157   2.699
41914W        W14229  13.585   4.307  12.945
41915W        W14230  23.006   9.204   2.169
41916W        W14231  11.248  44.520  12.100
41917W        W14232  17.723  27.866   4.164
41918W        W14233   1.860   7.576   1.288
41919W        W14234  44.355  25.562  13.891
41920W        W14235  38.626  42.198   0.980
41921W        W14236   2.363   8.885   5.015
41922W        W14237  41.561  43.757  13.388
41923W        W14238  13.251   6.451   4.936
41924W        W14239  29.926  41.444   0.948
41925W        W14240   5.863   3.164   3.998
41926W        W14241  30.894  35.476  14.198
41927W        W14242  13.066  30.475   0.381
41928W        W14243  26.899  21.353   3.116
41929W        W14244  39.023   6.807   1.406
41930W        W14245  26.032  17.763  13.073
41931W        W14246  36.727  17.262  13.057
41932W        W14247  31.003   0.873   4.743
41933W        W14248  17.610  35.655  14.758
41934W        W14249  21.681  16.677   2.374
41935W        W14250  33.825  22.250   1.355
41936W        W14251  29.228  11.259   0.709
41937W        W14252  29.086   6.600   0.166
41938W        W14253  38.358   3.523   0.302
41939W        W14254  11.653  35.955   4.190
41940W        W14255  44.667  20.054   2.251
41941W        W14256  16.136   3.312   1.649
41942W        W14257   6.443  19.522   2.418
41943W        W14258  38.395  26.362  14.257
41944W        W14259  34.349  23.446   3.583
41945W        W14260  36.980   6.437   3.738
41946W        W14261  44.281  35.662   2.179
41947W        W14262  40.276  41.585  14.088
41948W        W14263  25.173  36.198   2.372
41949W        W14264  40.931  21.482  10.837
41950W        W14265  16.382  37.249  14.071
41951W        W14266  43.425  21.524   2.927
41952W        W14267   5.841   5.902   0.768
41953W        W14268  36.931  24.583  11.184
41954W        W14269  23.945  15.863  13.294
41955W        W14270   3.543  32.212  12.360
41956W        W14271   6.117  29.474   4.791
41957W        W14272  26.892  44.861  10.944
41958W        W14273  11.661  28.968   2.248
41959W        W14274  17.834  27.584   5.178
41960W        W14275  42.987  32.513   1.865
41961W        W14276  18.732  26.534   4.441
41962W        W14277   8.178   0.071   3.735
41963W        W14278  41.539   0.395  13.828
41964W        W14279   4.894  35.695   0.741
41965W        W14280   1.471  24.834   2.242
41966W        W14281  43.420  30.160   1.429
41967W        W14282  23.249  17.722  11.591
41968W        W14283  19.237   3.377  13.613
41969W        W14284  22.459  30.691  11.142
41970W        W14285  41.535  33.181  10.507
41971W        W14286  24.223   2.333   3.778
41972W        W14287  43.947  26.928  11.391
41973W        W14288  38.095  36.344   2.670
41974W        W14289  17.153   9.331   3.607
41975W        W14290  40.744   4.410   0.318
41976W        W14291  31.072  36.410   2.228
41977W        W14292  23.378  10.457  11.951
41978W        W14293  26.102  22.710  13.454
41979W        W14294  32.662  33.884  13.301
41980W        W14295  10.918  16.074  11.054
41981W        W14296   6.732   2.685   0.952
41982W        W14297   6.404   1.887   3.188
41983W        W14298  25.159  13.219   1.602
41984W        W14299  17.173  30.173   1.457
41985W        W14300  15.368  20.321  12.791
41986W        W14301  14.629  39.343   1.405
41987W        W14302  17.736  17.345  13.419
41988W        W14303  39.408  23.209  13.049
41989W        W14304  18.203  22.474  12.236
41990W        W14305   3.746  24.538  10.617
41991W        W14306  21.081  36.214   1.714
41992W        W14307  40.906  25.719   9.799
41993W        W14308  43.033  43.963   3.109
41994W        W14309  22.601  27.883   1.658
41995W        W14310  27.733   4.238  12.383
41996W        W14311  13.148  39.105   4.109
41997W        W14312  17.435  37.884   0.324
41998W        W14313  20.296  34.415   2.746
41999W        W14314  25.482  43.592  14.553
42000W        W14315  21.299  29.199   2.823
42001W        W14316  42.952  16.023   2.953
42002W        W14317  28.950  36.527   1.986
42003W        W14318  24.067  18.766   2.035
42004W        W14319   6.778   4.369   4.649
42005W        W14320   2.880  27.695   4.802
42006W        W14321   9.250  39.962   2.279
42007W        W14322  24.184  30.595   2.824
42008W        W14323  31.012  28.743  14.767
42009W        W14324  25.232  25.376  10.641
42010W        W14325  27.859  29.947  12.655
42011W        W14326   2.165  32.959   1.834
42012W        W14327  21.716  27.975   0.259
42013W        W14328  14.793  37.704   2.219
42014W        W14329  14.297  27.796  12.888
42015W        W14330   8.228  13.216   3.359
42016W        W14331   8.351  22.210   3.943
42017W        W14332  35.079  10.467   5.056
42018W        W14333  23.118  27.779   4.592
42019W        W14334  32.036  22.954  13.838
42020W        W14335  34.914   2.577   2.124
42021W        W14336  10.117  16.836   5.547
42022W        W14337  44.698  31.316  10.657
42023W        W14338  26.018  12.103  10.998
42024W        W14339  28.959  29.755  13.933
42025W        W14340  28.040  33.801   1.833
42026W        W14341  21.672  11.442  12.665
42027W        W14342  37.426  23.732   0.812
42028W        W14343   2.829  22.626   0.673
42029W        W14344  13.331  39.958   2.312
42030W        W14345  19.531  19.634  14.430
42031W        W14346  38.851  27.167   4.190
42032W        W14347  28.320  44.503  10.982
42033W        W14348  29.289   2.269  12.059
42034W        W14349  21.383  30.849  12.370
42035W        W14350  32.972   8.806   2.703
42036W        W14351   7.266  29.677   4.579
42037W        W14352  32.154  42.111  11.972
42038W        W14353  31.115  19.980   0.798
42039W        W14354   1.173   3.400  14.782
42040W        W14355  27.128  29.720   2.169
42041W        W14356   5.208   1.998  11.565
42042W        W14357  38.800  39.109  13.870
42043W        W14358  42.019   5.121   1.725
42044W        W14359   7.974  40.664   4.120
42045W        W14360  33.085   4.832  13.703
42046W        W14361  10.884  42.366  14.318
42047W        W14362   2.897  38.367   2.220
42048W        W14363   8.439  14.514  14.022
42049W        W14364  38.503  28.558   0.970
42050W        W14365  33.411   0.491  10.665
42051W        W14366  44.933  24.232   2.259
42052W        W14367  13.070  12.598  11.037
42053W        W14368  35.644  36.619   4.644
42054W        W14369  35.133  22.658  10.763
42055W        W14370  12.433  32.266   4.267
42056W        W14371  39.262  18.243   3.186
42057W        W14372  25.831  14.805  13.578
42058W        W14373  25.957  23.788  13.302
42059W        W14374   2.986   3.120  11.117
42060W        W14375  22.261  27.497  14.541
42061W        W14376  42.068   5.732   0.839
42062W        W14377  34.423  38.134   0.099
42063W        W14378  43.332   6.312   2.271
42064W        W14379   3.911  39.282  11.420
42065W        W14380  22.677  39.388  14.269
42066W        W14381   4.519  35.029  13.102
42067W        W14382  41.310   2.415  11.158
42068W        W14383  11.316  27.622   0.509
42069W        W14384  40.970  22.500  10.664
42070W        W14385  10.166  31.636   2.358
42071W        W14386  10.311  11.860   3.341
42072W        W14387  35.089   9.427  14.910
42073W        W14388   7.420  36.038   4.365
42074W        W14389  44.573  15.654  12.537
42075W        W14390  12.725  31.210  14.496
42076W        W14391  35.662  31.985   3.087
42077W        W14392  29.368  43.803  14.581
42078W        W14393  36.104  28.041   2.393
42079W        W14394  33.086  25.128  12.701
42080W        W14395  27.959   0.456   0.369
42081W        W14396   8.712  15.533  13.488
42082W        W14397  21.963  21.982  11.949
42083W        W14398  32.481  17.136  13.190
42084W        W14399  24.093  13.781  11.665
42085W        W14400  40.346  32.322   0.421
42086W        W14401  12.758  36.084   1.404
42087W        W14402  44.320  22.704  12.534
42088W        W14403  28.206   0.605  14.946
42089W        W14404  25.097   4.942   2.285
42090W        W14405  37.844  32.590  10.755
42091W        W14406  20.795   0.202  12.954
42092W        W14407  26.250  10.327  10.104
42093W        W14408   5.267   9.083  11.832
42094W        W14409  39.862  10.335  12.685
42095W        W14410  26.115  12.818  11.659
42096W        W14411  26.861  27.369  10.243
42097W        W14412   3.689  27.684   2.386
42098W        W14413  23.984   6.801   4.419
42099W        W14414  13.345   6.859  13.859
42100W        W14415  34.574   3.013  10.577
42101W        W14416  31.721  10.792  13.516
42102W        W14417  30.304  31.475   3.523
42103W        W14418  36.308   7.718  13.315
42104W        W14419  39.452   2.302   3.834
42105W        W14420  35.153   1.954  12.097
42106W        W14421  35.744  12.264   0.094
42107W        W14422  22.726  32.495   2.701
42108W        W14423  17.554  34.200  13.423
42109W        W14424  39.679   9.678   2.757
42110W        W14425  39.332  28.105  14.504
42111W        W14426  10.632  19.144  12.007
42112W        W14427  34.022  17.773   2.190
42113W        W14428  40.855  17.539  14.075
42114W        W14429  32.147  26.097  13.846
42115W        W14430  43.374  21.806   3.354
42116W        W14431  32.360  25.004   1.701
42117W        W14432   3.708   8.757   1.796
42118W        W14433  19.719  30.236  11.510
42119W        W14434   0.587  12.595   5.066
42120W        W14435  12.523  41.913  10.780
42121W        W14436   8.925  27.484   2.615
42122W        W14437   4.251  28.111  12.523
42123W        W14438  11.874  37.342  12.435
42124W        W14439  44.968  34.070  11.535
42125W        W14440  28.110  37.110   4.797
42126W        W14441  42.872  31.495   0.965
42127W        W14442  26.908  23.619   0.794
42128W        W14443   7.440  36.431   3.562
42129W        W14444  19.558  37.043  13.910
42130W        W14445  28.040   5.225   4.533
42131W        W14446   4.625  38.058   4.101
42132W        W14447   8.190  38.518   4.444
42133W        W14448  24.923  11.223  12.656
42134W        W14449  38.579  31.614   5.005
42135W        W14450  18.724  39.858  12.037
42136W        W14451  36.568   4.252  11.600
42137W        W14452  20.900  18.216   2.410
42138W        W14453  25.654  24.979   1.991
42139W        W14454  43.829  38.557  10.963
42140W        W14455  13.714  19.605  10.579
42141W        W14456  16.307  33.865  11.849
42142W        W14457  19.681   9.633   0.598
42143W        W14458   1.512  38.784  11.115
42144W        W14459  44.740  14.885   0.079
42145W        W14460  39.534  26.820   4.857
42146W        W14461  13.303  28.801   3.496
42147W        W14462   0.706  18.171  10.662
42148W        W14463  22.806  24.093  13.378
42149W        W14464  24.661  18.939  14.255
42150W        W14465  34.118  35.071  11.678
42151W        W14466  40.814  11.630   2.602
42152W        W14467  27.158  19.080  12.514
42153W        W14468  13.308  35.863  13.091
42154W        W14469  31.172  18.604  11.821
42155W        W14470  28.443   2.886  12.014
42156W        W14471  15.887  11.391  12.759
42157W        W14472   8.210  33.124   3.247
42158W        W14473  42.078  27.473  11.251
42159W        W14474  38.071   7.318   0.818
42160W        W14475  17.146  28.888   3.178
42161W        W14476  32.303  40.595  13.521
42162W        W14477  17.734  12.809  12.052
42163W        W14478   3.358  42.316  11.146
42164W        W14479  18.281  34.936   0.352
42165W        W14480  27.590  29.558  13.121
42166W        W14481  35.925  43.066   5.067
42167W        W14482   0.945  10.414   3.635
42168W        W14483  33.010  34.419   4.146
42169W        W14484  43.602   0.574   3.316
42170W        W14485  24.555  21.296   5.088
42171W        W14486   4.576  10.827   0.295
42172W        W14487   8.932  31.988   2.226
42173W        W14488  35.578  29.223   1.403
42174W        W14489   4.420  40.304  11.931
42175W        W14490  13.161  21.114   3.279
42176W        W14491  36.491  28.500  13.484
42177W        W14492  17.695  35.333  10.600
42178W        W14493  24.508  24.245  11.403
42179W        W14494   6.804   6.880  12.864
42180W        W14495  29.390   3.698   0.748
42181W        W14496  28.630   0.542   3.547
42182W        W14497  21.770  37.594   0.990
42183W        W14498  26.061  10.902  14.498
42184W        W14499  25.102  37.622  12.754
42185W        W14500  19.604  40.986   3.878
42186W        W14501   3.218   1.138   3.329
42187W        W14502  40.489  31.883   2.854
42188W        W14503  41.559  15.224  11.480
42189W        W14504   3.515  42.879   3.813
42190W        W14505   9.193  35.584  11.687
42191W        W14506  12.922  38.510  13.412
42192W        W14507   7.966  44.826   1.765
42193W        W14508  18.611  37.108   3.711
42194W        W14509  19.357  10.766  13.020
42195W        W14510  31.592  14.656  10.674
42196W        W14511   6.218  37.246   3.997
42197W        W14512  11.677   5.806   3.296
42198W        W14513   4.857  28.237   1.446
42199W        W14514  36.079   2.412   3.190
42200W        W14515   9.702  36.066  13.282
42201W        W14516   1.232   4.122   3.210
42202W        W14517  28.548   4.151   4.379
42203W        W14518   0.190  42.836   0.365
42204W        W14519  22.727   3.922   1.838
42205W        W14520  18.745  29.604  11.991
42206W        W14521  40.636   4.268  13.918
42207W        W14522  24.021  37.416  13.741
42208W        W14523  14.177  16.870   3.564
42209W        W14524  15.183   9.608  14.868
42210W        W14525   4.422  21.642  14.723
42211W        W14526  39.248  28.939   3.442
42212W        W14527   3.721  39.924  14.525
42213W        W14528  37.292   5.242  11.500
42214W        W14529  27.400  34.191  12.132
42215W        W14530  32.241  35.808   3.762
42216W        W14531  42.594  28.736  14.024
42217W        W14532   2.507   2.955  11.018
42218W        W14533  32.137  20.768  12.000
42219W        W14534   5.835   8.156   4.293
42220W        W14535  15.679   5.642   0.350
42221W        W14536  29.666  21.500   0.432
42222W        W14537  30.748  40.782  10.684
42223W        W14538  15.395  17.133  11.281
42224W        W14539   1.529  19.748  13.946
42225W        W14540   1.970  40.340   0.315
42226W        W14541  41.415   1.248   0.940
42227W        W14542  14.623   7.889  11.754
42228W        W14543  37.223  23.589  13.568
42229W        W14544   3.502   5.486  14.763
42230W        W14545  36.121   8.287  14.437
42231W        W14546   9.957  28.600  11.499
42232W        W14547  16.198   8.264   0.464
42233W        W14548   6.650  33.230  10.264
42234W        W14549  16.019  19.231  13.973
42235W        W14550  40.352   8.960  14.331
42236W        W14551   8.883  21.060   4.927
42237W        W14552  25.735  10.716  12.488
42238W        W14553  43.042  31.108   4.943
42239W        W14554  34.425  10.814   3.267
42240W        W14555  26.717  35.302  10.518
42241W        W14556  15.879  35.359   1.177
42242W        W14557  20.764   5.007   0.231
42243W        W14558  12.637  44.763   1.814
42244W        W14559  30.534  39.360  14.015
42245W        W14560  27.262  18.661  13.369
42246W        W14561   7.329   4.681   0.455
42247W        W14562  10.374  13.586  12.526
42248W        W14563  35.555   0.766   0.628
42249W        W14564  37.446  27.958   1.952
42250W        W14565  27.091  19.098   2.955
42251W        W14566  39.278  17.296  11.093
42252W        W14567  22.979  20.091  14.521
42253W        W14568  22.575  10.472   4.577
42254W        W14569  19.511  30.291   3.871
42255W        W14570  38.313  15.639  12.561
42256W        W14571  16.061  17.032  11.479
42257W        W14572  22.271  31.833   2.118
42258W        W14573   7.393  15.193  11.014
42259W        W14574  25.545   4.257   0.933
42260W        W14575   9.404  19.570  13.088
42261W        W14576  22.749  24.895  12.182
42262W        W14577  12.866  18.536  12.442
42263W        W14578  30.481  26.282  12.536
42264W        W14579  44.679  37.885   0.008
42265W        W14580  32.030  35.695  13.105
42266W        W14581   8.482  11.140   2.262
42267W        W14582  21.240  31.171   4.196
42268W        W14583  25.389  10.213  14.308
42269W        W14584   9.885  19.647   1.884
42270W        W14585   8.746  41.572   1.886
42271W        W14586  34.301  30.551   2.729
42272W        W14587  17.099   7.663   1.157
42273W        W14588  34.532  15.707  14.316
42274W        W14589  28.498  26.378   1.016
42275W        W14590  14.685  30.775   4.176
42276W        W14591  27.434  29.107  10.394
42277W        W14592  26.976  24.646  14.530
42278W        W14593  26.684  21.535  10.648
42279W        W14594  17.814  32.919  11.114
42280W        W14595  12.576  33.306  11.499
42281W        W14596  27.470  32.606   2.005
42282W        W14597  16.803  33.838  11.145
42283W        W14598   1.210  44.944   2.968
42284W        W14599   3.157  36.814   1.064
42285W        W14600  19.071  14.387  12.311
42286W        W14601  44.771  41.016  12.420
42287W        W14602  42.790  34.160   1.058
42288W        W14603  17.099  18.901   3.876
42289W        W14604  33.040  11.614  13.981
42290W        W14605  43.336  19.647  11.066
42291W        W14606  32.245  38.563  11.104
42292W        W14607  34.567   2.465  14.949
42293W        W14608  21.051  12.809  14.766
42294W        W14609  41.763  41.873  13.863
42295W        W14610  20.719   8.424   3.173
42296W        W14611  31.079  27.177  13.202
42297W        W14612  40.358  11.676   1.234
42298W        W14613  17.161  10.353   4.676
42299W        W14614  15.355  41.048   2.351
42300W        W14615   5.340  21.615   4.587
42301W        W14616   1.822   8.888  11.659
42302W        W14617  44.502   5.325   3.811
42303W        W14618  23.139  17.383  13.877
42304W        W14619  13.105  30.000   1.325
42305W        W14620   4.962  11.707   1.444
42306W        W14621  10.895  35.081  14.348
42307W        W14622  42.579  42.183  13.882
42308W        W14623  33.224  27.958   3.424
42309W        W14624  21.220  19.122  11.619
42310W        W14625  33.498  44.934  13.961
42311W        W14626  17.273   8.225   2.930
42312W        W14627  37.545   3.922  11.871
42313W        W14628   0.313   5.361   4.789
42314W        W14629  16.712  21.903  13.129
42315W        W14630  15.164  12.040   1.678
42316W        W14631  12.978  29.527  11.300
42317W        W14632  31.109  18.010  12.428
42318W        W14633  22.146  39.132  11.103
42319W        W14634  37.159  22.456   0.778
42320W        W14635  40.415  39.414   1.965
42321W        W14636  13.664   6.702  13.302
42322W        W14637  10.033   1.696  13.078
42323W        W14638  11.930   7.364   5.060
42324W        W14639  26.193  29.602   2.413
42325W        W14640   5.616  37.078   2.441
42326W        W14641  42.099  13.625  14.133
42327W        W14642  39.016  17.696   5.237
42328W        W14643   7.316  24.502   3.693
42329W        W14644  40.849  37.053   3.622
42330W        W14645  12.170  34.526   3.271
42331W        W14646  11.084  35.535   4.691
42332W        W14647   0.416   2.593   0.822
42333W        W14648  13.263  25.547   1.975
42334W        W14649  13.772   8.542   3.547
42335W        W14650  30.213  37.958  13.541
42336W        W14651  16.831  28.497  10.984
42337W        W14652  24.521   3.383   0.727
42338W        W14653  19.230  23.760   3.899
42339W        W14654  27.252  36.176   4.527
42340W        W14655  26.581  11.753  12.183
42341W        W14656  30.873  36.223   4.115
42342W        W14657  20.173   3.380   4.187
42343W        W14658  37.315  21.744  13.843
42344W        W14659  34.227  43.202  11.765
42345W        W14660   7.452   6.188  13.874
42346W        W14661  10.842  44.439   0.079
42347W        W14662  42.205  28.496   0.335
42348W        W14663   1.348  27.522   1.931
42349W        W14664   4.732  32.184   1.760
42350W        W14665  10.931  26.927  12.350
42351W        W14666  14.020  44.536   3.125
42352W        W14667  14.144  17.049  13.986
42353W        W14668   8.622  16.775  13.019
42354W        W14669   7.439  28.008   1.040
42355W        W14670   4.903  38.852  12.466
42356W        W14671   5.230  32.494  11.344
42357W        W14672  29.934  17.616   3.087
42358W        W14673  23.054  10.179   3.766
42359W        W14674  38.752  40.907   3.355
42360W        W14675  28.764   7.651  13.776
42361W        W14676   8.595  12.130  11.126
42362W        W14677  41.968   6.823  11.687
42363W        W14678  16.149  11.295   3.594
42364W        W14679  28.024  41.292  13.917
42365W        W14680  31.663  11.605   2.702
42366W        W14681  38.991  13.805  13.645
42367W        W14682  44.684  40.389  14.141
42368W        W14683  30.719  26.476   3.322
42369W        W14684   0.854  42.403  11.461
42370W        W14685  40.795  44.987  11.214
42371W        W14686  21.195   8.949   2.659
42372W        W14687  33.468   7.643  12.986
42373W        W14688  19.808  26.986   3.933
42374W        W14689  39.917  17.083  13.747
42375W        W14690  29.994  12.357  14.935
42376W        W14691  43.927  29.213  12.910
42377W        W14692  33.124  33.540   2.990
42378W        W14693  12.798  13.346   1.791
42379W        W14694   9.134  37.415  14.815
42380W        W14695  30.004  38.764   2.234
42381W        W14696  32.523  27.475  11.176
42382W        W14697  25.992   3.633   1.863
42383W        W14698   0.687  42.877  11.614
42384W        W14699  33.111   2.094  13.119
42385W        W14700  26.591   9.663   0.419
42386W        W14701  27.739  23.508   1.777
42387W        W14702   3.467  27.732  11.079
42388W        W14703  39.016  20.245  12.351
42389W        W14704  25.084  33.829   3.157
42390W        W14705  21.412   2.854   0.378
42391W        W14706   1.685  23.660   4.452
42392W        W14707   8.030  28.697   1.336
42393W        W14708  12.597  11.819  10.343
42394W        W14709  13.076  16.745  11.423
42395W        W14710  22.250  21.258   3.285
42396W        W14711  30.561  25.680  14.449
42397W        W14712  38.115  41.072  11.630
42398W        W14713  44.588  24.170   0.023
42399W        W14714  42.052  24.781   0.768
42400W        W14715  30.908   6.917   2.682
42401W        W14716  43.255  44.374  10.645
42402W        W14717  38.847  41.371  10.707
42403W        W14718  15.043  24.640   2.848
42404W        W14719  21.711  42.583   0.486
42405W        W14720  41.489  20.000  11.896
42406W        W14721  34.330  41.489   3.694
42407W        W14722  14.010   5.420   0.300
42408W        W14723  39.251  24.455   4.656
42409W        W14724  30.061  11.336   1.314
42410W        W14725  35.966  42.481  12.924
42411W        W14726  29.494  36.430   0.823
42412W        W14727  28.401  24.819   3.323
42413W        W14728  26.603  24.627   3.923
42414W        W14729  29.358   7.022   9.873
42415W        W14730  42.258  18.777  11.593
42416W        W14731  13.711  30.457   0.729
42417W        W14732  20.277  23.372   0.445
42418W        W14733  39.499  32.554   4.612
42419W        W14734  18.576  36.986   1.991
42420W        W14735  18.853  32.562  10.695
42421W        W14736  17.179  31.198  10.492
42422W        W14737  35.163   2.823  11.637
42423W        W14738  15.190  29.696   1.219
42424W        W14739  23.762  10.663  13.878
42425W        W14740  31.463  27.117   3.159
42426W        W14741  40.373   9.272   1.156
42427W        W14742  26.190  38.726  12.429
42428W        W14743  15.189  19.292  14.460
42429W        W14744  30.870  22.233   4.228
42430W        W14745   8.358  34.876   2.899
42431W        W14746  28.576  14.619   3.932
42432W        W14747  37.443  15.551  12.011
42433W        W14748  39.427  18.163   4.096
42434W        W14749  21.855  39.563  11.133
42435W        W14750  29.523  11.199   1.466
42436W        W14751  15.731  23.529  14.921
42437W        W14752  12.314   1.941  10.350
42438W        W14753   8.937   9.098  13.229
42439W        W14754   1.876  41.852   1.466
42440W        W14755   3.649  15.297  10.980
42441W        W14756  33.193   3.373   0.949
42442W        W14757   0.905  35.997  14.315
42443W        W14758  29.130   3.121   3.159
42444W        W14759  37.178  25.172   1.787
42445W        W14760  27.535   6.169   0.114
42446W        W14761  29.069  25.938  11.177
42447W        W14762  25.499  40.364   3.037
42448W        W14763  24.665  21.076   3.532
42449W        W14764  11.058  33.010  10.504
42450W        W14765  38.087  32.612   2.351
42451W        W14766  26.088  38.446  11.951
42452W        W14767  38.653   0.706  12.661
42453W        W14768  35.117   4.533  13.889
42454W        W14769  36.113   9.722   3.198
42455W        W14770  30.765  32.130   4.661
42456W        W14771  42.330  25.721  11.402
42457W        W14772  40.020  26.569   4.608
42458W        W14773   4.221  42.829   1.878
42459W        W14774  16.489  41.307   0.767
42460W        W14775  22.321  11.479  13.371
42461W        W14776   9.721  43.299  12.071
42462W        W14777  27.439  41.832   3.083
42463W        W14778  15.124   5.980   1.788
42464W        W14779   8.727  14.253   2.619
42465W        W14780  41.553  21.598  11.863
42466W        W14781  11.246  21.250   2.400
42467W        W14782  29.494  21.584  14.917
42468W        W14783  36.503  40.110  12.553
42469W        W14784   5.244  30.994   0.321
42470W        W14785   4.268   8.817  10.774
42471W        W14786  29.399  40.540  11.630
42472W        W14787  33.518   8.436  12.590
42473W        W14788  13.595   7.934   2.238
42474W        W14789   7.263  44.275  11.114
42475W        W14790  42.519  35.434   1.971
42476W        W14791  38.560   5.738   0.452
42477W        W14792   1.377   9.360   0.978
42478W        W14793  17.070  17.334   3.178
42479W        W14794   1.387  29.949   2.763
42480W        W14795  34.671  38.778   3.848
42481W        W14796   8.948  44.189  11.669
42482W        W14797  41.076  23.040  14.333
42483W        W14798  32.796  27.123  14.784
42484W        W14799  21.738  44.514  12.901
42485W        W14800  31.093  19.613  10.743
42486W        W14801  39.517   9.361  12.584
42487W        W14802  24.793  22.734   3.206
42488W        W14803  43.548  10.144   3.412
42489W        W14804  11.105  14.228  14.544
42490W        W14805   2.307   2.266  12.496
42491W        W14806  29.945  17.298  10.652
42492W        W14807  44.965  10.577  10.764
42493W        W14808  41.923  35.174  11.872
42494W        W14809  16.216   7.214   0.352
42495W        W14810  23.037  29.453  12.906
42496W        W14811  44.335  19.278  14.216
42497W        W14812  31.895   2.644   3.366
42498W        W14813  12.731  16.662   3.609
42499W        W14814  12.419  16.250  13.027
42500W        W14815  31.528  42.480   1.930
42501W        W14816  17.299  21.092   0.467
42502W        W14817  32.604  42.921  13.184
42503W        W14818  30.173   8.462  11.552
42504W        W14819  36.316  25.500   3.227
42505W        W14820  38.567  43.760  14.400
42506W        W14821  30.909  10.334  13.377
42507W        W14822  30.544   4.963   1.656
42508W        W14823  41.831   2.442  13.948
42509W        W14824  29.006  31.920  14.443
42510W        W14825   4.761   6.798  13.944
42511W        W14826  15.804  12.295   0.898
42512W        W14827  23.599  40.628  12.068
42513W        W14828  28.908  14.245  13.504
42514W        W14829  23.756  10.174   1.335
42515W        W14830  16.265   8.247   4.685
42516W        W14831  36.693   9.610   4.686
42517W        W14832  41.901   8.236  10.643
42518W        W14833   6.438  44.364   3.264
42519W        W14834  37.960  16.087  12.934
42520W        W14835   8.838  29.116  13.146
42521W        W14836  24.624  33.624  10.653
42522W        W14837   4.271  16.335  11.922
42523W        W14838   5.932  29.184   2.172
42524W        W14839  38.787  24.903  11.121
42525W        W14840   2.237   0.580  10.290
42526W        W14841  40.419  12.259   4.246
42527W        W14842  14.724  18.771  12.626
42528W        W14843  20.550   0.023   0.872
42529W        W14844   8.475  13.091  11.063
42530W        W14845  11.878   7.742  13.573
42531W        W14846  22.738  38.053  14.092
42532W        W14847  29.003  17.298   2.664
42533W        W14848  26.697   7.954   4.174
42534W        W14849  16.122  44.774   1.808
42535W        W14850  16.418  37.061   0.299
42536W        W14851  18.783   5.908  13.472
42537W        W14852  11.637  17.587  12.046
42538W        W14853   4.811  35.933   3.733
42539W        W14854  36.302  34.440  12.157
42540W        W14855  26.860  16.212  11.211
42541W        W14856   9.690   3.688  10.831
42542W        W14857  38.397  43.424   1.246
42543W        W14858  37.924  23.710   1.712
42544W        W14859   7.565   4.966  13.488
42545W        W14860  36.841  34.037   0.675
42546W        W14861  42.950  43.837   4.698
42547W        W14862   4.378  44.259  10.721
42548W        W14863   4.249  15.450   3.237
42549W        W14864  28.387  30.638   3.390
42550W        W14865  14.566  17.048  11.957
42551W        W14866   9.733  11.437  11.699
42552W        W14867  37.852  43.391  11.916
42553W        W14868  17.491   3.661   0.874
42554W        W14869   9.806  42.312   3.803
42555W        W14870  20.751   8.750   5.008
42556W        W14871  17.799  34.580  11.480
42557W        W14872   7.628  14.791  10.672
42558W        W14873   6.746  30.255  10.702
42559W        W14874  26.613  14.113   2.863
42560W        W14875  40.990  28.336  13.315
42561W        W14876  16.142  41.836   2.035
42562W        W14877  24.240  17.436   1.415
42563W        W14878   1.886  26.691  10.144
42564W        W14879  14.509  38.450   2.053
42565W        W14880   9.908  37.486   0.294
42566W        W14881  21.155   0.720  14.429
42567W        W14882  42.388  36.182  11.009
42568W        W14883   2.162  41.189  14.877
42569W        W14884   0.454  29.239   3.755
42570W        W14885  13.061  39.547  11.956
42571W        W14886  37.746  25.707  12.841
42572W        W14887  19.071  26.427   0.732
42573W        W14888  29.944  34.974   3.376
42574W        W14889  26.443   3.910  12.902
42575W        W14890  15.199   7.024   4.093
42576W        W14891   7.900  37.729  12.886
42577W        W14892  14.214  18.200  14.778
42578W        W14893  33.343  34.411  10.628
42579W        W14894  39.749   1.901  13.969
42580W        W14895  39.352  19.302   0.330
42581W        W14896  28.706  31.361   4.188
42582W        W14897  35.375   6.745   0.852
42583W        W14898  24.160  29.463  14.306
42584W        W14899  40.390  13.279   2.806
42585W        W14900   3.437  34.374  11.591
42586W        W14901  36.858  35.481   4.161
42587W        W14902  10.110  31.845  13.042
42588W        W14903  17.104  15.831  12.197
42589W        W14904   1.362   7.692  12.396
42590W        W14905  10.670  35.081  11.504
42591W        W14906  38.265   2.319  14.804
42592W        W14907   4.952   9.775   2.724
42593W        W14908  25.971  24.231  14.794
42594W        W14909  37.500  21.947   3.794
42595W        W14910  27.175  37.445   2.582
42596W        W14911   1.943   7.361   2.734
42597W        W14912  29.124  29.999   1.694
42598W        W14913   7.379   0.471   1.713
42599W        W14914   5.787  16.809  14.508
42600W        W14915  17.544  11.583   4.173
42601W        W14916  44.076   0.559  14.385
42602W        W14917  43.285   3.275   0.414
42603W        W14918  37.865   6.381   3.106
42604W        W14919  27.992   4.938  14.959
42605W        W14920  31.923   5.472  12.869
42606W        W14921   3.210   4.627   0.254
42607W        W14922  44.482  43.983   2.581
42608W        W14923  37.256  37.894   4.893
42609W        W14924  26.049  32.578  13.418
42610W        W14925  37.782   2.410   4.748
42611W        W14926  31.115  19.085  11.499
42612W        W14927  37.920  21.979   4.103
42613W        W14928  18.591   1.137  13.061
42614W        W14929  32.851  16.555  11.194
42615W        W14930  43.751  12.726  12.506
42616W        W14931  20.082  16.089  11.526
42617W        W14932   0.082  41.434  12.354
42618W        W14933  14.914  41.311   4.230
42619W        W14934  32.173  23.719   0.833
42620W        W14935  35.877  35.900   0.395
42621W        W14936   7.325   6.712   2.129
42622W        W14937  36.367  29.008  13.424
42623W        W14938  17.225  23.739  14.883
42624W        W14939  31.311  39.828  14.914
42625W        W14940  19.163   6.947   0.850
42626W        W14941  28.604  29.925   1.780
42627W        W14942  37.520   7.925   0.206
42628W        W14943   2.216   1.377  14.262
42629W        W14944   1.497  27.052  11.500
42630W        W14945   8.496   6.866  13.929
42631W        W14946  35.944  20.906   3.761
42632W        W14947   8.922  12.207   4.140
42633W        W14948   4.401  33.389  11.521
42634W        W14949  32.710  30.007   3.161
42635W        W14950  10.801   4.932   4.547
42636W        W14951  18.005  34.468   0.638
42637W        W14952  31.781  34.874  11.257
42638W        W14953   3.208   9.246   4.137
42639W        W14954  34.897  14.775  11.232
42640W        W14955   9.755   3.749  11.327
42641W        W14956   4.011   8.065   1.871
42642W        W14957  37.168  21.650   1.292
42643W        W14958  23.147  14.700   1.156
42644W        W14959  12.733  23.050   3.303
42645W        W14960  30.732  25.438  11.166
42646W        W14961  25.749  37.396  13.864
42647W        W14962  19.048  20.441  14.130
42648W        W14963  42.135  37.567  13.372
42649W        W14964   9.356  13.012   2.483
42650W        W14965  42.326  16.618   1.916
42651W        W14966   4.965   3.058  10.243
42652W        W14967   2.810  31.166  14.493
42653W        W14968  30.646   4.464   3.683
42654W        W14969  29.268  29.168  14.295
42655W        W14970  15.526  37.494   0.471
42656W        W14971  26.584   9.729   3.078
42657W        W14972   7.441   9.478  13.865
42658W        W14973  13.178  31.627  12.718
42659W        W14974  41.588  21.982  12.814
42660W        W14975  14.634  21.117   4.405
42661W        W14976  37.451  27.157   2.322
42662W        W14977  44.963   9.866   0.068
42663W        W14978  25.483  26.256   0.344
42664W        W14979  40.007  40.946   1.878
42665W        W14980  29.644  42.035   0.346
42666W        W14981  31.220  44.304  11.441
42667W        W14982  15.072  19.561   3.240
42668W        W14983  43.251  38.916   3.122
42669W        W14984   7.271  40.623  12.453
42670W        W14985  40.335   8.739   2.610
42671W        W14986  41.436  19.769   2.734
42672W        W14987  34.307  24.453   4.120
42673W        W14988  21.920   7.341  14.923
42674W        W14989   9.714  23.475   3.842
42675W        W14990  13.395  24.407   0.337
42676W        W14991   9.618  30.955  10.421
42677W        W14992  20.510  41.776   3.392
42678W        W14993  23.316  41.272   1.412
42679W        W14994  34.586   8.857  11.381
42680W        W14995  26.071  31.388  11.385
42681W        W14996  36.895   3.754  14.834
42682W        W14997  36.605  20.735   0.768
42683W        W14998   3.662  25.643  12.327
42684W        W14999  12.019  40.673  13.935
42685W        W15000  20.436  39.016   5.024
42686W        W15001   0.932  37.994   4.642
42687W        W15002  21.112  29.676   2.890
42688W        W15003  39.309  35.282  13.466
42689W        W15004   9.654  44.442  13.054
42690W        W15005  23.634  16.366  13.021
42691W        W15006  23.190  27.460   2.196
42692W        W15007  31.037   3.973   0.724
42693W        W15008  24.481  20.641   3.213
42694W        W15009  36.645  42.732   2.368
42695W        W15010   0.361   0.963   1.338
42696W        W15011   5.042   4.698  11.139
42697W        W15012  21.177  30.556  14.573
42698W        W15013   9.742  22.621  14.176
42699W        W15014  28.626  24.128   2.733
42700W        W15015  27.553  42.552  13.384
42701W        W15016  28.005  19.579  14.836
42702W        W15017  12.510  22.121  12.477
42703W        W15018  28.242  17.184   1.417
42704W        W15019  13.810  40.145  12.779
42705W        W15020  25.000  29.918  11.522
42706W        W15021   7.668  26.790   2.706
42707W        W15022  37.583  25.054  12.464
42708W        W15023   7.508  22.522   4.829
42709W        W15024  33.256  15.194  12.916
42710W        W15025  16.392  21.755   1.788
42711W        W15026   2.391   0.346  12.126
42712W        W15027  37.828  25.493   4.732
42713W        W15028  29.887  33.994  14.789
42714W        W15029  18.896   4.400   0.834
42715W        W15030  10.284   6.052   1.298
42716W        W15031  30.096  22.254  11.956
42717W        W15032  37.658   0.297  14.987
42718W        W15033  11.160  35.636   0.780
42719W        W15034  28.471  31.503   2.337
42720W        W15035  15.651  22.130  12.360
42721W        W15036   7.382  20.782   2.558
42722W        W15037  25.964  36.525   3.365
42723W        W15038  19.937  38.442  12.405
42724W        W15039   7.879  15.327  11.902
42725W        W15040  10.661  23.316   0.851
42726W        W15041  35.845  30.077  14.299
42727W        W15042  31.821  43.429  14.040
42728W        W15043  15.034  34.031   1.349
42729W        W15044  44.831  11.481  13.341
42730W        W15045  18.248  29.478  12.065
42731W        W15046   7.021  14.247   2.864
42732W        W15047  30.902  29.260  13.521
42733W        W15048  25.661  34.901   0.866
42734W        W15049  29.542  39.668  14.501
42735W        W15050  16.638   8.911   1.472
42736W        W15051  29.606  36.954  10.585
42737W        W15052  44.334   3.990   0.828
42738W        W15053   9.724   1.222  11.499
42739W        W15054  10.351  12.663  10.730
42740W        W15055  36.412  23.969  11.573
42741W        W15056  13.801   9.029   3.715
42742W        W15057  29.365  15.642  10.671
42743W        W15058  44.862  26.961  12.326
42744W        W15059  23.606  39.599  11.998
42745W        W15060  36.201  36.065   3.368
42746W        W15061  22.772   9.667   2.245
42747W        W15062   9.669  28.120  11.429
42748W        W15063   4.294  28.583   2.211
42749W        W15064  14.824  41.835   4.181
42750W        W15065  31.510  40.650   1.607
42751W        W15066  14.685  36.161   0.274
42752W        W15067  19.983  18.546   4.098
42753W        W15068  10.853  13.827  12.978
42754W        W15069  26.387  29.448  14.985
42755W        W15070   6.249  36.492   4.103
42756W        W15071  12.357   4.697   0.998
42757W        W15072  20.379  28.730  14.035
42758W        W15073  11.321  20.768   0.420
42759W        W15074  40.130  44.257   4.794
42760W        W15075  31.364  25.150   0.414
42761W        W15076  36.559  11.247   0.039
42762W        W15077  26.689  16.421  10.782
42763W        W15078  33.467  43.994   2.850
42764W        W15079  18.491  42.533   3.661
42765W        W15080  15.714  17.027   2.675
42766W        W15081  37.118   6.234   2.376
42767W        W15082  40.389  10.608   4.493
42768W        W15083   5.649   2.367  13.476
42769W        W15084   0.821  11.116   3.210
42770W        W15085  16.148  11.851   0.817
42771W        W15086  19.300  29.714   1.813
42772W        W15087  36.866  18.224   1.979
42773W        W15088  23.626  35.490  14.296
42774W        W15089  39.886  29.678  11.187
42775W        W15090  17.628   2.196   0.815
42776W        W15091   3.238   8.310   1.408
42777W        W15092  12.906  26.500   0.904
42778W        W15093  30.037  35.041  13.911
42779W        W15094  29.108  19.695  12.175
42780W        W15095  35.105  14.195  11.990
42781W        W15096  17.134  14.292  14.915
42782W        W15097  14.367  11.286  12.066
42783W        W15098  28.936  37.512   2.840
42784W        W15099  34.582  25.755  12.226
42785W        W15100  39.273   7.196  13.436
42786W        W15101   3.978   1.788   1.346
42787W        W15102  33.279  24.787   2.873
42788W        W15103  34.404  18.551  14.878
42789W        W15104  40.389  31.800   0.371
42790W        W15105   1.771  28.986  10.799
42791W        W15106   0.225  36.602   2.883
42792W        W15107  35.089   3.460   0.999
42793W        W15108  21.919  17.129  12.441
42794W        W15109   8.122  39.108  12.064
42795W        W15110  38.614   4.932  13.476
42796W        W15111   0.797   5.065  10.581
42797W        W15112   7.686  31.995  13.879
42798W        W15113  18.777  31.500   2.649
42799W        W15114  34.852  36.107  10.663
42800W        W15115  27.840  14.814  12.868
42801W        W15116   3.775   6.305   3.565
42802W        W15117  37.867  35.853   1.340
42803W        W15118  36.074  32.602   3.675
42804W        W15119   4.287   7.365   0.893
42805W        W15120   6.296  39.857  10.657
42806W        W15121  42.932   1.964  11.505
42807W        W15122   1.520   5.730   0.186
42808W        W15123  41.050  16.740   2.292
42809W        W15124  18.783  24.629   5.009
42810W        W15125  13.821  27.473   3.327
42811W        W15126  37.063  12.089  10.685
42812W        W15127   3.372  27.556   0.085
42813W        W15128  28.803   1.964  14.551
42814W        W15129  30.056  17.533  13.361
42815W        W15130  31.377  37.168   0.794
42816W        W15131  37.850  41.592  13.007
42817W        W15132  37.018  18.693  13.742
42818W        W15133  13.215   8.726   1.467
42819W        W15134  12.704   4.330   3.721
42820W        W15135   4.778   9.281   2.682
42821W        W15136  39.398  14.643  14.924
42822W        W15137  12.595  15.613   2.326
42823W        W15138  28.200  30.044  11.624
42824W        W15139  15.048  17.528   1.372
42825W        W15140  28.848  38.463  11.640
42826W        W15141  12.646  27.488  14.941
42827W        W15142  36.563  37.074   5.004
42828W        W15143  22.076  28.141  14.067
42829W        W15144  41.435  32.934  12.839
42830W        W15145   2.983  29.960   3.201
42831W        W15146  35.769  34.918   4.151
42832W        W15147   9.373   8.321  11.154
42833W        W15148  15.365  12.683   0.168
42834W        W15149  10.231  14.742   2.167
42835W        W15150  38.418  29.420  13.254
42836W        W15151  35.126  35.289   1.750
42837W        W15152  33.448  30.030  12.988
42838W        W15153  35.503  22.269  12.901
42839W        W15154  38.505  12.233   4.210
42840W        W15155  11.083   1.715   0.322
42841W        W15156  40.807  13.233   3.120
42842W        W15157  36.915  10.173  14.133
42843W        W15158  25.459  20.583   3.584
42844W        W15159  37.632  18.646  10.939
42845W        W15160  10.709  25.173   2.142
42846W        W15161   1.223  43.021  10.679
42847W        W15162  15.565  41.908  13.873
42848W        W15163  29.290  21.863  12.446
42849W        W15164  35.804  17.919  14.813
42850W        W15165   5.419  35.176   0.377
42851W        W15166  16.096  42.930   4.893
42852W        W15167  44.369  34.192  12.840
42853W        W15168  21.388  28.427   0.952
42854W        W15169   4.880  15.110  14.938
42855W        W15170  27.696  35.985  14.364
42856W        W15171  25.438  16.248  13.987
42857W        W15172  12.613  44.502  13.114
42858W        W15173   0.841  31.034  11.206
42859W        W15174  36.888   6.339   0.498
42860W        W15175  18.560  28.586  10.301
42861W        W15176  39.344  19.486   4.471
42862W        W15177  10.660  24.944  12.539
42863W        W15178   5.154  12.246  14.045
42864W        W15179  38.481  11.242   2.787
42865W        W15180  26.161  35.463   1.531
42866W        W15181  13.867  18.532  11.573
42867W        W15182  43.772   9.722   0.505
42868W        W15183  29.218   0.229  11.569
42869W        W15184  22.689  14.859   1.732
42870W        W15185  17.400  24.679   2.455
42871W        W15186  25.494   4.866   0.066
42872W        W15187   8.335  37.881  12.140
42873W        W15188  31.579  22.533  14.350
42874W        W15189  27.038  44.519  14.404
42875W        W15190  21.256  35.026  14.784
42876W        W15191  33.477   3.792  13.278
42877W        W15192   1.161  19.603  10.804
42878W        W15193  39.470  38.555   1.428
42879W        W15194  34.808  44.651   1.212
42880W        W15195  38.706   0.872   2.603
42881W        W15196  13.458  10.612   1.676
42882W        W15197  20.690  40.505  10.530
42883W        W15198  36.852  14.306   1.191
42884W        W15199  21.200  22.999  12.016
42885W        W15200  22.756  19.072  11.596
42886W        W15201  32.053  19.207  11.166
42887W        W15202  37.526  19.826   2.859
42888W        W15203  33.579  15.550   3.712
42889W        W15204  28.693  36.907   2.206
42890W        W15205  15.067  20.822   0.648
42891W        W15206   7.170  25.266  12.950
42892W        W15207  42.475   5.724  12.397
42893W        W15208   0.315  38.305   4.525
42894W        W15209  44.787   7.870   3.615
42895W        W15210  29.413   2.187  12.958
42896W        W15211   9.443  11.235   4.279
42897W        W15212  21.778  18.668   2.351
42898W        W15213   4.841  37.736  11.524
42899W        W15214  40.752  43.729  13.908
42900W        W15215  28.498  19.069   0.254
42901W        W15216  14.029   4.729   3.804
42902W        W15217  30.514   2.106  14.142
42903W        W15218  26.262  43.586   3.188
42904W        W15219  25.699  14.191   3.216
42905W        W15220  36.060  14.052  11.875
42906W        W15221  16.091  21.492  10.776
42907W        W15222  34.032  44.732   1.881
42908W        W15223  18.028  41.511  14.271
42909W        W15224   4.368  26.928  14.430
42910W        W15225   2.183  16.693   1.726
42911W        W15226  27.915  15.208  13.941
42912W        W15227  25.682  19.134   4.592
42913W        W15228  29.876  20.104  10.930
42914W        W15229  37.868  18.206  14.766
42915W        W15230  41.512   5.175   1.869
42916W        W15231  15.897   3.342  13.976
42917W        W15232  35.222  32.170   1.274
42918W        W15233  20.588  15.842   0.967
42919W        W15234  37.167  44.225  11.363
42920W        W15235  13.065   0.803   2.048
42921W        W15236  31.508  15.800  14.490
42922W        W15237  26.659  25.744  13.851
42923W        W15238  15.768  16.720   2.202
42924W        W15239  18.646  22.590  12.520
42925W        W15240   2.946  37.046   1.961
42926W        W15241   5.162  11.793  11.492
42927W        W15242  18.691   8.366   3.309
42928W        W15243  32.452  22.296  12.570
42929W        W15244  34.372   7.356  14.808
42930W        W15245  30.006  16.050  12.109
42931W        W15246  11.842   9.446  11.130
42932W        W15247  30.195  12.862   2.962
42933W        W15248  22.041  21.455   3.728
42934W        W15249  12.667   4.829   2.838
42935W        W15250   8.747  32.341  12.542
42936W        W15251  10.499  32.849  11.542
42937W        W15252  31.691   4.653   4.128
42938W        W15253  36.832   6.408   1.509
42939W        W15254   4.526  22.540   3.229
42940W        W15255  21.236  31.112  10.680
42941W        W15256  36.097   2.501   1.310
42942W        W15257  15.967  42.405   3.753
42943W        W15258  15.568  37.939   1.293
42944W        W15259   6.385  26.697   1.396
42945W        W15260  40.826   0.252  12.872
42946W        W15261   3.676  18.117  10.749
42947W        W15262  37.604   8.712   1.467
42948W        W15263  31.128  44.781   1.473
42949W        W15264  44.462  36.523   0.957
42950W        W15265  16.005   4.269   0.259
42951W        W15266   1.268   3.661   3.480
42952W        W15267  10.742   8.809  14.763
42953W        W15268  12.676  33.379   0.311
42954W        W15269   7.847  42.045  10.774
42955W        W15270  42.784  30.498   0.414
42956W        W15271  34.672  24.529   3.684
42957W        W15272  42.348  44.538  13.400
42958W        W15273   3.328   2.703   2.164
42959W        W15274  27.458  23.041   2.741
42960W        W15275  40.308  43.975  13.884
42961W        W15276  34.719   0.765   3.112
42962W        W15277  20.161  24.255  10.510
42963W        W15278  18.623  13.073  12.587
42964W        W15279   3.392  26.924  12.563
42965W        W15280  19.266   9.918   3.687
42966W        W15281  13.881  31.959   1.844
42967W        W15282  42.188  23.059   0.468
42968W        W15283  25.706   3.861  11.530
42969W        W15284  34.288  11.710  13.430
42970W        W15285  38.037  30.476   3.202
42971W        W15286  26.644  33.599  10.173
42972W        W15287  44.842   2.688   1.542
42973W        W15288  26.972  30.824  13.004
42974W        W15289  18.107  33.224   4.210
42975W        W15290  27.018  29.657   3.094
42976W        W15291   1.644  38.812   2.914
42977W        W15292   2.517  34.532   3.053
42978W        W15293  10.488  14.308   4.974
42979W        W15294   9.707  19.810   4.207
42980W        W15295  35.625  25.961  14.757
42981W        W15296  16.194   5.703   0.373
42982W        W15297   2.235  31.733   1.366
42983W        W15298  38.591  37.820  12.372
42984W        W15299  31.861  30.867   0.768
42985W        W15300  32.693   6.817  10.592
42986W        W15301  28.440  32.185  10.666
42987W        W15302  21.048  22.889  11.494
42988W        W15303  36.403   7.394   3.257
42989W        W15304  25.710  17.595  14.797
42990W        W15305   6.893  10.110   3.672
42991W        W15306  13.231  43.248   1.234
42992W        W15307  33.462  41.003   3.337
42993W        W15308  24.278  12.742   1.433
42994W        W15309  13.848  21.793  14.278
42995W        W15310  21.140  10.985  10.000
42996W        W15311   1.993  28.663   4.093
42997W        W15312   3.907  11.432   0.411
42998W        W15313   2.359  24.590   2.416
42999W        W15314  40.402  24.896  10.661
43000W        W15315  18.695  35.549  13.130
43001W        W15316   7.389  42.530  12.969
43002W        W15317  18.139   4.284   2.135
43003W        W15318  37.576  38.455   1.792
43004W        W15319  34.837  22.583   3.263
43005W        W15320  35.734  41.502  11.677
43006W        W15321  20.508  18.113   1.976
43007W        W15322  31.493  37.440  13.456
43008W        W15323  38.924   4.912  14.990
43009W        W15324  27.543  42.597   1.720
43010W        W15325  42.753  36.123   2.592
43011W        W15326  13.818  31.083  13.159
43012W        W15327   9.259  17.741   3.866
43013W        W15328  38.688  35.548  12.872
43014W        W15329  23.438   7.250   2.736
43015W        W15330  16.523  11.039  12.534
43016W        W15331   9.664  14.111  13.456
43017W        W15332  44.674   9.220   1.533
43018W        W15333  12.393  25.789   0.742
43019W        W15334   5.991  42.757  13.908
43020W        W15335  39.524  32.424  13.015
43021W        W15336  44.889  39.068   4.649
43022W        W15337  13.017   9.886   1.473
43023W        W15338  31.348   4.810   1.006
43024W        W15339  32.820   5.479   0.842
43025W        W15340  35.778  35.712  13.554
43026W        W15341  25.680  22.210   0.927
43027W        W15342  14.613  19.890  14.373
43028W        W15343  39.471  34.457  14.588
43029W        W15344  43.353  26.481  13.899
43030W        W15345  17.114   1.775   2.312
43031W        W15346  14.728  32.915  13.899
43032W        W15347  11.311  16.595  14.876
43033W        W15348  18.088  43.834   0.995
43034W        W15349  17.565   1.178  12.091
43035W        W15350   6.515  27.547   1.793
43036W        W15351  38.769  27.397  11.503
43037W        W15352  30.395  16.522  13.420
43038W        W15353   4.851  40.294   2.621
43039W        W15354  31.645  35.063  14.364
43040W        W15355  33.753  43.617  12.549
43041W        W15356  44.462  17.338  10.575
43042W        W15357  38.371  37.356   0.138
43043W        W15358  44.344   7.378   3.703
43044W        W15359  17.217  33.463   4.730
43045W        W15360  30.412  35.396   2.269
43046W        W15361  39.117  39.507  13.848
43047W        W15362  23.536  10.202  10.601
43048W        W15363   8.224  12.797   2.414
43049W        W15364   5.285   4.826   1.374
43050W        W15365  19.958  41.280   4.147
43051W        W15366  19.634  41.423  11.431
43052W        W15367  19.780  21.723  11.233
43053W        W15368  28.661  16.598   3.687
43054W        W15369  18.541  43.431  12.025
43055W        W15370  25.866  27.254  13.937
43056W        W15371  42.135  30.375   3.730
43057W        W15372  42.338  20.231   3.090
43058W        W15373  33.543  30.812  13.478
43059W        W15374  39.446  23.097  13.692
43060W        W15375  44.398  22.279   1.800
43061W        W15376   5.643   5.421   1.821
43062W        W15377  34.887  25.670   1.413
43063W        W15378  39.467  15.411   3.883
43064W        W15379  11.354  31.080  13.786
43065W        W15380  34.694   4.176   4.624
43066W        W15381   9.992  29.713  13.905
43067W        W15382  22.267   0.469   2.663
43068W        W15383  28.150  34.454  10.477
43069W        W15384  41.090   9.168  14.797
43070W        W15385  35.431  16.693  12.997
43071W        W15386   3.067  11.365  12.108
43072W        W15387   1.314  33.919   0.404
43073W        W15388  21.650  26.784  14.132
43074W        W15389  43.377  26.454  12.855
43075W        W15390  12.688   2.896  12.534
43076W        W15391  22.291  44.300   1.646
43077W        W15392  33.407  38.400   4.761
43078W        W15393  44.358   2.798   0.028
43079W        W15394  15.935  23.736   4.202
43080W        W15395  16.827  17.520   1.870
43081W        W15396  18.228  10.427  13.998
43082W        W15397  42.591  23.412   4.156
43083W        W15398   3.672  26.162   1.257
43084W        W15399  20.211  26.883   3.202
43085W        W15400  30.730   7.849  14.991
43086W        W15401  40.485  40.391   0.349
43087W        W15402  44.912   2.044   1.770
43088W        W15403  28.677  13.393  11.949
43089W        W15404   9.901  16.229  11.107
43090W        W15405   8.377  32.369  11.035
43091W        W15406  38.683  12.825   2.216
43092W        W15407   1.363  41.484  14.753
43093W        W15408  30.045  40.085   2.831
43094W        W15409  35.588  35.043   4.674
43095W        W15410  30.167   4.201  12.901
43096W        W15411  23.883  36.422  14.811
43097W        W15412  41.428  19.601   3.611
43098W        W15413  11.342   6.833   0.742
43099W        W15414  21.993  19.404   4.559
43100W        W15415  40.480   9.915   0.163
43101W        W15416  38.896  18.026   3.884
43102W        W15417  41.334  16.050  12.086
43103W        W15418  15.265  10.355  14.427
43104W        W15419  19.245  19.856   2.685
43105W        W15420   6.606  43.920  11.339
43106W        W15421  11.533  30.634   0.256
43107W        W15422  21.007  31.416  14.334
43108W        W15423  43.740   9.189  11.928
43109W        W15424  40.274   8.264  13.925
43110W        W15425  39.378  12.791   1.525
43111W        W15426   4.988  27.372   4.537
43112W        W15427   9.881   3.231   1.670
43113W        W15428  32.512  30.243   3.585
43114W        W15429  19.140  27.870  14.818
43115W        W15430   5.222  11.030   3.167
43116W        W15431   4.403  36.625   4.204
43117W        W15432  33.711  12.488   0.811
43118W        W15433  33.975  41.265  13.062
43119W        W15434  42.178  39.439  13.312
43120W        W15435  39.329  36.113   2.968
43121W        W15436  17.225  12.692  11.556
43122W        W15437  20.087  12.650   2.133
43123W        W15438   0.372   5.036  10.894
43124W        W15439  42.065  43.886  10.407
43125W        W15440  21.969  26.219  14.780
43126W        W15441   0.283  41.545   0.929
43127W        W15442  41.778  21.102   4.910
43128W        W15443  13.114  23.188   4.038
43129W        W15444  23.132  40.136   4.465
43130W        W15445  32.476  42.126   2.786
43131W        W15446  19.738   5.137   3.792
43132W        W15447  43.520  12.177   2.846
43133W        W15448   4.735  35.781  12.164
43134W        W15449  13.838  29.051   1.731
43135W        W15450  29.869   9.977   1.275
43136W        W15451  11.149  29.575   1.562
43137W        W15452  33.237   7.650  11.092
43138W        W15453  40.437  19.648   0.504
43139W        W15454   4.686  26.058   0.370
43140W        W15455  29.015   8.702   1.279
43141W        W15456  40.174  31.084  13.909
43142W        W15457  27.041   5.755   9.761
43143W        W15458  39.964  43.252   3.234
43144W        W15459  23.123  31.779   3.147
43145W        W15460   7.070   2.414  11.249
43146W        W15461  32.985  18.183   4.770
43147W        W15462  10.127  19.104  10.248
43148W        W15463  30.575  18.145   1.379
43149W        W15464  27.982  40.820  11.522
43150W        W15465  29.238  26.239   3.096
43151W        W15466  10.699  33.233  13.398
43152W        W15467  10.190  39.950  10.067
43153W        W15468  39.341  21.012   1.758
43154W        W15469  12.913  17.014  14.206
43155W        W15470  30.582  37.517   2.388
43156W        W15471  10.325  17.180  14.119
43157W        W15472  41.627  22.326  11.600
43158W        W15473  24.592  16.013  11.654
43159W        W15474  15.741   5.792  14.460
43160W        W15475  28.191  23.050  14.248
43161W        W15476   2.560  11.698   2.242
43162W        W15477   9.207  41.364  11.158
43163W        W15478  37.083   2.267  14.337
43164W        W15479  44.591   5.001   4.577
43165W        W15480  38.371  33.051   1.212
43166W        W15481  32.167  28.156  12.596
43167W        W15482  35.121  14.765  14.301
43168W        W15483  38.810  14.834  14.416
43169W        W15484   5.962  43.566   0.189
43170W        W15485  33.704   1.780   2.873
43171W        W15486  44.724  27.731  13.064
43172W        W15487  33.316  36.861  12.391
43173W        W15488  21.599   4.203  11.462
43174W        W15489   2.755  23.177   1.339
43175W        W15490   0.683  28.014   4.121
43176W        W15491   3.744  23.691   1.688
43177W        W15492   0.493   1.812  14.335
43178W        W15493  21.658   2.027   4.594
43179W        W15494  41.330   6.816   1.286
43180W        W15495  15.534  21.216  12.907
43181W        W15496  23.709  44.583   2.792
43182W        W15497  10.469   0.841   1.812
43183W        W15498  31.618  40.958   4.688
43184W        W15499  24.185  30.313  14.840
43185W        W15500  44.176  23.435  14.452
43186W        W15501  15.690  25.237   3.439
43187W        W15502  36.284  11.805  11.636
43188W        W15503  14.285  25.616  13.484
43189W        W15504   4.154  18.788  13.032
43190W        W15505  35.873  39.726  14.817
43191W        W15506  21.878  14.666   3.364
43192W        W15507  29.754   2.475  12.023
43193W        W15508  33.435  28.895   2.365
43194W        W15509  38.718   3.704   1.947
43195W        W15510  43.991   0.427  14.896
43196W        W15511   3.968  14.255   3.954
43197W        W15512  20.600  24.540   1.912
43198W        W15513  27.268  19.678  13.400
43199W        W15514  24.639  37.588  11.519
43200W        W15515  26.147  29.470  12.566
43201W        W15516  26.925   8.938  13.582
43202W        W15517  19.843   4.174   3.609
43203W        W15518  22.603  19.622  10.485
43204W        W15519   7.841  33.615  12.875
43205W        W15520  18.168   7.996  12.391
43206W        W15521  23.262  34.073   2.671
43207W        W15522   8.661  30.917  14.346
43208W        W15523  28.521  34.337  13.980
43209W        W15524  37.754   1.319  11.487
43210W        W15525  36.555  44.010  14.251
43211W        W15526  36.181  44.717  12.076
43212W        W15527   8.893  13.269  12.972
43213W        W15528  23.401  11.913   0.833
43214W        W15529  16.200  39.687   4.032
43215W        W15530  29.697  20.951   3.760
43216W        W15531  30.164  40.142  12.927
43217W        W15532  38.932  26.877   9.787
43218W        W15533  20.194  24.247   2.650
43219W        W15534  33.968  41.319   0.308
43220W        W15535  39.199  31.159   2.775
43221W        W15536  42.749  30.529   1.779
43222W        W15537  27.091   9.947  10.873
43223W        W15538  20.579   8.602  11.084
43224W        W15539  38.535   3.176  12.958
43225W        W15540  39.004  14.370  10.738
43226W        W15541  27.613   3.025   4.682
43227W        W15542  26.192   1.769  13.093
43228W        W15543  39.534  37.491   4.166
43229W        W15544  20.781  21.825  10.917
43230W        W15545  17.007  20.959  12.113
43231W        W15546   9.275  16.124  10.952
43232W        W15547  38.306  40.465   2.322
43233W        W15548  16.191  30.387   3.231
43234W        W15549  11.752  38.917   1.938
43235W        W15550  25.025  18.863  11.585
43236W        W15551  34.438  36.224  14.799
43237W        W15552  14.756  19.993  13.357
43238W        W15553  21.653  23.316   3.719
43239W        W15554  19.088  42.039  14.427
43240W        W15555  19.552   1.401   2.835
43241W        W15556  21.639   0.871  13.161
43242W        W15557  10.740  20.431   0.548
43243W        W15558   0.534   6.967  11.582
43244W        W15559  40.545   9.759   1.179
43245W        W15560  23.157  24.441  14.314
43246W        W15561  41.737  19.966   1.320
43247W        W15562  38.619  25.639   0.457
43248W        W15563  37.462   9.371  12.586
43249W        W15564  42.980  10.949  10.027
43250W        W15565  29.729  23.737   4.476
43251W        W15566  35.718   1.447   3.691
43252W        W15567  31.846  39.865  12.638
43253W        W15568   9.439  28.559  11.650
43254W        W15569  33.122  12.619  14.766
43255W        W15570   6.288  33.991   4.151
43256W        W15571  18.103  26.153   3.693
43257W        W15572  38.424  36.018   4.636
43258W        W15573  24.865  17.896   2.861
43259W        W15574  36.542  15.606   3.176
43260W        W15575  15.098  31.101   4.255
43261W        W15576  28.988   2.263   3.152
43262W        W15577  30.418  25.223   1.909
43263W        W15578  16.549  17.739   4.494
43264W        W15579  10.989  21.327   3.675
43265W        W15580  10.240   4.942   4.257
43266W        W15581   0.916  27.516  10.908
43267W        W15582   3.148  38.585  12.838
43268W        W15583   2.895  38.518  11.407
43269W        W15584  14.102   3.452   2.630
43270W        W15585  15.636  32.358  14.924
43271W        W15586  37.933  12.721   4.710
43272W        W15587   5.928   9.820  11.644
43273W        W15588  37.474  24.714  10.474
43274W        W15589   7.329  44.736  11.902
43275W        W15590  14.904  19.116  12.958
43276W        W15591  23.301  25.271  13.862
43277W        W15592   2.509   7.739   0.799
43278W        W15593  21.190  10.864  14.954
43279W        W15594  24.093   4.699  14.048
43280W        W15595  37.928   4.295   2.238
43281W        W15596  41.652  10.204   3.327
43282W        W15597  42.331  14.081   1.317
43283W        W15598   8.710   8.656   0.854
43284W        W15599  22.206  25.780  12.407
43285W        W15600  25.645  11.324  12.071
43286W        W15601  38.024  21.141   0.498
43287W        W15602   6.471  18.102   0.295
43288W        W15603   1.879  21.569  12.050
43289W        W15604  28.660  37.843  12.143
43290W        W15605  32.655   7.277   4.101
43291W        W15606  33.045  28.741   3.677
43292W        W15607  41.062  15.677   2.345
43293W        W15608  13.154  21.592   2.342
43294W        W15609  35.935  28.491   4.079
43295W        W15610  40.442  42.288  11.493
43296W        W15611  13.061  27.521   4.688
43297W        W15612  30.067  12.325  10.619
43298W        W15613   7.632  15.843   0.786
43299W        W15614  25.323  16.815  11.166
43300W        W15615  40.411  31.112  12.533
43301W        W15616  22.151  20.556   2.629
43302W        W15617  34.921  19.995  11.499
43303W        W15618  27.751   1.609   1.786
43304W        W15619   1.528  42.340   4.306
43305W        W15620  12.744  13.076   3.308
43306W        W15621  21.665  15.908   5.041
43307W        W15622  14.042  23.123   4.035
43308W        W15623   9.769   4.200   1.235
43309W        W15624  44.391  30.147  10.754
43310W        W15625  43.410   4.505  13.440
43311W        W15626  14.752  18.119   4.767
43312W        W15627  29.636   1.209   2.250
43313W        W15628   1.712  39.506  13.132
43314W        W15629  20.973  12.585  11.528
43315W        W15630   6.697  14.226   0.268
43316W        W15631  26.637  29.052   3.290
43317W        W15632  16.124  41.043  12.507
43318W        W15633  38.563  10.517   0.767
43319W        W15634  13.256  43.454   0.767
43320W        W15635   6.669  12.565   0.742
43321W        W15636  26.972  41.535   3.463
43322W        W15637  36.828  33.050   1.179
43323W        W15638  38.332  15.485  11.613
43324W        W15639  19.166   0.274  13.043
43325W        W15640  33.150  27.881  10.525
43326W        W15641  35.613  24.004  13.761
43327W        W15642   4.796  16.622  10.702
43328W        W15643  22.996   4.807  10.507
43329W        W15644  24.024   8.981  11.213
43330W        W15645  22.716  44.223  12.949
43331W        W15646  28.522  14.749   3.297
43332W        W15647  28.222   9.110   0.972
43333W        W15648   3.767   6.202  14.877
43334W        W15649  33.193  44.572  13.379
43335W        W15650  13.883  30.659   2.242
43336W        W15651  42.546  37.131   4.948
43337W        W15652  32.751   5.032  12.850
43338W        W15653  35.076  30.499  10.113
43339W        W15654  13.441  16.245  13.045
43340W        W15655   0.298  42.067   2.318
43341W        W15656  20.592  28.510  13.151
43342W        W15657  15.044  16.122  14.347
43343W        W15658   1.288   9.324   0.009
43344W        W15659  41.762  44.938  14.522
43345W        W15660  10.250  37.124   3.195
43346W        W15661  33.470  21.686   0.305
43347W        W15662   7.891   4.841  14.947
43348W        W15663  30.083  42.264  10.892
43349W        W15664  11.558  16.653   5.123
43350W        W15665  13.559  33.095   0.363
43351W        W15666  33.611   7.345  14.347
43352W        W15667   7.608  41.797   4.980
43353W        W15668   9.700  35.124  13.725
43354W        W15669   4.209  37.898   4.893
43355W        W15670  17.081   0.691   4.411
43356W        W15671  40.400  32.844   3.268
43357W        W15672  13.767  42.974  14.242
43358W        W15673  23.038  31.278  11.994
43359W        W15674  32.923   0.762  10.851
43360W        W15675  42.393  14.078  13.361
43361W        W15676  24.653  43.079  14.729
43362W        W15677   1.715  41.451  12.843
43363W        W15678  43.625  21.763  10.468
43364W        W15679  44.650   8.865   1.001
43365W        W15680  27.205  25.303  11.560
43366W        W15681  39.470  36.058  14.069
43367W        W15682   5.089  36.001  11.253
43368W        W15683   6.569   2.843   4.311
43369W        W15684  19.459  41.380  13.446
43370W        W15685  16.880   3.381   2.722
43371W        W15686  20.614  12.520   3.308
43372W        W15687  44.904   7.842   1.735
43373W        W15688  43.117  37.477  11.075
43374W        W15689  39.006  19.283   0.901
43375W        W15690  29.863  34.523  11.206
43376W        W15691  31.141   3.005   5.036
43377W        W15692  35.615   2.790  10.682
43378W        W15693  28.046   7.958   2.296
43379W        W15694  44.847   9.123   4.134
43380W        W15695  27.178  33.964   9.791
43381W        W15696  39.527  25.184  10.213
43382W        W15697  28.980  29.819   3.600
43383W        W15698  15.639  43.795  12.452
43384W        W15699   3.453  25.710   0.338
43385W        W15700  21.324   9.882  13.223
43386W        W15701  17.774  20.215  11.719
43387W        W15702  29.363  34.118   4.555
43388W        W15703  40.860  14.114   2.602
43389W        W15704   3.504  36.465   4.021
43390W        W15705  39.501  21.515   3.811
43391W        W15706  24.461   0.326  12.791
43392W        W15707   5.388   0.899  14.869
43393W        W15708  44.270  29.745  12.500
43394W        W15709  34.664  23.527   4.028
43395W        W15710  31.208   8.289   3.628
43396W        W15711  19.967  12.818  11.544
43397W        W15712  19.010  32.375  14.732
43398W        W15713   9.515   9.245   1.268
43399W        W15714  23.587  42.007  11.545
43400W        W15715   3.860  38.852  13.559
43401W        W15716  21.531  16.179   1.437
43402W        W15717   4.637  35.630  11.431
43403W        W15718  32.674   6.862   3.645
43404W        W15719   0.143  15.239   0.759
43405W        W15720   2.117   4.891   3.147
43406W        W15721  30.498  40.550  12.433
43407W        W15722  24.047  41.856   3.734
43408W        W15723   3.946  39.251  10.391
43409W        W15724  39.929  44.760  13.417
43410W        W15725  33.518   3.595  14.728
43411W        W15726  31.408  30.422   3.211
43412W        W15727  29.926  25.519   4.125
43413W        W15728  38.074   5.750   0.254
43414W        W15729  29.689   1.375  13.284
43415W        W15730  26.614  20.375  11.618
43416W        W15731  24.639  26.139  13.824
43417W        W15732   9.269  27.196   4.622
43418W        W15733  42.459  33.118  12.552
43419W        W15734  36.595  38.175   3.469
43420W        W15735  22.688  24.595  14.097
43421W        W15736   2.417  33.409  11.905
43422W        W15737  33.181  38.612  12.499
43423W        W15738   2.001  34.614   3.108
43424W        W15739  26.807  13.176  14.495
43425W        W15740   5.788  20.923  11.287
43426W        W15741  41.009  40.378   1.394
43427W        W15742  30.448  40.055   3.787
43428W        W15743  42.089  17.081   0.811
43429W        W15744   8.874  31.934  13.481
43430W        W15745  20.149   8.425   0.502
43431W        W15746  23.978  24.754   1.345
43432W        W15747  41.208  30.484  10.770
43433W        W15748  38.453   2.935  14.392
43434W        W15749   5.683  22.371  14.881
43435W        W15750  12.296  26.066   0.142
43436W        W15751  11.066  17.784  14.246
43437W        W15752  14.283  32.952  14.238
43438W        W15753  29.575  12.204   0.737
43439W        W15754  43.183  36.511   1.327
43440W        W15755  35.391  26.369   2.224
43441W        W15756  27.483  14.397  11.947
43442W        W15757  13.819  39.377  11.516
43443W        W15758  20.652   7.730   1.689
43444W        W15759  25.601  34.954  11.623
43445W        W15760   2.306   0.918  14.473
43446W        W15761  16.818   8.952  10.726
43447W        W15762  17.734  25.281  10.571
43448W        W15763  13.830  13.575  11.078
43449W        W15764  24.540  27.070   3.641
43450W        W15765  43.864  21.554   2.611
43451W        W15766   5.142   9.822  14.772
43452W        W15767   8.570  25.271   3.209
43453W        W15768  35.751  15.901  11.114
43454W        W15769  28.513  40.745   1.921
43455W        W15770  15.872  24.003  12.058
43456W        W15771   1.748   9.674  12.848
43457W        W15772  40.324  22.036  11.139
43458W        W15773   3.529  32.828   4.086
43459W        W15774  12.548  11.931  13.975
43460W        W15775  36.070  44.036   1.306
43461W        W15776  10.523  44.994  13.912
43462W        W15777  42.305  12.773  11.682
43463W        W15778  34.391  30.357   0.200
43464W        W15779  38.420   4.303  11.614
43465W        W15780  34.290  10.846   0.981
43466W        W15781   9.157   8.888  13.861
43467W        W15782  26.552  39.596  13.895
43468W        W15783   7.660  34.398  12.535
43469W        W15784  20.152   3.806  12.455
43470W        W15785   1.198   7.814  11.494
43471W        W15786   0.530  41.771   3.380
43472W        W15787  30.446   3.903  12.523
43473W        W15788   4.813  29.974  11.642
43474W        W15789  39.193  40.333  14.872
43475W        W15790  25.197  42.798   1.916
43476W        W15791  41.406   8.963  10.486
43477W        W15792  19.171  17.338   2.590
43478W        W15793  12.919  35.463   4.135
43479W        W15794   8.635  32.382   1.335
43480W        W15795  36.064  26.153  10.672
43481W        W15796  24.657  38.405   4.760
43482W        W15797  17.757   4.907  14.019
43483W        W15798  14.642  12.661   2.582
43484W        W15799   5.853  21.307  10.954
43485W        W15800  35.385  17.391   4.270
43486W        W15801   9.830   6.526  12.878
43487W        W15802  36.830   5.779   0.809
43488W        W15803  44.062  40.396   0.342
43489W        W15804  40.502  21.651   3.343
43490W        W15805  43.840   2.499  11.494
43491W        W15806  30.983  30.415  12.711
43492W        W15807  37.588  32.530   4.210
43493W        W15808   1.088  33.392   4.163
43494W        W15809  14.670  19.123  13.962
43495W        W15810  23.600  19.586   3.240
43496W        W15811   7.821   9.237   4.653
43497W        W15812  11.311  33.387  14.941
43498W        W15813  39.894  23.018  11.918
43499W        W15814   3.743  23.696  13.550
43500W        W15815  40.516  41.007   1.862
43501W        W15816  12.320   6.029   4.910
43502W        W15817  35.479   8.410  10.755
43503W        W15818  13.503  18.065   4.788
43504W        W15819   7.826  31.935   0.678
43505W        W15820  41.795   6.886   1.480
43506W        W15821  28.890  26.100   2.743
43507W        W15822   7.098   9.962  11.133
43508W        W15823  23.569  38.472   2.959
43509W        W15824  27.227   6.839  14.998
43510W        W15825   1.202  24.501  14.341
43511W        W15826  29.065  39.501  10.859
43512W        W15827  12.270  33.788  11.904
43513W        W15828  21.527  32.841   1.706
43514W        W15829   9.998  25.520  10.602
43515W        W15830  44.974   9.645   1.699
43516W        W15831  43.246  15.808  12.075
43517W        W15832  41.332   7.173   3.391
43518W        W15833  16.679  36.066  10.722
43519W        W15834   6.952  17.321   0.298
43520W        W15835  19.094   2.941   1.947
43521W        W15836  25.749  39.500   0.223
43522W        W15837  35.185  11.501   4.966
43523W        W15838   3.845  39.694  13.111
43524W        W15839  36.311  31.092  11.673
43525W        W15840  32.946  34.363   0.897
43526W        W15841  13.617  35.427   0.015
43527W        W15842  10.392   9.079   4.192
43528W        W15843  23.488   5.511  12.863
43529W        W15844   9.760  10.115   2.670
43530W        W15845  35.425  39.184   1.733
43531W        W15846  43.905  16.548  11.688
43532W        W15847  26.590  33.225  11.488
43533W        W15848  15.116   2.900  13.801
43534W        W15849  23.723  32.243   0.258
43535W        W15850   8.283  14.686  13.559
43536W        W15851  29.492   7.184   2.983
43537W        W15852  44.415  36.317  13.425
43538W        W15853  19.897   3.285  14.455
43539W        W15854  21.115   0.753   0.438
43540W        W15855  23.702  14.197   4.346
43541W        W15856  21.001   4.150   5.065
43542W        W15857  12.193   0.480  10.695
43543W        W15858  11.282  11.883   2.945
43544W        W15859  10.453  36.637   4.169
43545W        W15860  22.558  24.252   4.801
43546W        W15861  15.154  33.579  13.262
43547W        W15862  11.717  10.664   4.101
43548W        W15863   9.242  15.082  12.976
43549W        W15864   6.780  19.112  10.537
43550W        W15865  26.480  27.165   0.386
43551W        W15866  24.273  11.447  14.067
43552W        W15867  31.746  21.519   4.615
43553W        W15868   0.328  20.167   0.638
43554W        W15869  30.085   3.946   3.670
43555W        W15870  13.135  12.234   0.987
43556W        W15871  44.248  26.055   1.850
43557W        W15872  19.591   3.701   3.640
43558W        W15873   8.725   3.535  13.977
43559W        W15874  23.412  33.481   1.724
43560W        W15875  32.859   5.689   2.333
43561W        W15876  30.597  25.550   2.295
43562W        W15877  30.721  11.574  12.763
43563W        W15878  25.496   5.621  10.830
43564W        W15879  18.161   9.291  13.366
43565W        W15880  34.475  15.159   2.235
43566W        W15881   0.062  33.216   9.968
43567W        W15882  22.973  13.601  13.989
43568W        W15883   5.471  41.466  14.412
43569W        W15884  27.071   0.176   4.485
43570W        W15885  26.119  37.619   5.182
43571W        W15886   2.220  44.935  12.546
43572W        W15887   5.007  39.823   4.061
43573W        W15888  33.103  43.766  13.981
43574W        W15889   6.916   7.259  14.976
43575W        W15890  10.286  18.071  10.989
43576W        W15891   8.543   7.280   4.492
43577W        W15892  23.580  35.113   0.145
43578W        W15893  44.252   0.864  13.018
43579W        W15894  14.693  33.854   4.631
43580W        W15895  36.043   8.507   2.869
43581W        W15896  16.173  15.681  12.691
43582W        W15897  36.092  38.232   0.853
43583W        W15898  30.881  44.872   0.399
43584W        W15899  20.768   2.265   4.056
43585W        W15900  22.252   3.449  12.121
43586W        W15901  33.465  42.014  12.512
43587W        W15902  27.026  35.095  11.716
43588W        W15903  21.219  37.901   3.691
43589W        W15904   2.415  38.467  14.533
43590W        W15905  15.811  37.960  10.816
43591W        W15906  10.713  28.452  13.482
43592W        W15907  25.238  13.281  13.983
43593W        W15908  37.527  33.010   3.567
43594W        W15909  10.743  22.643  10.329
43595W        W15910  35.427  15.702   4.063
43596W        W15911  32.033  30.606  11.088
43597W        W15912  10.422  43.448   3.107
43598W        W15913  27.216   8.575   2.284
43599W        W15914   5.719  39.877   0.812
43600W        W15915  32.561  20.314   3.188
43601W        W15916  10.420  31.582   1.836
43602W        W15917  40.256  40.557   3.545
43603W        W15918  17.080  24.984   1.226
43604W        W15919  10.422  20.337  11.428
43605W        W15920  26.169  22.251  11.645
43606W        W15921  12.748  26.521  13.497
43607W        W15922  12.675  10.648   4.129
43608W        W15923  33.136  14.641  11.699
43609W        W15924  12.958  10.626   1.798
43610W        W15925  19.799  32.050  13.037
43611W        W15926  39.856  13.622  10.708
43612W        W15927  30.819  28.072  12.157
43613W        W15928   2.157   2.687   2.565
43614W        W15929  31.382  11.151  10.943
43615W        W15930   4.702   0.393  11.574
43616W        W15931  42.458  19.225  10.650
43617W        W15932  32.520  15.276  12.366
43618W        W15933  40.329  25.107   2.889
43619W        W15934  19.672  37.424   4.106
43620W        W15935  37.634  38.568   4.669
43621W        W15936   3.712  29.190   1.652
43622W        W15937  39.859   9.707   4.172
43623W        W15938  33.472  39.080  13.333
43624W        W15939  33.942  30.802  11.984
43625W        W15940   3.956  42.916   1.417
43626W        W15941  41.045  17.210  12.424
43627W        W15942   9.974  39.469  12.420
43628W        W15943  43.917  41.982  13.956
43629W        W15944   8.625   4.704  13.361
43630W        W15945  16.345  12.643  14.557
43631W        W15946  28.021  17.138  11.679
43632W        W15947   8.709  37.378  10.381
43633W        W15948   4.723   0.487   4.151
43634W        W15949   8.359  21.848  13.116
43635W        W15950  31.520   8.511   0.955
43636W        W15951  37.474  25.258  12.010
43637W        W15952  17.689  32.321  10.268
43638W        W15953  20.513   1.980   4.597
43639W        W15954  13.838  14.269   0.711
43640W        W15955   0.795  23.614  13.410
43641W        W15956  43.950  12.653  11.126
43642W        W15957  12.380  15.497   1.839
43643W        W15958  26.310   3.882  10.855
43644W        W15959   8.309   4.709   3.043
43645W        W15960   4.654   6.385  12.568
43646W        W15961  27.703  42.857   3.678
43647W        W15962  32.608  12.261  11.629
43648W        W15963   2.320  35.225   4.609
43649W        W15964  22.285  15.898  14.782
43650W        W15965  28.602  27.881  13.527
43651W        W15966   2.049  31.120  14.940
43652W        W15967   1.434  43.227   0.788
43653W        W15968  10.230  24.054  10.396
43654W        W15969  12.732  16.132   3.228
43655W        W15970  42.412  24.266  12.841
43656W        W15971  10.876  30.024   3.729
43657W        W15972  18.921  22.606   2.296
43658W        W15973  22.933   3.818  14.549
43659W        W15974  17.193  41.973   1.842
43660W        W15975   6.765   9.249  12.569
43661W        W15976  40.421   1.136   3.222
43662W        W15977   3.725  25.654  11.442
43663W        W15978  21.011   1.020  10.645
43664W        W15979  27.930  28.252  14.762
43665W        W15980   1.510   6.281   0.794
43666W        W15981   5.104  35.963   3.309
43667W        W15982  37.375  27.122   0.769
43668W        W15983  22.547  28.441  11.135
43669W        W15984  29.612  37.576   4.053
43670W        W15985  19.919  39.924  13.353
43671W        W15986  20.012   0.018  14.253
43672W        W15987  28.394  41.594   3.092
43673W        W15988  21.003  44.638  13.380
43674W        W15989  10.305  33.840   3.706
43675W        W15990  25.175   3.662  14.806
43676W        W15991  22.840  11.667  13.425
43677W        W15992  32.399  32.560  11.255
43678W        W15993  39.107  43.352   1.608
43679W        W15994  11.781  35.953  10.455
43680W        W15995  18.236  42.620   3.195
43681W        W15996  40.282   6.419  14.457
43682W        W15997  42.372  16.654   0.960
43683W        W15998  31.197  38.506  12.107
43684W        W15999   3.138   1.355  11.870
43685W        W16000   0.086  40.268   1.413
43686W        W16001  43.815  11.394   3.978
43687W        W16002  19.340  37.508   3.276
43688W        W16003  14.350  11.514  13.324
43689W        W16004  37.994   9.544   1.296
43690W        W16005  27.928  10.676   4.762
43691W        W16006  44.924  20.601  14.485
43692W        W16007  19.719  38.858   3.647
43693W        W16008  18.797   7.515   1.182
43694W        W16009  10.973  25.568   2.582
43695W        W16010  35.900  35.486  14.029
43696W        W16011  19.680  29.902  10.577
43697W        W16012   5.754  27.383   3.673
43698W        W16013  26.280  40.165  14.414
43699W        W16014   1.764   4.704  12.108
43700W        W16015   5.208   0.953   1.862
43701W        W16016  35.351   2.430  13.174
43702W        W16017  12.767  13.623   0.810
43703W        W16018  44.017   5.274  13.858
43704W        W16019   7.098  40.339  13.433
43705W        W16020  19.039  27.098  12.476
43706W        W16021  31.549  22.533   1.298
43707W        W16022  42.109  30.429  10.760
43708W        W16023   8.316   4.694  13.775
43709W        W16024   6.442  41.240   4.204
43710W        W16025  23.965  36.091  10.361
43711W        W16026  36.400  10.610   1.827
43712W        W16027  30.062  26.008   4.083
43713W        W16028  12.669  13.023   0.768
43714W        W16029  17.305  28.928   0.798
43715W        W16030  20.649   6.934   4.190
43716W        W16031  31.484  44.363   1.856
43717W        W16032  37.960  41.865   0.714
43718W        W16033   1.903  19.228   0.718
43719W        W16034  14.467   9.301  12.688
43720W        W16035  26.071  19.712   1.763
43721W        W16036   1.673  15.803  11.525
43722W        W16037  26.521  26.263   3.514
43723W        W16038  21.255  32.476   3.483
43724W        W16039  38.024  34.473   4.229
43725W        W16040   4.176  28.699   1.304
43726W        W16041   3.746  20.034  14.777
43727W        W16042  20.563  43.223   3.699
43728W        W16043  15.190  23.626   1.708
43729W        W16044  13.076  21.740   4.069
43730W        W16045  42.271  36.426   3.365
43731W        W16046  42.326  23.164  11.374
43732W        W16047  18.969  39.813  11.133
43733W        W16048  22.606  20.324   2.510
43734W        W16049  11.728  12.611   4.152
43735W        W16050  16.234  38.007   3.782
43736W        W16051   2.315   4.884  14.736
43737W        W16052  23.968  37.986  14.827
43738W        W16053  10.454  11.177   4.483
43739W        W16054   8.262  44.965  13.533
43740W        W16055  43.283  25.397  12.896
43741W        W16056  42.026  11.850  14.435
43742W        W16057  18.529  27.579   1.618
43743W        W16058  14.984   6.249  12.363
43744W        W16059  21.538  42.264  12.379
43745W        W16060  29.683  42.859   3.658
43746W        W16061  26.355  40.764  10.551
43747W        W16062  38.164  16.500  11.729
43748W        W16063  15.790  30.912  13.048
43749W        W16064   9.865  14.093   4.125
43750W        W16065  31.969  36.640  13.520
43751W        W16066  31.987   7.710   1.955
43752W        W16067  22.669  30.177  13.459
43753W        W16068  30.021  15.285  12.934
43754W        W16069  40.415  37.532   4.093
43755W        W16070  17.653  14.357  12.934
43756W        W16071  25.771  21.007  11.463
43757W        W16072  20.822  31.980  12.085
43758W        W16073   6.977  35.966   2.892
43759W        W16074  39.769   0.436  11.087
43760W        W16075  16.638  20.306   4.083
43761W        W16076  10.531   2.294  10.432
43762W        W16077  23.529   4.076  12.369
43763W        W16078  11.209  42.057  11.575
43764W        W16079  24.885  25.167   3.196
43765W        W16080  37.852   3.402   1.160
43766W        W16081  24.533  19.236   2.216
43767W        W16082  24.024  32.952   4.070
43768W        W16083  15.823  33.863   3.599
43769W        W16084  36.360   9.335   4.362
43770W        W16085  37.304  16.429   3.257
43771W        W16086  39.669  31.034  13.924
43772W        W16087   0.663  11.786  13.846
43773W        W16088  26.255   8.803  11.139
43774W        W16089  18.798   9.690  13.747
43775W        W16090  32.083   3.784  14.977
43776W        W16091  11.262   1.649   2.372
43777W        W16092  27.231  18.771   3.717
43778W        W16093  33.443   3.973  11.602
43779W        W16094   5.083  42.277  13.936
43780W        W16095  19.653  12.148   1.363
43781W        W16096  12.727  34.790   2.617
43782W        W16097  43.246  26.468   0.743
43783W        W16098  41.910  38.379  14.945
43784W        W16099   9.643  21.004   0.421
43785W        W16100  19.572  41.880  12.756
43786W        W16101   2.208   1.888   0.495
43787W        W16102  13.860   5.678   3.579
43788W        W16103  21.481  28.184  11.522
43789W        W16104  43.263  10.081   3.821
43790W        W16105   2.174  10.222  12.137
43791W        W16106  33.526   2.938   3.876
43792W        W16107  18.737  14.643   2.164
43793W        W16108  44.741  39.849  10.772
43794W        W16109  36.820   0.796  13.758
43795W        W16110   5.925  24.967   2.834
43796W        W16111  34.812  14.173   0.353
43797W        W16112   9.192   9.542   4.565
43798W        W16113  32.250  41.966   4.163
43799W        W16114  16.663   8.756  13.827
43800W        W16115  32.521   2.698   0.214
43801W        W16116  39.430  15.287   3.362
43802W        W16117   2.375  44.909  11.842
43803W        W16118  16.225  14.465   3.603
43804W        W16119  19.594  15.274  11.539
43805W        W16120   1.221   0.069  14.307
43806W        W16121  14.820   4.299   2.826
43807W        W16122  23.235   1.004   0.737
43808W        W16123  31.575  10.591  14.851
43809W        W16124  34.358  18.647  12.460
43810W        W16125   8.808  40.219   0.373
43811W        W16126   9.866  42.487  14.267
43812W        W16127  13.149   7.555  11.445
43813W        W16128  10.080  19.105   5.041
43814W        W16129  22.815  40.418  13.353
43815W        W16130  24.644  13.810   0.024
43816W        W16131  15.812  20.635  14.391
43817W        W16132  26.801  19.587   4.071
43818W        W16133  28.649  40.558   2.365
43819W        W16134  28.713  40.525  14.393
43820W        W16135  29.221  13.216   1.804
43821W        W16136  37.503  33.882   3.145
43822W        W16137  22.148  41.948  12.291
43823W        W16138  29.722   8.203  11.590
43824W        W16139  16.232   2.427  14.306
43825W        W16140  13.725   3.450  11.357
43826W        W16141  26.609  24.619   0.473
43827W        W16142  32.483   8.009  11.110
43828W        W16143  42.387   7.241   4.601
43829W        W16144  27.037  31.974   9.759
43830W        W16145  33.184  21.300   2.395
43831W        W16146  36.464  24.603  10.381
43832W        W16147  16.761  18.269  10.625
43833W        W16148   3.710  18.784  14.263
43834W        W16149   7.669  41.159   2.754
43835W        W16150  32.624  34.594  13.863
43836W        W16151  44.395   8.868  14.272
43837W        W16152  37.030  42.326  14.842
43838W        W16153  28.579  42.741   1.781
43839W        W16154  27.238  39.383  13.360
43840W        W16155  22.718   4.447  12.363
43841W        W16156   0.865   8.644   4.357
43842W        W16157  33.878  20.771  12.607
43843W        W16158   9.905  32.446  13.020
43844W        W16159  35.360  43.501   1.178
43845W        W16160  39.841  12.166   3.543
43846W        W16161   5.301  29.503   0.010
43847W        W16162  42.898   7.391   4.705
43848W        W16163  27.422  15.219  13.898
43849W        W16164  29.067  15.174  10.598
43850W        W16165  33.098  10.960  10.724
43851W        W16166  15.833  39.473  10.524
43852W        W16167  44.699  41.201   2.681
43853W        W16168  38.417  29.072  13.614
43854W        W16169  32.630  13.717  11.571
43855W        W16170  36.412  39.058  13.426
43856W        W16171  26.494   3.341  13.076
43857W        W16172  42.572  37.273  13.943
43858W        W16173  22.020  43.654   0.382
43859W        W16174  37.347  43.302  11.941
43860W        W16175  10.747   5.646  14.614
43861W        W16176  27.981   5.911  11.279
43862W        W16177  30.591  28.148  11.690
43863W        W16178  27.539  12.678   3.874
43864W        W16179  16.834  17.400   0.363
43865W        W16180  13.021  22.276  14.354
43866W        W16181  44.380  17.643   1.980
43867W        W16182   6.085  36.869   2.321
43868W        W16183  20.148  42.106  11.363
43869W        W16184  12.401  38.041  12.035
43870W        W16185  26.683   7.666  12.518
43871W        W16186  41.762  36.444   1.845
43872W        W16187  20.949  44.412   4.165
43873W        W16188  32.539  20.032   2.733
43874W        W16189  29.636  37.426  12.623
43875W        W16190  30.405   2.980   2.619
43876W        W16191  37.656   5.292  12.478
43877W        W16192   9.707  40.220  11.675
43878W        W16193  13.100  14.201  11.716
43879W        W16194   4.849   3.186  12.022
43880W        W16195  31.586  38.637   1.872
43881W        W16196   2.742  26.604  13.971
43882W        W16197  16.234  11.652   2.272
43883W        W16198  20.240  21.058  11.878
43884W        W16199  35.159   5.776  13.529
43885W        W16200  41.515   9.870  11.045
43886W        W16201  11.837   7.894  13.083
43887W        W16202   2.383   0.938   4.665
43888W        W16203   3.733  11.103  12.447
43889W        W16204  38.779  23.099   4.296
43890W        W16205  40.346  15.630  14.874
43891W        W16206  32.945   0.248   4.297
43892W        W16207  29.697  17.273   9.983
43893W        W16208   3.420  20.774   3.803
43894W        W16209  29.093  42.968   1.177
43895W        W16210  33.513  20.612  11.207
43896W        W16211  32.397  27.110  12.472
43897W        W16212  27.068  31.981   0.292
43898W        W16213  44.010  33.412  11.032
43899W        W16214  19.523   2.390  14.795
43900W        W16215  10.786  18.041   0.712
43901W        W16216   5.819  42.846  10.679
43902W        W16217  13.684   2.874  14.943
43903W        W16218   8.084  20.690  14.937
43904W        W16219  35.166  23.114   0.397
43905W        W16220  25.897  43.598  13.932
43906W        W16221   2.088  15.485  12.881
43907W        W16222  14.731  18.836  10.690
43908W        W16223  13.105  34.990   4.320
43909W        W16224  34.398  17.182  11.746
43910W        W16225  28.019   6.862  11.865
43911W        W16226  18.775   1.558  13.900
43912W        W16227  40.744  24.628   0.447
43913W        W16228  12.916  30.981   2.158
43914W        W16229  14.214  20.600  13.873
43915W        W16230  36.933  39.461   3.370
43916W        W16231  42.901  17.724   3.216
43917W        W16232  14.839  19.006   3.907
43918W        W16233  36.971  11.328  14.731
43919W        W16234  18.294  34.578  14.087
43920W        W16235  27.395   7.296  14.099
43921W        W16236  17.196  35.967  10.648
43922W        W16237  39.856  26.879  11.817
43923W        W16238  33.899  25.006   2.359
43924W        W16239   1.721  37.533   2.164
43925W        W16240  40.158  41.373   2.659
43926W        W16241  24.425  17.331   4.359
43927W        W16242   1.977  15.481   3.203
43928W        W16243  30.376  15.604  10.719
43929W        W16244  19.291  31.196  13.407
43930W        W16245  40.289  37.269   0.689
43931W        W16246  33.363  40.916   0.819
43932W        W16247  16.991   2.860  11.535
43933W        W16248   6.270  38.835  10.666
43934W        W16249  21.609  43.116   1.668
43935W        W16250   5.529  27.878   0.709
43936W        W16251  21.560   9.792   0.660
43937W        W16252  38.366  42.867  14.859
43938W        W16253  24.954  23.816   1.812
43939W        W16254  32.543  30.126   4.401
43940W        W16255   0.239  40.563   1.807
43941W        W16256  43.388   8.702  12.508
43942W        W16257  32.738   2.782  11.837
43943W        W16258  19.133  35.877  10.603
43944W        W16259   1.986  25.458  13.827
43945W        W16260   3.438  21.524  14.223
43946W        W16261  34.986   5.683  12.700
43947W        W16262   5.374  44.849  14.265
43948W        W16263   9.438  10.287   4.404
43949W        W16264   5.294   7.925   2.765
43950W        W16265  30.002  44.839  11.672
43951W        W16266   1.285  10.720   0.231
43952W        W16267  30.700  24.167   5.141
43953W        W16268  30.973  19.134   2.526
43954W        W16269   0.483  13.340   1.625
43955W        W16270   4.437  22.193  10.619
43956W        W16271  22.333  30.089  12.114
43957W        W16272  40.152  30.126  13.855
43958W        W16273  32.820  31.370  10.595
43959W        W16274   3.547  32.979  11.739
43960W        W16275  31.397  15.115   0.805
43961W        W16276  19.660  39.515  10.605
43962W        W16277  21.046  15.947   4.576
43963W        W16278   1.443   0.311  13.592
43964W        W16279   8.108  42.069   2.763
43965W        W16280   7.281  13.765  13.615
43966W        W16281  32.537  16.709   0.437
43967W        W16282   7.377  20.287   2.696
43968W        W16283  11.801   7.517  11.556
43969W        W16284  36.150  30.596   4.513
43970W        W16285  30.028  35.485   3.661
43971W        W16286  24.004   8.616  11.592
43972W        W16287   2.885   9.878   0.375
43973W        W16288  16.684  39.064  14.291
43974W        W16289  29.700  29.127   2.684
43975W        W16290  26.605  33.668   3.156
43976W        W16291   1.894  22.525  13.440
43977W        W16292   5.010  28.558  13.380
43978W        W16293  15.094  34.938   3.676
43979W        W16294  26.097   6.753   9.552
43980W        W16295   2.280  27.039   2.711
43981W        W16296  44.577  16.121  14.770
43982W        W16297  11.252  11.923  14.481
43983W        W16298   3.483  22.933   0.699
43984W        W16299  44.755  17.300   1.788
43985W        W16300  24.030  29.900  13.365
43986W        W16301  29.112  36.880  12.057
43987W        W16302  10.415  40.192   1.675
43988W        W16303  16.275  37.567   4.606
43989W        W16304   1.527  18.704  13.637
43990W        W16305  18.250  11.607   5.322
43991W        W16306  14.070   4.517  12.002
43992W        W16307  30.993  35.021   4.691
43993W        W16308  10.818   4.108  11.752
43994W        W16309  26.163  34.510  14.847
43995W        W16310  15.783  42.393  10.712
43996W        W16311   3.013   4.722   1.332
43997W        W16312  25.143  35.324   4.263
43998W        W16313   1.277  23.778  10.712
43999W        W16314  30.553  16.885  12.139
44000W        W16315  26.000  41.389   0.776
44001W        W16316   0.698  20.691  13.816
44002W        W16317  40.654  14.391  10.574
44003W        W16318  23.821  20.034   1.738
44004W        W16319  16.791  18.915  14.501
44005W        W16320  16.633  11.178   0.271
44006W        W16321  33.728  11.395  14.563
44007W        W16322   7.187  11.152  13.475
44008W        W16323   8.853  30.424  14.326
44009W        W16324  42.707  17.212  14.495
44010W        W16325  28.148   3.503  12.732
44011W        W16326   2.382  16.469   4.241
44012W        W16327   2.918   6.742   2.858
44013W        W16328  32.427  43.124   2.570
44014W        W16329  32.044   9.279  10.745
44015W        W16330   7.618  15.681  11.643
44016W        W16331  28.936  33.490   4.161
44017W        W16332  30.499  20.033   1.393
44018W        W16333   4.577  33.788   5.093
44019W        W16334  44.481  37.270   3.871
44020W        W16335  20.037  30.950   0.899
44021W        W16336   7.782  27.693  13.369
44022W        W16337   7.912  42.521  13.396
44023W        W16338   3.772  17.796  13.469
44024W        W16339  31.803  41.408   4.888
44025W        W16340   4.453   2.233  10.540
44026W        W16341  16.093  43.574   5.072
44027W        W16342  41.296  23.340  12.553
44028W        W16343  21.396   3.148   5.157
44029W        W16344  32.352  12.879   2.723
44030W        W16345  22.169  29.203  12.059
44031W        W16346   4.367  36.614   2.920
44032W        W16347  14.645  39.585   4.915
44033W        W16348  28.857  41.203  13.576
44034W        W16349   9.125  17.776  12.022
44035W        W16350  38.614   0.385   0.443
44036W        W16351  37.910  19.737  12.427
44037W        W16352   0.292   5.310  14.488
44038W        W16353   7.826  12.925   2.051
44039W        W16354  37.022  43.388   3.986
44040W        W16355  39.117  30.051  12.041
44041W        W16356  28.705   3.245   2.799
44042W        W16357  10.238  22.152  13.501
44043W        W16358  40.857  13.128   2.593
44044W        W16359  33.639  36.920   1.431
44045W        W16360   1.274   6.249   0.323
44046W        W16361  20.863  24.448   3.800
44047W        W16362  20.554  21.164  12.781
44048W        W16363  43.329  32.154   0.442
44049W        W16364  14.688  40.074  13.868
44050W        W16365  11.948  23.048   4.552
44051W        W16366  21.376   0.295   4.124
44052W        W16367  23.728  29.426  12.562
44053W        W16368   5.931  30.056   1.617
44054W        W16369  16.047   9.384  10.606
44055W        W16370  22.277  32.195   0.472
44056W        W16371  11.754   4.772  13.750
44057W        W16372  23.614   2.835  13.830
44058W        W16373   9.111  39.293   1.840
44059W        W16374  42.853  40.881  11.588
44060W        W16375  20.555  35.475   3.343
44061W        W16376  24.177  16.138   3.951
44062W        W16377   8.486  18.969  12.207
44063W        W16378  32.162  12.089  13.907
44064W        W16379  11.647  37.158  14.811
44065W        W16380   6.196   5.886   2.976
44066W        W16381  19.402   7.677  14.341
44067W        W16382   3.766   8.109  12.704
44068W        W16383  12.419  39.299   1.299
44069W        W16384  39.257   3.962  11.146
44070W        W16385  14.902  13.935  14.942
44071W        W16386   2.238  12.638  13.739
44072W        W16387  41.423  10.218   2.355
44073W        W16388  17.064  25.989  13.769
44074W        W16389  14.406   5.920  10.418
44075W        W16390   0.836  10.947   1.899
44076W        W16391  19.840  37.585   3.224
44077W        W16392  37.801  16.729   4.192
44078W        W16393  24.522  34.988  14.227
44079W        W16394   3.333  21.966   1.702
44080W        W16395  28.037  11.779   1.887
44081W        W16396  15.790   0.237   3.694
44082W        W16397  41.390   0.434  10.686
44083W        W16398  28.495  26.549   3.664
44084W        W16399  43.871   4.120   0.629
44085W        W16400  31.143  33.512   4.403
44086W        W16401  12.283  43.475   0.163
44087W        W16402  43.934  30.858  14.398
44088W        W16403  30.869  31.581   1.700
44089W        W16404   2.822  19.192   2.852
44090W        W16405  26.135   1.874   1.376
44091W        W16406   3.406   8.340  14.432
44092W        W16407  24.619  15.133  14.701
44093W        W16408  21.833  14.539  12.644
44094W        W16409  11.974  33.010  14.360
44095W        W16410   2.655  33.632   9.994
44096W        W16411  36.603  20.348   3.744
44097W        W16412  22.074  24.652   2.806
44098W        W16413  15.924  24.373   3.716
44099W        W16414  27.674  35.598  12.120
44100W        W16415  22.197   3.845  12.428
44101W        W16416   3.240  22.318  10.367
44102W        W16417   4.058  12.637   3.485
44103W        W16418  19.705  34.019  11.654
44104W        W16419  35.389  23.656   2.313
44105W        W16420  24.194  23.682   0.275
44106W        W16421  38.787  23.041   2.357
44107W        W16422   4.413   2.751  13.890
44108W        W16423  34.798  16.563  12.927
44109W        W16424  22.862   4.382  11.295
44110W        W16425  10.482  23.764   3.653
44111W        W16426  15.718  17.808   2.193
44112W        W16427   2.488  28.540   0.025
44113W        W16428  27.938  13.280  13.468
44114W        W16429   4.639  41.325  13.926
44115W        W16430  23.831  21.965   2.709
44116W        W16431  19.106  32.803   4.373
44117W        W16432  43.899   2.145   4.130
44118W        W16433   3.259  43.107  13.960
44119W        W16434  33.520  24.039   1.242
44120W        W16435  44.320  35.397   3.750
44121W        W16436  23.323  12.850  12.953
44122W        W16437  36.334  36.551   0.770
44123W        W16438  40.903  43.936   1.325
44124W        W16439  39.614   5.933  13.362
44125W        W16440  29.529  17.679   0.839
44126W        W16441  20.656  30.520   1.353
44127W        W16442  38.891  43.207  13.829
44128W        W16443   6.923  40.322   4.054
44129W        W16444   9.150  37.959  14.410
44130W        W16445  12.698  20.342  13.019
44131W        W16446  21.214   3.336   1.411
44132W        W16447  23.530  15.997  10.628
44133W        W16448  23.423  38.480  11.152
44134W        W16449   4.159  40.538   4.514
44135W        W16450  11.354  25.766   0.756
44136W        W16451   1.647   6.206  14.928
44137W        W16452  24.537   0.378   1.889
44138W        W16453  27.470  23.998  12.494
44139W        W16454   0.262   3.258  14.020
44140W        W16455   6.232  14.207  14.454
44141W        W16456  27.958   1.137  13.020
44142W        W16457   7.778  33.151  11.130
44143W        W16458  12.830  20.214   2.131
44144W        W16459  19.470  28.669   9.487
44145W        W16460   1.781  24.651   3.739
44146W        W16461  30.693  43.792  12.761
44147W        W16462   0.217   2.710  12.944
44148W        W16463   4.727   6.819   2.320
44149W        W16464  29.155  36.408  13.783
44150W        W16465  16.782  43.300   4.343
44151W        W16466  41.283   9.889  10.589
44152W        W16467  43.829  43.970  14.287
44153W        W16468  31.056   9.826  13.994
44154W        W16469  29.949  44.577  13.549
44155W        W16470  11.932  30.485   2.855
44156W        W16471   3.544  17.243   2.000
44157W        W16472  29.190  20.224  12.936
44158W        W16473  41.399  24.838  15.000
44159W        W16474  33.528  34.126  13.664
44160W        W16475  36.414  25.759   4.557
44161W        W16476  20.172   2.740  10.766
44162W        W16477  44.057   0.340   0.922
44163W        W16478  24.503  20.611   3.715
44164W        W16479  17.759  25.110   4.180
44165W        W16480   4.159   5.280  14.219
44166W        W16481  42.798  21.736   0.242
44167W        W16482  24.556   2.191   0.414
44168W        W16483   3.865  17.617  12.129
44169W        W16484  25.734  16.175  13.546
44170W        W16485  44.227  10.235   4.186
44171W        W16486   6.754  17.683   1.668
44172W        W16487  26.615  33.646  14.026
44173W        W16488  41.003  15.609   3.710
44174W        W16489   4.226  17.602  14.404
44175W        W16490  41.954  16.146  12.652
44176W        W16491  36.024  16.830   2.712
44177W        W16492  43.441  39.367  14.360
44178W        W16493  37.240   5.755  12.154
44179W        W16494  19.656  44.967   2.448
44180W        W16495  11.828   3.796  13.332
44181W        W16496  39.711  19.396  10.823
44182W        W16497  19.615  12.558   3.477
44183W        W16498  32.711   1.128  11.176
44184W        W16499   2.152   1.794  13.833
44185W        W16500  15.103  35.061  10.356
44186W        W16501  30.218  38.009   1.713
44187W        W16502  25.712  39.101  12.995
44188W        W16503  10.371   1.397  14.929
44189W        W16504   9.163   3.758   3.536
44190W        W16505  27.616   8.247   2.371
44191W        W16506  39.631  19.245  14.074
44192W        W16507  36.008  13.893   2.249
44193W        W16508   9.316  40.748  14.898
44194W        W16509  35.979   8.347   3.825
44195W        W16510  15.050  42.532   0.882
44196W        W16511  39.380  16.995   1.785
44197W        W16512  35.417  18.278  14.060
44198W        W16513  21.068  23.054  10.611
44199W        W16514  30.512   9.616   3.535
44200W        W16515  11.949  21.007  11.903
44201W        W16516  15.713  31.848  11.229
44202W        W16517  25.619  28.022  12.564
44203W        W16518  17.347  14.400  13.548
44204W        W16519  10.270   4.758   0.442
44205W        W16520  16.602  16.763   2.264
44206W        W16521  34.706  29.059  11.213
44207W        W16522  41.857  17.768  11.605
44208W        W16523  27.179  16.596  11.013
44209W        W16524  14.460  31.113  11.994
44210W        W16525   0.331  29.707   3.598
44211W        W16526  15.781   4.005  10.484
44212W        W16527  17.045  28.458  13.901
44213W        W16528  34.482  19.187  13.035
44214W        W16529   2.022  31.109  12.560
44215W        W16530  10.721   0.783   0.175
44216W        W16531  24.639   4.166   3.779
44217W        W16532  34.911  33.387   4.111
44218W        W16533   5.843  31.969  11.464
44219W        W16534  40.381  10.183   1.426
44220W        W16535  31.728  22.042   2.598
44221W        W16536  40.525   3.478   1.832
44222W        W16537  14.791  33.640   0.301
44223W        W16538  16.915  39.383   0.746
44224W        W16539   0.305  34.948  14.105
44225W        W16540   8.931  31.870  14.385
44226W        W16541  17.769  27.082  12.569
44227W        W16542   6.658  22.363  12.151
44228W        W16543  17.342  28.469  10.977
44229W        W16544  28.083  29.582  12.372
44230W        W16545  33.845  30.083  14.482
44231W        W16546  35.382   9.640  14.472
44232W        W16547   8.863  38.827   1.825
44233W        W16548  23.240  21.805  14.005
44234W        W16549  41.327   2.773   1.772
44235W        W16550  31.009  25.666  14.155
44236W        W16551  29.644   9.149   1.679
44237W        W16552  30.677  43.840   3.657
44238W        W16553   5.537   4.329  10.303
44239W        W16554  35.000  34.870   3.130
44240W        W16555   3.500   6.271  14.449
44241W        W16556   6.124  16.043  10.574
44242W        W16557  29.432   7.834  10.654
44243W        W16558   8.919  18.269  14.728
44244W        W16559  12.631   4.807  11.383
44245W        W16560  39.953  29.885   1.786
44246W        W16561  29.588   3.928  13.550
44247W        W16562  33.480   8.294  11.003
44248W        W16563  37.382   4.610   1.400
44249W        W16564  33.453  42.434   0.283
44250W        W16565  11.098  21.482  14.928
44251W        W16566  28.998  13.461   3.519
44252W        W16567  37.931  44.229   1.177
44253W        W16568   1.504  22.174   1.709
44254W        W16569  40.571  44.418   1.428
44255W        W16570   2.351   0.306  13.612
44256W        W16571  31.954  39.420  14.352
44257W        W16572  43.528  15.759   2.564
44258W        W16573  19.269   4.241   0.467
44259W        W16574  37.476  33.909   1.744
44260W        W16575  24.665  13.747  12.525
44261W        W16576  29.958  19.840   1.297
44262W        W16577  27.976  28.571   1.897
44263W        W16578  10.753   4.919   3.678
44264W        W16579  14.249  25.089   0.488
44265W        W16580  37.392  33.177  14.890
44266W        W16581  44.472   0.492   1.207
44267W        W16582  34.690  37.754  10.213
44268W        W16583  17.178  17.191  12.441
44269W        W16584  17.366   4.947   0.818
44270W        W16585   8.831  14.177   2.105
44271W        W16586  19.031  18.947  12.403
44272W        W16587  10.712  19.526   0.449
44273W        W16588  22.155  32.219   3.354
44274W        W16589  36.053  37.425  13.203
44275W        W16590  17.176   3.738   3.238
44276W        W16591   8.247  23.532   1.589
44277W        W16592  35.692  29.849   0.829
44278W        W16593  40.284   7.334   1.302
44279W        W16594  23.672  25.223   0.979
44280W        W16595  32.014   7.406  12.965
44281W        W16596  38.616  33.290   3.151
44282W        W16597  16.694  24.307  12.560
44283W        W16598  35.588  15.417  12.067
44284W        W16599  44.464  24.650  14.813
44285W        W16600   9.735  33.527   1.598
44286W        W16601   0.269  28.871   4.138
44287W        W16602   6.401  21.227   1.685
44288W        W16603   9.754   1.195  10.604
44289W        W16604  38.096  37.263   3.334
44290W        W16605  36.844  31.495  11.831
44291W        W16606  16.077  20.488  13.917
44292W        W16607  35.797   4.481  14.756
44293W        W16608   2.439   4.895  12.746
44294W        W16609  41.737  37.449   3.645
44295W        W16610  11.453   8.855  11.535
44296W        W16611   4.475  35.682   1.401
44297W        W16612   7.673  18.532   3.700
44298W        W16613  22.088  43.450   4.798
44299W        W16614  36.285  44.474  11.135
44300W        W16615  30.726  18.411   2.874
44301W        W16616   5.796  32.107  13.020
44302W        W16617  43.695  37.576   1.815
44303W        W16618   4.513  22.303   4.518
44304W        W16619  42.827  31.445  12.527
44305W        W16620  28.420  16.850  11.542
44306W        W16621  22.222  30.952  12.620
44307W        W16622  23.974  32.948  12.588
44308W        W16623  12.666  20.793  14.483
44309W        W16624  14.221   0.068  12.994
44310W        W16625  39.009  21.642   3.701
44311W        W16626  39.581   5.310   3.170
44312W        W16627  29.017  34.117   0.463
44313W        W16628   7.165   4.677  11.934
44314W        W16629  43.272   4.744   4.296
44315W        W16630  16.569  35.228  11.912
44316W        W16631  32.154  10.736  12.308
44317W        W16632  42.406  27.985   1.913
44318W        W16633   7.334  18.251  12.963
44319W        W16634  38.339  32.335  13.809
44320W        W16635  10.390  25.500   4.209
44321W        W16636   5.360  37.759   1.310
44322W        W16637   5.355  23.982   1.386
44323W        W16638   8.807  41.712  11.587
44324W        W16639  41.841  36.621   0.506
44325W        W16640   8.088   5.797   4.166
44326W        W16641  43.397   2.438  12.991
44327W        W16642  32.650  28.662   0.508
44328W        W16643  43.099  43.892  12.392
44329W        W16644  41.337  30.624  13.946
44330W        W16645  34.821  42.652  10.207
44331W        W16646   2.360  42.760   4.171
44332W        W16647  35.814  13.592  11.680
44333W        W16648  21.474  24.388   4.789
44334W        W16649  31.769   2.261  13.315
44335W        W16650  27.568  37.449  11.186
44336W        W16651  25.787  38.527   0.196
44337W        W16652   9.004  21.588   0.318
44338W        W16653  39.543  24.047  13.508
44339W        W16654  40.190  25.236  12.376
44340W        W16655  41.357   6.444  13.156
44341W        W16656  14.557  26.878   0.311
44342W        W16657  35.958  31.998  10.582
44343W        W16658  36.808  11.436   1.833
44344W        W16659   6.939   6.304   3.268
44345W        W16660   9.333  13.780  12.358
44346W        W16661   4.890  12.364  13.426
44347W        W16662  31.566  20.126   3.405
44348W        W16663   2.923  28.740   2.757
44349W        W16664  36.559  15.162   4.385
44350W        W16665   2.253  31.963  12.076
44351W        W16666  33.005  20.759  11.187
44352W        W16667  43.308  23.101   4.865
44353W        W16668   9.601   4.376   2.745
44354W        W16669  15.131  41.078  12.328
44355W        W16670  41.058  29.603  13.838
44356W        W16671  26.964  40.565   0.304
44357W        W16672  35.988  21.116   4.758
44358W        W16673  33.222  15.755   3.376
44359W        W16674  27.530  39.645   3.892
44360W        W16675  31.482  43.261   0.667
44361W        W16676  13.226   8.072  11.507
44362W        W16677  24.936  10.137  14.576
44363W        W16678   7.722  19.463   2.157
44364W        W16679  10.247  23.257   0.288
44365W        W16680  21.538  18.548  14.427
44366W        W16681   8.417  44.479   4.492
44367W        W16682  11.007  32.150   2.440
44368W        W16683  32.208  17.762   2.714
44369W        W16684  12.753   8.675  14.957
44370W        W16685   7.836  30.449   4.983
44371W        W16686  44.526   4.710   0.337
44372W        W16687   1.316  16.805  11.994
44373W        W16688   0.702  16.537   1.947
44374W        W16689  22.332  32.149  11.637
44375W        W16690  41.590  43.553  12.426
44376W        W16691  39.077  25.113  11.505
44377W        W16692   7.069  19.812  11.204
44378W        W16693  27.455  22.978   3.276
44379W        W16694  29.110  25.759  12.425
44380W        W16695  14.202  37.894   0.768
44381W        W16696   6.430  44.911  12.070
44382W        W16697  24.000  26.379   2.273
44383W        W16698  31.428   5.297   0.761
44384W        W16699   6.718   0.864  14.432
44385W        W16700  38.275   7.775  10.832
44386W        W16701  23.215  38.559  10.672
44387W        W16702  16.614  38.985   0.946
44388W        W16703  12.517  11.350  11.022
44389W        W16704  30.822   4.736  12.452
44390W        W16705  20.599  23.132  11.440
44391W        W16706  25.456  10.127   1.693
44392W        W16707  41.542  13.690  12.041
44393W        W16708  17.378  41.650   1.392
44394W        W16709  38.417  10.597  11.222
44395W        W16710   1.746  20.499   1.985
44396W        W16711  21.476  26.642  12.237
44397W        W16712  14.114  14.179   2.203
44398W        W16713  16.686  11.898   2.423
44399W        W16714  15.136   1.421   1.533
44400W        W16715  34.091  25.621  12.070
44401W        W16716  31.930  29.583  12.460
44402W        W16717  10.622  17.605   1.897
44403W        W16718   9.304  32.146   0.739
44404W        W16719   2.384  38.396   0.080
44405W        W16720  26.612  26.124  10.167
44406W        W16721   0.687  24.500   2.805
44407W        W16722  41.517  17.318   3.678
44408W        W16723  23.068  14.953  14.415
44409W        W16724  21.819  28.977   1.697
44410W        W16725  15.709  30.231   9.786
44411W        W16726  30.546  31.081  11.116
44412W        W16727   4.882  14.374  11.911
44413W        W16728  30.779   0.805  13.399
44414W        W16729  19.443   3.403  14.232
44415W        W16730   3.756   6.461   3.060
44416W        W16731  14.054  14.853   4.196
44417W        W16732  15.259  39.011   3.682
44418W        W16733  26.499  20.019  13.450
44419W        W16734  19.957  17.778   2.670
44420W        W16735  23.255  28.883   0.902
44421W        W16736  11.317   7.043  13.016
44422W        W16737  35.069  15.706  14.336
44423W        W16738   3.786   7.775   2.653
44424W        W16739  10.083  16.175  12.920
44425W        W16740  41.351  38.704   4.535
44426W        W16741  29.760   1.804  12.981
44427W        W16742  29.644   6.932  12.937
44428W        W16743  20.497  19.285  10.648
44429W        W16744  13.876  16.821  11.960
44430W        W16745  26.194  44.371  13.408
44431W        W16746  37.459   8.918  12.825
44432W        W16747   1.899   2.335   4.968
44433W        W16748  11.062  31.073   4.166
44434W        W16749  22.134   4.067   0.027
44435W        W16750  37.068  32.624   3.287
44436W        W16751   1.390  32.533   4.369
44437W        W16752  27.006   2.183  11.055
44438W        W16753  41.428  38.810  13.408
44439W        W16754  36.973  37.090   0.461
44440W        W16755   6.759  15.260  13.076
44441W        W16756  16.128   5.361  12.176
44442W        W16757  15.328  30.435   0.714
44443W        W16758   8.084  28.517  12.410
44444W        W16759   1.562  29.073   4.557
44445W        W16760  30.108   4.421   0.997
44446W        W16761  43.714  30.423  14.250
44447W        W16762  11.740   0.185   2.702
44448W        W16763   2.720  20.331   4.210
44449W        W16764  26.596  24.638   1.380
44450W        W16765  33.314  12.189  10.910
44451W        W16766  14.790  39.841   2.566
44452W        W16767   7.223  16.478   1.724
44453W        W16768   1.590  28.036   1.749
44454W        W16769   8.310  25.138   3.834
44455W        W16770  16.841  43.068  10.715
44456W        W16771   3.201  31.412  10.722
44457W        W16772  19.136  26.133   0.302
44458W        W16773  37.053  19.588  10.943
44459W        W16774   8.297  32.403  11.904
44460W        W16775  33.367  28.140  11.996
44461W        W16776  29.902  37.413   0.317
44462W        W16777  10.200   6.983  11.145
44463W        W16778  23.545  27.414  14.970
44464W        W16779  38.798  29.007   0.910
44465W        W16780  41.819  34.156   1.338
44466W        W16781  32.663  19.814   3.605
44467W        W16782  42.304  41.495  11.898
44468W        W16783  41.559   2.283  11.589
44469W        W16784  35.086  19.243   2.295
44470W        W16785   9.389  42.707  14.003
44471W        W16786   0.890   8.550   2.701
44472W        W16787  23.929  12.750   3.586
44473W        W16788  25.660  18.650   1.024
44474W        W16789   7.010  44.850  12.767
44475W        W16790   9.921  31.032   5.003
44476W        W16791  17.312   8.429   3.708
44477W        W16792   7.240   0.986  10.799
44478W        W16793  24.285  20.343   2.835
44479W        W16794  25.076  44.467   1.922
44480W        W16795  11.097   2.131  11.584
44481W        W16796  35.813  26.031  11.101
44482W        W16797  20.343  36.675  12.095
44483W        W16798  21.616  27.999  13.267
44484W        W16799   4.468  12.872   0.341
44485W        W16800   9.371  10.909   0.883
44486W        W16801  40.546  34.939   2.637
44487W        W16802  30.605  13.813   0.346
44488W        W16803   1.692  28.579   3.673
44489W        W16804  28.696  25.370   0.886
44490W        W16805  40.393  42.383   0.263
44491W        W16806  26.183  22.579  10.990
44492W        W16807   6.015   4.553   4.160
44493W        W16808   1.193  16.374   1.859
44494W        W16809  25.634  12.333   3.693
44495W        W16810   0.593   1.472  10.209
44496W        W16811  41.909   3.519  13.880
44497W        W16812  11.602  37.091   3.591
44498W        W16813  33.938   7.419   1.694
44499W        W16814   1.743  16.475  10.742
44500W        W16815   4.945   5.767  11.126
44501W        W16816  15.106  35.006   2.333
44502W        W16817   6.824  13.382   0.323
44503W        W16818  10.088  31.017  13.329
44504W        W16819  31.576   5.223   1.804
44505W        W16820  17.744  22.217   1.198
44506W        W16821  43.037  30.421   4.476
44507W        W16822   7.412  27.154  12.858
44508W        W16823  28.539  14.577  11.259
44509W        W16824   6.969  20.566   3.349
44510W        W16825  28.694  34.883   2.559
44511W        W16826   7.887  17.248  10.758
44512W        W16827   4.280  10.343   4.898
44513W        W16828  10.947  11.842  13.054
44514W        W16829  24.536  20.670  11.417
44515W        W16830  40.947   6.841  11.968
44516W        W16831  42.740   2.013  12.878
44517W        W16832  21.463  14.766   0.327
44518W        W16833  19.769   9.330  10.868
44519W        W16834  19.722   3.148   4.282
44520W        W16835  21.524   6.782   1.974
44521W        W16836  36.161  22.960   0.036
44522W        W16837  11.741  11.863   1.138
44523W        W16838  26.599  31.866   4.604
44524W        W16839  44.086   8.243   1.481
44525W        W16840   6.948  19.288  12.048
44526W        W16841  34.373  37.009   3.368
44527W        W16842  16.156  11.369  11.839
44528W        W16843  34.334  41.525  13.868
44529W        W16844  10.246  19.822  13.243
44530W        W16845  29.708  25.467  11.185
44531W        W16846  22.546  29.108  10.382
44532W        W16847   5.441   1.519  12.414
44533W        W16848  28.536  41.662   0.808
44534W        W16849  24.749  27.761   0.858
44535W        W16850   9.470  21.782   0.287
44536W        W16851  10.661  18.087   1.256
44537W        W16852  38.870  23.749   4.261
44538W        W16853  42.886  16.510   2.853
44539W        W16854  36.876  43.168   4.821
44540W        W16855   2.265  33.824  11.028
44541W        W16856  25.448  10.763  13.209
44542W        W16857  17.096  12.687   1.779
44543W        W16858  12.071  33.029  11.611
44544W        W16859  40.514   5.358   2.922
44545W        W16860  44.048  40.525  13.120
44546W        W16861  10.831  20.936   0.431
44547W        W16862  16.546   6.357   3.074
44548W        W16863  32.006  33.913  10.660
44549W        W16864   3.614  18.763   4.569
44550W        W16865  13.244  31.955   3.094
44551W        W16866  24.709  28.741  12.041
44552W        W16867  30.643  42.342  11.442
44553W        W16868  38.134  35.066  12.411
44554W        W16869  12.362  15.171   0.301
44555W        W16870   8.293  35.842   1.493
44556W        W16871  11.163  41.034  10.725
44557W        W16872  26.414   3.762   4.890
44558W        W16873  35.330  30.985   3.242
44559W        W16874  25.124  42.476  14.815
44560W        W16875   7.060  10.615   1.739
44561W        W16876  43.964  28.904   3.759
44562W        W16877  18.036  40.457  14.923
44563W        W16878  25.374  37.919   2.768
44564W        W16879  24.205  30.655  10.736
44565W        W16880  17.064  34.385   0.852
44566W        W16881  29.633  29.626   2.850
44567W        W16882  28.048  40.805   1.679
44568W        W16883  22.095  12.926  14.816
44569W        W16884  32.175   6.945   4.570
44570W        W16885  28.197  32.947   4.106
44571W        W16886  40.382  38.246   2.582
44572W        W16887   3.507   9.673   3.353
44573W        W16888  25.135  38.981   4.294
44574W        W16889   9.008  31.178   0.976
44575W        W16890  31.031  11.695   2.689
44576W        W16891  35.912  29.415  12.909
44577W        W16892  23.037   0.122  11.614
44578W        W16893  15.763  19.088   4.269
44579W        W16894  19.563  29.079  12.920
44580W        W16895  35.119  33.098  10.920
44581W        W16896  32.137  42.261   3.177
44582W        W16897  14.845  29.160   0.891
44583W        W16898   5.817  37.516   2.223
44584W        W16899  40.071   3.759   4.076
44585W        W16900   1.246   8.908   2.810
44586W        W16901  35.924   1.433   4.178
44587W        W16902  25.197   4.922   3.654
44588W        W16903   8.105   4.824  13.291
44589W        W16904  30.235  28.529   4.104
44590W        W16905  37.980  39.125  11.589
44591W        W16906   1.987  44.200  11.626
44592W        W16907  26.405   6.937  11.487
44593W        W16908  35.968  30.593  12.549
44594W        W16909   9.316   7.803  11.449
44595W        W16910  28.588   4.465  12.891
44596W        W16911  33.510  16.551  12.993
44597W        W16912  39.710  40.357  14.873
44598W        W16913  42.763  22.900  10.729
44599W        W16914  13.843   9.885  12.953
44600W        W16915  26.693  17.707   4.594
44601W        W16916   2.521  12.584  10.923
44602W        W16917  14.625  28.021  12.558
44603W        W16918   2.242  42.871  11.477
44604W        W16919  22.128  26.696   3.713
44605W        W16920  36.381   7.139  12.168
44606W        W16921   8.671   9.909   4.904
44607W        W16922  33.002   1.195  12.403
44608W        W16923  37.341  25.950  14.440
44609W        W16924  13.894   6.348  12.439
44610W        W16925  11.984  12.322   0.346
44611W        W16926  20.806  13.148  14.430
44612W        W16927  15.678  15.841   1.718
44613W        W16928  18.004  37.325  10.653
44614W        W16929  26.740  32.548   0.885
44615W        W16930  20.424   7.358  11.553
44616W        W16931  18.222  18.709   2.382
44617W        W16932   8.733   9.788   0.245
44618W        W16933  22.240  33.736  13.033
44619W        W16934  37.541  31.804  14.053
44620W        W16935  28.669  13.163   1.221
44621W        W16936  40.368   5.152  12.457
44622W        W16937   6.737  16.666  13.085
44623W        W16938  26.447  40.543   0.362
44624W        W16939  12.145  12.268  13.430
44625W        W16940  32.468  28.436   4.170
44626W        W16941  37.631  25.664   0.384
44627W        W16942  31.554  41.312   4.014
44628W        W16943  18.055   7.950  10.700
44629W        W16944  18.212  36.369   0.598
44630W        W16945  39.542  20.601   3.794
44631W        W16946  32.447   8.700  12.045
44632W        W16947   9.018   7.753  12.933
44633W        W16948  34.954  40.378  10.720
44634W        W16949  25.930  31.548   1.682
44635W        W16950  17.043  34.664  14.096
44636W        W16951  28.388  33.936  14.253
44637W        W16952  31.946  12.631  12.733
44638W        W16953  36.550   2.621   0.392
44639W        W16954  13.660  18.057   2.765
44640W        W16955  16.643  40.395   9.837
44641W        W16956  37.786  43.239   1.298
44642W        W16957  23.467  28.528  13.007
44643W        W16958  25.054   4.246  10.996
44644W        W16959  38.129   9.282  12.800
44645W        W16960   5.174  19.740   4.515
44646W        W16961  31.579  33.467   2.709
44647W        W16962  43.499  28.606   2.184
44648W        W16963   1.448   5.808   1.709
44649W        W16964  37.104   4.194  11.091
44650W        W16965  19.028  38.000   3.238
44651W        W16966  21.290  21.689  10.621
44652W        W16967  10.149  20.071  10.465
44653W        W16968  26.771  29.612   4.772
44654W        W16969   1.102  21.892  12.625
44655W        W16970  38.987  37.486  12.130
44656W        W16971  14.328  21.401  12.522
44657W        W16972  13.165  19.303   2.780
44658W        W16973   3.475  28.767  11.114
44659W        W16974  41.401  21.352   2.330
44660W        W16975  31.092  38.022   2.699
44661W        W16976   4.082  39.470  12.315
44662W        W16977  14.615  19.656  12.948
44663W        W16978   3.484  14.305   1.814
44664W        W16979  21.582  12.358   4.667
44665W        W16980  24.816   6.766   4.808
44666W        W16981  20.245  11.783   1.711
44667W        W16982  33.415  43.820  14.938
44668W        W16983  33.088  27.909  12.360
44669W        W16984  41.391  14.147   0.970
44670W        W16985  25.878  34.087   0.655
44671W        W16986   7.375  14.314   2.319
44672W        W16987  43.224  26.070  13.362
44673W        W16988  14.766  40.937  12.656
44674W        W16989  31.528   9.596  14.888
44675W        W16990  24.527   0.656  14.421
44676W        W16991  23.258  41.093   0.946
44677W        W16992  12.175  22.809   0.246
44678W        W16993  36.852   8.177   3.288
44679W        W16994  32.519  36.254   3.614
44680W        W16995  22.463  36.494  10.762
44681W        W16996  41.441  17.782   3.882
44682W        W16997  11.721  24.967  11.174
44683W        W16998   3.261  44.033  11.550
44684W        W16999  25.854  18.017   5.040
44685W        W17000   5.719  39.878  14.866
44686W        W17001  37.895  32.641  13.611
44687W        W17002  31.601  32.120   2.712
44688W        W17003  21.168  22.497   2.923
44689W        W17004   6.844   3.793  13.850
44690W        W17005  22.226  28.766   1.968
44691W        W17006   5.142  13.851   0.823
44692W        W17007  25.427   1.119   3.330
44693W        W17008   7.149  10.744   0.814
44694W        W17009   8.273  18.272   2.761
44695W        W17010  26.411   0.288   2.789
44696W        W17011   7.897  15.213   2.280
44697W        W17012   1.101  38.095  12.365
44698W        W17013   7.301  24.150   0.730
44699W        W17014  13.847  13.070   1.276
44700W        W17015  17.551  35.015  13.524
44701W        W17016  16.813  21.313  12.446
44702W        W17017  10.238  31.087  14.241
44703W        W17018  42.849  43.665  11.061
44704W        W17019   2.001  41.602  10.999
44705W        W17020   2.225  32.957  11.764
44706W        W17021  44.986  12.648  10.228
44707W        W17022   5.923  36.431  13.026
44708W        W17023  41.959  31.430  10.700
44709W        W17024  23.712  39.119  11.818
44710W        W17025  28.483  35.719  14.050
44711W        W17026   0.363  22.252   4.133
44712W        W17027  16.264   8.204  12.607
44713W        W17028  44.745  37.223  12.838
44714W        W17029  35.186  41.293  12.474
44715W        W17030  30.298  26.900  14.420
44716W        W17031  28.377  40.525  11.474
44717W        W17032  14.669   7.653   4.154
44718W        W17033  32.687   5.902  12.837
44719W        W17034  38.854   5.197   0.795
44720W        W17035  17.082   8.251  10.663
44721W        W17036  20.091  12.346  14.792
44722W        W17037   2.056  27.658   3.237
44723W        W17038  41.233  35.776  11.504
44724W        W17039  43.976  30.651   0.761
44725W        W17040  35.394  36.138   1.416
44726W        W17041   0.510  31.312   1.454
44727W        W17042  39.319  26.498  12.376
44728W        W17043  28.889  20.580   2.805
44729W        W17044  30.036  19.004   3.352
44730W        W17045  43.675  44.828  11.749
44731W        W17046  36.116  36.831  11.118
44732W        W17047  18.690  24.981   2.314
44733W        W17048   4.810  37.354   3.750
44734W        W17049   7.307  11.456   3.735
44735W        W17050   0.178   0.917  13.818
44736W        W17051  42.983   2.238   4.956
44737W        W17052  17.893  39.269  11.308
44738W        W17053   9.809  10.116   3.562
44739W        W17054  19.532   5.971  11.248
44740W        W17055  16.528  10.949   3.696
44741W        W17056  28.252  15.367   4.041
44742W        W17057   1.173  20.318   0.279
44743W        W17058  16.543  19.659  12.920
44744W        W17059  42.370  16.600   2.817
44745W        W17060  23.306  40.889   4.629
44746W        W17061  14.605  10.836   4.686
44747W        W17062  13.173  19.131  10.869
44748W        W17063  18.011  24.220   1.833
44749W        W17064  40.576   3.329  14.248
44750W        W17065  14.169  43.010  11.918
44751W        W17066  11.625  21.093   2.878
44752W        W17067  43.089  34.512  12.491
44753W        W17068   7.759  23.718   4.764
44754W        W17069   1.923  20.047   3.190
44755W        W17070  36.735  18.335  10.171
44756W        W17071  16.683  21.826  10.981
44757W        W17072  32.604  32.109   1.354
44758W        W17073  44.053  12.306  12.591
44759W        W17074  30.489  23.865   4.794
44760W        W17075   1.276   4.694  11.697
44761W        W17076  25.625  15.279  13.783
44762W        W17077  16.220  30.343   9.878
44763W        W17078   3.899  38.522   3.389
44764W        W17079  42.722   1.839  11.056
44765W        W17080  18.254  36.343   2.076
44766W        W17081  14.165  40.804   1.902
44767W        W17082  28.630  25.659   1.336
44768W        W17083  36.630  34.400   4.544
44769W        W17084   4.274  25.459  12.905
44770W        W17085  29.850  26.535  13.161
44771W        W17086  23.279  19.976  13.316
44772W        W17087   9.671  19.210   4.200
44773W        W17088  35.686  37.529   3.031
44774W        W17089  30.367   6.184   2.319
44775W        W17090  25.925   6.886   4.142
44776W        W17091  33.709  20.987   2.560
44777W        W17092  33.592   0.452   2.669
44778W        W17093  33.411  18.589   1.728
44779W        W17094   9.377   5.740  13.045
44780W        W17095  32.875  14.188  11.557
44781W        W17096  17.914  38.422  14.746
44782W        W17097  44.083  10.498   0.724
44783W        W17098   7.893   7.238   3.602
44784W        W17099   9.187   6.143   3.591
44785W        W17100  44.560  24.196   0.601
44786W        W17101   6.400  11.875   5.076
44787W        W17102  16.101  12.435   2.791
44788W        W17103  39.888  26.715   2.657
44789W        W17104  21.483   9.646   2.888
44790W        W17105  30.918   9.674   4.058
44791W        W17106  28.404  31.946  11.969
44792W        W17107   3.488  30.065   3.954
44793W        W17108  37.279  24.275  10.677
44794W        W17109  34.168  30.680   3.629
44795W        W17110  20.124  24.924   3.237
44796W        W17111  42.914   5.118   4.328
44797W        W17112  20.011  17.410  14.811
44798W        W17113  10.649  22.938   9.889
44799W        W17114  10.442  41.679  11.811
44800W        W17115  31.425  24.252   2.882
44801W        W17116   0.012  19.739   3.075
44802W        W17117  24.297  39.649   3.203
44803W        W17118  43.059  36.388  12.863
44804W        W17119  44.523   0.267   2.221
44805W        W17120  41.523  13.861  10.667
44806W        W17121  25.312  29.649   0.808
44807W        W17122  13.383  32.809   3.407
44808W        W17123  16.327  25.793   5.018
44809W        W17124  21.164  16.856   1.664
44810W        W17125  43.401  18.926  14.304
44811W        W17126  43.705  10.316   4.974
44812W        W17127  21.711   0.202  11.615
44813W        W17128  35.027  39.033  13.154
44814W        W17129  32.324  13.547   0.210
44815W        W17130   7.274  11.615   0.259
44816W        W17131  12.159  37.185  14.957
44817W        W17132   8.901  38.614  13.045
44818W        W17133  25.994  42.616  13.990
44819W        W17134  44.158  24.160  13.507
44820W        W17135  37.616   5.820  12.507
44821W        W17136   9.058  18.069  11.566
44822W        W17137   6.482   0.075   3.827
44823W        W17138  25.205  27.139  12.816
44824W        W17139  21.773  25.259  11.664
44825W        W17140  42.186  42.543  13.392
44826W        W17141  17.060  39.792   1.405
44827W        W17142  15.429  34.476  10.167
44828W        W17143  18.718   3.021  12.093
44829W        W17144  16.083  29.487   3.370
44830W        W17145  26.167  12.918  14.714
44831W        W17146  25.762  18.307  10.127
44832W        W17147  27.119  22.975  10.624
44833W        W17148  29.305  12.806   0.145
44834W        W17149  23.022  37.136   1.414
44835W        W17150  31.379   5.695  14.055
44836W        W17151   4.620   2.843  12.979
44837W        W17152  32.486  30.162   0.053
44838W        W17153   1.794  34.907   2.726
44839W        W17154  19.547  35.962  11.527
44840W        W17155   6.704  35.891   0.991
44841W        W17156  23.102  23.005  10.968
44842W        W17157  18.324   6.196   3.908
44843W        W17158  13.280  15.006   0.897
44844W        W17159  32.374  22.820   4.273
44845W        W17160  42.410  30.156   0.516
44846W        W17161  17.393  23.642   4.657
44847W        W17162  13.394   3.569  14.230
44848W        W17163  15.583  19.689  12.018
44849W        W17164  37.508  15.126  14.582
44850W        W17165  14.158   8.533  14.971
44851W        W17166  31.010   6.083   3.678
44852W        W17167   1.014   7.935   3.677
44853W        W17168  30.234  32.328  12.011
44854W        W17169   8.281  35.441  12.993
44855W        W17170  31.091  13.187  12.068
44856W        W17171   5.753   0.719   0.226
44857W        W17172  25.019  19.234  13.979
44858W        W17173  15.771  14.893  12.898
44859W        W17174  18.075  29.138  14.409
44860W        W17175  12.019  20.415   3.259
44861W        W17176   5.238  25.415   1.396
44862W        W17177   2.306  15.046   2.960
44863W        W17178  44.428  16.065   2.727
44864W        W17179   3.302  24.847   1.974
44865W        W17180  33.881  37.548   4.525
44866W        W17181  38.318  33.771   4.856
44867W        W17182  20.551   4.187  11.667
44868W        W17183  13.163   7.207  12.021
44869W        W17184  42.557  43.281  12.616
44870W        W17185   5.132  42.589  10.828
44871W        W17186   1.844  33.484  13.069
44872W        W17187  33.161  39.058   0.517
44873W        W17188   0.390  30.031  12.395
44874W        W17189  28.695   2.297   2.720
44875W        W17190  30.608  39.907  10.529
44876W        W17191  14.152  21.029   4.607
44877W        W17192  44.379   4.939   1.182
44878W        W17193  30.716  41.344  14.639
44879W        W17194   7.731  11.371   1.138
44880W        W17195  32.776  39.938   1.751
44881W        W17196  36.870   4.459  14.528
44882W        W17197  14.849  35.210  14.494
44883W        W17198   4.829   4.402   3.607
44884W        W17199  32.679  19.650   2.331
44885W        W17200  39.947   8.149   0.416
44886W        W17201  33.987  12.852  14.557
44887W        W17202  36.432  38.284  11.582
44888W        W17203  37.569  19.783  13.863
44889W        W17204  19.410  16.756   3.194
44890W        W17205  33.566  43.038   4.385
44891W        W17206  16.329  15.126   0.772
44892W        W17207   1.312   9.600   1.848
44893W        W17208   2.717  38.128   2.669
44894W        W17209   7.300   8.850  12.446
44895W        W17210  44.366  30.549   0.400
44896W        W17211  14.343  15.596  11.479
44897W        W17212  30.544  31.034   1.321
44898W        W17213  14.401  32.801   3.322
44899W        W17214  13.527  41.985  12.425
44900W        W17215   0.427  20.087  14.276
44901W        W17216  32.967  42.127  12.412
44902W        W17217  17.105  21.140   1.874
44903W        W17218  25.302  15.105  11.113
44904W        W17219  31.165  40.655  11.041
44905W        W17220  24.521  13.352   3.230
44906W        W17221  33.945  17.860  14.348
44907W        W17222  17.069  35.105  10.679
44908W        W17223  42.014  15.253   0.846
44909W        W17224  43.274  23.483   3.315
44910W        W17225   2.783  22.511  14.368
44911W        W17226  29.235   1.037   1.906
44912W        W17227  27.504  34.881  11.585
44913W        W17228  38.598  25.049   4.370
44914W        W17229  27.998  23.097   3.201
44915W        W17230   1.164  38.391  14.062
44916W        W17231   7.217  40.119  13.928
44917W        W17232  25.514   2.746   3.539
44918W        W17233   6.874  37.005   3.656
44919W        W17234  44.158  27.084   2.408
44920W        W17235   1.444   9.127  12.540
44921W        W17236  19.902  13.175   0.431
44922W        W17237  21.168  35.295   1.850
44923W        W17238  34.911  24.098   4.561
44924W        W17239  37.310   6.428   0.219
44925W        W17240  21.070  38.241  10.398
44926W        W17241  30.617  23.600  10.837
44927W        W17242  34.881  34.267   1.707
44928W        W17243  34.502  43.575  13.252
44929W        W17244  33.592  11.364   3.671
44930W        W17245   7.889  20.530   0.452
44931W        W17246  22.330  23.094   3.298
44932W        W17247  27.451  10.882   2.230
44933W        W17248  19.360   9.907   0.945
44934W        W17249  29.913   5.799  10.702
44935W        W17250  34.098  36.067   4.087
44936W        W17251  15.284  18.688   0.815
44937W        W17252  23.152   7.968   0.977
44938W        W17253  33.379  34.121  14.983
44939W        W17254  31.053   3.787  13.844
44940W        W17255  29.730  37.543   3.550
44941W        W17256  37.053   1.452   4.112
44942W        W17257  32.118   7.489   9.937
44943W        W17258  43.041  39.956  12.886
44944W        W17259   7.921  35.094  10.644
44945W        W17260  44.371  42.261  13.905
44946W        W17261  44.420  19.492   1.098
44947W        W17262  34.468  13.195  13.365
44948W        W17263   2.228   9.410   4.165
44949W        W17264   6.667  19.178  14.669
44950W        W17265   6.177   8.164  13.429
44951W        W17266   4.433  14.577  12.077
44952W        W17267  11.854  16.486  12.592
44953W        W17268  26.296  31.619   4.217
44954W        W17269  40.368  16.036   1.392
44955W        W17270  44.849  32.208   2.349
44956W        W17271  37.571  43.787  12.068
44957W        W17272  22.848  39.832  12.630
44958W        W17273  32.582  37.145   2.407
44959W        W17274  38.447  29.604   1.867
44960W        W17275  39.596   3.776  14.742
44961W        W17276  24.939  28.957  13.306
44962W        W17277  37.448  42.484  13.095
44963W        W17278  12.354   2.426  11.596
44964W        W17279  21.653  23.704  11.978
44965W        W17280  25.945  19.210   4.077
44966W        W17281   5.372  10.982  12.478
44967W        W17282  17.845  41.993  11.146
44968W        W17283  24.033   7.214  11.648
44969W        W17284   7.808   1.502  13.991
44970W        W17285   6.953  31.742  13.420
44971W        W17286  31.743  40.090   2.747
44972W        W17287  40.483   7.646  13.058
44973W        W17288  39.578  33.838   0.488
44974W        W17289   8.931  13.714  12.696
44975W        W17290   7.283  23.426  13.377
44976W        W17291  16.765  10.713   0.466
44977W        W17292  25.495  44.294   0.755
44978W        W17293  33.024  32.051  12.613
44979W        W17294   6.424   7.624   1.987
44980W        W17295  29.673  31.613  13.947
44981W        W17296  36.423  38.569  14.352
44982W        W17297  19.327  38.170   4.099
44983W        W17298  24.258  29.535  12.547
44984W        W17299   3.019  40.251  11.529
44985W        W17300   1.555  20.039   1.202
44986W        W17301  24.911  16.042  11.253
44987W        W17302  32.558   8.476  12.514
44988W        W17303  22.222  25.398  10.704
44989W        W17304  41.547   6.304   2.672
44990W        W17305   1.873   6.750   3.497
44991W        W17306  26.840  10.029  13.775
44992W        W17307  21.362  31.871  13.002
44993W        W17308  37.486  39.974  10.224
44994W        W17309   4.617  41.116   2.301
44995W        W17310  39.459  14.115  10.708
44996W        W17311  12.261   5.617   1.371
44997W        W17312  16.171  31.002   3.824
44998W        W17313  17.085   1.438  11.953
44999W        W17314  19.562   1.681   1.869
45000W        W17315  21.004  29.452  12.675
45001W        W17316  36.795  38.171   1.259
45002W        W17317  18.148  23.671   3.099
45003W        W17318  25.203  27.300  11.035
45004W        W17319   9.831  14.820   1.853
45005W        W17320  43.352  32.837   3.673
45006W        W17321  42.890  29.759   4.085
45007W        W17322  40.312  22.425  13.791
45008W        W17323  13.614  37.306  12.395
45009W        W17324  35.347  39.849   2.839
45010W        W17325  10.746  25.491  13.269
45011W        W17326  18.335  34.705  12.422
45012W        W17327  40.367  22.552  11.167
45013W        W17328  32.084  24.007   3.665
45014W        W17329   9.651  26.527   2.671
45015W        W17330  30.580  25.735  11.570
45016W        W17331  36.051  28.944  13.821
45017W        W17332  40.946  41.085   1.557
45018W        W17333  19.220  15.781   0.423
45019W        W17334  34.558  23.283  13.578
45020W        W17335  19.161   8.578   2.630
45021W        W17336  29.099   0.054  13.936
45022W        W17337  31.909  17.142  12.851
45023W        W17338   2.006  24.706   1.607
45024W        W17339   1.052  11.701   4.892
45025W        W17340  14.363   3.022   2.832
45026W        W17341  32.930  20.540  11.645
45027W        W17342  10.801   2.210   4.042
45028W        W17343   1.411   6.254   3.758
45029W        W17344  23.544  38.055  11.629
45030W        W17345  17.699   3.931  10.519
45031W        W17346  34.103  22.222  13.755
45032W        W17347  31.322  29.218   0.475
45033W        W17348  41.343  44.547  10.479
45034W        W17349  33.032  43.290   1.782
45035W        W17350   5.217  24.680   4.206
45036W        W17351  18.370  37.038  14.326
45037W        W17352  38.820  31.498  11.947
45038W        W17353  25.772   6.233  12.890
45039W        W17354  39.861   1.830  13.096
45040W        W17355  31.938   5.301   0.947
45041W        W17356   2.892  14.234  11.641
45042W        W17357   6.825  33.583   3.208
45043W        W17358   1.248  23.522   1.000
45044W        W17359  43.535  36.703  13.926
45045W        W17360   6.831  18.721   4.256
45046W        W17361  30.969  21.199   2.432
45047W        W17362  43.452  36.671  14.814
45048W        W17363  30.124  34.028   2.806
45049W        W17364  42.440   2.494  14.374
45050W        W17365   4.396  19.286  12.284
45051W        W17366  43.283  11.039   0.295
45052W        W17367   7.841  33.369   2.767
45053W        W17368  44.288   3.266  10.619
45054W        W17369  17.825   3.977   4.687
45055W        W17370   1.781  34.366   1.806
45056W        W17371  15.855  31.460  13.944
45057W        W17372   6.954  27.330  12.649
45058W        W17373  20.217   5.257   3.615
45059W        W17374  40.331   1.409   2.280
45060W        W17375  20.574  26.238   4.807
45061W        W17376  15.864  12.669   0.335
45062W        W17377  14.293  33.003   2.830
45063W        W17378  41.854  24.865  10.834
45064W        W17379  24.174   4.848   5.158
45065W        W17380  29.573   1.744   1.257
45066W        W17381  23.700   2.168   0.787
45067W        W17382  19.588  22.085   2.680
45068W        W17383  39.877  28.538  12.649
45069W        W17384  43.864  43.579   2.742
45070W        W17385  31.525  22.897   3.183
45071W        W17386  35.408  44.088  13.420
45072W        W17387  43.042  25.178  13.885
45073W        W17388  34.334  30.838  13.500
45074W        W17389  35.663  21.703   3.705
45075W        W17390   1.325  14.749  10.678
45076W        W17391  21.292  19.147  14.479
45077W        W17392  34.964  26.228  12.431
45078W        W17393   3.159  13.031   1.389
45079W        W17394   9.400  18.791   5.007
45080W        W17395   4.430  35.481  12.856
45081W        W17396   9.753  27.033   4.819
45082W        W17397  22.510   2.473  12.713
45083W        W17398  22.148  41.186   0.165
45084W        W17399  34.642  11.907   4.182
45085W        W17400  18.270  21.108   2.911
45086W        W17401   6.482  27.673   3.244
45087W        W17402  40.795  34.467   0.234
45088W        W17403  29.007  41.904   4.101
45089W        W17404  27.437  32.112  11.523
45090W        W17405   3.375  43.359   4.705
45091W        W17406  35.831   2.832  14.203
45092W        W17407  13.929  27.685   0.330
45093W        W17408  23.949  34.441   3.636
45094W        W17409  40.990  25.491   2.417
45095W        W17410  18.734  18.766   2.327
45096W        W17411  18.518  14.412  12.123
45097W        W17412  38.012  15.356  10.472
45098W        W17413  27.108  19.513   4.512
45099W        W17414  12.718   1.255  10.839
45100W        W17415  32.504  34.618   4.184
45101W        W17416  39.716   0.727   4.461
45102W        W17417  30.598  30.483  10.454
45103W        W17418  31.660  39.637  13.969
45104W        W17419  40.867  13.575   3.832
45105W        W17420  16.698  27.274   4.604
45106W        W17421  15.061  29.907   4.061
45107W        W17422  28.326  30.894   1.748
45108W        W17423  28.623  31.394  14.588
45109W        W17424   3.837  20.864  11.395
45110W        W17425  25.261  34.096  11.283
45111W        W17426   0.498  26.386   0.372
45112W        W17427  29.442  31.186  11.951
45113W        W17428  44.798  17.540   3.974
45114W        W17429  42.280  21.956   2.276
45115W        W17430   3.467  32.834  10.165
45116W        W17431  40.789   4.685  13.129
45117W        W17432  33.612  35.864  11.619
45118W        W17433  40.194  37.079  12.488
45119W        W17434   8.551  12.676   4.284
45120W        W17435  37.908   2.916   1.429
45121W        W17436  11.744  43.718   0.786
45122W        W17437  30.128  11.851  14.012
45123W        W17438  24.680   1.910  13.973
45124W        W17439  36.895   4.200  12.082
45125W        W17440  36.118  13.516  13.827
45126W        W17441  18.459   8.189   0.278
45127W        W17442  18.594   9.853   1.642
45128W        W17443  31.507  27.293  12.036
45129W        W17444  22.449   8.244  10.776
45130W        W17445  25.157  30.920   0.260
45131W        W17446  11.738  43.523  13.514
45132W        W17447  37.927  11.751  12.532
45133W        W17448  29.481   9.409  14.210
45134W        W17449  18.749  21.557  10.681
45135W        W17450  21.740  29.576   3.370
45136W        W17451  33.016  15.120   2.934
45137W        W17452   1.391  34.006   1.800
45138W        W17453  22.515  14.702   2.224
45139W        W17454  44.555   8.342   3.716
45140W        W17455  23.295  37.962  11.197
45141W        W17456  25.003  28.925  14.291
45142W        W17457  17.533  16.730  13.312
45143W        W17458   0.156  29.679   2.210
45144W        W17459  44.336  13.944  14.486
45145W        W17460  31.103   6.439   4.717
45146W        W17461  22.548   7.705  10.549
45147W        W17462  15.238  43.338  14.003
45148W        W17463  41.349  27.329   4.209
45149W        W17464  37.190  15.740   2.272
45150W        W17465  13.734  11.429   4.347
45151W        W17466  27.930  22.963  12.997
45152W        W17467  10.431  28.332  13.892
45153W        W17468  39.529  40.695  10.162
45154W        W17469  10.678  36.477  12.591
45155W        W17470   6.117  24.975   5.038
45156W        W17471  21.406  37.947   1.870
45157W        W17472  25.546  15.661   2.541
45158W        W17473   5.391  21.070   4.642
45159W        W17474  33.966  38.367   1.743
45160W        W17475  21.130  20.922  11.709
45161W        W17476  25.970  35.345   3.785
45162W        W17477  19.503  34.874   4.304
45163W        W17478  40.384  32.334   1.998
45164W        W17479  44.232  28.814   0.916
45165W        W17480   3.802  27.000  13.626
45166W        W17481  21.125  10.845   4.139
45167W        W17482   0.129   7.368  14.998
45168W        W17483  43.295  16.618   3.695
45169W        W17484   7.820  32.916   0.984
45170W        W17485  13.919  44.867   2.371
45171W        W17486  35.666   6.644  11.597
45172W        W17487  38.243  23.545  10.995
45173W        W17488   4.906   9.376   0.931
45174W        W17489  41.451  19.806  12.873
45175W        W17490  43.287  16.279  12.978
45176W        W17491   9.249  34.598   4.560
45177W        W17492  26.951  37.780   0.746
45178W        W17493  13.574  21.027  12.938
45179W        W17494  11.246  40.383   2.679
45180W        W17495  32.013  13.278   0.925
45181W        W17496  33.457  32.496   4.710
45182W        W17497  14.153  10.367  10.986
45183W        W17498  25.074  21.841   4.081
45184W        W17499  11.149  16.659  10.111
45185W        W17500  12.567  11.794  14.886
45186W        W17501  41.782  10.543   2.606
45187W        W17502   5.828  34.389  12.538
45188W        W17503   5.959  19.234   0.339
45189W        W17504   2.660  37.046   4.905
45190W        W17505  12.551  35.601  10.864
45191W        W17506  24.429  34.551  13.676
45192W        W17507  30.009  26.496  12.644
45193W        W17508  26.647  37.233   2.105
45194W        W17509  22.619   0.969   3.367
45195W        W17510   1.963  40.096  14.800
45196W        W17511  20.953  26.845  10.227
45197W        W17512  38.922  20.424   4.338
45198W        W17513  33.142  44.286  12.075
45199W        W17514  20.744  37.830   1.253
45200W        W17515  35.104  10.696   4.605
45201W        W17516  16.157  44.378  11.899
45202W        W17517   9.525  32.579   4.497
45203W        W17518   2.170   6.246  14.932
45204W        W17519  14.199  13.512  12.516
45205W        W17520  40.920  28.714  11.193
45206W        W17521  14.364  29.637   2.356
45207W        W17522  34.900  15.210  13.575
45208W        W17523  20.512  24.682  14.391
45209W        W17524   9.539   9.255  14.025
45210W        W17525  28.891  32.570  11.431
45211W        W17526  18.613  16.050   2.784
45212W        W17527  37.302  24.542   1.496
45213W        W17528   3.418  13.548  10.693
45214W        W17529  18.514  31.014   3.277
45215W        W17530   9.233   2.711  11.997
45216W        W17531  20.855  17.884  14.854
45217W        W17532  11.673   1.795   3.207
45218W        W17533  28.234   3.995   4.009
45219W        W17534  22.155   4.772  10.991
45220W        W17535   3.743  18.608  12.776
45221W        W17536  27.008  17.784  13.172
45222W        W17537  29.879  18.169   0.179
45223W        W17538  37.027  28.096  12.526
45224W        W17539  32.440  18.150   4.045
45225W        W17540  41.526   8.633   3.273
45226W        W17541  22.005  16.485   3.613
45227W        W17542  25.785  31.622   4.071
45228W        W17543   9.405  44.822   1.807
45229W        W17544  36.584  12.189   2.632
45230W        W17545  41.909  11.397   2.269
45231W        W17546  42.334  33.538  11.946
45232W        W17547  16.824  33.326  13.450
45233W        W17548  40.905   9.456  12.463
45234W        W17549   9.284  41.373   0.568
45235W        W17550   3.285  17.191  14.735
45236W        W17551  37.136  21.214   0.406
45237W        W17552  23.475  10.854  14.289
45238W        W17553  29.506   1.030   1.050
45239W        W17554  38.963  35.874  11.512
45240W        W17555  35.201  29.897   3.820
45241W        W17556   2.955  43.707   2.441
45242W        W17557  29.921  11.070   0.446
45243W        W17558  26.982   7.256  12.403
45244W        W17559   1.911  10.123  13.076
45245W        W17560   6.824  21.375  13.060
45246W        W17561  28.878  19.320  13.059
45247W        W17562   9.733  15.760  11.283
45248W        W17563   2.511  12.273  12.096
45249W        W17564   4.888  21.305  13.850
45250W        W17565  36.308  20.501  14.468
45251W        W17566  25.237   1.768  10.738
45252W        W17567   3.762  28.703  14.327
45253W        W17568  15.044  14.650   0.892
45254W        W17569  24.639  11.893  14.899
45255W        W17570  10.093  28.504  12.393
45256W        W17571  42.494   3.816   4.912
45257W        W17572  25.162  32.438   2.695
45258W        W17573   2.697  14.254  12.581
45259W        W17574  30.158  34.248   1.117
45260W        W17575  38.806   1.251  13.891
45261W        W17576  20.110   7.250   4.631
45262W        W17577   6.273  20.762   1.874
45263W        W17578  35.495   3.743  13.437
45264W        W17579   8.236   6.259  12.445
45265W        W17580  22.003  27.634  11.159
45266W        W17581  40.960  31.702  11.213
45267W        W17582  37.435  14.311  10.821
45268W        W17583  22.565  40.273  14.203
45269W        W17584  39.825  29.120  13.829
45270W        W17585   4.424   4.851   1.026
45271W        W17586   5.210  21.687   3.239
45272W        W17587   0.446  38.588  11.951
45273W        W17588  21.288  13.313  14.300
45274W        W17589  31.108  21.140  12.374
45275W        W17590  29.073  30.664  14.657
45276W        W17591  15.271  36.780   2.675
45277W        W17592  12.223  22.774   4.875
45278W        W17593   4.761  43.411   4.395
45279W        W17594   2.889  37.618   2.644
45280W        W17595   9.452  13.370  12.086
45281W        W17596  31.577  44.977  13.989
45282W        W17597  27.928   5.390  11.824
45283W        W17598  21.569   7.133   2.811
45284W        W17599  19.467  21.645   4.671
45285W        W17600  19.752  20.154   0.057
45286W        W17601   9.874  17.827  12.596
45287W        W17602  18.981  28.017  12.528
45288W        W17603  27.903  41.462   3.183
45289W        W17604  44.583  18.598  11.092
45290W        W17605   0.234  34.485  14.938
45291W        W17606  36.362  40.321   0.848
45292W        W17607   1.047  14.083  10.234
45293W        W17608  39.819  29.085  11.032
45294W        W17609  12.890  17.572   0.908
45295W        W17610   3.227  11.230  10.272
45296W        W17611  14.112  33.403  13.358
45297W        W17612   7.819  21.037   3.055
45298W        W17613  40.410  15.724  13.980
45299W        W17614  32.269  44.385  13.370
45300W        W17615  20.685  15.634   4.927
45301W        W17616  30.651   8.986   0.746
45302W        W17617   9.208  19.218  12.386
45303W        W17618   9.974  24.956  12.108
45304W        W17619  36.010   6.565  14.263
45305W        W17620  23.203  42.325   4.496
45306W        W17621   7.647  37.073   2.325
45307W        W17622  16.199  32.481  14.184
45308W        W17623  13.236  40.408   1.290
45309W        W17624  35.418  19.679  13.383
45310W        W17625   9.129  18.621  13.023
45311W        W17626  22.973  17.279  11.542
45312W        W17627  29.735   7.393  12.031
45313W        W17628   9.129  19.700  12.665
45314W        W17629   2.116  23.003   2.606
45315W        W17630  13.565  10.144   1.459
45316W        W17631  11.943  29.496  14.864
45317W        W17632  18.959  40.334   5.418
45318W        W17633  18.670  10.582   2.277
45319W        W17634  12.674  20.825  11.599
45320W        W17635  26.431  19.589   2.481
45321W        W17636  38.740   5.967  11.221
45322W        W17637  13.261   6.366  10.744
45323W        W17638  20.843  19.562   0.725
45324W        W17639  11.466  15.301   1.795
45325W        W17640  36.851  33.542   1.882
45326W        W17641  12.665  23.679  14.081
45327W        W17642  38.035  38.488  13.480
45328W        W17643  41.519   4.302   4.069
45329W        W17644  32.011   4.935   1.756
45330W        W17645  44.836  28.538   4.120
45331W        W17646  13.162  34.365   5.077
45332W        W17647  28.399   2.449  12.920
45333W        W17648  16.412  40.190   4.183
45334W        W17649  25.935  42.414   0.324
45335W        W17650   1.369  24.091   4.830
45336W        W17651   9.403  17.279  13.174
45337W        W17652  38.061  11.899   3.132
45338W        W17653  35.278  16.157  12.425
45339W        W17654  26.678  12.015  11.538
45340W        W17655  29.833  22.538   0.791
45341W        W17656   2.658   6.768   1.109
45342W        W17657  20.151   2.725  13.572
45343W        W17658   6.377  30.114   2.968
45344W        W17659  17.270  41.327   0.602
45345W        W17660  43.982   8.078  13.977
45346W        W17661   9.021   7.384  11.533
45347W        W17662  22.528  29.394   4.679
45348W        W17663  29.976   8.185  11.138
45349W        W17664  33.033  16.176  11.983
45350W        W17665   0.206  22.612  13.502
45351W        W17666  38.313   8.762  14.623
45352W        W17667  12.075  30.897   3.170
45353W        W17668  39.456  25.122   4.588
45354W        W17669  36.955  11.324   4.144
45355W        W17670  19.283  18.644  12.041
45356W        W17671  19.064  25.672   3.136
45357W        W17672  33.340   2.989   2.323
45358W        W17673  32.349  13.563  11.966
45359W        W17674  15.260  17.808   3.138
45360W        W17675  22.438  28.647   0.953
45361W        W17676  42.118  24.264   2.307
45362W        W17677   5.005  10.916  13.317
45363W        W17678  40.552  40.903  11.374
45364W        W17679  27.986  34.540   2.246
45365W        W17680  41.772  29.310  11.038
45366W        W17681  24.343  18.545  12.121
45367W        W17682  28.070   4.231  11.959
45368W        W17683  37.558   2.136   1.171
45369W        W17684   0.179  27.102  14.861
45370W        W17685  21.341  13.691  12.838
45371W        W17686   9.189  20.483  12.860
45372W        W17687  38.414  35.150  13.191
45373W        W17688  33.851  44.764  14.774
45374W        W17689  37.522  27.563  13.674
45375W        W17690   0.022  30.202  13.972
45376W        W17691  21.961   7.219   0.999
45377W        W17692  23.111  27.611  14.801
45378W        W17693   8.733   5.354  12.630
45379W        W17694  31.936  12.787  13.262
45380W        W17695  27.936  25.685  12.976
45381W        W17696  21.729  29.033  13.053
45382W        W17697  28.184  40.520  14.423
45383W        W17698  31.599   7.244  11.716
45384W        W17699  39.501   1.322   2.690
45385W        W17700  13.004  31.140  12.699
45386W        W17701  29.142  23.962  14.852
45387W        W17702  22.617  19.420  12.429
45388W        W17703  33.811  26.151  14.533
45389W        W17704   3.265  25.425  12.961
45390W        W17705  20.811  15.708   3.354
45391W        W17706  19.488  38.992  13.532
45392W        W17707  14.609   2.148   2.802
45393W        W17708  20.112   4.850  13.466
45394W        W17709  11.807   0.842   4.690
45395W        W17710  31.632  41.508   3.545
45396W        W17711  13.840  23.673   2.237
45397W        W17712  17.500  32.581   1.176
45398W        W17713  12.921  31.379   1.439
45399W        W17714  13.697  26.667  11.991
45400W        W17715  18.815  16.170   2.321
45401W        W17716   3.316  43.629   1.309
45402W        W17717  17.801  11.368   0.809
45403W        W17718   6.822   1.576  11.159
45404W        W17719  26.262   3.432   1.436
45405W        W17720  40.725  19.874   1.405
45406W        W17721  12.179  33.469  13.012
45407W        W17722  27.152  20.796  12.406
45408W        W17723  44.437  21.999   3.309
45409W        W17724  34.980  28.392  10.723
45410W        W17725   2.701  21.021  12.113
45411W        W17726  20.185  37.708  11.729
45412W        W17727  42.777   0.926   2.289
45413W        W17728  20.153  37.915   2.928
45414W        W17729  24.612  38.982  11.536
45415W        W17730  41.546  22.714   4.108
45416W        W17731  36.905  36.996   4.332
45417W        W17732   0.385  28.334   2.037
45418W        W17733  19.995  26.102  12.756
45419W        W17734  21.160  22.980  14.838
45420W        W17735  10.616  31.391   4.123
45421W        W17736   3.433  20.506  14.064
45422W        W17737   5.221  34.417  11.573
45423W        W17738  37.909  30.094   2.411
45424W        W17739  31.949   5.167   2.902
45425W        W17740  21.716  38.946  11.319
45426W        W17741   4.389   0.424   2.707
45427W        W17742   4.701  31.147  12.031
45428W        W17743  36.092  36.490  12.866
45429W        W17744  35.120  41.396   3.397
45430W        W17745  23.759  15.650  12.856
45431W        W17746   0.459   4.866   4.678
45432W        W17747  26.387  38.931   3.745
45433W        W17748  42.218  25.469  10.964
45434W        W17749  32.554   7.283   0.013
45435W        W17750  40.140   8.406  12.841
45436W        W17751  29.055   7.726  14.225
45437W        W17752  19.193  23.566   4.391
45438W        W17753  16.297  33.861   4.220
45439W        W17754   7.879  24.151   2.147
45440W        W17755  28.773  24.115  12.537
45441W        W17756  28.872  44.286   4.322
45442W        W17757  22.440  42.163   3.096
45443W        W17758  41.558  39.062  14.398
45444W        W17759  35.136  30.139  14.970
45445W        W17760  15.737   6.668   0.098
45446W        W17761   3.813  17.316   4.561
45447W        W17762  42.988  43.047  12.760
45448W        W17763  19.204   3.848   4.299
45449W        W17764  41.761  41.965   2.335
45450W        W17765  23.748   7.156  12.425
45451W        W17766   8.915  19.763   1.917
45452W        W17767  14.771  30.377  14.855
45453W        W17768  19.704   3.590  11.613
45454W        W17769  17.068  29.526   3.758
45455W        W17770  38.569  19.763   3.640
45456W        W17771  40.820  37.396   3.243
45457W        W17772  31.139   7.228  11.447
45458W        W17773  19.139  21.661   1.361
45459W        W17774   9.924   7.472   2.791
45460W        W17775   4.375  23.757  11.569
45461W        W17776  36.600  28.426  12.461
45462W        W17777  21.741  27.400   1.820
45463W        W17778  40.680  42.282   0.713
45464W        W17779  39.068  22.727  14.883
45465W        W17780  42.753  15.513   3.771
45466W        W17781  40.386  37.339  14.751
45467W        W17782  14.175   1.462   4.580
45468W        W17783  25.749  29.428  10.842
45469W        W17784   9.081  23.729   2.145
45470W        W17785  24.080  13.153  11.024
45471W        W17786  19.036  20.259  10.828
45472W        W17787  35.655  23.653  12.409
45473W        W17788  37.990   1.309  12.466
45474W        W17789  38.331   0.349  12.333
45475W        W17790  18.742  12.612  10.308
45476W        W17791  42.226   1.241   4.121
45477W        W17792  25.112   8.613   0.480
45478W        W17793  11.224  33.452   2.193
45479W        W17794  27.034  10.314  11.647
45480W        W17795  20.583  37.568  12.664
45481W        W17796  26.350   0.801   2.726
45482W        W17797  31.141  38.478   4.598
45483W        W17798  31.698   6.451   3.784
45484W        W17799  36.999  35.318   2.236
45485W        W17800  37.968  28.927   0.445
45486W        W17801  32.618   3.799   4.140
45487W        W17802   9.996  32.611   3.369
45488W        W17803   1.398  11.238  11.185
45489W        W17804  41.754   8.122  11.134
45490W        W17805  20.176  29.437  11.658
45491W        W17806  42.516  43.193  10.556
45492W        W17807  14.761   9.746  12.039
45493W        W17808  41.433  42.638   1.666
45494W        W17809  23.238  16.795  13.117
45495W        W17810  24.879  22.260   2.789
45496W        W17811   7.904  12.567  12.505
45497W        W17812  40.260   4.928   2.753
45498W        W17813  23.271  13.184   2.806
45499W        W17814  19.286  37.835   0.018
45500W        W17815   3.309   4.994   4.546
45501W        W17816  32.955   4.945   0.778
45502W        W17817  41.241   2.438  12.538
45503W        W17818  16.202  40.460   5.178
45504W        W17819   3.101  11.079   2.676
45505W        W17820   0.279  27.540  11.920
45506W        W17821  35.879  20.985  11.094
45507W        W17822   9.256  15.616   2.923
45508W        W17823  43.990  18.188   0.820
45509W        W17824  29.531  34.009   0.493
45510W        W17825  18.582  31.864  14.761
45511W        W17826  42.136  19.670  12.328
45512W        W17827  19.481  15.006   4.279
45513W        W17828  25.277  24.616  12.840
45514W        W17829  26.907  25.776  12.332
45515W        W17830   4.976   0.969  11.579
45516W        W17831   0.088  44.976  11.537
45517W        W17832  23.748  21.201  12.918
45518W        W17833   8.202  18.140   0.868
45519W        W17834   3.955  34.647  14.493
45520W        W17835  19.118  32.212  13.430
45521W        W17836  33.402  40.434   0.351
45522W        W17837  41.545  44.798  11.167
45523W        W17838  34.203   3.073  12.007
45524W        W17839   1.295   3.141  13.920
45525W        W17840  41.815  31.216   3.769
45526W        W17841  32.097  17.502  10.914
45527W        W17842  15.082  24.550  12.412
45528W        W17843  26.462  35.879   2.860
45529W        W17844  11.275  12.580  13.879
45530W        W17845  31.589   2.243   3.390
45531W        W17846   5.936  22.590   3.529
45532W        W17847  31.801  30.128   1.893
45533W        W17848  20.251  19.844  14.854
45534W        W17849   9.772  28.515   4.385
45535W        W17850   9.678  41.125  13.031
45536W        W17851   5.406  28.013  14.377
45537W        W17852  14.186   4.727   2.584
45538W        W17853  44.601  16.222   0.812
45539W        W17854  26.604  26.380   0.789
45540W        W17855  10.908  14.212   2.711
45541W        W17856  37.927  37.478  14.272
45542W        W17857  16.539   9.124  12.832
45543W        W17858  34.619  27.489   3.687
45544W        W17859  31.134  20.065  14.275
45545W        W17860   2.165  30.714   5.058
45546W        W17861  15.970  25.620   3.260
45547W        W17862  20.704  27.764  12.514
45548W        W17863  41.878  12.204   3.735
45549W        W17864   5.450   2.429  11.699
45550W        W17865  17.663  33.568  12.873
45551W        W17866  11.886  27.015   3.752
45552W        W17867   1.205  32.097  14.819
45553W        W17868  20.684  20.834   4.865
45554W        W17869  25.247  26.035  14.932
45555W        W17870  33.213  42.399  14.818
45556W        W17871  31.840  27.511   3.057
45557W        W17872  27.803  27.057  13.968
45558W        W17873  40.931  17.436  12.892
45559W        W17874  24.313  27.954  12.975
45560W        W17875  19.389  20.629   3.398
45561W        W17876   4.967  11.356   4.231
45562W        W17877  35.061   7.175  13.450
45563W        W17878  14.289  38.817  10.965
45564W        W17879  19.633  10.830  10.240
45565W        W17880   7.058  21.361  13.522
45566W        W17881  28.697  38.487   1.296
45567W        W17882  21.021   2.820  13.566
45568W        W17883  43.730   0.348   4.113
45569W        W17884  41.536  15.551   2.829
45570W        W17885  18.224  26.008  10.652
45571W        W17886  43.760  25.523   4.643
45572W        W17887   0.878   7.189   0.380
45573W        W17888   0.346  25.548   3.849
45574W        W17889  23.431  37.821  14.885
45575W        W17890  20.694  18.309   4.246
45576W        W17891  12.989  32.961  14.703
45577W        W17892  18.636  29.181  13.802
45578W        W17893   7.031  34.937   0.957
45579W        W17894  33.565  38.433  11.171
45580W        W17895  17.759  24.666   0.797
45581W        W17896  19.266  32.080   0.484
45582W        W17897  32.410   1.919  13.945
45583W        W17898  27.876  43.836   2.390
45584W        W17899  37.431  13.862  13.923
45585W        W17900  26.181  32.471   0.244
45586W        W17901  39.975   2.337   0.320
45587W        W17902  24.705   3.184   3.299
45588W        W17903  42.942  36.898   1.567
45589W        W17904  15.794  19.536   3.410
45590W        W17905  22.761  31.893   2.331
45591W        W17906   0.716  33.088  13.990
45592W        W17907   2.351  31.503  10.479
45593W        W17908  42.285  33.041   0.340
45594W        W17909  15.432  16.578  14.167
45595W        W17910  11.559  36.121   5.010
45596W        W17911  39.592  26.317   4.758
45597W        W17912  20.753  27.676  14.501
45598W        W17913  15.117   5.357  12.532
45599W        W17914  36.316  41.427  11.736
45600W        W17915  14.733  29.709  11.945
45601W        W17916   1.290   5.437   2.863
45602W        W17917   5.334  27.281   4.152
45603W        W17918  41.286  39.559  10.749
45604W        W17919  20.480   9.828   1.952
45605W        W17920  22.120  40.537  11.216
45606W        W17921  18.575  41.052  10.384
45607W        W17922  10.064  19.305   3.317
45608W        W17923   5.130  16.210  10.722
45609W        W17924   3.586   9.861  12.141
45610W        W17925   9.400  37.980   4.180
45611W        W17926  16.384  31.227  10.540
45612W        W17927  35.250  21.633   3.405
45613W        W17928  19.086  43.407   3.766
45614W        W17929  10.377  22.280  10.978
45615W        W17930  38.511  11.812   5.022
45616W        W17931  26.168  31.225  11.882
45617W        W17932  11.427  16.161   3.066
45618W        W17933   1.962  34.741   1.459
45619W        W17934  25.711  14.238  12.141
45620W        W17935   7.084   9.573   2.348
45621W        W17936   1.806  28.091   0.400
45622W        W17937  20.616   1.778  10.745
45623W        W17938  30.739  14.310  14.771
45624W        W17939   0.029  16.672   3.205
45625W        W17940   7.971   5.847  14.367
45626W        W17941  12.213  11.791   4.318
45627W        W17942  11.920  15.361   0.115
45628W        W17943  38.522  37.376  14.071
45629W        W17944  35.616  30.188   3.669
45630W        W17945  16.363  22.067  14.096
45631W        W17946  38.750   1.953  14.163
45632W        W17947  12.772  15.139  14.992
45633W        W17948   3.869   8.689  10.462
45634W        W17949  29.993  43.221   0.961
45635W        W17950  20.094  29.563   2.728
45636W        W17951  32.070  17.309   4.245
45637W        W17952  39.052   9.310  14.582
45638W        W17953  34.308  37.958  13.080
45639W        W17954   5.668  15.572   0.938
45640W        W17955   2.050   5.131   0.887
45641W        W17956  13.639  38.965   1.556
45642W        W17957  44.907  24.196   4.764
45643W        W17958   4.766  15.679  13.030
45644W        W17959   2.038  33.482   0.116
45645W        W17960  35.341  32.442  13.310
45646W        W17961  34.445  43.443   2.233
45647W        W17962  44.283   3.312  14.977
45648W        W17963  29.377  20.066  13.978
45649W        W17964  23.240   8.190  14.833
45650W        W17965   2.802   9.392  14.847
45651W        W17966  44.775  36.391   4.702
45652W        W17967   8.895  33.065  13.938
45653W        W17968  36.761   1.125   2.139
45654W        W17969  22.451  10.369  12.045
45655W        W17970  34.112  15.673  12.024
45656W        W17971  39.017  18.539  14.310
45657W        W17972   2.902   0.806   1.847
45658W        W17973   2.349  29.261   1.651
45659W        W17974  30.389  13.046   1.404
45660W        W17975   4.932  29.685  12.048
45661W        W17976  39.477  28.968   1.709
45662W        W17977  15.129  31.686  13.352
45663W        W17978  31.754  40.532   2.475
45664W        W17979  10.163   1.783   4.723
45665W        W17980  44.280  32.566  14.539
45666W        W17981  34.018  25.958  13.403
45667W        W17982  43.546  12.807   2.312
45668W        W17983  25.538   7.963   4.758
45669W        W17984   1.939  25.570  12.895
45670W        W17985  30.627   1.895  12.067
45671W        W17986  11.632   7.445  10.282
45672W        W17987  12.182  41.376  12.272
45673W        W17988  23.590  39.120   0.165
45674W        W17989  44.845  11.277   1.434
45675W        W17990  37.113  19.030  11.311
45676W        W17991  10.883  44.063  11.151
45677W        W17992  35.912  44.331  13.871
45678W        W17993  38.031  16.435   1.531
45679W        W17994  26.489  36.125  14.891
45680W        W17995  13.862   1.248   4.178
45681W        W17996  42.044  42.411  12.028
45682W        W17997   4.205  11.741  11.078
45683W        W17998  15.629  26.891   9.930
45684W        W17999  34.809  27.813   5.031
45685W        W18000   2.775  11.156  13.461
45686W        W18001   0.256  14.359  14.400
45687W        W18002  34.681  42.490  14.715
45688W        W18003  37.955   5.899  12.892
45689W        W18004  39.021  29.741   3.573
45690W        W18005  42.784  29.372   0.246
45691W        W18006  20.950  42.333   0.904
45692W        W18007   7.623  33.146  12.894
45693W        W18008   6.986  16.631   2.696
45694W        W18009  34.350  30.013  10.477
45695W        W18010   6.106  20.989  13.363
45696W        W18011  17.192  37.147   4.884
45697W        W18012  10.580  24.345  11.626
45698W        W18013  36.397  20.497  13.110
45699W        W18014  23.744  44.835  12.017
45700W        W18015  20.960   6.483   1.422
45701W        W18016  34.443  16.367  13.552
45702W        W18017   7.333  12.684   3.836
45703W        W18018  19.522  17.092  12.474
45704W        W18019  44.963  23.079  14.367
45705W        W18020  26.759  21.022  14.450
45706W        W18021  27.211  12.094  11.568
45707W        W18022  23.240  17.544   2.942
45708W        W18023   2.073   8.691   0.559
45709W        W18024   5.008   5.253   2.242
45710W        W18025  43.571  40.746  11.738
45711W        W18026  20.310   1.919  14.043
45712W        W18027  35.610  23.216   0.023
45713W        W18028   1.686  42.962   2.220
45714W        W18029  42.759  21.978   0.687
45715W        W18030  23.571  44.887  12.974
45716W        W18031  37.086  11.756   3.238
45717W        W18032  38.082   8.540   1.350
45718W        W18033   8.971  18.133   5.095
45719W        W18034  32.909  30.879  12.964
45720W        W18035   2.728  36.363  12.465
45721W        W18036   8.322  17.063  11.578
45722W        W18037  22.673  42.545   2.845
45723W        W18038  40.994  27.560  13.997
45724W        W18039  13.177  25.367   3.813
45725W        W18040  37.447   1.792  13.079
45726W        W18041  17.326  12.236  11.000
45727W        W18042  39.452  26.022   0.848
45728W        W18043  38.035  33.083   2.680
45729W        W18044  35.059  41.502   4.152
45730W        W18045   2.403  20.603  12.592
45731W        W18046   4.799  36.519   2.657
45732W        W18047  27.360  35.613   2.223
45733W        W18048  29.542  41.504   4.313
45734W        W18049  27.011   7.617   2.442
45735W        W18050  27.522   9.495  13.913
45736W        W18051  18.121  14.774   2.913
45737W        W18052  20.524  27.640   4.775
45738W        W18053  33.371  10.373   1.124
45739W        W18054  23.000  11.468   4.275
45740W        W18055   5.352   2.472   2.771
45741W        W18056   6.291  37.553   3.045
45742W        W18057  25.632  15.137  10.721
45743W        W18058   4.826   3.739   4.075
45744W        W18059  40.509  17.349  13.676
45745W        W18060  31.975   2.966  12.460
45746W        W18061  25.115  24.568   3.390
45747W        W18062  40.514  13.372  14.347
45748W        W18063  19.092  42.925  14.349
45749W        W18064  31.800  24.794   3.257
45750W        W18065   5.197  31.856  14.937
45751W        W18066   8.143  16.047   2.727
45752W        W18067  35.952  42.266  10.982
45753W        W18068  27.114  38.906   3.224
45754W        W18069  27.086  29.820   0.437
45755W        W18070  35.640   0.379  13.867
45756W        W18071  32.109  14.693   4.816
45757W        W18072  17.065  41.050  10.751
45758W        W18073  24.016  26.499   0.695
45759W        W18074  28.033   9.328  12.355
45760W        W18075  24.532   5.761   4.716
45761W        W18076  39.862  42.954   1.395
45762W        W18077   3.842  19.745  11.977
45763W        W18078   4.055  39.503   0.692
45764W        W18079   1.764  24.619  11.542
45765W        W18080   0.273   8.037   2.282
45766W        W18081   8.886   7.364   2.725
45767W        W18082   2.817  24.604  13.103
45768W        W18083  31.384   5.837  12.655
45769W        W18084  16.164  11.334   0.940
45770W        W18085  31.512   3.774   2.349
45771W        W18086  23.727  15.153  13.002
45772W        W18087  44.456  40.837  14.313
45773W        W18088   1.385  15.294   4.860
45774W        W18089   5.009  12.402  10.765
45775W        W18090  13.916  12.008   2.857
45776W        W18091  13.093  43.829  14.982
45777W        W18092  33.011  42.525  11.622
45778W        W18093  19.103  17.099   3.596
45779W        W18094  36.373   1.890  13.784
45780W        W18095   5.369  14.724   5.031
45781W        W18096  42.955  14.575  11.739
45782W        W18097  22.050  10.932   4.110
45783W        W18098  33.853  16.306   2.284
45784W        W18099  43.707  42.021   2.253
45785W        W18100  15.935  24.642   0.929
45786W        W18101  38.823  22.499  11.946
45787W        W18102  16.838  18.776  12.133
45788W        W18103  38.058  12.570  11.954
45789W        W18104  36.521   2.359   2.872
45790W        W18105  17.625   1.544   0.230
45791W        W18106  22.749  41.051  11.180
45792W        W18107  25.880   0.782   0.550
45793W        W18108  37.519  16.533   2.788
45794W        W18109  14.098   5.215  14.375
45795W        W18110  39.915   7.289   0.953
45796W        W18111   0.983  18.176  14.906
45797W        W18112  17.514  24.564   1.787
45798W        W18113   9.381  18.041  13.840
45799W        W18114   6.423   4.586  10.004
45800W        W18115  15.868  12.598   4.104
45801W        W18116  40.955  43.894   4.223
45802W        W18117   1.264  19.784  12.025
45803W        W18118  10.091  30.831   4.114
45804W        W18119  23.728  24.109   4.233
45805W        W18120   0.752  23.452   3.732
45806W        W18121  32.468  29.084  11.136
45807W        W18122  21.397  26.159   3.041
45808W        W18123  30.524  33.913  10.331
45809W        W18124  37.154  34.331  12.091
45810W        W18125  12.669  35.941   0.345
45811W        W18126  39.034  10.604  11.573
45812W        W18127  19.400   5.598   0.241
45813W        W18128  12.161  39.783   0.829
45814W        W18129  32.475   7.686   2.732
45815W        W18130  16.429  43.902  10.429
45816W        W18131  32.090  10.146  13.047
45817W        W18132  30.353  35.018  12.517
45818W        W18133   5.944  41.637  12.549
45819W        W18134  19.273  38.335   0.295
45820W        W18135   3.188  29.188   1.635
45821W        W18136  20.530   1.012  12.582
45822W        W18137   3.886  12.071   4.669
45823W        W18138  24.012  41.734   4.664
45824W        W18139  44.678  21.646  10.556
45825W        W18140  14.114  43.999   4.329
45826W        W18141  42.809  29.524   4.941
45827W        W18142  39.520  32.318   4.156
45828W        W18143  15.889   5.007  12.486
45829W        W18144  33.403  41.591   1.637
45830W        W18145   4.450   2.533   0.178
45831W        W18146  29.017  28.757  14.472
45832W        W18147  14.375  37.428   1.965
45833W        W18148   9.697  38.779   1.383
45834W        W18149  20.271   8.161   3.231
45835W        W18150  34.783  33.641  12.098
45836W        W18151  22.871   8.605  10.776
45837W        W18152  12.740  26.021  13.329
45838W        W18153  23.408   8.829  12.981
45839W        W18154  39.508  33.023   0.927
45840W        W18155   1.670  30.968   2.486
45841W        W18156   0.152  14.383   0.729
45842W        W18157  38.827   6.511   2.712
45843W        W18158  30.459  15.885  11.934
45844W        W18159   0.189  26.065   3.750
45845W        W18160  13.367  40.471   2.250
45846W        W18161  42.850  29.914   4.579
45847W        W18162  29.777   4.667   2.086
45848W        W18163  29.361  32.161  12.030
45849W        W18164   6.889  20.016  12.593
45850W        W18165  28.452  10.365   4.488
45851W        W18166  36.679  11.872  11.991
45852W        W18167  17.520   3.657  11.905
45853W        W18168  41.271  19.750  14.394
45854W        W18169  29.711  41.069   1.899
45855W        W18170  22.522   3.717   3.202
45856W        W18171  17.118  39.487  11.081
45857W        W18172  11.077  38.473  14.319
45858W        W18173   3.082  22.123  12.838
45859W        W18174   2.224  42.959   2.259
45860W        W18175  12.911  35.298  12.551
45861W        W18176  36.395  26.660   5.015
45862W        W18177  25.714  38.146  13.561
45863W        W18178  28.500  36.950   4.451
45864W        W18179  25.145   0.463   3.913
45865W        W18180  32.891  41.977  14.539
45866W        W18181  23.021  15.883  13.475
45867W        W18182   9.417  23.724   0.830
45868W        W18183  14.269  44.588   0.871
45869W        W18184  14.063  19.475   1.351
45870W        W18185  29.718  23.039   0.070
45871W        W18186  28.060  16.100  10.949
45872W        W18187  23.534  25.514  12.940
45873W        W18188   0.329   4.632   2.885
45874W        W18189  14.671  23.158  13.558
45875W        W18190  22.467  40.471   1.678
45876W        W18191  13.381  43.818  14.556
45877W        W18192   2.381   4.726   0.795
45878W        W18193   0.414   8.871  13.387
45879W        W18194  35.371  20.249   4.564
45880W        W18195  10.334  20.567   2.736
45881W        W18196  34.552   9.258   0.798
45882W        W18197  29.547  38.173   1.302
45883W        W18198  14.420  44.096   0.831
45884W        W18199  27.459  33.065  12.432
45885W        W18200   7.832  35.856   1.858
45886W        W18201  12.899  24.928   3.692
45887W        W18202  36.510   9.425   2.320
45888W        W18203  32.135  43.463  13.615
45889W        W18204  38.804  15.798  11.092
45890W        W18205  33.106  35.478  11.240
45891W        W18206   2.825  23.597   2.679
45892W        W18207  16.474  34.997   1.013
45893W        W18208   2.827  32.626  14.513
45894W        W18209   8.906  18.729  13.531
45895W        W18210  32.013  24.191  13.518
45896W        W18211  16.142  39.399   3.590
45897W        W18212  18.101  13.855   2.431
45898W        W18213  14.561  34.515  10.381
45899W        W18214  35.898  20.524  12.969
45900W        W18215  44.762  12.642   2.685
45901W        W18216  27.501  38.787   0.172
45902W        W18217  15.685  23.722  10.600
45903W        W18218  34.885   6.691   3.175
45904W        W18219  34.390  44.974   1.204
45905W        W18220  40.485  25.416   4.243
45906W        W18221   6.656  27.051   1.652
45907W        W18222   0.425  15.934   4.200
45908W        W18223   0.754  15.555  10.763
45909W        W18224  24.074  40.814  11.966
45910W        W18225  29.925  27.380  13.842
45911W        W18226  26.046  18.703  11.585
45912W        W18227   5.386  17.838   3.378
45913W        W18228  27.136  23.201  13.362
45914W        W18229  14.259   6.219   1.808
45915W        W18230  23.734  22.338  12.098
45916W        W18231  28.371  11.624  11.930
45917W        W18232  17.112   8.220  13.299
45918W        W18233  24.031   5.965  14.392
45919W        W18234  37.764   1.326   4.736
45920W        W18235  17.295   1.196  13.964
45921W        W18236  33.467  27.624   0.666
45922W        W18237  35.141  11.740  10.811
45923W        W18238  23.438  10.883  11.089
45924W        W18239  32.946  13.634  10.910
45925W        W18240   9.654  18.585  13.034
45926W        W18241  30.255   5.748   4.739
45927W        W18242  29.611  33.230   3.674
45928W        W18243  44.937   1.795  11.560
45929W        W18244   3.317  37.133   3.251
45930W        W18245  38.273  17.229  13.825
45931W        W18246  38.355  12.015  12.667
45932W        W18247  28.746   2.495   1.025
45933W        W18248  34.358  32.989  14.726
45934W        W18249  11.306  26.591  11.414
45935W        W18250  41.243  10.231   0.771
45936W        W18251  27.051   3.276   0.939
45937W        W18252  19.902  29.237   5.059
45938W        W18253   6.405   8.787  11.511
45939W        W18254   3.570  10.082  11.106
45940W        W18255   2.911  44.469   4.046
45941W        W18256   5.748  34.376  11.635
45942W        W18257  40.061  20.050  13.039
45943W        W18258  26.634  22.539  12.843
45944W        W18259  39.672  26.585  10.016
45945W        W18260  19.592  41.914  14.492
45946W        W18261  33.878  12.142   2.746
45947W        W18262   0.724  31.632  11.567
45948W        W18263   3.455  30.033   2.438
45949W        W18264  23.118   5.159   3.737
45950W        W18265  21.113   6.904   1.678
45951W        W18266  27.630  43.499   1.533
45952W        W18267  44.816   5.784  11.126
45953W        W18268  15.241  22.054  10.690
45954W        W18269  41.982   6.433   3.328
45955W        W18270  28.983  40.288   0.477
45956W        W18271  14.519  44.383   0.414
45957W        W18272  34.898  39.414   0.791
45958W        W18273   9.654  37.959   0.334
45959W        W18274  43.936  25.161  12.873
45960W        W18275   6.138  10.189  12.024
45961W        W18276  14.598  19.804   3.183
45962W        W18277  30.522  35.137   0.792
45963W        W18278  33.417   4.720   4.656
45964W        W18279  44.983  35.995  12.053
45965W        W18280  44.006  20.611   3.142
45966W        W18281  39.810  28.571   3.441
45967W        W18282   0.813   4.983  12.494
45968W        W18283  16.997  21.801  13.585
45969W        W18284  11.902   2.380   4.409
45970W        W18285  21.630  31.855  13.854
45971W        W18286  44.074  14.759   3.329
45972W        W18287  11.798  42.151  12.876
45973W        W18288  37.851   1.917  13.970
45974W        W18289   9.242   4.429   1.173
45975W        W18290  29.216   4.422   2.909
45976W        W18291   1.991   7.364   0.281
45977W        W18292  22.114  22.185   5.520
45978W        W18293  43.295   0.792  14.188
45979W        W18294  31.121  28.947   1.734
45980W        W18295  44.774  41.195  14.079
45981W        W18296  20.883  34.540  13.285
45982W        W18297  27.896  14.748   0.863
45983W        W18298  41.812  17.598  13.688
45984W        W18299   5.233  27.532  11.436
45985W        W18300  22.637   3.674  11.189
45986W        W18301  21.429  30.397  12.981
45987W        W18302  44.128  26.427   4.578
45988W        W18303  34.900  34.911   2.219
45989W        W18304   9.911  34.522  14.901
45990W        W18305   0.761  36.390  13.494
45991W        W18306  37.502  11.441  12.626
45992W        W18307   9.221  16.732  11.974
45993W        W18308  17.725   8.379  10.713
45994W        W18309  13.903  25.048   3.338
45995W        W18310  42.377  40.942  11.394
45996W        W18311  44.330  38.777   3.664
45997W        W18312  34.703  26.203   4.133
45998W        W18313  15.154  26.069   1.320
45999W        W18314   4.289  28.622  14.877
46000W        W18315   8.892  18.193  11.074
46001W        W18316  20.726  22.151   0.875
46002W        W18317  41.379  27.850   4.108
46003W        W18318   0.978  35.809   4.953
46004W        W18319   8.935  11.250   4.177
46005W        W18320   2.165  13.137   2.327
46006W        W18321   6.297  15.076   1.356
46007W        W18322   5.306   2.815  10.578
46008W        W18323   5.879   0.803   2.517
46009W        W18324  20.488   1.545   3.384
46010W        W18325  23.661  15.364   4.152
46011W        W18326  32.945  15.132  11.484
46012W        W18327  37.281  17.954  13.284
46013W        W18328  22.716  19.939   4.233
46014W        W18329  17.290  34.607   3.281
46015W        W18330  31.252  15.036  12.346
46016W        W18331  30.169   2.090  11.902
46017W        W18332  31.440  13.098  14.842
46018W        W18333  10.102   6.064   0.812
46019W        W18334  30.962   4.991  12.024
46020W        W18335  35.944   4.879  12.794
46021W        W18336  33.436  22.596  13.434
46022W        W18337  24.537  31.699   4.228
46023W        W18338  22.309  31.530   2.960
46024W        W18339  31.122   0.035  10.971
46025W        W18340  11.825  40.745  11.820
46026W        W18341  43.460  13.398   4.864
46027W        W18342  21.187  19.844  10.947
46028W        W18343   6.304  22.099  11.032
46029W        W18344  24.540  31.641  14.864
46030W        W18345   2.295  12.150  10.731
46031W        W18346  22.966  26.717  13.965
46032W        W18347   3.070  32.131  12.556
46033W        W18348  22.213  37.437   0.723
46034W        W18349  39.225  22.725  12.975
46035W        W18350   8.154  36.446  14.888
46036W        W18351  44.497   4.781  10.399
46037W        W18352  12.118  27.295   2.928
46038W        W18353  11.550  42.677  12.943
46039W        W18354   0.703   4.969   1.212
46040W        W18355  40.118   9.243  11.570
46041W        W18356   7.385  38.058  14.916
46042W        W18357  29.022  15.772   3.594
46043W        W18358  29.663  21.674  14.332
46044W        W18359   4.344  38.789  13.358
46045W        W18360  43.088  13.052  12.940
46046W        W18361  21.976   9.729   1.973
46047W        W18362  10.272   8.948   1.942
46048W        W18363  25.909   6.063   5.011
46049W        W18364  15.679  21.654   3.685
46050W        W18365  13.180   8.788  13.883
46051W        W18366   5.750  17.520  13.557
46052W        W18367  21.978   9.136  12.152
46053W        W18368  26.356  28.290   3.794
46054W        W18369  24.139  43.394  10.681
46055W        W18370  44.039   2.206  11.132
46056W        W18371   2.490   3.267   5.047
46057W        W18372  26.270  18.879   3.808
46058W        W18373  19.163  41.264  11.587
46059W        W18374  18.865  13.776   0.168
46060W        W18375  15.681   3.222  14.424
46061W        W18376  38.298  27.942  14.382
46062W        W18377  23.042  28.613   4.625
46063W        W18378  43.008  37.170   0.268
46064W        W18379  16.411  35.929   2.693
46065W        W18380  25.473  32.584   2.267
46066W        W18381  19.301  14.716  11.105
46067W        W18382   1.298   0.009   4.842
46068W        W18383   2.496  37.448  14.291
46069W        W18384  23.048  44.795  10.810
46070W        W18385  23.683  13.754   0.179
46071W        W18386  19.473  33.354  11.713
46072W        W18387  17.197  42.806   0.890
46073W        W18388  16.324  20.205   0.506
46074W        W18389  39.651  15.190  11.131
46075W        W18390  25.140  25.080   4.685
46076W        W18391  25.529  12.872  11.204
46077W        W18392  38.787   6.310  13.337
46078W        W18393   8.936   4.689  12.898
46079W        W18394  33.788  12.338   4.110
46080W        W18395  19.589  30.369   3.376
46081W        W18396   1.203  17.638   4.082
46082W        W18397  18.820  38.111  13.988
46083W        W18398  33.047  31.702   1.702
46084W        W18399  42.794  26.811  14.847
46085W        W18400  38.843  15.546  12.614
46086W        W18401  24.478  16.735   2.618
46087W        W18402  31.239   9.610  14.439
46088W        W18403   9.082  39.867  13.895
46089W        W18404  29.538   7.510  14.703
46090W        W18405  39.574  24.254  13.030
46091W        W18406   3.338  20.511   0.399
46092W        W18407  42.756   6.267   2.032
46093W        W18408  27.101   7.539  10.045
46094W        W18409  41.304  33.577   2.777
46095W        W18410  27.648  10.701  13.149
46096W        W18411  39.979  32.204  14.752
46097W        W18412  38.421   4.308   0.347
46098W        W18413  10.344  14.173  14.970
46099W        W18414   8.622  44.827  10.570
46100W        W18415  31.434  10.094  14.770
46101W        W18416  28.418  19.617  11.482
46102W        W18417   3.825  23.596   2.696
46103W        W18418   0.743  10.894   3.662
46104W        W18419  42.980  34.753  10.928
46105W        W18420  43.465  36.786  10.685
46106W        W18421   1.760  11.684   1.152
46107W        W18422  14.634  39.050   0.975
46108W        W18423  24.459  11.612   2.841
46109W        W18424  14.092  31.542  12.781
46110W        W18425  36.298   9.612   1.846
46111W        W18426  28.102  27.999  13.375
46112W        W18427  31.112  15.718  10.207
46113W        W18428  15.103  25.576   3.515
46114W        W18429  17.973  12.365   4.687
46115W        W18430  17.179  44.375   1.809
46116W        W18431   2.063  25.981  13.538
46117W        W18432   4.662  22.840   4.579
46118W        W18433  32.450  14.495  14.315
46119W        W18434  32.827  26.745  13.733
46120W        W18435  27.883  16.785  13.380
46121W        W18436   7.294  30.419   3.051
46122W        W18437   8.316  40.756  14.417
46123W        W18438  36.025  16.628  10.685
46124W        W18439   6.329  17.176  13.196
46125W        W18440  43.304  23.182  10.965
46126W        W18441   2.938   3.528   4.228
46127W        W18442  29.676  18.205   0.915
46128W        W18443  32.122  21.491  14.805
46129W        W18444  19.325  41.738  14.071
46130W        W18445  27.598  28.944  11.816
46131W        W18446  28.366  25.065  12.606
46132W        W18447   3.403  13.276   1.828
46133W        W18448  25.061   3.135  13.395
46134W        W18449  15.133  40.291  11.971
46135W        W18450  33.426  30.035   2.835
46136W        W18451  22.703   0.665   3.780
46137W        W18452  28.463  14.390  12.001
46138W        W18453   3.987   7.830  13.081
46139W        W18454   3.762   7.722  10.664
46140W        W18455  16.010  10.677   4.874
46141W        W18456  16.373  27.055   0.478
46142W        W18457   8.827  33.409   3.740
46143W        W18458  20.733   8.717   9.786
46144W        W18459   4.003  14.124  12.927
46145W        W18460  27.010  32.124  14.301
46146W        W18461  22.050  16.178   4.433
46147W        W18462  29.443  14.837   3.771
46148W        W18463  19.236   7.155   1.678
46149W        W18464  24.092  29.050  11.547
46150W        W18465   8.702   6.069  11.072
46151W        W18466  38.869  44.820   3.268
46152W        W18467   0.326   9.792  13.801
46153W        W18468  37.299   0.692   4.522
46154W        W18469  16.629   5.197  11.480
46155W        W18470  12.397  18.499   1.817
46156W        W18471  24.769  10.636  10.648
46157W        W18472   8.694   4.724  10.811
46158W        W18473  23.125  30.331   3.804
46159W        W18474   9.496   2.030   5.053
46160W        W18475  15.794   7.239   4.540
46161W        W18476  16.692  24.047   1.446
46162W        W18477  40.274  40.518   0.808
46163W        W18478  27.633   2.113   3.147
46164W        W18479  24.289   4.853  11.081
46165W        W18480  26.140  40.973  13.836
46166W        W18481   0.749  28.534  10.978
46167W        W18482  40.109  23.048  10.956
46168W        W18483  17.491   6.440  14.815
46169W        W18484  23.697   4.237   3.277
46170W        W18485  24.770  14.438  11.973
46171W        W18486  31.546  20.550  12.107
46172W        W18487  38.627  13.851   5.019
46173W        W18488  44.851  37.296  11.377
46174W        W18489  22.660  39.331   4.123
46175W        W18490  14.354  23.797  10.709
46176W        W18491   3.284  31.428   1.364
46177W        W18492  17.727  35.384   4.383
46178W        W18493  31.613   1.982  11.890
46179W        W18494  40.060  10.190   4.230
46180W        W18495  44.732  34.178  11.056
46181W        W18496  31.606  11.052  10.488
46182W        W18497  28.153  10.367  13.222
46183W        W18498  17.798  38.053   5.463
46184W        W18499  44.913  35.864   2.887
46185W        W18500  10.745  12.424   2.296
46186W        W18501  27.083  17.299   2.873
46187W        W18502  37.079  33.425  14.072
46188W        W18503  21.110   7.675  14.257
46189W        W18504  20.125  18.578   0.561
46190W        W18505   9.646  19.757   1.404
46191W        W18506  41.460  18.653   0.380
46192W        W18507  11.288  36.867  10.554
46193W        W18508   7.611   9.303   0.005
46194W        W18509  13.235  16.320  13.558
46195W        W18510   4.872  11.173  14.849
46196W        W18511  19.237  25.637  13.264
46197W        W18512   2.186   2.984   4.735
46198W        W18513   3.002   0.390   3.964
46199W        W18514  21.182  19.793  13.971
46200W        W18515  24.147  21.678  10.629
46201W        W18516  39.043   1.363   0.447
46202W        W18517   6.768  25.992  13.225
46203W        W18518  13.812  16.008   4.643
46204W        W18519  39.993  12.910   0.750
46205W        W18520  24.669  12.158  11.582
46206W        W18521  13.273  12.171  11.867
46207W        W18522  19.826  27.406  13.278
46208W        W18523  19.670  22.684   0.723
46209W        W18524  22.705  12.618   3.285
46210W        W18525  31.878  25.910   2.890
46211W        W18526  24.274  14.157   1.741
46212W        W18527  30.102  16.088  13.565
46213W        W18528   8.419  44.983  12.876
46214W        W18529  13.648  22.585   0.895
46215W        W18530   2.915  37.759  14.422
46216W        W18531   9.192  26.760   4.343
46217W        W18532   5.334  15.622  10.705
46218W        W18533  16.603  35.471  12.490
46219W        W18534  40.966  25.925   0.486
46220W        W18535   6.946  29.542   3.345
46221W        W18536  12.341  24.091  14.456
46222W        W18537  24.130  35.457   1.430
46223W        W18538  40.789   4.400  10.632
46224W        W18539  12.721  34.482   1.275
46225W        W18540  43.540  39.960  11.980
46226W        W18541  41.779  23.754   2.737
46227W        W18542  39.202  14.157  14.866
46228W        W18543  35.200  39.859  14.396
46229W        W18544  12.253  28.120  10.951
46230W        W18545  41.474   2.323   0.822
46231W        W18546  24.235   7.374   4.487
46232W        W18547   1.116  38.465   1.870
46233W        W18548  27.501   4.928  13.416
46234W        W18549   8.533   2.808   1.369
46235W        W18550  11.617  25.479   1.201
46236W        W18551   1.372  37.838   2.891
46237W        W18552  41.302  26.554   4.994
46238W        W18553  21.074  33.221  13.780
46239W        W18554  32.920  33.780   2.409
46240W        W18555  23.011   1.739  13.500
46241W        W18556  22.519  17.673  14.484
46242W        W18557  44.262  13.345   5.007
46243W        W18558  40.039  10.931   2.333
46244W        W18559  12.866  33.619  11.163
46245W        W18560  22.808  44.283   3.454
46246W        W18561  39.445  20.263   4.208
46247W        W18562  18.942   5.816   0.090
46248W        W18563  27.941  15.839   2.754
46249W        W18564   6.690   8.725  11.945
46250W        W18565   1.965  41.027   4.538
46251W        W18566  34.085  39.834  11.563
46252W        W18567  30.554  27.875   0.419
46253W        W18568   1.546  44.487  13.358
46254W        W18569  41.630  33.229  13.217
46255W        W18570  15.228  33.066   4.430
46256W        W18571   4.727   1.018   1.669
46257W        W18572  13.106   6.835   4.085
46258W        W18573  29.525   5.499  10.517
46259W        W18574   4.230   6.489   2.829
46260W        W18575  19.565   4.822  13.439
46261W        W18576  32.672   8.731  10.697
46262W        W18577  28.082  36.575  13.935
46263W        W18578  30.168  22.146  14.821
46264W        W18579  20.523   7.407  10.753
46265W        W18580  10.644  14.134  11.523
46266W        W18581  43.360  34.810  13.736
46267W        W18582  30.358   3.438  13.588
46268W        W18583  40.936  11.476   4.472
46269W        W18584  13.916  31.141   4.849
46270W        W18585  26.789  27.568   0.479
46271W        W18586  18.133  22.559  12.773
46272W        W18587   5.230   3.630  14.047
46273W        W18588  31.566   3.930   0.757
46274W        W18589  41.342   4.242   3.187
46275W        W18590  31.393   5.233  14.817
46276W        W18591   5.701   5.346  13.523
46277W        W18592   1.807  39.855   4.110
46278W        W18593  10.635  26.513  10.191
46279W        W18594  41.961  18.191   0.915
46280W        W18595  23.219   4.679   0.474
46281W        W18596  20.992  42.829  10.463
46282W        W18597  20.070  24.423  14.291
46283W        W18598  32.283  44.973  13.490
46284W        W18599  17.154   7.435   0.350
46285W        W18600  41.511  11.089  11.525
46286W        W18601   2.545  32.140   1.470
46287W        W18602  13.650  12.622   3.417
46288W        W18603  11.325  38.534   2.471
46289W        W18604  22.978  24.654   0.544
46290W        W18605  27.030  33.032  11.261
46291W        W18606  40.885  26.449  11.157
46292W        W18607   9.270   8.868   2.888
46293W        W18608  39.031   0.035  14.449
46294W        W18609   6.292  26.077   2.067
46295W        W18610   3.452  38.953   4.187
46296W        W18611  23.768  26.019   0.022
46297W        W18612   9.655  18.806   3.846
46298W        W18613  44.025   1.613  14.328
46299W        W18614  23.460  25.176  12.535
46300W        W18615  25.652  30.845   2.379
46301W        W18616  20.032  25.274  13.660
46302W        W18617  16.623  30.660   3.148
46303W        W18618  21.481   9.357  10.618
46304W        W18619  42.735  26.976  13.533
46305W        W18620  32.422  32.672   0.364
46306W        W18621  25.981  26.253  11.699
46307W        W18622  12.381  23.278   4.804
46308W        W18623  35.887  26.780  14.852
46309W        W18624  16.394  39.196  13.055
46310W        W18625  13.809  28.270   2.865
46311W        W18626   9.826  21.948   2.103
46312W        W18627  31.644  44.534   0.572
46313W        W18628   4.825  29.464  10.727
46314W        W18629  22.918  37.163  14.529
46315W        W18630  31.527  31.464  10.400
46316W        W18631  44.358  11.641  14.761
46317W        W18632   3.688  20.583  14.582
46318W        W18633  29.492   8.196   1.175
46319W        W18634   1.676   9.267   2.481
46320W        W18635   0.844  21.684  14.463
46321W        W18636   6.468  30.848  11.593
46322W        W18637  40.604  39.014  14.014
46323W        W18638  19.715   5.283  10.692
46324W        W18639  14.770  13.128   2.772
46325W        W18640  14.078  36.572  11.102
46326W        W18641  30.388  36.698   3.661
46327W        W18642  31.423  30.992   2.154
46328W        W18643  16.624   7.668  11.019
46329W        W18644   0.453  28.522  11.837
46330W        W18645  16.103  19.737   0.417
46331W        W18646   6.431  44.589   4.071
46332W        W18647   2.904   7.194   1.285
46333W        W18648   9.044  21.228  10.274
46334W        W18649  36.959  37.379  10.969
46335W        W18650   1.205  27.095  14.756
46336W        W18651  44.983  42.690   0.856
46337W        W18652   0.740  28.923  13.061
46338W        W18653  38.497  11.762   2.839
46339W        W18654  41.437   7.967  10.764
46340W        W18655  10.830  27.186   4.232
46341W        W18656  10.634  23.455   1.780
46342W        W18657  24.972  10.023   3.844
46343W        W18658  21.429  37.996   2.377
46344W        W18659  34.388  25.649  10.793
46345W        W18660   4.963  29.157  14.773
46346W        W18661  18.771   4.285   2.753
46347W        W18662  38.929  13.341  13.348
46348W        W18663  14.433  28.152  14.932
46349W        W18664   5.223  19.706   1.849
46350W        W18665  30.340  32.028  11.439
46351W        W18666  29.011  12.943   3.607
46352W        W18667  27.649  40.549  10.937
46353W        W18668   1.475  26.409  11.125
46354W        W18669  13.206  41.238   2.735
46355W        W18670  30.564  22.108   3.813
46356W        W18671  16.530   1.832   1.469
46357W        W18672  19.494   5.455   0.755
46358W        W18673   5.927   0.887  14.777
46359W        W18674  36.954  31.055   4.910
46360W        W18675  37.935  14.644  12.537
46361W        W18676  44.102  23.245  13.949
46362W        W18677  26.308   6.497   1.248
46363W        W18678  15.332  31.207   2.043
46364W        W18679  20.722  14.911   0.822
46365W        W18680  30.971  36.422   0.808
46366W        W18681  44.751   8.058   4.110
46367W        W18682  40.287  16.073   2.958
46368W        W18683   3.331  38.498  10.042
46369W        W18684  26.388  41.964   3.237
46370W        W18685  31.355  20.213   0.105
46371W        W18686   0.681  29.582   4.125
46372W        W18687  44.798  34.988   0.814
46373W        W18688  41.922  10.697  10.493
46374W        W18689  31.817  38.053   4.210
46375W        W18690   8.636   1.231  10.985
46376W        W18691  29.079  38.790  13.270
46377W        W18692  12.304   4.478  10.743
46378W        W18693  44.351   7.107  14.730
46379W        W18694   8.337  42.146   4.254
46380W        W18695  28.720  32.418  11.893
46381W        W18696  44.779  24.618   4.470
46382W        W18697   1.055   8.882   1.697
46383W        W18698   7.446  36.285  14.423
46384W        W18699  15.639  14.662   2.804
46385W        W18700  34.905  37.919   4.232
46386W        W18701   6.455  32.531   1.794
46387W        W18702  17.891  28.664  14.751
46388W        W18703  35.071   7.540   0.723
46389W        W18704   5.955   5.391   4.515
46390W        W18705  15.594  25.236  12.038
46391W        W18706  43.511  19.201  14.988
46392W        W18707  16.075  15.130   2.860
46393W        W18708  19.211  16.227   3.842
46394W        W18709  31.233   8.245  11.577
46395W        W18710  30.306   3.518  11.125
46396W        W18711   0.015  17.187  14.967
46397W        W18712   8.440  22.269   1.179
46398W        W18713  10.673   1.971   4.776
46399W        W18714  27.963  13.777  14.023
46400W        W18715  16.183  41.319   1.947
46401W        W18716  40.353  30.377  11.245
46402W        W18717  38.885  23.460   0.410
46403W        W18718  39.877  24.937  11.049
46404W        W18719  27.406  42.892  11.181
46405W        W18720  32.862  18.525  12.440
46406W        W18721  31.229  27.922  14.353
46407W        W18722   2.313  10.754  14.368
46408W        W18723   9.754  41.317   3.748
46409W        W18724  23.270  35.017   2.141
46410W        W18725  44.602  17.205   0.361
46411W        W18726  23.256  13.592   0.396
46412W        W18727  42.601  24.779   3.795
46413W        W18728  35.418  39.178   4.172
46414W        W18729  11.076  23.243   1.965
46415W        W18730  18.250  29.140  11.650
46416W        W18731  15.655  29.439   2.378
46417W        W18732  18.797  22.763   1.720
46418W        W18733  40.930   2.836  12.431
46419W        W18734  25.626  18.204  11.575
46420W        W18735  11.705  14.217  11.417
46421W        W18736   4.489  34.460   2.336
46422W        W18737  25.979  33.634   0.888
46423W        W18738   0.216  24.625  12.811
46424W        W18739  27.139   3.716   3.710
46425W        W18740   7.754   0.548   2.649
46426W        W18741  10.612   5.278   2.882
46427W        W18742  41.409   6.098   2.198
46428W        W18743   3.458  20.535  13.555
46429W        W18744   9.576  42.597   2.145
46430W        W18745  12.837   9.835  14.750
46431W        W18746  43.264  22.252   2.285
46432W        W18747  23.113   2.457  11.620
46433W        W18748  32.500   0.714   0.559
46434W        W18749  33.364   6.168  13.540
46435W        W18750   8.749  24.995   0.759
46436W        W18751  40.060  11.214  11.640
46437W        W18752  12.095  22.738  11.404
46438W        W18753  44.381   4.561  12.217
46439W        W18754   0.349  15.241   2.103
46440W        W18755  14.820  19.193   1.367
46441W        W18756  15.672  23.980   2.872
46442W        W18757   6.101   6.314   1.350
46443W        W18758  18.126  38.595  12.988
46444W        W18759   3.771  34.996   2.765
46445W        W18760  40.969  11.578  10.435
46446W        W18761  19.258  13.482   2.338
46447W        W18762   9.633  24.753   0.882
46448W        W18763  18.269  37.101   4.139
46449W        W18764  44.033  39.907  13.777
46450W        W18765   0.400  16.157  12.548
46451W        W18766  31.693  21.573  13.401
46452W        W18767   5.242  31.121  10.808
46453W        W18768  39.328  29.849   0.292
46454W        W18769  26.473   3.479  11.606
46455W        W18770  21.671  42.075  10.704
46456W        W18771  27.414  42.722   3.222
46457W        W18772  16.554  25.860  14.423
46458W        W18773  13.406  27.145   4.519
46459W        W18774  29.462  32.656  10.268
46460W        W18775  42.026  17.280   3.654
46461W        W18776  40.062  39.351  11.158
46462W        W18777  15.298  41.757  11.080
46463W        W18778   1.915  41.365   0.899
46464W        W18779  31.199  15.599  11.036
46465W        W18780  42.184  20.451  12.744
46466W        W18781  26.638  23.994   2.148
46467W        W18782  17.579  29.513   4.649
46468W        W18783  44.043   9.987  11.482
46469W        W18784  10.069  41.505  11.470
46470W        W18785  40.439  39.341   0.255
46471W        W18786  15.258   3.398   1.849
46472W        W18787   9.347  24.186   2.150
46473W        W18788  25.751   1.223   0.776
46474W        W18789  43.963  37.934   4.630
46475W        W18790  18.165  38.841  11.495
46476W        W18791   8.718  11.729  13.850
46477W        W18792  39.364  15.915   3.999
46478W        W18793  27.516  14.338  12.852
46479W        W18794   7.274   1.508  14.374
46480W        W18795  18.672  39.308   5.068
46481W        W18796  35.559  16.598  12.444
46482W        W18797  34.466   8.308  10.698
46483W        W18798  25.304  25.768  11.565
46484W        W18799  31.371  15.161  11.403
46485W        W18800  10.326  14.869   4.128
46486W        W18801  38.589  24.851  14.830
46487W        W18802   4.783  12.575   1.651
46488W        W18803  26.874   1.756   2.667
46489W        W18804   7.640  44.284   2.633
46490W        W18805   2.533  30.961  14.903
46491W        W18806  16.159   1.666   4.506
46492W        W18807  27.688  20.199  13.949
46493W        W18808  37.782  24.259  12.705
46494W        W18809  27.506  25.984  10.682
46495W        W18810  16.254  30.646   5.126
46496W        W18811  42.499  30.537  14.276
46497W        W18812  20.010  11.079  14.024
46498W        W18813   8.182  31.841   0.303
46499W        W18814  30.127  26.674   1.917
46500W        W18815   0.927  24.294  11.506
46501W        W18816   8.099   4.395   4.270
46502W        W18817  21.148  27.385   4.150
46503W        W18818  30.145   1.782   0.013
46504W        W18819  24.960  14.198  11.519
46505W        W18820   1.222  19.546  13.554
46506W        W18821  32.298  42.887   3.701
46507W        W18822  24.038  21.118  13.337
46508W        W18823  11.382  11.186  13.422
46509W        W18824   2.541  14.128   5.020
46510W        W18825  23.942   6.875  14.538
46511W        W18826   6.685  12.202   4.338
46512W        W18827   4.934  20.661   4.234
46513W        W18828  17.097  30.910   0.028
46514W        W18829  10.751  15.316  13.137
46515W        W18830  12.376   9.592   3.629
46516W        W18831  34.499  17.092   4.835
46517W        W18832  35.057  19.091   0.754
46518W        W18833  32.934  18.798  13.837
46519W        W18834  27.069   5.383  11.040
46520W        W18835  42.392  11.377   4.277
46521W        W18836  40.099  43.218   1.864
46522W        W18837  14.548   4.560   3.819
46523W        W18838  18.842  42.759  13.881
46524W        W18839  13.598  18.296  12.862
46525W        W18840   3.231  34.008  11.941
46526W        W18841   3.813  42.081  12.421
46527W        W18842  33.056  12.855  14.296
46528W        W18843  10.212  22.515   0.780
46529W        W18844  16.731  21.541   2.136
46530W        W18845   2.821  16.293   1.282
46531W        W18846  37.556  13.571  11.501
46532W        W18847  28.374  35.907   0.558
46533W        W18848  41.554  11.844   1.976
46534W        W18849  10.182   7.315   1.480
46535W        W18850  15.534  25.131  13.901
46536W        W18851  30.071   3.718  11.543
46537W        W18852  35.444  12.652   1.225
46538W        W18853  10.402  27.654  13.849
46539W        W18854  31.681  22.744   1.758
46540W        W18855  40.279  22.908   4.572
46541W        W18856  37.582  28.767   4.221
46542W        W18857  13.767   9.945   2.673
46543W        W18858  30.396  13.189   3.612
46544W        W18859  32.046  41.994   2.368
46545W        W18860  35.368  28.623  14.061
46546W        W18861  23.750   4.403  10.518
46547W        W18862  16.200   9.195   3.237
46548W        W18863  22.240  11.138   4.564
46549W        W18864  10.796   3.105   0.652
46550W        W18865  40.527  17.066   3.032
46551W        W18866  29.124  31.927  13.183
46552W        W18867   0.955  23.530  11.449
46553W        W18868  15.078  33.326  14.008
46554W        W18869  41.515  11.982  12.858
46555W        W18870  11.412  43.326  11.162
46556W        W18871  22.501   6.323  10.766
46557W        W18872  24.690  38.983   2.368
46558W        W18873  15.226  25.578  14.549
46559W        W18874  34.651  23.134  10.718
46560W        W18875  12.181  13.292   3.751
46561W        W18876  10.356  35.645   0.357
46562W        W18877  31.160   4.619  10.181
46563W        W18878  20.030   7.622  13.907
46564W        W18879  34.936  15.256  14.548
46565W        W18880  38.613  35.804  11.018
46566W        W18881  44.273  35.398  11.683
46567W        W18882  31.811  10.267   5.024
46568W        W18883  22.742  24.905  14.911
46569W        W18884  18.516  30.722   4.608
46570W        W18885   6.420  16.736  11.505
46571W        W18886  18.656   3.982  13.505
46572W        W18887   7.513   6.794  14.494
46573W        W18888  18.335  22.094   4.144
46574W        W18889  23.593  44.935  11.509
46575W        W18890  23.124  27.169  12.502
46576W        W18891  21.958   9.625   1.469
46577W        W18892  10.856  23.057   2.391
46578W        W18893  28.101  40.037   0.240
46579W        W18894  35.114  11.626  14.799
46580W        W18895  24.565  16.028  14.813
46581W        W18896  30.056   7.808   1.674
46582W        W18897   9.220  16.826   2.380
46583W        W18898  12.643  37.955  13.042
46584W        W18899  15.848  23.707  11.085
46585W        W18900   2.867  30.206   1.436
46586W        W18901  16.149  20.194  10.708
46587W        W18902   8.667   0.425  10.049
46588W        W18903  16.527   0.246  13.306
46589W        W18904  44.910  33.716   9.921
46590W        W18905   8.230  14.994  14.874
46591W        W18906  36.836  14.744   0.864
46592W        W18907  31.984  10.711  10.526
46593W        W18908  17.266  31.391   5.056
46594W        W18909  37.043  10.759   2.374
46595W        W18910  32.905   1.043  14.566
46596W        W18911   8.179  30.087  13.265
46597W        W18912  33.534  23.919  14.480
46598W        W18913  10.634   9.836   3.221
46599W        W18914   0.935  19.925  10.480
46600W        W18915  21.272  27.903   0.982
46601W        W18916  26.541  41.337   2.222
46602W        W18917  38.296   8.678  10.627
46603W        W18918   0.005  16.074   3.866
46604W        W18919  43.854  36.375  11.332
46605W        W18920  42.328  17.521   0.976
46606W        W18921   6.953  16.206  13.175
46607W        W18922  26.974   2.841  12.519
46608W        W18923   7.364  19.580  13.448
46609W        W18924  22.967  33.588  11.503
46610W        W18925   7.760  23.196   3.089
46611W        W18926  20.316  42.242   3.512
46612W        W18927  36.351  14.154   0.248
46613W        W18928  41.021  31.645   1.360
46614W        W18929  38.620  33.905  12.020
46615W        W18930  38.856  29.460  14.601
46616W        W18931  21.706  13.946  11.375
46617W        W18932   1.594  17.237  12.126
46618W        W18933  37.625  33.378   0.514
46619W        W18934  32.635  15.667   2.453
46620W        W18935  16.536  16.681   3.692
46621W        W18936  34.952  33.400  14.829
46622W        W18937  17.361  13.139   1.719
46623W        W18938  34.495  44.695   1.633
46624W        W18939  28.745  44.584  14.445
46625W        W18940  22.957  12.707  10.851
46626W        W18941  39.338  40.115  10.547
46627W        W18942  15.113   5.343   3.834
46628W        W18943  34.292   4.134   0.956
46629W        W18944   9.467   8.429  13.557
46630W        W18945  44.427  40.489  14.973
46631W        W18946  35.853  35.350   3.538
46632W        W18947   2.225  11.700  12.888
46633W        W18948  14.834  36.258   9.682
46634W        W18949  39.487  26.521  10.557
46635W        W18950   9.831  25.453   2.577
46636W        W18951   6.949  43.845  12.892
46637W        W18952   1.402  40.839  12.548
46638W        W18953  13.090   6.830  14.315
46639W        W18954  30.041  24.993  12.448
46640W        W18955   2.011  11.724   0.151
46641W        W18956  38.834  23.554   2.492
46642W        W18957  43.444   6.749   4.280
46643W        W18958   0.424  42.491  14.664
46644W        W18959  17.711  37.606  10.356
46645W        W18960  17.695   3.990   0.495
46646W        W18961  11.256   0.179   0.279
46647W        W18962  18.587   4.728  10.758
46648W        W18963  22.507  11.107   0.736
46649W        W18964  33.982  23.994   3.229
46650W        W18965  17.497  30.974   2.381
46651W        W18966  42.969  44.007   4.177
46652W        W18967   8.169  21.276   2.266
46653W        W18968  10.033  41.714  10.146
46654W        W18969  10.145  22.626  13.230
46655W        W18970  40.659   7.360  11.853
46656W        W18971   7.667  33.164  14.437
46657W        W18972  35.755   8.281   0.385
46658W        W18973  36.986  24.535  11.710
46659W        W18974  37.030  35.959   4.358
46660W        W18975  44.854   5.691  12.502
46661W        W18976  36.500  10.269  14.659
46662W        W18977  43.299  39.054  12.527
46663W        W18978  24.742   5.681   0.724
46664W        W18979  13.671  24.156  10.758
46665W        W18980  30.048  36.980   1.940
46666W        W18981  27.083  33.920   1.873
46667W        W18982  24.561   6.103   0.943
46668W        W18983  20.672  35.830   2.291
46669W        W18984  18.319  27.093   3.568
46670W        W18985  10.265  27.074  10.585
46671W        W18986  27.161  41.348   1.806
46672W        W18987  36.419  27.606   4.622
46673W        W18988  24.469  31.457  14.366
46674W        W18989  10.781  38.125  10.533
46675W        W18990  42.066  33.167  13.493
46676W        W18991   5.601  24.019  13.182
46677W        W18992  28.460  11.669  11.077
46678W        W18993   8.583  40.413   2.268
46679W        W18994  38.484  30.496   2.899
46680W        W18995   7.871  20.589   2.780
46681W        W18996  11.729  44.939  11.629
46682W        W18997  22.259   9.976   4.230
46683W        W18998  37.534  12.462   4.530
46684W        W18999  16.962  19.159  10.652
46685W        W19000  38.888  27.660  11.077
46686W        W19001  24.546  19.011  11.442
46687W        W19002  43.881  28.289  14.500
46688W        W19003  13.309  10.665  11.034
46689W        W19004  28.001  12.775   3.167
46690W        W19005  23.907   1.198  11.627
46691W        W19006  19.545  27.528   1.721
46692W        W19007  15.023  21.031   1.922
46693W        W19008  43.963  24.370   1.968
46694W        W19009  42.395  30.761  13.838
46695W        W19010   4.714   6.618   4.124
46696W        W19011   3.123   2.360   2.680
46697W        W19012  41.461  16.645  13.562
46698W        W19013  33.619  10.854   3.727
46699W        W19014  15.890   9.151  11.568
46700W        W19015  43.467   0.788   1.334
46701W        W19016  18.105   3.742   3.327
46702W        W19017   9.437  31.926  14.338
46703W        W19018  30.018  16.216  10.690
46704W        W19019  32.476  23.517  10.871
46705W        W19020  39.594   6.961   0.170
46706W        W19021  38.892  17.722  13.514
46707W        W19022  30.570   1.248  11.628
46708W        W19023  26.967  41.094   4.232
46709W        W19024  28.385  15.353  11.679
46710W        W19025  24.739  28.465  13.515
46711W        W19026  11.817   1.860  12.592
46712W        W19027  39.910  34.221   0.568
46713W        W19028  25.261  43.625   2.975
46714W        W19029  34.152  42.359  14.511
46715W        W19030  30.522  23.608  13.524
46716W        W19031  10.667  12.922   2.284
46717W        W19032  42.420   7.338  10.153
46718W        W19033   3.409   4.345  12.931
46719W        W19034  27.189   4.359  10.041
46720W        W19035  35.912   2.752   4.629
46721W        W19036  31.547  23.406   4.078
46722W        W19037   5.563  37.223  13.229
46723W        W19038  41.434  19.622   0.280
46724W        W19039  37.004  41.232  13.438
46725W        W19040  42.998  25.198  12.466
46726W        W19041  38.056  25.078  12.638
46727W        W19042  12.141  23.621  14.453
46728W        W19043  28.159   9.550  14.592
46729W        W19044  27.058  13.585   3.249
46730W        W19045  23.249  10.725  11.534
46731W        W19046   3.293  39.958   0.846
46732W        W19047  25.171  30.944   2.163
46733W        W19048  20.544  26.001   0.852
46734W        W19049  35.087  13.269  10.484
46735W        W19050   6.204  35.020   2.535
46736W        W19051   1.752  23.542  13.449
46737W        W19052  38.582  19.237  11.591
46738W        W19053  31.864  43.507  12.149
46739W        W19054   1.665  42.450   1.282
46740W        W19055  14.302  13.869  11.099
46741W        W19056   8.359   9.816   1.956
46742W        W19057  32.416   7.369   2.021
46743W        W19058   2.890  15.926  14.208
46744W        W19059  39.133   9.187   2.208
46745W        W19060  30.157  11.161  11.427
46746W        W19061  31.629  31.995   1.142
46747W        W19062  17.814  42.044  13.472
46748W        W19063  35.749  26.272   0.549
46749W        W19064  16.707   2.041   0.681
46750W        W19065   8.631  14.298   0.226
46751W        W19066   1.629   2.134  14.013
46752W        W19067   8.672   2.836   4.928
46753W        W19068  15.350  15.275   4.422
46754W        W19069  42.295  23.831  13.260
46755W        W19070  37.534  42.786   1.230
46756W        W19071  10.564  35.525   4.690
46757W        W19072  12.802  39.963   2.249
46758W        W19073   9.126  21.519  11.871
46759W        W19074  13.030  40.288   2.630
46760W        W19075  11.079  38.580   1.638
46761W        W19076  10.679   7.683  13.885
46762W        W19077  31.531  30.783   2.684
46763W        W19078   2.066  12.847   1.424
46764W        W19079  28.945  23.428   0.258
46765W        W19080  23.163   2.230  11.166
46766W        W19081  12.774   7.747   2.663
46767W        W19082  32.464  13.515  14.358
46768W        W19083   0.760  25.231  14.853
46769W        W19084  34.667  11.450   0.401
46770W        W19085   2.453  44.509  12.388
46771W        W19086  18.301  23.250   0.444
46772W        W19087  21.180  30.504   1.508
46773W        W19088  26.007  38.881   4.116
46774W        W19089  15.787  28.927   2.273
46775W        W19090   8.208  33.621   1.814
46776W        W19091   2.812  13.680   4.441
46777W        W19092   9.779  35.853   1.842
46778W        W19093  38.153   5.953   4.168
46779W        W19094  14.329   1.770  11.365
46780W        W19095   4.408  36.144  14.534
46781W        W19096  18.660  16.095  14.484
46782W        W19097   9.855  14.610  11.605
46783W        W19098  27.643   5.544   1.404
46784W        W19099  43.028   6.790  10.552
46785W        W19100  26.185  24.543   3.196
46786W        W19101  43.575   2.807  11.182
46787W        W19102   2.289   0.370  11.614
46788W        W19103  37.506  18.125  12.844
46789W        W19104  36.168  39.605  14.394
46790W        W19105  12.671  20.315  11.608
46791W        W19106   9.374  27.924   0.817
46792W        W19107  15.997   1.968   2.252
46793W        W19108  32.810  29.213   2.770
46794W        W19109  30.350  18.107  12.117
46795W        W19110  11.685  44.041   2.169
46796W        W19111  35.089  19.792  14.986
46797W        W19112  18.154  33.587   2.034
46798W        W19113  42.034   2.165  14.367
46799W        W19114  40.411  33.509   4.521
46800W        W19115   2.361  16.899  11.109
46801W        W19116  37.848   6.293  10.907
46802W        W19117   2.926  31.253   2.983
46803W        W19118  15.631  29.955   2.467
46804W        W19119   2.753   3.696  13.031
46805W        W19120  23.040   0.570   2.203
46806W        W19121  22.214  32.620  14.527
46807W        W19122  31.220  21.141  12.896
46808W        W19123  31.128   1.864   2.296
46809W        W19124  24.021   4.817  13.312
46810W        W19125   1.794  38.598  10.710
46811W        W19126   6.984  10.494  11.873
46812W        W19127  23.482  43.400   0.989
46813W        W19128  12.941  40.742   2.358
46814W        W19129  39.274  44.263   1.817
46815W        W19130  18.126  23.745  14.346
46816W        W19131  14.427  10.819   3.392
46817W        W19132  44.338  31.839  13.913
46818W        W19133  18.226  28.115  11.027
46819W        W19134  35.360  15.612  11.633
46820W        W19135  30.705  41.475   3.636
46821W        W19136   0.853   0.349  12.475
46822W        W19137  44.897  30.014   4.250
46823W        W19138  11.446  41.408   3.674
46824W        W19139  19.146  15.179  11.307
46825W        W19140   4.403  24.131   1.801
46826W        W19141  34.981  40.323   1.942
46827W        W19142  26.815   2.311  14.835
46828W        W19143  32.153  44.200  14.786
46829W        W19144  42.792  34.358  11.949
46830W        W19145  32.335  17.783   0.721
46831W        W19146  24.939  23.876  12.807
46832W        W19147  10.765  24.295  14.651
46833W        W19148  20.074  44.841   0.230
46834W        W19149   6.678  13.379  14.322
46835W        W19150  22.986  16.102   4.499
46836W        W19151   6.824  11.642  12.092
46837W        W19152   7.692  22.583  13.170
46838W        W19153  35.727  21.799  14.933
46839W        W19154  21.067   1.750   2.908
46840W        W19155  42.998  30.444  10.672
46841W        W19156  17.598  19.345  13.079
46842W        W19157  23.535  40.229   0.819
46843W        W19158  20.122  15.165  10.596
46844W        W19159   9.270   4.736  13.844
46845W        W19160  42.606  13.597  14.000
46846W        W19161  17.267   1.476   2.707
46847W        W19162  33.832  27.073  14.924
46848W        W19163  22.235  26.910   3.119
46849W        W19164  42.586  36.035   0.258
46850W        W19165  30.026   2.566   3.818
46851W        W19166  16.534   5.706  12.510
46852W        W19167   9.168  29.870  10.647
46853W        W19168  22.292  35.519  12.569
46854W        W19169   7.433  43.383  13.290
46855W        W19170   5.978  32.527  14.546
46856W        W19171  41.096  14.931  11.144
46857W        W19172  31.344  35.644   3.193
46858W        W19173  25.219  27.928   1.221
46859W        W19174  32.654  26.671  10.675
46860W        W19175  14.817  24.569   3.704
46861W        W19176  18.021  22.455   2.929
46862W        W19177   3.850  21.562  12.621
46863W        W19178   1.515  36.540   9.713
46864W        W19179  10.869  16.759  14.658
46865W        W19180  42.824   3.816   4.110
46866W        W19181  31.025  31.097   3.724
46867W        W19182  23.710   7.669  12.460
46868W        W19183  39.946   7.775   1.193
46869W        W19184  21.840   0.356  14.830
46870W        W19185  43.058   9.994   3.215
46871W        W19186  16.308  35.023  14.316
46872W        W19187   3.903  37.598  13.052
46873W        W19188  29.545  33.156  10.271
46874W        W19189  17.821  15.191  11.678
46875W        W19190  15.992   9.690  11.500
46876W        W19191  13.322   5.366   0.742
46877W        W19192  36.983  22.714   2.882
46878W        W19193  42.404  24.960   4.232
46879W        W19194  26.557  11.209   3.344
46880W        W19195  28.101  10.724  12.382
46881W        W19196  35.488   9.375   2.013
46882W        W19197  13.820   1.170  12.316
46883W        W19198  13.490   6.410   2.800
46884W        W19199  16.866   5.407  10.234
46885W        W19200  15.769  26.907  12.364
46886W        W19201  27.378   3.015   9.863
46887W        W19202  30.832  19.722   3.275
46888W        W19203  40.850  20.236  13.472
46889W        W19204  25.168   7.864  13.784
46890W        W19205  11.842  24.496   4.549
46891W        W19206  37.487  41.923  12.349
46892W        W19207  37.770  34.194   9.759
46893W        W19208  10.981   3.975  12.620
46894W        W19209  22.426   2.709  14.084
46895W        W19210  17.145  26.717  11.511
46896W        W19211   7.339   5.709   2.393
46897W        W19212  34.060  36.492  12.044
46898W        W19213  16.669  38.688  11.473
46899W        W19214  13.104   0.645  12.375
46900W        W19215  26.795  33.631  12.051
46901W        W19216  15.013  17.589   2.732
46902W        W19217  22.444  34.561  11.580
46903W        W19218  42.963  33.910   3.712
46904W        W19219  32.002  11.082   4.501
46905W        W19220  24.005   3.378   0.753
46906W        W19221  29.542   6.147  11.594
46907W        W19222  20.581  15.235  10.853
46908W        W19223  21.040  23.022  12.506
46909W        W19224  32.960  41.309   4.129
46910W        W19225  11.810  27.190  13.755
46911W        W19226   1.280  35.310   0.466
46912W        W19227  17.005  40.850   5.662
46913W        W19228  42.752  40.406  13.970
46914W        W19229   8.416  16.262   2.334
46915W        W19230  28.710  26.299   3.213
46916W        W19231  14.426  30.878  14.364
46917W        W19232  41.454  43.837   0.224
46918W        W19233  15.531  15.154   2.961
46919W        W19234   3.800  21.814  14.438
46920W        W19235  38.988  26.094  10.963
46921W        W19236  17.215   3.373   2.321
46922W        W19237   9.577  30.070  13.867
46923W        W19238  27.108   5.924  11.029
46924W        W19239  24.695  15.225   4.229
46925W        W19240  41.265  15.745   1.872
46926W        W19241  28.528   9.116   3.636
46927W        W19242  21.727  43.325   1.204
46928W        W19243  15.646  26.214  11.090
46929W        W19244  38.307   1.175   1.177
46930W        W19245  31.635  10.723  12.228
46931W        W19246  25.626  10.652  14.386
46932W        W19247  10.244  26.628  14.038
46933W        W19248  37.937  32.688   3.640
46934W        W19249  22.754  31.631  10.913
46935W        W19250  37.090  39.737   4.270
46936W        W19251   0.300  35.339  10.191
46937W        W19252  17.782   3.708   3.730
46938W        W19253  13.245  19.814  12.518
46939W        W19254  11.236  37.329   4.376
46940W        W19255  34.453  23.143  11.718
46941W        W19256  39.856  24.790  10.103
46942W        W19257  33.950  29.577   0.318
46943W        W19258  15.703  19.806  13.336
46944W        W19259   2.295  36.530   5.784
46945W        W19260   1.473   9.624  11.678
46946W        W19261  16.616   2.955   3.999
46947W        W19262  44.544   2.327  14.832
46948W        W19263  43.049  18.353   4.564
46949W        W19264  18.323  23.952  10.921
46950W        W19265  29.932  44.515   4.500
46951W        W19266  23.606   2.166   4.565
46952W        W19267  18.235   4.775  13.845
46953W        W19268  30.586  38.433  12.552
46954W        W19269  12.255  17.669  13.063
46955W        W19270  20.095   2.893  12.201
46956W        W19271  13.760  15.800  13.945
46957W        W19272  30.375  23.445  14.246
46958W        W19273   7.837  10.731   2.924
46959W        W19274  42.415  30.500   4.173
46960W        W19275  11.070  10.119   2.437
46961W        W19276  27.974  15.952  14.514
46962W        W19277  35.421   7.919   2.712
46963W        W19278  40.110   9.454  12.027
46964W        W19279  30.006  33.566  14.487
46965W        W19280   0.354   7.198   1.875
46966W        W19281   4.714  11.292   3.761
46967W        W19282  39.322   4.939   1.762
46968W        W19283  21.968  28.525   4.548
46969W        W19284  21.170  39.650  11.717
46970W        W19285  21.791  10.124  14.759
46971W        W19286  34.434  29.106  13.375
46972W        W19287  41.788   7.799   2.017
46973W        W19288  14.208  17.029  12.620
46974W        W19289  40.010   0.993  13.567
46975W        W19290  34.168  37.311  11.049
46976W        W19291  27.665  23.731   4.167
46977W        W19292  37.553  17.238  10.723
46978W        W19293  44.524   2.763  14.529
46979W        W19294  10.938  19.078  12.928
46980W        W19295  32.311   5.932   1.475
46981W        W19296  10.994  36.613  12.208
46982W        W19297   7.127  15.753   4.523
46983W        W19298   2.695  42.383   2.356
46984W        W19299  43.474  31.535   2.792
46985W        W19300  25.941  37.877  13.944
46986W        W19301  43.457  35.039   3.799
46987W        W19302  40.983  23.806   4.223
46988W        W19303  27.683  32.488   2.463
46989W        W19304  24.598  10.895  14.744
46990W        W19305   3.991   6.402  11.798
46991W        W19306  12.174  38.798   0.840
46992W        W19307  25.853   5.350   4.062
46993W        W19308  15.197  37.573   4.471
46994W        W19309  15.561   4.998   2.636
46995W        W19310  38.496  18.251  13.009
46996W        W19311  36.569   9.487  14.979
46997W        W19312  26.144  10.768  10.341
46998W        W19313  33.951   8.655  13.413
46999W        W19314  36.463  10.794   0.270
47000W        W19315  28.445   2.908   0.365
47001W        W19316  40.963  13.064   3.701
47002W        W19317  22.770  41.337   1.356
47003W        W19318  14.047  36.540   0.825
47004W        W19319  22.182   9.659  10.844
47005W        W19320  37.593  36.050   2.670
47006W        W19321  18.271  34.567   1.647
47007W        W19322  33.422  16.793  13.969
47008W        W19323  24.950  23.655  11.900
47009W        W19324  43.313  31.625  10.746
47010W        W19325  28.078  37.554  11.183
47011W        W19326   1.790  29.127  13.950
47012W        W19327  31.812  35.442   2.744
47013W        W19328   8.130  12.992  14.821
47014W        W19329  36.108   0.919   3.195
47015W        W19330  17.352  31.370  13.906
47016W        W19331  27.967  18.508   4.182
47017W        W19332  41.196  32.665  12.433
47018W        W19333  15.923  19.558  11.577
47019W        W19334   4.865   1.164  11.100
47020W        W19335  43.777  14.176  13.828
47021W        W19336  30.081  19.390   2.094
47022W        W19337  34.390   2.910   4.426
47023W        W19338  34.008   0.246   3.003
47024W        W19339  36.572   0.846   0.754
47025W        W19340  20.432   9.695  10.159
47026W        W19341  27.598   4.675  10.085
47027W        W19342  44.685  11.192  13.803
47028W        W19343  19.215  35.363   4.084
47029W        W19344  41.444  22.993  12.952
47030W        W19345  17.820  41.862   0.009
47031W        W19346  44.437  41.001   3.764
47032W        W19347  13.438  35.514  13.588
47033W        W19348  25.561  41.536   0.456
47034W        W19349   9.433  42.050   4.483
47035W        W19350  33.606  34.354   3.664
47036W        W19351  14.265  13.748   2.457
47037W        W19352  30.111  42.181   4.551
47038W        W19353  35.451  44.588  11.547
47039W        W19354  15.117  14.603  12.463
47040W        W19355  37.392  39.391  10.662
47041W        W19356  27.347  12.515  12.071
47042W        W19357   9.430  15.780  12.403
47043W        W19358  19.188  39.064  13.932
47044W        W19359   1.922  44.548   1.377
47045W        W19360  20.575   1.268  10.747
47046W        W19361   9.331  12.383  14.839
47047W        W19362  11.290  29.396  13.598
47048W        W19363  11.366  44.173  11.109
47049W        W19364  42.739  32.671  12.377
47050W        W19365   1.794  16.559  13.604
47051W        W19366  12.542  39.775   3.601
47052W        W19367  37.768  13.398   0.972
47053W        W19368  40.527   9.772   2.409
47054W        W19369  25.446   9.270   3.277
47055W        W19370  30.699  44.496   4.142
47056W        W19371  10.395  16.596  10.668
47057W        W19372  16.300  22.445   0.428
47058W        W19373  21.652  43.179   4.900
47059W        W19374  41.437  26.006   4.152
47060W        W19375  35.184   4.060   1.739
47061W        W19376  20.638   9.613   0.022
47062W        W19377  13.527  18.305  14.170
47063W        W19378   4.166  40.036   3.665
47064W        W19379  30.445  27.099  11.043
47065W        W19380  38.803  10.439   1.241
47066W        W19381   2.904  31.146   2.487
47067W        W19382  11.632  41.868   1.189
47068W        W19383  23.112  42.512   1.675
47069W        W19384  33.622  44.852  13.393
47070W        W19385  24.406   7.413   2.623
47071W        W19386   4.733  26.537  14.482
47072W        W19387  34.026  25.750  13.877
47073W        W19388  34.547  35.363  11.628
47074W        W19389  24.087  23.285  10.056
47075W        W19390  42.652  42.666  10.971
47076W        W19391  12.927  30.566   4.077
47077W        W19392  42.076   5.898  12.685
47078W        W19393  38.384   6.164  13.071
47079W        W19394   4.829   1.641  14.386
47080W        W19395  25.417  33.969  10.746
47081W        W19396  24.161  19.660   1.893
47082W        W19397  21.144  29.368  14.125
47083W        W19398  21.981   5.259  10.499
47084W        W19399  15.527  22.591  14.106
47085W        W19400  14.851  33.923   2.742
47086W        W19401  17.488  14.843  12.922
47087W        W19402  13.288  43.120  12.605
47088W        W19403   4.490  18.252  10.551
47089W        W19404  15.797   2.704   2.812
47090W        W19405  37.938  24.109   3.939
47091W        W19406  36.546   8.643   2.767
47092W        W19407  14.329  24.141   4.980
47093W        W19408   4.293   0.461  12.489
47094W        W19409  30.027  43.269  12.476
47095W        W19410  44.087  20.654   4.629
47096W        W19411  42.450  31.195  10.475
47097W        W19412  15.535  17.293  14.862
47098W        W19413  27.986  19.778  10.751
47099W        W19414  32.457  41.721   3.746
47100W        W19415  30.439   8.869   1.884
47101W        W19416  21.114  25.656   4.796
47102W        W19417  15.671  28.694   3.716
47103W        W19418  14.809  23.512   2.542
47104W        W19419  11.669  22.590   2.237
47105W        W19420  20.029  34.606   4.564
47106W        W19421   1.908   3.957  11.398
47107W        W19422  24.906  23.144  12.038
47108W        W19423  12.680  15.614   3.410
47109W        W19424  26.505  16.296  13.974
47110W        W19425   7.265   2.813   0.890
47111W        W19426  12.714   3.441   3.622
47112W        W19427  34.402  38.908   2.633
47113W        W19428  27.142  37.091  13.884
47114W        W19429   9.233  39.316  12.915
47115W        W19430  31.435  11.164  13.760
47116W        W19431  16.347   5.157   1.234
47117W        W19432  13.700  22.987  11.557
47118W        W19433  32.513   7.388   1.025
47119W        W19434  21.688  41.803  12.495
47120W        W19435  33.000  37.080  11.218
47121W        W19436   0.352  15.410  14.035
47122W        W19437  44.970  35.084   2.442
47123W        W19438   2.953  12.894   0.323
47124W        W19439  34.039  22.645  10.599
47125W        W19440  39.242   3.760  12.141
47126W        W19441   8.839  24.735   1.232
47127W        W19442  35.306  27.008   2.772
47128W        W19443  19.451   9.896   4.163
47129W        W19444  10.745  18.689   5.410
47130W        W19445  17.655  13.600  11.610
47131W        W19446  16.624  24.559   2.186
47132W        W19447   6.420   5.799   0.258
47133W        W19448  22.998  18.191  10.559
47134W        W19449  14.119  21.767   1.893
47135W        W19450  12.043  37.274  11.099
47136W        W19451  32.877  15.925   3.693
47137W        W19452   8.795  11.814  12.448
47138W        W19453  25.680  25.107  10.614
47139W        W19454  13.523  30.748  12.399
47140W        W19455  36.475  14.690   4.602
47141W        W19456  12.182  30.680   3.633
47142W        W19457   3.738  16.011  13.869
47143W        W19458   7.305  16.487  10.741
47144W        W19459  30.591   1.249  13.676
47145W        W19460   9.394  25.535   2.926
47146W        W19461  32.424  25.212   0.292
47147W        W19462  40.571  12.869   3.427
47148W        W19463  21.738  11.803   0.694
47149W        W19464  33.670  25.406   0.313
47150W        W19465  17.541  26.186  12.067
47151W        W19466  22.693  10.121  14.916
47152W        W19467  41.892   6.826   0.051
47153W        W19468  37.264   8.767   4.099
47154W        W19469  40.667  17.417   1.337
47155W        W19470   0.466  19.214   1.408
47156W        W19471  44.520  24.940   3.593
47157W        W19472   9.186  35.676   3.818
47158W        W19473  31.524  10.626  13.978
47159W        W19474  22.019  42.294  12.644
47160W        W19475  32.691   5.807  13.866
47161W        W19476   7.724  25.503  14.656
47162W        W19477  32.869  22.617   4.056
47163W        W19478   2.890   5.639  13.072
47164W        W19479  14.654  12.106  11.057
47165W        W19480  22.954  37.622  13.775
47166W        W19481  18.065  16.725   0.809
47167W        W19482   8.966  21.730  10.499
47168W        W19483  25.671  39.053  13.541
47169W        W19484  36.649   2.775   0.859
47170W        W19485  28.903   1.294  11.942
47171W        W19486  11.275  11.376   2.863
47172W        W19487  28.128  10.221  12.230
47173W        W19488  43.842  44.979  14.610
47174W        W19489  43.370  33.912   2.323
47175W        W19490  27.922  13.526   1.232
47176W        W19491  34.849  24.774   0.749
47177W        W19492  23.191  44.260  12.061
47178W        W19493  40.541   1.377   0.442
47179W        W19494  24.508  10.138  14.243
47180W        W19495   7.557   8.606   4.018
47181W        W19496  29.543   6.239  13.457
47182W        W19497  24.728  44.344   0.239
47183W        W19498  44.275  27.542  13.488
47184W        W19499  39.092   1.484  12.431
47185W        W19500  26.466  29.941  13.980
47186W        W19501  38.263  22.481  12.910
47187W        W19502  43.297   6.224   4.225
47188W        W19503  26.885   2.523  10.691
47189W        W19504  23.960   2.050  14.797
47190W        W19505  36.195   5.495   4.598
47191W        W19506  19.549  22.609   2.891
47192W        W19507  10.652  13.186   3.660
47193W        W19508  28.044  18.048  10.192
47194W        W19509  23.530  36.342   2.909
47195W        W19510   9.322   1.675  13.199
47196W        W19511   6.174  21.035  14.766
47197W        W19512  22.007   8.205  10.521
47198W        W19513  30.206  28.415   1.881
47199W        W19514  13.184  18.780   3.304
47200W        W19515   1.325  25.159  12.494
47201W        W19516  15.814  44.423   4.268
47202W        W19517  36.070  41.742  10.974
47203W        W19518  38.324  40.851   1.436
47204W        W19519   0.752  42.130  12.083
47205W        W19520  24.027  40.113   3.121
47206W        W19521  14.306   5.070  13.102
47207W        W19522  37.820  28.441  11.721
47208W        W19523  42.123  15.037  12.067
47209W        W19524  23.529  22.825   2.794
47210W        W19525  36.614  16.608   1.558
47211W        W19526   4.380   0.377  10.885
47212W        W19527  31.121  21.274  14.314
47213W        W19528  43.344  31.096   2.399
47214W        W19529   2.509  17.108  13.507
47215W        W19530  30.045  39.583   1.910
47216W        W19531  43.859   9.359   3.224
47217W        W19532  35.527   1.137   3.328
47218W        W19533  18.553  43.716  13.572
47219W        W19534  42.386  29.502  14.489
47220W        W19535  22.285  33.931   0.583
47221W        W19536  15.931  39.171  11.349
47222W        W19537  12.031  25.640   3.072
47223W        W19538  31.094  37.342   3.278
47224W        W19539   1.407  42.827   1.554
47225W        W19540   5.321   3.344   2.626
47226W        W19541  38.447  34.566  12.585
47227W        W19542  31.352   5.607   1.518
47228W        W19543  34.608   5.576   2.806
47229W        W19544  27.969  15.198   3.605
47230W        W19545  10.387   9.829  11.164
47231W        W19546  34.899  21.537   1.480
47232W        W19547  12.655  25.732   1.335
47233W        W19548  19.762   1.308   0.910
47234W        W19549   2.389  33.886  12.086
47235W        W19550  10.094  28.024  12.657
47236W        W19551  21.691  24.697   1.900
47237W        W19552   2.132   5.262   4.041
47238W        W19553  33.536   7.607  13.849
47239W        W19554  10.804  41.465  12.526
47240W        W19555  25.955  18.289  12.460
47241W        W19556  39.990  40.873   3.848
47242W        W19557  43.267  34.085   1.245
47243W        W19558   0.535  37.056   4.557
47244W        W19559  18.069   0.413   2.827
47245W        W19560  19.279  40.920  12.861
47246W        W19561   8.966  29.062   1.412
47247W        W19562  34.172  29.724   2.261
47248W        W19563   1.513   8.166  12.227
47249W        W19564  25.467   5.781  14.330
47250W        W19565  37.336   7.044  14.975
47251W        W19566  14.787  42.336  13.776
47252W        W19567  30.036  34.951   4.847
47253W        W19568   5.184  41.981   4.124
47254W        W19569  28.643   9.420   0.857
47255W        W19570  21.667  42.060   0.443
47256W        W19571   5.576  30.555  13.130
47257W        W19572  40.937  25.008  14.003
47258W        W19573   2.830  17.079  11.217
47259W        W19574  29.722  29.672  14.444
47260W        W19575  38.742  33.951   2.433
47261W        W19576   7.042  21.560  14.863
47262W        W19577  12.799  27.510   3.329
47263W        W19578  26.537  34.638   4.794
47264W        W19579  20.037  17.178  12.964
47265W        W19580  37.252   9.338  11.037
47266W        W19581   4.115  37.369   2.374
47267W        W19582  35.780  41.061   2.588
47268W        W19583  13.263  20.617  12.978
47269W        W19584   4.406  25.700   2.759
47270W        W19585  26.776  39.558   0.241
47271W        W19586  40.405  43.595  12.137
47272W        W19587   7.220   8.226   2.230
47273W        W19588  34.567  23.033   3.329
47274W        W19589   6.963  40.140   4.532
47275W        W19590   2.191  15.780   0.190
47276W        W19591   9.681  26.582  14.022
47277W        W19592  14.621  31.879  10.753
47278W        W19593  44.150  41.750   2.232
47279W        W19594  25.338  14.165   1.491
47280W        W19595   3.567  32.016  12.867
47281W        W19596  39.356  17.500   1.776
47282W        W19597  20.235   6.188   2.657
47283W        W19598  34.842   3.671   2.653
47284W        W19599   3.004  28.767   4.106
47285W        W19600  42.520  19.257  13.960
47286W        W19601  16.182  21.741  12.547
47287W        W19602   7.217  28.480   2.720
47288W        W19603  23.139  41.308  12.929
47289W        W19604  21.677  20.674   2.826
47290W        W19605  36.027  41.778   1.817
47291W        W19606  38.381  34.479  13.977
47292W        W19607   8.130  23.503   0.193
47293W        W19608  25.522   4.820   1.385
47294W        W19609  22.046  33.666   2.980
47295W        W19610  25.114  21.064  13.051
47296W        W19611   6.514  10.877  10.775
47297W        W19612  35.103  13.763  13.938
47298W        W19613  28.102  22.570   2.343
47299W        W19614  32.050  26.340  14.665
47300W        W19615   8.834  16.162  12.312
47301W        W19616  44.776  29.878  14.643
47302W        W19617   0.511  10.709  11.466
47303W        W19618  28.703  33.070   4.033
47304W        W19619  28.357  23.682   2.583
47305W        W19620   8.356  33.953   3.747
47306W        W19621  21.862  17.798  13.823
47307W        W19622  22.011  11.641  14.023
47308W        W19623  31.926  10.366  14.419
47309W        W19624  12.757  10.427   3.676
47310W        W19625   1.043  32.888   4.217
47311W        W19626   7.009  17.862   0.262
47312W        W19627  17.170  38.827   5.431
47313W        W19628  11.726   3.832   3.305
47314W        W19629  13.556   8.000  14.132
47315W        W19630  19.043  13.181  12.223
47316W        W19631   8.082  14.881  14.005
47317W        W19632  21.582   8.856   3.304
47318W        W19633  34.525  32.670   3.615
47319W        W19634  35.542  14.884  12.010
47320W        W19635  14.089   0.764   1.725
47321W        W19636  35.319  19.200  13.555
47322W        W19637  30.698  17.741  12.236
47323W        W19638  17.014  39.607   4.584
47324W        W19639  33.667   9.378   3.844
47325W        W19640   3.068  18.965  11.600
47326W        W19641   5.710  18.312  12.050
47327W        W19642  19.909  36.153   0.433
47328W        W19643   3.727   9.265   3.617
47329W        W19644  40.959  34.620   0.928
47330W        W19645  26.072  26.627  14.984
47331W        W19646  44.825   0.176  11.053
47332W        W19647  30.602  10.151  11.612
47333W        W19648  34.831  11.608   4.568
47334W        W19649  34.941  32.386   0.890
47335W        W19650   7.316  22.294   1.997
47336W        W19651  26.948  16.542  11.567
47337W        W19652  10.738  16.538  13.852
47338W        W19653  37.591  27.671   2.400
47339W        W19654  28.695  33.531   5.406
47340W        W19655  13.219  28.617   1.286
47341W        W19656  18.176  14.889  13.445
47342W        W19657  40.085   3.258   3.167
47343W        W19658   4.780  21.452   3.101
47344W        W19659  10.318  11.131  14.879
47345W        W19660  35.494  16.751   3.636
47346W        W19661   2.777  11.281  10.597
47347W        W19662  42.202  38.405   3.702
47348W        W19663  32.063  25.203  12.538
47349W        W19664   9.937   9.296   4.105
47350W        W19665  32.985  25.681   1.932
47351W        W19666   6.257  18.300  13.557
47352W        W19667  37.348   2.695   4.629
47353W        W19668  14.090  21.979  12.543
47354W        W19669   3.312  31.877  10.541
47355W        W19670  11.125  15.148  14.372
47356W        W19671  19.200  40.045  12.904
47357W        W19672  12.982   6.906  10.116
47358W        W19673  11.026   2.316   2.757
47359W        W19674  28.506  32.425   0.991
47360W        W19675  12.179  18.110   2.838
47361W        W19676  25.727  20.654  14.786
47362W        W19677  20.239  25.114  11.203
47363W        W19678  38.868  19.318  13.136
47364W        W19679  24.254  44.024  13.406
47365W        W19680  35.550  33.577  14.027
47366W        W19681  10.301  37.284  11.725
47367W        W19682  44.763  41.787  11.194
47368W        W19683  21.777   1.496   4.122
47369W        W19684   1.404  25.734  12.918
47370W        W19685  29.963  33.752   1.875
47371W        W19686  26.536  31.854   2.235
47372W        W19687  17.385  13.346  11.219
47373W        W19688   8.927  20.842   1.158
47374W        W19689  37.989  21.554  12.041
47375W        W19690  40.938  32.058   2.616
47376W        W19691   6.367   2.842   1.921
47377W        W19692   2.913  18.167  13.161
47378W        W19693   2.791  36.849  14.162
47379W        W19694  17.350   5.739   4.229
47380W        W19695  17.345  44.638   2.991
47381W        W19696  20.098  40.035   1.439
47382W        W19697  28.733  17.171   0.039
47383W        W19698   3.671  41.347  14.943
47384W        W19699  24.539   4.145   3.002
47385W        W19700  13.512  20.103  10.616
47386W        W19701   3.032  13.987  12.848
47387W        W19702  42.506  29.655   0.812
47388W        W19703  32.585   5.645   4.268
47389W        W19704  24.791  44.795  14.942
47390W        W19705  34.992  19.374  11.950
47391W        W19706  19.720  21.178   0.123
47392W        W19707  38.371  27.963  12.083
47393W        W19708  23.865  16.012   1.750
47394W        W19709  23.528   6.851  14.830
47395W        W19710  14.369  11.316   1.209
47396W        W19711   1.015  36.886   3.075
47397W        W19712   8.509  24.718  11.204
47398W        W19713   3.397  17.153   1.506
47399W        W19714  24.167  28.690   2.834
47400W        W19715  17.529  35.786   4.674
47401W        W19716  44.687  24.775  11.924
47402W        W19717  13.582  27.183  12.639
47403W        W19718  34.956   9.459  13.446
47404W        W19719  31.095   2.283   3.307
47405W        W19720  15.801  43.337   3.204
47406W        W19721  22.044  27.190   3.894
47407W        W19722  14.766  43.286  14.229
47408W        W19723  11.901  18.744   2.420
47409W        W19724   8.223  14.445  11.668
47410W        W19725  35.832  22.291  11.631
47411W        W19726  31.909  40.530   0.237
47412W        W19727  13.175  31.619  13.309
47413W        W19728  34.630  28.042   2.926
47414W        W19729  28.717  15.392  14.365
47415W        W19730  11.227  20.275   0.440
47416W        W19731  27.667  33.719   0.365
47417W        W19732   1.897  41.654  12.042
47418W        W19733   3.152   1.979   0.209
47419W        W19734   7.377  43.002   0.247
47420W        W19735  41.430  23.017  11.178
47421W        W19736  26.971  44.006   2.601
47422W        W19737  43.995  19.434   1.399
47423W        W19738   5.352  28.652  10.686
47424W        W19739  15.188  21.993   3.673
47425W        W19740  44.731  16.783   1.658
47426W        W19741  39.446  44.805   4.297
47427W        W19742  10.130  33.708  11.644
47428W        W19743  14.583  36.706   2.264
47429W        W19744   1.698  20.334   0.388
47430W        W19745  33.172  44.999   1.973
47431W        W19746  32.362  21.901   1.109
47432W        W19747  43.026  30.946  13.840
47433W        W19748   8.169  22.258  13.482
47434W        W19749  12.857  18.676   1.982
47435W        W19750  40.255  41.389  13.184
47436W        W19751  18.175  21.251  13.401
47437W        W19752  31.702  11.598   0.876
47438W        W19753  16.509  37.821   0.489
47439W        W19754  34.917  23.427   2.303
47440W        W19755  32.861  43.438  11.553
47441W        W19756  39.434  36.826  11.160
47442W        W19757   1.528  38.394   4.177
47443W        W19758  39.538  14.418  11.911
47444W        W19759  24.728  37.478   0.352
47445W        W19760  15.736  31.501  11.680
47446W        W19761  18.153  37.200   1.794
47447W        W19762   2.655  37.956   1.494
47448W        W19763   3.943  33.031  13.784
47449W        W19764  29.457  37.326  14.542
47450W        W19765   6.490  30.610  11.145
47451W        W19766  14.587  21.592   4.629
47452W        W19767  31.002   1.397   4.661
47453W        W19768  41.583  34.925   2.706
47454W        W19769  42.178  34.018   0.457
47455W        W19770  35.315  14.482  11.138
47456W        W19771  33.900   3.952  14.878
47457W        W19772  43.268  33.945  14.784
47458W        W19773   6.183  20.532  14.913
47459W        W19774  28.151  27.651   4.073
47460W        W19775   5.215  18.563  12.917
47461W        W19776  21.018  42.278   3.329
47462W        W19777  44.999  20.130   2.695
47463W        W19778  20.588  38.388  14.456
47464W        W19779   3.508   6.692   1.341
47465W        W19780  39.827  36.049   0.160
47466W        W19781  24.517  39.778  13.360
47467W        W19782  38.503   2.298  10.444
47468W        W19783  15.275  21.957   4.934
47469W        W19784  35.613  41.377  14.240
47470W        W19785  39.289  40.457   4.153
47471W        W19786   4.997  25.676   0.500
47472W        W19787  18.439   8.150  10.226
47473W        W19788   4.258  29.215   4.127
47474W        W19789  34.799  31.102   3.251
47475W        W19790  23.693  13.711  12.743
47476W        W19791  31.842  35.866  10.304
47477W        W19792  17.960   9.098   0.272
47478W        W19793  11.399  18.732   2.649
47479W        W19794   8.614  23.029  13.418
47480W        W19795  42.593  31.392   1.389
47481W        W19796  44.219   1.289  11.473
47482W        W19797  32.494  24.985  13.354
47483W        W19798   7.649  35.095  11.394
47484W        W19799   2.358   6.022   3.594
47485W        W19800  40.459  13.907  13.452
47486W        W19801  16.815  43.670   4.700
47487W        W19802  36.381  21.762   3.659
47488W        W19803   0.907  18.306   0.852
47489W        W19804  20.276   2.452   2.363
47490W        W19805  22.223   0.999   2.720
47491W        W19806  12.098  14.006  12.583
47492W        W19807  35.220  22.783  11.275
47493W        W19808  15.835   8.364  12.998
47494W        W19809  36.219  31.612   0.019
47495W        W19810  16.226   1.230   2.168
47496W        W19811   2.365  34.883  12.813
47497W        W19812   1.222  15.489  13.481
47498W        W19813  35.699  39.237  11.162
47499W        W19814  11.672   6.362  13.240
47500W        W19815  44.830  21.234   3.223
47501W        W19816  36.821  32.025  13.491
47502W        W19817  44.864  13.253   2.337
47503W        W19818  23.520  31.011   3.770
47504W        W19819  42.980  19.298  13.725
47505W        W19820  34.794  11.881  13.461
47506W        W19821  10.674  26.735  14.314
47507W        W19822   4.952  43.588   2.660
47508W        W19823   6.404  24.387  11.163
47509W        W19824  21.967  38.546  14.040
47510W        W19825  10.590  30.891   4.196
47511W        W19826   9.935  31.019   3.649
47512W        W19827  32.478  11.896   1.280
47513W        W19828  28.021  12.896  11.764
47514W        W19829   6.829  13.309   3.729
47515W        W19830  22.531  17.417  12.762
47516W        W19831  14.239  12.585  10.669
47517W        W19832  13.674  26.666  14.059
47518W        W19833   5.843   2.882  13.418
47519W        W19834  44.761  24.496  14.039
47520W        W19835   7.147  26.208  13.856
47521W        W19836  27.648   9.272   2.264
47522W        W19837  26.800  37.525  13.908
47523W        W19838   8.208  12.751  12.078
47524W        W19839   6.131  34.969   2.017
47525W        W19840  10.364  10.564  11.713
47526W        W19841  26.027  13.700   1.638
47527W        W19842  22.232  28.098  12.200
47528W        W19843  23.354  40.604  12.535
47529W        W19844  31.936  38.403   0.393
47530W        W19845  31.899   8.855   1.882
47531W        W19846   1.782  12.081   1.969
47532W        W19847  15.571  22.177  14.400
47533W        W19848  29.341  14.668  12.399
47534W        W19849   7.826   9.637   3.673
47535W        W19850  12.839  40.922  11.977
47536W        W19851  42.717   8.200   0.845
47537W        W19852  20.662  33.722  14.330
47538W        W19853   2.768   2.774  12.872
47539W        W19854   5.960  29.148  10.501
47540W        W19855  20.180   9.597   5.068
47541W        W19856  26.964  24.207  14.833
47542W        W19857  20.510  16.265  13.019
47543W        W19858   9.818   9.859   0.261
47544W        W19859   5.219  11.696   4.560
47545W        W19860   8.011  15.103   3.602
47546W        W19861  10.145   7.712  12.202
47547W        W19862  30.024   8.228   3.369
47548W        W19863  38.025  43.704  14.334
47549W        W19864   6.197  26.472   4.889
47550W        W19865  27.684  32.012   4.286
47551W        W19866  12.018  37.544   1.747
47552W        W19867   2.682  15.712   0.325
47553W        W19868  16.586  24.229  13.990
47554W        W19869  30.137  34.695   1.435
47555W        W19870  35.950  37.541   3.609
47556W        W19871  35.812   9.685  12.819
47557W        W19872  27.894   2.276  10.610
47558W        W19873  12.163  27.298  12.126
47559W        W19874  42.877  35.049   1.308
47560W        W19875  31.669  27.442  11.198
47561W        W19876   3.907   5.344  13.724
47562W        W19877  38.458   6.267  11.557
47563W        W19878  29.626  37.929   0.832
47564W        W19879  34.737  44.241   0.907
47565W        W19880  40.422   2.417   2.835
47566W        W19881  14.585   2.038  13.932
47567W        W19882  32.028  36.255  10.609
47568W        W19883  35.531  18.815  14.344
47569W        W19884  20.033  21.274  12.964
47570W        W19885  38.993  25.245   3.399
47571W        W19886  33.458  35.994   3.697
47572W        W19887  43.601   0.334  11.544
47573W        W19888  21.943  20.979   9.747
47574W        W19889  41.103  10.037  11.319
47575W        W19890   0.242  27.848   4.286
47576W        W19891  14.141  12.765  13.867
47577W        W19892  16.016  10.764  14.738
47578W        W19893  10.829  28.403  10.657
47579W        W19894  37.495  34.174  14.279
47580W        W19895  13.561  44.260   3.263
47581W        W19896  15.636   6.851  10.358
47582W        W19897  29.614  22.429  12.087
47583W        W19898   2.458  36.337  12.937
47584W        W19899  27.197  35.595  11.821
47585W        W19900  30.705   7.654   3.212
47586W        W19901  17.639  25.646   2.661
47587W        W19902  13.798   1.559   1.759
47588W        W19903  28.537   1.638  12.564
47589W        W19904  31.348  42.769  14.877
47590W        W19905  10.910  14.821   0.169
47591W        W19906   1.727  27.040   2.779
47592W        W19907  28.207   0.748   1.891
47593W        W19908  43.532  15.875   1.191
47594W        W19909  18.305  37.628   4.176
47595W        W19910  32.560   4.189   3.768
47596W        W19911  22.489  17.693   0.330
47597W        W19912  12.702  37.602   4.801
47598W        W19913  13.724  34.133  14.384
47599W        W19914   8.144   6.953  13.542
47600W        W19915  18.273  22.035  12.905
47601W        W19916  25.276  31.139   4.586
47602W        W19917  29.077  32.512   2.699
47603W        W19918  32.991  20.961   1.316
47604W        W19919  32.166  38.418   3.030
47605W        W19920  12.926  44.320   3.726
47606W        W19921  34.529  32.463   2.149
47607W        W19922  31.857  14.710   1.931
47608W        W19923  40.055  26.126  12.167
47609W        W19924  36.867  15.293   3.747
47610W        W19925   0.962   5.204   2.277
47611W        W19926  30.083  26.964  10.702
47612W        W19927   2.358   5.198   0.461
47613W        W19928   0.799  43.896   1.015
47614W        W19929  43.134  25.103   2.742
47615W        W19930  22.293  18.710   2.321
47616W        W19931  39.361  42.262  12.966
47617W        W19932  25.525  12.398  13.895
47618W        W19933  31.403  27.583   3.393
47619W        W19934  35.570  42.293  14.932
47620W        W19935  30.635  17.217   2.245
47621W        W19936  17.337  22.213   4.315
47622W        W19937  40.466   4.761   3.201
47623W        W19938   5.442  33.328   0.068
47624W        W19939  13.298  36.127  11.637
47625W        W19940   7.672  28.600   1.923
47626W        W19941  28.177   0.021  10.880
47627W        W19942  11.888  21.129  14.117
47628W        W19943  14.312  33.270   2.369
47629W        W19944  19.027  11.341   2.045
47630W        W19945  43.242   0.673   2.192
47631W        W19946  23.179  41.802   3.605
47632W        W19947  24.302  30.914   1.218
47633W        W19948   0.752   5.848   0.694
47634W        W19949  27.960  11.213  14.909
47635W        W19950  13.372  29.655  13.374
47636W        W19951  37.954  39.850  13.974
47637W        W19952  13.222  23.709  11.708
47638W        W19953  12.655   0.823  12.154
47639W        W19954   1.889  44.718   4.159
47640W        W19955  14.308  13.186   0.014
47641W        W19956   2.538   5.808  10.609
47642W        W19957  19.733  44.034  11.572
47643W        W19958   0.360  28.397  11.335
47644W        W19959   5.767   5.431  14.930
47645W        W19960  19.095  42.500  12.125
47646W        W19961  33.091  32.223   1.589
47647W        W19962  28.035   3.419  14.075
47648W        W19963  40.460  18.577   2.761
47649W        W19964  33.889  10.432  11.143
47650W        W19965  28.719   6.205   4.641
47651W        W19966  35.340  13.210   2.374
47652W        W19967  13.662  13.752  14.843
47653W        W19968  36.431  34.460   2.242
47654W        W19969  43.833  39.495   0.139
47655W        W19970  15.545  13.442   3.168
47656W        W19971  12.928  12.251   2.836
47657W        W19972  12.852  37.392   1.702
47658W        W19973  13.345  10.724   2.171
47659W        W19974  20.632   6.684   1.766
47660W        W19975  26.749  12.191   3.176
47661W        W19976   4.380  35.868  11.789
47662W        W19977  36.081  43.180   1.867
47663W        W19978   6.846  15.553  13.973
47664W        W19979  35.049  38.874  14.968
47665W        W19980  43.897  31.814   2.690
47666W        W19981  35.320  13.692  11.603
47667W        W19982  22.323  25.773   4.084
47668W        W19983  28.916   0.567  14.361
47669W        W19984  43.574  44.425  12.857
47670W        W19985  27.602  41.549   2.682
47671W        W19986  19.776   9.946  14.589
47672W        W19987  10.771   3.783  12.194
47673W        W19988  22.902  11.910   0.982
47674W        W19989  41.914  12.893  11.040
47675W        W19990   1.313   8.151  14.554
47676W        W19991  19.988   1.881   1.189
47677W        W19992  24.235  36.812  13.100
47678W        W19993   0.581  21.823  12.497
47679W        W19994   7.416   6.085   0.251
47680W        W19995  14.173  41.096  11.684
47681W        W19996  27.484   3.666   2.842
47682W        W19997   3.934  19.372   0.397
47683W        W19998  30.329  18.050   2.588
47684W        W19999  27.472  31.659  13.453
47685W        W20000  31.385  11.185   0.833
47686W        W20001  21.935   0.825  10.515
47687W        W20002  39.235   1.914  13.969
47688W        W20003  14.228  13.094  11.548
47689W        W20004  23.167  27.418   3.195
47690W        W20005  42.906  34.624  14.330
47691W        W20006  18.057  41.843  10.684
47692W        W20007  26.587   1.769  14.321
47693W        W20008   5.383   9.049   4.139
47694W        W20009   3.314  31.958  11.971
47695W        W20010  38.328  43.278  14.521
47696W        W20011  13.670  21.097   3.372
47697W        W20012   1.212  19.706  14.837
47698W        W20013   9.170   9.119   3.369
47699W        W20014  14.034  10.191   3.089
47700W        W20015  19.888   0.703  12.950
47701W        W20016  31.464   6.908  12.655
47702W        W20017  30.413  14.551  13.405
47703W        W20018  14.192  29.230   0.458
47704W        W20019  12.306   6.300  10.426
47705W        W20020  13.506  44.778   0.519
47706W        W20021  27.154  15.689  10.143
47707W        W20022   1.222  40.428  13.952
47708W        W20023  10.364  40.019  13.331
47709W        W20024  12.800  31.939  12.194
47710W        W20025  15.741  38.835  13.941
47711W        W20026  20.190  25.153  11.745
47712W        W20027  18.338  33.107  14.526
47713W        W20028   3.228  19.335  14.680
47714W        W20029   3.236  13.766  14.571
47715W        W20030  39.832  39.554   0.488
47716W        W20031  37.137   7.368   4.652
47717W        W20032  10.879  31.031  13.990
47718W        W20033   8.500  29.417  12.926
47719W        W20034  39.942   9.214   2.794
47720W        W20035   2.112   9.755   3.298
47721W        W20036  14.422   9.435  13.985
47722W        W20037   3.862  33.073  13.263
47723W        W20038  36.109  38.589   3.721
47724W        W20039   5.379   9.984  13.327
47725W        W20040  13.535  23.745  13.429
47726W        W20041   0.486   8.433   1.326
47727W        W20042  24.136  23.197  12.822
47728W        W20043  31.700  16.511   0.818
47729W        W20044  37.965  15.372  14.654
47730W        W20045  25.445  38.788  11.102
47731W        W20046  33.468  21.884   4.008
47732W        W20047   9.351  11.247  10.938
47733W        W20048  15.229  34.118  12.054
47734W        W20049  37.614  10.589  11.569
47735W        W20050  14.122  18.736   4.260
47736W        W20051   4.674  16.756   2.441
47737W        W20052  13.702  26.318  12.591
47738W        W20053  15.780  40.274  10.114
47739W        W20054  34.949  25.089  12.378
47740W        W20055  32.058   7.126  11.469
47741W        W20056  23.024  30.964   4.665
47742W        W20057  38.909   2.951   0.523
47743W        W20058  41.887  29.520  13.768
47744W        W20059  40.885  21.055  10.494
47745W        W20060  16.251  23.076   3.633
47746W        W20061  39.533  38.240   0.032
47747W        W20062   5.961  10.697  12.004
47748W        W20063  18.863   6.523   3.358
47749W        W20064   1.648  21.782  11.054
47750W        W20065   0.970  21.297   9.962
47751W        W20066  40.833  22.033  13.382
47752W        W20067  14.123  20.631   2.230
47753W        W20068   0.958  33.525   1.188
47754W        W20069   7.478   8.242  10.986
47755W        W20070   1.261  33.043  12.471
47756W        W20071   9.383   3.042  13.406
47757W        W20072   0.740  36.405   3.595
47758W        W20073  11.525  42.371   2.886
47759W        W20074  41.171  33.569   2.266
47760W        W20075  19.806   3.156  11.389
47761W        W20076  21.579  17.584   1.351
47762W        W20077  34.746  22.750  11.083
47763W        W20078  23.547  21.557   0.775
47764W        W20079   1.311  13.125   3.205
47765W        W20080  40.372  12.778   4.954
47766W        W20081  28.520  27.127  10.886
47767W        W20082   9.903  44.992  12.842
47768W        W20083  17.859  21.661  11.119
47769W        W20084  21.275  28.905   4.091
47770W        W20085  34.474  36.376  11.548
47771W        W20086  41.535  37.260  11.496
47772W        W20087  39.440  14.121   1.805
47773W        W20088   7.040  28.363  11.095
47774W        W20089   6.936  37.839  11.549
47775W        W20090   2.794  33.306   4.839
47776W        W20091  32.905  19.700   4.292
47777W        W20092  33.580  12.287  10.489
47778W        W20093  29.520  39.021   3.233
47779W        W20094   2.892  24.383  14.319
47780W        W20095  41.997  28.592  13.078
47781W        W20096  14.241  30.546   3.903
47782W        W20097  26.544  26.681  13.886
47783W        W20098  29.723  22.179  14.524
47784W        W20099  38.305  44.443  12.982
47785W        W20100  44.767  14.324   3.238
47786W        W20101  40.419  12.277  10.476
47787W        W20102  39.789  14.830   3.247
47788W        W20103  44.835  25.725   3.596
47789W        W20104  39.890  16.093  11.626
47790W        W20105  20.711  16.653   1.900
47791W        W20106  12.175  16.215  10.374
47792W        W20107  35.941  10.217   3.278
47793W        W20108  14.909   8.755  14.318
47794W        W20109  42.663  20.725  12.051
47795W        W20110   1.743  22.080  13.236
47796W        W20111   6.716  35.471  14.320
47797W        W20112  43.876   6.915   0.821
47798W        W20113  41.776   6.755   0.947
47799W        W20114  37.551  42.426  14.588
47800W        W20115  39.980  13.626   4.432
47801W        W20116  36.441  10.311   0.469
47802W        W20117   1.925  38.953   1.952
47803W        W20118   5.287  38.841   1.369
47804W        W20119  12.247  15.763   3.719
47805W        W20120   9.747  36.361   2.720
47806W        W20121  27.060  28.488   0.707
47807W        W20122  26.932   8.340   1.878
47808W        W20123  38.389   6.295   2.912
47809W        W20124  28.939  24.485  13.043
47810W        W20125  19.710  17.186   3.190
47811W        W20126   6.787  41.564  14.223
47812W        W20127  39.348  41.257   1.889
47813W        W20128  22.974  29.101  14.264
47814W        W20129  35.151   9.848  12.075
47815W        W20130  38.292  20.548  12.846
47816W        W20131  26.597  12.695  14.396
47817W        W20132  44.235  38.971   3.140
47818W        W20133  15.631  11.672  13.363
47819W        W20134  18.204  25.476  13.025
47820W        W20135  26.194  11.185  11.110
47821W        W20136  26.628  14.171   4.985
47822W        W20137  18.192  29.962   0.847
47823W        W20138  27.174  20.496  13.796
47824W        W20139   0.478   0.292  12.834
47825W        W20140  28.294   3.607   9.794
47826W        W20141  13.714   5.346   3.158
47827W        W20142   3.813  38.640   0.499
47828W        W20143  15.312  42.596   1.353
47829W        W20144  18.001   6.626   1.550
47830W        W20145  29.073   6.746   3.256
47831W        W20146   6.968  20.660   3.857
47832W        W20147  26.247  28.465  11.506
47833W        W20148   4.569  21.342   1.670
47834W        W20149  34.917  40.135   4.132
47835W        W20150  21.269  10.413   4.492
47836W        W20151  31.893  28.896  13.508
47837W        W20152  14.311  32.439  14.362
47838W        W20153  41.264  37.478   2.387
47839W        W20154  26.004   3.867   1.379
47840W        W20155  44.916   5.805  13.395
47841W        W20156  16.806   3.387  13.001
47842W        W20157  34.430  24.178   3.429
47843W        W20158  16.097  23.194  14.970
47844W        W20159  26.967   5.432  13.886
47845W        W20160  20.341   0.477  12.957
47846W        W20161  36.628  41.355  14.795
47847W        W20162   5.700  10.284   2.815
47848W        W20163  19.042   7.116  10.583
47849W        W20164   7.118   6.681   3.575
47850W        W20165  17.284  21.774   3.156
47851W        W20166  16.818  35.359   3.226
47852W        W20167  13.684  12.689   0.079
47853W        W20168  25.282   7.505  13.414
47854W        W20169  24.022  19.359   4.197
47855W        W20170  33.266   9.912   0.923
47856W        W20171   7.878  32.399  11.543
47857W        W20172  23.811  32.090  12.142
47858W        W20173  33.297  22.187   1.409
47859W        W20174  16.149  14.324   4.506
47860W        W20175  15.045  30.048   4.533
47861W        W20176  29.934  15.657   3.955
47862W        W20177  41.765   9.778  10.483
47863W        W20178   0.064   0.289   2.276
47864W        W20179  13.232  13.065   1.878
47865W        W20180   9.845   9.649   3.759
47866W        W20181  36.845  24.459  13.549
47867W        W20182  18.027  38.737   2.308
47868W        W20183  36.020   9.683   4.125
47869W        W20184   9.889  27.153  10.980
47870W        W20185  34.819  20.502  11.400
47871W        W20186   6.826  21.110   4.076
47872W        W20187  29.708  43.771   0.867
47873W        W20188  28.956  19.682   2.647
47874W        W20189  21.242  39.254  14.784
47875W        W20190  36.513  42.604  11.170
47876W        W20191   4.278  32.071   2.699
47877W        W20192   5.037  27.127   4.982
47878W        W20193  34.936   7.641  13.795
47879W        W20194  30.424  11.544   3.697
47880W        W20195   6.365  24.661  13.959
47881W        W20196  32.839  10.130  11.477
47882W        W20197  38.050   9.151   2.725
47883W        W20198  18.163   5.461   0.461
47884W        W20199  37.012   8.728  13.602
47885W        W20200   8.669  34.973  13.841
47886W        W20201   4.773  12.378   4.126
47887W        W20202  10.146  30.412  11.988
47888W        W20203  42.376  33.883  14.967
47889W        W20204  31.342  21.642  12.992
47890W        W20205  25.545  36.915  11.672
47891W        W20206  10.153  10.886  14.432
47892W        W20207   8.514  38.574  10.467
47893W        W20208  29.901  43.996   2.321
47894W        W20209  16.780  37.570  14.183
47895W        W20210  37.135  11.525  10.641
47896W        W20211  18.693  21.249  14.029
47897W        W20212  17.715   6.825  13.358
47898W        W20213  17.278  11.119   4.153
47899W        W20214   2.823  15.669   0.825
47900W        W20215  16.973  42.939   2.183
47901W        W20216  18.199  10.835   4.170
47902W        W20217  43.945  22.495  10.836
47903W        W20218  17.530  42.989   1.290
47904W        W20219  19.942  30.399  14.443
47905W        W20220  17.306  29.054   3.642
47906W        W20221  21.041  29.937  11.893
47907W        W20222   5.411  11.918   2.240
47908W        W20223   9.241  21.575   3.102
47909W        W20224   8.551  28.940  12.120
47910W        W20225   0.160  33.911  10.807
47911W        W20226  41.954  24.034  11.169
47912W        W20227  19.511   2.850   1.220
47913W        W20228   0.825   7.036  13.357
47914W        W20229  34.348  34.197   3.137
47915W        W20230  27.558  39.960   2.117
47916W        W20231  31.509   8.233   0.133
47917W        W20232  44.468  34.833  13.807
47918W        W20233  32.897  29.200  12.167
47919W        W20234  30.499  24.151   1.817
47920W        W20235  19.481  29.136  14.367
47921W        W20236  38.570  21.264  13.438
47922W        W20237  28.768  26.621  13.927
47923W        W20238  21.323  17.384   0.897
47924W        W20239   6.264  18.284   4.592
47925W        W20240  33.310  21.935  14.041
47926W        W20241  31.673  40.783  13.335
47927W        W20242  30.436  23.736   2.772
47928W        W20243   0.518  21.738   4.682
47929W        W20244  21.111  12.349   4.110
47930W        W20245  23.472  22.772  11.479
47931W        W20246  17.685  37.356   4.823
47932W        W20247   5.406  41.324   0.952
47933W        W20248  39.604   1.908   1.808
47934W        W20249  36.761  26.248   0.278
47935W        W20250  43.752  35.385  11.730
47936W        W20251  21.766  11.394  14.404
47937W        W20252  28.285   9.045  10.906
47938W        W20253  15.045   6.370  13.532
47939W        W20254  43.320  30.640   4.936
47940W        W20255  33.304  15.786   2.859
47941W        W20256  35.434  15.436  14.550
47942W        W20257  43.532   5.265   3.116
47943W        W20258  43.717  36.980   0.844
47944W        W20259  14.534  12.780  14.211
47945W        W20260  35.927  20.249  12.539
47946W        W20261   8.246   0.086  10.812
47947W        W20262  35.626  39.550   2.053
47948W        W20263  28.175  23.098   2.273
47949W        W20264  28.926  31.257  13.762
47950W        W20265  37.904   3.541   0.674
47951W        W20266  36.323  32.153   0.290
47952W        W20267   0.981  34.321   0.297
47953W        W20268   9.195  18.823   3.583
47954W        W20269   1.941   3.560  14.257
47955W        W20270  19.187  42.262  12.634
47956W        W20271  20.821   5.327  11.195
47957W        W20272  37.034  42.561   3.063
47958W        W20273  12.854  29.114  13.519
47959W        W20274  32.157   1.957  13.488
47960W        W20275  42.949  16.698  14.554
47961W        W20276   6.177  40.791  11.398
47962W        W20277   7.981  31.481   2.018
47963W        W20278  41.512  31.084   1.844
47964W        W20279   6.649   4.704  12.050
47965W        W20280  41.022  22.760   4.254
47966W        W20281   1.250  30.591   4.672
47967W        W20282  33.540  22.108   0.932
47968W        W20283  24.498   1.650   4.478
47969W        W20284  29.668  22.641  11.584
47970W        W20285  38.552  18.587   1.443
47971W        W20286  18.662   6.748  10.537
47972W        W20287  30.591   3.942   3.774
47973W        W20288  18.527  15.192  14.471
47974W        W20289  24.115   2.189   3.274
47975W        W20290  29.712  35.744  10.150
47976W        W20291  43.867  27.731   3.247
47977W        W20292  44.426   9.032  14.767
47978W        W20293  38.792   7.476  11.184
47979W        W20294  21.138   3.407   2.281
47980W        W20295  44.297  39.443  11.801
47981W        W20296  17.901  16.822  14.900
47982W        W20297  30.926   5.193   2.736
47983W        W20298  26.241  25.449   3.260
47984W        W20299  21.959  36.500  10.703
47985W        W20300  25.995  11.947  14.420
47986W        W20301   3.753  39.493   0.261
47987W        W20302  37.346  29.266  14.744
47988W        W20303   4.262   2.882  10.759
47989W        W20304   0.500  15.724   1.566
47990W        W20305  36.388  32.685   0.501
47991W        W20306  28.101  27.167   3.205
47992W        W20307  41.673  24.516   2.270
47993W        W20308  35.312  22.440  11.678
47994W        W20309  30.976  44.747  11.356
47995W        W20310   3.882  18.395   3.651
47996W        W20311  30.918  22.273  12.694
47997W        W20312  13.795  19.699   2.282
47998W        W20313   9.395   2.724  13.018
47999W        W20314  40.789  24.188   2.660
48000W        W20315  41.054  33.940   4.729
48001W        W20316  23.534  10.680   2.791
48002W        W20317  32.165  24.226  12.468
48003W        W20318  14.768  22.724   0.340
48004W        W20319  19.045  13.202   4.934
48005W        W20320   1.448   4.269  12.978
48006W        W20321  19.641   0.034  14.996
48007W        W20322  34.405  43.944   3.305
48008W        W20323   8.446  32.001  14.460
48009W        W20324  26.556  36.980   0.620
48010W        W20325  40.244   2.867  13.946
48011W        W20326  36.903   9.121   3.551
48012W        W20327  39.782  28.972  12.906
48013W        W20328  39.343  10.573   4.186
48014W        W20329  11.117   4.451  14.238
48015W        W20330   9.722  27.893   1.550
48016W        W20331  38.535   8.335  12.667
48017W        W20332  33.644  43.932  14.470
48018W        W20333  26.915  17.745   2.663
48019W        W20334  33.354   5.878   0.405
48020W        W20335   2.695  25.791  14.930
48021W        W20336   0.487  13.302  10.638
48022W        W20337  15.215  13.727   2.867
48023W        W20338  11.850   1.773  10.108
48024W        W20339  10.193  17.391   2.095
48025W        W20340   5.264  22.752  14.312
48026W        W20341   6.355  13.758  13.013
48027W        W20342  38.718  13.488   3.892
48028W        W20343  35.368  21.986  12.485
48029W        W20344  10.317  16.727   0.967
48030W        W20345  23.966  21.946  11.040
48031W        W20346  37.780  35.026   0.960
48032W        W20347  39.588   2.259  14.313
48033W        W20348  37.990  35.887  12.650
48034W        W20349   6.201  40.446   1.646
48035W        W20350  42.706   6.052  13.302
48036W        W20351   3.291  40.942   2.699
48037W        W20352  23.200   9.968  10.988
48038W        W20353  39.719  29.509   1.500
48039W        W20354  13.186  26.763  13.339
48040W        W20355  21.124  24.254   3.090
48041W        W20356  26.071  33.125   5.201
48042W        W20357  23.197   0.789   4.707
48043W        W20358  18.161   6.872  10.630
48044W        W20359  12.154   1.334   2.637
48045W        W20360   9.479  17.494  12.571
48046W        W20361   5.958  44.005  12.354
48047W        W20362  36.055  33.050   0.302
48048W        W20363  10.479  43.510  11.517
48049W        W20364  24.726  24.018  10.586
48050W        W20365  11.700  38.119   4.532
48051W        W20366  24.561  25.564  11.135
48052W        W20367  42.945  14.851   5.435
48053W        W20368   4.593  29.367   3.595
48054W        W20369  25.093   4.414   2.293
48055W        W20370  40.744  11.117   0.240
48056W        W20371  42.277  12.841  12.753
48057W        W20372  41.578  17.753  14.407
48058W        W20373  33.258  12.731   0.692
48059W        W20374  31.660   5.598   2.148
48060W        W20375  23.734   5.529  14.393
48061W        W20376  25.116  17.316  10.633
48062W        W20377  44.453  29.818   0.945
48063W        W20378  26.101  35.638   4.209
48064W        W20379  21.587   1.947  14.967
48065W        W20380  11.356   1.025   1.773
48066W        W20381  23.240  41.710   2.697
48067W        W20382  16.638  16.439  10.992
48068W        W20383   8.758  34.169   1.176
48069W        W20384   6.762   8.766   1.667
48070W        W20385  39.419   8.282   1.445
48071W        W20386  18.823  36.873   4.653
48072W        W20387  28.359  28.125  14.482
48073W        W20388   0.623  29.073  12.034
48074W        W20389  29.614   4.462  14.522
48075W        W20390  23.379   5.034  12.963
48076W        W20391  38.758   1.382  14.752
48077W        W20392   7.446  42.246  13.413
48078W        W20393   0.871  15.600  14.871
48079W        W20394  25.950   8.839   2.687
48080W        W20395  39.953   5.436  10.724
48081W        W20396   0.429   4.315   1.383
48082W        W20397   2.494  11.172   3.574
48083W        W20398   7.917  28.130   2.236
48084W        W20399   9.900  28.198  14.593
48085W        W20400  38.603  29.875  14.794
48086W        W20401  23.941  34.651  13.512
48087W        W20402   9.960   2.979   0.329
48088W        W20403  37.820  21.154   4.039
48089W        W20404  44.802   6.226   4.353
48090W        W20405  34.784   4.387   1.733
48091W        W20406  41.017  27.750   2.240
48092W        W20407  23.023  25.175  10.928
48093W        W20408  30.970   4.408   3.255
48094W        W20409  25.664  29.676  13.473
48095W        W20410  32.772   1.976  12.023
48096W        W20411  15.035  19.245  11.359
48097W        W20412   1.012  43.236  14.389
48098W        W20413  33.959  13.265  13.537
48099W        W20414  35.852  36.434   3.199
48100W        W20415  40.023   8.107  11.005
48101W        W20416  22.152  20.735   0.730
48102W        W20417  18.010  29.642   2.932
48103W        W20418  33.532   7.131   5.087
48104W        W20419   3.969  17.310  13.496
48105W        W20420  19.163   7.661   1.638
48106W        W20421  39.537  27.266  14.029
48107W        W20422   6.356  26.704   3.395
48108W        W20423  27.106  39.981   0.030
48109W        W20424  16.613  31.673   0.851
48110W        W20425  20.372  38.436   9.720
48111W        W20426  24.141   7.858   0.916
48112W        W20427  31.705  31.998   1.650
48113W        W20428  13.291   9.718   3.606
48114W        W20429  12.570   4.759  11.900
48115W        W20430  29.694   2.856  11.651
48116W        W20431   2.355  12.054   4.728
48117W        W20432  25.132   0.161   2.609
48118W        W20433  42.122  32.505  11.092
48119W        W20434  22.564  28.158   0.731
48120W        W20435   3.772   6.855  11.963
48121W        W20436   6.218  10.428   2.789
48122W        W20437  37.377  10.672  14.648
48123W        W20438  37.023   0.486  11.730
48124W        W20439  35.566  35.424  14.425
48125W        W20440   8.061  10.297  13.941
48126W        W20441   4.868  43.119  10.289
48127W        W20442  21.163  36.506   1.272
48128W        W20443   8.088   6.841   2.741
48129W        W20444  34.825  26.528  10.712
48130W        W20445  43.889  24.787   0.982
48131W        W20446   9.304  29.370  10.747
48132W        W20447  11.238  34.378   0.822
48133W        W20448   0.639  10.570   3.262
48134W        W20449  36.563   2.756  12.558
48135W        W20450  18.501  11.157  14.493
48136W        W20451  19.461  33.302   1.948
48137W        W20452  16.030  33.368  13.998
48138W        W20453   4.771  30.895  10.721
48139W        W20454  18.544  17.009  12.408
48140W        W20455   3.528   8.608  11.886
48141W        W20456   0.002  31.147   4.241
48142W        W20457   8.109  35.474   3.158
48143W        W20458  37.759  24.632   1.128
48144W        W20459   0.852   7.821  12.466
48145W        W20460  20.318  32.023   2.416
48146W        W20461  26.086   4.900   3.833
48147W        W20462  23.029  21.191   1.381
48148W        W20463  14.325  43.652   2.229
48149W        W20464  16.561  12.191   1.882
48150W        W20465   1.609  27.326  12.121
48151W        W20466   1.034   1.448  12.047
48152W        W20467  28.485   8.523   0.289
48153W        W20468  23.777  28.014  10.369
48154W        W20469  39.099  12.877  11.067
48155W        W20470  15.316   9.152   4.391
48156W        W20471  27.990  30.356  10.531
48157W        W20472  27.681  43.999   0.853
48158W        W20473  37.800  22.728   2.225
48159W        W20474  24.832  21.944   4.535
48160W        W20475  20.493  11.640  13.946
48161W        W20476   2.887   6.487  13.476
48162W        W20477  38.426  31.566  10.346
48163W        W20478  30.919  31.722  13.611
48164W        W20479  32.768  30.852  10.598
48165W        W20480  31.982  27.008  13.696
48166W        W20481  11.665  14.121   5.264
48167W        W20482  24.526  31.172   3.623
48168W        W20483  17.137  29.978   0.653
48169W        W20484  17.788  23.239   2.654
48170W        W20485   7.819  39.680   0.081
48171W        W20486  37.442   0.893   3.283
48172W        W20487  23.980   2.295   1.836
48173W        W20488  37.078  13.214   0.217
48174W        W20489   5.838   4.607   2.778
48175W        W20490  36.118  14.807   3.283
48176W        W20491  16.715  20.157  12.183
48177W        W20492  11.470  26.972  14.135
48178W        W20493   5.638  30.933  11.081
48179W        W20494   8.216   7.814  13.574
48180W        W20495  25.567  41.295  14.992
48181W        W20496  30.132  19.544  14.163
48182W        W20497  44.219  23.782  12.592
48183W        W20498  12.267  13.256  13.763
48184W        W20499   1.149  35.905  12.882
48185W        W20500   8.732   4.357   1.024
48186W        W20501  10.138  35.590   2.246
48187W        W20502  12.172  38.051  14.681
48188W        W20503  26.640  40.512  14.372
48189W        W20504  43.503  20.170   1.754
48190W        W20505  36.423  31.675   0.505
48191W        W20506  44.687  30.129   0.188
48192W        W20507  30.651  10.992   0.745
48193W        W20508  26.499   1.014   2.253
48194W        W20509  33.651  43.963  13.885
48195W        W20510  40.795   1.537  12.097
48196W        W20511   5.114  32.036  11.167
48197W        W20512  21.479   1.985   2.673
48198W        W20513  10.521  26.534   1.399
48199W        W20514  13.733   9.182  10.428
48200W        W20515   0.964  36.209  10.687
48201W        W20516  27.568  35.482  14.509
48202W        W20517  19.660   5.980  14.069
48203W        W20518  17.062  20.971  12.779
48204W        W20519  13.940  17.611   0.774
48205W        W20520  26.611  16.628   3.161
48206W        W20521   4.549  39.458   0.490
48207W        W20522  36.540  33.891   4.582
48208W        W20523  40.998  14.172   1.438
48209W        W20524  19.224  40.808   1.791
48210W        W20525  13.090  36.474  12.890
48211W        W20526  13.677  42.865  14.755
48212W        W20527  30.966  19.606  11.629
48213W        W20528  39.754  28.854   4.174
48214W        W20529  14.828  28.027  11.621
48215W        W20530  23.172   7.625   0.010
48216W        W20531  34.593  34.869  11.695
48217W        W20532  23.570  15.119   1.211
48218W        W20533  35.453  35.169  13.956
48219W        W20534  33.537  13.910  13.785
48220W        W20535  39.036   7.585   1.803
48221W        W20536  11.210  29.220   2.473
48222W        W20537  40.007  28.469  12.160
48223W        W20538  17.971   0.548  10.586
48224W        W20539  31.518  33.898   4.424
48225W        W20540  41.228  30.495   4.180
48226W        W20541  10.227  37.033  14.786
48227W        W20542   2.471  18.592  10.619
48228W        W20543  33.836  19.687  14.322
48229W        W20544  22.184  40.698  14.922
48230W        W20545  35.826  14.213   0.250
48231W        W20546   9.244  33.476   1.408
48232W        W20547  20.549   2.486  12.487
48233W        W20548  38.325  34.135   2.706
48234W        W20549  40.875  36.856  10.461
48235W        W20550  15.939  25.922  13.013
48236W        W20551   0.716  37.140  11.905
48237W        W20552  23.447  20.563  10.757
48238W        W20553  29.498   4.112   4.168
48239W        W20554  39.988  29.631  13.889
48240W        W20555  42.829   0.357   3.620
48241W        W20556   2.002  39.555   3.752
48242W        W20557   1.273  11.384   2.817
48243W        W20558  37.949  26.576  14.030
48244W        W20559  19.030  44.037   1.332
48245W        W20560  17.846  22.508  13.417
48246W        W20561  29.701  36.664   4.636
48247W        W20562  44.500   7.123  10.431
48248W        W20563  10.121  15.267  10.588
48249W        W20564  33.243   5.892  13.092
48250W        W20565  18.097  41.221   0.979
48251W        W20566  19.740  11.440   5.035
48252W        W20567   3.407  37.050  13.380
48253W        W20568   5.165  26.258   1.270
48254W        W20569  27.179  43.687  12.418
48255W        W20570  42.332  31.469   1.840
48256W        W20571  12.451  41.366   0.822
48257W        W20572  36.281  30.597   0.719
48258W        W20573  23.009  18.171  11.516
48259W        W20574  32.105  27.491   0.247
48260W        W20575  22.021   4.016   4.061
48261W        W20576  13.401  15.310  11.846
48262W        W20577  15.314  42.815  11.961
48263W        W20578  38.153  23.409  13.113
48264W        W20579  22.469  16.268  12.650
48265W        W20580  18.699  37.968   3.685
48266W        W20581  40.857  18.828   4.377
48267W        W20582  14.813  22.653  12.717
48268W        W20583  43.281  19.110   4.571
48269W        W20584  10.696  40.445   0.256
48270W        W20585  26.566  15.863   3.314
48271W        W20586  25.075  38.360  11.021
48272W        W20587  24.313  42.174   0.262
48273W        W20588  21.800  22.749   4.123
48274W        W20589  25.605  20.302   0.162
48275W        W20590  43.756  34.020  12.157
48276W        W20591  36.943  26.242   4.844
48277W        W20592  34.196  40.863   0.419
48278W        W20593  43.807  11.213  11.124
48279W        W20594  39.984  15.313   0.278
48280W        W20595  42.242  30.578   1.770
48281W        W20596  14.863  14.388   4.119
48282W        W20597  10.798  40.487  11.092
48283W        W20598  18.667  30.963  11.094
48284W        W20599  39.714  26.993   0.873
48285W        W20600  30.491   0.783  13.838
48286W        W20601  29.909  10.206  13.476
48287W        W20602  19.221  42.293   1.257
48288W        W20603   1.177  10.404  12.029
48289W        W20604  36.438  24.756   4.693
48290W        W20605  28.703  34.292   4.959
48291W        W20606  43.463   9.877   4.238
48292W        W20607  21.726  11.119   1.353
48293W        W20608   9.611  43.737   4.336
48294W        W20609  43.009  27.900  11.158
48295W        W20610   0.006  15.303  13.351
48296W        W20611   2.319  11.703  11.002
48297W        W20612  31.188   4.279  13.898
48298W        W20613  25.561  32.135  10.739
48299W        W20614  13.036  14.829   3.182
48300W        W20615  26.594  35.064  11.473
48301W        W20616  44.313  22.226  13.889
48302W        W20617   0.045   2.924   2.356
48303W        W20618  35.532   3.548   0.775
48304W        W20619  23.912   8.178   1.764
48305W        W20620  11.255  12.075   2.471
48306W        W20621  37.626  26.121  12.331
48307W        W20622  43.886  16.092   4.892
48308W        W20623  27.933  13.114   0.938
48309W        W20624  12.958  12.865   1.271
48310W        W20625  14.589  20.485   0.630
48311W        W20626  17.650  33.065  13.877
48312W        W20627  38.888  10.844   4.246
48313W        W20628  22.168  12.523   0.792
48314W        W20629  37.359   1.245   2.898
48315W        W20630  30.930  16.343  14.933
48316W        W20631  22.129  39.567   4.480
48317W        W20632  21.076   6.975   0.155
48318W        W20633  38.442  25.976  12.944
48319W        W20634  16.069  20.696   1.368
48320W        W20635  22.080  29.030  10.702
48321W        W20636  27.728   0.877  10.448
48322W        W20637  22.462  36.921  12.384
48323W        W20638   5.766  42.820   0.692
48324W        W20639  39.384  35.049  14.475
48325W        W20640  20.691  17.107  11.157
48326W        W20641   9.877   8.221  13.311
48327W        W20642  27.912  24.493  11.550
48328W        W20643  41.334   7.542   4.735
48329W        W20644   4.891  18.689   1.428
48330W        W20645  38.079  31.984   1.048
48331W        W20646  34.476  18.775  13.466
48332W        W20647  44.943  11.059   1.922
48333W        W20648  42.695  34.323  13.957
48334W        W20649  20.775  21.273  11.827
48335W        W20650  15.299   1.449  14.854
48336W        W20651   0.873  13.395   3.310
48337W        W20652   7.348  12.407  13.962
48338W        W20653  15.570  11.775   1.515
48339W        W20654  16.123   2.820   3.333
48340W        W20655  40.447  17.910   1.234
48341W        W20656   5.189  28.538   4.682
48342W        W20657  34.014  28.055   3.167
48343W        W20658  13.382   0.866  13.631
48344W        W20659  26.728  17.757   3.653
48345W        W20660  13.994  18.740   0.489
48346W        W20661   7.389  30.172   5.004
48347W        W20662  12.579  31.301   2.395
48348W        W20663   9.163  11.717   4.142
48349W        W20664  12.422   0.290   3.653
48350W        W20665  14.329  31.044  10.700
48351W        W20666  43.533   8.399  11.572
48352W        W20667  26.610  34.494   2.778
48353W        W20668  18.220  39.337   3.297
48354W        W20669  13.607  27.429  10.377
48355W        W20670   5.684  19.614  11.541
48356W        W20671  43.799  39.727  13.319
48357W        W20672  17.640   4.382   1.960
48358W        W20673   5.029  42.331  12.450
48359W        W20674  20.473  43.388   4.172
48360W        W20675  26.710  30.383  13.788
48361W        W20676  35.877  30.107   3.223
48362W        W20677   3.783  25.475   3.902
48363W        W20678  30.993  39.134   4.031
48364W        W20679  15.047  27.917   3.530
48365W        W20680  36.368  25.164   2.082
48366W        W20681   5.934  10.307   2.364
48367W        W20682  15.653  12.095  11.414
48368W        W20683   4.208  30.770   1.376
48369W        W20684  28.988   4.616  10.208
48370W        W20685  31.167  31.953   2.484
48371W        W20686   8.769  13.796   3.444
48372W        W20687  42.809  35.779  12.608
48373W        W20688   6.348  13.103   1.400
48374W        W20689  13.271  14.960  11.022
48375W        W20690  10.585  35.662  10.749
48376W        W20691   4.422   8.485  14.132
48377W        W20692  12.434  44.744  11.932
48378W        W20693  18.167   4.160  10.621
48379W        W20694  37.345  38.324   0.393
48380W        W20695  26.561  18.028  11.135
48381W        W20696  30.318   5.370  11.731
48382W        W20697   0.829  11.151  10.202
48383W        W20698  17.459  43.079  14.503
48384W        W20699  16.230   0.996   3.576
48385W        W20700   0.244  35.398  11.059
48386W        W20701  20.181   9.812   1.266
48387W        W20702  20.789   3.261   5.063
48388W        W20703  34.869  28.480   3.151
48389W        W20704  16.015  21.649   1.422
48390W        W20705  16.643  31.495  12.794
48391W        W20706  36.169  40.476  12.779
48392W        W20707  37.057   9.733  10.767
48393W        W20708  44.876  36.480   0.651
48394W        W20709  43.272  28.172  12.248
48395W        W20710   8.518  21.213  11.671
48396W        W20711  17.837  40.916   3.863
48397W        W20712  31.002  38.371   3.279
48398W        W20713  31.017  16.238  13.076
48399W        W20714  15.029  23.113   1.798
48400W        W20715  37.999  43.228  10.676
48401W        W20716   1.727  28.491  10.564
48402W        W20717  41.381  30.148   4.549
48403W        W20718  30.362  21.307   4.319
48404W        W20719  12.172  36.024   4.160
48405W        W20720  24.600   3.897   1.810
48406W        W20721  32.110  42.828  13.133
48407W        W20722  11.328  30.578   4.159
48408W        W20723  18.323  26.103   0.953
48409W        W20724  10.838  27.143  11.073
48410W        W20725  37.625  29.031  11.642
48411W        W20726  26.416  43.981  10.544
48412W        W20727  30.682  22.795  12.915
48413W        W20728   8.352  27.105   3.155
48414W        W20729  16.554  36.970   1.021
48415W        W20730  14.361  34.811   3.162
48416W        W20731  17.090  29.295  14.370
48417W        W20732  33.321  37.573   2.778
48418W        W20733  37.854  17.484  10.355
48419W        W20734  32.082  27.922   5.003
48420W        W20735  36.213  22.210  14.239
48421W        W20736  23.150  36.141  12.166
48422W        W20737  43.427  10.744   9.851
48423W        W20738  35.589  12.625  14.747
48424W        W20739   7.258  20.163  11.578
48425W        W20740   9.780   6.145   1.378
48426W        W20741  13.243  34.823  13.139
48427W        W20742   1.362  27.415  11.147
48428W        W20743  11.749  14.080  11.915
48429W        W20744  18.499  15.403  10.535
48430W        W20745  42.348  28.975  14.436
48431W        W20746  22.327  35.627  11.118
48432W        W20747   6.939  38.699   1.398
48433W        W20748  12.516  42.722   4.688
48434W        W20749  11.237  15.312   1.282
48435W        W20750  30.215  44.412   4.067
48436W        W20751  24.385  29.077  11.142
48437W        W20752  16.210  27.411   9.830
48438W        W20753  14.730   0.448   2.343
48439W        W20754  22.765  34.047   3.864
48440W        W20755  22.921   8.035  10.718
48441W        W20756  16.217  24.462   4.877
48442W        W20757  19.370  13.407   3.286
48443W        W20758  30.962  35.126  12.929
48444W        W20759  31.826  27.148   2.159
48445W        W20760  29.056  39.805   4.039
48446W        W20761   9.371  16.306   2.304
48447W        W20762  43.048  16.321   3.364
48448W        W20763  36.063  23.455   2.972
48449W        W20764  25.458  32.985   3.514
48450W        W20765  32.518  30.327  14.540
48451W        W20766  44.180  13.875   4.269
48452W        W20767  11.913  23.632   1.279
48453W        W20768  40.471   7.592   1.711
48454W        W20769  36.942  42.353  13.297
48455W        W20770   7.286   2.792  12.932
48456W        W20771  19.029  17.716  10.858
48457W        W20772  26.450  12.671  12.552
48458W        W20773  44.306  43.860   3.605
48459W        W20774   0.485   7.374   4.175
48460W        W20775   4.220  21.464   4.138
48461W        W20776  15.936  16.555  14.275
48462W        W20777  27.719  17.130  12.326
48463W        W20778  33.618   9.700  13.075
48464W        W20779  36.374  31.888  11.694
48465W        W20780  13.333  27.993   1.790
48466W        W20781   7.156   3.151   1.309
48467W        W20782   7.906  13.845   0.040
48468W        W20783   1.998   1.233  12.971
48469W        W20784  26.967   5.112  11.477
48470W        W20785  44.800  24.680  10.578
48471W        W20786  41.606   7.130  12.438
48472W        W20787  41.780  37.788   4.057
48473W        W20788   7.416  44.455   3.323
48474W        W20789  39.480  35.900   0.520
48475W        W20790  19.614  40.890   4.864
48476W        W20791  10.881  23.177  14.501
48477W        W20792  10.250   7.725   3.894
48478W        W20793   2.397  22.809  12.196
48479W        W20794  41.007  31.073   1.940
48480W        W20795  21.981   6.002   0.395
48481W        W20796  43.956  26.307   1.271
48482W        W20797  26.392   4.466  11.510
48483W        W20798  24.462  40.993  10.576
48484W        W20799  23.770   2.539   3.654
48485W        W20800  12.737  26.136  12.825
48486W        W20801  12.438  22.608   3.365
48487W        W20802   5.504  18.239   1.908
48488W        W20803  42.267  18.997   3.661
48489W        W20804  23.708  18.881  14.541
48490W        W20805  24.778  14.240   3.253
48491W        W20806  21.495  30.168  14.364
48492W        W20807   4.973  24.903   2.327
48493W        W20808  10.589  44.054  14.242
48494W        W20809  14.836  39.199  12.518
48495W        W20810  26.443  29.094  10.376
48496W        W20811  43.049  29.482  13.018
48497W        W20812  40.868   0.825   3.197
48498W        W20813  19.182  30.865   1.180
48499W        W20814  43.890  40.453   3.301
48500W        W20815  18.089  13.233   4.331
48501W        W20816  41.240  10.804  11.111
48502W        W20817   4.873  13.778   2.304
48503W        W20818  32.527  10.864  12.948
48504W        W20819  34.603  20.552  12.330
48505W        W20820   9.221   8.687   5.008
48506W        W20821  26.493  24.448  14.743
48507W        W20822  34.602   1.744   2.407
48508W        W20823  28.591  12.175   3.672
48509W        W20824  38.782  20.878   4.134
48510W        W20825  16.354  39.968  11.049
48511W        W20826  19.180  39.982  14.086
48512W        W20827  36.346  31.004   4.244
48513W        W20828   6.685  18.738  12.913
48514W        W20829  21.308   7.077  10.399
48515W        W20830   9.857  27.023  12.660
48516W        W20831  18.223  38.819  10.754
48517W        W20832  25.275  44.823   4.661
48518W        W20833  11.665  16.234  13.552
48519W        W20834  25.179   0.671   3.411
48520W        W20835   8.375   6.403  11.413
48521W        W20836  26.631  32.250   0.427
48522W        W20837   4.585   5.811  13.994
48523W        W20838  29.908  44.402  10.740
48524W        W20839  29.499  42.944  11.157
48525W        W20840  23.992  14.445   5.008
48526W        W20841  32.259   8.641  14.784
48527W        W20842  35.973  29.579  14.805
48528W        W20843  18.332  12.443   2.392
48529W        W20844  24.205  28.953  14.766
48530W        W20845  15.179  30.657  13.398
48531W        W20846   6.465  29.394   3.284
48532W        W20847  25.255  24.132   2.619
48533W        W20848  15.732  20.119   3.195
48534W        W20849  33.033   0.021  13.089
48535W        W20850  30.057  17.747   0.743
48536W        W20851   3.575  27.963   3.398
48537W        W20852  21.488  42.344   4.829
48538W        W20853  22.169  13.192   3.727
48539W        W20854  19.215  28.986  14.861
48540W        W20855  15.540  12.326  10.481
48541W        W20856  37.991   3.650  11.888
48542W        W20857  18.707   8.274  14.271
48543W        W20858  11.236   0.701   4.059
48544W        W20859   4.776  20.794  13.019
48545W        W20860  40.536  18.397   3.232
48546W        W20861  41.072  38.973  14.246
48547W        W20862   4.741  17.122   4.962
48548W        W20863  31.549   7.117   1.458
48549W        W20864  35.149  31.795  10.294
48550W        W20865  10.647  34.215  11.095
48551W        W20866  14.240   3.888  14.287
48552W        W20867  43.428  29.186   3.276
48553W        W20868  44.256  13.672  13.156
48554W        W20869  26.728  20.386   3.620
48555W        W20870  17.576  14.134   3.305
48556W        W20871  22.215  37.611  14.316
48557W        W20872  42.314  39.864  14.986
48558W        W20873  38.891  11.504  10.453
48559W        W20874  36.194  27.615   3.732
48560W        W20875   6.306   6.227   1.824
48561W        W20876  33.374  13.246  13.393
48562W        W20877  18.666   6.798  11.511
48563W        W20878  27.989   6.379   4.001
48564W        W20879  25.597  42.089  14.543
48565W        W20880   5.355  28.369   3.067
48566W        W20881  29.169   7.723   1.149
48567W        W20882   0.527  12.338  10.684
48568W        W20883   5.958  41.570   0.243
48569W        W20884  33.949  20.548   3.387
48570W        W20885  13.719   3.751   1.386
48571W        W20886  36.763  25.973  12.743
48572W        W20887  32.984  40.824   4.663
48573W        W20888  16.162  17.837   4.162
48574W        W20889  30.541   3.744  13.046
48575W        W20890  18.275  15.205  10.962
48576W        W20891  25.118  12.322  13.576
48577W        W20892  20.264  26.698   0.301
48578W        W20893  32.639  24.532   0.404
48579W        W20894  14.034  22.283   1.946
48580W        W20895  10.913  41.049  14.546
48581W        W20896   4.988   5.444  10.685
48582W        W20897  37.993  40.477   1.789
48583W        W20898  40.543   5.865  13.329
48584W        W20899  11.350   7.561   0.142
48585W        W20900  26.713  41.849  12.188
48586W        W20901   2.837   7.880  11.968
48587W        W20902  37.608  25.084  14.795
48588W        W20903  30.168  23.672   3.520
48589W        W20904   0.585  44.436   2.343
48590W        W20905  19.535  42.691   0.295
48591W        W20906  38.059  33.854  10.935
48592W        W20907  40.308  43.238   4.623
48593W        W20908  29.826   6.406   3.294
48594W        W20909  11.662  41.618  12.162
48595W        W20910  21.633  12.333   2.899
48596W        W20911  25.309   8.683  12.888
48597W        W20912  40.921  11.758   1.257
48598W        W20913  13.359  13.047  13.065
48599W        W20914  38.113  31.119  12.079
48600W        W20915  23.971  30.264   1.224
48601W        W20916   6.227  36.630  11.698
48602W        W20917  36.529  42.712   1.417
48603W        W20918  22.772   6.788  13.502
48604W        W20919  43.278  16.196  10.655
48605W        W20920  35.224  19.751  12.933
48606W        W20921  15.911   5.886  11.475
48607W        W20922  42.292  23.665  13.754
48608W        W20923  42.135  35.152   1.705
48609W        W20924  40.883   4.806   2.382
48610W        W20925  36.412  37.928  14.868
48611W        W20926  15.532  42.023  12.380
48612W        W20927  38.797  42.210  10.677
48613W        W20928  18.512   0.556  14.918
48614W        W20929  14.076  25.450  11.453
48615W        W20930  40.985  32.919  13.679
48616W        W20931  44.766  17.080  13.944
48617W        W20932  38.290  26.245   3.773
48618W        W20933  38.651  31.169  13.036
48619W        W20934  38.870  18.824  12.840
48620W        W20935   3.733  33.147   1.753
48621W        W20936  37.817  29.102   1.429
48622W        W20937  22.049  30.869   4.677
48623W        W20938   5.781  11.631   2.500
48624W        W20939   6.698  44.212   0.277
48625W        W20940  37.476  15.842  12.951
48626W        W20941  41.987  23.543  12.499
48627W        W20942  16.296   1.515  13.162
48628W        W20943  41.749  13.276   2.607
48629W        W20944  13.154   7.281   0.051
48630W        W20945   3.697  11.628   4.451
48631W        W20946  16.299  20.800  14.520
48632W        W20947  29.851  29.475  11.304
48633W        W20948   7.184   7.588   1.245
48634W        W20949  24.626  30.858   1.707
48635W        W20950  44.493   2.030  13.448
48636W        W20951   9.039  42.756  11.565
48637W        W20952   0.836   6.952   4.852
48638W        W20953   5.377  24.051  13.644
48639W        W20954  11.325   7.273  10.674
48640W        W20955  12.661  13.968  10.514
48641W        W20956  13.498  34.513  11.643
48642W        W20957  10.901   9.949   1.315
48643W        W20958  10.319  37.357   2.733
48644W        W20959  31.392  18.333  11.181
48645W        W20960  42.846  35.926  13.093
48646W        W20961  18.355   0.210   4.539
48647W        W20962   2.435   6.793   4.368
48648W        W20963  20.802  20.618   2.225
48649W        W20964  27.348  21.990  10.866
48650W        W20965   0.255   3.881  12.431
48651W        W20966  29.221  17.081   1.461
48652W        W20967  29.999  34.879   0.395
48653W        W20968  28.385   9.423  10.409
48654W        W20969  11.103  22.602   3.132
48655W        W20970   3.636   3.281   0.459
48656W        W20971  35.220   0.885   2.987
48657W        W20972   5.094  11.775  10.958
48658W        W20973  13.626   8.472  13.928
48659W        W20974  30.932  32.042  12.697
48660W        W20975  30.455  41.603   1.867
48661W        W20976  18.051  37.637  12.507
48662W        W20977  24.671  41.022   1.822
48663W        W20978  19.919   8.944   1.774
48664W        W20979  41.698  35.002  14.642
48665W        W20980  22.653  40.157   3.629
48666W        W20981   8.390   8.268   0.773
48667W        W20982  17.104  34.147  11.529
48668W        W20983  27.741   2.700   0.888
48669W        W20984  12.743  26.011  11.397
48670W        W20985  32.596  40.370   3.428
48671W        W20986  41.336   9.446  10.293
48672W        W20987  40.741  30.390   4.369
48673W        W20988   5.982  41.062   0.143
48674W        W20989  33.271  41.863  13.030
48675W        W20990  33.683   7.366   1.034
48676W        W20991  26.121  39.769  11.268
48677W        W20992  15.802  10.162   3.170
48678W        W20993  34.155  38.081  11.674
48679W        W20994  39.895  40.037  12.763
48680W        W20995  36.062  24.932   2.434
48681W        W20996   3.825   7.089  14.846
48682W        W20997  30.395   9.872  13.223
48683W        W20998  42.002  38.129   3.063
48684W        W20999  28.044  23.947   3.870
48685W        W21000  11.397  17.747  12.501
48686W        W21001  40.804  27.567  12.578
48687W        W21002  17.235  27.425  12.031
48688W        W21003   1.499  42.758  12.878
48689W        W21004  26.542  30.784   2.704
48690W        W21005  39.757  17.389   1.450
48691W        W21006   6.145  11.387   1.755
48692W        W21007   9.269   9.600  11.674
48693W        W21008  26.525  19.785  11.322
48694W        W21009  32.639  14.726  11.596
48695W        W21010  32.009  34.415  11.112
48696W        W21011  25.225   2.853   4.487
48697W        W21012  11.814  20.781   3.868
48698W        W21013  19.684   4.251   1.367
48699W        W21014  34.390  31.521   2.419
48700W        W21015   5.386  22.007  11.489
48701W        W21016  44.777  21.191   0.729
48702W        W21017  37.108  12.679  11.060
48703W        W21018   8.219   7.487   1.816
48704W        W21019  29.026  13.279  14.979
48705W        W21020   1.169  44.541   4.621
48706W        W21021  37.388  16.518  13.464
48707W        W21022  33.427   5.155   1.483
48708W        W21023   3.049   9.141  12.627
48709W        W21024   0.206   2.398   4.954
48710W        W21025  12.804  34.466  14.068
48711W        W21026  20.778  43.695   1.657
48712W        W21027  27.274  36.054  14.092
48713W        W21028   2.002   0.573  14.756
48714W        W21029  42.347  24.139   0.447
48715W        W21030  37.363   0.734  13.834
48716W        W21031  28.593  18.136  12.113
48717W        W21032  13.698   0.339   2.374
48718W        W21033  17.859  41.845   3.399
48719W        W21034  36.043   5.826  13.005
48720W        W21035  19.877   5.647   0.441
48721W        W21036   3.276   3.757   2.358
48722W        W21037   3.283  40.062   3.281
48723W        W21038  27.329  12.760  12.516
48724W        W21039  16.175  10.797  11.585
48725W        W21040  32.232  23.589  12.069
48726W        W21041  21.052  23.579  14.935
48727W        W21042   2.716   7.226   4.209
48728W        W21043  41.421  21.587  13.102
48729W        W21044   0.912  39.520  10.569
48730W        W21045  44.330  43.809   0.339
48731W        W21046  31.870  24.454  13.956
48732W        W21047  24.962  31.079   2.732
48733W        W21048  38.356  42.926  10.438
48734W        W21049   7.849   4.134  11.156
48735W        W21050   5.100  37.554   0.734
48736W        W21051  33.422   2.454  10.677
48737W        W21052   3.995  34.973   3.693
48738W        W21053  37.800  30.688  14.706
48739W        W21054  12.319  26.104   2.310
48740W        W21055  11.903  17.774  12.445
48741W        W21056  22.580  20.546  13.276
48742W        W21057  28.962  39.231   0.061
48743W        W21058   2.016  27.538  14.480
48744W        W21059  24.175  20.574  12.413
48745W        W21060  25.756  35.632   1.251
48746W        W21061  28.076  18.332  14.266
48747W        W21062  28.897  36.020   1.464
48748W        W21063  32.629  11.503   2.624
48749W        W21064  11.888  23.031  12.994
48750W        W21065  18.818   8.355   0.650
48751W        W21066  22.985  40.786   2.432
48752W        W21067  40.643  36.375   0.485
48753W        W21068   2.763  33.556   2.447
48754W        W21069   5.390  12.685  13.878
48755W        W21070  20.913  40.603   1.342
48756W        W21071  17.622  19.878   4.530
48757W        W21072   9.100  29.120   0.455
48758W        W21073  19.617  21.245  12.654
48759W        W21074  36.673  33.888  11.458
48760W        W21075   9.325  38.091  11.466
48761W        W21076  40.547  31.294  12.071
48762W        W21077  17.711  38.425   0.975
48763W        W21078  17.226   7.920   0.223
48764W        W21079  22.192  14.432   2.984
48765W        W21080   7.205  33.932   3.128
48766W        W21081   5.350  44.347  14.413
48767W        W21082  16.793  20.452   0.842
48768W        W21083  18.332  44.440  13.885
48769W        W21084  21.765  23.423   4.542
48770W        W21085  31.628  39.014   4.607
48771W        W21086   4.689  43.920  10.468
48772W        W21087  33.718  19.719  12.061
48773W        W21088  28.110   0.455  12.418
48774W        W21089  29.954  18.338  10.507
48775W        W21090  44.269   6.573   3.230
48776W        W21091  17.429  20.719   5.007
48777W        W21092  23.531  35.100   4.386
48778W        W21093  27.434   1.789  14.183
48779W        W21094   0.398   4.811  11.392
48780W        W21095  23.726  26.459  12.483
48781W        W21096  14.676  17.153   4.353
48782W        W21097  39.466   6.877  11.217
48783W        W21098  36.457  41.870   4.656
48784W        W21099   8.630  34.414   3.741
48785W        W21100   3.950  39.444   2.422
48786W        W21101  43.242   4.903   3.353
48787W        W21102  38.163  22.582  10.739
48788W        W21103  28.087  37.225  10.697
48789W        W21104   3.876  27.140  11.664
48790W        W21105  12.271   1.449  10.584
48791W        W21106  30.023  16.597   1.811
48792W        W21107  21.089  36.179   3.968
48793W        W21108  21.050   5.086   2.258
48794W        W21109  20.485  37.087  12.466
48795W        W21110  27.585  25.107   1.515
48796W        W21111  16.337  38.087  10.713
48797W        W21112  36.205   9.855   4.573
48798W        W21113  12.239  18.546   9.908
48799W        W21114  38.129  29.467   3.604
48800W        W21115  20.621  12.318  10.912
48801W        W21116   4.345  42.326  14.475
48802W        W21117  11.694   2.792  12.619
48803W        W21118  24.152   6.820   2.869
48804W        W21119  39.895  31.557   0.523
48805W        W21120   0.723  31.116  13.366
48806W        W21121  25.177  14.644   1.647
48807W        W21122  15.596  31.527   2.830
48808W        W21123  13.752   2.396  13.306
48809W        W21124  29.470  38.564   3.565
48810W        W21125   9.551  29.534  13.708
48811W        W21126   5.002   2.183  14.365
48812W        W21127  35.728  31.928  14.458
48813W        W21128  35.706  29.730   1.501
48814W        W21129  37.888  34.164   1.922
48815W        W21130  11.503  21.724  13.522
48816W        W21131  38.968  40.282   2.593
48817W        W21132  42.828  34.932  12.367
48818W        W21133  37.315  33.041   5.216
48819W        W21134   3.045  39.412   0.866
48820W        W21135  26.493   1.470  12.083
48821W        W21136  19.492  38.084  13.546
48822W        W21137  35.178  40.219  11.153
48823W        W21138  11.945   1.210   1.187
48824W        W21139   1.467   8.708   4.559
48825W        W21140  32.003  43.357   0.831
48826W        W21141   6.961   1.839  10.655
48827W        W21142   4.847  12.701  10.246
48828W        W21143  38.614  32.002   1.823
48829W        W21144  37.947   3.395  10.871
48830W        W21145  23.131  13.011  12.472
48831W        W21146  43.625   0.876  11.690
48832W        W21147  23.634  32.906  13.504
48833W        W21148  26.138   9.918  10.438
48834W        W21149   3.208  10.170   2.726
48835W        W21150  39.590   4.734   2.184
48836W        W21151  37.407  13.010   1.007
48837W        W21152  32.335  14.678  11.145
48838W        W21153  34.620  21.006  12.111
48839W        W21154  23.632   1.723   1.045
48840W        W21155  35.487  33.544  13.114
48841W        W21156  43.257  17.165   4.238
48842W        W21157  38.827  26.418  11.715
48843W        W21158  41.376  35.900   3.357
48844W        W21159   1.821  33.781  11.342
48845W        W21160  24.943  17.260   3.774
48846W        W21161  22.044  13.556   2.598
48847W        W21162   3.643   5.537  14.161
48848W        W21163  29.133  42.480  10.492
48849W        W21164  11.976  33.662   4.685
48850W        W21165  36.604   8.689   0.372
48851W        W21166  40.407   6.249   3.494
48852W        W21167  16.727  21.060  10.538
48853W        W21168  28.076  10.902  14.254
48854W        W21169  27.016  18.875   0.763
48855W        W21170  21.151  13.466   4.191
48856W        W21171  43.815   2.953   4.589
48857W        W21172  21.200  44.676  10.677
48858W        W21173  32.305  24.636   3.222
48859W        W21174  10.737   5.945   2.280
48860W        W21175  20.703  29.750   4.159
48861W        W21176  18.326   2.751  10.701
48862W        W21177  31.959   9.765  12.387
48863W        W21178  16.651  10.744  13.438
48864W        W21179  25.967  40.846  11.501
48865W        W21180  35.414  25.423   3.892
48866W        W21181  23.038  20.546   3.241
48867W        W21182  26.698  32.119  12.062
48868W        W21183  36.518  20.123  10.974
48869W        W21184  22.647  29.650   3.284
48870W        W21185  33.132  31.382  12.004
48871W        W21186  24.729   3.438  12.790
48872W        W21187  11.953  25.996  11.102
48873W        W21188  41.691  41.846  14.746
48874W        W21189  22.915   3.270   4.918
48875W        W21190  30.135  36.583  13.948
48876W        W21191  17.363  35.163   1.172
48877W        W21192  17.329  34.704   1.889
48878W        W21193  35.822  44.880   2.147
48879W        W21194  21.221   1.521  12.837
48880W        W21195  26.231  19.085  12.062
48881W        W21196  38.666  27.037   2.356
48882W        W21197  15.832  22.494   4.225
48883W        W21198  19.310  32.434  11.575
48884W        W21199   3.209  18.905   0.685
48885W        W21200  26.944  23.177  14.808
48886W        W21201  30.612   2.793  10.645
48887W        W21202  15.092   0.785   1.948
48888W        W21203  38.789  24.690  14.110
48889W        W21204  42.115  28.508   2.124
48890W        W21205  25.850  20.110  10.497
48891W        W21206   9.806  32.205  11.717
48892W        W21207  34.487  44.485  11.531
48893W        W21208  12.708  22.966   3.819
48894W        W21209  31.664  36.905  14.422
48895W        W21210  24.758   3.150   3.797
48896W        W21211   2.771  43.751  13.356
48897W        W21212  39.706  16.563   4.609
48898W        W21213  36.263   1.708   0.217
48899W        W21214   1.437  44.109  12.943
48900W        W21215  23.446  18.264   3.011
48901W        W21216   6.925  18.109  13.899
48902W        W21217  35.497  28.384  13.114
48903W        W21218  25.099   7.316  12.958
48904W        W21219  18.506  19.384   0.977
48905W        W21220  27.195  15.185  13.413
48906W        W21221  24.629  31.837   1.216
48907W        W21222   4.677  43.632  12.112
48908W        W21223  13.505  38.183   1.480
48909W        W21224  27.334  35.047   4.283
48910W        W21225  18.804  32.185   3.184
48911W        W21226   8.699  25.482   3.715
48912W        W21227  41.481   9.692   3.365
48913W        W21228  22.416  31.085  12.160
48914W        W21229  31.993  44.332   1.184
48915W        W21230  38.561   6.255  14.948
48916W        W21231  26.652  15.382   1.238
48917W        W21232  14.806  34.537  13.747
48918W        W21233  23.592  18.057  14.952
48919W        W21234   5.860   6.257  12.105
48920W        W21235   8.283  42.526  14.626
48921W        W21236  10.259  10.210   2.435
48922W        W21237  35.182  39.415   1.229
48923W        W21238   1.036  14.345  12.062
48924W        W21239  34.946  21.715  14.425
48925W        W21240  17.869  18.735   3.290
48926W        W21241  44.278  39.393   2.081
48927W        W21242  26.045  41.399  14.757
48928W        W21243   3.195  12.365  12.497
48929W        W21244  15.250  36.099   3.308
48930W        W21245  29.896   1.343  12.154
48931W        W21246   8.870  19.135  14.877
48932W        W21247  15.448  43.784  13.481
48933W        W21248  36.274   7.795   2.332
48934W        W21249  19.343   7.585  11.519
48935W        W21250  39.817  26.390   1.688
48936W        W21251  40.056   5.716  14.844
48937W        W21252  17.366  10.339   5.584
48938W        W21253  23.501   2.967   3.698
48939W        W21254   2.342  21.780  11.971
48940W        W21255  27.657  28.901  11.326
48941W        W21256   0.829  28.164  12.077
48942W        W21257  16.892  25.122  10.770
48943W        W21258  36.881   3.172  14.818
48944W        W21259  44.861   3.060  11.757
48945W        W21260   4.001  23.043   0.682
48946W        W21261  20.748  11.274  13.512
48947W        W21262  15.895  40.166   4.099
48948W        W21263  20.227  34.100   3.186
48949W        W21264  18.963  17.422   9.890
48950W        W21265  17.485   9.605   4.086
48951W        W21266  11.416   4.413  13.833
48952W        W21267  23.226  18.763  14.294
48953W        W21268   2.595  34.154  10.116
48954W        W21269  11.063   2.656  13.998
48955W        W21270  35.410  10.073  11.652
48956W        W21271  13.864  27.121  12.200
48957W        W21272   2.861  15.541   1.802
48958W        W21273  15.177  12.723  11.443
48959W        W21274  13.070  30.079  13.397
48960W        W21275  16.648  38.546  14.292
48961W        W21276  27.058  12.711   3.102
48962W        W21277  28.544  19.057   3.088
48963W        W21278  25.400   0.665  13.950
48964W        W21279  34.331   5.813   2.215
48965W        W21280   3.357   2.901   4.450
48966W        W21281  36.019  44.207  12.949
48967W        W21282  33.173  19.516  12.987
48968W        W21283  22.618   9.322   1.232
48969W        W21284  12.100  18.168  11.721
48970W        W21285  10.678  27.418   4.660
48971W        W21286   5.829   8.225   0.849
48972W        W21287  30.753   3.849  14.995
48973W        W21288  11.070  18.306   1.510
48974W        W21289  31.994  11.749  13.279
48975W        W21290  34.860   6.933   1.773
48976W        W21291   8.316  10.719   3.175
48977W        W21292  27.401   5.212  14.139
48978W        W21293  28.953  10.821   0.806
48979W        W21294  18.222  29.456  13.603
48980W        W21295  24.615  16.191  10.736
48981W        W21296  39.416  10.681   2.417
48982W        W21297  18.092   7.028   4.198
48983W        W21298  11.627  20.783  12.246
48984W        W21299  18.708  29.462   3.710
48985W        W21300  19.645  15.468   0.527
48986W        W21301  26.093  29.637   2.904
48987W        W21302   2.480  22.774   0.303
48988W        W21303  30.660  37.153  10.740
48989W        W21304   1.468  14.810   3.861
48990W        W21305  31.524  36.131   2.281
48991W        W21306  44.278  43.272  14.006
48992W        W21307   9.482  13.769  14.261
48993W        W21308  12.911   7.833  11.099
48994W        W21309  22.124   7.956  12.421
48995W        W21310  21.383  11.893  12.588
48996W        W21311   8.955  27.330  11.860
48997W        W21312  32.718  39.877  11.548
48998W        W21313  24.230  25.513   2.320
48999W        W21314   2.145   4.448  14.442
49000W        W21315  12.513   5.900   1.772
49001W        W21316  35.851   1.765   0.844
49002W        W21317  10.158  36.527  12.544
49003W        W21318  28.792  10.131  14.416
49004W        W21319  36.568  23.185   0.279
49005W        W21320  36.320   7.604  11.931
49006W        W21321  30.064  41.897   0.736
49007W        W21322  31.008  18.152   1.102
49008W        W21323  43.445  17.806  13.792
49009W        W21324   2.342   1.400  12.620
49010W        W21325  37.345   5.706  14.114
49011W        W21326   2.329   0.907  13.395
49012W        W21327  41.962  10.087  11.267
49013W        W21328  13.857  35.122   0.398
49014W        W21329  12.641  16.956   1.729
49015W        W21330  13.321  19.272   3.272
49016W        W21331  43.236  38.093   0.249
49017W        W21332  44.916  13.035   1.854
49018W        W21333  44.033   0.250  13.836
49019W        W21334  23.859  16.217   2.980
49020W        W21335   2.339  44.943  13.229
49021W        W21336   9.611  31.586  13.956
49022W        W21337  23.131  40.290   2.279
49023W        W21338   0.453  28.159   0.787
49024W        W21339  11.872  42.197   0.366
49025W        W21340  37.913  11.453   0.048
49026W        W21341   1.274  13.362   3.645
49027W        W21342   0.261  24.891  11.510
49028W        W21343  26.743  22.275   3.374
49029W        W21344  44.998   1.668  14.326
49030W        W21345   0.873  30.014   4.330
49031W        W21346   2.876  30.698  14.313
49032W        W21347  40.371   0.657   2.993
49033W        W21348   3.894  20.095  11.013
49034W        W21349   1.215  25.203  10.376
49035W        W21350  43.383  22.457   4.405
49036W        W21351  25.471   8.670   2.805
49037W        W21352  14.044  21.664  13.301
49038W        W21353  14.143  12.722  14.810
49039W        W21354   9.085  43.800  10.454
49040W        W21355   8.274  35.573  13.533
49041W        W21356  12.236  27.969   1.144
49042W        W21357  36.891   4.191   3.330
49043W        W21358  40.028  30.155   0.956
49044W        W21359  28.401   5.925  10.016
49045W        W21360  29.366  19.485  11.186
49046W        W21361  23.774   1.436  11.174
49047W        W21362  12.142  37.832   1.295
49048W        W21363   2.293  13.320   1.255
49049W        W21364  41.402  42.323  12.494
49050W        W21365  42.303  12.636   1.228
49051W        W21366  27.919  38.145  12.873
49052W        W21367  13.069  33.568   5.033
49053W        W21368   0.766  14.084  11.726
49054W        W21369  41.495  44.219   2.107
49055W        W21370  20.741  10.734  11.593
49056W        W21371  36.264  44.982   3.197
49057W        W21372  24.504   3.350  11.311
49058W        W21373  26.579   4.669   4.577
49059W        W21374   6.775  19.108   2.338
49060W        W21375   5.212  34.388  14.826
49061W        W21376  32.989  15.714  14.416
49062W        W21377  25.791  40.054  12.486
49063W        W21378  38.720  27.939  11.514
49064W        W21379  10.763  23.015  12.182
49065W        W21380  36.016  43.558   0.424
49066W        W21381  29.186  13.874   2.649
49067W        W21382   8.677  42.899   3.713
49068W        W21383  25.440  20.089   0.950
49069W        W21384  32.965  25.550  11.488
49070W        W21385  30.119  12.784  11.525
49071W        W21386  28.637  43.830   4.511
49072W        W21387   8.255  24.443  12.460
49073W        W21388  31.979  16.292   1.623
49074W        W21389  22.294   0.115   9.942
49075W        W21390  35.470  26.397  12.433
49076W        W21391  10.428   9.361   2.240
49077W        W21392  21.273   4.619   4.235
49078W        W21393   0.968  21.647  12.196
49079W        W21394   6.619  35.412   0.697
49080W        W21395  17.413   1.219  14.841
49081W        W21396  16.029  26.014  10.792
49082W        W21397  15.607  37.449  14.485
49083W        W21398  34.024   0.284   2.487
49084W        W21399   5.978   0.354   0.526
49085W        W21400  21.663  10.292   4.815
49086W        W21401  17.693  44.325  10.768
49087W        W21402  24.025  35.411  10.987
49088W        W21403  13.227   7.415  13.567
49089W        W21404   3.849  25.692   1.499
49090W        W21405  10.232  19.811   4.397
49091W        W21406   0.379  17.595   3.703
49092W        W21407  37.844  24.367  14.298
49093W        W21408  43.967  35.510   0.867
49094W        W21409  30.955  13.041  12.594
49095W        W21410  20.734  15.240   1.250
49096W        W21411  28.122  37.024  14.472
49097W        W21412  16.820  15.504   1.219
49098W        W21413  35.618  16.525  13.447
49099W        W21414   6.210  38.448   4.517
49100W        W21415  16.386  43.744   2.117
49101W        W21416  15.122  15.802   3.713
49102W        W21417  22.701  15.176  13.206
49103W        W21418  11.199  15.539   2.184
49104W        W21419  22.636  27.085  12.688
49105W        W21420  32.956   5.669  13.457
49106W        W21421   5.987   0.801   3.526
49107W        W21422   7.273  44.855  13.246
49108W        W21423  29.451   9.230  13.497
49109W        W21424  31.070   0.988  13.032
49110W        W21425  35.579   6.017   2.799
49111W        W21426   6.381  19.338   3.792
49112W        W21427  43.401  42.287   2.674
49113W        W21428  38.060  27.577   0.757
49114W        W21429   4.831  36.448   4.598
49115W        W21430  42.952   1.276   4.605
49116W        W21431  14.649  31.093  11.104
49117W        W21432  13.974   2.674   2.656
49118W        W21433   9.297  14.748  10.683
49119W        W21434   8.321  36.086  10.649
49120W        W21435  34.413   6.122  13.290
49121W        W21436  22.801  32.126  12.945
49122W        W21437  15.375  23.489  14.363
49123W        W21438  19.843   7.280  12.378
49124W        W21439  19.662  17.260  10.485
49125W        W21440  39.548   3.878  10.702
49126W        W21441  28.458  40.468  11.970
49127W        W21442  10.022  13.787   2.659
49128W        W21443   1.248   5.561  13.595
49129W        W21444  26.402  12.816  10.330
49130W        W21445   5.177  33.522  11.987
49131W        W21446  14.368  40.067   2.309
49132W        W21447  29.866  38.400  13.007
49133W        W21448  11.687  19.406   9.640
49134W        W21449   5.972   4.456   2.269
49135W        W21450  13.813  17.257  11.078
49136W        W21451  21.352   9.123   0.722
49137W        W21452  26.971  38.024  11.912
49138W        W21453  33.376  20.729  13.497
49139W        W21454  12.251  29.934   0.770
49140W        W21455  17.535  15.136  12.508
49141W        W21456   8.872   0.950  14.934
49142W        W21457  39.144  25.933   9.736
49143W        W21458   9.366  15.571  12.878
49144W        W21459  38.984  17.159  11.565
49145W        W21460  13.943  14.457  12.644
49146W        W21461  44.774  36.955   0.919
49147W        W21462  15.716  30.846  14.767
49148W        W21463  44.534  22.263  14.868
49149W        W21464  37.044  35.369  14.169
49150W        W21465  36.433  11.145  12.813
49151W        W21466  32.473  34.033   2.618
49152W        W21467  15.286  26.093   3.414
49153W        W21468   5.462  40.332  13.772
49154W        W21469   1.185   5.748  11.098
49155W        W21470  39.377  35.583  14.354
49156W        W21471  23.344   8.574  13.441
49157W        W21472   3.929  10.340   4.279
49158W        W21473  41.088  38.315  12.609
49159W        W21474  20.045  10.231  12.030
49160W        W21475  24.996   3.355   0.922
49161W        W21476  19.753  16.572  11.080
49162W        W21477   2.345  35.105   1.446
49163W        W21478  10.580  21.466  13.729
49164W        W21479  26.847   2.446  13.961
49165W        W21480  25.923  18.285   0.728
49166W        W21481   4.345  20.516  12.862
49167W        W21482  30.891  18.592  11.389
49168W        W21483  42.347  29.989   4.311
49169W        W21484  38.921  41.955  14.830
49170W        W21485  40.499  25.166   3.797
49171W        W21486  28.532  43.365  11.321
49172W        W21487  33.605  14.666   4.879
49173W        W21488  34.957  30.809   0.716
49174W        W21489  35.066  28.961   2.259
49175W        W21490   3.715  29.621   1.375
49176W        W21491  34.723   3.981  10.940
49177W        W21492  15.066  34.569  10.524
49178W        W21493   9.329  14.509  13.892
49179W        W21494   6.939  21.581   3.690
49180W        W21495   9.814  26.271  14.416
49181W        W21496   2.885  29.069  11.641
49182W        W21497  37.533  30.576   1.888
49183W        W21498  35.448  36.472  14.403
49184W        W21499  23.749  33.814  13.358
49185W        W21500   4.181   5.942   4.880
49186W        W21501  35.897   3.418   2.340
49187W        W21502  19.065   5.254   0.474
49188W        W21503  15.292  20.684  14.463
49189W        W21504  40.865  24.413  10.312
49190W        W21505  36.432  43.007  12.922
49191W        W21506  23.280  23.224   9.556
49192W        W21507   9.767   6.194   4.337
49193W        W21508   8.736   0.492   2.441
49194W        W21509  36.069  30.922   3.805
49195W        W21510  11.643  40.465   3.388
49196W        W21511  12.603  38.956   3.945
49197W        W21512  15.515  37.595   2.090
49198W        W21513  17.960  20.746   4.055
49199W        W21514  30.540  30.011   2.413
49200W        W21515   5.197  38.906  12.059
49201W        W21516  15.703  15.090   2.478
49202W        W21517  42.532  39.142  11.885
49203W        W21518  23.792  18.631   2.866
49204W        W21519   6.052  10.273   4.638
49205W        W21520   6.430   8.312  12.575
49206W        W21521  38.108   8.300  14.492
49207W        W21522  16.224  44.723   4.016
49208W        W21523  15.906  33.737   2.892
49209W        W21524  37.546   2.640   1.181
49210W        W21525   5.441  27.941  11.202
49211W        W21526  25.217  37.888   1.763
49212W        W21527  40.481   6.893   4.300
49213W        W21528  35.081  19.637   0.512
49214W        W21529  43.132  18.888   0.232
49215W        W21530  36.880  15.552  10.791
49216W        W21531  24.953   8.758   0.981
49217W        W21532  11.668  44.510   0.392
49218W        W21533  31.566  38.753   1.339
49219W        W21534  26.762  41.368  11.944
49220W        W21535  19.254  11.720  12.830
49221W        W21536   9.140  10.791   1.332
49222W        W21537  21.989  31.664  13.397
49223W        W21538  20.018  18.201  14.896
49224W        W21539   9.607  38.525   0.938
49225W        W21540  34.192   6.109   1.414
49226W        W21541  22.746  21.732  13.779
49227W        W21542   8.704  15.634   3.637
49228W        W21543   1.382  41.051   1.529
49229W        W21544  39.842  39.934   1.909
49230W        W21545   4.288   9.840   1.491
49231W        W21546  15.611  37.058  13.369
49232W        W21547  11.467  29.735  14.821
49233W        W21548  11.174   6.438  13.180
49234W        W21549  25.156  25.209  12.192
49235W        W21550  19.674  42.035   1.215
49236W        W21551  30.150   6.610  11.136
49237W        W21552   6.269  31.135   1.358
49238W        W21553  33.529  11.777  10.525
49239W        W21554  11.695  42.447   1.879
49240W        W21555  33.704  17.688   4.723
49241W        W21556  17.966  38.296   3.800
49242W        W21557  28.041  16.303  13.441
49243W        W21558   8.606  27.183  10.441
49244W        W21559  34.057   2.735  12.879
49245W        W21560   6.533  25.114   4.132
49246W        W21561  30.942  33.340  13.870
49247W        W21562  27.023  10.543   4.820
49248W        W21563   8.287  13.648   3.654
49249W        W21564  29.882  24.722   2.044
49250W        W21565   1.977  30.540  10.637
49251W        W21566  12.667  30.856  13.616
49252W        W21567  32.165   1.235   3.745
49253W        W21568  15.751  11.101  11.673
49254W        W21569   8.354  24.025   1.931
49255W        W21570  31.457  39.804   1.417
49256W        W21571   8.836  20.649   1.613
49257W        W21572  41.857  32.473  14.581
49258W        W21573   2.123   2.899  11.841
49259W        W21574  39.913   0.351   3.087
49260W        W21575  36.244  15.826  11.204
49261W        W21576  43.998  39.153   3.612
49262W        W21577  42.283  24.312   2.976
49263W        W21578  17.448  12.823  13.552
49264W        W21579   8.220  40.665   0.796
49265W        W21580  16.139  44.995   0.859
49266W        W21581  40.276   1.491  11.981
49267W        W21582   2.752   8.960   4.048
49268W        W21583   3.449  41.401  14.484
49269W        W21584  13.240  34.323  12.942
49270W        W21585   6.438  15.724  14.357
49271W        W21586  20.694  39.514  11.898
49272W        W21587  30.094  28.200   2.394
49273W        W21588  27.485  31.946  12.993
49274W        W21589  41.400  36.589   4.564
49275W        W21590  31.859  10.962   1.932
49276W        W21591  11.352   0.769   3.123
49277W        W21592   2.667  16.887   4.134
49278W        W21593  24.210  40.128  11.589
49279W        W21594  25.575  25.434  12.379
49280W        W21595  43.759  25.006   4.643
49281W        W21596  38.570   5.035  12.096
49282W        W21597  43.333   8.241   3.652
49283W        W21598  20.654  39.262  10.903
49284W        W21599  16.049   4.109  12.549
49285W        W21600  18.648  25.228  10.547
49286W        W21601  35.257  13.739   2.633
49287W        W21602   6.377  35.125  14.490
49288W        W21603  36.512  30.887  13.824
49289W        W21604  23.342  16.471   1.275
49290W        W21605   1.866  29.617   2.696
49291W        W21606   4.489  12.335   0.404
49292W        W21607  20.550  12.267  11.937
49293W        W21608  31.953  29.498  14.911
49294W        W21609  36.470  34.764   1.750
49295W        W21610   2.759  17.487   0.416
49296W        W21611  39.226  30.548  15.000
49297W        W21612  25.243  16.951   4.063
49298W        W21613  43.837  29.423   3.040
49299W        W21614  44.518  15.019   3.697
49300W        W21615  36.813  26.981  11.652
49301W        W21616  30.703  36.799   2.170
49302W        W21617   2.390  38.916   4.116
49303W        W21618  20.047  10.528   0.906
49304W        W21619  19.230   8.629   0.429
49305W        W21620   8.705  21.041   4.454
49306W        W21621  27.271  10.621   1.818
49307W        W21622  22.515  43.746  12.886
49308W        W21623  10.595   2.919   4.616
49309W        W21624   1.666  24.531   3.269
49310W        W21625  35.533  13.283  10.755
49311W        W21626  35.106  36.339  11.050
49312W        W21627  40.447  37.095   4.400
49313W        W21628  15.992  30.212   0.250
49314W        W21629   2.255  22.096  13.547
49315W        W21630   8.607  20.453  14.835
49316W        W21631  19.758  18.514   0.201
49317W        W21632  16.076   2.258   2.805
49318W        W21633  25.155  29.453   3.207
49319W        W21634  10.488   9.208  12.321
49320W        W21635  10.889  20.614  10.466
49321W        W21636  14.482   1.929   4.527
49322W        W21637  12.017  18.152   1.796
49323W        W21638  27.668  10.233  13.376
49324W        W21639  38.768  13.746   2.177
49325W        W21640  17.759  23.755   2.750
49326W        W21641  39.999  36.859  13.822
49327W        W21642  10.313  28.475   4.107
49328W        W21643  32.836  30.081  13.515
49329W        W21644  31.518   1.287   1.440
49330W        W21645   8.797   9.158   0.706
49331W        W21646  23.826   2.732  12.431
49332W        W21647  35.009  17.819   3.321
49333W        W21648  18.259  39.199  14.458
49334W        W21649  44.504  34.391  10.188
49335W        W21650   5.781  16.662  12.060
49336W        W21651  34.332   3.809  14.599
49337W        W21652  15.185  30.078  14.858
49338W        W21653  29.081  19.252  11.911
49339W        W21654  26.172   5.158  13.378
49340W        W21655  34.333  13.867  12.937
49341W        W21656  30.933  26.175   4.863
49342W        W21657  17.488  44.876  11.205
49343W        W21658  27.958  30.295  13.323
49344W        W21659  32.585   8.724  13.842
49345W        W21660  15.638  17.303   4.633
49346W        W21661  40.019  27.599  12.181
49347W        W21662   8.033  17.042  13.419
49348W        W21663   4.297   3.665   4.079
49349W        W21664  22.005  11.052   0.903
49350W        W21665   5.361  42.812   2.742
49351W        W21666   7.635  27.477  13.825
49352W        W21667  22.729  30.937   0.997
49353W        W21668   7.196  13.199  12.940
49354W        W21669   0.745   6.691  11.184
49355W        W21670  16.232   0.356  10.822
49356W        W21671  42.758   1.043  13.030
49357W        W21672  44.227  30.537   3.664
49358W        W21673  22.192  22.601   3.265
49359W        W21674   8.478  22.133   0.354
49360W        W21675  26.067  30.198   1.726
49361W        W21676   4.186  38.169   0.815
49362W        W21677  37.552   4.366  13.747
49363W        W21678  29.575  22.277  10.665
49364W        W21679  26.126  44.907   0.450
49365W        W21680  25.485  23.684  11.210
49366W        W21681  36.902  38.574  11.633
49367W        W21682  37.116  34.387  14.561
49368W        W21683  31.040  14.291   1.965
49369W        W21684   5.630  44.785  13.805
49370W        W21685   2.928  18.024   3.549
49371W        W21686  32.590  17.937  14.858
49372W        W21687  38.518   7.387  10.594
49373W        W21688   6.997  12.814   1.601
49374W        W21689  21.498   6.835   4.594
49375W        W21690  44.009   8.710  11.891
49376W        W21691  20.152  21.621   1.934
49377W        W21692   3.153  11.144   0.799
49378W        W21693   2.797  13.008  11.007
49379W        W21694  11.995  41.609  14.692
49380W        W21695  30.262   9.691   4.726
49381W        W21696  29.643  43.931  10.704
49382W        W21697  43.524  25.519  10.891
49383W        W21698  13.459  19.546  13.937
49384W        W21699  39.591  39.307  13.913
49385W        W21700  24.554  40.494  10.685
49386W        W21701  15.152  30.521  12.372
49387W        W21702  40.822  18.729  13.381
49388W        W21703  15.357  28.130  11.618
49389W        W21704  13.078  22.587  13.009
49390W        W21705  21.977  30.654  13.826
49391W        W21706  29.181  14.057   2.170
49392W        W21707  28.887   9.222   4.035
49393W        W21708  19.311  43.748  14.879
49394W        W21709  21.651  41.410  13.459
49395W        W21710  28.984   4.736   0.897
49396W        W21711  38.785   2.541   4.583
49397W        W21712  19.486  20.263   0.530
49398W        W21713   6.910  14.341   3.807
49399W        W21714  21.612   2.688   1.273
49400W        W21715   5.989  25.818  12.598
49401W        W21716   6.090  44.466   2.316
49402W        W21717  41.861  28.092   0.311
49403W        W21718  29.083  26.090   2.252
49404W        W21719  18.468   5.161  11.598
49405W        W21720  14.973  18.044  13.020
49406W        W21721  23.291  38.882  13.936
49407W        W21722   2.052   5.714   1.779
49408W        W21723  41.955  38.748  13.059
49409W        W21724   2.192   5.792  13.791
49410W        W21725  26.610  40.796   4.421
49411W        W21726  14.352   2.190   3.977
49412W        W21727  23.627  36.478  14.335
49413W        W21728   2.435   2.723   4.380
49414W        W21729  20.426  20.648   3.257
49415W        W21730  15.330  29.628   0.312
49416W        W21731  33.163  21.021  11.955
49417W        W21732  24.884   8.417   4.307
49418W        W21733  27.187  30.199   3.523
49419W        W21734  25.855  11.121  10.696
49420W        W21735  26.972  36.427  12.626
49421W        W21736   2.354  30.720  14.451
49422W        W21737  22.287  13.442   4.153
49423W        W21738  29.148  27.615  10.624
49424W        W21739  39.567  21.994  13.069
49425W        W21740  13.148  38.848   3.666
49426W        W21741  33.357  36.864   0.566
49427W        W21742  37.786   8.178   2.771
49428W        W21743  30.873  24.095  11.292
49429W        W21744   4.294  17.035  14.854
49430W        W21745  17.220  25.378   4.458
49431W        W21746  14.903  24.987  10.738
49432W        W21747  32.162  38.208   2.563
49433W        W21748  20.526   9.811  13.486
49434W        W21749  33.857  21.857  14.036
49435W        W21750  19.002   1.179   0.169
49436W        W21751   5.688  23.482   3.749
49437W        W21752   1.799  38.851  12.478
49438W        W21753  25.772  28.081  14.821
49439W        W21754   1.061  25.317  12.936
49440W        W21755  28.655  24.136   4.107
49441W        W21756  43.526  10.384   4.169
49442W        W21757   8.389   0.444   1.254
49443W        W21758  37.060  31.702   2.732
49444W        W21759   8.839  12.260  14.937
49445W        W21760  32.868  37.091   0.249
49446W        W21761  17.491  32.937   3.673
49447W        W21762  26.710  39.286  13.456
49448W        W21763   1.565  25.632   3.740
49449W        W21764  40.157  37.384   4.893
49450W        W21765  36.985  43.790  12.992
49451W        W21766  43.433  16.895   1.414
49452W        W21767   7.581  13.381   2.142
49453W        W21768  10.012   1.174  14.578
49454W        W21769   4.155  11.920   0.351
49455W        W21770  11.289  18.996   0.757
49456W        W21771  39.971  23.707  13.618
49457W        W21772  10.771   9.199   1.889
49458W        W21773  17.926  37.643  14.492
49459W        W21774   3.865  15.958   0.122
49460W        W21775  19.398  11.333   4.644
49461W        W21776  17.020  30.076   5.054
49462W        W21777  25.452   6.476  14.849
49463W        W21778  32.388   0.863   2.324
49464W        W21779  38.264  22.714   3.628
49465W        W21780  22.419  17.155  12.322
49466W        W21781   0.525   0.823  12.382
49467W        W21782  27.448  12.029  12.045
49468W        W21783  15.144   6.291   1.356
49469W        W21784  11.416  17.712   0.890
49470W        W21785  21.765  17.346   3.673
49471W        W21786   8.279   0.297   4.179
49472W        W21787  38.011  19.125   3.338
49473W        W21788   1.990  14.194   3.104
49474W        W21789   9.783   3.854   3.648
49475W        W21790  17.751  32.525   3.484
49476W        W21791  16.747  42.088   2.081
49477W        W21792  31.356  22.151  14.042
49478W        W21793  26.469  21.210  14.961
49479W        W21794   7.653  36.064  13.406
49480W        W21795  14.705   3.012   3.744
49481W        W21796  35.337  36.848   1.608
49482W        W21797  12.846   2.267   2.182
49483W        W21798  41.884  21.266   0.246
49484W        W21799   0.348  12.593  11.919
49485W        W21800  31.694  16.847  12.034
49486W        W21801  31.110  32.696  13.450
49487W        W21802  33.028  14.080   1.670
49488W        W21803  19.270   1.955   2.693
49489W        W21804  30.831   3.344  10.517
49490W        W21805  25.930   2.747   2.127
49491W        W21806  10.954  16.569  10.574
49492W        W21807   0.128  44.805   4.671
49493W        W21808  12.756  32.289   0.429
49494W        W21809  43.381  14.281   0.775
49495W        W21810  26.659  38.392   0.012
49496W        W21811  11.428  39.024  12.389
49497W        W21812  43.327   7.729   1.342
49498W        W21813   0.202  19.109  11.839
49499W        W21814  44.487  37.924   4.643
49500W        W21815   0.872  14.237   2.756
49501W        W21816  24.218  43.485  11.902
49502W        W21817   1.805  29.966  11.223
49503W        W21818   2.874   6.908  11.920
49504W        W21819   3.781  12.413  13.893
49505W        W21820  33.181  13.136  11.158
49506W        W21821   7.933  35.960  12.809
49507W        W21822  19.761  41.703  10.994
49508W        W21823  41.498  23.228   0.991
49509W        W21824  29.553  18.728   5.042
49510W        W21825   6.377  36.836   3.683
49511W        W21826  17.097  18.389  14.405
49512W        W21827  34.920  37.980  14.779
49513W        W21828  20.113   6.447  13.491
49514W        W21829  22.187  26.368  10.629
49515W        W21830  43.016  30.036  14.797
49516W        W21831  31.667   7.350   2.848
49517W        W21832   1.291  31.785   4.237
49518W        W21833  31.396   2.904  14.218
49519W        W21834   8.445  10.247   4.170
49520W        W21835   8.571  11.763   1.946
49521W        W21836  11.838  30.426  11.020
49522W        W21837  22.972  26.565   2.128
49523W        W21838   2.967   7.409  11.842
49524W        W21839  14.015  21.438   4.327
49525W        W21840  35.093   2.954  13.586
49526W        W21841  10.082  11.267   0.325
49527W        W21842  40.693  15.831  12.534
49528W        W21843  19.628  37.012   0.975
49529W        W21844  16.784  24.471   3.588
49530W        W21845  11.687  19.622  14.483
49531W        W21846   2.772  13.156  11.502
49532W        W21847  29.490  31.610   2.831
49533W        W21848  26.256  36.868   0.218
49534W        W21849  17.689  33.890  13.830
49535W        W21850  30.233   4.689   0.142
49536W        W21851  25.743  15.178   3.263
49537W        W21852   0.136  38.967  13.884
49538W        W21853  31.912   6.614   0.799
49539W        W21854   7.265  18.222   4.553
49540W        W21855   2.911  29.355  12.609
49541W        W21856  12.753  31.632   2.775
49542W        W21857  16.123  31.538  12.614
49543W        W21858  42.037  29.057  11.512
49544W        W21859  36.640   5.951  14.473
49545W        W21860  20.262   9.846   3.718
49546W        W21861   7.300  38.859   0.377
49547W        W21862   8.707  13.332   2.620
49548W        W21863  40.488  28.145   9.942
49549W        W21864  15.572   6.589   3.246
49550W        W21865  11.712  23.425   0.848
49551W        W21866  13.064  36.923   3.832
49552W        W21867  16.636   1.881  11.073
49553W        W21868  11.522  33.542   1.765
49554W        W21869  14.407  22.720   0.748
49555W        W21870   0.064   4.983  12.825
49556W        W21871  42.066  35.985   1.927
49557W        W21872  12.369  41.411  11.288
49558W        W21873  40.778  44.473   4.169
49559W        W21874  38.148  20.671  11.481
49560W        W21875  37.061   5.600  13.152
49561W        W21876  13.985  40.911  10.669
49562W        W21877  13.400  25.389   4.316
49563W        W21878  39.330   6.819   2.260
49564W        W21879  28.667  25.475  12.483
49565W        W21880  18.774  38.919  13.605
49566W        W21881  38.325  36.920  12.755
49567W        W21882   1.762  20.209  11.055
49568W        W21883   8.232  13.604   4.165
49569W        W21884  32.886  22.490  11.518
49570W        W21885  20.211  37.153   3.387
49571W        W21886   0.560   9.077   4.623
49572W        W21887   6.429  41.508  10.771
49573W        W21888   6.177   0.217   4.620
49574W        W21889  44.675  36.024   4.332
49575W        W21890  43.069  35.837   2.852
49576W        W21891   8.053  23.461   0.699
49577W        W21892  40.652  43.381  14.318
49578W        W21893   1.981  30.003   1.521
49579W        W21894  43.059   8.613  13.975
49580W        W21895  32.587  27.422   1.873
49581W        W21896  15.772  29.614  10.915
49582W        W21897  24.109  36.649  14.426
49583W        W21898  40.486  27.943  12.454
49584W        W21899  11.196  30.627  13.997
49585W        W21900  30.517   7.917   1.867
49586W        W21901  13.871  30.945  12.016
49587W        W21902  29.517  31.960   4.179
49588W        W21903   8.571  25.341  11.173
49589W        W21904  28.686  43.177   3.814
49590W        W21905  12.580   5.643   0.633
49591W        W21906   5.950   5.529  11.598
49592W        W21907  16.361   6.789  13.455
49593W        W21908  28.173   7.734  10.979
49594W        W21909   1.417  21.043   3.494
49595W        W21910  26.555  23.466  11.485
49596W        W21911  38.493  21.745  11.239
49597W        W21912   2.499  12.241  14.010
49598W        W21913  31.692  33.166  13.977
49599W        W21914   0.531  14.327  12.134
49600W        W21915  19.380  22.501  14.752
49601W        W21916  24.078  42.073   2.321
49602W        W21917  42.907  27.971   1.173
49603W        W21918   5.375  41.405   2.952
49604W        W21919  32.046  42.874   1.250
49605W        W21920  31.083  39.309  13.880
49606W        W21921   8.709   1.543  13.788
49607W        W21922  13.036  39.773   3.730
49608W        W21923   5.438  44.942  14.765
49609W        W21924  19.571  11.125  11.998
49610W        W21925  27.633   6.602   3.675
49611W        W21926  36.268  23.942   4.949
49612W        W21927  25.568  43.491   4.077
49613W        W21928  42.168  15.269   4.473
49614W        W21929  11.822  25.998   0.322
49615W        W21930  33.130   4.983  14.704
49616W        W21931  44.587  15.195   1.695
49617W        W21932   1.752   5.823   0.851
49618W        W21933  29.506   0.259   1.680
49619W        W21934  20.499   4.323   4.325
49620W        W21935  11.328  17.051  14.525
49621W        W21936  24.301  32.470  11.566
49622W        W21937   0.778  29.974   0.286
49623W        W21938   9.440   6.349   3.202
49624W        W21939  13.658  43.355   1.524
49625W        W21940   1.396  40.835   2.817
49626W        W21941   4.366  31.978  13.530
49627W        W21942  34.931   4.732   2.853
49628W        W21943   0.776  34.012   9.931
49629W        W21944  23.367  19.629   3.709
49630W        W21945  40.816  19.478  14.562
49631W        W21946  21.793  16.331  14.101
49632W        W21947  17.342   5.111   1.912
49633W        W21948  37.938  12.155  14.365
49634W        W21949   5.922  26.722  14.413
49635W        W21950  14.311  42.054   3.218
49636W        W21951  37.135  25.678   1.957
49637W        W21952  23.739   4.291   1.418
49638W        W21953   3.135  20.935  13.964
49639W        W21954  38.352  40.168  14.811
49640W        W21955  25.718   5.503  14.933
49641W        W21956  10.287   8.482  13.520
49642W        W21957  38.752   9.607  11.557
49643W        W21958  16.705  40.282   0.433
49644W        W21959  19.682  44.421  13.899
49645W        W21960  24.866  37.370   5.041
49646W        W21961  40.165   1.223  10.730
49647W        W21962  22.553  16.591  11.403
49648W        W21963  38.815   7.076  12.863
49649W        W21964  43.798  28.760   4.242
49650W        W21965   7.164  30.402  13.933
49651W        W21966  22.577  12.543  13.385
49652W        W21967  38.439   5.676  12.931
49653W        W21968  26.082  11.212  14.058
49654W        W21969   1.250  19.005  14.296
49655W        W21970  11.292  32.216  11.599
49656W        W21971  27.063  18.742  13.850
49657W        W21972  40.591  40.399  12.075
49658W        W21973  13.143   4.414  14.605
49659W        W21974  22.831  21.207  13.049
49660W        W21975   4.896   5.980  10.098
49661W        W21976   1.692   2.371   0.534
49662W        W21977  43.517   7.266   3.418
49663W        W21978  11.700  10.411  12.870
49664W        W21979  15.289  23.454  13.593
49665W        W21980  35.999  19.670   0.588
49666W        W21981  35.741  16.415  11.061
49667W        W21982   1.905  20.535   2.882
49668W        W21983  36.837  15.152  12.912
49669W        W21984  28.538  34.620   4.497
49670W        W21985  13.960  20.542   4.268
49671W        W21986  36.143  13.218  11.474
49672W        W21987  35.389   4.458  14.420
49673W        W21988  35.030  33.433   1.708
49674W        W21989   3.356  33.870  12.993
49675W        W21990  18.008  35.411   1.030
49676W        W21991  36.332  44.263  12.426
49677W        W21992   9.702  33.547  13.516
49678W        W21993  28.510  44.467  13.596
49679W        W21994  26.525  21.664   3.284
49680W        W21995  27.783  17.646  14.823
49681W        W21996   5.003  14.838   4.644
49682W        W21997  39.605   5.571  12.980
49683W        W21998  18.697  31.581   3.633
49684W        W21999   6.326   0.447   4.151
49685W        W22000  18.726  22.072   3.773
49686W        W22001  36.624  36.939   3.311
49687W        W22002  29.430   1.527   0.342
49688W        W22003   6.716  38.447  12.539
49689W        W22004   9.091  16.256  10.009
49690W        W22005  37.567  26.458  13.697
49691W        W22006  38.344  28.342  10.599
49692W        W22007  37.672  13.613   3.696
49693W        W22008  12.301  26.023  14.629
49694W        W22009  14.551  41.868   3.700
49695W        W22010  18.702  12.420   0.682
49696W        W22011   9.207   2.797   4.872
49697W        W22012  21.472  12.826  10.680
49698W        W22013  17.283  22.613  11.048
49699W        W22014  36.581  18.069  11.491
49700W        W22015   3.306  17.345  12.836
49701W        W22016  26.804  44.979  12.444
49702W        W22017   4.292  44.248   4.034
49703W        W22018  18.769   7.335  13.746
49704W        W22019   0.014  36.097   5.133
49705W        W22020  16.508  17.371  13.094
49706W        W22021   1.533   6.012  11.995
49707W        W22022  16.641  26.211  14.064
49708W        W22023  10.114  11.308   4.852
49709W        W22024  20.616  14.195  10.630
49710W        W22025  13.965  18.266   3.157
49711W        W22026  17.743   5.310   1.230
49712W        W22027  39.905  37.878   1.265
49713W        W22028  20.510  35.478   3.856
49714W        W22029  16.715  30.078   0.962
49715W        W22030  19.184  28.249  14.402
49716W        W22031  21.262  18.605  13.913
49717W        W22032  11.437  34.149  14.484
49718W        W22033  34.445   0.209   1.666
49719W        W22034   1.735  42.855  11.587
49720W        W22035   7.718   6.122   4.047
49721W        W22036  44.854   6.513  12.035
49722W        W22037  37.949  31.585  14.843
49723W        W22038  18.957  41.054  12.033
49724W        W22039  32.900   1.535   3.108
49725W        W22040  20.310  44.169  14.032
49726W        W22041  10.852  37.553   0.735
49727W        W22042  27.804   1.323   4.919
49728W        W22043  23.973  42.826   2.634
49729W        W22044   1.324   1.447  13.604
49730W        W22045  23.013   1.499  10.657
49731W        W22046  24.270  27.545  13.382
49732W        W22047  43.776  34.542  10.275
49733W        W22048   4.236  32.007   4.143
49734W        W22049  41.794  24.759   0.316
49735W        W22050  29.312   2.940   1.924
49736W        W22051  38.842  12.648   4.700
49737W        W22052  17.166   8.237   4.165
49738W        W22053  32.131  29.617   2.412
49739W        W22054  13.712  32.111   4.683
49740W        W22055   1.995  10.990   2.884
49741W        W22056  30.838  33.433  11.096
49742W        W22057  21.142   5.400   0.186
49743W        W22058  26.676  24.490   4.957
49744W        W22059  31.835  40.104  11.108
49745W        W22060  29.001   2.897  12.464
49746W        W22061  36.889  13.734   1.897
49747W        W22062   7.230  35.154  13.433
49748W        W22063   4.216  42.482   2.657
49749W        W22064  34.425   1.442  11.601
49750W        W22065  44.957  20.001   4.659
49751W        W22066  36.131  13.672  12.621
49752W        W22067  44.553  11.382  11.904
49753W        W22068  20.592  32.551   4.610
49754W        W22069  10.941  19.799   3.897
49755W        W22070  28.169  30.331   2.633
49756W        W22071   1.345  35.397   1.412
49757W        W22072   1.221  43.916  11.908
49758W        W22073  17.658  10.139  13.329
49759W        W22074  42.776  21.506  13.984
49760W        W22075  40.787  27.484   3.523
49761W        W22076  23.826  37.493  14.958
49762W        W22077  13.885  25.611  13.841
49763W        W22078  19.015  10.706  11.146
49764W        W22079   9.334  17.235   5.382
49765W        W22080  25.583  11.525   1.700
49766W        W22081   0.446   5.681   3.748
49767W        W22082   3.460  17.724   3.057
49768W        W22083   9.649  33.191   2.640
49769W        W22084   8.853   8.124   4.116
49770W        W22085  32.928  31.572  13.473
49771W        W22086  44.045  39.080  14.841
49772W        W22087  11.338   1.833  12.400
49773W        W22088  14.803  13.403  14.830
49774W        W22089   4.249  17.742  11.229
49775W        W22090   6.401   9.566   3.236
49776W        W22091  18.253  40.457   0.422
49777W        W22092  21.287  35.630  11.071
49778W        W22093  15.858   0.704  10.079
49779W        W22094  19.825  32.465  14.481
49780W        W22095  16.624  19.535   3.763
49781W        W22096  31.904  34.387   0.237
49782W        W22097  32.938  39.710  14.970
49783W        W22098   9.275   3.988   3.067
49784W        W22099  13.392  17.416  14.529
49785W        W22100   3.009  10.268   3.259
49786W        W22101  20.186  17.797   1.189
49787W        W22102  39.788  20.106  14.305
49788W        W22103  41.238  21.546   0.887
49789W        W22104  35.938  23.023  12.943
49790W        W22105   8.703  37.405  12.349
49791W        W22106  41.865   6.518   1.837
49792W        W22107  35.164   3.722  10.691
49793W        W22108   7.476   7.656  10.380
49794W        W22109  18.842  23.202  14.126
49795W        W22110  34.229  15.202  13.016
49796W        W22111   4.820  16.207   4.024
49797W        W22112  35.005   1.857   3.208
49798W        W22113  13.305  30.974   1.240
49799W        W22114  29.008   3.843   4.449
49800W        W22115  20.778  23.800   1.414
49801W        W22116  35.171  11.530  13.409
49802W        W22117  19.845   1.823  13.819
49803W        W22118   1.949  13.127  12.073
49804W        W22119  22.341  44.271   3.230
49805W        W22120   4.379  31.165  12.464
49806W        W22121  19.927  30.132   4.506
49807W        W22122   7.929   4.230  14.644
49808W        W22123   6.752  27.639   0.354
49809W        W22124  21.907  37.425  10.669
49810W        W22125  19.791   5.904   3.680
49811W        W22126  18.199  21.995   1.192
49812W        W22127  26.133   7.162   0.060
49813W        W22128  12.195   3.229   2.718
49814W        W22129  30.470  31.389  14.498
49815W        W22130  18.134  14.754   2.402
49816W        W22131   6.733  40.970  14.298
49817W        W22132  37.259   7.750   1.352
49818W        W22133  31.396  24.243  14.042
49819W        W22134  20.038  15.046  11.508
49820W        W22135  19.938  33.229  13.915
49821W        W22136   7.387  16.300   2.202
49822W        W22137   6.881  25.003  14.772
49823W        W22138  15.788  19.320  10.708
49824W        W22139  24.233  26.543  12.512
49825W        W22140  24.218   8.895   1.454
49826W        W22141   2.406  18.170   3.707
49827W        W22142   5.907  23.588  11.422
49828W        W22143  27.527  25.509   3.106
49829W        W22144   2.172  30.652   3.061
49830W        W22145  39.745  39.138  12.006
49831W        W22146  31.398  32.629   0.347
49832W        W22147  20.527  11.160   1.767
49833W        W22148  37.811  17.701  12.119
49834W        W22149   5.582  44.796   3.109
49835W        W22150  14.246  44.910   2.770
49836W        W22151  29.953   8.441   1.288
49837W        W22152  23.759   8.443  12.955
49838W        W22153   3.539  40.023  11.008
49839W        W22154  11.682   3.474  12.013
49840W        W22155   6.623   6.379  13.554
49841W        W22156  35.110  18.729   0.394
49842W        W22157  15.292  13.372   5.101
49843W        W22158  10.310   4.818  10.705
49844W        W22159   0.217  37.260   3.436
49845W        W22160  35.187  34.669   1.237
49846W        W22161   3.786  21.785  12.171
49847W        W22162   8.419   7.434   0.757
49848W        W22163   9.127   2.354  13.272
49849W        W22164  16.535  29.932  13.270
49850W        W22165  43.284  10.899  12.131
49851W        W22166  19.353  16.693  11.819
49852W        W22167  23.348  38.370  11.975
49853W        W22168  32.336  20.951   2.239
49854W        W22169  26.510  36.291   4.949
49855W        W22170  43.444  11.726  12.579
49856W        W22171  36.607   6.776  13.467
49857W        W22172  26.454  43.032   1.967
49858W        W22173  44.705  37.834   1.272
49859W        W22174  40.417  42.844  10.593
49860W        W22175  37.243   8.658   3.402
49861W        W22176   9.241  13.306  13.376
49862W        W22177  34.352   1.301   2.361
49863W        W22178  14.962  34.786  12.550
49864W        W22179  40.342  34.195  10.486
49865W        W22180   8.656  24.313  14.905
49866W        W22181  17.332  10.401  10.688
49867W        W22182  44.235  41.885   3.675
49868W        W22183  10.745  36.709   1.858
49869W        W22184   9.318  23.676  14.973
49870W        W22185  25.537  14.803  14.895
49871W        W22186  22.687   0.005  13.388
49872W        W22187   4.890  12.068   0.172
49873W        W22188  10.806  22.539   1.280
49874W        W22189   9.685   0.034  13.439
49875W        W22190  42.393  26.498   0.655
49876W        W22191  39.280  33.423  13.910
49877W        W22192  17.009  18.508  13.511
49878W        W22193   8.050  28.952   2.811
49879W        W22194  21.639  43.738  11.548
49880W        W22195  19.624  13.082   3.614
49881W        W22196  26.411  43.251   3.591
49882W        W22197  34.908   8.173  13.748
49883W        W22198  15.619  39.961  10.718
49884W        W22199  33.184  32.044  11.108
49885W        W22200  21.685  26.190  11.414
49886W        W22201  16.269  26.342  10.449
49887W        W22202   0.767   6.247   2.928
49888W        W22203  11.886  38.051  12.110
49889W        W22204  20.178  12.386   4.219
49890W        W22205  43.829  30.307   2.746
49891W        W22206  16.236  20.173   1.392
49892W        W22207  28.656   0.806  10.603
49893W        W22208  36.901  19.099   4.943
49894W        W22209  16.657  17.781   2.318
49895W        W22210   6.785  37.158   3.177
49896W        W22211  25.832  25.433  14.282
49897W        W22212  13.351  37.257   1.853
49898W        W22213  20.259  11.059  13.478
49899W        W22214  43.024  30.620  13.421
49900W        W22215  28.709  28.303   3.265
49901W        W22216  16.806  18.091   2.866
49902W        W22217  14.490  42.539   1.672
49903W        W22218   2.119  29.459  14.821
49904W        W22219  43.884   4.425  14.011
49905W        W22220   4.227  21.706  10.499
49906W        W22221  33.127  41.834   4.636
49907W        W22222  18.339  21.761  14.339
49908W        W22223   0.517  14.079  14.775
49909W        W22224   9.782   3.414   2.191
49910W        W22225  39.131  21.717  14.905
49911W        W22226  41.804  14.110   3.738
49912W        W22227  19.588   0.868   2.123
49913W        W22228  29.513  41.978  11.600
49914W        W22229   1.778  25.541  13.374
49915W        W22230  14.893  17.138  11.165
49916W        W22231   4.400   4.436  14.838
49917W        W22232  15.549  33.163  10.642
49918W        W22233  21.201  38.729  10.624
49919W        W22234   1.732   2.302   2.418
49920W        W22235  18.594  11.688  11.304
49921W        W22236   3.544  17.524   0.716
49922W        W22237   8.090  40.903  13.974
49923W        W22238  22.094  34.896  11.375
49924W        W22239  23.661   9.929   1.843
49925W        W22240   4.260   6.851   4.130
49926W        W22241  13.332  14.850   1.422
49927W        W22242  19.717  29.402   3.338
49928W        W22243  32.041  28.771   3.544
49929W        W22244   6.012   4.853   4.593
49930W        W22245  25.743   3.397   1.455
49931W        W22246  20.749  41.267   3.321
49932W        W22247  12.887   3.514  14.846
49933W        W22248  27.008  35.315   4.550
49934W        W22249  26.844  36.055  10.171
49935W        W22250   9.257  21.844   4.057
49936W        W22251  32.024  17.066  14.493
49937W        W22252  43.671   7.425  10.664
49938W        W22253  12.637  23.374   0.891
49939W        W22254  13.113  26.242   4.593
49940W        W22255  40.423  12.468   0.916
49941W        W22256   6.637  29.216   0.379
49942W        W22257   2.494  24.876   1.615
49943W        W22258  16.332  41.977  12.014
49944W        W22259  16.256  11.137   2.266
49945W        W22260  41.039  13.249   1.297
49946W        W22261   9.358  38.326   1.361
49947W        W22262  32.163  28.427   3.135
49948W        W22263  32.361  12.318   0.873
49949W        W22264   8.649  24.075  14.049
49950W        W22265  13.900  12.347   4.377
49951W        W22266   8.720  31.000   2.737
49952W        W22267  19.169  37.068   1.269
49953W        W22268  37.607  40.032  11.733
49954W        W22269  27.570  23.228   0.480
49955W        W22270  35.513  12.163   0.560
49956W        W22271  38.647  26.941  12.853
49957W        W22272  11.208  41.851  11.125
49958W        W22273  28.565  14.786   2.258
49959W        W22274  43.031  25.685   2.983
49960W        W22275   6.631   0.934   2.379
49961W        W22276  44.065  20.190   4.905
49962W        W22277  34.402  15.171  13.505
49963W        W22278  14.587  19.031   2.753
49964W        W22279  32.661  31.219  11.854
49965W        W22280  27.529   2.645   1.697
49966W        W22281  14.177   3.783  11.599
49967W        W22282  31.939  19.027  12.637
49968W        W22283  26.965  44.345   3.318
49969W        W22284  14.946  32.689   3.285
49970W        W22285  11.370  28.455  14.051
49971W        W22286  19.732   5.459  11.185
49972W        W22287   8.758  38.316  14.459
49973W        W22288  12.786  28.366  13.967
49974W        W22289   9.623  44.353   2.198
49975W        W22290  31.024   8.244  14.847
49976W        W22291  43.760  31.841  10.553
49977W        W22292  16.084  36.675  12.415
49978W        W22293  42.107  44.970  11.953
49979W        W22294   0.773  37.328  11.085
49980W        W22295   8.221   4.997   1.756
49981W        W22296  23.620  34.014   3.771
49982W        W22297   7.915  11.977  14.894
49983W        W22298   1.134  25.649  12.429
49984W        W22299  27.696  11.878  10.598
49985W        W22300  30.451  36.962  12.672
49986W        W22301   6.984  44.733   3.224
49987W        W22302   6.427  17.543  14.084
49988W        W22303  35.787  43.218   2.362
49989W        W22304  44.891  16.648  13.084
49990W        W22305  31.939  19.519   1.165
49991W        W22306  41.689  39.942   1.649
49992W        W22307  27.228  13.034  12.071
49993W        W22308  35.911  24.417   0.253
49994W        W22309  17.617  20.213   1.909
49995W        W22310  14.235  32.287  12.652
49996W        W22311  27.159  25.297   1.272
49997W        W22312  16.641  20.166  13.586
49998W        W22313   0.302   6.405   1.504
49999W        W22314  25.547   7.222   1.710
50000W        W22315  17.838  37.922   0.858
50001W        W22316  28.538  41.164   0.966
50002W        W22317  14.174  44.109   0.027
50003W        W22318  16.109  39.471  12.347
50004W        W22319  12.461  19.613  13.919
50005W        W22320  39.479  15.726   4.551
50006W        W22321  21.985   6.330   0.016
50007W        W22322  36.804  29.900   3.649
50008W        W22323  44.345  27.086  11.673
50009W        W22324   7.963  11.553  13.395
50010W        W22325  30.178   1.506  14.558
50011W        W22326   2.394  29.687   4.138
50012W        W22327  11.965  32.894   2.339
50013W        W22328  36.911  12.689  13.832
50014W        W22329  44.525   3.974  10.987
50015W        W22330   7.128  44.982   1.274
50016W        W22331   3.232  42.987  13.423
50017W        W22332  22.722  11.715  10.733
50018W        W22333   6.041   7.746   0.879
50019W        W22334  17.691  42.724   4.262
50020W        W22335  26.421   3.848   0.066
50021W        W22336  17.667  18.288   4.121
50022W        W22337  25.980   5.828   5.458
50023W        W22338  35.492  31.445  11.526
50024W        W22339  25.517  33.405  14.784
50025W        W22340  43.586  18.291  10.191
50026W        W22341   0.389  41.053   1.132
50027W        W22342  19.743  33.194  11.292
50028W        W22343  30.144  21.740  11.995
50029W        W22344  21.809  37.959  10.940
50030W        W22345   3.286   6.178   3.677
50031W        W22346  29.457   0.839  13.389
50032W        W22347  44.130  16.613  13.591
50033W        W22348   7.297  12.367  12.429
50034W        W22349  20.641  23.895  13.791
50035W        W22350  31.568  18.296   3.357
50036W        W22351  22.046  10.650   4.559
50037W        W22352   5.772  20.149  14.821
50038W        W22353   0.304   9.800  11.961
50039W        W22354  39.749  40.428   0.740
50040W        W22355   1.207  40.867   0.062
50041W        W22356  38.848  43.044  11.878
50042W        W22357  30.356  19.488  14.848
50043W        W22358  15.507   7.130  13.523
50044W        W22359  35.575  14.543  14.916
50045W        W22360  19.173  14.725   3.407
50046W        W22361  16.301  27.636  11.746
50047W        W22362  25.793  29.153  13.080
50048W        W22363   0.526   9.151  10.747
50049W        W22364   4.158  29.643  13.526
50050W        W22365  28.542   4.706  11.586
50051W        W22366  29.792  18.185  14.586
50052W        W22367  36.499  24.513   4.262
50053W        W22368  20.799   4.160  14.787
50054W        W22369  26.159  38.431   3.787
50055W        W22370  34.344  11.242  14.972
50056W        W22371  15.214  23.941  13.449
50057W        W22372  44.498  20.241   1.276
50058W        W22373  37.797   8.838   2.366
50059W        W22374  35.032   9.653  11.592
50060W        W22375  39.379   8.870  11.866
50061W        W22376  22.335  15.825  13.035
50062W        W22377  25.168  21.979  14.866
50063W        W22378  41.481  39.036   3.258
50064W        W22379  36.206  13.315  14.796
50065W        W22380  34.500  18.330   0.731
50066W        W22381  16.039  27.826   0.400
50067W        W22382  37.914  11.324  11.066
50068W        W22383  28.616  29.748  13.544
50069W        W22384  33.617  17.225   0.919
50070W        W22385  22.100  19.263  12.974
50071W        W22386  22.353  17.391   0.767
50072W        W22387  38.311   8.196   2.703
50073W        W22388  36.407  15.919   1.918
50074W        W22389  15.402  18.867  14.186
50075W        W22390  20.591  34.609   0.812
50076W        W22391  29.505  21.274  11.557
50077W        W22392  28.127  27.129   4.158
50078W        W22393  30.291  26.700   3.619
50079W        W22394   3.645  16.626   4.196
50080W        W22395   7.582   7.806   2.866
50081W        W22396  33.211  26.081   4.223
50082W        W22397  10.829  25.387  11.217
50083W        W22398  20.940  30.488   0.515
50084W        W22399  38.374   6.023  11.987
50085W        W22400  20.235  40.323   2.363
50086W        W22401  29.463  37.153   3.776
50087W        W22402  36.943   6.120  14.062
50088W        W22403  29.351  15.721  12.858
50089W        W22404  28.439  26.479   2.336
50090W        W22405   4.928  15.693   2.401
50091W        W22406  19.323  27.556  12.457
50092W        W22407  26.108  38.769  13.572
50093W        W22408  40.308  37.862  11.088
50094W        W22409  31.257  30.933  11.985
50095W        W22410  13.916  43.072   3.261
50096W        W22411   9.249  31.068   1.425
50097W        W22412   6.840  20.647   1.082
50098W        W22413   3.892   7.246   2.363
50099W        W22414  28.791  38.024   1.887
50100W        W22415  17.516  23.073   0.882
50101W        W22416  31.389  24.998   0.913
50102W        W22417  38.053   2.834  10.768
50103W        W22418   0.925  13.221   2.829
50104W        W22419  34.353  31.656  13.745
50105W        W22420  29.151  10.942  10.794
50106W        W22421  24.912  27.999  11.488
50107W        W22422  22.535  23.193   1.283
50108W        W22423  26.002  19.492   2.217
50109W        W22424  18.513  13.737   1.683
50110W        W22425  22.251  35.069  14.284
50111W        W22426  10.841  16.412   2.554
50112W        W22427  18.167  11.140  12.920
50113W        W22428  30.552  35.123  14.093
50114W        W22429  40.792   9.242   0.815
50115W        W22430  25.967  33.082   1.882
50116W        W22431  10.846  14.411   3.442
50117W        W22432   8.603  34.602  14.456
50118W        W22433  23.706  38.386  10.726
50119W        W22434  14.173  38.779   1.823
50120W        W22435  15.582   3.966   1.283
50121W        W22436  44.542  40.992  14.903
50122W        W22437  43.005  34.515   1.785
50123W        W22438  12.403  39.904  13.286
50124W        W22439  18.859  37.508   3.473
50125W        W22440  22.233  30.619   3.635
50126W        W22441  17.705  29.114  11.368
50127W        W22442  30.059  10.104  12.935
50128W        W22443  38.343  23.250  10.309
50129W        W22444   4.394  40.357  13.302
50130W        W22445  24.730  16.228   1.933
50131W        W22446  23.166  10.172  12.775
50132W        W22447  36.359  23.101  14.328
50133W        W22448   7.487  27.468   2.730
50134W        W22449   2.067  19.354  13.379
50135W        W22450  19.294   4.910   2.318
50136W        W22451  31.146   6.849   4.393
50137W        W22452  44.918  17.046   4.166
50138W        W22453  28.079   9.114   1.474
50139W        W22454  13.113   7.714   4.484
50140W        W22455  20.127  15.361  11.065
50141W        W22456  39.735   1.352  12.007
50142W        W22457  37.354  20.757  13.068
50143W        W22458  29.145   5.773   0.198
50144W        W22459   8.885   1.034  13.911
50145W        W22460  35.522  35.532  12.064
50146W        W22461  13.678   5.717  13.569
50147W        W22462  10.662  20.238  14.756
50148W        W22463  43.217  32.024  12.849
50149W        W22464  38.973  26.238   0.905
50150W        W22465  25.890   3.226   2.292
50151W        W22466  11.566  40.330   3.872
50152W        W22467  38.355  10.214   1.133
50153W        W22468  16.340  41.329  11.484
50154W        W22469  16.676  38.184  11.534
50155W        W22470  38.901   7.759   1.321
50156W        W22471  11.639  34.920  11.766
50157W        W22472  11.696   2.917   3.286
50158W        W22473   1.520  34.062   2.309
50159W        W22474  22.129  35.441   2.407
50160W        W22475  41.595  20.531  11.226
50161W        W22476   2.470  32.040   4.586
50162W        W22477  28.287  19.413   2.210
50163W        W22478  15.088  42.686  13.292
50164W        W22479  33.814   3.199   0.203
50165W        W22480   1.682  11.238  10.655
50166W        W22481   8.909  42.362  13.376
50167W        W22482  25.521  17.716   2.746
50168W        W22483   3.927  37.330  10.266
50169W        W22484  30.950   8.101  13.461
50170W        W22485  17.288  13.296   2.214
50171W        W22486  20.986  24.929   3.619
50172W        W22487  16.475  18.128   0.500
50173W        W22488  26.488  19.604   0.565
50174W        W22489  43.365   3.486   2.862
50175W        W22490   7.993  37.097  13.439
50176W        W22491  40.093  30.981  12.093
50177W        W22492  12.222  30.639  13.869
50178W        W22493  26.305  29.325   0.953
50179W        W22494  40.805  12.888   4.683
50180W        W22495  38.328  21.001  13.037
50181W        W22496  26.972  20.472  14.352
50182W        W22497  17.097  12.239  14.351
50183W        W22498  16.723  27.557  11.452
50184W        W22499  31.661  15.104   4.103
50185W        W22500  38.856  32.869  10.232
50186W        W22501  35.668  44.784  12.122
50187W        W22502  26.529  35.014  14.120
50188W        W22503  23.690  23.286   2.108
50189W        W22504  24.166  35.074   2.824
50190W        W22505  28.524  19.859   2.413
50191W        W22506  23.584   7.409  13.860
50192W        W22507   3.829  10.751   0.871
50193W        W22508  42.805   0.848   2.839
50194W        W22509   9.125   4.417   3.301
50195W        W22510  11.709  32.229  13.300
50196W        W22511  23.985  11.096  13.603
50197W        W22512   3.836   3.881  12.489
50198W        W22513  40.757  36.876  12.552
50199W        W22514  44.397  43.990   0.813
50200W        W22515  18.140  30.856  13.687
50201W        W22516  42.608   2.966   1.249
50202W        W22517  35.949  10.957   2.893
50203W        W22518  29.678   1.964   1.808
50204W        W22519  32.112   1.745   3.870
50205W        W22520   8.681  13.836  10.701
50206W        W22521   9.257  27.764   3.910
50207W        W22522  25.479  17.884  14.415
50208W        W22523  36.374  38.493  12.529
50209W        W22524  44.175  26.754  14.935
50210W        W22525  30.359   6.206  13.850
50211W        W22526  31.885  12.915   2.481
50212W        W22527  13.115  26.738  10.707
50213W        W22528  15.965  34.541  14.951
50214W        W22529  31.353  14.650   4.359
50215W        W22530  10.685  17.213   4.127
50216W        W22531  36.514  15.877  14.836
50217W        W22532  35.589   5.419  14.739
50218W        W22533  25.626  38.269   2.290
50219W        W22534  18.844   2.403  13.482
50220W        W22535  44.502  19.637  12.504
50221W        W22536  18.683  13.602  12.571
50222W        W22537  41.831  36.129   3.184
50223W        W22538  39.062   8.160  10.504
50224W        W22539  34.516  39.580   1.878
50225W        W22540  30.727  25.689   4.493
50226W        W22541  20.088  31.363   4.645
50227W        W22542  42.371  38.328   0.794
50228W        W22543  21.575  13.650  14.588
50229W        W22544  10.149  38.121  13.368
50230W        W22545  26.020  15.047  14.022
50231W        W22546  17.211  37.772  14.322
50232W        W22547  16.576   9.975  11.724
50233W        W22548  29.656  30.950   3.906
50234W        W22549  22.170  41.728   0.241
50235W        W22550   1.238  27.252  13.342
50236W        W22551  44.464  28.977  13.372
50237W        W22552  34.318  25.567  14.662
50238W        W22553  19.731  35.952   4.394
50239W        W22554  13.149  22.952  12.400
50240W        W22555  18.694  44.209   1.919
50241W        W22556  10.734   6.169  14.500
50242W        W22557  34.128  17.062  14.563
50243W        W22558  27.757  24.171   0.267
50244W        W22559  44.872  16.281   2.846
50245W        W22560  23.743   3.408   0.316
50246W        W22561  24.549   4.705   2.879
50247W        W22562   4.077  39.673   1.931
50248W        W22563  16.083  37.291  10.835
50249W        W22564   4.770   2.681   3.343
50250W        W22565  19.851  31.468   0.877
50251W        W22566  14.253  32.900   4.868
50252W        W22567  41.439   3.760  14.905
50253W        W22568  12.334  18.987   1.668
50254W        W22569  13.150  19.313  14.310
50255W        W22570  12.924  40.540   0.874
50256W        W22571  13.071  29.331  13.118
50257W        W22572  36.608   4.429  12.452
50258W        W22573  43.989  44.090   2.753
50259W        W22574  30.056   1.412   4.535
50260W        W22575  24.660   5.775   3.767
50261W        W22576   8.800  44.326  14.030
50262W        W22577   8.092  18.661  14.914
50263W        W22578  44.694  26.680  14.013
50264W        W22579   0.085  16.145  13.720
50265W        W22580  39.123  12.577   5.148
50266W        W22581  15.116  34.019   3.255
50267W        W22582  40.528  20.498  11.621
50268W        W22583   9.201   5.732  11.984
50269W        W22584  37.607  23.480   0.393
50270W        W22585  15.059   3.941  12.839
50271W        W22586  38.483  31.435  13.453
50272W        W22587  24.249   1.631  12.524
50273W        W22588  42.359  40.293  10.699
50274W        W22589  10.940  10.661   1.789
50275W        W22590  15.592  39.876   0.913
50276W        W22591  10.928   6.164   0.438
50277W        W22592   7.004   0.091  11.111
50278W        W22593  44.415  38.884   4.558
50279W        W22594  30.077  24.105   2.655
50280W        W22595  37.733  18.807   4.568
50281W        W22596  37.563  31.716  10.570
50282W        W22597  36.491  24.481  14.059
50283W        W22598  33.637  28.018  12.977
50284W        W22599  41.580   4.853   1.455
50285W        W22600   0.194  10.979  10.529
50286W        W22601  42.119  30.178  14.849
50287W        W22602   7.392  16.241  13.510
50288W        W22603  39.379  43.422  11.149
50289W        W22604   9.863  43.827   1.557
50290W        W22605  17.799   2.355  13.324
50291W        W22606  16.314  37.493   2.252
50292W        W22607  44.747   0.853   0.874
50293W        W22608  29.200  28.586   4.124
50294W        W22609  28.419  23.992   1.380
50295W        W22610  16.682  11.628  10.641
50296W        W22611  23.427  42.434  12.135
50297W        W22612  22.736  44.479  12.081
50298W        W22613  28.436  40.317  13.996
50299W        W22614  27.216  17.707   2.226
50300W        W22615   5.769  42.056   0.249
50301W        W22616   9.689  29.854   4.203
50302W        W22617  26.130   3.023  12.644
50303W        W22618  12.410  38.093   2.637
50304W        W22619  40.837  37.935   4.756
50305W        W22620  11.879  42.653   0.642
50306W        W22621   1.942  24.881   2.460
50307W        W22622  23.981  29.474  12.107
50308W        W22623   9.903  32.125  13.442
50309W        W22624  14.092   7.975   4.118
50310W        W22625  36.553   4.606   0.385
50311W        W22626   7.766  13.366   3.137
50312W        W22627  29.374   2.925   4.904
50313W        W22628  34.887   0.829  10.279
50314W        W22629  34.610  18.198  13.878
50315W        W22630  37.175  20.195   1.493
50316W        W22631   7.526  33.439   5.160
50317W        W22632  24.666  35.076   3.030
50318W        W22633  11.938  40.667   0.856
50319W        W22634  22.388  42.349  13.946
50320W        W22635  27.545  26.988  10.372
50321W        W22636   2.407   0.444  12.627
50322W        W22637  43.853  21.069  11.485
50323W        W22638  34.866  16.520  13.826
50324W        W22639  10.072   0.816  10.782
50325W        W22640   4.933   0.164  13.390
50326W        W22641  40.319  17.933  12.451
50327W        W22642   7.825  26.256  11.033
50328W        W22643   4.997  34.124   3.859
50329W        W22644  28.229   5.287   0.828
50330W        W22645  19.131   9.956  10.743
50331W        W22646  39.888  39.991   3.411
50332W        W22647  37.635  31.413   4.623
50333W        W22648   4.051  24.958  14.427
50334W        W22649   3.673   4.349   0.337
50335W        W22650   4.981  15.178  13.829
50336W        W22651  11.309  24.749   0.842
50337W        W22652  37.962  18.193   2.645
50338W        W22653  36.638  36.578  11.942
50339W        W22654  34.455  30.389  13.266
50340W        W22655  31.445  30.038  11.564
50341W        W22656  41.080  20.915   3.207
50342W        W22657  11.262  19.535   3.620
50343W        W22658  17.573  13.034   3.268
50344W        W22659  21.965  32.810  11.207
50345W        W22660   4.164  34.757   0.057
50346W        W22661   2.925  27.563   1.440
50347W        W22662  10.693  19.044   9.557
50348W        W22663  12.752  14.085   1.088
50349W        W22664  12.322  28.508   0.520
50350W        W22665   4.412  20.446   3.198
50351W        W22666  20.455  13.930   1.782
50352W        W22667  30.815   5.944   0.885
50353W        W22668  20.468  27.106  10.691
50354W        W22669  39.173  15.292   4.564
50355W        W22670  10.637  20.871  10.918
50356W        W22671  19.382  43.988  13.788
50357W        W22672  15.997  31.749   4.206
50358W        W22673  25.725  36.543  14.883
50359W        W22674  25.137  25.779   0.380
50360W        W22675   7.325  27.116  10.813
50361W        W22676   5.203  38.698   2.278
50362W        W22677  35.642  20.989  13.051
50363W        W22678  13.720  31.594   3.781
50364W        W22679   6.236  10.385  14.849
50365W        W22680  18.179   0.148  14.934
50366W        W22681  38.986  27.917  13.764
50367W        W22682  19.897  41.010   0.084
50368W        W22683  11.873  35.060  14.509
50369W        W22684  15.259  19.081   4.385
50370W        W22685  17.631  30.528   4.523
50371W        W22686  43.671  32.930   0.396
50372W        W22687  18.830   5.182  12.394
50373W        W22688  24.042  42.378  10.672
50374W        W22689  38.955  19.212   3.273
50375W        W22690   3.543   8.287   1.836
50376W        W22691  32.728  29.479   3.253
50377W        W22692   2.984  12.637   2.177
50378W        W22693   8.998  33.579  13.850
50379W        W22694  36.582  34.528  12.597
50380W        W22695  43.287  36.930  13.514
50381W        W22696  17.889  36.868  14.347
50382W        W22697  14.291   6.646   3.766
50383W        W22698  21.578   1.512   2.476
50384W        W22699  26.535  17.688   3.154
50385W        W22700  27.680   1.189   2.550
50386W        W22701  20.551  43.337  14.914
50387W        W22702  32.677  13.417  14.817
50388W        W22703  18.613  34.275   1.371
50389W        W22704  44.747   2.986  12.340
50390W        W22705  33.171   6.591  13.244
50391W        W22706  41.933  36.377  11.491
50392W        W22707  42.868   7.810  10.869
50393W        W22708  27.529  21.992   4.191
50394W        W22709   4.783  38.949   4.613
50395W        W22710  15.390  29.036   1.711
50396W        W22711  13.525  14.706   3.369
50397W        W22712   5.523  26.093  12.763
50398W        W22713  11.186  33.258   3.443
50399W        W22714  25.710  41.496   5.023
50400W        W22715  34.114   8.713   4.551
50401W        W22716  42.220   5.029   5.088
50402W        W22717  22.720  34.048  11.570
50403W        W22718  26.430  21.337   4.414
50404W        W22719  12.860   2.381  12.934
50405W        W22720  35.683  37.728  11.057
50406W        W22721  23.729   0.260  10.614
50407W        W22722  17.530  19.416   4.729
50408W        W22723  33.008   5.595   3.680
50409W        W22724  11.714  22.478  14.112
50410W        W22725  14.690   4.720   0.365
50411W        W22726  17.056  39.262   3.264
50412W        W22727   2.446  27.462   2.938
50413W        W22728  38.808  22.994  14.525
50414W        W22729  24.747  12.907   1.373
50415W        W22730  11.763   0.554  12.033
50416W        W22731  24.713  21.566   3.737
50417W        W22732   1.981  21.490  12.543
50418W        W22733  44.173   5.455  12.108
50419W        W22734  13.248  26.090  14.747
50420W        W22735  25.040   8.224   0.921
50421W        W22736  44.649  33.386  10.240
50422W        W22737   8.709  26.508   0.979
50423W        W22738   9.378   4.400   4.150
50424W        W22739  18.209  29.327   3.725
50425W        W22740   6.984   4.491   1.383
50426W        W22741  21.410  19.877   3.808
50427W        W22742  43.468   3.485   5.119
50428W        W22743  30.053   7.088  13.203
50429W        W22744  41.791   8.829  10.162
50430W        W22745  13.897  25.251  10.813
50431W        W22746   2.002  11.333   3.285
50432W        W22747  14.758  18.939   4.404
50433W        W22748  23.436  28.355  10.586
50434W        W22749  28.394  29.180   3.485
50435W        W22750  19.290  13.863  10.635
50436W        W22751  33.394  14.198  11.492
50437W        W22752  37.908  19.730  11.920
50438W        W22753  27.865  29.092  13.152
50439W        W22754  17.643   9.636  14.887
50440W        W22755  19.584  25.907  12.992
50441W        W22756  43.413  24.427  13.832
50442W        W22757  18.502  15.117   0.869
50443W        W22758  35.516   0.419   2.319
50444W        W22759  38.279  37.786  11.087
50445W        W22760  20.960  14.915  12.553
50446W        W22761   8.755   0.410   1.938
50447W        W22762   7.356  33.109   0.872
50448W        W22763  42.864   1.459  11.366
50449W        W22764   1.726  26.717  12.949
50450W        W22765  40.396   8.667   4.063
50451W        W22766  30.464  29.339   0.188
50452W        W22767  25.529   0.412   0.671
50453W        W22768  11.087  42.385   2.592
50454W        W22769   7.388  34.084  11.120
50455W        W22770  33.819  13.201   0.506
50456W        W22771   5.512  37.135   3.619
50457W        W22772  41.852  44.751  11.569
50458W        W22773   2.988  43.248  13.036
50459W        W22774  29.995   6.704  14.660
50460W        W22775  39.798  27.637  12.657
50461W        W22776  25.326  32.009   2.896
50462W        W22777  28.201  28.670  11.592
50463W        W22778  23.596   2.068   3.733
50464W        W22779   5.979   0.844   4.024
50465W        W22780  25.679  24.920   5.262
50466W        W22781  20.099  14.623  12.982
50467W        W22782   0.727  10.100  11.821
50468W        W22783  28.526   4.191  11.570
50469W        W22784  43.876  36.175   3.766
50470W        W22785  19.430   0.634  12.124
50471W        W22786   3.375   5.835   2.740
50472W        W22787  20.999  25.613   1.755
50473W        W22788   2.490  25.521  11.072
50474W        W22789   3.352  30.332   0.541
50475W        W22790  43.470  21.214   3.916
50476W        W22791  28.947   0.789  13.228
50477W        W22792  27.486  36.073  11.396
50478W        W22793  29.422  30.482  13.355
50479W        W22794  28.332  34.662  10.033
50480W        W22795  12.433  43.777  11.469
50481W        W22796  40.328  37.117   2.387
50482W        W22797  13.268  30.602  11.982
50483W        W22798   9.057  31.711   0.894
50484W        W22799   3.293  26.746   4.107
50485W        W22800  21.253  30.539   4.768
50486W        W22801   2.255  26.582  11.901
50487W        W22802  39.984  13.545   4.950
50488W        W22803  11.366  44.397   4.543
50489W        W22804  20.054   2.456  14.973
50490W        W22805  36.554  17.733   4.260
50491W        W22806  10.321  20.620  12.429
50492W        W22807  40.042  41.752  12.459
50493W        W22808  15.268   2.445  10.932
50494W        W22809  23.535  11.286  12.497
50495W        W22810  29.982  32.379   3.636
50496W        W22811  15.524  27.528  14.575
50497W        W22812   3.194  43.688  14.856
50498W        W22813  31.540  43.360  12.528
50499W        W22814   4.906  27.631   1.841
50500W        W22815  41.317  28.927  14.902
50501W        W22816   7.245  11.860  12.374
50502W        W22817  27.767   4.674   3.062
50503W        W22818   4.937   5.502   1.066
50504W        W22819   9.674  43.000   1.353
50505W        W22820   2.330  11.560   1.808
50506W        W22821  40.038   1.436   0.214
50507W        W22822   8.268  30.894  12.854
50508W        W22823  17.598   9.195   2.273
50509W        W22824  21.710  44.698  11.679
50510W        W22825  15.017   9.295   3.988
50511W        W22826  22.651   1.374  12.392
50512W        W22827   8.096  28.740  14.310
50513W        W22828  14.334  37.967  14.425
50514W        W22829  40.809  40.024  12.378
50515W        W22830  37.927  15.558  12.895
50516W        W22831  25.074   4.483  12.554
50517W        W22832  34.627  28.340   0.259
50518W        W22833  41.344   5.801  13.930
50519W        W22834  22.694  35.621   0.236
50520W        W22835  10.348  42.738  13.534
50521W        W22836  38.956  37.083   0.753
50522W        W22837  18.583  12.034   2.571
50523W        W22838  36.036  26.992   2.322
50524W        W22839  22.434   7.877  12.860
50525W        W22840  12.303  35.053   9.912
50526W        W22841  32.519  32.857  14.378
50527W        W22842  43.517   4.937  11.559
50528W        W22843  38.902  10.301  12.036
50529W        W22844  10.890  26.236   1.220
50530W        W22845  20.986  22.278  11.044
50531W        W22846   2.274  25.167   0.758
50532W        W22847   5.320   6.409   2.695
50533W        W22848  25.302   9.106  12.480
50534W        W22849   2.225  13.592  12.131
50535W        W22850  17.112  14.087   4.528
50536W        W22851   4.733   5.667   1.525
50537W        W22852   1.875  19.982  10.612
50538W        W22853  25.850  31.556  14.070
50539W        W22854  33.171  34.701  14.240
50540W        W22855  30.145   0.376   3.251
50541W        W22856   2.463   6.189  13.572
50542W        W22857   9.514  35.366   3.562
50543W        W22858  44.280  34.272   1.155
50544W        W22859  36.095   5.344   2.370
50545W        W22860  23.028  25.970   0.660
50546W        W22861  21.372   1.998  11.208
50547W        W22862  13.652  17.072   3.316
50548W        W22863  21.985   2.955  13.962
50549W        W22864  39.772  40.706  11.089
50550W        W22865   9.212   1.975   1.381
50551W        W22866  23.792  38.595   2.459
50552W        W22867  43.408  42.771  11.499
50553W        W22868  14.311  25.530   0.187
50554W        W22869   2.050  16.099  11.339
50555W        W22870  33.029  29.631  12.428
50556W        W22871   7.432   9.735  14.341
50557W        W22872   1.053  25.029   1.371
50558W        W22873  43.451   8.645  11.138
50559W        W22874   2.746  14.040  11.191
50560W        W22875  18.894   8.809   9.917
50561W        W22876   0.007  36.869  13.104
50562W        W22877  43.602  40.811  13.017
50563W        W22878  37.088  44.543  11.799
50564W        W22879  11.212  40.101   4.775
50565W        W22880  26.206  37.547  12.957
50566W        W22881  14.095  35.126   0.957
50567W        W22882   0.860  22.158   3.115
50568W        W22883   0.440   5.274   2.296
50569W        W22884  17.655  13.392   4.587
50570W        W22885  32.890  43.720  12.530
50571W        W22886  18.309  31.182  11.437
50572W        W22887  20.660  24.228   2.888
50573W        W22888  26.119   7.911  14.400
50574W        W22889   7.324  40.489  11.962
50575W        W22890  28.190  13.832   4.089
50576W        W22891  29.239   4.036  14.883
50577W        W22892  37.043  21.760   2.847
50578W        W22893  31.563  20.119   0.564
50579W        W22894  21.073  32.140  11.130
50580W        W22895  44.768  13.061   0.958
50581W        W22896  13.220  42.510   3.663
50582W        W22897   0.835  17.667  11.451
50583W        W22898  35.207  31.552  10.743
50584W        W22899  10.369   1.309  13.020
50585W        W22900  30.056  35.463  12.515
50586W        W22901   1.837  28.554   1.229
50587W        W22902  10.802  41.011   1.870
50588W        W22903  40.830   1.534   2.371
50589W        W22904  10.396  30.644  12.403
50590W        W22905  11.197  43.038   4.787
50591W        W22906   6.677   2.863   0.462
50592W        W22907  27.638  37.285  14.092
50593W        W22908  12.224  24.217  11.460
50594W        W22909   6.459  41.885  12.993
50595W        W22910  24.252  13.191  10.543
50596W        W22911  22.141  19.200   4.135
50597W        W22912  35.885  30.925   4.822
50598W        W22913  33.319  30.603   0.724
50599W        W22914   7.820  44.736   3.536
50600W        W22915  28.244   8.670  11.248
50601W        W22916  25.956  36.133   1.302
50602W        W22917   0.259  19.532  12.182
50603W        W22918   3.389  24.930  10.571
50604W        W22919  12.463  29.357  14.944
50605W        W22920  18.575   7.173   4.067
50606W        W22921  34.063  10.185  13.469
50607W        W22922  16.776  22.237   0.359
50608W        W22923  21.673   5.366  13.887
50609W        W22924   0.898  38.705  12.561
50610W        W22925  19.908  20.652   3.337
50611W        W22926  17.286  27.122   1.805
50612W        W22927  12.275   0.824   1.367
50613W        W22928  18.544   9.638  11.410
50614W        W22929  14.672   3.999  14.855
50615W        W22930  18.833  32.856  11.143
50616W        W22931  19.442  33.741  10.529
50617W        W22932   5.530  23.445  11.749
50618W        W22933  44.820   6.245   1.348
50619W        W22934  27.005  12.704   0.727
50620W        W22935   8.891  14.651  14.271
50621W        W22936  38.290  30.935   2.606
50622W        W22937  25.523  36.456  10.718
50623W        W22938   2.685  20.562  11.213
50624W        W22939   7.929  25.184   1.406
50625W        W22940  35.556  40.824  14.106
50626W        W22941   2.991   8.167   2.634
50627W        W22942  44.012  20.674  12.181
50628W        W22943  16.696  10.909  10.944
50629W        W22944  23.669   3.586  12.163
50630W        W22945  17.451  36.856  12.062
50631W        W22946  20.613  38.394   3.787
50632W        W22947  12.473   6.453  12.956
50633W        W22948  44.196  36.296   4.812
50634W        W22949  27.510  25.081   5.144
50635W        W22950  40.971  36.794   0.446
50636W        W22951  26.448  14.065   3.793
50637W        W22952   3.644   2.010  10.598
50638W        W22953  13.599  12.406  13.564
50639W        W22954  38.320  10.735   1.653
50640W        W22955  35.306  37.447  11.558
50641W        W22956  28.531  43.927   0.525
50642W        W22957  43.075   0.002   3.963
50643W        W22958  19.070  31.502  11.922
50644W        W22959  34.391  20.204  10.655
50645W        W22960  27.891  21.572   1.025
50646W        W22961  35.084  32.086  13.568
50647W        W22962  36.730  28.098  11.091
50648W        W22963  17.652   7.636   3.294
50649W        W22964  39.705   2.266   2.209
50650W        W22965  31.716  42.976   3.586
50651W        W22966  31.636   0.682  12.426
50652W        W22967   4.163  15.902   0.930
50653W        W22968   7.590   1.038   2.803
50654W        W22969  28.709  34.821   2.029
50655W        W22970  15.355   1.766   2.884
50656W        W22971   0.824  33.400   0.683
50657W        W22972  10.844  30.254  13.144
50658W        W22973  39.321  22.490   1.869
50659W        W22974  14.821   5.343  13.891
50660W        W22975  31.647  21.674  14.875
50661W        W22976  29.592  14.411   2.226
50662W        W22977   9.684  35.134   4.956
50663W        W22978  15.105  42.886  13.758
50664W        W22979  23.332   4.186  14.542
50665W        W22980   1.297  14.791  14.923
50666W        W22981  34.096   8.179   3.997
50667W        W22982  15.098  10.369   2.746
50668W        W22983  17.592  39.680  11.244
50669W        W22984  11.131  26.116  11.659
50670W        W22985  13.016  11.781   2.224
50671W        W22986   6.894   4.240  12.017
50672W        W22987  20.497  43.776  13.767
50673W        W22988  38.993  24.931   4.698
50674W        W22989  12.408  23.932   3.258
50675W        W22990  17.927  44.744  13.998
50676W        W22991  30.129   5.727   2.450
50677W        W22992  24.439   8.322   1.653
50678W        W22993  41.378  43.982  12.162
50679W        W22994  43.679  17.087   4.536
50680W        W22995  18.097  16.846   2.563
50681W        W22996   8.393  36.034   0.165
50682W        W22997   2.846  19.173   4.695
50683W        W22998  22.440  14.138  14.475
50684W        W22999  20.218  22.226  11.833
50685W        W23000  33.626  32.200  10.866
50686W        W23001  30.501  40.986  12.691
50687W        W23002  18.087  28.621   9.649
50688W        W23003  22.512  38.008  14.564
50689W        W23004  23.151  33.881  13.953
50690W        W23005  39.795   0.089  11.459
50691W        W23006  19.789  14.269   1.260
50692W        W23007  36.258   3.267   3.679
50693W        W23008   4.998   4.398   3.107
50694W        W23009  39.354  39.427  13.367
50695W        W23010  13.350  14.839  13.358
50696W        W23011   3.763   3.648  12.032
50697W        W23012   9.383  40.429  12.506
50698W        W23013   4.234   5.385   3.543
50699W        W23014   2.838   1.462   3.156
50700W        W23015  31.909  20.704  10.433
50701W        W23016  24.423   2.912   4.110
50702W        W23017   6.907  35.167  12.965
50703W        W23018  35.747  29.910   4.087
50704W        W23019  22.603   6.359  12.065
50705W        W23020  39.341  32.524  14.382
50706W        W23021  13.264  37.793   4.296
50707W        W23022  11.236  29.463   0.592
50708W        W23023  44.430   8.652  13.282
50709W        W23024  23.084  18.534  12.795
50710W        W23025   6.897  11.599   3.286
50711W        W23026  44.470  41.367  11.085
50712W        W23027  11.687  21.375  10.390
50713W        W23028  40.928  18.708   3.375
50714W        W23029  21.937   4.425   0.975
50715W        W23030  14.323  38.389  13.466
50716W        W23031   9.570  29.672  11.544
50717W        W23032  26.147   7.647  13.377
50718W        W23033  33.153   9.130   1.252
50719W        W23034  31.044  30.509   1.865
50720W        W23035   0.916  30.314  12.944
50721W        W23036  43.178  21.538  10.595
50722W        W23037  42.528  25.585  10.576
50723W        W23038   4.322   5.431   4.565
50724W        W23039   4.235  12.649   0.745
50725W        W23040   9.646  35.902  12.034
50726W        W23041  15.093  39.967  13.077
50727W        W23042  31.018  16.626   0.365
50728W        W23043  11.499   4.113  11.229
50729W        W23044  18.228  29.943  13.810
50730W        W23045  30.651  11.195  12.327
50731W        W23046  29.086   7.057  14.893
50732W        W23047   6.781  23.143  14.510
50733W        W23048  26.816   0.842  14.002
50734W        W23049   9.388  34.125   2.257
50735W        W23050  23.508  42.791   4.270
50736W        W23051  33.403   5.912  10.654
50737W        W23052  40.652   2.990   1.344
50738W        W23053  40.570  20.095   0.940
50739W        W23054  39.436  40.264  11.077
50740W        W23055  18.572  39.878   1.235
50741W        W23056  33.470  39.271  10.550
50742W        W23057  31.684  36.374  11.648
50743W        W23058  34.572   1.176  11.163
50744W        W23059  27.262  31.940  10.207
50745W        W23060  19.116  42.512   1.742
50746W        W23061  13.172  22.742  10.658
50747W        W23062   4.410  10.272  12.820
50748W        W23063  40.257  33.568   5.004
50749W        W23064  29.254  18.691  12.527
50750W        W23065  40.274   9.452   0.139
50751W        W23066  35.109  19.920  13.794
50752W        W23067  16.165  40.814  10.722
50753W        W23068  19.929  44.885   3.437
50754W        W23069  14.094   4.194  12.966
50755W        W23070   6.692  16.667  12.562
50756W        W23071   7.953  36.466  14.398
50757W        W23072  29.526  15.880   3.353
50758W        W23073  44.484   7.633  14.805
50759W        W23074  34.365   5.267  12.087
50760W        W23075  20.838  18.628  10.860
50761W        W23076  12.624  32.756  13.254
50762W        W23077  42.120   8.046   4.832
50763W        W23078  17.585  11.626   5.113
50764W        W23079  23.468  31.238   0.319
50765W        W23080  22.774   6.600  11.590
50766W        W23081  26.564  42.012  13.196
50767W        W23082   9.579  21.621   2.694
50768W        W23083   4.779  13.116   4.636
50769W        W23084  33.259   2.076  12.069
50770W        W23085  32.852  12.341   1.758
50771W        W23086  38.830  44.249   1.587
50772W        W23087   1.786  35.474   4.613
50773W        W23088  39.130  23.794   3.429
50774W        W23089  36.080   2.769   2.200
50775W        W23090   4.819  24.639  13.047
50776W        W23091   3.255   3.282  14.531
50777W        W23092  21.934  44.729   2.256
50778W        W23093   7.419  44.866  10.440
50779W        W23094  27.463   6.818  11.618
50780W        W23095  26.038   0.166  12.999
50781W        W23096   1.150   1.938   4.362
50782W        W23097   5.829  43.181   3.606
50783W        W23098  33.142  40.929   0.349
50784W        W23099  41.800  13.040   0.408
50785W        W23100  27.219  19.226   2.003
50786W        W23101  39.379  14.314   0.787
50787W        W23102   9.229   7.379   1.279
50788W        W23103  23.644  30.497   3.692
50789W        W23104   0.799   3.959   1.295
50790W        W23105   1.021  18.222  12.988
50791W        W23106  29.034   3.924  11.581
50792W        W23107   0.581  40.435  10.210
50793W        W23108  23.959   2.588   4.153
50794W        W23109   1.788   0.141  11.016
50795W        W23110  11.364  23.823   0.843
50796W        W23111  10.511  14.600  12.998
50797W        W23112  27.711  10.744  14.576
50798W        W23113  18.574  44.469   0.239
50799W        W23114  15.812  30.513  12.123
50800W        W23115  26.317  26.247  14.072
50801W        W23116   9.654  17.214   3.296
50802W        W23117  31.700   3.105   3.125
50803W        W23118  12.708  33.863  12.481
50804W        W23119  19.359  39.414  11.492
50805W        W23120   7.283  41.464  14.034
50806W        W23121  32.626  21.177   3.758
50807W        W23122  26.829  34.642   1.603
50808W        W23123  26.613   8.624  13.888
50809W        W23124  27.831  21.777   3.811
50810W        W23125  15.194  38.658  10.551
50811W        W23126  32.890   1.493  13.689
50812W        W23127  11.325  39.255  12.838
50813W        W23128   7.788  14.809  13.035
50814W        W23129   9.938   9.458  14.324
50815W        W23130  35.739  32.021   1.333
50816W        W23131  10.211  32.896  11.051
50817W        W23132  27.470  34.633   2.185
50818W        W23133  12.878   7.313   3.343
50819W        W23134  37.778  17.896  13.476
50820W        W23135  10.166  18.793  11.608
50821W        W23136  21.223  33.609   3.387
50822W        W23137   2.055   6.199   2.233
50823W        W23138  43.878  19.125  14.052
50824W        W23139   1.534  35.367   3.734
50825W        W23140  15.754  29.481   4.656
50826W        W23141  32.480  13.073   0.405
50827W        W23142  24.205  18.266  12.823
50828W        W23143  27.209  41.811  13.653
50829W        W23144   5.585  18.455  13.829
50830W        W23145  19.496  39.087   4.085
50831W        W23146  33.622   7.857  10.357
50832W        W23147  18.167   8.959   2.228
50833W        W23148   6.041   0.754   1.121
50834W        W23149  18.791  29.323  11.550
50835W        W23150   6.141  43.595   3.635
50836W        W23151  41.127  37.288  11.174
50837W        W23152  44.284   1.992   1.268
50838W        W23153  25.247   6.556  13.418
50839W        W23154  30.960  27.688  13.269
50840W        W23155  24.355  21.180  12.435
50841W        W23156  39.449  34.116   0.028
50842W        W23157   8.260   5.264  12.417
50843W        W23158   3.291  44.998  14.070
50844W        W23159  42.784  20.155   2.209
50845W        W23160  42.274  35.433   4.870
50846W        W23161  19.200   7.856   2.249
50847W        W23162  28.981  32.970  12.112
50848W        W23163  25.464  18.652   2.315
50849W        W23164  29.908  19.876   2.235
50850W        W23165   2.084  11.251   3.931
50851W        W23166   5.682  23.654  10.962
50852W        W23167  26.011  32.517  10.047
50853W        W23168  42.148  33.724   2.251
50854W        W23169  36.821  42.976  11.261
50855W        W23170  30.565  18.311   0.896
50856W        W23171  23.474  22.629  14.083
50857W        W23172  17.328   8.320  13.756
50858W        W23173  35.036  12.296  12.547
50859W        W23174  22.543  34.849  11.134
50860W        W23175  10.218  25.611  13.330
50861W        W23176  42.938   0.389  14.937
50862W        W23177  35.835   3.201  12.394
50863W        W23178  13.388  38.767  13.499
50864W        W23179   4.103  13.315   3.893
50865W        W23180  36.404   7.161   3.719
50866W        W23181  34.122  12.810   4.005
50867W        W23182  13.981  40.516   0.681
50868W        W23183  37.531  29.373  11.215
50869W        W23184  38.691  22.711   4.989
50870W        W23185  21.571   8.349   3.489
50871W        W23186  21.577  19.259  12.937
50872W        W23187  44.456   9.692   1.750
50873W        W23188  17.528  32.479  11.101
50874W        W23189  11.478  32.600   4.142
50875W        W23190   6.634  36.333  11.977
50876W        W23191  39.926  43.818   3.367
50877W        W23192  17.010  32.866  13.262
50878W        W23193   6.497  26.216   3.258
50879W        W23194  29.376  24.307   3.764
50880W        W23195  41.548  23.962   1.497
50881W        W23196  22.280  29.788   4.191
50882W        W23197  44.965  27.499  11.107
50883W        W23198  29.823  36.834  11.063
50884W        W23199  36.342  41.062  13.518
50885W        W23200  12.807  29.943  14.041
50886W        W23201   3.220   3.895  13.143
50887W        W23202  25.570  37.661  13.451
50888W        W23203  13.552  34.019   3.171
50889W        W23204  43.221   5.029   2.786
50890W        W23205  40.924   3.494   2.655
50891W        W23206  28.707  35.113   4.439
50892W        W23207  35.949  30.824   1.729
50893W        W23208  16.740  40.541   3.095
50894W        W23209  42.921  40.848  12.089
50895W        W23210  16.519  31.399  12.299
50896W        W23211  35.552  11.175   0.569
50897W        W23212   2.974  24.695  11.066
50898W        W23213  16.000  38.458   1.890
50899W        W23214  32.086   2.532  11.475
50900W        W23215  25.674  29.594  10.333
50901W        W23216   2.287  15.605  10.723
50902W        W23217  23.355   9.739  10.513
50903W        W23218  35.953  14.118  12.372
50904W        W23219  15.017  25.229  13.905
50905W        W23220   5.406  17.421  13.953
50906W        W23221   7.397  26.555   0.479
50907W        W23222  44.230   3.566  11.080
50908W        W23223  31.041   7.982  11.031
50909W        W23224   6.453  43.340  13.393
50910W        W23225  38.447  22.807   4.544
50911W        W23226  17.268  41.795  14.048
50912W        W23227  12.060  29.261  12.615
50913W        W23228   6.208  11.375  12.907
50914W        W23229  40.634  12.535  12.721
50915W        W23230  13.543  22.484  12.848
50916W        W23231   6.790  30.076  14.285
50917W        W23232  11.323  28.945   2.930
50918W        W23233  29.003   1.351   3.029
50919W        W23234  24.040  44.887   1.242
50920W        W23235  33.149  40.439   2.802
50921W        W23236  11.892  29.842  12.650
50922W        W23237  11.337   3.962   1.812
50923W        W23238  39.541  32.868   1.874
50924W        W23239  31.075  10.273   1.876
50925W        W23240  44.324   1.818   4.133
50926W        W23241   4.674  29.765  13.418
50927W        W23242  36.913   7.242   4.107
50928W        W23243  17.156  19.961   2.090
50929W        W23244   5.472  25.096  12.509
50930W        W23245  38.251  20.166  14.398
50931W        W23246  23.508  31.694   5.032
50932W        W23247  20.936  27.441   5.089
50933W        W23248  30.867  34.862   3.356
50934W        W23249  38.791  28.898   3.220
50935W        W23250  26.059  19.776   0.821
50936W        W23251  30.635  42.422  14.797
50937W        W23252  37.899  36.077  10.695
50938W        W23253  33.897   0.674   0.023
50939W        W23254  28.480  19.092   4.520
50940W        W23255  41.866   6.327  10.399
50941W        W23256  38.117  29.893   0.789
50942W        W23257   9.872   8.185  11.039
50943W        W23258   0.986   2.755  14.046
50944W        W23259   2.339  27.116  12.618
50945W        W23260   5.319  35.142  13.781
50946W        W23261  15.151  41.865   2.822
50947W        W23262  11.111  26.611  10.389
50948W        W23263   2.944   8.600  14.413
50949W        W23264  28.459   6.586  14.853
50950W        W23265   1.343  35.762   9.929
50951W        W23266  21.655  22.037  11.393
50952W        W23267  44.273   8.197  13.063
50953W        W23268   4.813  43.067   3.586
50954W        W23269  21.763  13.321  12.445
50955W        W23270  38.063  19.806   1.866
50956W        W23271  10.768   9.459   1.444
50957W        W23272   7.703  15.707   1.388
50958W        W23273   6.936  10.412   4.069
50959W        W23274  20.458  21.144   2.478
50960W        W23275   1.235  33.929  12.606
50961W        W23276  36.157  26.040   1.477
50962W        W23277   6.409  14.110   0.961
50963W        W23278  28.495  12.575   5.051
50964W        W23279   0.704  44.967  14.304
50965W        W23280  36.919  11.852   4.615
50966W        W23281  30.519  27.147   2.698
50967W        W23282  20.063  41.322  11.138
50968W        W23283  29.556  42.722   5.012
50969W        W23284  29.201  33.391   2.851
50970W        W23285  11.893  26.574  12.445
50971W        W23286  10.695  18.564   3.323
50972W        W23287   7.974  27.555   2.150
50973W        W23288  26.476  35.411   3.859
50974W        W23289  25.504  44.056   1.322
50975W        W23290  39.218  12.356  11.193
50976W        W23291   1.420  12.546   1.399
50977W        W23292   5.396  39.410   0.653
50978W        W23293  22.938  43.821  13.816
50979W        W23294  43.964  14.852  10.502
50980W        W23295  25.877  32.596   1.143
50981W        W23296  22.790  43.863  14.711
50982W        W23297  43.732  21.409   0.010
50983W        W23298   2.674  40.982   0.386
50984W        W23299  24.436  38.361   1.696
50985W        W23300  34.905  33.380   0.732
50986W        W23301  13.807   4.556   2.914
50987W        W23302  19.321  17.305  13.461
50988W        W23303  23.141   1.784  12.986
50989W        W23304  16.352   9.896  14.312
50990W        W23305   8.194  26.178   0.226
50991W        W23306   9.947  12.442  11.576
50992W        W23307   2.908   6.220   0.407
50993W        W23308  16.276  12.360   0.018
50994W        W23309  11.603  11.385   1.245
50995W        W23310  33.069  14.468   3.115
50996W        W23311  10.793  32.495  13.112
50997W        W23312   7.641  33.654   3.150
50998W        W23313  44.348  11.367   2.171
50999W        W23314  13.089  43.446  11.939
51000W        W23315   2.912  32.189  10.343
51001W        W23316  26.653  31.214  13.143
51002W        W23317  27.878   1.461   3.511
51003W        W23318  41.159   5.342  11.788
51004W        W23319  20.989  43.556   3.659
51005W        W23320  17.495  41.061  13.395
51006W        W23321   1.361  33.522  12.340
51007W        W23322  15.075  16.208   4.038
51008W        W23323  33.366   5.229   3.837
51009W        W23324  13.797  21.473   2.461
51010W        W23325  16.440   6.539  13.000
51011W        W23326  22.402  39.735  12.373
51012W        W23327   6.587  27.616   3.964
51013W        W23328   6.982  40.849  13.441
51014W        W23329  18.430  13.564   0.397
51015W        W23330  19.016  40.905  10.610
51016W        W23331  10.264  17.258   1.122
51017W        W23332   9.545  12.019   2.247
51018W        W23333   5.955  32.513   0.868
51019W        W23334  11.647   2.291  14.816
51020W        W23335  21.142  16.289  11.177
51021W        W23336  35.197  37.418   3.151
51022W        W23337  41.442  40.111   4.550
51023W        W23338  26.317  37.952   1.709
51024W        W23339  42.879  20.449   0.985
51025W        W23340  20.272  26.918   3.724
51026W        W23341  40.877  21.777  11.265
51027W        W23342   0.921  33.050  10.133
51028W        W23343  24.373   1.486  13.974
51029W        W23344  29.158   5.394  14.257
51030W        W23345  22.174   0.469   3.551
51031W        W23346   9.767  12.371   0.948
51032W        W23347  24.611   7.886  12.036
51033W        W23348  11.440  32.970   2.317
51034W        W23349  16.753  43.398   2.258
51035W        W23350  40.962   6.739   4.528
51036W        W23351  43.762  17.338   3.091
51037W        W23352   7.636   4.803  13.010
51038W        W23353   9.641   3.719  14.955
51039W        W23354  24.405  36.627  11.718
51040W        W23355   9.362  42.092   2.125
51041W        W23356  16.767  37.236  11.583
51042W        W23357   5.757  40.002  14.383
51043W        W23358  42.922  30.240  11.565
51044W        W23359  34.596  12.274   4.554
51045W        W23360   4.282  43.501  12.413
51046W        W23361  33.532  32.135  12.895
51047W        W23362  17.487  31.008   3.327
51048W        W23363  25.038   9.394   2.266
51049W        W23364   4.249  28.517  14.369
51050W        W23365  39.546  25.146   1.225
51051W        W23366  40.465  42.210   2.350
51052W        W23367  27.898  39.312   3.667
51053W        W23368   5.958  19.812   3.857
51054W        W23369  35.534  20.146  13.617
51055W        W23370   4.576  23.428   3.366
51056W        W23371  34.365  36.075  12.021
51057W        W23372  44.131  11.697  11.947
51058W        W23373   0.825  28.728   9.831
51059W        W23374  22.408  40.565   4.664
51060W        W23375  38.779  32.380  10.426
51061W        W23376  29.418  40.338  12.106
51062W        W23377   8.642   8.342  11.661
51063W        W23378  30.379  16.001   0.767
51064W        W23379  21.193  16.255  14.461
51065W        W23380  24.989  14.696   4.833
51066W        W23381  17.693  43.048  10.702
51067W        W23382  12.922  41.847  13.237
51068W        W23383   7.659  32.642  12.917
51069W        W23384  39.370  32.388   1.776
51070W        W23385  10.303  16.223   0.797
51071W        W23386  20.797  33.076  12.729
51072W        W23387  18.768  41.554   3.557
51073W        W23388  13.148  41.586   4.081
51074W        W23389  37.901   8.742   4.561
51075W        W23390   9.959  11.783  12.915
51076W        W23391   4.360   0.506   4.535
51077W        W23392  14.830  26.786   3.776
51078W        W23393  22.446   6.378  13.479
51079W        W23394  34.906   8.470   1.039
51080W        W23395  21.349  17.609  13.809
51081W        W23396  37.439  10.695   4.625
51082W        W23397  33.147  22.155   2.850
51083W        W23398  24.566  35.361   2.603
51084W        W23399  44.035  27.921  11.566
51085W        W23400  29.441  30.098  13.942
51086W        W23401  18.316  20.628   4.421
51087W        W23402  28.646   8.801  11.543
51088W        W23403   1.802  36.205   4.094
51089W        W23404  19.995  12.269   3.726
51090W        W23405   7.893  16.258   2.302
51091W        W23406  15.433   0.858   2.893
51092W        W23407   4.491  22.541  13.965
51093W        W23408  40.531   0.411  13.714
51094W        W23409  17.274  37.358  11.632
51095W        W23410  24.695   6.143   2.273
51096W        W23411  20.151  19.105  12.807
51097W        W23412  34.428   7.223   1.700
51098W        W23413  42.800  28.130   2.208
51099W        W23414  21.043  25.121  12.631
51100W        W23415  13.774  19.570   2.821
51101W        W23416  32.780  24.530   4.642
51102W        W23417   6.472  10.299   2.334
51103W        W23418  20.010  39.913   5.057
51104W        W23419  41.313  40.236  12.467
51105W        W23420  35.617  24.203  14.837
51106W        W23421   2.242   1.936   4.137
51107W        W23422  21.133   8.672  10.685
51108W        W23423  20.936   2.909   3.779
51109W        W23424  20.547  37.454   4.615
51110W        W23425  41.446  23.108   3.217
51111W        W23426  18.104   4.618  11.569
51112W        W23427   6.829  31.771  10.726
51113W        W23428  41.229   4.750   1.976
51114W        W23429  24.198  20.526   2.361
51115W        W23430  20.749  34.285  14.974
51116W        W23431   6.989  31.111  14.912
51117W        W23432  20.268   1.451  12.314
51118W        W23433  37.340   6.900  10.722
51119W        W23434   9.006  21.149   1.615
51120W        W23435  19.848  42.473  10.563
51121W        W23436  36.849  33.188  10.785
51122W        W23437  12.597  24.504   3.689
51123W        W23438  27.130  12.207   3.693
51124W        W23439  18.603  21.090  11.258
51125W        W23440   1.419  11.291   5.001
51126W        W23441  39.219  10.823   1.959
51127W        W23442  41.312  39.548   0.758
51128W        W23443   6.969   6.609   1.316
51129W        W23444  33.644   6.486  10.219
51130W        W23445  31.529  29.240   1.909
51131W        W23446   2.869  24.186  10.920
51132W        W23447  10.390  32.640  12.497
51133W        W23448   5.247  32.835  13.929
51134W        W23449  41.245  42.962   1.290
51135W        W23450  24.534   1.480   3.856
51136W        W23451   8.710  35.487   1.715
51137W        W23452  21.015  21.783   4.624
51138W        W23453  29.307  25.179   3.799
51139W        W23454  22.791   4.962   0.224
51140W        W23455  42.041  40.321  12.038
51141W        W23456  13.316  30.922   0.220
51142W        W23457  11.570  41.064   3.151
51143W        W23458  13.060   1.016   0.182
51144W        W23459   5.287  18.749   1.773
51145W        W23460  32.144  15.823  11.607
51146W        W23461  24.184   2.015   0.748
51147W        W23462   4.892   6.164   5.075
51148W        W23463  34.458  35.786  13.396
51149W        W23464  35.439  33.829  14.493
51150W        W23465  19.494  17.113   4.889
51151W        W23466  18.678  21.609   0.311
51152W        W23467  34.901  29.614  10.204
51153W        W23468  26.743   8.140  12.687
51154W        W23469  44.681  11.995  13.390
51155W        W23470  13.145  17.849   0.453
51156W        W23471  27.604  16.568  14.140
51157W        W23472  42.471   5.676  12.948
51158W        W23473  32.050   5.136   3.757
51159W        W23474  28.963  32.620  10.131
51160W        W23475  36.252  32.372   4.096
51161W        W23476  21.997  26.443  13.959
51162W        W23477  16.651   4.840   4.833
51163W        W23478  17.546  31.554  11.160
51164W        W23479  17.080  31.799  11.038
51165W        W23480  18.531  38.314  12.767
51166W        W23481  32.962  27.133   0.305
51167W        W23482  32.857  15.212  14.185
51168W        W23483  41.325   6.972   3.950
51169W        W23484  24.479  18.970   0.349
51170W        W23485  34.816  24.673  14.860
51171W        W23486  22.295  25.988   3.281
51172W        W23487  10.562  10.001  11.634
51173W        W23488  13.731   0.393   1.848
51174W        W23489  19.789  43.505  11.589
51175W        W23490  27.165   8.361  12.515
51176W        W23491   3.936  29.153   1.190
51177W        W23492  17.820  18.629   1.431
51178W        W23493  18.143  24.444  11.726
51179W        W23494  23.836  38.532  13.434
51180W        W23495   0.853  21.156   3.614
51181W        W23496  40.714   0.408   1.378
51182W        W23497  33.921  21.581  10.499
51183W        W23498  28.080  44.200   2.088
51184W        W23499  44.366   0.972   4.628
51185W        W23500  34.532   2.293  13.331
51186W        W23501   7.331  28.411  10.654
51187W        W23502  20.158  26.552   2.805
51188W        W23503  17.170  23.510   0.364
51189W        W23504  21.530  15.120  10.595
51190W        W23505  14.288  27.333   4.080
51191W        W23506  39.525   1.923  14.883
51192W        W23507  40.376   7.217   5.460
51193W        W23508  31.727  25.675   5.118
51194W        W23509  10.838   0.452  12.571
51195W        W23510  41.868  32.062  13.244
51196W        W23511  24.639  33.241   2.373
51197W        W23512   8.004  30.427   0.574
51198W        W23513  28.181  29.586   4.483
51199W        W23514   4.660  32.999  12.333
51200W        W23515  33.712  39.479   4.181
51201W        W23516  24.394  37.915   2.893
51202W        W23517  16.746  32.817  11.731
51203W        W23518  28.709  33.310   0.396
51204W        W23519   8.986  28.500  10.590
51205W        W23520   8.952  43.804  10.993
51206W        W23521   0.934  26.959   1.734
51207W        W23522  25.485   3.566   3.773
51208W        W23523  10.310  37.411   3.617
51209W        W23524   8.792  30.703   3.269
51210W        W23525  36.692  12.889  13.056
51211W        W23526  32.949   5.164  13.331
51212W        W23527  22.622  27.422   4.534
51213W        W23528  17.217  38.074   4.628
51214W        W23529   3.892  16.100   3.614
51215W        W23530   3.730   3.964  11.601
51216W        W23531  38.676  39.419   4.657
51217W        W23532   0.949  30.686   1.688
51218W        W23533  25.261  12.349   2.010
51219W        W23534  41.247   3.346  11.229
51220W        W23535  20.349   7.958   0.348
51221W        W23536  38.013  17.431  12.551
51222W        W23537  24.374  22.089   2.181
51223W        W23538  39.473   8.338   0.396
51224W        W23539   5.875  34.546   4.727
51225W        W23540  14.640  24.529   1.547
51226W        W23541  21.817  35.697  11.001
51227W        W23542  11.593  11.154  10.710
51228W        W23543   1.714   9.983   2.721
51229W        W23544   7.710   3.088  12.589
51230W        W23545   3.371  15.068  13.827
51231W        W23546  44.430  25.741   3.927
51232W        W23547  38.591  43.542  14.878
51233W        W23548  29.411  33.837  14.997
51234W        W23549  41.429  38.205  14.974
51235W        W23550  26.644  36.526   0.250
51236W        W23551   9.368  17.181  14.536
51237W        W23552  23.226  19.985  12.448
51238W        W23553   2.448  11.994   0.861
51239W        W23554  43.470  17.958  10.635
51240W        W23555  12.788  19.288   4.287
51241W        W23556  42.359  33.005   2.367
51242W        W23557  14.155  14.133  13.698
51243W        W23558  34.888  13.552   1.834
51244W        W23559  12.277  28.047   3.666
51245W        W23560  14.005  10.181  14.535
51246W        W23561   0.346  13.060   5.081
51247W        W23562  43.075  13.611   1.416
51248W        W23563  15.238   1.929   0.661
51249W        W23564   6.950  34.111   2.247
51250W        W23565   5.940  28.978   4.680
51251W        W23566  22.733  44.052   1.266
51252W        W23567  10.215  29.528  12.116
51253W        W23568  34.413   0.508   1.236
51254W        W23569  31.540  15.146  10.906
51255W        W23570  19.506   8.675   3.438
51256W        W23571  30.645  41.029  11.617
51257W        W23572  42.868  22.173   1.655
51258W        W23573  23.582  30.115   3.308
51259W        W23574  20.140  31.323   1.323
51260W        W23575   3.411  31.821   3.805
51261W        W23576   7.137  32.434   2.228
51262W        W23577  31.406  39.244  13.044
51263W        W23578  40.903   6.966   2.348
51264W        W23579  43.701  42.507  12.474
51265W        W23580   8.772  36.933  14.070
51266W        W23581  26.101  15.641  13.881
51267W        W23582  36.327   0.991  13.832
51268W        W23583  39.999  16.121  10.685
51269W        W23584  32.470  15.984   0.215
51270W        W23585  35.288  15.820   4.788
51271W        W23586  32.916  34.238   3.326
51272W        W23587   2.541  33.812   4.182
51273W        W23588  34.382   3.442   3.643
51274W        W23589  12.695  19.118  13.925
51275W        W23590  12.196   1.961  11.853
51276W        W23591  18.862  15.587   2.909
51277W        W23592  27.422  41.842  14.188
51278W        W23593  42.367  42.003  12.022
51279W        W23594   8.720  20.958  14.885
51280W        W23595   3.184   4.598  12.011
51281W        W23596  19.110  44.476  12.654
51282W        W23597  29.214  14.540   1.317
51283W        W23598  41.779   2.473  12.278
51284W        W23599  16.353  39.519  10.380
51285W        W23600   2.457  30.171  12.501
51286W        W23601  15.767  32.656   4.374
51287W        W23602  23.952  28.160   0.544
51288W        W23603  42.902  19.687  14.178
51289W        W23604  30.957   2.296  12.026
51290W        W23605  19.296  32.569  14.342
51291W        W23606  18.551  27.104   2.294
51292W        W23607  44.860  16.746  11.803
51293W        W23608  27.547  18.740  14.839
51294W        W23609  15.735  26.694  13.975
51295W        W23610   6.430  18.611   1.877
51296W        W23611   9.287   9.367   1.715
51297W        W23612  13.421   5.905   2.678
51298W        W23613  25.298  20.732  12.620
51299W        W23614   2.899  28.711  13.852
51300W        W23615  40.291  22.554   2.892
51301W        W23616  31.896   9.241   1.252
51302W        W23617  27.397  37.915   0.146
51303W        W23618   6.901  27.977   4.806
51304W        W23619   7.366  25.674   1.466
51305W        W23620  34.271  15.570  13.862
51306W        W23621  28.158  40.360   1.994
51307W        W23622  17.496   7.453   2.820
51308W        W23623   5.229  19.760   3.218
51309W        W23624  39.587  25.061  11.505
51310W        W23625  21.074   7.165   4.556
51311W        W23626  29.135  13.085  14.096
51312W        W23627   0.746   3.206   3.862
51313W        W23628  18.063   3.295  14.927
51314W        W23629  40.173   3.405  11.112
51315W        W23630  33.368  21.057   0.070
51316W        W23631   8.286   3.256  13.796
51317W        W23632  18.273  40.000  13.798
51318W        W23633  24.090  12.608   3.130
51319W        W23634  12.282  14.468  12.725
51320W        W23635  16.721   2.012   4.227
51321W        W23636   9.021  40.922   4.169
51322W        W23637  29.555  19.240  10.777
51323W        W23638  20.184  26.613   0.849
51324W        W23639  31.622  35.612   4.049
51325W        W23640  28.578  16.363   0.332
51326W        W23641   9.913   8.278  14.767
51327W        W23642  40.776  39.445   4.245
51328W        W23643  20.223   8.998  14.558
51329W        W23644  20.423  23.994  14.248
51330W        W23645   5.277   7.590   3.429
51331W        W23646   2.956  33.348  11.558
51332W        W23647  14.526   8.092   4.358
51333W        W23648  30.627   5.323   4.028
51334W        W23649  26.594   2.544  11.902
51335W        W23650  15.398  19.636   2.275
51336W        W23651   0.945  23.110  11.983
51337W        W23652  24.207   5.444   2.224
51338W        W23653   7.384   7.817   0.453
51339W        W23654  37.891  25.196  11.129
51340W        W23655  41.856  12.088  10.569
51341W        W23656   5.949   0.741  13.909
51342W        W23657   8.309  29.525  13.910
51343W        W23658  31.546   5.681  13.169
51344W        W23659  15.345   8.883   0.775
51345W        W23660  15.085  19.506  12.683
51346W        W23661   1.095  37.366   3.774
51347W        W23662  33.648  30.431  10.081
51348W        W23663  17.067  41.469   1.879
51349W        W23664  33.177  42.788   4.627
51350W        W23665  41.440  19.949   3.225
51351W        W23666  37.508  12.582   4.044
51352W        W23667  20.255  43.048  12.780
51353W        W23668  22.797  10.653   2.283
51354W        W23669   5.500  38.910   3.968
51355W        W23670  17.153  24.025   4.198
51356W        W23671   9.883  35.535   1.325
51357W        W23672   9.544  14.221  11.669
51358W        W23673  12.593  32.036  14.956
51359W        W23674  17.016  37.810  11.620
51360W        W23675  14.318   9.523  10.923
51361W        W23676  33.033  16.966  10.389
51362W        W23677  31.400  14.861   3.061
51363W        W23678  23.193  23.593  10.465
51364W        W23679  20.809  10.305   1.242
51365W        W23680   1.370  34.580   4.581
51366W        W23681  39.566  31.344  12.406
51367W        W23682  26.018  27.385   4.511
51368W        W23683  19.199  41.294   3.731
51369W        W23684  10.289  42.031   2.315
51370W        W23685  20.195  36.543   1.411
51371W        W23686   3.335   6.562   1.834
51372W        W23687  19.340  15.892  12.717
51373W        W23688  16.238  28.066   1.610
51374W        W23689  18.173  40.579  11.083
51375W        W23690  38.874  28.108   0.451
51376W        W23691  37.695  36.780   0.269
51377W        W23692  42.926  30.384   2.623
51378W        W23693  24.737   0.782  10.666
51379W        W23694  27.578  10.128  12.499
51380W        W23695  36.454  16.414  11.930
51381W        W23696   8.266  12.800   1.792
51382W        W23697   5.381  37.537  14.783
51383W        W23698  17.004  43.441   0.226
51384W        W23699  21.573  35.014   1.000
51385W        W23700  20.229  40.813   4.219
51386W        W23701   7.402  30.524   2.558
51387W        W23702  31.709  44.259   2.305
51388W        W23703  25.257  31.524   2.780
51389W        W23704   5.534   4.819  10.993
51390W        W23705  42.913   2.560   1.448
51391W        W23706  27.688  16.337   1.259
51392W        W23707   4.210  13.136   2.347
51393W        W23708  24.646   7.918   0.803
51394W        W23709  19.693   2.660   0.783
51395W        W23710  12.655  16.268  10.567
51396W        W23711  34.949  20.677  12.666
51397W        W23712  22.560   1.920   4.667
51398W        W23713  35.144  42.479   3.283
51399W        W23714  35.466  36.892   1.033
51400W        W23715   5.601  39.122  14.314
51401W        W23716   7.270  20.129  13.100
51402W        W23717  39.903  17.369  14.559
51403W        W23718  17.608  40.447  13.937
51404W        W23719  24.523  37.477   1.347
51405W        W23720  42.946  33.149  12.356
51406W        W23721  16.595  27.727   3.749
51407W        W23722  41.963   8.766   0.913
51408W        W23723  20.279  42.714  14.658
51409W        W23724   2.792  12.069   3.377
51410W        W23725  27.660  40.744  14.807
51411W        W23726  41.909  40.200   4.352
51412W        W23727   6.428  15.599   2.028
51413W        W23728  26.121  26.892  13.666
51414W        W23729  15.834  36.215  14.206
51415W        W23730  16.664  30.504  12.590
51416W        W23731  42.549  36.382   2.189
51417W        W23732  14.912   6.712  13.918
51418W        W23733  43.702  16.323  13.815
51419W        W23734  16.863   8.708  10.275
51420W        W23735  34.118  42.808   1.809
51421W        W23736  28.440   6.730   3.374
51422W        W23737   7.200   6.304  14.389
51423W        W23738  17.681  41.319   0.086
51424W        W23739   4.772  44.766  13.087
51425W        W23740  32.117  27.034   4.343
51426W        W23741  32.037  26.002   0.063
51427W        W23742  39.727   0.399   4.066
51428W        W23743   4.038  28.098  12.042
51429W        W23744  23.339  40.444  14.915
51430W        W23745   9.885   5.497   0.686
51431W        W23746   9.728   2.849  12.189
51432W        W23747  16.754  17.450  11.300
51433W        W23748  13.058  28.066  12.736
51434W        W23749  12.968  35.864   4.857
51435W        W23750  40.415   1.672  14.564
51436W        W23751   0.696   3.564   4.863
51437W        W23752  15.593   3.727  14.434
51438W        W23753  36.340   2.519  12.982
51439W        W23754   0.000  39.398   3.240
51440W        W23755   0.929  22.297  14.797
51441W        W23756  28.171  14.784  10.867
51442W        W23757   7.642  24.609  13.192
51443W        W23758   5.382  25.428  10.721
51444W        W23759  30.857  12.869   1.229
51445W        W23760  31.100  37.886  14.074
51446W        W23761  34.014  42.163   2.982
51447W        W23762  40.327  17.282  11.127
51448W        W23763  38.822  23.688   1.033
51449W        W23764  43.738  15.237  14.759
51450W        W23765  25.210  36.454  12.916
51451W        W23766   3.232  18.662  14.085
51452W        W23767  27.970  42.004   4.372
51453W        W23768  42.749  29.695  13.407
51454W        W23769  19.345  28.744  11.121
51455W        W23770  13.142  43.839  14.113
51456W        W23771  31.701  31.137  13.331
51457W        W23772  38.650  22.162  12.999
51458W        W23773  18.304  21.698   3.746
51459W        W23774  33.440  35.955   2.702
51460W        W23775   0.015  36.612   5.149
51461W        W23776  26.118  12.331  12.352
51462W        W23777  20.164  25.783   1.162
51463W        W23778  10.771  38.487   4.212
51464W        W23779  13.516  23.517   4.153
51465W        W23780  11.419  37.859  12.184
51466W        W23781  11.761  32.186   3.678
51467W        W23782  41.359   5.980  12.890
51468W        W23783  13.061   4.231  12.099
51469W        W23784  36.910   6.203  14.948
51470W        W23785  28.599  16.659  12.900
51471W        W23786   7.349  43.958   3.424
51472W        W23787  24.986  22.947  12.513
51473W        W23788   6.711  41.891  11.138
51474W        W23789  18.497   1.717  10.894
51475W        W23790  40.251  41.002   3.288
51476W        W23791  30.690  23.229  12.407
51477W        W23792  24.728   4.293  12.216
51478W        W23793   4.637  30.028   0.273
51479W        W23794  42.903  38.416  12.057
51480W        W23795  29.101  27.038   2.723
51481W        W23796  16.618   2.634  14.938
51482W        W23797  15.094  36.308  11.247
51483W        W23798  27.726  25.446   4.363
51484W        W23799  38.130   5.717   1.198
51485W        W23800  37.506   6.902  12.512
51486W        W23801  23.609  22.813   9.977
51487W        W23802   9.892   5.476   3.688
51488W        W23803  17.120  35.981   3.423
51489W        W23804  15.205   2.232  10.469
51490W        W23805  33.950  42.304   0.359
51491W        W23806  22.694  41.310  10.386
51492W        W23807  12.738  32.339   2.011
51493W        W23808  12.588   6.182  14.060
51494W        W23809  38.515   4.209  12.444
51495W        W23810  13.368   4.795  13.347
51496W        W23811  39.358  41.450  10.743
51497W        W23812   9.117  22.804  10.984
51498W        W23813  17.053  15.860  12.729
51499W        W23814  36.148  44.535   1.311
51500W        W23815  34.158  23.047  13.371
51501W        W23816  14.787  26.848  12.480
51502W        W23817  35.166  44.551   0.825
51503W        W23818   0.754  41.103   2.327
51504W        W23819  42.174  27.205  12.355
51505W        W23820  39.869  39.304  13.479
51506W        W23821  15.539  30.198  13.530
51507W        W23822  12.105  24.247   2.290
51508W        W23823   0.314   8.209   0.878
51509W        W23824  21.596  19.223  11.941
51510W        W23825  34.619  43.409   0.765
51511W        W23826  43.543  44.998  13.991
51512W        W23827  41.798  13.086  14.083
51513W        W23828  24.171  21.482  11.129
51514W        W23829   4.856  36.995   2.392
51515W        W23830   2.242  32.892  11.131
51516W        W23831  13.641  43.865  14.987
51517W        W23832   9.354  28.844  10.782
51518W        W23833  13.763  17.596  10.680
51519W        W23834  39.466  15.012   4.206
51520W        W23835  35.728  12.810  10.650
51521W        W23836   5.394  15.838  11.177
51522W        W23837  44.439  19.080   1.454
51523W        W23838  28.238  34.176   0.915
51524W        W23839  36.269  32.256  13.007
51525W        W23840  37.557  30.491  14.293
51526W        W23841  20.453  18.544   2.672
51527W        W23842  11.624  29.480   1.341
51528W        W23843  18.449   7.294   2.741
51529W        W23844   8.818  17.167   2.390
51530W        W23845  38.027  32.925  12.801
51531W        W23846  26.022   1.950  11.719
51532W        W23847  12.329   8.364  14.794
51533W        W23848  22.062  38.387  10.708
51534W        W23849  14.186  20.768   0.833
51535W        W23850  35.406  13.087  13.493
51536W        W23851  30.968  43.418   4.648
51537W        W23852  31.557  23.722  11.255
51538W        W23853  22.606  30.420   1.640
51539W        W23854  28.755  39.806   1.650
51540W        W23855   0.897  34.558   0.750
51541W        W23856   3.004  27.579   0.452
51542W        W23857  28.914  28.116   2.049
51543W        W23858  43.466  33.623   0.407
51544W        W23859   6.692   6.193   2.781
51545W        W23860  40.712  40.306   3.674
51546W        W23861   7.687  39.245  13.698
51547W        W23862  39.336   0.763   4.102
51548W        W23863  43.280   4.911  14.421
51549W        W23864   7.236   2.868   3.625
51550W        W23865  26.565  14.353   1.653
51551W        W23866  36.826  11.243   2.325
51552W        W23867  44.412  20.276  14.435
51553W        W23868   6.198  42.274  13.967
51554W        W23869  30.792   6.761   4.027
51555W        W23870  15.182   8.077  12.547
51556W        W23871   8.305  27.452  14.510
51557W        W23872  31.959  20.080   4.553
51558W        W23873  40.219  14.741   0.920
51559W        W23874  34.622  11.677  14.929
51560W        W23875   3.358   4.147  13.588
51561W        W23876  21.685  37.616  14.315
51562W        W23877   7.276  23.075  14.715
51563W        W23878  20.727  33.319   2.255
51564W        W23879  32.995  24.871   2.435
51565W        W23880  15.529  28.054   4.367
51566W        W23881  13.632   3.786  11.711
51567W        W23882  39.019  10.795  14.579
51568W        W23883   0.125  30.051   4.859
51569W        W23884  25.414  32.475  13.938
51570W        W23885  18.525  11.398  10.001
51571W        W23886  39.468   7.429  12.450
51572W        W23887  29.122  34.461  12.787
51573W        W23888  18.878  38.488   2.858
51574W        W23889  41.306  35.109   1.380
51575W        W23890  37.889  40.038   0.993
51576W        W23891  30.581  35.437   1.277
51577W        W23892  37.545  14.100  14.382
51578W        W23893   0.275  18.441   0.367
51579W        W23894  44.843  23.324  11.264
51580W        W23895  33.105  28.099  12.852
51581W        W23896   7.004  27.567  10.738
51582W        W23897  29.504   9.876  10.720
51583W        W23898  10.657   3.853  11.199
51584W        W23899  41.128  17.624  11.160
51585W        W23900   2.398  22.291  12.084
51586W        W23901  14.083   0.756   4.132
51587W        W23902  36.865  39.753  13.344
51588W        W23903   1.416  19.694  10.364
51589W        W23904  37.800   3.230  14.877
51590W        W23905  33.505  26.739   9.857
51591W        W23906   7.027   8.363   2.838
51592W        W23907  20.657  32.530   1.779
51593W        W23908  28.474   3.639   1.824
51594W        W23909  34.415  43.884   3.803
51595W        W23910  11.250  34.928   0.093
51596W        W23911   5.958  22.509  13.041
51597W        W23912   0.576  27.472  12.846
51598W        W23913  21.500   4.052   3.314
51599W        W23914   9.746   9.211  11.046
51600W        W23915  24.174  33.874  14.965
51601W        W23916  13.705  36.187   2.150
51602W        W23917  39.326  30.641   2.761
51603W        W23918  11.045  22.064  12.442
51604W        W23919  44.782  37.616  12.499
51605W        W23920  15.198  22.748  12.370
51606W        W23921  10.977   7.292  14.890
51607W        W23922  42.546  26.994  11.054
51608W        W23923  26.166   6.126  13.243
51609W        W23924  24.346  41.353   2.735
51610W        W23925  11.230  16.875   1.377
51611W        W23926  32.922  33.382   3.875
51612W        W23927  36.367  43.800  13.357
51613W        W23928  18.823  19.838   0.988
51614W        W23929   1.860   7.433  14.446
51615W        W23930   4.717  38.360  13.812
51616W        W23931  38.909  35.152  13.120
51617W        W23932  37.080   1.969   4.150
51618W        W23933  43.807  41.603  14.376
51619W        W23934  13.676  23.229   0.224
51620W        W23935  16.758  30.477   1.322
51621W        W23936  17.066  17.097   1.670
51622W        W23937   0.170   4.787  13.279
51623W        W23938   4.196   8.897  13.910
51624W        W23939   2.216  31.038  10.728
51625W        W23940  18.262  25.502   4.479
51626W        W23941  42.272  30.699  12.452
51627W        W23942   5.444   5.105   0.954
51628W        W23943   2.112  43.982  14.052
51629W        W23944   0.862  27.478   1.747
51630W        W23945   0.644  36.588  10.643
51631W        W23946  16.887  22.502  10.112
51632W        W23947   2.753   6.306   4.456
51633W        W23948  16.164   9.951  13.305
51634W        W23949   9.899  20.973  11.409
51635W        W23950  32.905  15.336   3.397
51636W        W23951   9.360   4.932   0.946
51637W        W23952  11.312  25.674   3.792
51638W        W23953  40.506  33.938   3.742
51639W        W23954  34.413   7.819   2.223
51640W        W23955  26.685  18.190   1.192
51641W        W23956   0.557   9.859  13.340
51642W        W23957  32.594  22.083   1.983
51643W        W23958  12.044  11.402  11.428
51644W        W23959  36.243  33.910   2.383
51645W        W23960  22.999   2.377  12.107
51646W        W23961  38.162   1.866   4.162
51647W        W23962   9.379  30.609  10.770
51648W        W23963  29.852  30.986  14.954
51649W        W23964  37.174  29.841  10.591
51650W        W23965  16.626  40.499   3.583
51651W        W23966  34.646   0.960   4.435
51652W        W23967  13.670  38.593   3.727
51653W        W23968   1.997  10.904  14.823
51654W        W23969  13.534   2.405   2.721
51655W        W23970  17.950  23.955   2.277
51656W        W23971  29.843   3.442  13.527
51657W        W23972   8.160  13.904  11.615
51658W        W23973  14.706  21.164  11.897
51659W        W23974  11.588  36.422   1.441
51660W        W23975  39.844   2.346   1.698
51661W        W23976  15.241  25.896  13.356
51662W        W23977  11.081   1.278   4.534
51663W        W23978  11.861   3.218   5.123
51664W        W23979  23.442  27.506  10.647
51665W        W23980   7.001   8.890   4.301
51666W        W23981  33.561   7.649   4.982
51667W        W23982  15.367  31.482  13.768
51668W        W23983   1.864  19.204   4.297
51669W        W23984  34.235  12.210  10.717
51670W        W23985  21.752  28.891  12.092
51671W        W23986   9.745  33.578   4.678
51672W        W23987  26.541  15.504   3.687
51673W        W23988  15.347  10.195   3.597
51674W        W23989  12.598   9.904  12.317
51675W        W23990  30.400  17.092   3.755
51676W        W23991   0.179  14.759  11.680
51677W        W23992  31.014  35.542   4.607
51678W        W23993  31.601  23.668   1.639
51679W        W23994  17.586  30.674  14.407
51680W        W23995   4.738  37.548   0.288
51681W        W23996  41.129  26.684   0.916
51682W        W23997  35.514  27.588  12.465
51683W        W23998  28.720  42.808  12.946
51684W        W23999  16.047  42.859   2.388
51685W        W24000   7.660  31.646  10.389
51686W        W24001   6.708  26.063   4.394
51687W        W24002  37.370  18.523   4.360
51688W        W24003  29.408  36.358  10.640
51689W        W24004  35.191   8.036   0.863
51690W        W24005  11.393  10.811   4.523
51691W        W24006  24.230  29.077   1.828
51692W        W24007  10.260  41.036  11.019
51693W        W24008  44.079   9.924  12.454
51694W        W24009   4.392  16.200   3.714
51695W        W24010  28.290  13.542   1.633
51696W        W24011  12.393   7.660   3.680
51697W        W24012  28.603  27.930   4.150
51698W        W24013   7.984  15.826  13.864
51699W        W24014  17.975  39.331   2.799
51700W        W24015  16.376  32.436  13.694
51701W        W24016  24.224  10.395   1.333
51702W        W24017  15.166  33.576   3.604
51703W        W24018   1.915   5.994   0.381
51704W        W24019  32.868  39.524   0.475
51705W        W24020  23.206  14.342   4.534
51706W        W24021  35.052  43.954  12.572
51707W        W24022   7.633  35.395   3.306
51708W        W24023  28.731   2.294   4.093
51709W        W24024  32.687   4.172  12.387
51710W        W24025  39.062  25.708   4.140
51711W        W24026  32.382  24.381   0.815
51712W        W24027  10.600  36.086   0.539
51713W        W24028  25.999  43.283  11.113
51714W        W24029   8.405   6.363  13.842
51715W        W24030  26.911   6.703  11.531
51716W        W24031  38.936  11.865   3.092
51717W        W24032  16.434  16.549  14.404
51718W        W24033  24.647  19.577   3.183
51719W        W24034   7.748  41.121  12.982
51720W        W24035  11.301   0.385  14.773
51721W        W24036  39.231  36.666  14.415
51722W        W24037   8.406  28.171   3.411
51723W        W24038  27.514  26.105  12.076
51724W        W24039  37.645  36.988  11.877
51725W        W24040  20.243  15.116   3.279
51726W        W24041  26.987   5.253   3.405
51727W        W24042  32.850   3.760  10.975
51728W        W24043  28.656  27.972   2.860
51729W        W24044  41.190  17.308   3.220
51730W        W24045   9.232  18.995   4.064
51731W        W24046  11.204  13.798   2.782
51732W        W24047  22.039  18.123   1.685
51733W        W24048  20.578   9.058  10.153
51734W        W24049  16.993  16.128  11.426
51735W        W24050  11.823  21.980  12.029
51736W        W24051  14.104  44.482  11.581
51737W        W24052  23.504  30.496   1.203
51738W        W24053  43.507  40.959   1.374
51739W        W24054  38.969  26.962   3.617
51740W        W24055  21.225  38.247  14.967
51741W        W24056   9.237  26.605  12.070
51742W        W24057  14.990  17.607   3.638
51743W        W24058  17.708  18.935   4.769
51744W        W24059  15.083  41.390  14.624
51745W        W24060  14.245  40.414   5.113
51746W        W24061   4.465  23.007   2.787
51747W        W24062  26.069  21.278  12.975
51748W        W24063   7.407   4.443  11.116
51749W        W24064  19.312  20.674  11.056
51750W        W24065   2.276  14.418  11.019
51751W        W24066  29.021  13.798  14.976
51752W        W24067  22.113  38.520   2.006
51753W        W24068  34.565  19.047   1.772
51754W        W24069  14.036   9.402  12.979
51755W        W24070  25.502  16.809  12.989
51756W        W24071  31.712   5.719   4.474
51757W        W24072  21.500  31.613   4.253
51758W        W24073  41.447  32.149   2.715
51759W        W24074  19.453  24.488   3.647
51760W        W24075  43.473  13.182  12.610
51761W        W24076  21.708   7.351  10.588
51762W        W24077  10.340  12.158  12.977
51763W        W24078  18.021   5.874   2.332
51764W        W24079  40.524  17.060  11.568
51765W        W24080  40.502   2.953  11.134
51766W        W24081   3.662  43.883  10.482
51767W        W24082  20.703  29.617  14.054
51768W        W24083   8.203  40.363   1.235
51769W        W24084  28.711  16.064  13.439
51770W        W24085  17.664  29.318   2.349
51771W        W24086   6.280   0.810  11.271
51772W        W24087  21.030   2.719   0.761
51773W        W24088  43.516  19.812   3.525
51774W        W24089  12.286  36.855  14.071
51775W        W24090  24.472  28.121  11.170
51776W        W24091  18.552  11.612  13.520
51777W        W24092   6.271  44.674   1.020
51778W        W24093   6.775  22.257  11.226
51779W        W24094   9.984  11.771  12.036
51780W        W24095  29.245  26.805  11.566
51781W        W24096  40.063   1.915  14.961
51782W        W24097   3.352  17.809  11.044
51783W        W24098   2.961  41.877   0.174
51784W        W24099  13.842  37.166  14.248
51785W        W24100  39.090  33.517  14.672
51786W        W24101  22.456   6.771   4.584
51787W        W24102  39.803   5.309   0.231
51788W        W24103  24.148  21.810   9.582
51789W        W24104  20.234  40.086  14.695
51790W        W24105  11.734   6.470   1.618
51791W        W24106  24.789  24.932  13.006
51792W        W24107  26.165  42.268  14.323
51793W        W24108  26.693  32.090  14.935
51794W        W24109  37.118  19.403   0.838
51795W        W24110  42.090  42.926  11.793
51796W        W24111   8.363  39.458   1.377
51797W        W24112   2.776  21.351   4.117
51798W        W24113  24.931   3.184   2.341
51799W        W24114  17.010  29.874   4.135
51800W        W24115  20.072  14.274   1.734
51801W        W24116  35.765  12.755  12.595
51802W        W24117   5.382   8.572  10.573
51803W        W24118  43.320   7.821  10.625
51804W        W24119  30.365  16.701  12.587
51805W        W24120  34.884   3.475  14.780
51806W        W24121  14.287  19.550   3.725
51807W        W24122  33.973  28.344  12.489
51808W        W24123  14.236  33.940  11.193
51809W        W24124  33.177  28.450   4.592
51810W        W24125  26.863  34.609  11.585
51811W        W24126  10.271  20.284   3.547
51812W        W24127  18.104   8.606  11.026
51813W        W24128  26.656   4.405   1.455
51814W        W24129  40.034   8.166  13.298
51815W        W24130  38.388  43.531   2.326
51816W        W24131  12.380  30.677   2.698
51817W        W24132  11.210  10.335   3.719
51818W        W24133  10.185  24.726  12.524
51819W        W24134  24.834  28.751  11.134
51820W        W24135  20.064  15.815  11.983
51821W        W24136  25.533  29.110   1.489
51822W        W24137  35.096  17.749  12.242
51823W        W24138  43.025  16.706   4.120
51824W        W24139   0.366  23.504  12.230
51825W        W24140   3.718  20.506   1.040
51826W        W24141  36.045  23.023   4.266
51827W        W24142  24.424  23.189  14.924
51828W        W24143  26.611  18.173  11.635
51829W        W24144  44.493  23.584  12.150
51830W        W24145  22.679  16.632  12.320
51831W        W24146  16.796   5.837  12.013
51832W        W24147  24.550  17.663   2.091
51833W        W24148  37.600  38.558  12.056
51834W        W24149  36.828   8.694  10.683
51835W        W24150  42.571  17.981  13.317
51836W        W24151  13.421  43.260   4.775
51837W        W24152  33.922   5.296  13.400
51838W        W24153   8.347  27.346   1.829
51839W        W24154  43.526  16.154   3.668
51840W        W24155  36.183  33.954   3.287
51841W        W24156  31.969   7.391   1.254
51842W        W24157   7.825  17.356   5.006
51843W        W24158  15.809  42.918   3.684
51844W        W24159   6.582  14.066  12.099
51845W        W24160   8.167   1.189   0.878
51846W        W24161  21.810  35.408  12.443
51847W        W24162  40.213   0.439   2.214
51848W        W24163  36.183  40.774  11.815
51849W        W24164   2.912   1.781   4.688
51850W        W24165  11.655   9.763   3.201
51851W        W24166  23.691   7.377  12.887
51852W        W24167  29.667   4.433  12.741
51853W        W24168  22.664   5.403   4.633
51854W        W24169  17.218   6.205   4.381
51855W        W24170  21.477  34.205   2.325
51856W        W24171  23.328  10.376   3.229
51857W        W24172  24.653   1.812   2.034
51858W        W24173   8.317  39.886  10.690
51859W        W24174   1.484  28.484   4.137
51860W        W24175  22.098  14.549   2.498
51861W        W24176  16.417  16.506  12.616
51862W        W24177  28.545  18.561   3.253
51863W        W24178  20.994  12.590  13.362
51864W        W24179  11.935  24.225   0.374
51865W        W24180  38.415  19.277   3.613
51866W        W24181  27.958  33.025  13.307
51867W        W24182  13.856  40.312   2.154
51868W        W24183   1.570  38.057  11.554
51869W        W24184  14.018  25.540   0.620
51870W        W24185  27.925   6.012  13.973
51871W        W24186  27.399  24.462  10.745
51872W        W24187  43.042  31.220  14.286
51873W        W24188   7.310  29.999  14.263
51874W        W24189  10.176  18.565  13.037
51875W        W24190  25.373  31.522  13.843
51876W        W24191  18.667  23.091  11.181
51877W        W24192  38.524   9.276   3.405
51878W        W24193  10.983  15.222  14.860
51879W        W24194   7.136   1.879   4.631
51880W        W24195  42.687  44.835   1.638
51881W        W24196  11.718  41.650   4.636
51882W        W24197  10.855  38.080   0.756
51883W        W24198  14.733  39.438  13.462
51884W        W24199   3.346  12.755   1.796
51885W        W24200  34.066   5.450   4.527
51886W        W24201  36.965  24.241  13.995
51887W        W24202  40.632   1.835  13.667
51888W        W24203  29.610  18.416   1.397
51889W        W24204  18.584  12.839  12.123
51890W        W24205  33.728  31.674  13.841
51891W        W24206  31.595  40.892   0.517
51892W        W24207  42.615  34.476  11.464
51893W        W24208   3.828  34.457   3.098
51894W        W24209   8.695  17.981   2.687
51895W        W24210  17.695  23.901   3.409
51896W        W24211  10.775  30.866   0.596
51897W        W24212  38.114  25.096   4.534
51898W        W24213  18.703  22.813   4.252
51899W        W24214  16.552  36.001  11.597
51900W        W24215   1.702  38.025   0.049
51901W        W24216  12.878   0.965   0.662
51902W        W24217  32.831  31.458   4.082
51903W        W24218  36.178  25.126  12.614
51904W        W24219   7.135  40.055   1.206
51905W        W24220  13.309   8.591  11.534
51906W        W24221  29.039  32.218  11.084
51907W        W24222  23.511  34.097  12.007
51908W        W24223   2.483  32.403  13.386
51909W        W24224  37.090   8.657   0.595
51910W        W24225  20.252  24.644  13.024
51911W        W24226  37.350   0.793  12.064
51912W        W24227  18.649  25.188   1.722
51913W        W24228  17.534   8.873   3.606
51914W        W24229  37.906  25.564  12.383
51915W        W24230  44.293  15.881  14.383
51916W        W24231  23.013   8.673  14.875
51917W        W24232  32.199   4.524   1.457
51918W        W24233  17.854   6.798   2.849
51919W        W24234  23.839   7.260  14.901
51920W        W24235   4.909  18.763   4.365
51921W        W24236  13.821  24.543   3.349
51922W        W24237  28.960  24.313   3.401
51923W        W24238   3.268   0.962  14.401
51924W        W24239   7.107  39.327  10.812
51925W        W24240  14.845  31.183  14.289
51926W        W24241   9.435  24.762  11.016
51927W        W24242   8.428  13.994  13.905
51928W        W24243   2.799  41.057   2.782
51929W        W24244  18.025  13.285   3.259
51930W        W24245  43.978  39.437  11.414
51931W        W24246  32.851  13.713  12.034
51932W        W24247  41.995  14.579   2.334
51933W        W24248   7.857  14.304   4.124
51934W        W24249  24.666  12.063   2.680
51935W        W24250  33.356  41.576  13.937
51936W        W24251  22.283   8.408   0.719
51937W        W24252  12.949  14.764  10.661
51938W        W24253   2.438   4.367  14.900
51939W        W24254  16.696  21.803  12.631
51940W        W24255  23.530  38.110  13.445
51941W        W24256   5.693  14.546   3.454
51942W        W24257  42.657  25.162  10.276
51943W        W24258   5.135  35.946  13.064
51944W        W24259   8.743  14.125  11.108
51945W        W24260  16.648  43.305  12.038
51946W        W24261  12.783   7.437   1.328
51947W        W24262  29.681  37.935  12.854
51948W        W24263  43.984  40.826   0.639
51949W        W24264   1.312  14.229  12.891
51950W        W24265  40.843  32.091   0.354
51951W        W24266  11.383   8.122  14.941
51952W        W24267  28.059   5.694  12.650
51953W        W24268   7.237  12.899  14.907
51954W        W24269  34.514   3.989   2.912
51955W        W24270  27.906  15.615  10.728
51956W        W24271  35.373  31.180  11.964
51957W        W24272  12.069  31.068  12.412
51958W        W24273  43.775  38.073  12.036
51959W        W24274  35.766  25.529  11.048
51960W        W24275  20.888  18.438   3.695
51961W        W24276  32.852  36.805   4.146
51962W        W24277  17.005  12.926  11.149
51963W        W24278   5.867  38.887  11.474
51964W        W24279  11.595   3.732  11.585
51965W        W24280  16.273  28.432   5.338
51966W        W24281  38.091  18.875  10.984
51967W        W24282  24.605  21.636  10.911
51968W        W24283  42.614  12.158   4.226
51969W        W24284  34.695   6.120  11.104
51970W        W24285  19.224   2.395  11.586
51971W        W24286  17.724  27.961   5.548
51972W        W24287  12.672   1.818  13.852
51973W        W24288  34.739  36.332   0.972
51974W        W24289  36.196  43.109   1.362
51975W        W24290  35.847  24.083  11.179
51976W        W24291  11.620  25.531   4.941
51977W        W24292  41.279  14.127  12.154
51978W        W24293  31.883  25.202   0.288
51979W        W24294   5.172  27.052   3.291
51980W        W24295   1.708  24.240  13.808
51981W        W24296  30.753  10.682  12.639
51982W        W24297   4.168  44.766   4.063
51983W        W24298  36.558  23.000  12.500
51984W        W24299  21.340  17.280  14.480
51985W        W24300  13.647  13.250   0.806
51986W        W24301  38.434   0.845   4.381
51987W        W24302  13.070  22.248   1.983
51988W        W24303  30.034  24.855  14.474
51989W        W24304  28.761  23.491   0.762
51990W        W24305  36.615  40.556  13.590
51991W        W24306   3.361  24.123   0.061
51992W        W24307  33.213   3.236   4.204
51993W        W24308  19.689  16.286   4.557
51994W        W24309  26.084  22.150   4.076
51995W        W24310  38.331  26.811   1.477
51996W        W24311  14.862   1.714  12.827
51997W        W24312  27.885   2.209   0.878
51998W        W24313  11.600  17.161   5.001
51999W        W24314  10.907  27.949  14.740
52000W        W24315  14.749  38.022   0.821
52001W        W24316  38.581  16.536   2.248
52002W        W24317  39.714  31.005   2.736
52003W        W24318  19.086   4.891  13.271
52004W        W24319   0.077  43.912  14.861
52005W        W24320  10.447  13.333   3.198
52006W        W24321  29.990   3.810   1.254
52007W        W24322  35.463  22.501  14.413
52008W        W24323  19.244  20.470  13.132
52009W        W24324   7.275  43.177   3.024
52010W        W24325   4.325  44.922  13.882
52011W        W24326   8.460  36.699   2.185
52012W        W24327  10.415  37.850   0.855
52013W        W24328  27.412  11.153  14.651
52014W        W24329  40.774  10.972   4.509
52015W        W24330  20.052   6.969   2.113
52016W        W24331  23.677  13.705   4.569
52017W        W24332  27.169  13.951  13.042
52018W        W24333  38.847  15.906  14.859
52019W        W24334  35.537  25.273   1.241
52020W        W24335   1.433   6.602  14.662
52021W        W24336  31.160  14.750   1.201
52022W        W24337  30.019  40.999   0.688
52023W        W24338  32.173  25.637   0.471
52024W        W24339   1.252  19.028  11.031
52025W        W24340   1.752  19.043  11.062
52026W        W24341  24.645  15.861   2.723
52027W        W24342  16.626  30.133   3.293
52028W        W24343  14.413   8.148   4.860
52029W        W24344  34.480  34.898  12.587
52030W        W24345  30.474  36.551   5.040
52031W        W24346  22.027   7.423   3.651
52032W        W24347  33.579  34.397  12.452
52033W        W24348  14.840   5.416  10.996
52034W        W24349   1.290  31.646   3.323
52035W        W24350  21.956  13.825  12.564
52036W        W24351  19.530   7.468   0.725
52037W        W24352   1.454  38.475   2.336
52038W        W24353   0.360  35.235   3.574
52039W        W24354  17.028  15.522  13.698
52040W        W24355   4.936  41.697   5.067
52041W        W24356   0.708  13.730  10.446
52042W        W24357  42.394  44.962   2.853
52043W        W24358  10.683  29.391  10.517
52044W        W24359  38.104  43.370  14.986
52045W        W24360  25.414  44.463   5.046
52046W        W24361   8.665   9.666   0.764
52047W        W24362   8.728  16.189   3.225
52048W        W24363  27.514  16.889  14.521
52049W        W24364  11.653  12.574  12.012
52050W        W24365  33.141  42.876   1.344
52051W        W24366   1.029   3.880  12.933
52052W        W24367  26.523  10.654   0.771
52053W        W24368  21.967  17.076  10.668
52054W        W24369  10.701  36.882   3.301
52055W        W24370   8.463  34.182  14.195
52056W        W24371  16.008  28.056   2.593
52057W        W24372  42.432  24.698   1.621
52058W        W24373   9.576  43.860   2.448
52059W        W24374  36.973  12.880   1.234
52060W        W24375   5.580  11.795  11.189
52061W        W24376  10.630  20.419  14.277
52062W        W24377  28.479   6.721   9.414
52063W        W24378  14.518   6.748   1.414
52064W        W24379  10.690   1.301   4.158
52065W        W24380   0.278  19.596   1.712
52066W        W24381  22.668   1.718  13.970
52067W        W24382  31.642  22.371   3.116
52068W        W24383  39.893  27.234  10.583
52069W        W24384  37.916   3.710  14.217
52070W        W24385   9.373  16.689   1.902
52071W        W24386   2.008  33.046   3.211
52072W        W24387   6.629  26.963  14.821
52073W        W24388   4.895  12.907   1.264
52074W        W24389   2.859   9.728  11.499
52075W        W24390  42.218   5.319  12.587
52076W        W24391  42.562  25.869   3.123
52077W        W24392  27.930  27.190   4.632
52078W        W24393   9.801  11.765   3.664
52079W        W24394  35.800   2.319   3.674
52080W        W24395  24.629  10.615   1.881
52081W        W24396  41.500  25.984   3.165
52082W        W24397  16.862  29.650  13.806
52083W        W24398   6.167   9.763  13.962
52084W        W24399   4.000  28.628  12.095
52085W        W24400  18.331  42.785   4.550
52086W        W24401  44.504  15.665   2.388
52087W        W24402  42.244  37.507   3.626
52088W        W24403  39.074  22.544  14.385
52089W        W24404  32.914  26.049  11.606
52090W        W24405  28.068  16.310  14.891
52091W        W24406  39.289   4.800  11.312
52092W        W24407  12.456  31.870   0.662
52093W        W24408  32.975   0.747  11.374
52094W        W24409  15.600  28.448   2.384
52095W        W24410  33.051  41.575   1.249
52096W        W24411  14.227  37.021   2.820
52097W        W24412  43.736  16.129  10.394
52098W        W24413  10.625   0.327   1.758
52099W        W24414  43.942  40.736   2.061
52100W        W24415  22.984  18.078   1.210
52101W        W24416  38.961  35.079   1.763
52102W        W24417  34.014  36.915   2.676
52103W        W24418   4.973   0.658  11.154
52104W        W24419  12.502  29.620   4.591
52105W        W24420  14.530  33.300  12.423
52106W        W24421  12.846  14.037   2.480
52107W        W24422   6.993  21.073   3.562
52108W        W24423  14.035  12.580   1.028
52109W        W24424  28.004  19.038   2.408
52110W        W24425  37.467   9.642   1.940
52111W        W24426  27.788   3.567  10.355
52112W        W24427  25.857  36.976   0.838
52113W        W24428  19.049   9.971   0.524
52114W        W24429  27.552  17.242  11.430
52115W        W24430  34.072  12.769  11.976
52116W        W24431   7.499  17.674   3.384
52117W        W24432  41.053  34.559  12.476
52118W        W24433  17.993  43.303  14.632
52119W        W24434  26.038  11.757   1.815
52120W        W24435  13.853  20.817  13.422
52121W        W24436  25.702  11.810   1.269
52122W        W24437  29.824  13.798   0.808
52123W        W24438  34.015  24.240   3.733
52124W        W24439  19.004   8.908  11.161
52125W        W24440   9.456  12.617   3.911
52126W        W24441  42.452  43.235   4.038
52127W        W24442  29.643  13.060  12.215
52128W        W24443  22.208  25.522   1.127
52129W        W24444   4.954   9.815   4.698
52130W        W24445   5.389  43.228   3.330
52131W        W24446  19.804   8.828  11.575
52132W        W24447  19.600  38.758  12.053
52133W        W24448  20.121   1.703   2.139
52134W        W24449  15.646   0.500  14.935
52135W        W24450  28.628  27.400   0.830
52136W        W24451  18.284  13.266  11.414
52137W        W24452  26.774  17.827  14.049
52138W        W24453  37.771  41.117   4.947
52139W        W24454  33.201  28.648  12.046
52140W        W24455  19.537   1.743   4.313
52141W        W24456  15.881  19.889   4.149
52142W        W24457  21.700  17.083   4.131
52143W        W24458  35.425  10.909  14.026
52144W        W24459  30.625  25.435   0.888
52145W        W24460  16.198   6.439  13.894
52146W        W24461  25.588  19.743   1.472
52147W        W24462  35.976  28.183  14.304
52148W        W24463  35.099  27.136  14.058
52149W        W24464  19.170  37.028  12.985
52150W        W24465  27.943   9.899   1.953
52151W        W24466  11.119   4.378  13.423
52152W        W24467  44.829  13.702   4.571
52153W        W24468  42.514  32.107  13.905
52154W        W24469  43.302  20.723   1.166
52155W        W24470   8.733  41.475  13.389
52156W        W24471  33.566  37.259  12.602
52157W        W24472   1.168  30.539  12.502
52158W        W24473   6.792   4.389   0.913
52159W        W24474  33.340  26.707   1.524
52160W        W24475   5.512  43.404   0.441
52161W        W24476  21.019  19.844  10.094
52162W        W24477  25.244  22.697   4.125
52163W        W24478   5.572  28.265  13.955
52164W        W24479  33.507  21.795   2.781
52165W        W24480  37.064   8.234   0.257
52166W        W24481  19.161  17.770  14.224
52167W        W24482   8.574  10.912  11.146
52168W        W24483  31.838  43.463   0.336
52169W        W24484  18.811  38.030   1.324
52170W        W24485   3.184  40.913   3.191
52171W        W24486  38.266  41.545  11.556
52172W        W24487  41.149  37.477  13.622
52173W        W24488  27.412   5.388  13.632
52174W        W24489  32.352  11.849  11.828
52175W        W24490  34.134  43.508   3.212
52176W        W24491  34.549  22.569   4.648
52177W        W24492  35.078  29.359   3.692
52178W        W24493  17.516   7.393  10.652
52179W        W24494  12.199   4.108   3.762
52180W        W24495  35.050  19.239  14.840
52181W        W24496  12.906  12.278  14.102
52182W        W24497  23.847  40.471  11.630
52183W        W24498  38.069   5.380   4.634
52184W        W24499  23.496  32.743  11.623
52185W        W24500  25.115  31.893   3.363
52186W        W24501  44.212  12.683  13.975
52187W        W24502   4.971   3.370   0.207
52188W        W24503  30.216  23.541   0.803
52189W        W24504  17.323  27.690   5.106
52190W        W24505  11.626  11.640  13.911
52191W        W24506  12.890  40.814  14.279
52192W        W24507  41.417  20.171  10.888
52193W        W24508   6.308  18.278  14.832
52194W        W24509  29.839   6.821  10.740
52195W        W24510  34.017   2.235  12.446
52196W        W24511  18.154  29.146   3.158
52197W        W24512  37.284   9.811  11.237
52198W        W24513  11.281  44.755   4.194
52199W        W24514  35.696  36.257  13.189
52200W        W24515  21.566  40.950   3.768
52201W        W24516  31.856  42.922  11.256
52202W        W24517  25.405  31.401   0.365
52203W        W24518  38.865  24.777  13.499
52204W        W24519  43.420  27.981  13.199
52205W        W24520  38.963  40.398   0.326
52206W        W24521  43.972  40.071  12.878
52207W        W24522  20.270  13.440   4.233
52208W        W24523  31.418  37.806   1.558
52209W        W24524  38.281  28.991   0.840
52210W        W24525  18.977  36.350   1.998
52211W        W24526  20.732  29.181   3.288
52212W        W24527  33.750  16.101   3.662
52213W        W24528  27.957   9.624  10.627
52214W        W24529   0.905  38.984   3.036
52215W        W24530   7.312  13.193   3.870
52216W        W24531  43.188  38.356   4.876
52217W        W24532  17.078   4.687  13.356
52218W        W24533  40.249  13.507  12.511
52219W        W24534  37.425   2.926   4.140
52220W        W24535  39.374   8.477   1.931
52221W        W24536  10.647  10.297  14.755
52222W        W24537  16.564  16.869   4.595
52223W        W24538  42.890   8.146   0.359
52224W        W24539  12.787  28.053   3.524
52225W        W24540  38.663  31.474   3.121
52226W        W24541  43.920  30.752  11.620
52227W        W24542  10.187  25.089   3.158
52228W        W24543  18.651   2.226   1.695
52229W        W24544  11.227  36.946  13.314
52230W        W24545  15.927  31.533   0.250
52231W        W24546  18.342   5.851  13.802
52232W        W24547  14.726  42.931   5.030
52233W        W24548  13.394   2.012  12.506
52234W        W24549  10.258  15.764   4.217
52235W        W24550   7.380  10.942   3.808
52236W        W24551  24.145  10.504  14.319
52237W        W24552  25.367  42.485  13.067
52238W        W24553  23.710  40.539   4.653
52239W        W24554  19.383  36.316  11.923
52240W        W24555  42.315   6.222   0.441
52241W        W24556  13.837  29.590   1.561
52242W        W24557  29.520  30.015  10.488
52243W        W24558   1.679  30.280   3.236
52244W        W24559   8.413   8.346   2.909
52245W        W24560  17.509  19.194   3.859
52246W        W24561  38.978  38.527   1.679
52247W        W24562   7.910  44.314   0.506
52248W        W24563  26.955  37.018   2.801
52249W        W24564   1.501   0.274   1.788
52250W        W24565   2.303   3.301   0.906
52251W        W24566  26.618  28.023  14.437
52252W        W24567  27.996  25.450   1.849
52253W        W24568  24.485  34.560  11.125
52254W        W24569  14.134  34.863   1.412
52255W        W24570   0.229  10.003   1.375
52256W        W24571  36.740   4.214   4.196
52257W        W24572  26.004   6.935   2.402
52258W        W24573  16.876  34.453   1.736
52259W        W24574   3.014   1.774  11.564
52260W        W24575  37.104  37.352   3.127
52261W        W24576  18.419  22.042   2.054
52262W        W24577  39.040   5.640  12.445
52263W        W24578  35.406   9.379  11.046
52264W        W24579  34.140   2.241  10.725
52265W        W24580  43.110  38.233   1.866
52266W        W24581  44.449   3.326  11.511
52267W        W24582  25.891  33.850  10.466
52268W        W24583   7.391  27.553   3.621
52269W        W24584  26.602   9.274  13.364
52270W        W24585  42.403  23.697  14.895
52271W        W24586  42.790  14.759   1.721
52272W        W24587  13.523  32.854  14.848
52273W        W24588  34.902  40.761  13.296
52274W        W24589  25.700  18.215  11.060
52275W        W24590  42.817   0.711  14.389
52276W        W24591  22.480   9.344   1.743
52277W        W24592  25.967   8.128  13.382
52278W        W24593   5.455  35.189  11.595
52279W        W24594  33.323   5.906   2.448
52280W        W24595  31.051  24.204  10.822
52281W        W24596  13.655  35.471   4.892
52282W        W24597  15.006  35.026   4.571
52283W        W24598  40.920   8.062   3.053
52284W        W24599  31.160  36.920  14.504
52285W        W24600  42.437  36.607  12.622
52286W        W24601  11.611  43.040   0.398
52287W        W24602  10.026   2.014  10.413
52288W        W24603   9.058   2.337  13.790
52289W        W24604  15.288   6.197   3.800
52290W        W24605  31.352   6.698  10.581
52291W        W24606  41.360  24.218   4.128
52292W        W24607   0.365  23.419  10.716
52293W        W24608  26.927  39.384   2.011
52294W        W24609  26.000  41.867  11.543
52295W        W24610   2.908  39.445  13.729
52296W        W24611  40.364  16.749  13.017
52297W        W24612  34.141   5.898   0.952
52298W        W24613  27.221  15.272  14.380
52299W        W24614   6.426   2.979  12.102
52300W        W24615  29.469  37.565   5.091
52301W        W24616   4.265   0.270   4.094
52302W        W24617  35.433  11.832   0.191
52303W        W24618   6.517  32.580   0.491
52304W        W24619  32.991  15.586   4.076
52305W        W24620  21.157  21.991   5.082
52306W        W24621  36.452   4.706  10.576
52307W        W24622  39.602  12.880  11.207
52308W        W24623  12.388   2.293   2.920
52309W        W24624  15.597  10.503   1.349
52310W        W24625  19.991  23.569  13.325
52311W        W24626  34.309  16.493  13.070
52312W        W24627  28.557   8.252   4.683
52313W        W24628   6.784   1.745   1.293
52314W        W24629  19.607  43.572   3.668
52315W        W24630  21.212  36.701  11.980
52316W        W24631   2.658  43.617  12.872
52317W        W24632  15.554  12.369  10.991
52318W        W24633  12.173   8.398   2.992
52319W        W24634  28.175  35.965   1.955
52320W        W24635  24.519  44.396  12.597
52321W        W24636  39.045  29.276   3.811
52322W        W24637  13.522  23.905   1.402
52323W        W24638   6.165  32.069   4.503
52324W        W24639  33.425   0.452  11.559
52325W        W24640  25.021  19.820  10.328
52326W        W24641   0.317  17.894   1.140
52327W        W24642  13.696  17.174   0.888
52328W        W24643  33.122   4.793  11.971
52329W        W24644  27.457  21.657  12.942
52330W        W24645  21.829  33.743  13.782
52331W        W24646  28.154   1.481  14.841
52332W        W24647  15.328   9.376  11.029
52333W        W24648  33.581  33.844   3.694
52334W        W24649  35.089  24.491  14.435
52335W        W24650  19.054  11.314   3.709
52336W        W24651  44.231  11.420  13.748
52337W        W24652  37.441  15.495   5.027
52338W        W24653  20.221  39.086  13.805
52339W        W24654  25.712   6.679  12.548
52340W        W24655   2.112  39.828  13.355
52341W        W24656  30.532  37.251   1.943
52342W        W24657  31.409  21.448  10.154
52343W        W24658  18.805  27.550  12.417
52344W        W24659  34.410   7.933  11.624
52345W        W24660  15.878  13.878  12.991
52346W        W24661   7.742   6.393  12.295
52347W        W24662  37.268   6.261   5.005
52348W        W24663  32.684  13.271  11.142
52349W        W24664  36.658  15.394  14.708
52350W        W24665   4.588   5.280   0.715
52351W        W24666   9.363  40.006  12.164
52352W        W24667  35.486  33.923   1.055
52353W        W24668  28.957   8.047   0.775
52354W        W24669  22.241  44.452   0.362
52355W        W24670  40.143   0.129   1.795
52356W        W24671  19.493  34.094  12.945
52357W        W24672  22.527  22.490  12.301
52358W        W24673  29.679   5.746  13.496
52359W        W24674  26.610  28.228  13.030
52360W        W24675   6.186  31.916   0.727
52361W        W24676  23.880  21.756   1.426
52362W        W24677   7.482  41.268  10.456
52363W        W24678  16.758  29.189  12.110
52364W        W24679  24.217  27.674  11.112
52365W        W24680  36.005  28.107   4.459
52366W        W24681  21.718  20.726  13.384
52367W        W24682  32.734  28.014   3.197
52368W        W24683  34.968  18.087  14.225
52369W        W24684  39.879  44.545   2.664
52370W        W24685  27.451   6.116   3.733
52371W        W24686  32.935  22.174   4.299
52372W        W24687  44.765  24.584   0.328
52373W        W24688  19.822   5.232  13.609
52374W        W24689  37.525  15.356   0.045
52375W        W24690  34.759  20.942   0.787
52376W        W24691  33.624  17.008   4.795
52377W        W24692  21.125  41.472  11.331
52378W        W24693  16.895  34.475  14.771
52379W        W24694  20.002   1.744  14.422
52380W        W24695  22.422  23.658  11.703
52381W        W24696  15.078  36.534  12.613
52382W        W24697  20.665   5.490  12.178
52383W        W24698  40.535  33.092  10.739
52384W        W24699  38.192  39.540  12.628
52385W        W24700  34.039  13.568   0.052
52386W        W24701  21.197  37.021   3.327
52387W        W24702  37.900  37.986   2.645
52388W        W24703  34.109   0.380  14.054
52389W        W24704  23.634  36.332   0.829
52390W        W24705  17.484  29.004  10.911
52391W        W24706  27.110   3.316  10.396
52392W        W24707  18.031  35.645  12.508
52393W        W24708   5.380  40.099  11.040
52394W        W24709  10.348  11.550   2.908
52395W        W24710   8.098  26.978   3.603
52396W        W24711  24.798  23.030   0.749
52397W        W24712  38.068  16.280   4.200
52398W        W24713  12.120  19.774   0.474
52399W        W24714  11.313  26.154  10.712
52400W        W24715   8.295  30.383  12.852
52401W        W24716  35.072  36.171   0.552
52402W        W24717  44.430  10.619  13.499
52403W        W24718  11.181  40.072   2.274
52404W        W24719  17.139   0.829   0.731
52405W        W24720   4.492  23.008  12.859
52406W        W24721   1.623  10.768  10.100
52407W        W24722  38.068  36.554  11.819
52408W        W24723  33.457  29.878   0.277
52409W        W24724   3.389   5.601   1.356
52410W        W24725  44.858  18.810   2.760
52411W        W24726  33.350   0.824   2.922
52412W        W24727  34.853  32.142  14.492
52413W        W24728  10.287  20.999  12.837
52414W        W24729   8.123  43.685   3.217
52415W        W24730   7.371  29.283   1.482
52416W        W24731  13.893  20.765   1.342
52417W        W24732   0.886  33.579  12.125
52418W        W24733  15.050  21.144  14.485
52419W        W24734  13.560  42.704  11.326
52420W        W24735  28.111  35.338   2.789
52421W        W24736  14.026  41.882   3.608
52422W        W24737  38.920   0.906   3.170
52423W        W24738  42.951  39.372   0.091
52424W        W24739  29.124  20.795   1.845
52425W        W24740   8.828  40.537   1.837
52426W        W24741  11.794   9.176   3.624
52427W        W24742  41.104  43.097   0.775
52428W        W24743   5.378  32.890  13.043
52429W        W24744  40.468  19.483   3.254
52430W        W24745  24.785  12.233   2.194
52431W        W24746  10.836  30.448   0.929
52432W        W24747  42.868  14.289  13.388
52433W        W24748  36.920  16.399  14.537
52434W        W24749   5.261  29.134  12.860
52435W        W24750  23.698  19.792  14.558
52436W        W24751  18.749   9.343   2.954
52437W        W24752  43.711  20.680  11.787
52438W        W24753   2.361   7.529  13.934
52439W        W24754  43.122  25.235  11.129
52440W        W24755  44.049  34.232  13.497
52441W        W24756  15.007  37.526   0.438
52442W        W24757   3.805  33.457  12.496
52443W        W24758  10.735  29.037   2.653
52444W        W24759  38.847  22.214   1.076
52445W        W24760  44.321  10.753   3.717
52446W        W24761  28.072   9.223   3.877
52447W        W24762  16.608  40.407  13.023
52448W        W24763  42.917  15.780   4.192
52449W        W24764  38.791  18.624  13.301
52450W        W24765   3.340  43.908   0.742
52451W        W24766  21.713   3.457   1.770
52452W        W24767  41.560  20.142   0.799
52453W        W24768   4.433  27.528   1.306
52454W        W24769  15.385   9.884  12.997
52455W        W24770  19.067   3.000   2.444
52456W        W24771   2.980  22.256   1.426
52457W        W24772  14.864  35.944   1.746
52458W        W24773  15.363  25.399   1.034
52459W        W24774  37.892   7.415  14.421
52460W        W24775  37.872  29.667  14.752
52461W        W24776  43.882  42.514   3.844
52462W        W24777   8.329  27.660   1.382
52463W        W24778   8.482  18.254  13.978
52464W        W24779  29.415  24.301  13.156
52465W        W24780  10.385  20.115  12.290
52466W        W24781  38.270   5.462   4.122
52467W        W24782   9.331  33.107   3.275
52468W        W24783  13.852  44.778  13.861
52469W        W24784  16.358  24.580   3.879
52470W        W24785  35.602  26.377   0.054
52471W        W24786  25.029  25.064   0.781
52472W        W24787  10.198  41.304   4.584
52473W        W24788   3.880   9.153   0.879
52474W        W24789  33.540   2.568   0.800
52475W        W24790  20.423  15.777   2.744
52476W        W24791   1.889  39.327   0.905
52477W        W24792   2.074  15.808  14.513
52478W        W24793  25.166  30.379   0.305
52479W        W24794   4.347  23.076  14.728
52480W        W24795   1.348  32.976   4.677
52481W        W24796  41.150  43.772   0.678
52482W        W24797   2.171  15.229  12.138
52483W        W24798  18.800  43.407  14.320
52484W        W24799   8.344  34.552   3.334
52485W        W24800  21.488  30.849  13.841
52486W        W24801  17.846  30.761   2.065
52487W        W24802  29.042  26.377  14.270
52488W        W24803  21.706  42.217   2.661
52489W        W24804   3.976  38.056  14.313
52490W        W24805   7.239   2.490   3.245
52491W        W24806  27.429  36.743   4.221
52492W        W24807  32.970  15.789   0.283
52493W        W24808  10.776  22.149   2.210
52494W        W24809  31.526  13.563  10.491
52495W        W24810  39.638  37.992   2.816
52496W        W24811   9.303  12.766  14.464
52497W        W24812  16.251  44.092  14.775
52498W        W24813  33.875  28.561   3.389
52499W        W24814  32.190  22.462  13.887
52500W        W24815  22.667   5.372   3.202
52501W        W24816  41.150  35.945  14.308
52502W        W24817  28.413  15.222  13.983
52503W        W24818  17.065  14.722  13.235
52504W        W24819  21.801  24.061  13.346
52505W        W24820  33.827  11.103   0.844
52506W        W24821  40.799  35.599  11.744
52507W        W24822  38.248  39.064  12.452
52508W        W24823   4.377  14.387   0.769
52509W        W24824   0.400   3.182  10.604
52510W        W24825  20.783  44.910  11.463
52511W        W24826   7.521  12.179   3.618
52512W        W24827  34.803   0.729  13.772
52513W        W24828  32.668  24.219   1.205
52514W        W24829  19.756  39.555  14.301
52515W        W24830   5.312  23.167   2.862
52516W        W24831  27.437   5.887   2.740
52517W        W24832  37.035  23.643  12.674
52518W        W24833  21.781  32.626   3.619
52519W        W24834  32.416  25.676   4.291
52520W        W24835  23.613  21.575   1.864
52521W        W24836   9.624   1.972   3.753
52522W        W24837  40.337  18.684  13.574
52523W        W24838  19.777  22.636  12.518
52524W        W24839  36.146   3.695  14.210
52525W        W24840   6.712  37.532  12.500
52526W        W24841  21.996  15.129   1.844
52527W        W24842  23.611  19.106   3.036
52528W        W24843   8.234   6.952   3.225
52529W        W24844  32.934  43.876   4.642
52530W        W24845  38.453   4.671  14.924
52531W        W24846  10.692  23.365  12.580
52532W        W24847  40.195   3.873   1.924
52533W        W24848  15.149  41.937   1.779
52534W        W24849  20.723  31.103  10.636
52535W        W24850   5.890   5.956  10.837
52536W        W24851  10.859   3.150   4.165
52537W        W24852  25.623   8.677  13.903
52538W        W24853  20.580  29.995   3.705
52539W        W24854  29.746   0.955  12.956
52540W        W24855  31.728  35.353   4.469
52541W        W24856   9.107  34.533   2.839
52542W        W24857  17.619  38.633   4.002
52543W        W24858  42.604  33.264   1.181
52544W        W24859  36.234  42.016  12.904
52545W        W24860  43.018   2.971   2.338
52546W        W24861  38.994   5.300  10.701
52547W        W24862  27.081   5.570   2.967
52548W        W24863   3.045  44.731  14.474
52549W        W24864  29.579  26.095   4.239
52550W        W24865   3.925  22.082  12.569
52551W        W24866  26.579   2.648   3.615
52552W        W24867   3.614  28.695  10.617
52553W        W24868  42.253   4.670   1.802
52554W        W24869   2.411  20.190   3.593
52555W        W24870   0.576   7.104  14.936
52556W        W24871  24.098  14.920   4.668
52557W        W24872  37.625  33.614   0.034
52558W        W24873  29.468  28.144  10.717
52559W        W24874  16.247  38.603  10.657
52560W        W24875   4.301  38.362   4.648
52561W        W24876   0.644  18.782   0.830
52562W        W24877  40.721  37.940  12.538
52563W        W24878  22.655  30.410  13.933
52564W        W24879  19.046  34.038   0.387
52565W        W24880  37.511  44.461   1.429
52566W        W24881  20.115   5.222   3.117
52567W        W24882  41.457  19.075  12.673
52568W        W24883   3.971  19.156  13.499
52569W        W24884  26.364  10.689  13.332
52570W        W24885  34.838  23.723  13.027
52571W        W24886   5.479  43.887  13.106
52572W        W24887   9.124  40.317   3.188
52573W        W24888   4.442  14.921   4.054
52574W        W24889  38.602  31.563  12.457
52575W        W24890  25.988  33.474  10.826
52576W        W24891   0.382   9.762   3.856
52577W        W24892  15.191  23.184   2.697
52578W        W24893  36.918   8.266   2.782
52579W        W24894  17.140   4.166   1.764
52580W        W24895  34.821  15.517   1.799
52581W        W24896  42.240   7.792  10.340
52582W        W24897  17.691  28.272   0.550
52583W        W24898  25.227  28.087  14.852
52584W        W24899  44.870  32.356   0.054
52585W        W24900  21.069  32.972   0.744
52586W        W24901  14.296  33.466   0.289
52587W        W24902   3.630  11.413  11.982
52588W        W24903  29.245  18.553   0.314
52589W        W24904  31.095   5.461  13.024
52590W        W24905  23.565   9.114   4.179
52591W        W24906   7.349  31.918  10.700
52592W        W24907  37.769   4.430  10.353
52593W        W24908  35.081  32.056   3.228
52594W        W24909  12.481  33.024  14.525
52595W        W24910  33.794  33.462  11.965
52596W        W24911   2.135  22.973   4.666
52597W        W24912   3.738  10.288   0.605
52598W        W24913  22.023   3.863  10.930
52599W        W24914  35.493  17.052   0.428
52600W        W24915  10.707  29.973   2.280
52601W        W24916  26.234  44.289  10.939
52602W        W24917  33.175  31.156   0.285
52603W        W24918  24.178  22.347  14.761
52604W        W24919  39.962  41.914   2.840
52605W        W24920  40.373  18.782   4.540
52606W        W24921  24.275   9.462   3.703
52607W        W24922  11.196   9.193  14.947
52608W        W24923   2.948  10.669   2.944
52609W        W24924  13.219  26.232   3.439
52610W        W24925  23.634  35.043  13.581
52611W        W24926   3.266  12.289   2.425
52612W        W24927  22.158  38.749  14.882
52613W        W24928  31.379   3.812  13.411
52614W        W24929   0.759   2.363   4.511
52615W        W24930  43.320   4.393   1.285
52616W        W24931  27.003  21.212  14.896
52617W        W24932  33.717  32.632  12.575
52618W        W24933   5.913  33.082   0.012
52619W        W24934  16.055  33.823   2.319
52620W        W24935  42.415   7.837   3.849
52621W        W24936  10.351  14.364   4.118
52622W        W24937  22.571  35.959   1.199
52623W        W24938  19.944  37.594  10.936
52624W        W24939  17.832  34.466  12.380
52625W        W24940  33.420  10.786  14.895
52626W        W24941  19.612  36.953   1.490
52627W        W24942   7.861  19.120   3.388
52628W        W24943   2.712  12.868  13.937
52629W        W24944  19.718  37.003   0.009
52630W        W24945  14.013  33.504   2.749
52631W        W24946  10.861  44.008  12.681
52632W        W24947  39.340  28.236  13.996
52633W        W24948  16.512  28.841  10.728
52634W        W24949  26.974  34.017   4.952
52635W        W24950  36.945  44.073  10.923
52636W        W24951  33.070  23.144   0.662
52637W        W24952  43.242  22.034   2.820
52638W        W24953  13.326  15.273   0.444
52639W        W24954  24.971  35.458  12.024
52640W        W24955  23.914  42.360  12.443
52641W        W24956  41.966  43.457  11.566
52642W        W24957  28.166  18.281   0.809
52643W        W24958  14.779  42.033   0.902
52644W        W24959  16.446  24.379  11.480
52645W        W24960   1.457   7.547  11.892
52646W        W24961  33.337  12.646  11.146
52647W        W24962  36.152  26.632   1.787
52648W        W24963   5.780  27.472  14.823
52649W        W24964  22.286  18.313  11.032
52650W        W24965  25.972  22.108   0.448
52651W        W24966  33.972  18.491  11.647
52652W        W24967  12.024  34.325  14.539
52653W        W24968  27.923   1.892  11.252
52654W        W24969   8.596  24.634   4.916
52655W        W24970  35.917  40.194   0.056
52656W        W24971   4.051  40.274   0.689
52657W        W24972  18.284  43.360  14.224
52658W        W24973  25.921  34.113   3.313
52659W        W24974  44.358  38.952  10.430
52660W        W24975  28.120  44.365  14.404
52661W        W24976  29.367   5.267   4.733
52662W        W24977   4.694  40.527  10.731
52663W        W24978  44.606  29.122   4.530
52664W        W24979  26.707  18.268  10.248
52665W        W24980  37.129   8.065  14.274
52666W        W24981   8.910  13.798  14.061
52667W        W24982  33.116   7.940  12.279
52668W        W24983  29.967  34.023  11.191
52669W        W24984   0.244  22.695  12.954
52670W        W24985  25.161  41.238  11.135
52671W        W24986  12.933  22.532   3.222
52672W        W24987  17.610   6.643   2.391
52673W        W24988  34.596  27.774  10.925
52674W        W24989  36.931  27.171   2.603
52675W        W24990   8.898  16.327  13.934
52676W        W24991  15.493  19.178  12.097
52677W        W24992  19.191  24.297   2.861
52678W        W24993  33.570  31.915  14.273
52679W        W24994  26.586  37.056  13.909
52680W        W24995  43.262  16.810  14.008
52681W        W24996  34.181   1.934   2.660
52682W        W24997  29.547   3.175  14.053
52683W        W24998  38.485  41.294  14.296
52684W        W24999   3.836  24.596   4.506
52685W        W25000  27.536   1.948   4.480
52686W        W25001  26.173  30.156   3.674
52687W        W25002   2.473  36.547  14.804
52688W        W25003  14.751  26.312   4.029
52689W        W25004   3.691  35.528   4.452
52690W        W25005  40.011  13.409   2.141
52691W        W25006  17.821   8.671   3.215
52692W        W25007  35.704  37.304  12.821
52693W        W25008   4.297   0.923   1.384
52694W        W25009  31.479  17.403   0.204
52695W        W25010  11.201  13.852   1.320
52696W        W25011  17.477  17.176  13.865
52697W        W25012  36.814  40.521  14.071
52698W        W25013   4.722  14.205   0.440
52699W        W25014  29.537   7.284   0.645
52700W        W25015  30.260  42.454   3.337
52701W        W25016  24.167  21.551  10.136
52702W        W25017  42.534  18.484   4.447
52703W        W25018  27.410  41.060  13.550
52704W        W25019  12.215   6.430  13.414
52705W        W25020  20.825   0.988   1.942
52706W        W25021  30.568  11.118  14.892
52707W        W25022  12.931  30.522   2.407
52708W        W25023  33.572  32.542   1.627
52709W        W25024  18.561  19.607   0.030
52710W        W25025  31.700  40.841  11.922
52711W        W25026  40.977  29.625   3.729
52712W        W25027  18.817  16.103   0.955
52713W        W25028  34.582   6.219  14.098
52714W        W25029  38.643  17.581   2.521
52715W        W25030  44.540  23.963  13.210
52716W        W25031   8.693  25.305  13.855
52717W        W25032   7.693  21.646  13.993
52718W        W25033  19.534   9.685  10.585
52719W        W25034  44.633   8.135  14.587
52720W        W25035   0.364  21.205  11.634
52721W        W25036  24.312   6.112  10.635
52722W        W25037  18.083  40.424   1.814
52723W        W25038  32.172  32.189   1.771
52724W        W25039  32.111  15.224   3.821
52725W        W25040   7.333  37.863   1.863
52726W        W25041  38.291  18.144  13.900
52727W        W25042  33.031   1.013   4.642
52728W        W25043  27.873  26.266   4.692
52729W        W25044  21.155  39.054   2.149
52730W        W25045  12.817  14.971  14.502
52731W        W25046  31.002  11.510   1.861
52732W        W25047  32.008  17.574  14.491
52733W        W25048  42.771  17.632  12.987
52734W        W25049  36.518  44.345   4.432
52735W        W25050  21.309  38.969   3.709
52736W        W25051  21.709  36.617   2.174
52737W        W25052   2.152  41.428   1.346
52738W        W25053  17.473  40.899   0.371
52739W        W25054   8.300  34.917  14.761
52740W        W25055  34.155   7.170  13.360
52741W        W25056  10.199  33.055  13.407
52742W        W25057  28.430   9.400  13.493
52743W        W25058  18.387  23.618  11.349
52744W        W25059  11.129  19.722   2.652
52745W        W25060  20.256  17.384  11.115
52746W        W25061  26.161  44.503  11.410
52747W        W25062   0.969   4.932   0.434
52748W        W25063  18.519  36.606  14.081
52749W        W25064  31.057  23.102  13.809
52750W        W25065  35.491  23.821   4.302
52751W        W25066  14.093   4.694  12.839
52752W        W25067  22.082  18.457   3.158
52753W        W25068  31.083   4.750  13.738
52754W        W25069  44.006  19.815  12.454
52755W        W25070  34.956  16.217   4.632
52756W        W25071  33.059  29.534   3.685
52757W        W25072  12.327  31.900  12.360
52758W        W25073   0.456  14.081   2.536
52759W        W25074  32.964   7.791   0.494
52760W        W25075  17.019  35.286   2.710
52761W        W25076   8.217  38.923   4.087
52762W        W25077  18.515  29.903   1.260
52763W        W25078  20.761  22.983   1.797
52764W        W25079  25.487  30.497   4.110
52765W        W25080  42.384  43.956   1.253
52766W        W25081  10.861  15.561  12.681
52767W        W25082  29.892  21.016  11.147
52768W        W25083  28.160  44.625  12.113
52769W        W25084  32.691  19.948  13.577
52770W        W25085  36.999  40.234  13.353
52771W        W25086  20.199  16.137  10.658
52772W        W25087  17.231  10.146  13.046
52773W        W25088  35.817  43.393  12.418
52774W        W25089  40.241  14.637   2.559
52775W        W25090  43.294  12.699   4.461
52776W        W25091  18.583  18.200  12.898
52777W        W25092  13.121  27.965  13.920
52778W        W25093   6.141  26.472   2.947
52779W        W25094   4.254  22.007   4.110
52780W        W25095  12.526  42.137  11.868
52781W        W25096  12.733  33.935  14.015
52782W        W25097  38.404  28.150  13.916
52783W        W25098  10.297  23.087  12.420
52784W        W25099   0.486  35.959   4.988
52785W        W25100  38.432  44.055  14.815
52786W        W25101  26.093   2.409  11.965
52787W        W25102  42.839  11.152   4.401
52788W        W25103  21.563   5.947  13.360
52789W        W25104  28.645   6.887   0.225
52790W        W25105  23.483  44.423  14.693
52791W        W25106  44.490  33.472   3.343
52792W        W25107  19.811  25.879   2.150
52793W        W25108  36.616  42.329   2.700
52794W        W25109   7.205  18.728   2.311
52795W        W25110   7.818  25.240   3.723
52796W        W25111   7.769  22.032   4.841
52797W        W25112  44.564  27.131  13.672
52798W        W25113  31.022  36.370  13.717
52799W        W25114   1.972  16.198   0.396
52800W        W25115  43.405  35.345   1.805
52801W        W25116   1.719  15.590   2.252
52802W        W25117  18.548   0.700   1.941
52803W        W25118  30.493  21.115  14.908
52804W        W25119  27.610  33.806   4.089
52805W        W25120  30.560   9.027  13.522
52806W        W25121  40.861  37.760   4.249
52807W        W25122  30.027  14.595   0.499
52808W        W25123   6.912  32.844   0.287
52809W        W25124  15.320  16.688   2.496
52810W        W25125   1.421  37.159  13.469
52811W        W25126  18.190  36.460   2.573
52812W        W25127  24.602  14.825  12.500
52813W        W25128  38.564  42.385  11.107
52814W        W25129  39.785  19.819   4.348
52815W        W25130   8.358  32.677  12.383
52816W        W25131   2.443   9.482  12.277
52817W        W25132  38.991  14.133   1.555
52818W        W25133   3.915   3.206  11.112
52819W        W25134   4.378  16.403   4.209
52820W        W25135  30.107   5.753   1.949
52821W        W25136  29.977  18.519  11.810
52822W        W25137  14.195  31.572  11.894
52823W        W25138  25.226  27.112  14.743
52824W        W25139  24.826  22.492  13.178
52825W        W25140  10.004  44.906  10.569
52826W        W25141  30.163  43.735  12.637
52827W        W25142  22.837  20.053  10.284
52828W        W25143  29.490  14.919  13.364
52829W        W25144  33.561  20.869   3.187
52830W        W25145  26.772  42.852  14.454
52831W        W25146   4.689   1.254  12.376
52832W        W25147  31.879  28.233  12.172
52833W        W25148  13.074   9.920   3.183
52834W        W25149   5.896  30.136  10.443
52835W        W25150  17.888   3.425  12.205
52836W        W25151  25.418  38.594   3.257
52837W        W25152  11.692  37.556  12.870
52838W        W25153   2.147   1.365   2.213
52839W        W25154   0.397  39.452  13.839
52840W        W25155  32.701  32.056  13.917
52841W        W25156   3.466  27.877  11.884
52842W        W25157  33.597  12.237  11.338
52843W        W25158   9.758  37.167  13.580
52844W        W25159  40.299  28.445   4.875
52845W        W25160  13.332  21.756   1.286
52846W        W25161  30.602   2.278  11.671
52847W        W25162  19.677  31.630  14.597
52848W        W25163  30.904   6.475  13.019
52849W        W25164   1.869  22.331  12.501
52850W        W25165  44.830  27.076   3.096
52851W        W25166   1.357  38.861   1.282
52852W        W25167  25.154  38.148   0.828
52853W        W25168   8.846  38.056   0.713
52854W        W25169  41.590  32.290  11.491
52855W        W25170   7.646  17.320   4.129
52856W        W25171  16.626   3.675  12.599
52857W        W25172  13.978  11.611  11.549
52858W        W25173  44.793  42.761  11.544
52859W        W25174  17.431  33.815  14.981
52860W        W25175  22.106  24.720  13.431
52861W        W25176  33.931   7.641   2.156
52862W        W25177  38.554  42.048   4.193
52863W        W25178  43.951  12.380   5.577
52864W        W25179  29.603  28.047   2.521
52865W        W25180  40.852   5.572   2.148
52866W        W25181  42.977  38.176  12.507
52867W        W25182   5.139   7.209  14.273
52868W        W25183   4.327  29.869   2.736
52869W        W25184  42.108  19.594   1.236
52870W        W25185  43.910   6.950   3.224
52871W        W25186  37.327  26.932  11.504
52872W        W25187  22.784  42.955  11.755
52873W        W25188  10.215  23.115   1.639
52874W        W25189   0.506  31.865   1.092
52875W        W25190   9.384  30.536   4.592
52876W        W25191  12.579   3.599  10.688
52877W        W25192  21.753   1.805   1.672
52878W        W25193  37.956  35.942   4.460
52879W        W25194  16.673  21.926   0.758
52880W        W25195  28.327   3.476   3.195
52881W        W25196  32.188  24.091  11.928
52882W        W25197  15.201  38.242   3.216
52883W        W25198   4.388  10.634   4.131
52884W        W25199  39.046  22.708  10.662
52885W        W25200   6.095  13.191   0.923
52886W        W25201  20.599  17.742   4.076
52887W        W25202  13.841   2.434  14.001
52888W        W25203  44.422   6.493   0.802
52889W        W25204  10.157  18.042   4.485
52890W        W25205  29.121  21.279   1.716
52891W        W25206  41.589  10.749  12.516
52892W        W25207   5.353  28.169   2.570
52893W        W25208  16.104  37.084   1.893
52894W        W25209  10.280  38.364   2.686
52895W        W25210  43.113  43.168   4.187
52896W        W25211  42.541  38.745  10.560
52897W        W25212  12.844   6.125  11.730
52898W        W25213  35.356  40.986  13.139
52899W        W25214  10.253  41.096   2.680
52900W        W25215  29.238   3.423   0.337
52901W        W25216  31.547   3.795   1.316
52902W        W25217  42.480  25.551   0.213
52903W        W25218  27.144  25.720  14.859
52904W        W25219  38.931  41.801  10.962
52905W        W25220   4.026  27.193  10.664
52906W        W25221  21.936   2.766   0.386
52907W        W25222  27.570  24.256  12.944
52908W        W25223  33.817  37.341  14.593
52909W        W25224  25.372  23.153   4.572
52910W        W25225  24.778  10.145   4.825
52911W        W25226  30.883  33.178  13.357
52912W        W25227  39.926  21.964   1.693
52913W        W25228  24.187  42.847  12.518
52914W        W25229  44.568   0.264  13.680
52915W        W25230  21.820   6.673  14.516
52916W        W25231   5.474  33.816  13.852
52917W        W25232  14.284  13.843  12.900
52918W        W25233   9.866  16.271  13.465
52919W        W25234  20.204  43.598   4.678
52920W        W25235  25.580  19.246  14.883
52921W        W25236  20.352  19.060  13.283
52922W        W25237  12.287   2.663   0.409
52923W        W25238  33.495  38.645   2.758
52924W        W25239  34.852   8.444  11.909
52925W        W25240  43.552  16.569  10.980
52926W        W25241  35.052  25.114   3.695
52927W        W25242   6.511  42.779  13.887
52928W        W25243   2.734  35.484   1.001
52929W        W25244   6.350  18.315   3.632
52930W        W25245  32.561   5.250   0.305
52931W        W25246  11.819  26.598  11.536
52932W        W25247   7.175  19.528   4.205
52933W        W25248  36.589  25.446  11.098
52934W        W25249  26.369  34.899   3.835
52935W        W25250  25.960  36.125   4.097
52936W        W25251   5.069  18.428   4.746
52937W        W25252  22.200   9.722   3.411
52938W        W25253  12.327  32.597   1.808
52939W        W25254  12.024  20.482   2.058
52940W        W25255  22.293   1.383  14.091
52941W        W25256   3.160   3.403   1.351
52942W        W25257   2.441  29.765   1.487
52943W        W25258  26.134   5.337  10.312
52944W        W25259  27.419  19.990   3.296
52945W        W25260  44.107   9.208  10.195
52946W        W25261   5.691   4.034   1.708
52947W        W25262  17.559  44.453   0.270
52948W        W25263  25.655  28.933   0.635
52949W        W25264  16.531  41.942   1.634
52950W        W25265  42.040   2.202  12.641
52951W        W25266  23.063  41.576   3.162
52952W        W25267   2.530  24.606  12.342
52953W        W25268  32.225  21.545   3.398
52954W        W25269  32.666  29.686  13.193
52955W        W25270  32.777  40.402  13.578
52956W        W25271   3.389  39.594   1.202
52957W        W25272  35.298   2.262   0.429
52958W        W25273   9.150   7.205   0.370
52959W        W25274  36.049  41.274   4.889
52960W        W25275   7.885  38.106   4.191
52961W        W25276  34.101  17.869   1.348
52962W        W25277  33.388   4.689   1.721
52963W        W25278  18.667  34.151  13.854
52964W        W25279  22.610  25.740   0.415
52965W        W25280  40.119  34.002  13.637
52966W        W25281  32.305  37.735  12.107
52967W        W25282  23.008  40.328  13.841
52968W        W25283  13.668  28.434   3.387
52969W        W25284  34.859  31.112  14.236
52970W        W25285  33.635  42.891   1.494
52971W        W25286   2.466   5.694  11.739
52972W        W25287  28.700  30.971   3.026
52973W        W25288  14.696  13.627   2.916
52974W        W25289  44.075  18.137  12.940
52975W        W25290   7.606  15.672   3.347
52976W        W25291  11.079   9.710   0.782
52977W        W25292   8.751  39.730  11.681
52978W        W25293  35.819   1.958  11.445
52979W        W25294  11.446   3.511  11.150
52980W        W25295  44.289   3.394   4.610
52981W        W25296  38.141  21.681  12.551
52982W        W25297   6.490  25.252   1.969
52983W        W25298  27.517  26.859  10.932
52984W        W25299  18.846  27.722   3.365
52985W        W25300  26.061  27.670   2.356
52986W        W25301  24.775  23.708   3.180
52987W        W25302  24.464  42.807  11.571
52988W        W25303  32.460  22.269   0.079
52989W        W25304  40.657  18.183  10.990
52990W        W25305  10.276  11.645  10.715
52991W        W25306  43.789  27.594   0.355
52992W        W25307  39.910  14.763   3.957
52993W        W25308  39.356  36.552  11.609
52994W        W25309  29.487  20.502   0.663
52995W        W25310   3.228   5.751   0.440
52996W        W25311   3.785  43.848  12.094
52997W        W25312  19.849  27.086   4.452
52998W        W25313  32.941  10.882   0.761
52999W        W25314  43.539  38.472   1.323
53000W        W25315  36.572  30.631   2.267
53001W        W25316  26.525   9.299  11.395
53002W        W25317  26.241   3.937  11.423
53003W        W25318  28.634  43.260  10.818
53004W        W25319  13.536   5.674   4.014
53005W        W25320  20.179  44.614   4.595
53006W        W25321  16.325  24.027  11.825
53007W        W25322   3.673  44.265   2.249
53008W        W25323  42.829  12.747   1.224
53009W        W25324  41.287   6.156   4.602
53010W        W25325  33.529   8.363  14.404
53011W        W25326  36.096   2.825   0.236
53012W        W25327   9.807  22.047  12.187
53013W        W25328  19.054   8.392  10.235
53014W        W25329  42.251  39.932   3.619
53015W        W25330  38.388  31.615  10.971
53016W        W25331  30.936  40.191  14.908
53017W        W25332   7.090  24.481   4.528
53018W        W25333  37.386   7.424   0.946
53019W        W25334  30.059  28.031   1.546
53020W        W25335  12.706  25.175   4.115
53021W        W25336   4.518  27.953   1.003
53022W        W25337  11.940  22.085   0.997
53023W        W25338  44.259   7.116  11.870
53024W        W25339   4.126  17.028  10.650
53025W        W25340  20.654  22.116  11.390
53026W        W25341   3.374  35.376  14.868
53027W        W25342   7.263  42.965   0.755
53028W        W25343  40.740  30.516  10.566
53029W        W25344  10.257   2.752   3.782
53030W        W25345  15.359  40.276   4.188
53031W        W25346   9.378  39.339   1.395
53032W        W25347  40.843  37.312  14.471
53033W        W25348  10.884  26.220   0.328
53034W        W25349   7.320  19.813   2.906
53035W        W25350  30.349   9.206   1.285
53036W        W25351   2.194  36.990  14.972
53037W        W25352  31.575  22.678  12.121
53038W        W25353   3.276  34.502   3.784
53039W        W25354  40.517  29.703  13.848
53040W        W25355  20.040  44.015   3.747
53041W        W25356  31.035  37.742   2.288
53042W        W25357  35.602   6.394   4.164
53043W        W25358   3.874  44.708   0.487
53044W        W25359  30.677  34.048  13.558
53045W        W25360   6.170  11.720   2.825
53046W        W25361  29.651  30.896   4.405
53047W        W25362   4.156  22.626  11.562
53048W        W25363  11.227  17.216   4.109
53049W        W25364  28.461   1.903  12.992
53050W        W25365  35.127  26.186   1.384
53051W        W25366  41.641  41.702  10.301
53052W        W25367  43.862  33.734  13.528
53053W        W25368  25.526   1.036  14.270
53054W        W25369  34.492  12.631   2.482
53055W        W25370  22.233  41.960  10.741
53056W        W25371   3.631  19.017  14.736
53057W        W25372  33.032  37.290   0.685
53058W        W25373   4.177  36.367  13.474
53059W        W25374  33.978  43.237   2.754
53060W        W25375  16.762  10.334  14.768
53061W        W25376  26.011  28.704   2.326
53062W        W25377  38.307  14.756   3.577
53063W        W25378   9.864  23.083  13.160
53064W        W25379   5.460  22.798  13.839
53065W        W25380  17.538  40.570  12.508
53066W        W25381  24.482  33.108   0.180
53067W        W25382   3.483   8.923  12.441
53068W        W25383  10.615   3.294  13.431
53069W        W25384  29.417  23.724   4.056
53070W        W25385  20.067  38.324   1.661
53071W        W25386  24.307  31.643   3.752
53072W        W25387  42.387  11.801   1.678
53073W        W25388  13.711  14.727  11.181
53074W        W25389  32.165  33.429  13.937
53075W        W25390  16.671  14.046  14.796
53076W        W25391  36.456   5.016   1.196
53077W        W25392  29.570  32.192   0.326
53078W        W25393  11.408  29.904  12.422
53079W        W25394  40.519   4.346  11.076
53080W        W25395   3.358   6.453   4.111
53081W        W25396  31.562  15.861   3.254
53082W        W25397  15.591  42.555  13.161
53083W        W25398   2.993  34.115  11.416
53084W        W25399  24.438  25.688   2.767
53085W        W25400  29.594  44.762  11.369
53086W        W25401  40.394   5.980   4.264
53087W        W25402  38.587  25.493   5.157
53088W        W25403  16.598   0.520   4.261
53089W        W25404  35.846   3.368  11.486
53090W        W25405   1.374  20.503   2.889
53091W        W25406   5.424  36.108   3.764
53092W        W25407  39.503  35.978  12.891
53093W        W25408  29.470  25.910  12.069
53094W        W25409   3.271  43.891   2.085
53095W        W25410  37.112  18.654  10.943
53096W        W25411  22.125  41.497   2.531
53097W        W25412  32.476  32.847   4.050
53098W        W25413  21.826  13.472  11.616
53099W        W25414   9.574  22.668   2.654
53100W        W25415  25.043  16.327  11.682
53101W        W25416  41.884  11.690   2.985
53102W        W25417  32.115  29.183  13.925
53103W        W25418  27.523   6.696   4.980
53104W        W25419  19.621  38.787  12.587
53105W        W25420   2.028  17.381   4.352
53106W        W25421  22.500   9.975   3.755
53107W        W25422   3.451  12.639   1.231
53108W        W25423  37.440  23.104  13.552
53109W        W25424  38.433  21.733   0.469
53110W        W25425  23.660  13.902   3.231
53111W        W25426  40.530   7.388   4.441
53112W        W25427   4.540  23.751   1.247
53113W        W25428  35.129  21.099   1.297
53114W        W25429   1.803  19.145   2.235
53115W        W25430  21.670  30.475  14.774
53116W        W25431  37.076  24.550   3.512
53117W        W25432   3.729  32.093   4.164
53118W        W25433  21.677  20.514  14.803
53119W        W25434  42.975  26.824  11.278
53120W        W25435   4.826  21.790   2.706
53121W        W25436  17.851   0.310   4.607
53122W        W25437  21.983  40.846   2.830
53123W        W25438  23.240  39.114  12.569
53124W        W25439  32.227  21.629  13.313
53125W        W25440  24.195  15.286   3.311
53126W        W25441  19.704  38.125   0.059
53127W        W25442  40.027  29.036   2.721
53128W        W25443  37.526  24.645   3.901
53129W        W25444  34.500   3.886  13.549
53130W        W25445  41.047  38.376  12.097
53131W        W25446  27.087  43.763  11.002
53132W        W25447  13.332  18.309  12.385
53133W        W25448  29.073   1.512  11.166
53134W        W25449  44.250  42.228  13.035
53135W        W25450  20.501  37.301  13.891
53136W        W25451   6.146  14.051  13.380
53137W        W25452  26.071  37.870  11.965
53138W        W25453  32.383  34.429  14.315
53139W        W25454  10.253  36.946  10.822
53140W        W25455  44.782  37.049   3.228
53141W        W25456  16.731  11.656   0.489
53142W        W25457  36.805   0.061   4.067
53143W        W25458  25.289  44.318  13.052
53144W        W25459  29.420  33.131   1.658
53145W        W25460  43.980  31.027   4.259
53146W        W25461  28.074  22.137  13.404
53147W        W25462   2.651  28.982   0.716
53148W        W25463  27.621  37.314   1.483
53149W        W25464  40.789  30.538   3.888
53150W        W25465  26.210   2.310   2.118
53151W        W25466  10.651   4.658   4.123
53152W        W25467  36.000   8.681  11.018
53153W        W25468  24.297  10.775  13.895
53154W        W25469  11.887   8.604   2.602
53155W        W25470  37.935   4.723  13.741
53156W        W25471  44.464  35.617   2.878
53157W        W25472  13.603   2.887  14.058
53158W        W25473  32.743  40.712   1.442
53159W        W25474  10.808  12.815  13.931
53160W        W25475   5.896   2.279  13.915
53161W        W25476   7.818  22.026  14.827
53162W        W25477  20.655  19.229   1.387
53163W        W25478   5.107  15.136  10.821
53164W        W25479  31.604  43.235  10.848
53165W        W25480  37.150   3.956   4.978
53166W        W25481  12.877   5.775  10.901
53167W        W25482  42.949   3.861  11.568
53168W        W25483   7.312  13.838   0.900
53169W        W25484  35.839  24.662  14.802
53170W        W25485  16.239  16.286   3.912
53171W        W25486  41.923   2.632   0.153
53172W        W25487  21.090  27.126   0.341
53173W        W25488  38.435   3.868   2.504
53174W        W25489  31.053   1.370   3.291
53175W        W25490  38.614  39.685  13.827
53176W        W25491  17.228  23.204   1.814
53177W        W25492  26.456  29.005  13.948
53178W        W25493  19.235  15.129  11.910
53179W        W25494  24.354  26.580  14.873
53180W        W25495  37.643  32.870  14.418
53181W        W25496  15.341  40.523  14.315
53182W        W25497   6.654  23.082   2.851
53183W        W25498   4.906  34.574  13.452
53184W        W25499   9.133  33.403   0.380
53185W        W25500   7.300   1.212  14.808
53186W        W25501  22.502  19.692  12.864
53187W        W25502  23.155  32.335  12.052
53188W        W25503  32.912   9.285   2.412
53189W        W25504  23.062  30.915  14.843
53190W        W25505  39.452  28.529  11.020
53191W        W25506   5.293   4.883   0.462
53192W        W25507  29.434  32.477   3.234
53193W        W25508  28.652  43.513  14.618
53194W        W25509   5.712  35.597  13.349
53195W        W25510  21.115  36.540   3.111
53196W        W25511  27.202   4.763  14.390
53197W        W25512  35.082   5.806   2.826
53198W        W25513   1.506  31.657   2.647
53199W        W25514  23.414  14.558  11.928
53200W        W25515  41.166   2.978   1.316
53201W        W25516  23.994  10.273   5.160
53202W        W25517  19.272  43.812   4.015
53203W        W25518  44.292  29.320   0.989
53204W        W25519   0.291  20.775   4.366
53205W        W25520   5.332  17.499   0.735
53206W        W25521  41.204   7.958   4.115
53207W        W25522  38.879  41.780   0.732
53208W        W25523   8.384  39.817   3.620
53209W        W25524  10.852  35.070   4.548
53210W        W25525  34.330  18.505  10.535
53211W        W25526  14.774  43.019   2.266
53212W        W25527  34.850  11.209   4.129
53213W        W25528  34.487  32.148   0.812
53214W        W25529   4.463  10.185  14.931
53215W        W25530  19.779   5.784  10.440
53216W        W25531  40.120  33.665   4.132
53217W        W25532  20.684  38.594   2.280
53218W        W25533  41.102  11.813   0.758
53219W        W25534  16.832  21.167   2.932
53220W        W25535   0.671  43.855  11.763
53221W        W25536   5.735   3.940  13.369
53222W        W25537  16.052  11.920  13.514
53223W        W25538  37.414  28.555   3.764
53224W        W25539  28.667  20.246   0.900
53225W        W25540  26.722  23.890   0.186
53226W        W25541   8.907  31.419  13.470
53227W        W25542   2.872  23.071  10.715
53228W        W25543  11.668  34.876  12.394
53229W        W25544  39.154   0.993  10.751
53230W        W25545  22.671   5.180   1.244
53231W        W25546  35.810   4.742  11.385
53232W        W25547  21.527  10.883   1.845
53233W        W25548  32.930  15.256  10.528
53234W        W25549  19.167  28.551   1.237
53235W        W25550   8.035  38.249   2.554
53236W        W25551  20.963  36.350  12.797
53237W        W25552  14.258  39.060   2.319
53238W        W25553  33.562  31.654  14.714
53239W        W25554  11.761  20.330  11.388
53240W        W25555  12.119  35.110  12.431
53241W        W25556  37.362   6.640  12.082
53242W        W25557  26.918  36.573  10.423
53243W        W25558  41.982  36.377  10.559
53244W        W25559   4.990  17.575   5.114
53245W        W25560   3.909  42.487   0.811
53246W        W25561  36.713  27.974   2.222
53247W        W25562   6.975  44.768  12.271
53248W        W25563  28.150  20.314  10.766
53249W        W25564  39.107  40.096  12.184
53250W        W25565  15.270  14.395  10.670
53251W        W25566  29.703   9.314  13.060
53252W        W25567   2.641  25.528  12.356
53253W        W25568  16.524  44.258   0.172
53254W        W25569  18.319  23.758   1.832
53255W        W25570  28.609  40.744   3.658
53256W        W25571  21.765   9.603  13.344
53257W        W25572  20.229  18.526   4.548
53258W        W25573  39.313  37.443   0.711
53259W        W25574  36.186  10.809   1.276
53260W        W25575  22.787  33.134  11.989
53261W        W25576   4.741   9.290  14.430
53262W        W25577   0.699  40.031   2.639
53263W        W25578   0.885  10.213   1.293
53264W        W25579  44.756  24.686   1.374
53265W        W25580  33.530  11.657   2.785
53266W        W25581  29.851  27.611   2.685
53267W        W25582  16.377  25.975   0.371
53268W        W25583  24.511   1.019  11.999
53269W        W25584  14.579  17.242   1.496
53270W        W25585   9.275  22.738   4.873
53271W        W25586   9.302  33.650   2.424
53272W        W25587  21.066  24.693  10.818
53273W        W25588  41.760  13.881  11.417
53274W        W25589   7.257  39.527   1.196
53275W        W25590  43.499  26.771  11.202
53276W        W25591  28.382  35.010  12.029
53277W        W25592  25.979   1.414  11.590
53278W        W25593  17.125  38.273  14.355
53279W        W25594   2.227   6.627   0.282
53280W        W25595  16.274  12.556  12.567
53281W        W25596  20.946   9.637  12.971
53282W        W25597  14.175  33.941  14.547
53283W        W25598  18.791  32.796  14.468
53284W        W25599  15.092   4.879  13.932
53285W        W25600  41.376   1.774   1.698
53286W        W25601  13.652  10.841   3.556
53287W        W25602  38.472   5.364  10.702
53288W        W25603  35.569   7.678   4.098
53289W        W25604  17.248  23.172   3.277
53290W        W25605   6.843  12.118  12.649
53291W        W25606  26.106  11.386   3.189
53292W        W25607  37.748  40.971   0.255
53293W        W25608  17.512   4.366   4.833
53294W        W25609  22.771  33.711  10.128
53295W        W25610   5.393   2.848   2.394
53296W        W25611   5.793  41.047  14.445
53297W        W25612  37.027  42.487  11.399
53298W        W25613  22.700  37.372   1.918
53299W        W25614   9.739  33.709   2.695
53300W        W25615  11.141   2.129  13.965
53301W        W25616  40.854  40.536  11.616
53302W        W25617  33.481   6.622   4.930
53303W        W25618  14.076  12.870  11.068
53304W        W25619  22.016  13.436  14.861
53305W        W25620   7.090   1.840  13.306
53306W        W25621  33.842  38.855   1.738
53307W        W25622   1.433  23.694  11.632
53308W        W25623  14.127  33.353   3.721
53309W        W25624  10.450  17.725  13.958
53310W        W25625  36.084  11.430  14.367
53311W        W25626  28.450  25.863   0.897
53312W        W25627  17.745  23.798   3.911
53313W        W25628   9.629  13.547   2.362
53314W        W25629  37.811  17.791   9.924
53315W        W25630  18.558  35.961  13.409
53316W        W25631  22.361  27.064  10.989
53317W        W25632  23.035  12.766  14.309
53318W        W25633  37.424  22.580   2.645
53319W        W25634  41.460  17.627   0.256
53320W        W25635  12.160  14.325  12.157
53321W        W25636   7.198  36.460  10.886
53322W        W25637   4.881  18.055  13.395
53323W        W25638  36.834  40.001   4.665
53324W        W25639  26.494  40.576  12.859
53325W        W25640  19.679  31.082   1.261
53326W        W25641   1.528  35.110  10.703
53327W        W25642  10.821  12.451   4.128
53328W        W25643  23.438  28.386   0.879
53329W        W25644  23.108  39.043  14.427
53330W        W25645   8.119  25.691   2.656
53331W        W25646  24.800   4.937  11.154
53332W        W25647  14.867  44.912   4.136
53333W        W25648  39.409  12.150  10.753
53334W        W25649   9.138  30.358  12.140
53335W        W25650  28.724  23.030   1.217
53336W        W25651  38.326  25.466  13.656
53337W        W25652   8.722  11.585   2.415
53338W        W25653  29.743   0.379   4.944
53339W        W25654   0.372  37.226  10.299
53340W        W25655  13.644  14.159  13.790
53341W        W25656   4.990  17.686  13.762
53342W        W25657  28.932  30.911  11.975
53343W        W25658  36.643  37.470  14.808
53344W        W25659  24.937  39.796  11.681
53345W        W25660  10.901  35.567  14.543
53346W        W25661  20.183  24.445   1.248
53347W        W25662  42.968   6.652   2.990
53348W        W25663   6.351  21.194   5.117
53349W        W25664  32.900  39.040  12.566
53350W        W25665  30.886  17.281  12.084
53351W        W25666  40.948  37.199   1.289
53352W        W25667  16.256   6.869  11.043
53353W        W25668  13.793  34.037   3.619
53354W        W25669  28.441  26.625   0.514
53355W        W25670  11.731  34.159  14.944
53356W        W25671  16.676   9.294  13.720
53357W        W25672  18.562   3.051   4.682
53358W        W25673  35.481   3.244  13.804
53359W        W25674   6.479  19.006  12.122
53360W        W25675  29.386  43.188  12.366
53361W        W25676  38.092  29.835  10.866
53362W        W25677  40.890  38.386   0.437
53363W        W25678  28.932  38.263   2.348
53364W        W25679  10.861  19.260   4.645
53365W        W25680  32.734  18.084  11.518
53366W        W25681   9.580  35.136   1.412
53367W        W25682  11.212  35.581  14.980
53368W        W25683  37.835  33.568   1.856
53369W        W25684  18.544   1.324  14.941
53370W        W25685  37.364  30.910  11.151
53371W        W25686   4.891  27.743   1.283
53372W        W25687  14.622  42.744  13.540
53373W        W25688  18.729  38.374   4.989
53374W        W25689  36.509  36.464   1.683
53375W        W25690  26.231   2.871  14.681
53376W        W25691  17.163  27.956   4.140
53377W        W25692  39.938  19.021   2.299
53378W        W25693  30.389  30.131  11.712
53379W        W25694   7.738  12.882   0.154
53380W        W25695  23.215  28.446  13.478
53381W        W25696  34.229  16.047   2.775
53382W        W25697  22.009   0.865   3.231
53383W        W25698  23.192  36.855   4.162
53384W        W25699   6.533  21.570   0.727
53385W        W25700   4.042  10.194   3.368
53386W        W25701  40.105  20.743   1.365
53387W        W25702  14.265  24.524  14.269
53388W        W25703   8.404   1.818  12.838
53389W        W25704  14.744  12.297   1.812
53390W        W25705  20.706  18.239  14.485
53391W        W25706  37.466  32.197  14.845
53392W        W25707  21.773   3.261   3.493
53393W        W25708  27.900   5.680  14.363
53394W        W25709  23.557   6.693  12.562
53395W        W25710  25.698  43.019   9.861
53396W        W25711  16.158  23.141  12.742
53397W        W25712  16.827   3.855   3.675
53398W        W25713  14.217   8.743   3.703
53399W        W25714  16.227  36.397  11.581
53400W        W25715  33.302  28.863   1.448
53401W        W25716  29.484  32.709  12.945
53402W        W25717  25.809   6.771   0.110
53403W        W25718   4.832  18.143  12.091
53404W        W25719  32.195  27.421   2.675
53405W        W25720  25.131   8.286   2.881
53406W        W25721   5.160  23.746  13.023
53407W        W25722  14.223  34.808   0.581
53408W        W25723  13.614  42.335   3.240
53409W        W25724   3.895  14.736   2.306
53410W        W25725  27.238  20.229  11.029
53411W        W25726  10.872   1.910  10.634
53412W        W25727   8.246  22.084   2.696
53413W        W25728  29.902   2.787  11.159
53414W        W25729  26.675  16.080  14.422
53415W        W25730  11.143  28.095  11.928
53416W        W25731  23.236   1.886   2.347
53417W        W25732  44.688  35.590   4.045
53418W        W25733  14.935   0.469  14.967
53419W        W25734  29.970  44.739  14.813
53420W        W25735  20.112  23.157   1.250
53421W        W25736  41.501  15.806   1.411
53422W        W25737  19.179  13.455   1.482
53423W        W25738  36.250  31.804   4.740
53424W        W25739  38.867  17.042  12.708
53425W        W25740  42.416  11.652   0.236
53426W        W25741   1.892   8.812  13.684
53427W        W25742  10.146  44.289   4.979
53428W        W25743  23.800  23.672  14.488
53429W        W25744  21.956  34.065   2.219
53430W        W25745  14.511  38.621   3.210
53431W        W25746  19.014  22.163  12.415
53432W        W25747   9.644  39.592  13.385
53433W        W25748  33.587  18.123   1.978
53434W        W25749   7.709   9.995   0.817
53435W        W25750  11.354   2.557  12.950
53436W        W25751  32.776   1.626  14.515
53437W        W25752   3.976  13.566   0.277
53438W        W25753  13.466   9.905   0.300
53439W        W25754  14.836   0.551  13.564
53440W        W25755  37.126   6.753   1.230
53441W        W25756   2.379  16.829   2.737
53442W        W25757  27.831   4.823   4.309
53443W        W25758   5.643  21.554  11.506
53444W        W25759   0.846  20.173   0.675
53445W        W25760  24.514  39.503  13.810
53446W        W25761  33.861   8.090  14.717
53447W        W25762  20.245  16.535   4.210
53448W        W25763  17.288  35.101  13.965
53449W        W25764  37.320   4.120   1.261
53450W        W25765  42.989  16.716  10.496
53451W        W25766   9.836  23.059  10.557
53452W        W25767  41.352  30.222  12.614
53453W        W25768  11.240  42.894  11.954
53454W        W25769  11.529   8.607   9.834
53455W        W25770  36.582  31.180  12.110
53456W        W25771  38.561  34.174  12.886
53457W        W25772  41.366  24.460   1.366
53458W        W25773  19.298   3.743   0.349
53459W        W25774   3.688   4.132  14.471
53460W        W25775   3.852  15.151  14.590
53461W        W25776  15.586  40.933  11.627
53462W        W25777  25.888   2.156   1.735
53463W        W25778  41.999  41.245   3.748
53464W        W25779   0.193  10.806  14.250
53465W        W25780  32.902  16.682  13.836
53466W        W25781  11.997  27.280   1.775
53467W        W25782  17.769  11.665   0.381
53468W        W25783  37.839  20.630  13.822
53469W        W25784   7.751  23.881  12.895
53470W        W25785   3.639   5.946   3.190
53471W        W25786  18.555  14.150   1.382
53472W        W25787  11.808  40.630   4.589
53473W        W25788  15.254  15.588  13.057
53474W        W25789  29.590  21.214   1.955
53475W        W25790  35.659  31.644  12.004
53476W        W25791  21.885  35.422  11.423
53477W        W25792  17.617  12.522   3.272
53478W        W25793   6.336   2.959  14.869
53479W        W25794  24.714  30.715   3.854
53480W        W25795   1.856   6.940   0.500
53481W        W25796  20.815  21.611  11.418
53482W        W25797   0.711  28.041  11.167
53483W        W25798  12.348   5.912  11.575
53484W        W25799  10.780  43.026   3.649
53485W        W25800  15.094  10.588   1.415
53486W        W25801  44.338  36.672  14.413
53487W        W25802  21.589  38.331   3.305
53488W        W25803  17.585  35.988  12.568
53489W        W25804  40.415  11.386   3.285
53490W        W25805  29.572  35.148   4.528
53491W        W25806  43.261  10.727  14.432
53492W        W25807  12.529   2.328  13.819
53493W        W25808  29.439   0.419   0.677
53494W        W25809  31.142  27.676  11.983
53495W        W25810  26.992  19.738  11.013
53496W        W25811  35.914  13.396   0.693
53497W        W25812  11.162   0.556  14.280
53498W        W25813   2.393   6.355  12.142
53499W        W25814  26.961  15.639   4.591
53500W        W25815  43.444  27.901   2.934
53501W        W25816  19.438  33.078  13.811
53502W        W25817  10.767  13.145   4.894
53503W        W25818   6.631   0.161  12.906
53504W        W25819  23.422  11.235   0.124
53505W        W25820  40.932  23.463   2.218
53506W        W25821  37.020   6.199  11.442
53507W        W25822  39.873  43.806   0.694
53508W        W25823  29.582  29.975  13.406
53509W        W25824  25.727   9.268   2.837
53510W        W25825  20.075   7.141  11.954
53511W        W25826  21.655  40.813   2.386
53512W        W25827  43.709  23.269   3.121
53513W        W25828  31.701  32.952   3.878
53514W        W25829   1.532  40.161   1.617
53515W        W25830  31.426   4.279  14.850
53516W        W25831  25.785  35.832  12.849
53517W        W25832  37.871  36.085   0.017
53518W        W25833  40.057  26.610  13.735
53519W        W25834  26.142   3.528   2.644
53520W        W25835  37.538  19.037   3.078
53521W        W25836  28.624   0.225  11.036
53522W        W25837  41.232  25.042  14.451
53523W        W25838  26.029   2.973  11.164
53524W        W25839   2.683  13.673   0.799
53525W        W25840   2.410   0.007  11.137
53526W        W25841  36.278  33.082   1.960
53527W        W25842  12.866  24.133   3.120
53528W        W25843   5.439  37.834  11.546
53529W        W25844  10.802  25.604   3.069
53530W        W25845  15.259  39.797   2.907
53531W        W25846  25.738  18.578   3.165
53532W        W25847  38.068  28.660   3.120
53533W        W25848  28.612  40.102   2.122
53534W        W25849  42.564  29.133  10.653
53535W        W25850  41.334  14.334   1.851
53536W        W25851  22.840  32.510  13.300
53537W        W25852  18.306  10.211   1.263
53538W        W25853  42.324  17.786   0.051
53539W        W25854  36.559   0.732  12.441
53540W        W25855   6.434   2.415   3.543
53541W        W25856  42.945   5.677  11.580
53542W        W25857  36.617  42.920  13.861
53543W        W25858   1.887  43.928  12.743
53544W        W25859  28.466  27.279  12.910
53545W        W25860   7.392  30.719   1.107
53546W        W25861   5.330  19.272   4.620
53547W        W25862  13.828  23.464   1.259
53548W        W25863   2.952  18.512  11.378
53549W        W25864  18.861  36.618   1.266
53550W        W25865  16.811  41.837  14.788
53551W        W25866  25.438  36.637  13.640
53552W        W25867  15.557  34.549  10.709
53553W        W25868   3.039  36.534   4.269
53554W        W25869  28.505  24.888   0.962
53555W        W25870   8.137  19.066   2.374
53556W        W25871  31.426  30.080   1.122
53557W        W25872  23.969  22.191  10.513
53558W        W25873  41.078  27.965  12.447
53559W        W25874  17.800  19.114  13.524
53560W        W25875  44.391  20.189  12.516
53561W        W25876  21.715  16.134   0.368
53562W        W25877  30.707  28.310   4.134
53563W        W25878  21.037  35.540   3.231
53564W        W25879  13.175   5.643   3.068
53565W        W25880  40.352   6.347   5.028
53566W        W25881  12.139  33.853   2.987
53567W        W25882  24.290   9.599  13.187
53568W        W25883  18.804   0.966  13.524
53569W        W25884  44.344  16.887  14.426
53570W        W25885  14.373   7.315  10.578
53571W        W25886  33.475   5.695   2.000
53572W        W25887  26.653  27.571   3.261
53573W        W25888  34.080  26.630   0.862
53574W        W25889   5.633  12.421   2.145
53575W        W25890  32.640  44.013  13.866
53576W        W25891  30.067   5.212  14.365
53577W        W25892  22.584   6.834   1.790
53578W        W25893  39.955  39.638  13.075
53579W        W25894  31.619  26.690  10.581
53580W        W25895  18.644  18.492  10.693
53581W        W25896  30.038  28.030   0.199
53582W        W25897   4.921   7.822  10.945
53583W        W25898  10.797  13.293   0.906
53584W        W25899  34.142  26.415  13.626
53585W        W25900  18.788  12.617   0.220
53586W        W25901  24.054  20.621   1.385
53587W        W25902  22.284  21.106  14.467
53588W        W25903  36.848  41.007   4.737
53589W        W25904  37.047  19.648  13.865
53590W        W25905  19.229  27.728   4.301
53591W        W25906  15.043  23.756  12.141
53592W        W25907  16.749  13.296   0.849
53593W        W25908  37.409  10.350  11.156
53594W        W25909  19.307   4.765   4.119
53595W        W25910   4.444  42.340   1.694
53596W        W25911  18.019   2.889   1.400
53597W        W25912   6.859  30.734   2.452
53598W        W25913  21.260  25.553  11.899
53599W        W25914  42.098  14.883   4.112
53600W        W25915  24.972  10.195  10.525
53601W        W25916  15.554   8.940   3.971
53602W        W25917   4.746  32.441   1.303
53603W        W25918  35.621  11.056  12.622
53604W        W25919   8.513  26.136  12.916
53605W        W25920  37.342  30.051   1.261
53606W        W25921  36.914  20.046  10.670
53607W        W25922  13.392  29.574   1.315
53608W        W25923   6.385   8.741   5.337
53609W        W25924  16.851  25.094   3.335
53610W        W25925  25.134  38.050   2.277
53611W        W25926  28.673   2.327  14.102
53612W        W25927  11.384  21.301   3.337
53613W        W25928  40.027  40.779  12.600
53614W        W25929  27.977  43.371   2.660
53615W        W25930  14.260  32.597   1.202
53616W        W25931  18.677  21.479  13.009
53617W        W25932  26.342  32.828  11.688
53618W        W25933  25.053   8.916  11.614
53619W        W25934  11.922  28.069  14.687
53620W        W25935  27.254   9.035   4.488
53621W        W25936  19.574  43.726  11.163
53622W        W25937  27.588  41.005   1.841
53623W        W25938   2.723  24.750  14.013
53624W        W25939  42.504  39.668   4.062
53625W        W25940  30.621  37.755   2.849
53626W        W25941  31.094  38.587   0.920
53627W        W25942  22.757  38.901   4.439
53628W        W25943  17.209  23.138  11.186
53629W        W25944  28.155  31.579  14.699
53630W        W25945  44.033  40.206  11.200
53631W        W25946  28.711   4.847   0.469
53632W        W25947  16.625  29.491  14.260
53633W        W25948  28.049  38.369  12.428
53634W        W25949  17.175  30.926   2.789
53635W        W25950  13.696  37.400  11.885
53636W        W25951  44.491  24.012   2.417
53637W        W25952  33.376  36.347   2.334
53638W        W25953   8.393  20.560   2.606
53639W        W25954  32.661  14.016  11.123
53640W        W25955  22.517  28.406  13.919
53641W        W25956  13.876  13.214  13.904
53642W        W25957  43.370   7.914  11.550
53643W        W25958  37.835  41.581   3.133
53644W        W25959  37.031  27.432   3.490
53645W        W25960  33.058  34.670  13.225
53646W        W25961   6.568   2.242   0.746
53647W        W25962   1.754  20.785   4.439
53648W        W25963  28.562   6.700   4.577
53649W        W25964   9.242  12.813  13.585
53650W        W25965  34.764  31.383   2.793
53651W        W25966   6.690  32.576  13.991
53652W        W25967  12.745  11.136  14.463
53653W        W25968  11.317  18.203  14.024
53654W        W25969  40.031  26.591   3.151
53655W        W25970  15.841   9.938   0.469
53656W        W25971  41.900  16.592  14.078
53657W        W25972  22.743  35.273   3.198
53658W        W25973  15.126  37.382   1.424
53659W        W25974  44.815  11.372   2.380
53660W        W25975  42.934  17.014   2.784
53661W        W25976  14.705  38.882  14.889
53662W        W25977  20.582  21.037   1.452
53663W        W25978  11.194  43.550   4.752
53664W        W25979  28.247  34.921  14.290
53665W        W25980  13.087   7.054  11.518
53666W        W25981  35.846  16.071  13.232
53667W        W25982  27.979  31.630   2.191
53668W        W25983  11.821  30.062  11.694
53669W        W25984  10.770  29.498   2.438
53670W        W25985  18.121   6.891   2.417
53671W        W25986   2.080  17.544   2.230
53672W        W25987  26.166  40.936  14.972
53673W        W25988  22.250  26.278  12.555
53674W        W25989   1.986  10.537  10.822
53675W        W25990  17.744   2.660  11.155
53676W        W25991   8.991   1.080   2.947
53677W        W25992  31.601  39.058   0.268
53678W        W25993  35.310  32.353  11.076
53679W        W25994   8.420  36.346   1.366
53680W        W25995  39.497   9.678   3.254
53681W        W25996   2.946  25.513   0.305
53682W        W25997  39.900   9.389   1.900
53683W        W25998  18.213  35.400   4.976
53684W        W25999   7.376  36.938   2.794
53685W        W26000  22.717  34.078   4.890
53686W        W26001   8.709  19.550   3.306
53687W        W26002  19.245   5.171   1.845
53688W        W26003  33.025  23.739  14.446
53689W        W26004  26.556   0.332   4.381
53690W        W26005  14.891  25.962  12.110
53691W        W26006  10.206  39.888  12.837
53692W        W26007   4.829   4.482  13.653
53693W        W26008  14.195  36.149   1.876
53694W        W26009  28.646  16.744  14.365
53695W        W26010   7.736   3.154  10.368
53696W        W26011   9.792  39.787  11.959
53697W        W26012   4.844   0.202  12.611
53698W        W26013  28.930  40.254  11.999
53699W        W26014  16.781   9.404  13.209
53700W        W26015  30.005  41.843  11.477
53701W        W26016  40.937  35.129   0.934
53702W        W26017  39.470  19.804   0.262
53703W        W26018  31.568  22.053  13.573
53704W        W26019   1.490  43.586  11.211
53705W        W26020   3.937   1.575   1.824
53706W        W26021  15.395   1.770  14.447
53707W        W26022   2.412   3.725   3.558
53708W        W26023  31.175  21.421   1.610
53709W        W26024  26.755   1.859  12.424
53710W        W26025  41.788   5.992   0.473
53711W        W26026  28.173  15.580   2.349
53712W        W26027  33.498  14.092  11.985
53713W        W26028  33.500  13.408  13.862
53714W        W26029  23.111   0.395  13.096
53715W        W26030  25.012   5.821   4.542
53716W        W26031  41.929   3.253  11.813
53717W        W26032  18.598  16.777   0.754
53718W        W26033  36.789   8.955   4.054
53719W        W26034   2.448  22.942   2.169
53720W        W26035  35.870  17.322   1.379
53721W        W26036  27.494   5.663   0.065
53722W        W26037  21.057  27.835  11.586
53723W        W26038  42.659  15.640   2.733
53724W        W26039  11.281  13.122  11.198
53725W        W26040  31.566  28.664   3.709
53726W        W26041   0.860  40.393  13.565
53727W        W26042  43.426   5.140   4.613
53728W        W26043  18.667  44.313  11.490
53729W        W26044  12.142   7.934   1.823
53730W        W26045  39.900   6.001   1.340
53731W        W26046  11.068  38.200   3.409
53732W        W26047  34.200  34.423  13.904
53733W        W26048  17.756   9.193   4.325
53734W        W26049  21.078  13.368   1.303
53735W        W26050  44.961   5.277  13.473
53736W        W26051   3.358  25.708   1.285
53737W        W26052   0.733  26.583  13.057
53738W        W26053  23.345  17.692   1.299
53739W        W26054  41.065  20.590   2.129
53740W        W26055  32.191  38.063  13.320
53741W        W26056  21.672  15.650  14.035
53742W        W26057   3.152   6.857   0.961
53743W        W26058   4.400   0.270  14.294
53744W        W26059  44.411  10.233   4.674
53745W        W26060  13.660   3.335   2.357
53746W        W26061   8.944  13.242   0.813
53747W        W26062  21.125  22.178   3.759
53748W        W26063  40.022  32.587  14.368
53749W        W26064  40.580  31.613  12.473
53750W        W26065  30.789  20.394  13.427
53751W        W26066  33.637  36.555   2.743
53752W        W26067  20.037  43.469  11.139
53753W        W26068   5.361  30.475  12.495
53754W        W26069  37.429  26.404   1.290
53755W        W26070   4.764  26.679   2.094
53756W        W26071  26.297  33.542  12.240
53757W        W26072  42.155   9.157   1.769
53758W        W26073  24.386   7.688  14.324
53759W        W26074   8.273  22.562  13.067
53760W        W26075  13.877   3.358  14.932
53761W        W26076  37.529  20.637   4.048
53762W        W26077  17.951   8.225   0.544
53763W        W26078  36.262   1.219   1.967
53764W        W26079  28.989  30.704  12.455
53765W        W26080  41.508   2.805  12.856
53766W        W26081   8.283  11.640   4.467
53767W        W26082  13.357  11.453   0.698
53768W        W26083  18.205  19.138  12.573
53769W        W26084   7.926  23.593   3.435
53770W        W26085  34.666  37.042   3.788
53771W        W26086  17.872   7.169   3.599
53772W        W26087  38.520  17.194  10.628
53773W        W26088  25.018  37.356   1.168
53774W        W26089   2.541  26.165  13.716
53775W        W26090  15.390   2.372   1.486
53776W        W26091   5.064  40.111   0.178
53777W        W26092  14.526  26.399   5.068
53778W        W26093   3.772   4.723   1.899
53779W        W26094  23.700   8.684   2.330
53780W        W26095  23.234  35.523   1.030
53781W        W26096  30.266  29.047  14.450
53782W        W26097  41.426   0.724   2.407
53783W        W26098  20.465  26.982  11.535
53784W        W26099  12.505   9.270  14.887
53785W        W26100   0.927  26.245   1.467
53786W        W26101  40.924  17.260   2.754
53787W        W26102   0.781   4.285  11.175
53788W        W26103  36.600   8.170   2.232
53789W        W26104  14.278  41.196  12.536
53790W        W26105  29.653   2.226  14.395
53791W        W26106  23.881   8.291   0.333
53792W        W26107  33.534  38.721  14.635
53793W        W26108  43.928  26.466  11.129
53794W        W26109  31.087  37.337  11.020
53795W        W26110  10.069  30.368  12.697
53796W        W26111  37.347  32.683  11.973
53797W        W26112  13.666  17.856  13.890
53798W        W26113  21.045   6.718   0.629
53799W        W26114  18.199  10.425   2.165
53800W        W26115  30.601   5.321  12.176
53801W        W26116  37.652  30.147  12.988
53802W        W26117   1.397  36.656  14.737
53803W        W26118  17.740  17.088  14.310
53804W        W26119  14.731  33.932  10.814
53805W        W26120  33.081  43.771   1.239
53806W        W26121   8.355   5.136   1.286
53807W        W26122  29.951  40.387  14.089
53808W        W26123  36.785  33.086  11.313
53809W        W26124  37.096  27.412   1.163
53810W        W26125  32.161  13.949  13.574
53811W        W26126  22.601  28.198   3.053
53812W        W26127  26.570  39.057  13.001
53813W        W26128   4.321  27.647   1.808
53814W        W26129  13.562  35.827   3.092
53815W        W26130  14.287  12.272   1.599
53816W        W26131   2.504  17.800  14.897
53817W        W26132  43.815  23.968  14.380
53818W        W26133  15.730  29.111  13.572
53819W        W26134  26.236   9.727  11.539
53820W        W26135  35.850   4.315  11.091
53821W        W26136  20.333  43.116   4.997
53822W        W26137  36.915   4.304   1.969
53823W        W26138  39.302  21.333   1.350
53824W        W26139  32.851  29.874  14.859
53825W        W26140  17.211  31.667   3.079
53826W        W26141   1.425  34.575  11.459
53827W        W26142  13.636   1.837  10.798
53828W        W26143  43.037  22.274   4.785
53829W        W26144  30.844  14.715   0.814
53830W        W26145  28.715   5.661  14.950
53831W        W26146  25.672  28.924  10.984
53832W        W26147   9.567   0.520  13.611
53833W        W26148  15.598  27.606   4.101
53834W        W26149  42.626  31.684   2.220
53835W        W26150  32.931  34.837   2.252
53836W        W26151  35.327  24.974  14.429
53837W        W26152  10.088  30.868  12.798
53838W        W26153  36.616  38.444   4.424
53839W        W26154  27.418  24.994   0.291
53840W        W26155  35.916  27.983   0.471
53841W        W26156   7.971   3.647  11.222
53842W        W26157  40.554   9.636   4.777
53843W        W26158   1.845  11.363  10.180
53844W        W26159  18.349  30.407  13.517
53845W        W26160  42.829  39.149   4.102
53846W        W26161  37.821   8.369   0.936
53847W        W26162   5.890  33.671   4.237
53848W        W26163  32.982  28.191  10.918
53849W        W26164  40.424  24.290   2.289
53850W        W26165   2.704  14.309  13.153
53851W        W26166  15.368  29.112   4.595
53852W        W26167   7.769  14.462   0.616
53853W        W26168  20.185  11.564  12.076
53854W        W26169  18.076  35.421   0.022
53855W        W26170  26.189  13.635   1.153
53856W        W26171  11.817  39.854  11.997
53857W        W26172   9.351  19.659   2.410
53858W        W26173  35.997  25.712  11.471
53859W        W26174  40.297  38.863  14.906
53860W        W26175  12.803  37.974  14.407
53861W        W26176  11.283  21.980  14.897
53862W        W26177  34.699  43.083   2.503
53863W        W26178   5.658   7.188  14.318
53864W        W26179  25.533  18.631   4.497
53865W        W26180  27.240  36.025   1.875
53866W        W26181  25.750  20.246   3.859
53867W        W26182   3.280  40.981  14.214
53868W        W26183  21.057  39.264  10.569
53869W        W26184   0.833  23.705   1.253
53870W        W26185  38.279  14.497   1.606
53871W        W26186  15.990  32.132   3.348
53872W        W26187   0.264  10.665  13.215
53873W        W26188  24.222   1.840   1.711
53874W        W26189  38.792  15.280  11.954
53875W        W26190   0.961  26.726   4.310
53876W        W26191   7.961   6.455   3.096
53877W        W26192   5.302  27.049   0.716
53878W        W26193  18.268  33.649  12.416
53879W        W26194   7.203  14.150   0.449
53880W        W26195  31.072  13.289  13.535
53881W        W26196  18.124  43.021  12.003
53882W        W26197  23.711  25.396  11.058
53883W        W26198   6.375  11.895  11.421
53884W        W26199   9.782   4.954   0.606
53885W        W26200  38.444  29.902  13.400
53886W        W26201  37.976  29.365   0.148
53887W        W26202  15.044   6.548  13.040
53888W        W26203  42.559   1.141   1.834
53889W        W26204  36.954  21.183   1.447
53890W        W26205  19.059  37.574   1.206
53891W        W26206  21.528   8.662   0.551
53892W        W26207   6.394  14.288  11.398
53893W        W26208  31.368  16.836  11.620
53894W        W26209  13.721  31.576   4.628
53895W        W26210  21.566  17.216   2.347
53896W        W26211   2.878  37.978   0.210
53897W        W26212   6.684  38.752   2.273
53898W        W26213  16.755  11.857   1.474
53899W        W26214  21.481  32.073   2.772
53900W        W26215  32.307  27.056   3.791
53901W        W26216  44.461  38.605   0.733
53902W        W26217  42.890  34.558   4.923
53903W        W26218  36.465   8.106  11.236
53904W        W26219  38.078  38.411  12.215
53905W        W26220  41.780   9.853   2.936
53906W        W26221   7.488  39.227  12.514
53907W        W26222  32.432  36.288   2.715
53908W        W26223  40.530  36.844  13.824
53909W        W26224  20.278  40.366  13.370
53910W        W26225  36.714  42.925  12.504
53911W        W26226  11.170  13.220   3.565
53912W        W26227  44.231  20.255  14.932
53913W        W26228  35.024  19.877  11.977
53914W        W26229  22.637  34.812   0.066
53915W        W26230   8.328  30.110   4.938
53916W        W26231  28.649  10.450   4.004
53917W        W26232  35.845  32.180   0.472
53918W        W26233  38.480  28.442  11.913
53919W        W26234   2.058  14.043  11.894
53920W        W26235  31.486   0.860   4.520
53921W        W26236  44.928  11.328   3.392
53922W        W26237  43.005  13.703   0.895
53923W        W26238  28.393  16.658  13.367
53924W        W26239  16.952  34.385   3.621
53925W        W26240  20.142  29.487  12.623
53926W        W26241  41.521  33.375  14.255
53927W        W26242  24.979   5.945  10.647
53928W        W26243   7.408  37.487   1.361
53929W        W26244  20.549  26.192  13.427
53930W        W26245  22.067  19.293   1.094
53931W        W26246   4.555  29.866   2.267
53932W        W26247  31.080  41.070  11.339
53933W        W26248  22.631   0.956  13.518
53934W        W26249  18.481  41.269   3.912
53935W        W26250  33.351  35.107   3.692
53936W        W26251  29.878  17.542  11.950
53937W        W26252  40.506  42.983   3.269
53938W        W26253  28.378  17.619  11.115
53939W        W26254  34.367  36.215   2.312
53940W        W26255  26.502  26.735   3.705
53941W        W26256  11.463  38.949   3.074
53942W        W26257  14.076   3.396   3.163
53943W        W26258  33.385  37.620   0.946
53944W        W26259  28.093  14.283   1.849
53945W        W26260  36.965  21.983   3.768
53946W        W26261  30.917  32.671   4.205
53947W        W26262  31.604   7.579  12.115
53948W        W26263   8.256   2.291   2.731
53949W        W26264  25.208  12.578  14.280
53950W        W26265  19.107  32.973  11.562
53951W        W26266  37.405   8.970  13.328
53952W        W26267  43.788  14.381   3.060
53953W        W26268  18.241   1.908  14.698
53954W        W26269  29.116  29.724   4.560
53955W        W26270  27.496  44.036   2.766
53956W        W26271  17.538   4.557  12.386
53957W        W26272  11.450  39.050   2.555
53958W        W26273  10.717   0.770  12.049
53959W        W26274  36.845  37.939   1.708
53960W        W26275  43.204  14.119   0.114
53961W        W26276  41.235  44.082   2.842
53962W        W26277   5.947  15.529   4.193
53963W        W26278  33.554   8.376  10.492
53964W        W26279   9.800   5.167   1.568
53965W        W26280  22.175  21.053   1.246
53966W        W26281  33.671  30.147   5.100
53967W        W26282  12.373  36.544  11.569
53968W        W26283  20.766  42.088   3.744
53969W        W26284  25.071   2.911   0.288
53970W        W26285  17.545   0.236  11.567
53971W        W26286   8.084   0.551  10.691
53972W        W26287  39.247  44.178  10.665
53973W        W26288  41.816  13.736   2.794
53974W        W26289  19.548  33.827   2.196
53975W        W26290  19.302  26.543   1.365
53976W        W26291  27.287  21.011  13.629
53977W        W26292  12.534  25.936   1.832
53978W        W26293  37.464  42.295   2.910
53979W        W26294  18.303   6.759  11.116
53980W        W26295  31.979  29.096  12.598
53981W        W26296  26.453  14.653  10.573
53982W        W26297   6.002  12.577  14.853
53983W        W26298  10.305  28.904   4.384
53984W        W26299   9.210  44.352   0.804
53985W        W26300   1.107  31.571  12.544
53986W        W26301  17.041   9.512   5.445
53987W        W26302  19.340  43.262  11.633
53988W        W26303  11.278  23.010  13.347
53989W        W26304   0.341  43.393   4.907
53990W        W26305  44.846  36.673  12.668
53991W        W26306   2.184   7.667  11.666
53992W        W26307   5.104   5.834   4.318
53993W        W26308   3.801   0.992   4.085
53994W        W26309   7.302  33.386  14.873
53995W        W26310   9.887  18.624   1.946
53996W        W26311   0.663  42.286  12.607
53997W        W26312  26.477   2.201   1.671
53998W        W26313  44.098  34.949  10.216
53999W        W26314   8.354  10.722  14.688
54000W        W26315   1.898  29.509   1.687
54001W        W26316  44.270  31.374  11.643
54002W        W26317  35.652  35.916   1.823
54003W        W26318   2.611   0.222   3.648
54004W        W26319   1.279  42.819   1.060
54005W        W26320   5.468  38.067   1.704
54006W        W26321  25.530  30.902   1.663
54007W        W26322  25.373  26.416   2.307
54008W        W26323   6.329  33.895  12.861
54009W        W26324  16.584  25.510  10.577
54010W        W26325  39.505  16.493   1.860
54011W        W26326  34.898  36.017   1.469
54012W        W26327   2.824   7.470   3.228
54013W        W26328  42.782   0.976   0.404
54014W        W26329  30.520  27.452   2.150
54015W        W26330  34.510  18.956   4.095
54016W        W26331   6.853  28.658  10.709
54017W        W26332  27.154   4.426   3.154
54018W        W26333   9.896  13.379  11.198
54019W        W26334  40.004  25.146  14.450
54020W        W26335  18.180  22.984   4.760
54021W        W26336   7.690  36.114   1.413
54022W        W26337  12.684  43.061   2.699
54023W        W26338   1.081  41.922  10.731
54024W        W26339  21.167   6.268   3.181
54025W        W26340  29.189  24.241  14.392
54026W        W26341  38.387  14.661   3.094
54027W        W26342  32.794   9.661   3.750
54028W        W26343  38.854  41.793   2.370
54029W        W26344  14.153  32.629  13.877
54030W        W26345  26.587  24.582   4.444
54031W        W26346  27.925  40.803   4.091
54032W        W26347  20.459  30.808   2.382
54033W        W26348  34.988  34.666   3.721
54034W        W26349  18.771   7.479   3.117
54035W        W26350   5.495  30.422  11.991
54036W        W26351   5.735  10.796   2.469
54037W        W26352  17.233  19.240   2.624
54038W        W26353  41.595  20.020  14.725
54039W        W26354   3.690  33.680   2.624
54040W        W26355  19.770  23.645   3.767
54041W        W26356  32.097  28.454  11.767
54042W        W26357  23.204  14.066  11.888
54043W        W26358   1.358   2.857  14.413
54044W        W26359  21.799  33.328  14.987
54045W        W26360   2.278  22.531   1.329
54046W        W26361   5.394  44.482  11.587
54047W        W26362  30.272  35.393   4.156
54048W        W26363  40.433  30.130  12.519
54049W        W26364  20.514  35.563   0.239
54050W        W26365  34.347   9.229   2.818
54051W        W26366  34.160  14.310  11.217
54052W        W26367  14.148  43.689  12.571
54053W        W26368  38.303  36.722   0.788
54054W        W26369   8.394  25.663  14.097
54055W        W26370  25.145  40.011  14.786
54056W        W26371  30.190  32.983   3.137
54057W        W26372  22.038  23.600  13.417
54058W        W26373  42.441  33.645  10.535
54059W        W26374  16.791  38.491   0.978
54060W        W26375  36.053  42.763  10.926
54061W        W26376  15.565  11.688  14.821
54062W        W26377  31.841   2.018   1.251
54063W        W26378  13.816  33.575   1.193
54064W        W26379  12.300  24.779  12.832
54065W        W26380   9.393  38.821  12.907
54066W        W26381  40.122  14.475  13.634
54067W        W26382  25.239  22.375  11.784
54068W        W26383   5.312  37.609  14.253
54069W        W26384  25.452  36.159   4.169
54070W        W26385  25.689   0.545   2.062
54071W        W26386  15.199   9.375   1.808
54072W        W26387  26.854  19.579   2.770
54073W        W26388  23.320  42.896   0.895
54074W        W26389   8.381  37.900   2.721
54075W        W26390  26.016   5.169   0.988
54076W        W26391  21.666   1.182  14.633
54077W        W26392  29.622  38.891  11.451
54078W        W26393  25.608   0.421  12.877
54079W        W26394  40.928  44.885   2.263
54080W        W26395  40.726  29.981   4.042
54081W        W26396   9.707  11.758  12.457
54082W        W26397  19.277  41.972  13.571
54083W        W26398  17.732  37.998  14.930
54084W        W26399   2.796  17.671   3.899
54085W        W26400  17.536  13.200  14.981
54086W        W26401  36.949  36.021   4.882
54087W        W26402  30.404   5.307   4.491
54088W        W26403  36.990  35.841   2.294
54089W        W26404   8.500  25.338   0.429
54090W        W26405  22.554  22.990  12.458
54091W        W26406  21.739   1.181   2.859
54092W        W26407  10.873  39.950  11.101
54093W        W26408  29.041   2.719   3.939
54094W        W26409  35.506  29.202  12.172
54095W        W26410  30.738  21.396   2.847
54096W        W26411  25.053   5.983  12.598
54097W        W26412   9.341  15.750   2.027
54098W        W26413  19.757  39.236  12.849
54099W        W26414  44.367  36.039   2.539
54100W        W26415  18.326  38.007  13.916
54101W        W26416  16.329  17.591  11.601
54102W        W26417  34.124  10.104  10.799
54103W        W26418  26.756  20.180  13.915
54104W        W26419   0.346  16.143  11.990
54105W        W26420  30.490  35.642   3.312
54106W        W26421  29.484  32.155  12.881
54107W        W26422  13.739  11.244   2.966
54108W        W26423  44.400   3.042  14.085
54109W        W26424  12.569  16.740  11.999
54110W        W26425  39.408  42.432  13.457
54111W        W26426   6.489   0.197   2.809
54112W        W26427  24.020  44.544   4.195
54113W        W26428   7.246  39.277   2.855
54114W        W26429  18.843  26.696   1.173
54115W        W26430  18.660   2.685  13.095
54116W        W26431  22.819  35.507  11.668
54117W        W26432  14.428  26.499   1.797
54118W        W26433  27.265   2.820  10.342
54119W        W26434   0.211  27.611  14.940
54120W        W26435  35.039   6.246  13.865
54121W        W26436  17.206  17.010   0.316
54122W        W26437  28.628  31.179  11.631
54123W        W26438  44.525   7.949  13.436
54124W        W26439  25.168  19.020  12.042
54125W        W26440  22.454  11.871   1.251
54126W        W26441  40.525   0.251  11.563
54127W        W26442  21.980   1.323   1.644
54128W        W26443   3.600  19.794   0.351
54129W        W26444  30.400  11.081   2.467
54130W        W26445   3.254   5.037  10.736
54131W        W26446   0.039   4.761   0.523
54132W        W26447   0.090  15.577  14.528
54133W        W26448   6.223  24.504   1.515
54134W        W26449  28.859  31.653   1.520
54135W        W26450   0.512  40.675   0.151
54136W        W26451  26.719   3.813   2.247
54137W        W26452  19.149  39.887   0.452
54138W        W26453   5.244   3.854  13.577
54139W        W26454  43.864   2.008  13.963
54140W        W26455  35.390  21.942  13.328
54141W        W26456   4.636  11.338   0.870
54142W        W26457  17.637  14.210  14.794
54143W        W26458   9.272   9.071   0.456
54144W        W26459  13.270  20.320   0.952
54145W        W26460  16.149   1.728  11.137
54146W        W26461  25.430   6.299  13.896
54147W        W26462  44.224  15.603   0.377
54148W        W26463   3.887   1.678   2.630
54149W        W26464  40.597  41.925  13.394
54150W        W26465  14.437  41.508   4.086
54151W        W26466   4.322  32.705  12.603
54152W        W26467  33.403  17.735  14.931
54153W        W26468  20.070   3.483  14.901
54154W        W26469  31.580  36.679   3.106
54155W        W26470  25.917   2.825  11.666
54156W        W26471   2.755   0.978   0.707
54157W        W26472  15.871   0.427   0.817
54158W        W26473   9.769  22.024  14.014
54159W        W26474   6.213  35.021   1.388
54160W        W26475  37.303  17.402  14.066
54161W        W26476  43.317  24.934   3.226
54162W        W26477   0.643  32.272  12.934
54163W        W26478   1.937  19.619   4.625
54164W        W26479  18.741  32.473   1.820
54165W        W26480  18.146  23.075   4.244
54166W        W26481   9.727  30.706  14.152
54167W        W26482  26.178  25.235  13.759
54168W        W26483   1.663   3.223  11.036
54169W        W26484   1.494  19.888   0.251
54170W        W26485  38.275   8.295  13.984
54171W        W26486  10.769  39.588  10.753
54172W        W26487  10.309  30.670   2.217
54173W        W26488  32.857   1.478  12.837
54174W        W26489  13.152   6.860  12.514
54175W        W26490  24.198  21.430  14.050
54176W        W26491  32.602  19.198  13.890
54177W        W26492  32.137  44.622   0.739
54178W        W26493  20.713   8.381  12.373
54179W        W26494  31.721  29.479  12.968
54180W        W26495  10.641  28.511   4.568
54181W        W26496  24.482  37.576  13.549
54182W        W26497  18.717  41.002  11.572
54183W        W26498  18.774  42.013   1.117
54184W        W26499  30.620  38.335   0.781
54185W        W26500  12.642  39.853  14.125
54186W        W26501  32.649  20.535   2.162
54187W        W26502  25.447   2.197  14.796
54188W        W26503  42.079  39.716  11.239
54189W        W26504  23.007  14.253  14.669
54190W        W26505  23.208  35.403   1.808
54191W        W26506   3.162  26.204   1.334
54192W        W26507  37.876  20.642  11.929
54193W        W26508  35.328  23.970  14.484
54194W        W26509  30.874  32.103   3.796
54195W        W26510  11.724   1.846  11.613
54196W        W26511  18.319  11.228   3.121
54197W        W26512  36.386   0.395   0.515
54198W        W26513  44.414  25.423   3.517
54199W        W26514   1.808  15.233  14.007
54200W        W26515  20.409  37.907   1.653
54201W        W26516  26.472  32.872   2.207
54202W        W26517   2.345  30.729   0.361
54203W        W26518  21.574  40.765  12.490
54204W        W26519  28.712  43.505   0.295
54205W        W26520  32.221   2.427  13.056
54206W        W26521   2.855   5.882   3.697
54207W        W26522  34.501  26.683   5.174
54208W        W26523  31.532  11.666   1.819
54209W        W26524  25.721  41.066  14.531
54210W        W26525   1.352   8.105  12.707
54211W        W26526  23.600  16.057  14.970
54212W        W26527  23.445  21.250  12.483
54213W        W26528  40.962   0.761  13.772
54214W        W26529  32.672   8.270   1.886
54215W        W26530  14.612  25.401   4.298
54216W        W26531  15.344  10.528  11.862
54217W        W26532   9.707   0.745   0.372
54218W        W26533  30.732  19.369   1.388
54219W        W26534   4.491  16.543  14.988
54220W        W26535  32.166   7.474   5.026
54221W        W26536  33.548  22.525   1.714
54222W        W26537  40.413   0.474   4.236
54223W        W26538  25.124  14.199   1.951
54224W        W26539  44.012   0.065   2.739
54225W        W26540  33.336  11.158   4.149
54226W        W26541  23.252   8.136   2.887
54227W        W26542  39.900  13.997  11.953
54228W        W26543   4.847  33.848  11.196
54229W        W26544  12.535  23.689  13.047
54230W        W26545  13.059   8.627  12.866
54231W        W26546  28.994   6.480  11.576
54232W        W26547  26.654  19.554   3.259
54233W        W26548  23.051  13.843  10.624
54234W        W26549  38.615  32.667   2.355
54235W        W26550  34.614  40.573  14.247
54236W        W26551  41.583  43.383   3.812
54237W        W26552  28.952  18.582   2.227
54238W        W26553  44.648  17.187  11.973
54239W        W26554  41.802  18.426  10.754
54240W        W26555  21.718   3.877   2.722
54241W        W26556   3.911   4.455  11.627
54242W        W26557  23.547  12.711   1.894
54243W        W26558  25.542   7.593   3.860
54244W        W26559  21.226  13.341   0.406
54245W        W26560  10.498  12.403  13.952
54246W        W26561  43.238  27.467   2.725
54247W        W26562   0.448  40.083   1.760
54248W        W26563  13.111  31.076   4.055
54249W        W26564  11.860  22.583   1.155
54250W        W26565  26.581   6.839  13.518
54251W        W26566  17.176  39.369  13.552
54252W        W26567  38.835  37.267  14.935
54253W        W26568  33.168  32.460  10.765
54254W        W26569  21.523  15.767   4.576
54255W        W26570   9.205  27.618  14.452
54256W        W26571  28.689  12.725  12.456
54257W        W26572  20.589   7.184  14.968
54258W        W26573  39.426  34.101  10.335
54259W        W26574  27.684   5.823  11.700
54260W        W26575  13.394  23.129   0.652
54261W        W26576  19.113  21.749   2.756
54262W        W26577  31.122  35.423   0.393
54263W        W26578  25.640  20.005  13.193
54264W        W26579  15.116   2.867   1.677
54265W        W26580  27.180  10.725  10.317
54266W        W26581  27.409  42.391  12.907
54267W        W26582  27.187  36.441   2.595
54268W        W26583   6.104  19.967   2.277
54269W        W26584  43.613  13.119   0.319
54270W        W26585  30.583   0.022   4.083
54271W        W26586   0.806  18.041  13.421
54272W        W26587   6.473  20.555   2.312
54273W        W26588  14.098  17.188  10.605
54274W        W26589  23.840   1.108  13.378
54275W        W26590  22.709   2.927  14.463
54276W        W26591  12.137  21.917   1.886
54277W        W26592  37.504  18.622   0.857
54278W        W26593  22.431   1.207  13.112
54279W        W26594  44.399  27.294   4.782
54280W        W26595   3.822   7.419  11.063
54281W        W26596  40.546  38.399  14.760
54282W        W26597   8.309  28.467  12.875
54283W        W26598  14.862   0.367   3.849
54284W        W26599  37.903  28.728   2.196
54285W        W26600  42.054  43.934  13.370
54286W        W26601  11.038   0.363   3.064
54287W        W26602   2.485  44.812  13.703
54288W        W26603  26.253   4.820  11.152
54289W        W26604  16.719  30.613   0.821
54290W        W26605  42.502  28.948   0.314
54291W        W26606   1.800   6.921  14.454
54292W        W26607  20.057  38.356  11.170
54293W        W26608  20.190  41.975  12.622
54294W        W26609  41.833  40.564   4.710
54295W        W26610  29.890  37.640  14.796
54296W        W26611  22.904  44.309   5.194
54297W        W26612  35.878   9.541  13.855
54298W        W26613  18.675  40.050  12.881
54299W        W26614  40.577  31.888  10.257
54300W        W26615  23.482  22.127   5.007
54301W        W26616  13.535  31.973   2.216
54302W        W26617  44.934  28.029   3.484
54303W        W26618   0.569  35.998   0.452
54304W        W26619  38.906   2.934  12.590
54305W        W26620  18.276  31.947  11.082
54306W        W26621  19.758   3.139  11.910
54307W        W26622  32.354  21.021  14.791
54308W        W26623  26.959  27.004   4.557
54309W        W26624  20.978  13.705   2.816
54310W        W26625  27.051  27.544  12.916
54311W        W26626  14.678  44.290  14.945
54312W        W26627  38.532   7.007   0.621
54313W        W26628   9.714  31.919   3.192
54314W        W26629  16.113  27.164  12.045
54315W        W26630   5.052  44.102   2.588
54316W        W26631  40.691  11.827   4.146
54317W        W26632  34.101  15.682   3.699
54318W        W26633  26.014   2.707   0.436
54319W        W26634   3.783  39.176   1.681
54320W        W26635  33.634  40.575   1.762
54321W        W26636  15.870  14.597   2.346
54322W        W26637  39.927   4.718  12.964
54323W        W26638  27.402   5.631  10.197
54324W        W26639   5.003  27.899   0.674
54325W        W26640  18.753  39.530   0.876
54326W        W26641   3.176   9.567  11.880
54327W        W26642   5.149   4.318  12.711
54328W        W26643  12.788  25.053  13.647
54329W        W26644  37.757   2.448   2.360
54330W        W26645  10.884  15.243  11.932
54331W        W26646  19.147  19.187  14.438
54332W        W26647  14.820  20.749  14.205
54333W        W26648   5.004  15.844  10.369
54334W        W26649  31.327  31.268   2.760
54335W        W26650  21.212  41.819  10.642
54336W        W26651  22.639  33.157  12.800
54337W        W26652  13.657  41.810   0.016
54338W        W26653  11.250  28.854  14.376
54339W        W26654  34.021  25.142  11.852
54340W        W26655  38.083  43.430   2.727
54341W        W26656   5.955  24.023  13.566
54342W        W26657  12.806  34.422   3.611
54343W        W26658  41.116  30.260  14.975
54344W        W26659  11.880  44.312  11.805
54345W        W26660  27.525  41.968  11.185
54346W        W26661   6.094  39.392  13.730
54347W        W26662   0.241   9.209   3.267
54348W        W26663  41.881  31.014  12.368
54349W        W26664  43.473  11.190  14.457
54350W        W26665   4.291  12.751  10.879
54351W        W26666  15.488   1.935   2.418
54352W        W26667  33.325  27.409  11.512
54353W        W26668  22.207  34.129  12.459
54354W        W26669  33.044  14.582   1.775
54355W        W26670  17.699   1.233   4.719
54356W        W26671  15.518   9.099   1.211
54357W        W26672  17.657  35.850   1.663
54358W        W26673  37.427  37.300   0.212
54359W        W26674   9.205  15.562   3.434
54360W        W26675  31.372  23.216   2.771
54361W        W26676   6.788  10.195  14.139
54362W        W26677   7.356  16.982   1.780
54363W        W26678   7.891  26.642   2.212
54364W        W26679   1.971  41.729  13.447
54365W        W26680   4.757  32.254  10.245
54366W        W26681  25.755   5.364   5.304
54367W        W26682  18.343  44.917   0.396
54368W        W26683  26.473  19.704  10.823
54369W        W26684  34.878  33.519  10.140
54370W        W26685   6.879  42.870   4.635
54371W        W26686  33.446  35.942   4.678
54372W        W26687   3.412  10.907   3.113
54373W        W26688  35.936   5.520   1.911
54374W        W26689   2.395  24.291  11.944
54375W        W26690  14.597  41.962  14.097
54376W        W26691  43.352  18.793   1.318
54377W        W26692   3.779  37.606  14.536
54378W        W26693  21.807  15.933  13.056
54379W        W26694  21.211  29.520  11.644
54380W        W26695  29.293  11.286  11.170
54381W        W26696   5.396  40.950   1.840
54382W        W26697  31.643  30.620  13.434
54383W        W26698  34.074   2.318   3.364
54384W        W26699  33.675  32.942  10.221
54385W        W26700   7.204  19.750   0.355
54386W        W26701  10.799  27.645   0.504
54387W        W26702  20.589  32.163   1.444
54388W        W26703  33.897  12.000   0.012
54389W        W26704  43.966  31.739  14.824
54390W        W26705  42.762  37.830   3.805
54391W        W26706  15.740  30.130   3.330
54392W        W26707   7.023  22.694  12.024
54393W        W26708   3.987  17.878  12.574
54394W        W26709  13.142  15.728   3.609
54395W        W26710   4.692  21.596  12.666
54396W        W26711  18.078  43.736   2.371
54397W        W26712  41.437  39.506  14.845
54398W        W26713  42.068  37.846  12.053
54399W        W26714   0.728  38.305   3.681
54400W        W26715  38.703  15.063   4.478
54401W        W26716  19.461   9.235   2.253
54402W        W26717   3.289  34.941   1.201
54403W        W26718   8.405  25.136   4.342
54404W        W26719  16.105  15.825  14.933
54405W        W26720  26.696   9.630   2.141
54406W        W26721  30.029  18.719   0.895
54407W        W26722   5.335  14.706  10.649
54408W        W26723  43.387  41.704   0.889
54409W        W26724   2.649  17.976  10.256
54410W        W26725   7.061   9.141   2.674
54411W        W26726  41.035  31.363   4.274
54412W        W26727  22.495   2.325  12.219
54413W        W26728  41.574  36.201   0.317
54414W        W26729   3.538  40.972  11.894
54415W        W26730  10.178  11.285  12.046
54416W        W26731   8.363  31.991   4.870
54417W        W26732   4.272  30.532   2.261
54418W        W26733  22.534  16.759   2.710
54419W        W26734  11.549  25.761  14.474
54420W        W26735  18.061  34.691  11.975
54421W        W26736  24.764  13.940   1.555
54422W        W26737  44.962  36.057   2.258
54423W        W26738  18.044  14.555  14.948
54424W        W26739  30.473  42.065  13.855
54425W        W26740  24.192  20.811   4.583
54426W        W26741  28.364   1.880   4.123
54427W        W26742   2.032  40.274   2.819
54428W        W26743  23.562  22.959  14.811
54429W        W26744   6.737  18.861   0.447
54430W        W26745  15.761  28.938  11.651
54431W        W26746  13.504  43.929   2.238
54432W        W26747   2.422  22.571  13.412
54433W        W26748  27.104  43.948   0.201
54434W        W26749   2.376  31.725   4.190
54435W        W26750  31.975  20.557   4.797
54436W        W26751  28.649  41.016  13.150
54437W        W26752  32.300  40.708  12.504
54438W        W26753  42.203  44.847  14.262
54439W        W26754   8.339  14.637  10.833
54440W        W26755  33.631  16.443  11.872
54441W        W26756  25.512  21.998   3.327
54442W        W26757  42.278  36.811  14.876
54443W        W26758   6.628  32.049  11.996
54444W        W26759  32.184   3.988  14.522
54445W        W26760   4.945  35.598   5.007
54446W        W26761   5.230  37.401   0.255
54447W        W26762  11.697  23.996  14.960
54448W        W26763  28.509  36.266  14.020
54449W        W26764  41.313  36.967   4.220
54450W        W26765  41.900  13.814  13.293
54451W        W26766  19.299   6.328   3.110
54452W        W26767   8.713  10.347   3.689
54453W        W26768  43.483   7.490   4.093
54454W        W26769   8.633  29.861   1.260
54455W        W26770   1.299   7.472   1.585
54456W        W26771   2.383  20.545   0.853
54457W        W26772  14.834   0.013  13.646
54458W        W26773  25.521  14.352  13.125
54459W        W26774  11.998   9.951  14.322
54460W        W26775  21.172  35.883  14.041
54461W        W26776  12.588   2.357   3.607
54462W        W26777  15.137  22.780  14.932
54463W        W26778   5.496  18.265   0.318
54464W        W26779  24.737   2.348   3.794
54465W        W26780  40.834  13.227  13.732
54466W        W26781  29.418  37.576  11.420
54467W        W26782   4.477  24.548  11.873
54468W        W26783   9.281  32.714  13.930
54469W        W26784  40.425  38.885   0.529
54470W        W26785   2.007  22.609   0.459
54471W        W26786  39.457  34.579  10.556
54472W        W26787  22.466  12.834  10.712
54473W        W26788   5.833  26.359  14.821
54474W        W26789  39.633  41.029  11.473
54475W        W26790  18.573  16.996  11.530
54476W        W26791  24.010  23.184   0.355
54477W        W26792  15.434  38.510   3.624
54478W        W26793  20.273  22.802   1.966
54479W        W26794   2.733   7.995  11.482
54480W        W26795  43.591  15.768  11.378
54481W        W26796  19.813  24.509   2.293
54482W        W26797  23.455  20.042   0.827
54483W        W26798  34.067  44.422   4.075
54484W        W26799   6.372  19.723   1.906
54485W        W26800  14.305   6.799   2.854
54486W        W26801  41.858  30.967   0.264
54487W        W26802  19.434   8.064   5.472
54488W        W26803  40.460   2.795  14.455
54489W        W26804  41.737  15.341   1.310
54490W        W26805  40.048  28.052   3.594
54491W        W26806   5.496  34.599   2.218
54492W        W26807  16.492  30.073  11.836
54493W        W26808   7.258  34.368   1.678
54494W        W26809  31.545  29.438   2.390
54495W        W26810  15.154   9.873   1.776
54496W        W26811  39.064  36.405   3.354
54497W        W26812  42.412  44.973  12.369
54498W        W26813  29.592  15.070   4.249
54499W        W26814  32.033  38.822  12.988
54500W        W26815   6.129  36.433   0.422
54501W        W26816   9.949  30.858   2.787
54502W        W26817  13.902   1.905   3.800
54503W        W26818  40.424  25.099   1.684
54504W        W26819  27.542  43.720   3.428
54505W        W26820  14.638  43.222  11.945
54506W        W26821  36.971  43.071   0.876
54507W        W26822  41.031  35.380  10.778
54508W        W26823   0.337  28.833   1.943
54509W        W26824  16.179  35.404   2.416
54510W        W26825  37.952  14.737   4.968
54511W        W26826   9.509  18.229   5.061
54512W        W26827  30.401  10.327  13.476
54513W        W26828  42.945  10.338  14.286
54514W        W26829  39.396  16.227   4.387
54515W        W26830  19.587  15.736   1.962
54516W        W26831  10.114  26.977   1.617
54517W        W26832  29.564  13.196  11.195
54518W        W26833  26.123  41.844   4.720
54519W        W26834   4.418  21.772   4.527
54520W        W26835   8.687  32.690   4.126
54521W        W26836  27.112  44.970   2.782
54522W        W26837  14.195  11.750   1.459
54523W        W26838  14.060  36.885   4.784
54524W        W26839   8.696  43.814   2.146
54525W        W26840  15.066  43.767  14.319
54526W        W26841  44.110  29.480  11.980
54527W        W26842   5.220  15.152  14.294
54528W        W26843  32.735  40.434  14.498
54529W        W26844  33.979   3.746  12.950
54530W        W26845  32.902  31.095  11.031
54531W        W26846   8.222  30.589   3.603
54532W        W26847  40.248  17.527  11.561
54533W        W26848  18.279  44.039   4.141
54534W        W26849  36.870   5.462   2.871
54535W        W26850  31.589  32.365   0.764
54536W        W26851  38.521  35.381   1.274
54537W        W26852  43.221  31.090  12.978
54538W        W26853   3.688  41.475   3.696
54539W        W26854  29.753  36.414  12.991
54540W        W26855  24.256  30.529   5.246
54541W        W26856   2.983  17.168   1.850
54542W        W26857  33.323  36.924   3.223
54543W        W26858  31.427  42.349  12.549
54544W        W26859  11.912  43.298  10.437
54545W        W26860  15.606  12.700  13.447
54546W        W26861  15.359  22.657   4.637
54547W        W26862  35.422  30.399  11.043
54548W        W26863  34.015  26.723  11.730
54549W        W26864  39.944  39.424   2.165
54550W        W26865   4.804   6.057  14.901
54551W        W26866  41.901   7.778  11.535
54552W        W26867  20.568  31.155   1.614
54553W        W26868  23.186   6.912  11.697
54554W        W26869  43.064   7.703   1.816
54555W        W26870   2.252  40.736   4.163
54556W        W26871  21.816   1.830   0.430
54557W        W26872  17.178  40.612   4.302
54558W        W26873   3.376  26.187   2.177
54559W        W26874  42.786  35.371   4.634
54560W        W26875  15.605  12.606   2.781
54561W        W26876  16.728  20.114   4.587
54562W        W26877   5.588  19.813   4.216
54563W        W26878  35.968  38.978   0.393
54564W        W26879  29.436  38.340   0.407
54565W        W26880  31.219  25.541  11.112
54566W        W26881   0.646   8.192  11.994
54567W        W26882  24.063  36.628   0.939
54568W        W26883   2.034  12.808  11.038
54569W        W26884  10.614  17.672  14.460
54570W        W26885  13.542  19.833  12.088
54571W        W26886  34.419   6.554  11.182
54572W        W26887   7.363  29.536   3.629
54573W        W26888   4.478  39.155  12.442
54574W        W26889   6.370   5.323   0.743
54575W        W26890   6.429  44.808  10.495
54576W        W26891  43.784   4.301   2.694
54577W        W26892  36.023  24.310  11.611
54578W        W26893  23.737  26.945  14.965
54579W        W26894  24.136  37.492  12.332
54580W        W26895  41.139  27.163  11.302
54581W        W26896   8.401  43.049  13.938
54582W        W26897  30.913  39.405  14.377
54583W        W26898   1.260  36.616  13.465
54584W        W26899  34.920  33.464   3.161
54585W        W26900  12.360  20.212   0.690
54586W        W26901  17.937  15.452  14.731
54587W        W26902  12.730  33.722   4.653
54588W        W26903  17.778  43.293  13.044
54589W        W26904  42.408   2.964  13.420
54590W        W26905  41.407  15.225  12.618
54591W        W26906   5.469  40.464   0.522
54592W        W26907  18.001  32.145  11.524
54593W        W26908   7.066  36.858   4.195
54594W        W26909  15.638  44.287  13.545
54595W        W26910  21.808  33.369  13.405
54596W        W26911  40.109  13.831  11.114
54597W        W26912  44.414  30.894   2.333
54598W        W26913  41.806  11.713  14.898
54599W        W26914  40.327  35.971   0.347
54600W        W26915   2.790  29.654  13.038
54601W        W26916  18.576  18.857   0.897
54602W        W26917  27.519  21.781   0.351
54603W        W26918  15.206  38.402  11.591
54604W        W26919  36.940   6.583  10.615
54605W        W26920  43.882  22.739  10.389
54606W        W26921  40.265  19.138   2.737
54607W        W26922   6.434  22.103   4.752
54608W        W26923  25.015  15.081   1.307
54609W        W26924  25.671  32.221   1.944
54610W        W26925   5.798  23.186   2.239
54611W        W26926  38.358  12.159   0.545
54612W        W26927  17.776  40.583  13.421
54613W        W26928  15.104  41.293   0.987
54614W        W26929  30.002  38.008  10.685
54615W        W26930  23.451  29.980   2.723
54616W        W26931  14.786  26.102   0.940
54617W        W26932  26.059   1.317   2.247
54618W        W26933  31.421  31.579   1.386
54619W        W26934   2.108  35.584  13.048
54620W        W26935   5.976  20.541  13.561
54621W        W26936  10.788   9.919  13.903
54622W        W26937   5.975  19.451   2.248
54623W        W26938  27.672   9.705   0.544
54624W        W26939   7.667  18.633  13.071
54625W        W26940  28.562  24.452   0.676
54626W        W26941  21.022  29.233  11.231
54627W        W26942  36.947   7.261   1.211
54628W        W26943  12.273  21.768   2.369
54629W        W26944  10.256  24.995  14.926
54630W        W26945   4.764  25.617   3.122
54631W        W26946  12.663  31.504  10.968
54632W        W26947   9.228  15.587   4.617
54633W        W26948   9.763  15.652  11.774
54634W        W26949  41.872  37.691   5.002
54635W        W26950   3.847  42.993  13.018
54636W        W26951  10.791  13.292  11.383
54637W        W26952  32.099  40.607   3.465
54638W        W26953  37.790  15.535   2.891
54639W        W26954   5.910  34.060   0.952
54640W        W26955  26.603  33.358  14.465
54641W        W26956  36.104  31.365  13.040
54642W        W26957   4.748  37.257  11.200
54643W        W26958  36.269  16.837   4.151
54644W        W26959  39.037   1.339  13.408
54645W        W26960   2.391  28.919  11.631
54646W        W26961  19.071  40.755   4.631
54647W        W26962   5.680  20.199  12.023
54648W        W26963  21.686  27.605   0.939
54649W        W26964  10.840  18.702  11.113
54650W        W26965   3.208  10.230   4.662
54651W        W26966  10.274   6.270  12.884
54652W        W26967  33.932  31.116  13.315
54653W        W26968   1.239  44.081  14.257
54654W        W26969  41.170  18.468   5.102
54655W        W26970  26.265  33.048  10.665
54656W        W26971  26.881  31.960   5.060
54657W        W26972  36.944  28.358  10.700
54658W        W26973  20.875  39.796   4.100
54659W        W26974  35.482  39.664   1.575
54660W        W26975  32.852   8.925  12.436
54661W        W26976   6.710  12.086   3.328
54662W        W26977  40.914  25.135   3.064
54663W        W26978   5.526  28.728   1.698
54664W        W26979  41.576  43.931  11.171
54665W        W26980  16.043   8.769   4.016
54666W        W26981  25.471   1.620   0.966
54667W        W26982  39.863  44.831   3.125
54668W        W26983  42.384  34.026  11.665
54669W        W26984  23.090   1.218  11.090
54670W        W26985  16.330  40.750  12.076
54671W        W26986  26.766  39.914   4.293
54672W        W26987  15.860  12.905   4.533
54673W        W26988  22.896  30.073   4.684
54674W        W26989  30.649  12.979  13.472
54675W        W26990  44.817  33.048  12.493
54676W        W26991  35.333  34.140   2.453
54677W        W26992  43.793  23.595  13.502
54678W        W26993  20.913  31.999   1.817
54679W        W26994   9.593  26.476   4.093
54680W        W26995   7.273  34.382   3.657
54681W        W26996  19.675  41.013   0.835
54682W        W26997   2.490   1.792  10.654
54683W        W26998  11.855  28.558  12.980
54684W        W26999  10.243  18.346  11.897
54685W        W27000   8.619  11.213  13.937
54686W        W27001  44.105  17.323   0.451
54687W        W27002  19.981   9.189   2.388
54688W        W27003  29.052  21.092   4.638
54689W        W27004  17.980   1.878   2.259
54690W        W27005  24.849  42.469   1.721
54691W        W27006   1.198  31.048  12.600
54692W        W27007  22.985  15.149   2.828
54693W        W27008  32.589  13.220  13.971
54694W        W27009  10.184   9.260  11.310
54695W        W27010   7.171   1.844   1.766
54696W        W27011  11.484  34.788   1.724
54697W        W27012  43.429  11.329  13.456
54698W        W27013  14.771  12.049   3.829
54699W        W27014  32.553   9.428  14.904
54700W        W27015   1.429   8.435  14.986
54701W        W27016  38.849  24.074   2.601
54702W        W27017  43.225   7.960   4.085
54703W        W27018  12.865  34.996   4.798
54704W        W27019  13.214  34.270   1.359
54705W        W27020  14.179  16.114  11.535
54706W        W27021  42.326  12.779  12.238
54707W        W27022  34.910  17.665  13.943
54708W        W27023  26.728  41.978   5.093
54709W        W27024  40.005  27.409  14.443
54710W        W27025  29.755  30.568  12.923
54711W        W27026  24.784  13.196  10.702
54712W        W27027   0.329  42.841  13.922
54713W        W27028   3.363  36.320  12.999
54714W        W27029  15.880  41.511  12.200
54715W        W27030  41.357  34.802  14.991
54716W        W27031  44.244   6.118   4.162
54717W        W27032   6.275  12.598  14.412
54718W        W27033  19.756  41.476   4.915
54719W        W27034  30.079  13.593  13.486
54720W        W27035  40.291  15.081   1.309
54721W        W27036  22.635  10.473   3.754
54722W        W27037  17.163   6.893  13.962
54723W        W27038  28.919   5.345  13.416
54724W        W27039  23.084  32.203   4.244
54725W        W27040  23.240  39.228  12.043
54726W        W27041  22.798  13.384   0.376
54727W        W27042  32.733  15.578  14.877
54728W        W27043  19.593  32.480  12.001
54729W        W27044  18.961   1.936  10.735
54730W        W27045   6.704  21.392  13.919
54731W        W27046   6.240   7.433  11.958
54732W        W27047  15.771  36.136  13.446
54733W        W27048  16.896  13.925  14.352
54734W        W27049  18.612   6.333  13.825
54735W        W27050  21.170  20.752  14.070
54736W        W27051  42.949   6.274   3.319
54737W        W27052  21.285  40.262   3.232
54738W        W27053  14.891   2.448   1.480
54739W        W27054  38.826  13.604  14.093
54740W        W27055  42.430  28.054   1.375
54741W        W27056   7.922   0.972  14.891
54742W        W27057   6.963   8.276  10.910
54743W        W27058  37.790  38.336  11.346
54744W        W27059   3.879  22.217   2.829
54745W        W27060  27.858  38.226   0.839
54746W        W27061  16.308  27.454   0.147
54747W        W27062  30.991  40.349   0.432
54748W        W27063   2.704  41.936  12.289
54749W        W27064  15.805  26.081   3.385
54750W        W27065  14.275  28.714   0.421
54751W        W27066  43.568  35.810  13.539
54752W        W27067  12.231  33.937  13.284
54753W        W27068  12.806   2.072   2.676
54754W        W27069  25.868   1.889  14.733
54755W        W27070  23.199  31.545  13.304
54756W        W27071  11.898  34.564  10.618
54757W        W27072  23.181  44.304   1.197
54758W        W27073  35.131  11.745  13.882
54759W        W27074   2.052  44.951   0.353
54760W        W27075  23.029  36.728   3.256
54761W        W27076  15.262  25.897   0.838
54762W        W27077   5.315  21.532  14.952
54763W        W27078  43.643  25.052   1.369
54764W        W27079  16.849   1.377  11.036
54765W        W27080  43.081  15.258   1.777
54766W        W27081  25.556  17.133  11.505
54767W        W27082   2.828  21.526  11.143
54768W        W27083  32.634  34.384  14.990
54769W        W27084  18.200  40.798   2.767
54770W        W27085   3.748  29.945  13.395
54771W        W27086   9.479  19.771   4.885
54772W        W27087  38.374  37.919   1.370
54773W        W27088  27.972  12.203  10.289
54774W        W27089  30.590  44.961  13.697
54775W        W27090  42.878  15.752  10.151
54776W        W27091  30.948  26.106   3.829
54777W        W27092  43.095  14.757  13.484
54778W        W27093  21.526  14.331   3.696
54779W        W27094   2.090  30.136   4.724
54780W        W27095  27.482  17.040  10.966
54781W        W27096  10.341  26.470  10.634
54782W        W27097  38.356   3.999  12.001
54783W        W27098  43.804   5.952   0.700
54784W        W27099  34.829  44.760  14.371
54785W        W27100   8.727   7.555   1.915
54786W        W27101  12.176  34.163   4.783
54787W        W27102  20.768  25.268   0.329
54788W        W27103  29.661  41.264  12.582
54789W        W27104  30.019   4.815   3.064
54790W        W27105   4.651  33.592   2.636
54791W        W27106  23.265  33.070   2.790
54792W        W27107  37.008  34.440  14.053
54793W        W27108  41.605  38.879   4.105
54794W        W27109  24.321  12.419   3.769
54795W        W27110   3.269  18.658  12.553
54796W        W27111  42.497  35.096  13.516
54797W        W27112  25.465  27.952  14.425
54798W        W27113  33.913  21.740   3.740
54799W        W27114  42.236  21.116   3.678
54800W        W27115  30.547  12.343  12.224
54801W        W27116   0.281  36.406   0.366
54802W        W27117  38.462  36.013  11.574
54803W        W27118  20.231  13.294  14.451
54804W        W27119  16.972  31.660   1.292
54805W        W27120  31.700   8.396   1.738
54806W        W27121   6.629  22.114   0.597
54807W        W27122  37.475  39.783   2.187
54808W        W27123  29.381   5.739  12.521
54809W        W27124  10.775  12.101  14.653
54810W        W27125  31.911  26.482  10.957
54811W        W27126  23.425  35.966   1.280
54812W        W27127  28.987   1.302  10.692
54813W        W27128   6.897   3.520   4.034
54814W        W27129  26.975  28.388  11.866
54815W        W27130  38.535  43.473  13.532
54816W        W27131  22.934   3.808   4.053
54817W        W27132  44.013  28.519   2.981
54818W        W27133  36.551  44.090   1.494
54819W        W27134  26.319  44.970   3.220
54820W        W27135  13.858  26.445   3.251
54821W        W27136  15.691  41.938  13.356
54822W        W27137  44.215   0.526  13.420
54823W        W27138  23.858  40.664  13.535
54824W        W27139  25.147  17.837   4.238
54825W        W27140  38.926   3.496   4.121
54826W        W27141  30.161   4.432   3.858
54827W        W27142  33.012  24.309   3.596
54828W        W27143  37.215  26.166  13.942
54829W        W27144  42.926  12.309  12.426
54830W        W27145   8.838  25.093   4.938
54831W        W27146   9.331  43.072  14.386
54832W        W27147  24.404  19.843   2.812
54833W        W27148  37.994  25.706   2.457
54834W        W27149  38.783  20.488  11.959
54835W        W27150  11.222  10.640  12.019
54836W        W27151  27.330  27.710   2.697
54837W        W27152  35.402  19.116   4.573
54838W        W27153  12.571  38.113  13.549
54839W        W27154   1.014  35.134  10.652
54840W        W27155   8.190  40.416  10.623
54841W        W27156  29.009  15.234  12.871
54842W        W27157   4.237  21.634  14.247
54843W        W27158  13.739  16.952  12.450
54844W        W27159  12.811   8.402   4.801
54845W        W27160  20.280  24.746  12.041
54846W        W27161  15.217   9.500  12.705
54847W        W27162  12.705  18.300  12.890
54848W        W27163  20.125  11.122   3.570
54849W        W27164  19.399  20.253   4.840
54850W        W27165  19.512  18.809   0.984
54851W        W27166   5.860  14.872   1.496
54852W        W27167  17.612   6.202  13.950
54853W        W27168  11.236  12.336  12.207
54854W        W27169  21.047  39.998   4.998
54855W        W27170  12.531  18.753  14.725
54856W        W27171   9.538  36.716   0.826
54857W        W27172   9.691  20.808  11.974
54858W        W27173  29.743  32.339   2.228
54859W        W27174  43.445  41.984  10.605
54860W        W27175   7.697  28.909   4.632
54861W        W27176  27.210  39.806   0.845
54862W        W27177  41.418  41.554  11.954
54863W        W27178   6.280  43.140  12.038
54864W        W27179   1.999  43.331   3.564
54865W        W27180  32.159   8.793  12.998
54866W        W27181   8.805  24.468   4.417
54867W        W27182  34.157   3.715   1.733
54868W        W27183  37.434   3.129   1.285
54869W        W27184   3.413  38.576   1.347
54870W        W27185  37.371  29.548   3.789
54871W        W27186  15.211   7.610  10.824
54872W        W27187   9.592  18.832   5.487
54873W        W27188  41.707  17.196   3.189
54874W        W27189  30.063  31.119   4.171
54875W        W27190  40.577   6.939   0.304
54876W        W27191   0.953   9.536   5.471
54877W        W27192   7.858   7.135  13.923
54878W        W27193   1.374  40.034  11.161
54879W        W27194  13.719  22.125   1.198
54880W        W27195  37.682   4.364  12.589
54881W        W27196  35.331  17.510  14.309
54882W        W27197  10.672  26.364  11.585
54883W        W27198   6.283  35.684  12.515
54884W        W27199   5.799   0.578  14.375
54885W        W27200   1.874   0.789   4.500
54886W        W27201  28.069  31.475   0.266
54887W        W27202  29.597   1.062   0.518
54888W        W27203  34.358  31.469  10.978
54889W        W27204  39.376  38.048  12.783
54890W        W27205   5.456  43.324  13.295
54891W        W27206  32.374  15.077   1.192
54892W        W27207  23.502  40.994  13.808
54893W        W27208  32.200  44.415   2.254
54894W        W27209  27.890  15.134  11.610
54895W        W27210  18.282   2.344   2.231
54896W        W27211  24.006  24.760  12.088
54897W        W27212  30.332  35.638   0.767
54898W        W27213  25.976   9.726  12.477
54899W        W27214  23.231   4.787   4.100
54900W        W27215   3.336   5.276   2.668
54901W        W27216  20.270  28.984  14.835
54902W        W27217  25.571   9.242   2.213
54903W        W27218  20.708  32.944  11.709
54904W        W27219  33.474  14.805  12.043
54905W        W27220  19.130  10.681   4.148
54906W        W27221  24.503  41.419  12.769
54907W        W27222  25.579  37.186  14.520
54908W        W27223  19.780  29.147   2.816
54909W        W27224  23.183  39.137   4.648
54910W        W27225  27.636  34.411  12.529
54911W        W27226  37.502   6.387   3.711
54912W        W27227  24.720  17.724   4.519
54913W        W27228   3.390  30.135  12.477
54914W        W27229   7.321  19.345  11.255
54915W        W27230  27.751  42.506   0.311
54916W        W27231  31.484  21.078  13.428
54917W        W27232  18.681  35.034   2.324
54918W        W27233  15.530  44.055  10.546
54919W        W27234  33.940  30.313  12.109
54920W        W27235  12.934  39.190  11.528
54921W        W27236  19.427  11.188  10.550
54922W        W27237  23.088  36.280  13.497
54923W        W27238  22.836  39.498  11.081
54924W        W27239  32.379  28.543   0.955
54925W        W27240   5.414  13.554  12.917
54926W        W27241   6.627  32.306   4.395
54927W        W27242  25.032  31.431   2.328
54928W        W27243  40.483  13.804   3.123
54929W        W27244  33.337  15.949   3.946
54930W        W27245  14.825   0.777  11.980
54931W        W27246  19.904   4.360   0.752
54932W        W27247   3.205  39.608   0.388
54933W        W27248  40.114  36.435   0.436
54934W        W27249  43.526   5.922  10.744
54935W        W27250  27.940   4.438  14.934
54936W        W27251  32.259  39.568   0.569
54937W        W27252  44.537  34.390  13.520
54938W        W27253  36.850  25.453   4.641
54939W        W27254  35.141  33.160   0.280
54940W        W27255  13.585  40.380   3.562
54941W        W27256  30.847  30.120   3.715
54942W        W27257   8.904  25.674  11.855
54943W        W27258   9.219  21.146   3.829
54944W        W27259   8.883  35.029  11.003
54945W        W27260  35.548  14.390  12.123
54946W        W27261  40.052  13.245   1.174
54947W        W27262   2.841  37.601   0.560
54948W        W27263  12.616  38.639  13.818
54949W        W27264  40.073  26.099   4.017
54950W        W27265  24.551  17.027  11.535
54951W        W27266  18.775  16.733   2.257
54952W        W27267  43.309   3.910   4.207
54953W        W27268  18.238  17.659   0.523
54954W        W27269  25.291  30.173  11.076
54955W        W27270  10.623  20.773   0.904
54956W        W27271  39.428  40.849  11.921
54957W        W27272  40.863  27.686  14.875
54958W        W27273  12.792   4.465   0.037
54959W        W27274  33.569  10.156   4.087
54960W        W27275   5.738   1.718  11.174
54961W        W27276  13.863  32.632   4.579
54962W        W27277   1.927  43.996   2.312
54963W        W27278  27.173  29.691   4.049
54964W        W27279  17.831  22.278  13.894
54965W        W27280  33.618   1.567   0.008
54966W        W27281   3.957  38.853   4.217
54967W        W27282  16.329  29.000   2.224
54968W        W27283  12.742  22.978  11.556
54969W        W27284  37.830  26.488   3.730
54970W        W27285  43.031  27.928   2.627
54971W        W27286  39.288   8.469   0.881
54972W        W27287  41.743   5.424   4.228
54973W        W27288  30.901   6.138  13.888
54974W        W27289  39.018  36.894   2.090
54975W        W27290  11.113   3.469   1.836
54976W        W27291   9.834  38.949  12.416
54977W        W27292   3.769  37.438  11.590
54978W        W27293  19.232   7.852  12.567
54979W        W27294  28.838  40.908  11.224
54980W        W27295  19.107   4.770  11.528
54981W        W27296  36.979  25.043   3.393
54982W        W27297  40.517   1.956  11.989
54983W        W27298  36.125   7.920  11.580
54984W        W27299  33.360  26.532  11.422
54985W        W27300  16.852  15.182   3.292
54986W        W27301   0.433   3.721  10.515
54987W        W27302  17.621  34.815  14.226
54988W        W27303  39.768  28.019  12.026
54989W        W27304   7.274  11.389  11.949
54990W        W27305  24.200   3.475  12.129
54991W        W27306  42.993  30.870  10.941
54992W        W27307  20.630  16.687  14.269
54993W        W27308  30.787  12.283  11.762
54994W        W27309   9.226   6.445   4.021
54995W        W27310  28.073  22.108  10.092
54996W        W27311  27.211   3.763  12.502
54997W        W27312  21.680  25.498  10.670
54998W        W27313   7.117   0.384  12.808
54999W        W27314  35.012  25.275   4.197
55000W        W27315  25.579   1.111   0.252
55001W        W27316  25.996  34.407  11.603
55002W        W27317   8.915  35.440  12.116
55003W        W27318  26.193  31.593   9.585
55004W        W27319  10.333  37.664  13.921
55005W        W27320  15.567  30.930   4.130
55006W        W27321  17.694  44.417   4.813
55007W        W27322  24.001  37.552   4.464
55008W        W27323  20.372   6.184   0.814
55009W        W27324   1.230  24.545   1.252
55010W        W27325  14.805  18.311  10.735
55011W        W27326  22.249   1.741   1.465
55012W        W27327  11.093  26.158  12.842
55013W        W27328  39.453  17.815   4.488
55014W        W27329   9.093  30.515   4.154
55015W        W27330  28.169  26.692  12.020
55016W        W27331  38.115  37.041  14.037
55017W        W27332   1.819  29.657   2.167
55018W        W27333   1.496   3.800  14.694
55019W        W27334  20.419  35.040   3.568
55020W        W27335  15.603  33.565   1.647
55021W        W27336  38.313   3.193   1.278
55022W        W27337  27.452  16.964  10.462
55023W        W27338  33.427  30.748  11.031
55024W        W27339  30.801  42.685   0.782
55025W        W27340  17.512  43.471  12.028
55026W        W27341   8.320  10.447  12.012
55027W        W27342  33.597  44.139   0.334
55028W        W27343  12.418  16.094   1.822
55029W        W27344  29.941  19.103   4.374
55030W        W27345  29.573  20.804  10.504
55031W        W27346  16.741  18.550   0.828
55032W        W27347   0.406  26.390   4.601
55033W        W27348  40.425  29.068  10.715
55034W        W27349  31.527  41.781  10.711
55035W        W27350   1.807   2.193  12.642
55036W        W27351   0.517  29.482   2.739
55037W        W27352  22.421  37.690  12.297
55038W        W27353  38.131   3.325   3.693
55039W        W27354  19.982  31.237  14.973
55040W        W27355   7.714  23.117  13.464
55041W        W27356   1.826   2.995  14.261
55042W        W27357   8.406   5.797   3.755
55043W        W27358   0.027   8.356  14.868
55044W        W27359  15.142  31.740   2.919
55045W        W27360   1.703  25.022  13.520
55046W        W27361   1.681  32.109   4.180
55047W        W27362  33.019  26.762  11.072
55048W        W27363  25.061  28.706   3.862
55049W        W27364  31.365  32.196  11.502
55050W        W27365  43.779  25.971   3.739
55051W        W27366   2.216  38.222   3.614
55052W        W27367  12.100  38.096  13.335
55053W        W27368  16.687  37.908  11.080
55054W        W27369  40.539  29.111  13.530
55055W        W27370  20.646  24.373  13.228
55056W        W27371  40.337  26.687   2.129
55057W        W27372  29.913  10.673  11.353
55058W        W27373  30.467  35.950   4.868
55059W        W27374   9.616   1.713  10.640
55060W        W27375  19.809  15.198   0.108
55061W        W27376  34.484  24.253  12.121
55062W        W27377  42.073  16.628   3.247
55063W        W27378   3.428  27.350  11.822
55064W        W27379  18.794  30.420   9.868
55065W        W27380  17.155  11.275  14.440
55066W        W27381   9.843  22.220  13.149
55067W        W27382  28.964  11.688  11.192
55068W        W27383  18.516  30.886  10.035
55069W        W27384  10.922  33.054   2.294
55070W        W27385  20.642  15.011   1.737
55071W        W27386   5.847  25.350   3.718
55072W        W27387   4.030  21.219   1.322
55073W        W27388  14.872   8.714  11.907
55074W        W27389  38.457  21.725  14.268
55075W        W27390  24.878  13.563   0.429
55076W        W27391  32.023  36.890   2.197
55077W        W27392  24.664   9.993  14.998
55078W        W27393  37.278  14.629  13.545
55079W        W27394  21.157  44.442   4.644
55080W        W27395   1.026  10.001   1.991
55081W        W27396  15.900  44.018  13.984
55082W        W27397  17.998  21.264  10.171
55083W        W27398   2.420  20.792  13.624
55084W        W27399   5.260  20.585  11.468
55085W        W27400  40.428  35.080   0.847
55086W        W27401  15.060   8.156  11.647
55087W        W27402  42.937   5.924  12.855
55088W        W27403  24.753  32.028   1.688
55089W        W27404   5.754  29.010   3.191
55090W        W27405  34.119  32.773  11.529
55091W        W27406  13.438   5.257  12.414
55092W        W27407  16.969  25.591   4.060
55093W        W27408   5.919  12.839   1.272
55094W        W27409  40.029   0.778   3.352
55095W        W27410  22.903  39.793   4.120
55096W        W27411  40.864  37.565  14.893
55097W        W27412   9.728  28.997   1.079
55098W        W27413  23.573  25.207  14.887
55099W        W27414  30.878  10.859   0.306
55100W        W27415  38.491  23.448   4.067
55101W        W27416  26.495   0.912  12.075
55102W        W27417  19.463  11.304  10.051
55103W        W27418   2.429   5.718   4.028
55104W        W27419   1.732  33.482  13.598
55105W        W27420  44.941  23.270  12.048
55106W        W27421  19.788  38.337   2.740
55107W        W27422   1.483  42.581  11.231
55108W        W27423  19.216  30.367   1.117
55109W        W27424  35.774  14.818  13.403
55110W        W27425  15.199  38.769   3.151
55111W        W27426  13.185   3.703   1.484
55112W        W27427  28.262  30.148   3.174
55113W        W27428  33.885   6.088  10.643
55114W        W27429  18.672  22.557  11.313
55115W        W27430  34.464  16.198   3.226
55116W        W27431  13.286   5.328   1.613
55117W        W27432  15.012  26.392   0.069
55118W        W27433  31.675   8.937  10.816
55119W        W27434   9.197   3.450  14.877
55120W        W27435  28.757   8.721   4.627
55121W        W27436  20.997  32.053   3.682
55122W        W27437  44.738  24.567  12.605
55123W        W27438  33.704  22.976   1.901
55124W        W27439  40.767  35.864   2.467
55125W        W27440  36.889  17.573   3.725
55126W        W27441  28.899  44.095   2.023
55127W        W27442  22.445   8.561   3.179
55128W        W27443  36.671  42.799  13.336
55129W        W27444   4.649  43.477   3.896
55130W        W27445  43.491  19.053   1.804
55131W        W27446   1.923  16.513   4.515
55132W        W27447   9.738   4.702  10.725
55133W        W27448   5.031  15.532   2.864
55134W        W27449   4.883   5.853   3.764
55135W        W27450   2.313   0.045   0.916
55136W        W27451   7.796  20.230   0.894
55137W        W27452  43.303  41.087   3.318
55138W        W27453  31.885  39.223   0.685
55139W        W27454  25.617   3.182  10.720
55140W        W27455  33.018   7.799  11.797
55141W        W27456  38.058   5.322   1.520
55142W        W27457  39.444  31.846   0.171
55143W        W27458  14.885   7.035  12.834
55144W        W27459  15.266  28.296  14.461
55145W        W27460  27.922  16.283   4.110
55146W        W27461  29.146  40.475  11.166
55147W        W27462  33.416  31.657   2.680
55148W        W27463   5.923  14.042  12.868
55149W        W27464  20.862  31.040   3.248
55150W        W27465  21.396  40.778  10.769
55151W        W27466  44.019  13.173  13.976
55152W        W27467  17.252  33.210   0.409
55153W        W27468  32.706   5.077  14.450
55154W        W27469  34.078  12.203   2.238
55155W        W27470   3.575  30.959  13.559
55156W        W27471  25.044  24.307  14.487
55157W        W27472   3.879  33.631  14.460
55158W        W27473  16.919   0.428   0.983
55159W        W27474  37.352  35.362   4.200
55160W        W27475  21.946   4.827  11.517
55161W        W27476  23.870  43.505  14.303
55162W        W27477  44.929  26.967  13.312
55163W        W27478  33.242  10.123   0.292
55164W        W27479   8.379  29.150  14.966
55165W        W27480  17.530  32.279  11.825
55166W        W27481  39.029  19.253  14.926
55167W        W27482  29.594  43.935   4.082
55168W        W27483   4.885  22.057  12.540
55169W        W27484  43.670  39.389  12.437
55170W        W27485   3.861  19.799  12.938
55171W        W27486  22.095  11.372  14.915
55172W        W27487  26.308  13.189  12.069
55173W        W27488   4.130  38.008   2.656
55174W        W27489   3.008  19.660   4.715
55175W        W27490  40.830   8.824  14.514
55176W        W27491  15.197  39.557  11.588
55177W        W27492  25.912  39.202  12.437
55178W        W27493  21.268  36.833  13.817
55179W        W27494  19.312   3.434   2.607
55180W        W27495  37.457  44.701  13.897
55181W        W27496  20.561  27.270   1.955
55182W        W27497   9.700  22.724   4.546
55183W        W27498  22.120  19.514  12.523
55184W        W27499  14.109  28.715   3.380
55185W        W27500  29.358  42.025   1.262
55186W        W27501  17.348  25.187  14.888
55187W        W27502  44.998   8.486   2.444
55188W        W27503  24.970  32.985  12.517
55189W        W27504  14.662  38.941   1.994
55190W        W27505   6.998  29.922  13.817
55191W        W27506  19.970  31.650   4.219
55192W        W27507  14.619  32.097  11.200
55193W        W27508  25.838  37.976   3.657
55194W        W27509  34.193  36.741   3.784
55195W        W27510  37.558  15.081   2.780
55196W        W27511  16.211   7.591   2.193
55197W        W27512  42.081  33.895   4.686
55198W        W27513  23.936  41.253  14.006
55199W        W27514  40.214  15.114   2.373
55200W        W27515  40.910  21.979  14.296
55201W        W27516   9.364  32.085  10.580
55202W        W27517   8.851  41.419   4.163
55203W        W27518   9.879  28.936   4.108
55204W        W27519  14.618  28.143   0.832
55205W        W27520  37.066  25.441   4.150
55206W        W27521   5.757   6.444  10.604
55207W        W27522  17.140  19.111   0.790
55208W        W27523  25.429   0.698  12.009
55209W        W27524   5.038  37.763  11.062
55210W        W27525  18.399   4.548   0.958
55211W        W27526   8.219   4.687  12.253
55212W        W27527   4.307   1.374  11.054
55213W        W27528  32.406  26.206  11.577
55214W        W27529  24.621  36.012   0.820
55215W        W27530  24.059  17.506   2.333
55216W        W27531   8.281  11.327   1.816
55217W        W27532  11.841  10.207  11.624
55218W        W27533  27.981  24.212   1.252
55219W        W27534  19.999  39.919   3.260
55220W        W27535  15.855  38.069   4.737
55221W        W27536  11.257   0.861   0.004
55222W        W27537  39.119  27.029   2.103
55223W        W27538  33.900  43.745   2.653
55224W        W27539  29.466  11.633   5.540
55225W        W27540  42.389   1.176   0.693
55226W        W27541  16.924  10.788   4.511
55227W        W27542  11.472   0.015  12.086
55228W        W27543  22.022  34.191  12.941
55229W        W27544  14.733  11.227   0.388
55230W        W27545  38.333  40.518  10.704
55231W        W27546   8.518  32.696   3.242
55232W        W27547  31.775  12.142  11.549
55233W        W27548  27.922  32.817   1.825
55234W        W27549  20.229  16.372  11.113
55235W        W27550  40.844  17.932  12.841
55236W        W27551  12.538  14.637   2.470
55237W        W27552  35.963  11.114  13.025
55238W        W27553  24.244   0.573  13.994
55239W        W27554   1.491  14.158   3.226
55240W        W27555  26.536  16.852  13.898
55241W        W27556   9.926  14.346   2.871
55242W        W27557   5.599  11.814  13.373
55243W        W27558  15.282  20.092  13.260
55244W        W27559  34.470  35.015   3.715
55245W        W27560  29.849  32.009  11.887
55246W        W27561  30.530  19.308   4.221
55247W        W27562  41.971  14.769   4.587
55248W        W27563  24.552  40.137   0.719
55249W        W27564  14.604   3.662  11.226
55250W        W27565  43.704  38.710  13.380
55251W        W27566  14.796  44.925   3.596
55252W        W27567  17.023  24.953   2.735
55253W        W27568  43.369  10.761   0.874
55254W        W27569  28.959   6.475   4.270
55255W        W27570   3.000  20.939   3.046
55256W        W27571  32.053  34.457   2.070
55257W        W27572  16.317  36.645  13.540
55258W        W27573  39.467  29.142  14.213
55259W        W27574  22.410   7.800   3.657
55260W        W27575  18.846   3.297   1.685
55261W        W27576  20.389  10.617   5.130
55262W        W27577  39.027  19.020  13.552
55263W        W27578  36.004  15.107  12.043
55264W        W27579  39.187  26.705  10.192
55265W        W27580  42.861  35.333  13.814
55266W        W27581   7.363  24.048   4.614
55267W        W27582  14.138   6.912  13.411
55268W        W27583   5.402  29.011   4.609
55269W        W27584  15.061   4.284   1.363
55270W        W27585  28.281  41.710   0.247
55271W        W27586  31.768  34.896   0.298
55272W        W27587  37.748  32.035   4.047
55273W        W27588  20.689   3.086   3.242
55274W        W27589  10.097  20.461   2.294
55275W        W27590  17.250   7.638   1.644
55276W        W27591  27.817  31.724  12.620
55277W        W27592  27.664  20.227   1.982
55278W        W27593  18.677  33.462   9.833
55279W        W27594  30.125  15.037   0.201
55280W        W27595  30.996   2.972   9.909
55281W        W27596  22.544  38.396   3.726
55282W        W27597  15.542   6.075   3.079
55283W        W27598   5.431  26.972   3.733
55284W        W27599  25.040  22.495  13.907
55285W        W27600  30.839   8.634  12.559
55286W        W27601  42.343  17.074  11.636
55287W        W27602  36.985  21.663   1.797
55288W        W27603  23.856  15.597  10.785
55289W        W27604  10.713  15.820   3.321
55290W        W27605  21.151  25.546   2.732
55291W        W27606  26.405  34.141   4.938
55292W        W27607  42.228  18.244  10.455
55293W        W27608  13.955  20.221  10.844
55294W        W27609   2.417  10.146   0.035
55295W        W27610  16.814  16.812  12.452
55296W        W27611  31.430   0.423  11.097
55297W        W27612  37.903  21.314  14.368
55298W        W27613  22.106  13.198  10.590
55299W        W27614  34.382   5.959  12.308
55300W        W27615   4.137  13.826   3.679
55301W        W27616  32.025   1.356  14.017
55302W        W27617  11.251  20.801   2.699
55303W        W27618  11.150  28.641   1.973
55304W        W27619  37.685  15.910   2.227
55305W        W27620   6.638  10.143   1.057
55306W        W27621  38.923  33.013   1.181
55307W        W27622   2.898  33.993  12.783
55308W        W27623  32.497  30.597  13.099
55309W        W27624  26.130  40.554   2.292
55310W        W27625  12.798   5.322   2.950
55311W        W27626   5.390  27.259  13.858
55312W        W27627  30.915   2.043  14.469
55313W        W27628   9.221  15.526  10.156
55314W        W27629  12.580  18.009  13.315
55315W        W27630  26.067  32.447   4.975
55316W        W27631  39.060  12.050  13.860
55317W        W27632  24.908  32.416  13.909
55318W        W27633  20.743  38.842  11.623
55319W        W27634   7.816  16.977   2.789
55320W        W27635  31.062  24.240   2.222
55321W        W27636  26.005  19.482   1.310
55322W        W27637   4.980  11.888   4.969
55323W        W27638   8.886  37.918  14.855
55324W        W27639  11.415  14.612  11.582
55325W        W27640  10.613  17.615   0.017
55326W        W27641  17.244  25.889  12.794
55327W        W27642  33.931  23.536  10.358
55328W        W27643   8.466   5.231   0.606
55329W        W27644  40.037  27.562   4.205
55330W        W27645  24.481  35.192  14.707
55331W        W27646  40.458  32.652   4.123
55332W        W27647   1.233  20.683  12.536
55333W        W27648  25.770  17.151  11.982
55334W        W27649  29.382  25.769   0.327
55335W        W27650  16.491  40.710   0.243
55336W        W27651  23.919  10.651   0.941
55337W        W27652  27.515  22.296   0.290
55338W        W27653  30.017  24.981  13.967
55339W        W27654   1.318  38.762   3.330
55340W        W27655  36.611  15.166  10.546
55341W        W27656  18.990  11.589  14.818
55342W        W27657  34.145  21.212  12.142
55343W        W27658  42.403  13.134   1.289
55344W        W27659   8.914  30.855   4.589
55345W        W27660  20.028  15.236   3.750
55346W        W27661  43.504  13.088   2.955
55347W        W27662  19.312   1.337  11.279
55348W        W27663  42.478  15.980  14.330
55349W        W27664  20.406  44.490   0.432
55350W        W27665  13.295   2.116   1.911
55351W        W27666  35.327  35.598   4.700
55352W        W27667  35.640   0.280  12.287
55353W        W27668  24.215   8.771  12.027
55354W        W27669  22.489   1.301   0.718
55355W        W27670  11.787  21.943   4.885
55356W        W27671   6.299   0.822   4.817
55357W        W27672  15.976  29.950  10.166
55358W        W27673   9.389  12.086  13.270
55359W        W27674  16.748  36.804   4.589
55360W        W27675  36.127  27.471  11.530
55361W        W27676  28.470  29.945  12.072
55362W        W27677  27.054  27.235  12.512
55363W        W27678  14.132  35.737   3.785
55364W        W27679  10.170  42.787  14.539
55365W        W27680  40.840  10.328   4.640
55366W        W27681  13.098   9.743   0.815
55367W        W27682  20.738  20.109   2.386
55368W        W27683  35.136  43.489   3.026
55369W        W27684  23.315   5.567  12.137
55370W        W27685   4.342  41.582  12.009
55371W        W27686  20.615   5.196   4.912
55372W        W27687  16.917  14.172  10.678
55373W        W27688   7.398   6.242   2.353
55374W        W27689  40.340  42.543   3.624
55375W        W27690  33.422  22.891  14.210
55376W        W27691   9.178  32.188  13.965
55377W        W27692  16.628  24.007  12.976
55378W        W27693  32.018  23.732  10.705
55379W        W27694  21.664   6.396   3.246
55380W        W27695  41.621  23.806  11.539
55381W        W27696  23.617  22.458  14.945
55382W        W27697  18.046   9.857  12.474
55383W        W27698  30.808   3.348  11.030
55384W        W27699  23.847   8.769   0.095
55385W        W27700  12.718  28.758   1.310
55386W        W27701  11.902   4.534   4.018
55387W        W27702  29.026  14.794   0.910
55388W        W27703   2.714  39.983  14.440
55389W        W27704  44.436  23.020   2.553
55390W        W27705  41.784  13.606   3.684
55391W        W27706  20.242  30.926  11.497
55392W        W27707  41.367  44.060   1.627
55393W        W27708   7.695   6.978   2.424
55394W        W27709  11.179  41.980   0.972
55395W        W27710  10.792  11.633  13.514
55396W        W27711  10.437  36.009  11.662
55397W        W27712  43.098  22.682   5.081
55398W        W27713  31.599   4.893   3.686
55399W        W27714  19.689   6.393   3.913
55400W        W27715   0.426   0.905   0.351
55401W        W27716  12.200  14.397   2.150
55402W        W27717   0.360  13.146   3.588
55403W        W27718  13.017  26.863   4.699
55404W        W27719  33.705  40.315   1.323
55405W        W27720  31.635  28.437  10.944
55406W        W27721  39.820  12.110  12.343
55407W        W27722  11.132  24.565  12.515
55408W        W27723  27.460  21.478   3.257
55409W        W27724  19.096  12.779  14.272
55410W        W27725  42.548  44.481   2.799
55411W        W27726  33.614   5.603  12.888
55412W        W27727  20.164  23.941   4.150
55413W        W27728   8.118  42.362   1.688
55414W        W27729  24.344  12.515  11.095
55415W        W27730   3.963   8.787  13.453
55416W        W27731  38.157  13.835  12.834
55417W        W27732  40.324   1.908  14.084
55418W        W27733  22.682  16.222   0.103
55419W        W27734  28.549  19.598  13.987
55420W        W27735  21.764  21.119  14.504
55421W        W27736  40.979  24.797  12.899
55422W        W27737  15.544  43.561   2.316
55423W        W27738  36.121   5.863  11.593
55424W        W27739  33.410  11.865   5.111
55425W        W27740  11.729  16.137  10.681
55426W        W27741  30.395  36.864   1.146
55427W        W27742  28.957  17.023  12.599
55428W        W27743  15.659   5.924  12.524
55429W        W27744  35.087  15.738   3.656
55430W        W27745  28.994  39.971   0.929
55431W        W27746   6.646  27.524   2.308
55432W        W27747   3.829   2.487   0.821
55433W        W27748  26.163  28.062  11.177
55434W        W27749  36.083  24.395   4.667
55435W        W27750   9.711   7.957   0.666
55436W        W27751  13.950  44.347   4.977
55437W        W27752  22.258  37.059  13.751
55438W        W27753   6.823  18.136   3.380
55439W        W27754  26.402  35.448   2.047
55440W        W27755  11.267  40.274  11.041
55441W        W27756  27.964   0.338   1.218
55442W        W27757  35.413  39.283   0.751
55443W        W27758  16.555  37.084  12.017
55444W        W27759  36.613  39.542   0.300
55445W        W27760  12.106  11.133   0.480
55446W        W27761  19.137  21.737  11.571
55447W        W27762   7.024  26.255  12.857
55448W        W27763  16.149   1.009  14.005
55449W        W27764  16.600  26.115  13.573
55450W        W27765   6.842  36.819   4.682
55451W        W27766  14.200  15.316  11.065
55452W        W27767  29.281   6.866   3.847
55453W        W27768  14.414   9.342   3.112
55454W        W27769  35.398  20.533  12.856
55455W        W27770   4.471  32.479  13.563
55456W        W27771   2.267  43.400   4.271
55457W        W27772   4.488  14.736  11.194
55458W        W27773   9.613   2.248  10.620
55459W        W27774  36.792   4.850   3.614
55460W        W27775  10.578  25.788   0.300
55461W        W27776  41.094   1.779   0.012
55462W        W27777  40.590  33.577   1.378
55463W        W27778  22.400  41.565  12.041
55464W        W27779  17.056  33.396  11.071
55465W        W27780  31.371  25.958   0.589
55466W        W27781  35.911   2.240   1.772
55467W        W27782  15.328  29.996  13.967
55468W        W27783  18.324   9.798  11.836
55469W        W27784   6.874  36.835   2.790
55470W        W27785   8.651  33.523   3.180
55471W        W27786  39.640  31.824  11.676
55472W        W27787  17.026  30.665  14.544
55473W        W27788   4.406  21.182  14.480
55474W        W27789  34.167  38.823   3.746
55475W        W27790   7.716  21.180  12.961
55476W        W27791   1.358  36.617   0.985
55477W        W27792  18.564  40.744  10.777
55478W        W27793  42.879   3.951   4.595
55479W        W27794  38.414  24.400  14.963
55480W        W27795  37.081   3.181  12.142
55481W        W27796   7.179  39.243  12.087
55482W        W27797  15.015  24.939  13.436
55483W        W27798  15.821  19.538   4.518
55484W        W27799  43.398  23.024  12.825
55485W        W27800   4.416  41.301  11.166
55486W        W27801   4.465  36.504  12.547
55487W        W27802   3.744  12.939  10.855
55488W        W27803   7.304   1.440   3.101
55489W        W27804  18.124  40.764  12.432
55490W        W27805   3.155   1.941  13.785
55491W        W27806  14.597  39.403  12.019
55492W        W27807   2.853  14.355  13.681
55493W        W27808  37.818  21.568  12.975
55494W        W27809  44.428  23.874  10.420
55495W        W27810   1.244   2.896  13.010
55496W        W27811   0.275  25.218   0.900
55497W        W27812   8.739  19.263  10.458
55498W        W27813  27.882  35.038   2.393
55499W        W27814   1.606  31.507   4.593
55500W        W27815   6.722  18.525   4.716
55501W        W27816  19.171  27.346  14.967
55502W        W27817   7.167  14.314  14.964
55503W        W27818  38.092   8.233   3.197
55504W        W27819   4.798  14.215   3.149
55505W        W27820  41.153   1.361  13.006
55506W        W27821   2.008  12.618  14.640
55507W        W27822  43.755   3.976   4.447
55508W        W27823  14.567  37.945  13.388
55509W        W27824  14.687  23.382  11.954
55510W        W27825  41.568  29.892  11.992
55511W        W27826  36.675  40.501   3.829
55512W        W27827  16.653  31.477  11.033
55513W        W27828   1.666  23.185   3.307
55514W        W27829  40.735   3.930   1.897
55515W        W27830  25.051  32.857   2.400
55516W        W27831   1.888  34.774  11.596
55517W        W27832  21.492  22.211  13.614
55518W        W27833   9.589  44.837  13.915
55519W        W27834  23.060  42.684  11.431
55520W        W27835   7.885  22.404   5.169
55521W        W27836  34.787   6.700   4.294
55522W        W27837  40.497  18.637   0.557
55523W        W27838  11.454  13.757  11.595
55524W        W27839  17.985  18.134  13.725
55525W        W27840  23.627  40.343  10.740
55526W        W27841  40.089  14.563  14.158
55527W        W27842  15.351  38.768   1.259
55528W        W27843  28.411  30.972  12.905
55529W        W27844   6.243   3.366   1.367
55530W        W27845  15.143  26.889  14.996
55531W        W27846  38.767  26.550   3.815
55532W        W27847  21.899  40.042   4.112
55533W        W27848  30.839  14.772   0.004
55534W        W27849   4.623   9.616  11.240
55535W        W27850   4.895  17.913  10.450
55536W        W27851  32.471  12.931   1.490
55537W        W27852  13.161  11.631  13.168
55538W        W27853   6.473  26.087  10.527
55539W        W27854  19.251  16.810  13.907
55540W        W27855  11.928  26.644   0.900
55541W        W27856  25.025  39.496  14.022
55542W        W27857  30.472  32.617  14.990
55543W        W27858  16.401  32.092  11.678
55544W        W27859  44.477  23.639   0.404
55545W        W27860  34.044   1.807  13.781
55546W        W27861  41.928  12.062   1.627
55547W        W27862   5.844  24.457  12.794
55548W        W27863  43.553  22.699   1.360
55549W        W27864  11.738   6.793  12.278
55550W        W27865   8.265  11.088   0.456
55551W        W27866  29.738  44.873  14.328
55552W        W27867  26.930  43.990  10.538
55553W        W27868  32.989   5.985   1.760
55554W        W27869  40.769  30.778  11.083
55555W        W27870  35.650  13.733   0.309
55556W        W27871  18.229  11.206  13.445
55557W        W27872   9.175   7.737   3.725
55558W        W27873   0.800  44.189  14.011
55559W        W27874  21.506  27.119  10.708
55560W        W27875  15.112  17.377   4.098
55561W        W27876   0.337  30.998  11.912
55562W        W27877  18.577  22.974  13.658
55563W        W27878  26.996   8.997  14.546
55564W        W27879  25.516  41.090  12.987
55565W        W27880  18.275  20.955   4.849
55566W        W27881  26.750   5.753   1.493
55567W        W27882  16.542  41.815   0.233
55568W        W27883   6.326  33.561   0.320
55569W        W27884  43.491  14.050  12.716
55570W        W27885  21.721  18.537   1.452
55571W        W27886  10.795  12.983   4.133
55572W        W27887   3.028  33.115   2.298
55573W        W27888  33.977  21.661   1.002
55574W        W27889  11.729  22.167  13.700
55575W        W27890  37.400  10.262   1.346
55576W        W27891  30.180  21.170   3.669
55577W        W27892  22.002  31.688  10.483
55578W        W27893   1.509  18.551   2.854
55579W        W27894  20.609  38.644   4.677
55580W        W27895  37.282  10.985  11.616
55581W        W27896   4.459  37.912   1.325
55582W        W27897  43.995   5.877  10.526
55583W        W27898  18.279  26.383  11.478
55584W        W27899   8.501  19.840   0.841
55585W        W27900  20.687  39.755  10.701
55586W        W27901  33.025  26.732  12.011
55587W        W27902  34.377  28.459  14.778
55588W        W27903  38.973  21.491  12.002
55589W        W27904  35.463  33.885   0.531
55590W        W27905  23.249  43.704   3.318
55591W        W27906   3.692  29.602  13.996
55592W        W27907   8.379   4.011  11.184
55593W        W27908  14.362  21.978  13.548
55594W        W27909  41.863   7.461   2.821
55595W        W27910  11.166  29.563  11.674
55596W        W27911   2.766  29.997   0.559
55597W        W27912  14.327  19.631   2.400
55598W        W27913  20.030  11.307   1.849
55599W        W27914  30.046  44.912   4.064
55600W        W27915  31.624   7.862  13.803
55601W        W27916  24.087  30.315   2.386
55602W        W27917   1.255  42.990   3.701
55603W        W27918   6.200  43.587   0.655
55604W        W27919  41.826  13.046  11.588
55605W        W27920  41.466  16.076  12.841
55606W        W27921  10.701  28.138   0.217
55607W        W27922  39.534  14.788   4.713
55608W        W27923   8.867  39.285  10.616
55609W        W27924  13.111   1.551  12.500
55610W        W27925  29.327  38.922   5.121
55611W        W27926  34.540  41.456   2.178
55612W        W27927  20.642  42.228  12.515
55613W        W27928  24.681  29.017  14.910
55614W        W27929   6.878   1.695   3.358
55615W        W27930   9.812  27.985   1.060
55616W        W27931  35.956  44.721  12.922
55617W        W27932  17.122  17.549   3.656
55618W        W27933  20.255  29.425   3.230
55619W        W27934  24.296  29.471   4.087
55620W        W27935   9.405  20.667  12.427
55621W        W27936  28.004  37.087  12.066
55622W        W27937  13.534  41.897   4.243
55623W        W27938   5.664  42.284  13.894
55624W        W27939  28.598  38.833  11.108
55625W        W27940  29.491  28.685  14.229
55626W        W27941   3.815  13.964   4.385
55627W        W27942   5.400  10.470  11.531
55628W        W27943   4.966  32.599  12.063
55629W        W27944  36.944  19.864   0.694
55630W        W27945  25.733  18.027  10.580
55631W        W27946  23.577  43.926   3.811
55632W        W27947  15.803   4.294  11.697
55633W        W27948  35.897   6.739   1.853
55634W        W27949  16.857   9.762   2.646
55635W        W27950  35.525  44.933   4.555
55636W        W27951  18.561  42.304  13.914
55637W        W27952  14.134  31.996   4.415
55638W        W27953  24.522  31.586  13.805
55639W        W27954   4.474   0.407  13.427
55640W        W27955  44.720   7.403   0.643
55641W        W27956   4.951  38.608  13.405
55642W        W27957   7.816  33.577  14.774
55643W        W27958  40.354  11.629   2.835
55644W        W27959  24.444  44.234   4.223
55645W        W27960   1.179  24.577   3.067
55646W        W27961  13.907  38.388   0.716
55647W        W27962  25.166  34.767   4.964
55648W        W27963  28.009  13.832   2.657
55649W        W27964  40.431   7.429   0.348
55650W        W27965  34.458  23.316   2.909
55651W        W27966  32.902   7.337   3.640
55652W        W27967  38.330  17.755  13.501
55653W        W27968  39.868  42.689  13.484
55654W        W27969   8.703  34.600   1.713
55655W        W27970  27.484  36.440  12.555
55656W        W27971  38.088  28.675  12.688
55657W        W27972   4.950  38.068   1.309
55658W        W27973  33.057  10.240   2.110
55659W        W27974  35.962  40.574   2.584
55660W        W27975  28.906  21.605   0.886
55661W        W27976  39.964  26.138  14.010
55662W        W27977  17.993   1.317  12.369
55663W        W27978  14.826   6.314   0.677
55664W        W27979  12.731  37.114   4.207
55665W        W27980  38.885  16.819   2.969
55666W        W27981  27.631  34.194  13.018
55667W        W27982  29.485  19.108   2.716
55668W        W27983  19.525  28.937  13.864
55669W        W27984  13.925  13.903  11.456
55670W        W27985  30.645  44.427  11.997
55671W        W27986  29.345  27.049  14.005
55672W        W27987   5.954  35.439  13.756
55673W        W27988   3.818  42.545   1.772
55674W        W27989  19.771  26.569  12.484
55675W        W27990  18.796   2.328   0.192
55676W        W27991  14.754  29.134   4.993
55677W        W27992  21.675  14.309   0.496
55678W        W27993  20.973   1.824   1.900
55679W        W27994  10.245   6.648  14.483
55680W        W27995  31.449   5.404  13.605
55681W        W27996   9.666   4.181  13.742
55682W        W27997  22.975  32.925   1.800
55683W        W27998  21.053  13.842   0.419
55684W        W27999  36.343  36.012   0.653
55685W        W28000  16.638  14.726  11.552
55686W        W28001   7.699  44.483   2.139
55687W        W28002  14.026  31.959   2.421
55688W        W28003  37.014  16.449   4.475
55689W        W28004   5.150   1.050   1.360
55690W        W28005  11.847  41.495   2.972
55691W        W28006  23.635   8.267   3.597
55692W        W28007  38.350  40.706  13.957
55693W        W28008   0.768  37.081  10.618
55694W        W28009  42.970  35.664  11.073
55695W        W28010  32.472  18.794   1.749
55696W        W28011  31.926  41.873  14.930
55697W        W28012  28.041  23.038  11.179
55698W        W28013   5.412  41.435   3.479
55699W        W28014  22.554  40.563   3.928
55700W        W28015  30.117  18.134   1.160
55701W        W28016  25.705  17.145   4.159
55702W        W28017   9.722  37.069  13.090
55703W        W28018  33.146  34.519  13.749
55704W        W28019  42.882  13.344  11.564
55705W        W28020  24.960  33.853  10.958
55706W        W28021  11.897   6.464  11.894
55707W        W28022  13.066  21.627   4.576
55708W        W28023  43.498  25.402   3.105
55709W        W28024   3.860  24.971   2.648
55710W        W28025   2.002  24.620  11.084
55711W        W28026  33.079   5.214   2.341
55712W        W28027  16.576  16.694  14.874
55713W        W28028  30.737  34.192  14.057
55714W        W28029  15.974   3.524   3.755
55715W        W28030  15.606  39.398   3.750
55716W        W28031  39.834  41.946  14.015
55717W        W28032  36.350  19.499  13.366
55718W        W28033  29.549  29.609   0.376
55719W        W28034  12.965  32.808   2.119
55720W        W28035  36.814  42.270   2.165
55721W        W28036  33.927  27.217  11.380
55722W        W28037  43.134  31.292   1.379
55723W        W28038  19.202  12.873   3.361
55724W        W28039  42.390  23.572   1.336
55725W        W28040  39.578  24.121   1.428
55726W        W28041  32.907   4.672  11.065
55727W        W28042  15.685   9.245  12.041
55728W        W28043   3.860   1.969   0.865
55729W        W28044  32.474  25.162   2.637
55730W        W28045  19.001  21.138  10.450
55731W        W28046  34.036  32.430   4.576
55732W        W28047   5.229  28.826   3.314
55733W        W28048  25.771  31.688   1.185
55734W        W28049  40.482  21.008  12.345
55735W        W28050  42.389  43.643   0.437
55736W        W28051  13.641   2.737   1.340
55737W        W28052  22.624   4.235  14.944
55738W        W28053  13.396  41.430  14.733
55739W        W28054   5.759  39.377  14.755
55740W        W28055  22.013  43.612  14.442
55741W        W28056  24.806  29.214   2.911
55742W        W28057  28.177  12.011   4.357
55743W        W28058  25.950   6.210  13.940
55744W        W28059  44.006  41.249   2.135
55745W        W28060  40.081  41.787   4.674
55746W        W28061  38.352  18.544   2.713
55747W        W28062  27.485  23.206  12.935
55748W        W28063  33.994  26.237  10.981
55749W        W28064  32.449  38.583  14.541
55750W        W28065  29.399  13.146   2.308
55751W        W28066  32.189  40.519   2.161
55752W        W28067  18.615  38.306   3.273
55753W        W28068   5.146   1.944   3.871
55754W        W28069  41.042  18.053   4.665
55755W        W28070  10.485  27.282   0.747
55756W        W28071  43.794  31.999   0.258
55757W        W28072  13.998  16.338   2.325
55758W        W28073  35.046   8.935   0.767
55759W        W28074   7.754  29.728   3.368
55760W        W28075   8.396   3.370   0.830
55761W        W28076  43.894   4.662  13.206
55762W        W28077  43.190  20.675  11.848
55763W        W28078   9.386  22.952   3.078
55764W        W28079  34.693   3.817   0.978
55765W        W28080  22.190  20.071   2.376
55766W        W28081   5.888  33.650  13.043
55767W        W28082  41.294  15.227   4.181
55768W        W28083  25.899  41.359  11.613
55769W        W28084  18.920   4.250  11.588
55770W        W28085  33.919   9.408  13.893
55771W        W28086  28.182   6.461   2.655
55772W        W28087  22.223   3.101  14.401
55773W        W28088   0.027  11.823   3.245
55774W        W28089  30.559  30.872   0.337
55775W        W28090  35.830  30.962   4.284
55776W        W28091  10.200  43.914   3.096
55777W        W28092  34.345  29.034  11.564
55778W        W28093   1.435  29.474  12.909
55779W        W28094  13.423  40.978   2.339
55780W        W28095  34.942   3.816   3.608
55781W        W28096  43.849   6.249   4.872
55782W        W28097  33.355  10.411   3.701
55783W        W28098  32.081   4.483  10.674
55784W        W28099  24.655  30.385   1.916
55785W        W28100  27.848  17.415   0.303
55786W        W28101   6.505  34.598   1.323
55787W        W28102  42.486  44.044  11.125
55788W        W28103  12.602   9.781  11.452
55789W        W28104   2.202  41.049  12.147
55790W        W28105  38.278   3.518   2.121
55791W        W28106  41.856  10.261  12.163
55792W        W28107  29.741  39.219   2.793
55793W        W28108  33.878  25.736  14.878
55794W        W28109  30.850   6.960   4.812
55795W        W28110  16.003  28.464   1.370
55796W        W28111  29.397   4.305  11.719
55797W        W28112  23.449  15.071  13.435
55798W        W28113  12.919  24.037   1.885
55799W        W28114  12.285   3.723  11.530
55800W        W28115  29.436   8.838   0.439
55801W        W28116  42.497  14.771  10.978
55802W        W28117  40.885  28.570   2.721
55803W        W28118   0.333  33.155   3.044
55804W        W28119  27.191  12.726   1.232
55805W        W28120  14.102  10.685  11.411
55806W        W28121  20.113  25.625   2.490
55807W        W28122  36.140  39.340  12.192
55808W        W28123   8.673  38.571  14.006
55809W        W28124  19.759  20.591  12.013
55810W        W28125  39.441  40.016  11.524
55811W        W28126  29.133  13.753   1.721
55812W        W28127  14.230  27.004  11.857
55813W        W28128   4.268  38.415   4.134
55814W        W28129  37.465   5.063   1.180
55815W        W28130  32.568  37.281  12.077
55816W        W28131  21.445  39.395  11.375
55817W        W28132  11.627  36.522   2.927
55818W        W28133   4.623   9.805  12.852
55819W        W28134   6.412  35.121   0.308
55820W        W28135  41.266  42.270   0.693
55821W        W28136  18.037  44.365   3.598
55822W        W28137  24.177   0.745   2.353
55823W        W28138  38.561  20.437   0.708
55824W        W28139  11.749  11.666   2.803
55825W        W28140   5.833   3.951  11.387
55826W        W28141   2.870  31.685  13.810
55827W        W28142  43.987   6.264  13.638
55828W        W28143   1.305  12.087  10.177
55829W        W28144  42.886  10.587   1.775
55830W        W28145  31.009  21.757  11.917
55831W        W28146  24.337  15.566  14.764
55832W        W28147  27.424   0.204  14.494
55833W        W28148   8.387  23.751   3.605
55834W        W28149  29.434  24.612   4.180
55835W        W28150  43.296  10.179  10.740
55836W        W28151  27.445  29.398  14.042
55837W        W28152  25.108   5.769   4.051
55838W        W28153  43.197  41.852  11.545
55839W        W28154   6.464  17.085   0.465
55840W        W28155  11.578  12.998   1.403
55841W        W28156  15.554   3.837  11.479
55842W        W28157  19.269  18.623  13.784
55843W        W28158  17.152   4.678   1.677
55844W        W28159   0.687  43.526  12.988
55845W        W28160  12.690   9.231   1.787
55846W        W28161  11.212   3.706  11.939
55847W        W28162  27.454  40.796   2.363
55848W        W28163  21.503   9.436  12.021
55849W        W28164  19.038  18.278  14.975
55850W        W28165  30.639  16.295  14.433
55851W        W28166   0.526   6.689  14.599
55852W        W28167  24.088   2.389   4.613
55853W        W28168  17.823   1.159  13.807
55854W        W28169  15.376  34.625  11.825
55855W        W28170  42.849  29.060   2.532
55856W        W28171   7.604   6.171   2.815
55857W        W28172  30.130   5.562  12.161
55858W        W28173  39.295  24.649  11.663
55859W        W28174  35.211   1.138  14.295
55860W        W28175   0.614   5.031   4.195
55861W        W28176  16.859  15.624   2.746
55862W        W28177   3.527  36.012   2.346
55863W        W28178  11.179  16.238   3.955
55864W        W28179  34.413  19.695  14.421
55865W        W28180  35.022   2.212  14.978
55866W        W28181  18.658  29.134   3.283
55867W        W28182  26.620  37.637   3.185
55868W        W28183  37.152  30.566   4.682
55869W        W28184  26.233  32.983   0.300
55870W        W28185  29.457  23.707  11.011
55871W        W28186   8.136   9.996  11.055
55872W        W28187  33.664   2.027   4.231
55873W        W28188  18.322  31.913  12.886
55874W        W28189  39.638   4.836  14.496
55875W        W28190  16.825  18.380   1.372
55876W        W28191   4.779  16.174  11.870
55877W        W28192   2.762  14.815   5.044
55878W        W28193   4.749  36.965  10.783
55879W        W28194  38.542  15.589   4.564
55880W        W28195  41.848  39.017   1.253
55881W        W28196  24.309   1.284  13.478
55882W        W28197  42.469  17.862  14.249
55883W        W28198  11.442   6.146  12.001
55884W        W28199  44.189  11.394  11.499
55885W        W28200  38.204  23.417   0.025
55886W        W28201  15.286   5.416  11.922
55887W        W28202  34.394  10.332   2.270
55888W        W28203  11.668  38.015  14.562
55889W        W28204  14.149  24.418  13.357
55890W        W28205  22.271  34.876   1.236
55891W        W28206  15.870  16.212   2.042
55892W        W28207   2.505  29.343   4.544
55893W        W28208  42.418  37.072   0.338
55894W        W28209  26.712  18.235  13.102
55895W        W28210   5.442  26.060  14.266
55896W        W28211  31.063  38.932  11.579
55897W        W28212  31.439   6.098   1.415
55898W        W28213  21.616  32.654   2.218
55899W        W28214  38.051  21.296   2.479
55900W        W28215  30.956  44.945  14.533
55901W        W28216  21.191  40.096  14.497
55902W        W28217  28.150  12.190   0.401
55903W        W28218  19.745  43.113  13.917
55904W        W28219   2.796  43.235  12.518
55905W        W28220  13.528  24.783   3.739
55906W        W28221  27.226  39.614  11.612
55907W        W28222  21.784  30.970   0.717
55908W        W28223  30.840  13.885   2.304
55909W        W28224  31.613   2.475  13.985
55910W        W28225   8.864  29.619   2.277
55911W        W28226  35.375   1.738   1.065
55912W        W28227   2.767   6.258   2.960
55913W        W28228  27.907  27.346  10.252
55914W        W28229   9.899  20.192   4.545
55915W        W28230  28.719  31.325   5.539
55916W        W28231  24.335   4.979  13.687
55917W        W28232  31.937   2.408  11.944
55918W        W28233  44.036  35.943  11.568
55919W        W28234   5.967  37.413  13.982
55920W        W28235  38.316   3.973  10.654
55921W        W28236  16.606   4.485   5.202
55922W        W28237  15.302  39.283   3.135
55923W        W28238  22.274  21.230   2.151
55924W        W28239  32.996  37.765   1.577
55925W        W28240  30.546  23.144  13.865
55926W        W28241  32.543  37.120  14.483
55927W        W28242  14.113  28.666  12.559
55928W        W28243  23.583  30.129  13.512
55929W        W28244  15.481  44.771  11.068
55930W        W28245  32.157  30.412  12.748
55931W        W28246  28.973  41.256   1.244
55932W        W28247  10.873  38.993  11.579
55933W        W28248   9.342  22.265   4.369
55934W        W28249  35.529   9.752  10.680
55935W        W28250  17.965  26.564  14.802
55936W        W28251   1.862  36.795   3.686
55937W        W28252  23.963  37.797  13.387
55938W        W28253  37.283   8.915   1.052
55939W        W28254  18.380   0.668  13.218
55940W        W28255  18.788  11.709   0.295
55941W        W28256   1.404  17.304   1.831
55942W        W28257  35.385  26.047   1.823
55943W        W28258  13.107  13.765   4.610
55944W        W28259  36.493   2.914  13.921
55945W        W28260  20.340  30.252  13.033
55946W        W28261  30.605  32.755  13.524
55947W        W28262  38.263  31.964   4.233
55948W        W28263  35.475  14.720  13.840
55949W        W28264  32.101  12.733   3.567
55950W        W28265  35.894  39.874   1.333
55951W        W28266   5.274  28.718   4.188
55952W        W28267  25.152  37.254  10.365
55953W        W28268  26.423  41.615   0.487
55954W        W28269  39.715  25.794   3.708
55955W        W28270  16.364  15.781   1.253
55956W        W28271  18.146   9.055   0.763
55957W        W28272   6.934  36.174  12.836
55958W        W28273  11.809  26.943   2.148
55959W        W28274  30.382   3.492   1.416
55960W        W28275  43.006   4.474   0.882
55961W        W28276   4.133  26.171   1.528
55962W        W28277  33.093  39.599  11.308
55963W        W28278   7.136   9.324  14.748
55964W        W28279  35.364  42.343   2.678
55965W        W28280  42.540  37.991  14.500
55966W        W28281   8.186  22.549  13.936
55967W        W28282  41.866  12.710  14.445
55968W        W28283  36.390  22.153  14.749
55969W        W28284  37.144  19.583   4.836
55970W        W28285  24.231  43.098  11.113
55971W        W28286  15.993  41.623  13.765
55972W        W28287  38.861  14.264  10.237
55973W        W28288  10.065   7.420   4.557
55974W        W28289   4.725   9.142   3.268
55975W        W28290  11.660  17.273   0.783
55976W        W28291  25.127  19.690   0.749
55977W        W28292  44.810   4.782   0.981
55978W        W28293  32.008  33.681   4.215
55979W        W28294  22.258  29.875  14.913
55980W        W28295  15.157  13.159  11.171
55981W        W28296  19.228  18.574  10.772
55982W        W28297  15.337  21.067  13.433
55983W        W28298   2.565  15.648   4.800
55984W        W28299  20.613   2.745  12.926
55985W        W28300  33.403  39.490   1.219
55986W        W28301  13.558  41.766  11.538
55987W        W28302  15.905  26.648  11.339
55988W        W28303  19.161  36.373   0.091
55989W        W28304  43.576  29.569  14.789
55990W        W28305  22.739   7.391   2.192
55991W        W28306  27.545   3.365   3.709
55992W        W28307  13.138  25.785  14.341
55993W        W28308  40.464  12.855   0.507
55994W        W28309  29.698  29.185  13.005
55995W        W28310   5.195   5.717   3.332
55996W        W28311  16.556  37.041   2.241
55997W        W28312  43.004   4.904   0.611
55998W        W28313  37.809  25.522   3.816
55999W        W28314  37.972  43.847  14.841
56000W        W28315  34.865  20.234   4.746
56001W        W28316  31.443   6.756   2.432
56002W        W28317   9.991  29.097   1.502
56003W        W28318   1.498  37.715  14.282
56004W        W28319   0.937  19.542   2.249
56005W        W28320   2.144  44.063  12.302
56006W        W28321   7.029  17.234   3.329
56007W        W28322  35.444  12.872  13.023
56008W        W28323  25.241  13.034  14.536
56009W        W28324   7.681   2.735   0.487
56010W        W28325  30.508   3.986   1.292
56011W        W28326   8.916  40.789  11.966
56012W        W28327  40.622   2.842   4.181
56013W        W28328  22.240   5.598  13.140
56014W        W28329   3.643  17.029   0.647
56015W        W28330   8.375  20.485  13.189
56016W        W28331  17.271  32.123  11.384
56017W        W28332   9.735  21.472   3.199
56018W        W28333  44.719  22.994  12.467
56019W        W28334  13.610  14.297   2.280
56020W        W28335  15.753  35.891   3.256
56021W        W28336  14.855  30.886   4.665
56022W        W28337  10.825   7.057  10.808
56023W        W28338  39.062   4.379   3.176
56024W        W28339   3.534  38.978  12.763
56025W        W28340  24.372  29.175  10.328
56026W        W28341  11.762   4.303   3.578
56027W        W28342  43.846  19.170  12.122
56028W        W28343  20.069  19.606  12.817
56029W        W28344  28.716   4.878  13.153
56030W        W28345  19.223   5.304  10.544
56031W        W28346  43.048   4.220  14.395
56032W        W28347   5.843  18.747  12.401
56033W        W28348  24.151  34.657   5.140
56034W        W28349  25.938  29.552   1.273
56035W        W28350  11.889  43.202   0.835
56036W        W28351  14.715  30.535  13.085
56037W        W28352  24.220  16.717   0.904
56038W        W28353   3.215  39.931  14.433
56039W        W28354   0.148   1.887   2.888
56040W        W28355   8.568  22.670   1.758
56041W        W28356  38.998  11.274   2.945
56042W        W28357  26.631  10.329   4.587
56043W        W28358  43.770  39.356   2.297
56044W        W28359  42.352  36.923   0.851
56045W        W28360  17.572   0.236   2.768
56046W        W28361  34.557  32.973  12.075
56047W        W28362  41.641   8.812  14.018
56048W        W28363  35.996  41.273   3.296
56049W        W28364  18.616  13.907  12.080
56050W        W28365  40.904  38.532   1.762
56051W        W28366   6.820  23.586   2.805
56052W        W28367  24.259  25.239  12.142
56053W        W28368  21.549  30.603  11.374
56054W        W28369  38.833  13.513   0.871
56055W        W28370  28.131   7.311   3.908
56056W        W28371  40.770  10.242   0.538
56057W        W28372   9.226  30.655  13.032
56058W        W28373   7.967   6.742  12.609
56059W        W28374  39.477   1.685  11.464
56060W        W28375  12.804  31.028  13.152
56061W        W28376  11.369  23.006   3.302
56062W        W28377  40.285  23.322   4.872
56063W        W28378   0.838   9.764  10.366
56064W        W28379  18.595  38.155  10.364
56065W        W28380  23.737  22.807   1.365
56066W        W28381  37.937  18.246  11.043
56067W        W28382  34.691  11.492  12.502
56068W        W28383  18.227  27.642  11.944
56069W        W28384  40.777  44.469  10.411
56070W        W28385   6.891  18.384   0.265
56071W        W28386  27.699  13.034   0.383
56072W        W28387  22.946  22.037   1.927
56073W        W28388  31.575   6.933   1.956
56074W        W28389  29.147  15.721   0.040
56075W        W28390  43.062  39.673   3.246
56076W        W28391  32.978  39.443  12.208
56077W        W28392  28.987  39.538   4.662
56078W        W28393  36.892  27.828  10.677
56079W        W28394  29.033  19.216   1.414
56080W        W28395  42.774  38.710   3.216
56081W        W28396   4.903  13.829   1.293
56082W        W28397   9.719  27.741  14.383
56083W        W28398   3.302  35.556   1.713
56084W        W28399  41.443   8.934   4.271
56085W        W28400  11.875  20.165   1.256
56086W        W28401  43.858  10.669  10.181
56087W        W28402  44.700   5.430   4.304
56088W        W28403  43.540  27.889  14.456
56089W        W28404  38.863   8.321  10.961
56090W        W28405  31.524   2.699   1.185
56091W        W28406  21.605  18.381   0.966
56092W        W28407  41.727  11.854   2.491
56093W        W28408  23.800  33.413   3.157
56094W        W28409  33.334   6.318  14.948
56095W        W28410  27.948  32.051  10.668
56096W        W28411  33.157  29.901   2.309
56097W        W28412  27.585  27.416   3.318
56098W        W28413   8.566  26.981   3.831
56099W        W28414  44.845  26.161  10.757
56100W        W28415   4.421  37.070   2.672
56101W        W28416  44.855  19.818   3.557
56102W        W28417  35.565  12.602   3.448
56103W        W28418  38.514  21.616   1.830
56104W        W28419  26.967  32.408   1.915
56105W        W28420  11.286  22.194   2.316
56106W        W28421  41.183  18.750  11.564
56107W        W28422  22.274  27.450   0.210
56108W        W28423  31.507   9.154   2.649
56109W        W28424  36.102  37.602  11.924
56110W        W28425  19.400  15.186  14.786
56111W        W28426  15.593  33.167  14.236
56112W        W28427  22.265  14.289   4.222
56113W        W28428   7.062  43.058  11.554
56114W        W28429  35.135  13.734   0.291
56115W        W28430  18.671  19.237  14.679
56116W        W28431   0.268  13.110  13.276
56117W        W28432  23.655   6.390   0.009
56118W        W28433  34.387  34.966   0.474
56119W        W28434  25.799   6.786  14.581
56120W        W28435  29.394  12.065   1.444
56121W        W28436   9.864  29.141   3.105
56122W        W28437  28.088  22.306  12.458
56123W        W28438  29.347   1.782  11.548
56124W        W28439   8.164   0.434  12.924
56125W        W28440   5.513  14.336  13.043
56126W        W28441  40.432  13.620   4.683
56127W        W28442  14.019   0.999  14.912
56128W        W28443  14.566  25.998   1.840
56129W        W28444  37.677   9.344  13.044
56130W        W28445  39.964  20.627  14.317
56131W        W28446  20.909   6.290   4.728
56132W        W28447   8.678  13.217   1.243
56133W        W28448  41.967  29.962  11.564
56134W        W28449  29.269  19.843  14.453
56135W        W28450  32.159  19.814  11.982
56136W        W28451  37.109  27.626   1.675
56137W        W28452  35.905  31.174  12.595
56138W        W28453  16.332  24.655   3.357
56139W        W28454  14.350  16.009   2.175
56140W        W28455  17.865  31.843  12.627
56141W        W28456  27.961  22.086   1.926
56142W        W28457  24.564  39.152  12.523
56143W        W28458  24.952  43.832  13.968
56144W        W28459   7.820  41.780  12.986
56145W        W28460  14.708   6.875  14.917
56146W        W28461  44.697  26.204   3.831
56147W        W28462  36.429  13.631   1.139
56148W        W28463  35.832   5.780   2.377
56149W        W28464  39.645  30.050  13.881
56150W        W28465  10.760  17.111  11.919
56151W        W28466  40.107  43.749   4.714
56152W        W28467  38.845   4.824   4.524
56153W        W28468  17.547  33.429   1.438
56154W        W28469  43.495   6.315  13.910
56155W        W28470  20.461  20.332   4.616
56156W        W28471  12.142   4.270   3.242
56157W        W28472  35.510  23.590  11.380
56158W        W28473  32.595  25.404   0.757
56159W        W28474  12.134  37.309  12.900
56160W        W28475  31.159  15.646  12.419
56161W        W28476  33.707  13.171  11.973
56162W        W28477  39.980  17.308   0.600
56163W        W28478  31.783  40.057  14.978
56164W        W28479  31.968  37.078   4.254
56165W        W28480  41.514  17.707   3.353
56166W        W28481  28.127  33.128   2.209
56167W        W28482  43.454  27.152   0.151
56168W        W28483   2.884  38.457  10.874
56169W        W28484  25.117  10.601  14.563
56170W        W28485   2.998  38.409   3.841
56171W        W28486  23.070   9.676   4.621
56172W        W28487  31.602   9.077  14.956
56173W        W28488  21.705  24.883   4.763
56174W        W28489  35.525  14.142   2.350
56175W        W28490  23.118  15.226   0.986
56176W        W28491  41.418   5.457  12.946
56177W        W28492   5.800  38.419   2.029
56178W        W28493  15.525  21.191   3.837
56179W        W28494   4.274  34.450  11.464
56180W        W28495  25.372  30.691  11.107
56181W        W28496  18.881   0.513   0.785
56182W        W28497  30.375  10.882   0.328
56183W        W28498  38.987  23.422  12.114
56184W        W28499  38.532  33.264   3.971
56185W        W28500  39.656  28.076  11.138
56186W        W28501  41.809  32.422  12.015
56187W        W28502  27.569  42.038  13.319
56188W        W28503  44.965  37.541  14.064
56189W        W28504   8.228  11.793  12.577
56190W        W28505  11.402  43.723  13.868
56191W        W28506  10.809  15.559   1.461
56192W        W28507  35.515   1.711   1.942
56193W        W28508  26.567  28.540   1.569
56194W        W28509  35.520  12.402   4.279
56195W        W28510   7.230  43.126   4.305
56196W        W28511  33.504  31.027  12.049
56197W        W28512   4.728  25.952   4.162
56198W        W28513  42.483   8.267   1.305
56199W        W28514  30.139   2.283   1.729
56200W        W28515   8.415  32.359   0.227
56201W        W28516  12.557  17.997  11.554
56202W        W28517  44.446   0.003   0.997
56203W        W28518  29.016  27.684   4.336
56204W        W28519   1.327  35.176   2.811
56205W        W28520  18.256  37.467   2.883
56206W        W28521   3.993  35.011   0.516
56207W        W28522   6.446  40.526  14.406
56208W        W28523  14.659  13.642   4.643
56209W        W28524  24.415   2.427  12.961
56210W        W28525   3.330   7.048  11.727
56211W        W28526  21.501  10.648   3.194
56212W        W28527  33.731  31.144  13.830
56213W        W28528  44.067  22.650   1.236
56214W        W28529  24.634   0.427   2.385
56215W        W28530  35.430  37.461  10.698
56216W        W28531  26.138  24.475   4.215
56217W        W28532  27.924   4.229   1.392
56218W        W28533  14.365   4.736   2.106
56219W        W28534  10.897  19.082   2.758
56220W        W28535  11.296  34.642  12.121
56221W        W28536   1.104  17.370  12.079
56222W        W28537   9.198  28.322   2.090
56223W        W28538  37.777  25.524   0.910
56224W        W28539   7.754  43.506  14.760
56225W        W28540  16.741  33.971  14.085
56226W        W28541  35.469  13.983   4.205
56227W        W28542   5.477  28.689  13.034
56228W        W28543  12.070  22.519   0.687
56229W        W28544  26.058  26.187  11.186
56230W        W28545   2.784  29.804  14.561
56231W        W28546  37.888  27.544  10.879
56232W        W28547  30.375  17.490   2.810
56233W        W28548  38.237  27.148  13.148
56234W        W28549  37.815  21.085  12.184
56235W        W28550  17.719  36.138  14.853
56236W        W28551  44.467   1.862  12.537
56237W        W28552   1.938  10.796  11.505
56238W        W28553  16.693  25.665  13.866
56239W        W28554  26.575  39.385  10.782
56240W        W28555   1.805  41.520  11.457
56241W        W28556  35.479  26.689  11.949
56242W        W28557  10.385  41.157  11.835
56243W        W28558  17.262  13.241  13.821
56244W        W28559  40.508  24.149   0.226
56245W        W28560   6.286  38.996   3.531
56246W        W28561  31.701  10.446   4.136
56247W        W28562  14.222  15.877   1.326
56248W        W28563  25.037  10.310  12.591
56249W        W28564  28.684  32.961  11.125
56250W        W28565  43.400  38.882   1.615
56251W        W28566  20.059  26.986  12.560
56252W        W28567  21.524   5.226  13.028
56253W        W28568  39.299  41.602   3.818
56254W        W28569  19.603  25.479   1.854
56255W        W28570  42.321  43.141   0.327
56256W        W28571  13.018   1.660  11.627
56257W        W28572  40.528  41.107  14.017
56258W        W28573   5.880  30.825   4.521
56259W        W28574  14.600  34.106   0.389
56260W        W28575  18.453   5.364   4.742
56261W        W28576  36.456  17.449   2.877
56262W        W28577  24.056  42.479  13.029
56263W        W28578  14.588   3.435  10.777
56264W        W28579   3.865  15.486   1.361
56265W        W28580  35.370  21.502   2.318
56266W        W28581  15.804   0.830  13.651
56267W        W28582  15.752  29.620  12.031
56268W        W28583  33.062  20.700  13.916
56269W        W28584  28.592  16.277  10.846
56270W        W28585  37.364  37.037   1.666
56271W        W28586  26.385  19.805  13.905
56272W        W28587  19.800   3.294   2.721
56273W        W28588  34.128  29.090   4.103
56274W        W28589  35.289  30.988   1.077
56275W        W28590  17.171   1.774   4.532
56276W        W28591   1.769  14.494   3.517
56277W        W28592   6.455  38.997  14.061
56278W        W28593  21.651   7.800  14.282
56279W        W28594  11.605  44.212   0.798
56280W        W28595   3.954  43.383  13.394
56281W        W28596  21.304  38.735  14.809
56282W        W28597   5.482  10.166  12.840
56283W        W28598  32.362   7.812  11.578
56284W        W28599  10.282  13.832   1.311
56285W        W28600  21.545  20.068   0.050
56286W        W28601  33.983  28.912   2.319
56287W        W28602  31.456  30.263   2.699
56288W        W28603  38.455  13.780  12.406
56289W        W28604  35.897   7.306  14.746
56290W        W28605   8.330  43.694   2.486
56291W        W28606  28.021  26.179   2.371
56292W        W28607  32.975  36.885  13.346
56293W        W28608   1.070   1.901   3.840
56294W        W28609  40.812  34.488   2.730
56295W        W28610  29.322  30.546  14.197
56296W        W28611  31.030  42.348  14.037
56297W        W28612  14.167  17.630  13.966
56298W        W28613   2.197  42.203  14.774
56299W        W28614  20.450  14.689   0.438
56300W        W28615  16.750  10.356  12.052
56301W        W28616  32.889   3.763   3.681
56302W        W28617  39.217  43.491  12.588
56303W        W28618  30.240  11.379   4.917
56304W        W28619  20.254  34.464  12.648
56305W        W28620   6.647  37.842   3.762
56306W        W28621  33.215   7.673  14.240
56307W        W28622   6.530   8.220   2.828
56308W        W28623  19.100  41.726  12.586
56309W        W28624   6.804  20.755   1.949
56310W        W28625  11.444  17.154   2.764
56311W        W28626   2.874  40.718  10.594
56312W        W28627   5.155  36.588   0.263
56313W        W28628  10.183  44.533   1.341
56314W        W28629  29.258  30.718  12.916
56315W        W28630  27.413  26.526   0.299
56316W        W28631  35.875   2.469  11.333
56317W        W28632  11.206  12.770   1.122
56318W        W28633  41.456   4.233  11.384
56319W        W28634  34.514  26.722  11.841
56320W        W28635   4.305   1.761  13.757
56321W        W28636  28.113  21.028   0.910
56322W        W28637  42.334  39.156  13.729
56323W        W28638   2.633  18.004  14.007
56324W        W28639   3.776  30.085  12.111
56325W        W28640  28.678  29.753  14.464
56326W        W28641  42.455  22.837   3.499
56327W        W28642  39.073   1.906  10.780
56328W        W28643  39.801   1.393  11.076
56329W        W28644   5.830  43.007   2.618
56330W        W28645  38.553   6.765  13.517
56331W        W28646  40.098  23.113  14.496
56332W        W28647  38.505  43.781  11.630
56333W        W28648  12.712  20.947   3.574
56334W        W28649  16.194  18.742  12.960
56335W        W28650  35.937  23.190  14.620
56336W        W28651  27.056  18.567   4.168
56337W        W28652   4.884  30.321   4.322
56338W        W28653  33.060  37.450  13.927
56339W        W28654  23.941  27.601   2.708
56340W        W28655  28.959  11.777   0.821
56341W        W28656  42.063  25.965   3.164
56342W        W28657  28.816  34.656  11.148
56343W        W28658  22.910   9.781  11.551
56344W        W28659  44.498  15.805  13.908
56345W        W28660  26.008   9.290  11.187
56346W        W28661   7.696   0.696  14.485
56347W        W28662   1.048  37.780  12.866
56348W        W28663  34.109  18.591   2.839
56349W        W28664  42.369  25.110   3.465
56350W        W28665  36.992  28.211   2.919
56351W        W28666  34.786  12.944  14.484
56352W        W28667  15.311  39.015  12.407
56353W        W28668   4.714   9.785  12.106
56354W        W28669  16.684  35.591  14.772
56355W        W28670  25.594  19.862   0.519
56356W        W28671  28.486   8.483  12.352
56357W        W28672  15.785  28.635   5.047
56358W        W28673   4.339  37.145  11.963
56359W        W28674  32.931  29.484  11.551
56360W        W28675  41.812  11.151  12.805
56361W        W28676  38.450  27.112  13.603
56362W        W28677   5.596  19.439  11.022
56363W        W28678   0.201  29.507  12.603
56364W        W28679  38.290  20.243  13.542
56365W        W28680   9.492  43.100  10.804
56366W        W28681   7.119   1.964   3.737
56367W        W28682   7.881  14.813   0.273
56368W        W28683  21.712  20.506  11.417
56369W        W28684  21.033  31.114  13.895
56370W        W28685  31.521  16.378   3.277
56371W        W28686  37.071  40.397   0.036
56372W        W28687   4.442  29.391  11.983
56373W        W28688  14.718   3.730  12.117
56374W        W28689  37.844  29.136  14.712
56375W        W28690  34.127  24.212   0.174
56376W        W28691  28.023  32.913  14.649
56377W        W28692   0.800  20.586   0.982
56378W        W28693  31.656  14.056   3.310
56379W        W28694   4.772  27.163  11.629
56380W        W28695  28.507  22.442  13.329
56381W        W28696  18.488  20.133   2.275
56382W        W28697  31.079  27.872   0.864
56383W        W28698  33.972  12.321  14.501
56384W        W28699  25.288  27.363   0.656
56385W        W28700   2.490  27.509   0.358
56386W        W28701  23.696  30.216  13.010
56387W        W28702  15.817   6.764  14.062
56388W        W28703   8.445  35.426  14.014
56389W        W28704   2.267  24.651  14.239
56390W        W28705  39.530   0.995   1.862
56391W        W28706  23.484  42.891   4.787
56392W        W28707  41.044  18.050  14.932
56393W        W28708  43.421  11.311   2.152
56394W        W28709   4.088  12.649   2.179
56395W        W28710   5.773  35.205  11.192
56396W        W28711   0.453  23.362   1.238
56397W        W28712  17.789  42.596  12.484
56398W        W28713  35.087  13.228   4.776
56399W        W28714  27.219   1.217  12.576
56400W        W28715   3.268  41.221  13.180
56401W        W28716  31.601  42.392   2.429
56402W        W28717   2.901   9.200  12.144
56403W        W28718  14.068  31.315  12.320
56404W        W28719  10.279  35.489  13.770
56405W        W28720  38.405  30.480  13.884
56406W        W28721  23.831  21.141  14.359
56407W        W28722  35.476  16.645   4.524
56408W        W28723  43.875  23.636  12.988
56409W        W28724   9.670  40.878  12.526
56410W        W28725  25.228  10.711  10.875
56411W        W28726  44.933  35.349   1.600
56412W        W28727   4.859  15.917   9.780
56413W        W28728  42.940   7.893   4.923
56414W        W28729  19.194   2.225  14.378
56415W        W28730  41.647  30.986  12.810
56416W        W28731  20.013  21.518   2.424
56417W        W28732  22.433   0.944  11.592
56418W        W28733  15.468   8.877   3.171
56419W        W28734  11.640   1.953   5.354
56420W        W28735   1.375  35.624  12.430
56421W        W28736   6.817   5.287  11.233
56422W        W28737  21.602  16.852   3.689
56423W        W28738   4.129  44.669  11.525
56424W        W28739  17.303   3.751  13.514
56425W        W28740  16.122  41.651   1.545
56426W        W28741   0.767   3.972  14.550
56427W        W28742  37.536  33.852  11.530
56428W        W28743  40.472   5.581   0.915
56429W        W28744  40.303  24.572   1.391
56430W        W28745  27.575  39.162   3.200
56431W        W28746  19.007   1.548  12.525
56432W        W28747  27.527  10.280   0.864
56433W        W28748  15.347  44.272   3.330
56434W        W28749  11.269  27.153  12.007
56435W        W28750  14.206  13.776   1.905
56436W        W28751  34.899  18.467   1.838
56437W        W28752  22.442  30.677   4.346
56438W        W28753  31.134  18.648   2.433
56439W        W28754  22.226  27.080   4.357
56440W        W28755  44.010  32.175  11.479
56441W        W28756  32.910  18.963  11.601
56442W        W28757   0.914   2.727   3.635
56443W        W28758  39.003  15.728  10.058
56444W        W28759  14.111  42.551  14.795
56445W        W28760  12.075  44.789   0.274
56446W        W28761  38.348  15.823   1.888
56447W        W28762  40.712  22.989   4.846
56448W        W28763  11.606  27.742   0.921
56449W        W28764   9.307  30.860  11.235
56450W        W28765  36.534  27.248   3.593
56451W        W28766  35.996  15.374  11.182
56452W        W28767  11.167  33.161  14.467
56453W        W28768  41.221  35.000   3.813
56454W        W28769   2.823  15.549  12.892
56455W        W28770  22.610  38.407   1.820
56456W        W28771  31.596  31.558   1.916
56457W        W28772  27.080  44.520   1.701
56458W        W28773  14.135   7.639  12.914
56459W        W28774  27.540  16.633   0.867
56460W        W28775  17.677  17.663   4.578
56461W        W28776  15.069  26.919  11.135
56462W        W28777  37.308  14.674   1.822
56463W        W28778  42.977  13.575  12.009
56464W        W28779  26.601   1.006   4.554
56465W        W28780  26.067  16.410  11.746
56466W        W28781  21.283  26.076   4.147
56467W        W28782  25.155  10.821   4.488
56468W        W28783  17.684  14.814   1.666
56469W        W28784   0.901   0.509   3.867
56470W        W28785  14.008  14.091   4.520
56471W        W28786  32.502   2.349   3.946
56472W        W28787  28.581   0.345  13.846
56473W        W28788  33.420  11.150  11.150
56474W        W28789   4.950  39.998  10.693
56475W        W28790  22.777  32.939  14.557
56476W        W28791  39.881  41.003  13.034
56477W        W28792  24.746  21.922   1.369
56478W        W28793  38.602  22.549   4.130
56479W        W28794  22.128  32.644   1.429
56480W        W28795  38.609  21.286   4.436
56481W        W28796  42.465  35.594   0.966
56482W        W28797   7.243  33.613   0.874
56483W        W28798  16.684   4.692   4.341
56484W        W28799  17.049   4.502   0.798
56485W        W28800  36.314  25.863   2.801
56486W        W28801  39.988  35.550  14.922
56487W        W28802   6.665  30.559  13.962
56488W        W28803  13.671   2.986  11.551
56489W        W28804  25.717  22.550  11.905
56490W        W28805   7.896   1.544  11.486
56491W        W28806   5.413   6.735   1.341
56492W        W28807  40.308  34.918   1.339
56493W        W28808  30.568  16.815   4.295
56494W        W28809   1.177   2.754  12.129
56495W        W28810  36.749  21.468   2.335
56496W        W28811   0.985   5.731  12.041
56497W        W28812   6.822  33.103  13.927
56498W        W28813  41.816  39.538  13.665
56499W        W28814   1.309  40.082   4.088
56500W        W28815  24.258  26.964  12.124
56501W        W28816  24.970  37.504  13.774
56502W        W28817  21.103  35.205   1.168
56503W        W28818   5.270  33.536   4.754
56504W        W28819  31.512  27.093  12.946
56505W        W28820  27.854   8.614  13.081
56506W        W28821  42.494  19.516  11.054
56507W        W28822  22.593   8.133  12.425
56508W        W28823  18.972   4.265   3.229
56509W        W28824   1.168  20.674  11.540
56510W        W28825  38.195  16.007  11.592
56511W        W28826  22.176  13.276   1.745
56512W        W28827  17.294   0.116   3.183
56513W        W28828  43.315  38.935   4.211
56514W        W28829  33.832   9.852   3.743
56515W        W28830   0.248  25.726  12.448
56516W        W28831  33.916  19.273   2.418
56517W        W28832  30.249  35.970  12.290
56518W        W28833  23.478  29.626  14.934
56519W        W28834  36.527  29.144  13.899
56520W        W28835  38.956  19.313   1.807
56521W        W28836  18.916  16.465  11.624
56522W        W28837  23.989  28.905  13.289
56523W        W28838  34.384  38.344   3.727
56524W        W28839  32.901  12.194   1.225
56525W        W28840  28.148  16.086   1.255
56526W        W28841  34.612  44.421  14.804
56527W        W28842  33.935   9.984   2.188
56528W        W28843  39.257  31.997   3.400
56529W        W28844  37.758  12.154   3.719
56530W        W28845  37.089  18.267  10.599
56531W        W28846  21.802  11.842  11.545
56532W        W28847  34.375  30.120   4.876
56533W        W28848  29.497  12.975  13.704
56534W        W28849   1.798  23.286   1.453
56535W        W28850   6.167  25.702  12.097
56536W        W28851  23.466   2.739   3.254
56537W        W28852  36.933  12.134  12.421
56538W        W28853   8.157  17.511  12.085
56539W        W28854  42.745  41.362  12.392
56540W        W28855  36.626  42.773   3.600
56541W        W28856  16.476  10.703   2.814
56542W        W28857  36.995  17.316   0.034
56543W        W28858   0.888  26.563   9.984
56544W        W28859   6.810  11.434  11.617
56545W        W28860   5.868  39.230   4.448
56546W        W28861  21.072   6.848  13.292
56547W        W28862  38.085  19.154  11.420
56548W        W28863  22.469  25.591   2.379
56549W        W28864  38.418  35.163  14.533
56550W        W28865   0.012  33.813   2.714
56551W        W28866   1.329  35.487  10.412
56552W        W28867  29.437  42.415  14.833
56553W        W28868  11.638  15.977   0.927
56554W        W28869  37.420  14.538  11.871
56555W        W28870   3.734   9.852  13.865
56556W        W28871  34.599  24.867   0.310
56557W        W28872   1.773  39.007   2.449
56558W        W28873  29.001   9.263  14.393
56559W        W28874  24.686  22.721   4.978
56560W        W28875   0.856  21.463   4.972
56561W        W28876   7.862  36.030  14.718
56562W        W28877   5.706  31.095  10.584
56563W        W28878  31.118   7.687   2.412
56564W        W28879  23.208   9.739   1.984
56565W        W28880  33.954  43.563  14.005
56566W        W28881  25.694  35.449  11.508
56567W        W28882   5.289   0.062   3.599
56568W        W28883  43.184  25.802   4.574
56569W        W28884  44.815  11.554   1.891
56570W        W28885  32.571  21.655   1.543
56571W        W28886  21.529  43.571   0.234
56572W        W28887  23.318  21.780  12.498
56573W        W28888  44.738  14.269  14.493
56574W        W28889  35.372  13.825   0.745
56575W        W28890   3.022  41.405   4.900
56576W        W28891  29.490  36.954   4.261
56577W        W28892  36.471  19.875  11.932
56578W        W28893   3.257  29.291  12.062
56579W        W28894  24.619  23.920   1.214
56580W        W28895  21.677   4.738  12.534
56581W        W28896   8.041  39.470  13.354
56582W        W28897   7.813  42.774  14.305
56583W        W28898  12.734  26.114  14.354
56584W        W28899   3.257  14.891   3.594
56585W        W28900  31.092   6.484  14.238
56586W        W28901  36.095  43.285  10.775
56587W        W28902   9.146  15.426  11.462
56588W        W28903  42.980   3.200   0.872
56589W        W28904   8.936  33.919   3.012
56590W        W28905   6.903   1.367  13.466
56591W        W28906  33.002  17.010   2.212
56592W        W28907  25.935  19.195  11.659
56593W        W28908  14.885   1.847  10.574
56594W        W28909  30.235  35.337  11.021
56595W        W28910   6.296  30.625   3.160
56596W        W28911   8.591  18.830  13.935
56597W        W28912   7.381   1.347   1.613
56598W        W28913  16.396  21.463  12.930
56599W        W28914  17.509  18.063  12.903
56600W        W28915  12.603  16.414   4.581
56601W        W28916  42.559  33.621  12.410
56602W        W28917  16.732  38.344  12.928
56603W        W28918  27.221  20.071  14.077
56604W        W28919  17.957  11.705   9.452
56605W        W28920  32.561  14.334   1.790
56606W        W28921  41.432  17.779  10.757
56607W        W28922  24.219  22.588   1.516
56608W        W28923   0.684  39.323   2.107
56609W        W28924  23.650  39.351  10.642
56610W        W28925  22.000  42.902   2.335
56611W        W28926  10.709   8.342   2.213
56612W        W28927  12.096  29.470  11.174
56613W        W28928  14.724  42.499   2.188
56614W        W28929  15.501   5.349   4.617
56615W        W28930  22.654  42.863   4.166
56616W        W28931  18.412   4.217  11.469
56617W        W28932  40.923  11.465   3.341
56618W        W28933   3.329   4.228   0.719
56619W        W28934  33.136  43.264  13.288
56620W        W28935   5.870  34.926   0.409
56621W        W28936  33.160  33.671   0.187
56622W        W28937  18.659  11.524  12.637
56623W        W28938  19.932   8.261   4.700
56624W        W28939  16.882   1.030  14.291
56625W        W28940  37.018  18.768  13.236
56626W        W28941  38.774  26.257   3.019
56627W        W28942  10.022  10.890   1.475
56628W        W28943  18.805  27.855   5.060
56629W        W28944  27.680  24.527  13.393
56630W        W28945  20.288   9.382  11.495
56631W        W28946  40.580  38.641  12.000
56632W        W28947   1.813  12.878  12.508
56633W        W28948  39.078  31.067   0.082
56634W        W28949   0.933  29.160   3.955
56635W        W28950  11.812  17.545   1.214
56636W        W28951  27.994  13.634  10.517
56637W        W28952  44.078  20.094   3.009
56638W        W28953   7.156  34.687   0.104
56639W        W28954  19.325   3.727  11.007
56640W        W28955  23.658   3.778   4.555
56641W        W28956  42.041  14.440   1.516
56642W        W28957  21.301  39.770  14.879
56643W        W28958  15.200  24.201   2.615
56644W        W28959  29.986  32.620  10.645
56645W        W28960   7.650  12.465  14.372
56646W        W28961  18.532  38.461  13.725
56647W        W28962   9.869  24.548   2.929
56648W        W28963  18.016   6.369   3.098
56649W        W28964   2.373  16.396   4.756
56650W        W28965  29.344  43.547   0.439
56651W        W28966  14.327  40.851   3.667
56652W        W28967  15.083   1.525   3.770
56653W        W28968  29.334   5.443  13.770
56654W        W28969  29.502   4.320  10.223
56655W        W28970   8.745   4.935   2.843
56656W        W28971  19.691  10.807  12.473
56657W        W28972   6.863  20.156   2.807
56658W        W28973  28.115  30.455  13.808
56659W        W28974  31.113  10.282  11.429
56660W        W28975  26.934   6.429  13.751
56661W        W28976  10.337  20.727   0.417
56662W        W28977  26.203  29.691   1.881
56663W        W28978   9.298  20.437   2.803
56664W        W28979  24.955  34.338  14.975
56665W        W28980  11.268  32.410   3.700
56666W        W28981   3.835  37.497  14.013
56667W        W28982  22.240  35.104  12.284
56668W        W28983  12.838   7.495   2.166
56669W        W28984  20.029  39.272   2.722
56670W        W28985  41.035  32.970  10.638
56671W        W28986   2.600  15.624   2.532
56672W        W28987  17.243  35.206  13.034
56673W        W28988  25.099   8.777  14.478
56674W        W28989  19.723  38.795   1.647
56675W        W28990   2.260  42.459   0.264
56676W        W28991   3.266  10.945  14.391
56677W        W28992  37.834  17.345   2.548
56678W        W28993  30.638  34.439  14.986
56679W        W28994  31.877  42.772  14.881
56680W        W28995  21.159  37.487  14.430
56681W        W28996  23.215  28.560  12.522
56682W        W28997  43.896  13.956   0.823
56683W        W28998  23.242  44.348  10.973
56684W        W28999  14.340  36.144   0.975
56685W        W29000  35.670  10.802  12.169
56686W        W29001   9.236   5.331  14.329
56687W        W29002  22.506  13.662  11.969
56688W        W29003  43.834   9.270  10.626
56689W        W29004  29.980  28.068   3.410
56690W        W29005  34.032   3.798   1.242
56691W        W29006  36.804   9.500   1.823
56692W        W29007  40.015   1.503   0.742
56693W        W29008  15.562   2.242   2.833
56694W        W29009  35.572  18.064   2.027
56695W        W29010  37.144   4.663  14.941
56696W        W29011  27.641  17.234  13.420
56697W        W29012   0.492  30.621  13.022
56698W        W29013   1.291  23.052   4.063
56699W        W29014  39.117  41.381  11.198
56700W        W29015  41.265  11.653   2.357
56701W        W29016   0.134   6.319  14.661
56702W        W29017  42.717  29.894  11.186
56703W        W29018  28.511  39.821  12.558
56704W        W29019   0.125  10.354  10.268
56705W        W29020  13.810   4.108   2.612
56706W        W29021  26.532  24.646  14.262
56707W        W29022  27.638  31.418  13.006
56708W        W29023  39.985  29.252   1.132
56709W        W29024   2.070  38.349   4.240
56710W        W29025  27.378  32.779  12.032
56711W        W29026  10.056  36.572   0.914
56712W        W29027  39.232   0.343  13.446
56713W        W29028   9.574   1.378  11.038
56714W        W29029  11.556  28.214  11.031
56715W        W29030   8.368  17.504   0.275
56716W        W29031  16.242  36.079  12.005
56717W        W29032  11.807  24.268  14.511
56718W        W29033  41.349   5.888   1.407
56719W        W29034  42.238  41.369   1.828
56720W        W29035  32.704  12.808   0.856
56721W        W29036  27.008  25.007   3.300
56722W        W29037  29.929   9.699  13.338
56723W        W29038  13.589  30.691   1.714
56724W        W29039  39.001  16.782  13.751
56725W        W29040  20.501  44.699   4.133
56726W        W29041  24.292  37.849  11.137
56727W        W29042  31.579  37.837  11.552
56728W        W29043  44.519  12.252   5.575
56729W        W29044   1.599  35.604   2.872
56730W        W29045  27.606  31.928   1.073
56731W        W29046  43.852  16.392   1.984
56732W        W29047  23.573  17.149  13.348
56733W        W29048  23.706  34.047   0.153
56734W        W29049  26.404  16.863   1.689
56735W        W29050   3.192  30.451   3.198
56736W        W29051   4.347  14.441   3.138
56737W        W29052  14.150  30.008   3.670
56738W        W29053  22.402  24.879  14.430
56739W        W29054  28.203   2.950  13.956
56740W        W29055  40.173  41.110  14.398
56741W        W29056  12.063  25.133   3.302
56742W        W29057  27.982  13.249  13.998
56743W        W29058   7.289  29.796   1.406
56744W        W29059  19.618  37.309  12.960
56745W        W29060  20.545  21.129  11.410
56746W        W29061  30.125  21.989   4.112
56747W        W29062  44.597  22.252  12.466
56748W        W29063  20.805  43.603   2.173
56749W        W29064  37.893  36.440  11.095
56750W        W29065  33.985  29.313   0.773
56751W        W29066   9.461  44.066  11.667
56752W        W29067  34.469  17.490   4.084
56753W        W29068  41.586   6.615   2.266
56754W        W29069  20.412  23.888  13.300
56755W        W29070  19.271  20.689   0.764
56756W        W29071  24.061   4.723  11.543
56757W        W29072  14.741  16.806  11.529
56758W        W29073  15.874  38.408  13.082
56759W        W29074  35.368  34.384   1.608
56760W        W29075   3.243   6.340  10.656
56761W        W29076   3.600   0.846  11.538
56762W        W29077  32.022  30.636   4.979
56763W        W29078   2.952  39.838  12.843
56764W        W29079   1.593  40.049   4.539
56765W        W29080  13.109  18.669  11.111
56766W        W29081  23.728  40.448   2.734
56767W        W29082  24.505  17.678   2.579
56768W        W29083   9.841  13.340  12.870
56769W        W29084  11.746  14.429   0.325
56770W        W29085  11.805  43.416  11.972
56771W        W29086   8.939  34.966  10.486
56772W        W29087   3.876  41.966   0.681
56773W        W29088   1.878   9.528   4.561
56774W        W29089  21.961  37.274   2.743
56775W        W29090   3.947  22.807  13.713
56776W        W29091  34.288  38.316  13.901
56777W        W29092  23.927   3.749  10.675
56778W        W29093   0.212  19.602   2.624
56779W        W29094  23.916  42.764   1.647
56780W        W29095  37.499  20.971   3.647
56781W        W29096   2.026   1.974  11.537
56782W        W29097  13.503  16.553  10.541
56783W        W29098  43.805  39.464   1.408
56784W        W29099   3.112  15.697  12.502
56785W        W29100  30.967  43.583  14.415
56786W        W29101  11.141  32.122   1.509
56787W        W29102  37.079   6.816   3.188
56788W        W29103  42.792  38.605  11.210
56789W        W29104  11.638  29.068  14.746
56790W        W29105  30.921  21.791   3.614
56791W        W29106  22.222  19.883  11.225
56792W        W29107   9.129  44.958  10.662
56793W        W29108  26.117  23.521  14.091
56794W        W29109  29.424   9.584   1.017
56795W        W29110  16.758  19.813   2.385
56796W        W29111  26.247  20.344  12.622
56797W        W29112  30.646  15.277  13.758
56798W        W29113  23.699  43.734  10.976
56799W        W29114   7.304   3.406   1.747
56800W        W29115  18.672   1.435   3.282
56801W        W29116   0.503  43.282   1.237
56802W        W29117  19.774  10.192   2.994
56803W        W29118  35.404  31.443  13.584
56804W        W29119  20.174  27.518   3.930
56805W        W29120  30.116  20.260   3.150
56806W        W29121  35.474   1.662  11.170
56807W        W29122  32.964  30.023   3.791
56808W        W29123  32.382  28.521  14.757
56809W        W29124  31.388  23.635  11.717
56810W        W29125  24.013  18.277   1.177
56811W        W29126   5.759  19.588   4.656
56812W        W29127   0.351   3.700   3.170
56813W        W29128  28.066   3.098   1.212
56814W        W29129  32.364   9.967  12.630
56815W        W29130  13.199  37.012  12.887
56816W        W29131  39.508  18.695   4.090
56817W        W29132   7.956   6.590  14.731
56818W        W29133  42.817  11.896  11.527
56819W        W29134  41.992  12.219   4.726
56820W        W29135  36.666   5.483   1.254
56821W        W29136  24.127  19.868   4.193
56822W        W29137   8.644  36.539   4.458
56823W        W29138  29.055  28.407  11.144
56824W        W29139   3.049  23.123  13.602
56825W        W29140  38.729  20.573   3.284
56826W        W29141  34.356  36.902  10.775
56827W        W29142  27.169   3.717   2.450
56828W        W29143  32.329  14.702   2.781
56829W        W29144  41.969  22.679   3.778
56830W        W29145  39.955  38.361  14.050
56831W        W29146  27.901  20.190   3.286
56832W        W29147  12.843  44.892  12.217
56833W        W29148  44.079  35.148  13.938
56834W        W29149   8.628   3.483  10.099
56835W        W29150  35.512  14.032   3.380
56836W        W29151   4.034  31.027  13.368
56837W        W29152  13.272  42.557  10.475
56838W        W29153  41.028  21.064   0.948
56839W        W29154  30.195  16.686   4.631
56840W        W29155  29.385   7.903   4.703
56841W        W29156  13.732  20.208   2.172
56842W        W29157  31.900   3.851   3.216
56843W        W29158  18.860  10.796   3.714
56844W        W29159  42.665  15.631  11.426
56845W        W29160  12.207  14.750   3.693
56846W        W29161  33.539  18.812   0.301
56847W        W29162   7.336  16.649   4.411
56848W        W29163  33.427  10.650   4.156
56849W        W29164  17.993  34.185  11.994
56850W        W29165  26.394  40.551   0.889
56851W        W29166  14.481  17.585   2.737
56852W        W29167   4.241  44.889  10.992
56853W        W29168   5.941   8.553   1.225
56854W        W29169  19.687  29.600  12.929
56855W        W29170  24.515  34.439  14.170
56856W        W29171   8.680  20.720   0.728
56857W        W29172  21.166  24.634  11.875
56858W        W29173   7.941  11.486  14.313
56859W        W29174  31.984  16.436  13.540
56860W        W29175  11.242  15.672   0.081
56861W        W29176  17.339  21.173  11.267
56862W        W29177  17.804  34.380  10.665
56863W        W29178  25.490  27.750  11.535
56864W        W29179  23.979   1.424   1.931
56865W        W29180  41.723  38.361   4.444
56866W        W29181  19.348  36.514  13.718
56867W        W29182  22.228  37.081  12.808
56868W        W29183  19.726  18.059   4.211
56869W        W29184  27.091  32.640  14.298
56870W        W29185  29.260  27.717   0.467
56871W        W29186   7.990  25.397   4.186
56872W        W29187  11.862  38.874   0.452
56873W        W29188   6.834  37.485   9.797
56874W        W29189  12.252  28.787   1.518
56875W        W29190  23.033  30.192  10.446
56876W        W29191  18.585  36.680   0.816
56877W        W29192  10.917  20.227  13.315
56878W        W29193  38.313  35.883  14.801
56879W        W29194  30.300  12.775  12.013
56880W        W29195  20.209  12.573  11.142
56881W        W29196   4.743  36.493   1.287
56882W        W29197  26.381   9.750   4.040
56883W        W29198  23.141   2.984   4.513
56884W        W29199  35.367  21.512   0.184
56885W        W29200  12.423  23.255   0.414
56886W        W29201  14.033  17.319   3.817
56887W        W29202  17.668  18.272  14.555
56888W        W29203   6.228  26.500   0.475
56889W        W29204  15.731  20.725   0.965
56890W        W29205  10.570  14.344  10.630
56891W        W29206  36.910  21.505  13.068
56892W        W29207  20.990  36.982   2.853
56893W        W29208  26.746  41.456   9.856
56894W        W29209   9.193  29.503   4.230
56895W        W29210   9.342   2.206   2.313
56896W        W29211   3.169   1.766   4.234
56897W        W29212  27.664  44.233   3.284
56898W        W29213   5.276  39.613  10.981
56899W        W29214  20.588  35.938  11.599
56900W        W29215  34.280   5.120  14.836
56901W        W29216  12.852   2.277   3.166
56902W        W29217  44.483  13.636   0.348
56903W        W29218  16.120   8.359  10.560
56904W        W29219  43.699   0.083   0.629
56905W        W29220  22.088   1.330  10.636
56906W        W29221  42.938  43.735  13.330
56907W        W29222  41.954   6.321  13.876
56908W        W29223  17.630   8.180   2.361
56909W        W29224  12.622  13.613   4.411
56910W        W29225  10.757   1.740  13.954
56911W        W29226  34.024  23.694  12.178
56912W        W29227   5.756  25.394  12.137
56913W        W29228  16.673  41.994  10.694
56914W        W29229  11.355  33.571  11.989
56915W        W29230  13.536  31.465   0.390
56916W        W29231  35.053  11.348   2.749
56917W        W29232  16.834  40.107  14.277
56918W        W29233  34.597  20.219   1.411
56919W        W29234   5.007  22.005  11.836
56920W        W29235  16.842  41.877   4.207
56921W        W29236  40.858   2.089  14.066
56922W        W29237  22.744  34.385  11.186
56923W        W29238  37.296  38.920   0.957
56924W        W29239  34.243  21.544   2.459
56925W        W29240  20.201  38.581   1.208
56926W        W29241  11.718  41.003   1.778
56927W        W29242  12.211  38.560   2.895
56928W        W29243  17.638  20.685   0.349
56929W        W29244  12.976  19.759   4.165
56930W        W29245  26.707  38.572   3.943
56931W        W29246  33.374   8.932  12.575
56932W        W29247  19.959  29.690   2.231
56933W        W29248  24.579  11.810   4.506
56934W        W29249  27.638  35.760  13.896
56935W        W29250  42.347  17.611  13.621
56936W        W29251  38.914  10.285  14.483
56937W        W29252  30.858   5.722   1.363
56938W        W29253  17.083  28.502  11.775
56939W        W29254  18.122  42.742  10.689
56940W        W29255  20.313  13.753  14.978
56941W        W29256  35.567  15.105  12.473
56942W        W29257  18.654  15.171  13.546
56943W        W29258   7.759  34.862   1.389
56944W        W29259  13.733  29.932  13.974
56945W        W29260  43.311  44.171   4.555
56946W        W29261  15.495  24.891  12.418
56947W        W29262  30.412   4.479   1.427
56948W        W29263  23.065  35.022  12.943
56949W        W29264  35.113  11.685   4.147
56950W        W29265  18.137   3.320   4.590
56951W        W29266  20.539  25.675   1.536
56952W        W29267  17.636  22.814  12.919
56953W        W29268   0.154   3.278  13.487
56954W        W29269  38.597   0.942   3.889
56955W        W29270  40.927  32.522   4.914
56956W        W29271  26.647  25.939  10.645
56957W        W29272  40.558  30.185   2.310
56958W        W29273  14.317  41.194  14.352
56959W        W29274   5.946  23.454   3.271
56960W        W29275   0.294  10.200   3.127
56961W        W29276  21.457   5.202   3.990
56962W        W29277   7.116  31.230  13.323
56963W        W29278   6.055  32.906   3.222
56964W        W29279  43.915  23.019   2.571
56965W        W29280   6.103  10.084  11.232
56966W        W29281  31.091  14.424   2.459
56967W        W29282  10.859  13.940  14.906
56968W        W29283  18.566   1.355   0.463
56969W        W29284  27.210   8.249  14.681
56970W        W29285  31.057   4.870   1.962
56971W        W29286  31.451  28.973   3.323
56972W        W29287  43.720  36.514   4.674
56973W        W29288  44.300  30.148   1.981
56974W        W29289  15.609  34.928  10.363
56975W        W29290   8.287  44.406  12.752
56976W        W29291   1.968  29.463  14.314
56977W        W29292  39.403   2.317  11.502
56978W        W29293  43.929  28.245  11.192
56979W        W29294  41.947   1.932  11.503
56980W        W29295  34.393  10.315  13.964
56981W        W29296  15.328  44.980   3.688
56982W        W29297  39.714  32.618  12.557
56983W        W29298  33.597  44.317  14.851
56984W        W29299  36.862  44.893  11.501
56985W        W29300  13.686  20.051   0.756
56986W        W29301   1.916  32.592  13.544
56987W        W29302  32.717  13.598   3.596
56988W        W29303  35.506  12.361  12.154
56989W        W29304  10.367  34.806   3.231
56990W        W29305  19.929   8.140  12.165
56991W        W29306   3.038  13.419   3.187
56992W        W29307  10.711  31.262  11.312
56993W        W29308  14.387  24.263   0.764
56994W        W29309  24.202  15.234  13.860
56995W        W29310   0.732  42.422  13.982
56996W        W29311  11.784   4.427  12.884
56997W        W29312  38.865  33.762   1.024
56998W        W29313   3.010  39.959  11.094
56999W        W29314  34.495  21.340  11.740
57000W        W29315  33.461   8.703  12.106
57001W        W29316  42.436   8.757   3.340
57002W        W29317  26.986  22.141   0.139
57003W        W29318  12.269  14.504   4.726
57004W        W29319   8.285  24.524   2.105
57005W        W29320  28.174  20.461   0.826
57006W        W29321   3.256  32.890   2.788
57007W        W29322   1.903   9.496   3.709
57008W        W29323  14.541   9.301   1.289
57009W        W29324   8.192   7.058   2.246
57010W        W29325  39.137  30.124   2.196
57011W        W29326  40.962  11.227  13.120
57012W        W29327  33.860  30.340  14.919
57013W        W29328  16.376  24.191  11.016
57014W        W29329   7.390  15.804   4.070
57015W        W29330  36.975   3.247   3.114
57016W        W29331  31.279   8.681  14.952
57017W        W29332  15.395  30.543   3.430
57018W        W29333   0.251  33.127  14.839
57019W        W29334  12.695  10.900   1.419
57020W        W29335  16.555  38.564   3.334
57021W        W29336   1.693  40.769   2.408
57022W        W29337  19.703  20.229  12.389
57023W        W29338  34.844   1.826  11.703
57024W        W29339  18.351  26.526   1.252
57025W        W29340  13.217  18.157  13.786
57026W        W29341   8.518   9.429  14.881
57027W        W29342  35.262  28.070   1.074
57028W        W29343  22.390  22.358   5.081
57029W        W29344  36.458  11.104   1.611
57030W        W29345  38.872  31.522  10.610
57031W        W29346  42.373   2.725  14.865
57032W        W29347  44.847  23.952   1.616
57033W        W29348  19.090  40.771   2.695
57034W        W29349  19.866  10.034   0.927
57035W        W29350  33.454  39.808  14.841
57036W        W29351  13.796   8.809   0.247
57037W        W29352  39.847  10.283  14.109
57038W        W29353  40.799  35.553   1.743
57039W        W29354  19.243  39.703   0.962
57040W        W29355  15.679  28.661  13.845
57041W        W29356   6.722  37.367   3.965
57042W        W29357  33.458  22.899   0.423
57043W        W29358  25.720   2.809   2.590
57044W        W29359  24.706  34.895   1.683
57045W        W29360  21.383  28.999  13.849
57046W        W29361  43.073  25.929   0.512
57047W        W29362  38.327  26.037   4.256
57048W        W29363  17.136  41.417  12.066
57049W        W29364  31.731  21.163  13.909
57050W        W29365  12.124  40.465   0.419
57051W        W29366  28.549  32.466  11.073
57052W        W29367  32.932  18.559  10.374
57053W        W29368  31.682  25.685   0.271
57054W        W29369  39.498   5.604  11.916
57055W        W29370   5.635  15.745  12.471
57056W        W29371  17.851  14.324   4.322
57057W        W29372  27.632   2.980  11.096
57058W        W29373   4.337   2.834   1.108
57059W        W29374  27.082  33.338   3.280
57060W        W29375  16.053   4.541  10.361
57061W        W29376  20.691  26.573   2.073
57062W        W29377  32.400  20.256   3.690
57063W        W29378  22.072  42.344   0.771
57064W        W29379   5.345  18.015   0.754
57065W        W29380  17.292  42.938   1.786
57066W        W29381   1.514  17.797   0.860
57067W        W29382  21.192  29.616  10.652
57068W        W29383  14.357  31.391  14.328
57069W        W29384   3.789  23.567  13.017
57070W        W29385   8.734   6.327  14.513
57071W        W29386  42.227  25.140  10.569
57072W        W29387  17.240  13.579   3.653
57073W        W29388  39.459   3.370  13.383
57074W        W29389  30.514  23.941   0.915
57075W        W29390   2.496  16.027   0.976
57076W        W29391   3.923  23.473  10.782
57077W        W29392  18.156  40.148  12.868
57078W        W29393  21.725  31.651  12.168
57079W        W29394  31.967  39.611  11.128
57080W        W29395  43.228  40.461  11.093
57081W        W29396  23.208  44.379  10.466
57082W        W29397  42.305  41.772  10.956
57083W        W29398  23.563   2.327  12.604
57084W        W29399  43.275  17.168  11.719
57085W        W29400  13.888   3.037   4.174
57086W        W29401  32.046  44.275  13.846
57087W        W29402   7.234  32.362   3.607
57088W        W29403  30.434  39.584   2.256
57089W        W29404   2.890  38.998   3.561
57090W        W29405   3.910   1.439   0.924
57091W        W29406  36.132  44.522   3.464
57092W        W29407  11.946  34.609  13.303
57093W        W29408  33.457  27.059  13.321
57094W        W29409  25.710  14.184  10.669
57095W        W29410   9.855  20.070   0.729
57096W        W29411  40.437  21.709  14.385
57097W        W29412  23.493  43.909   0.338
57098W        W29413  28.631  10.360  12.160
57099W        W29414  39.140  13.025  10.570
57100W        W29415  21.487  13.369  12.000
57101W        W29416   8.261  10.555  13.218
57102W        W29417  14.819  11.275  11.635
57103W        W29418  17.124  44.977  11.631
57104W        W29419  16.258   2.484   0.436
57105W        W29420  42.544  18.026   3.651
57106W        W29421  37.332  29.072   4.579
57107W        W29422  10.563  16.310   3.242
57108W        W29423  21.061  18.876  13.513
57109W        W29424  41.207  27.071  13.257
57110W        W29425  20.673  17.085   0.249
57111W        W29426  44.569  19.456   3.289
57112W        W29427   4.285  21.723  12.384
57113W        W29428  41.843  16.269  13.131
57114W        W29429   2.431  39.395  14.001
57115W        W29430  17.172   1.819   0.899
57116W        W29431  35.180  37.954   3.783
57117W        W29432  11.347  31.115   1.749
57118W        W29433  37.351  34.837  13.345
57119W        W29434  16.072  29.968  14.681
57120W        W29435   3.485  42.107   0.362
57121W        W29436   7.129  35.994  12.119
57122W        W29437  16.224  19.131  13.501
57123W        W29438  43.928   1.416  10.959
57124W        W29439  32.344  29.365   2.899
57125W        W29440  23.024  19.738   0.900
57126W        W29441  40.234  23.927  10.589
57127W        W29442  34.000  11.786  11.961
57128W        W29443   1.803   1.543   1.249
57129W        W29444  31.856   6.305   1.651
57130W        W29445  44.889  31.804   0.009
57131W        W29446  31.906  14.189   1.035
57132W        W29447   3.202   6.354  13.083
57133W        W29448  28.718  24.600  11.929
57134W        W29449   0.568  38.111  14.283
57135W        W29450  10.155  27.425   3.407
57136W        W29451   7.602  14.728  11.202
57137W        W29452  43.058  10.606  12.465
57138W        W29453  32.531  38.879  14.960
57139W        W29454   4.203   9.371   3.376
57140W        W29455  21.136  13.133   4.625
57141W        W29456   0.675  34.053  12.028
57142W        W29457  17.112  42.248   0.013
57143W        W29458   5.300  29.140   2.920
57144W        W29459  16.559  42.475  11.169
57145W        W29460  15.709  27.058   0.907
57146W        W29461   0.533  12.694   2.378
57147W        W29462  25.341  33.698   2.220
57148W        W29463  28.379  39.088  10.670
57149W        W29464  17.514  40.189   5.035
57150W        W29465  16.984  31.178   2.301
57151W        W29466  29.983  20.489  10.590
57152W        W29467  23.169  43.862  11.146
57153W        W29468  30.879  44.885   3.379
57154W        W29469   5.745  12.870  14.449
57155W        W29470   6.073   7.713  13.649
57156W        W29471  44.038  37.601   1.422
57157W        W29472   6.289  28.461  12.334
57158W        W29473  11.530  23.618   4.469
57159W        W29474  20.156  17.119   2.926
57160W        W29475  10.160  23.403   5.028
57161W        W29476   6.465  13.376  10.621
57162W        W29477  43.738  29.385   1.177
57163W        W29478   9.253   0.461   2.245
57164W        W29479   9.406   1.206  14.120
57165W        W29480  43.871  25.243   2.238
57166W        W29481   4.930  16.503   2.836
57167W        W29482   3.289  29.094  10.742
57168W        W29483   0.122  42.301  12.836
57169W        W29484  19.789  18.173  13.527
57170W        W29485  35.076  44.311   4.159
57171W        W29486  10.677  31.414  14.919
57172W        W29487  42.678  11.971   0.885
57173W        W29488  31.385   3.941  10.450
57174W        W29489  11.222   9.672   2.251
57175W        W29490  33.873   5.111  13.932
57176W        W29491  35.941   0.233   4.626
57177W        W29492  17.227  29.530  12.167
57178W        W29493  17.253  43.089  11.444
57179W        W29494   1.490  11.070  14.893
57180W        W29495  32.168  18.804   2.867
57181W        W29496  30.736  33.915   2.280
57182W        W29497  34.953  17.861   4.805
57183W        W29498  21.477  37.289  13.713
57184W        W29499  37.483  19.983   0.024
57185W        W29500   4.612  25.360  10.243
57186W        W29501  40.840   8.887  13.503
57187W        W29502  28.781  42.524   3.305
57188W        W29503  12.335  21.674   3.198
57189W        W29504  18.223  21.467  11.472
57190W        W29505  26.555  27.476  11.694
57191W        W29506  44.909  24.511  11.545
57192W        W29507  27.108  44.499   0.177
57193W        W29508  17.126  23.136   4.408
57194W        W29509  27.771  20.305   2.481
57195W        W29510  17.767  24.633  11.430
57196W        W29511  38.090   4.192   4.161
57197W        W29512   2.720  27.102   1.519
57198W        W29513  21.011  16.287  13.041
57199W        W29514  11.710   3.196   9.863
57200W        W29515  42.412   9.961   1.253
57201W        W29516   2.015  17.162  14.472
57202W        W29517  15.902   1.700  14.392
57203W        W29518   3.854   6.363   4.821
57204W        W29519  37.451  44.854  11.592
57205W        W29520  33.850  29.222  10.674
57206W        W29521  42.503  43.829   3.971
57207W        W29522  18.688   1.880   0.509
57208W        W29523   4.451  30.130   4.116
57209W        W29524  16.789   3.829   1.427
57210W        W29525   4.287  38.502  10.858
57211W        W29526  34.544  36.103  11.118
57212W        W29527  19.759  20.098  11.889
57213W        W29528   5.826  42.744  12.123
57214W        W29529  17.031  33.479   0.031
57215W        W29530  32.920  41.987   0.926
57216W        W29531   1.586  17.356  13.358
57217W        W29532  38.395   8.679  12.317
57218W        W29533  37.885  16.833  13.466
57219W        W29534   9.754  23.234   3.356
57220W        W29535   9.474  42.597  10.813
57221W        W29536   3.155  29.611   2.246
57222W        W29537  34.164  43.079  14.039
57223W        W29538  19.971  39.983  12.011
57224W        W29539  19.689   8.996   3.810
57225W        W29540  19.143  43.200  13.928
57226W        W29541  25.619  17.526   4.965
57227W        W29542   2.790  36.547   4.794
57228W        W29543  23.788  21.736   3.202
57229W        W29544   4.219  24.594   2.702
57230W        W29545   0.320  20.047  13.343
57231W        W29546  24.140  20.431   1.857
57232W        W29547  19.544  24.429  11.108
57233W        W29548   5.956  11.282   3.720
57234W        W29549  37.071  24.764   0.400
57235W        W29550  23.422  16.089  12.587
57236W        W29551  22.494  39.861   3.252
57237W        W29552  39.982   7.173   3.630
57238W        W29553  22.232   4.572   0.084
57239W        W29554   8.335  24.554   1.258
57240W        W29555  14.036   7.258   2.852
57241W        W29556  30.474  35.477  14.545
57242W        W29557  44.293  23.158  13.436
57243W        W29558  38.311  28.131   1.188
57244W        W29559  26.310  25.403  11.625
57245W        W29560  11.462  16.550  10.517
57246W        W29561   0.035   3.335   5.034
57247W        W29562  37.364   0.341   2.780
57248W        W29563   2.952   8.876   0.302
57249W        W29564  35.662  35.372   1.802
57250W        W29565  36.001  41.777   3.236
57251W        W29566  25.593  33.714   3.218
57252W        W29567  29.566   6.512  14.425
57253W        W29568   0.773  43.489   3.391
57254W        W29569  34.614  35.928   0.644
57255W        W29570  42.839   5.206  14.266
57256W        W29571  41.604  38.340   2.808
57257W        W29572  10.172  37.177  13.932
57258W        W29573  42.282  15.263  13.755
57259W        W29574  21.411  17.110  12.515
57260W        W29575  39.536  15.166  13.151
57261W        W29576   8.108  27.570   3.210
57262W        W29577  36.006  38.647   2.778
57263W        W29578   7.156  40.623  14.289
57264W        W29579  22.774   5.756   1.387
57265W        W29580  11.351  32.512  14.812
57266W        W29581  21.057  29.475  12.148
57267W        W29582  34.589  26.695  14.549
57268W        W29583  26.505   6.503   9.770
57269W        W29584   2.932  15.564   3.134
57270W        W29585  31.185  24.790   1.419
57271W        W29586   8.769   2.887  11.854
57272W        W29587  18.530   9.602   4.157
57273W        W29588  16.549  16.029  12.854
57274W        W29589  38.477  38.722  13.684
57275W        W29590  19.337   9.794  14.379
57276W        W29591  15.558  44.331   0.481
57277W        W29592  24.019  37.363   1.651
57278W        W29593   0.524  13.151  13.724
57279W        W29594  33.553  30.681   2.332
57280W        W29595  11.756  36.020  10.963
57281W        W29596  37.084  31.037  12.094
57282W        W29597  12.817  25.167  13.150
57283W        W29598  21.691  26.705  11.461
57284W        W29599  35.579  31.412  14.525
57285W        W29600  40.823  26.665  14.983
57286W        W29601  31.906  32.129  13.902
57287W        W29602  21.014  36.940  14.411
57288W        W29603   1.865   3.431  11.581
57289W        W29604  40.472  16.546   0.500
57290W        W29605  31.505  39.368  11.162
57291W        W29606  19.081  38.831   9.779
57292W        W29607  32.184  13.000  13.763
57293W        W29608  32.013   5.582  13.405
57294W        W29609  42.817  44.251   1.327
57295W        W29610  38.823  13.855   4.293
57296W        W29611   5.552   7.095   0.225
57297W        W29612   4.501  22.529  13.022
57298W        W29613  36.460   1.004   4.740
57299W        W29614   4.924  41.250   2.737
57300W        W29615  44.170   1.315   2.895
57301W        W29616  43.946  41.952  10.785
57302W        W29617   7.298  36.567  14.017
57303W        W29618  21.348  20.032   5.491
57304W        W29619  42.825  26.000  10.705
57305W        W29620   8.487  43.487  10.863
57306W        W29621   4.556  17.286   1.665
57307W        W29622   4.474   4.808   2.347
57308W        W29623  18.246  13.603  12.897
57309W        W29624   6.016  24.259   4.356
57310W        W29625  14.643  20.421   0.122
57311W        W29626  44.993  43.368  10.928
57312W        W29627   2.200  29.320   2.344
57313W        W29628  34.037  21.680  13.584
57314W        W29629  29.948  38.559  13.923
57315W        W29630  20.079   4.788  14.454
57316W        W29631  42.548   9.741  12.604
57317W        W29632  20.628  15.684   4.410
57318W        W29633  27.164  44.247  11.153
57319W        W29634  44.315  18.295  11.444
57320W        W29635   2.294  37.468  13.796
57321W        W29636   6.266  12.094  14.524
57322W        W29637  34.085   8.748   1.302
57323W        W29638  19.797  43.901   1.638
57324W        W29639  24.362  16.556   2.146
57325W        W29640   1.763  33.518   1.030
57326W        W29641  29.580  15.865  11.448
57327W        W29642  30.590  38.864  11.809
57328W        W29643  26.006  27.378   1.290
57329W        W29644  21.761   9.822  10.574
57330W        W29645   8.028  27.669  10.361
57331W        W29646  15.344   7.637  13.997
57332W        W29647  21.633  20.600  14.299
57333W        W29648  43.722  24.111   2.860
57334W        W29649  41.946  13.947   0.103
57335W        W29650   9.221  18.416   9.838
57336W        W29651   8.966  20.618   4.636
57337W        W29652   8.715  44.038   0.391
57338W        W29653  39.524  30.685  13.390
57339W        W29654  15.387   1.924   3.723
57340W        W29655  36.485  28.849  14.630
57341W        W29656  41.835  40.181  12.924
57342W        W29657   4.761  17.317   3.027
57343W        W29658  36.567  22.823   4.158
57344W        W29659  36.273  39.845  10.229
57345W        W29660  16.816   2.349  13.607
57346W        W29661   6.850  41.411  13.740
57347W        W29662  13.076  24.090   4.071
57348W        W29663  33.529  40.522   3.136
57349W        W29664   4.239   2.024   1.742
57350W        W29665  14.668  29.129  11.584
57351W        W29666  16.674  41.610  14.336
57352W        W29667  31.022  43.705   1.457
57353W        W29668  11.080  26.008   2.852
57354W        W29669  26.651   8.736   4.934
57355W        W29670  38.367  27.134  10.319
57356W        W29671  41.855  19.959  13.938
57357W        W29672   6.499  27.112  11.282
57358W        W29673  32.160  42.645   4.595
57359W        W29674  38.653   1.181  12.490
57360W        W29675  12.736  16.070  14.490
57361W        W29676  17.570  43.368   1.677
57362W        W29677   1.372  16.796  14.889
57363W        W29678  37.834   1.936   4.554
57364W        W29679  14.118   3.400   1.281
57365W        W29680  31.211  22.951   1.878
57366W        W29681  11.912  36.480  10.789
57367W        W29682  19.014  27.169   1.358
57368W        W29683  32.811  37.324   3.694
57369W        W29684  14.612  10.396  11.202
57370W        W29685  37.624  18.566   2.773
57371W        W29686  37.057  41.516   1.814
57372W        W29687  15.283  32.539  12.269
57373W        W29688  37.439  33.320  11.461
57374W        W29689  33.391  43.004   5.041
57375W        W29690   0.710  42.964  10.759
57376W        W29691  15.807   5.536   1.122
57377W        W29692  19.843  16.294   0.828
57378W        W29693  10.082  10.932   3.725
57379W        W29694  30.175  23.214  12.470
57380W        W29695  28.691  24.600  11.066
57381W        W29696  36.099  44.877   1.699
57382W        W29697  40.509   6.907  11.608
57383W        W29698  42.410  44.900  11.525
57384W        W29699  38.559  26.007   9.776
57385W        W29700  44.692  35.292   2.064
57386W        W29701  10.280  23.701   1.471
57387W        W29702   3.002  22.698   0.198
57388W        W29703  32.241  41.474   2.177
57389W        W29704  26.144  16.254   0.275
57390W        W29705   3.235  39.848   3.746
57391W        W29706   1.170  12.286  11.680
57392W        W29707  28.495  21.032   3.234
57393W        W29708   1.494  33.996   3.752
57394W        W29709   4.778  30.595   1.245
57395W        W29710  41.037  23.785   0.330
57396W        W29711  32.768  10.669  13.374
57397W        W29712  30.061  32.455  13.542
57398W        W29713   7.406   2.793  13.444
57399W        W29714  18.073  38.800   0.875
57400W        W29715   6.032  27.244  11.134
57401W        W29716  23.077  19.021   3.198
57402W        W29717  29.867  22.811   3.898
57403W        W29718  29.136  35.479  11.912
57404W        W29719  19.987  23.476   3.343
57405W        W29720  28.941  20.661  13.046
57406W        W29721  41.399   7.255   2.886
57407W        W29722  19.782  24.126   1.923
57408W        W29723   6.295  43.743  13.666
57409W        W29724  13.801   1.344  13.866
57410W        W29725   2.158  32.440   3.682
57411W        W29726   4.710  19.770  13.823
57412W        W29727  42.296  15.711   1.874
57413W        W29728  22.683  30.526   2.879
57414W        W29729  17.369  10.785  13.862
57415W        W29730  19.827  32.023  12.073
57416W        W29731  28.395  20.725   2.815
57417W        W29732   1.342   8.694  11.485
57418W        W29733  40.969  40.344  14.447
57419W        W29734  33.975   6.750  14.513
57420W        W29735   1.692  10.438  12.102
57421W        W29736  22.627  10.386   2.806
57422W        W29737  22.763   4.181  13.860
57423W        W29738  40.764  22.665  12.879
57424W        W29739  21.094  28.075  14.487
57425W        W29740  19.842  37.948   4.174
57426W        W29741   8.762   6.864   3.198
57427W        W29742  29.695  32.924   3.269
57428W        W29743  44.357   5.607  14.666
57429W        W29744  25.098  35.041  11.643
57430W        W29745  23.504  33.014   3.327
57431W        W29746  19.699  20.560  10.534
57432W        W29747  35.036  14.844  12.896
57433W        W29748  18.106   0.440   1.811
57434W        W29749  41.953  10.799  11.484
57435W        W29750  18.166  10.638   3.184
57436W        W29751  37.524  13.874  14.834
57437W        W29752  35.292   2.527   2.470
57438W        W29753  23.847  11.212  11.247
57439W        W29754   3.139  41.505   2.173
57440W        W29755   3.769  25.748  14.878
57441W        W29756   7.393   3.812  13.788
57442W        W29757  15.118  19.095   3.472
57443W        W29758  32.886  20.605   4.307
57444W        W29759   5.422  41.596   4.377
57445W        W29760  13.365  18.650  11.560
57446W        W29761   6.472   4.374   1.328
57447W        W29762  29.041  24.209  13.499
57448W        W29763  20.228  14.609   3.327
57449W        W29764  32.480  22.498   3.308
57450W        W29765  13.335  22.175   4.073
57451W        W29766  31.543  37.594   3.411
57452W        W29767  18.212  13.280  14.208
57453W        W29768   2.764   9.735  13.346
57454W        W29769   9.382   6.899   0.017
57455W        W29770  10.778  22.453  14.025
57456W        W29771  28.162  38.078  11.153
57457W        W29772  33.670   0.027  10.680
57458W        W29773  38.246  38.025   2.237
57459W        W29774   7.800  35.898   3.199
57460W        W29775   4.083   2.706   2.690
57461W        W29776  41.537  40.360   1.361
57462W        W29777  15.016  14.230  14.047
57463W        W29778  20.591  32.575   0.726
57464W        W29779  42.054  19.718  14.680
57465W        W29780  26.560  41.055   2.724
57466W        W29781  29.493  20.297  10.529
57467W        W29782   7.752  31.835   2.801
57468W        W29783   7.617  19.016   2.428
57469W        W29784  37.348  40.972  12.027
57470W        W29785   1.701  34.447  12.890
57471W        W29786  19.621   6.382   4.427
57472W        W29787  14.477  14.100  13.296
57473W        W29788  43.238  42.459  10.550
57474W        W29789  44.341   5.030   0.694
57475W        W29790  24.454  17.210   0.972
57476W        W29791  41.387  32.528  14.833
57477W        W29792   4.296   7.168  13.287
57478W        W29793   4.344  41.097  11.837
57479W        W29794  36.537  32.499   3.295
57480W        W29795   5.015  41.125   0.410
57481W        W29796  14.810  40.945  14.506
57482W        W29797  24.707   7.229  14.303
57483W        W29798   3.232   6.068  12.201
57484W        W29799  36.084  13.788  14.314
57485W        W29800  17.764  27.551   3.208
57486W        W29801  21.904  26.717   4.163
57487W        W29802  23.636  38.768  12.170
57488W        W29803  32.449  23.511   2.295
57489W        W29804  11.327  20.051   3.623
57490W        W29805   0.304  36.146   0.916
57491W        W29806  15.119  31.574  12.343
57492W        W29807  20.523  24.698   4.105
57493W        W29808  42.674  24.683  13.522
57494W        W29809  17.254  11.352  14.950
57495W        W29810  12.377  13.711   1.245
57496W        W29811  44.711  32.688   4.222
57497W        W29812  16.212  29.889   3.054
57498W        W29813  32.121   3.385   3.320
57499W        W29814  19.736  19.639   1.197
57500W        W29815  35.553   2.185   0.883
57501W        W29816   6.887  25.558   2.182
57502W        W29817  18.037  31.007  14.693
57503W        W29818  12.408  18.122  14.397
57504W        W29819  30.426  39.066   2.209
57505W        W29820  23.820   4.306   4.518
57506W        W29821  37.965   2.752  12.137
57507W        W29822  15.999   5.569   4.685
57508W        W29823  14.278  36.755   3.661
57509W        W29824  30.528   3.151   3.447
57510W        W29825  43.583  29.844   2.827
57511W        W29826  39.902  27.113   0.397
57512W        W29827  42.907  34.332   2.735
57513W        W29828  34.008   9.920  11.263
57514W        W29829   5.564  20.702   2.430
57515W        W29830  34.836  11.607  13.015
57516W        W29831   2.012  21.206  13.790
57517W        W29832  40.822  43.802  12.953
57518W        W29833  42.411   1.045  13.459
57519W        W29834  41.423  12.571  11.249
57520W        W29835  25.502   8.763  14.887
57521W        W29836  24.617  28.503   4.168
57522W        W29837   7.297  14.954  11.868
57523W        W29838  22.561  38.236  10.742
57524W        W29839   4.917  35.578  10.546
57525W        W29840  18.494  39.629  14.872
57526W        W29841  37.195   7.720   3.224
57527W        W29842  41.868  18.260   1.977
57528W        W29843   9.940  10.782   0.533
57529W        W29844  42.910  42.398   1.920
57530W        W29845  36.829  22.195  10.603
57531W        W29846  31.889  20.014   0.959
57532W        W29847  11.157  10.353   2.873
57533W        W29848   8.638  14.087  13.440
57534W        W29849  24.165  32.542  14.379
57535W        W29850  34.105  31.085   0.383
57536W        W29851  40.746  12.396  14.269
57537W        W29852   3.907  21.814  13.899
57538W        W29853  36.518   8.151  11.988
57539W        W29854  14.318   3.386   4.216
57540W        W29855   2.378  21.182   0.073
57541W        W29856   4.368  10.807   3.159
57542W        W29857  12.221  17.161  13.059
57543W        W29858  22.468  13.773   1.903
57544W        W29859  17.600   5.467  12.909
57545W        W29860  13.395  36.454  13.306
57546W        W29861  19.846  19.317  12.413
57547W        W29862  28.616   5.951  10.472
57548W        W29863   4.297  44.444  13.541
57549W        W29864  43.621  20.196  13.877
57550W        W29865   3.903  17.783   2.802
57551W        W29866  13.034  41.995   4.406
57552W        W29867  18.465  38.905  14.025
57553W        W29868  34.918  15.601   1.290
57554W        W29869  40.116   9.868  11.131
57555W        W29870  23.392  15.659  11.904
57556W        W29871  32.186  13.633   3.604
57557W        W29872  24.666  21.003   1.307
57558W        W29873  35.922  30.307   1.520
57559W        W29874  21.268  14.074   5.093
57560W        W29875  15.726  41.364   2.185
57561W        W29876   8.279  43.815  12.193
57562W        W29877  13.027  30.883  11.555
57563W        W29878  10.679   3.896  10.678
57564W        W29879  42.960   2.943   4.807
57565W        W29880  44.628  34.832   4.964
57566W        W29881  38.389  10.740  13.379
57567W        W29882  34.865  19.752   3.098
57568W        W29883  13.005  18.706   0.524
57569W        W29884  44.511  33.912   3.636
57570W        W29885  10.180  41.662   0.886
57571W        W29886   5.175  12.639  11.935
57572W        W29887  38.061   1.372  11.065
57573W        W29888  19.436  26.359  12.037
57574W        W29889  16.259   9.689   4.964
57575W        W29890  43.764  27.475   2.798
57576W        W29891  44.803   4.164  11.599
57577W        W29892  11.067  25.515  10.602
57578W        W29893   2.688  14.782  13.374
57579W        W29894  26.046  31.068  14.164
57580W        W29895  29.522  12.271  10.712
57581W        W29896  34.668   7.119   3.400
57582W        W29897  14.564  36.085  14.381
57583W        W29898   1.620   7.244  14.880
57584W        W29899  22.585  32.355   1.439
57585W        W29900  16.308  21.750  11.697
57586W        W29901   2.511  36.080   5.191
57587W        W29902  17.832  34.132  14.769
57588W        W29903  35.465   8.832   2.802
57589W        W29904  39.589  20.160   3.166
57590W        W29905  19.075  32.290   4.248
57591W        W29906  28.547   3.249  14.984
57592W        W29907   8.930  20.078  14.640
57593W        W29908  31.124  20.348  13.834
57594W        W29909  12.101   3.730   4.660
57595W        W29910  12.274  44.338   2.865
57596W        W29911  38.626   5.375   2.308
57597W        W29912  23.265  17.697   3.439
57598W        W29913   9.880   8.954  14.350
57599W        W29914  40.658  17.643   0.831
57600W        W29915   3.202  20.126   4.099
57601W        W29916  24.095  23.372   4.376
57602W        W29917  43.028  28.924   0.284
57603W        W29918  26.690  43.980  14.840
57604W        W29919  33.409  15.308   3.214
57605W        W29920   5.628   2.064   3.752
57606W        W29921  13.626  41.234   3.864
57607W        W29922  30.034  14.757   4.357
57608W        W29923  33.848  27.037  12.120
57609W        W29924  32.077  38.868  11.530
57610W        W29925  16.742  20.288   1.342
57611W        W29926  16.250  43.702   1.226
57612W        W29927  36.579  11.702   0.890
57613W        W29928   3.631  22.513  12.470
57614W        W29929  37.347  30.878   9.869
57615W        W29930   6.768  16.710   1.842
57616W        W29931  21.753  43.217  11.574
57617W        W29932  31.323   0.425   1.509
57618W        W29933  23.565   4.139  12.909
57619W        W29934  23.253  35.401  11.423
57620W        W29935  35.090  38.798  13.629
57621W        W29936  18.003  16.273  12.884
57622W        W29937  21.173   4.651   4.994
57623W        W29938  26.416   8.207   4.541
57624W        W29939  33.461  35.902  13.896
57625W        W29940  15.013  27.645  10.683
57626W        W29941   8.391  40.840  13.270
57627W        W29942  40.618  26.478  10.236
57628W        W29943  18.289  13.015  13.722
57629W        W29944  21.638  41.841   2.318
57630W        W29945  30.887  22.416   2.677
57631W        W29946   2.557  22.076  14.504
57632W        W29947  43.774   2.265   0.391
57633W        W29948   7.832  29.146  14.915
57634W        W29949  44.852  44.802   2.307
57635W        W29950  21.697   7.401  12.966
57636W        W29951  43.874  26.228  10.689
57637W        W29952  14.188  34.848   0.055
57638W        W29953  37.583  16.110  10.757
57639W        W29954  44.857  41.158   4.026
57640W        W29955  15.696   5.677  11.060
57641W        W29956   9.801  16.916  10.101
57642W        W29957  40.571  11.852  10.210
57643W        W29958  37.885  24.723  10.861
57644W        W29959  20.413   3.805  13.845
57645W        W29960  20.136  23.592   0.889
57646W        W29961  29.545  34.635   4.546
57647W        W29962  38.031  21.153  10.192
57648W        W29963  43.485   5.170  13.865
57649W        W29964   2.004  40.336   1.814
57650W        W29965  19.806  27.969  11.154
57651W        W29966  30.010   5.239   2.709
57652W        W29967   0.094  38.818  12.990
57653W        W29968  34.848   7.797   4.558
57654W        W29969  22.677  37.287   3.798
57655W        W29970  19.499  31.385   2.513
57656W        W29971  40.086  22.437   5.116
57657W        W29972  20.176  29.434   4.114
57658W        W29973  13.440  10.134   0.945
57659W        W29974  35.077   7.865   1.892
57660W        W29975   9.265  25.061   3.212
57661W        W29976  28.577   3.255  10.618
57662W        W29977   5.888  34.879  11.614
57663W        W29978  14.648   7.167  13.813
57664W        W29979   3.824  19.492  11.094
57665W        W29980  40.258  40.927   2.351
57666W        W29981   4.228  32.713   0.772
57667W        W29982  14.095   2.726  11.565
57668W        W29983   5.993  16.377   3.724
57669W        W29984   9.254   5.206  11.999
57670W        W29985  17.838  37.926  12.082
57671W        W29986  21.670   2.332   0.293
57672W        W29987  20.667  13.101  13.533
57673W        W29988  29.706  19.179   1.754
57674W        W29989  20.778  31.591   2.837
57675W        W29990  10.553  10.271  10.450
57676W        W29991  37.409  28.158  11.908
57677W        W29992   3.449  27.183  11.339
57678W        W29993  10.292  28.328   2.301
57679W        W29994   6.130  42.333   4.297
57680W        W29995  16.698   2.893   4.515
57681W        W29996   4.222  23.642  13.392
57682W        W29997  16.184  26.395  13.882
57683W        W29998  12.002  42.504   3.258
57684W        W29999   2.319  43.321  11.985
57685W        W30000  10.195  32.160   3.262
57686W        W30001   9.832  23.120  12.641
57687W        W30002  42.795  17.651   0.740
57688W        W30003  43.646  22.800  11.738
57689W        W30004  29.675  38.044   4.312
57690W        W30005   3.918   5.815   3.606
57691W        W30006  21.903  24.068  11.056
57692W        W30007  40.546  27.235  14.025
57693W        W30008  17.109  14.917  12.327
57694W        W30009  22.401  21.770   2.402
57695W        W30010  27.626  37.561   1.955
57696W        W30011  20.125  36.769   0.965
57697W        W30012  11.773  20.526   0.368
57698W        W30013   2.392  28.516  11.293
57699W        W30014  40.406  13.810   5.165
57700W        W30015   5.682  21.630   0.383
57701W        W30016  24.741  33.893   1.707
57702W        W30017  23.747  17.131  11.965
57703W        W30018  21.760  29.877  13.818
57704W        W30019  30.055  24.771   4.870
57705W        W30020  27.457  39.150  10.561
57706W        W30021  32.079   5.323  10.728
57707W        W30022  11.271  28.719   2.475
57708W        W30023  25.528  44.302  13.519
57709W        W30024   2.446   1.428   0.671
57710W        W30025  14.098  32.598  11.778
57711W        W30026  32.156  21.411   2.520
57712W        W30027  29.699  36.020   1.891
57713W        W30028   6.860  39.153   0.372
57714W        W30029  37.478   1.109   4.276
57715W        W30030   9.350   8.972  11.249
57716W        W30031  43.872  16.505   0.123
57717W        W30032   3.232  24.987  12.218
57718W        W30033   0.799   1.253   1.400
57719W        W30034  20.106  14.177  10.732
57720W        W30035  20.734  21.534   2.714
57721W        W30036  25.352  25.092   4.211
57722W        W30037  14.872  39.117   3.359
57723W        W30038  33.122  35.245   4.911
57724W        W30039  11.781   5.856  12.855
57725W        W30040  26.208  42.303   2.880
57726W        W30041  23.757   7.644   4.177
57727W        W30042  15.758  17.299  10.615
57728W        W30043  24.685  28.463  12.486
57729W        W30044  41.266  43.748  13.818
57730W        W30045  13.070  22.598  11.529
57731W        W30046  36.011  17.342   2.582
57732W        W30047   4.714  12.391  14.326
57733W        W30048  13.194  19.047  11.864
57734W        W30049  34.299  42.798  11.037
57735W        W30050  24.985   8.098   3.911
57736W        W30051   7.204  23.383  14.286
57737W        W30052   1.947  42.730  10.168
57738W        W30053   3.321   9.727  13.509
57739W        W30054  26.816  29.065  12.931
57740W        W30055  10.930  23.226  13.020
57741W        W30056  33.952   9.195   4.599
57742W        W30057  11.436  19.852   9.832
57743W        W30058  21.578  17.824  12.997
57744W        W30059  15.091  13.179  11.687
57745W        W30060  20.313   7.435   0.347
57746W        W30061  40.439  31.362  14.395
57747W        W30062  29.473   3.402   3.627
57748W        W30063  17.184  28.087   2.235
57749W        W30064  41.792  35.916   2.385
57750W        W30065  14.782  17.263  13.539
57751W        W30066   4.264  15.208   2.783
57752W        W30067  29.125  43.342  14.454
57753W        W30068  42.074   6.673  13.169
57754W        W30069  22.777   7.467  14.709
57755W        W30070  29.649  29.079  10.489
57756W        W30071   2.039  33.939   0.969
57757W        W30072  40.063  28.485   4.405
57758W        W30073  39.235  36.959  14.836
57759W        W30074  30.867  17.156   1.721
57760W        W30075  36.521  13.180   1.424
57761W        W30076  15.775  34.845  12.923
57762W        W30077   0.008  13.342   1.433
57763W        W30078  28.990  38.836   3.176
57764W        W30079  24.879  16.542  11.141
57765W        W30080  35.415  40.838  12.632
57766W        W30081  35.595  44.905   0.153
57767W        W30082   5.467   1.792  14.866
57768W        W30083  39.294  42.565   0.437
57769W        W30084  12.257  16.607   1.828
57770W        W30085  27.145  19.999   2.797
57771W        W30086  25.103  25.702   1.492
57772W        W30087  26.043  16.049  13.052
57773W        W30088  31.094  26.597   0.897
57774W        W30089  23.978  25.085  12.545
57775W        W30090   4.323  20.551   0.905
57776W        W30091   4.296  39.011  10.703
57777W        W30092  35.107  43.300   0.031
57778W        W30093   7.994  18.156  13.806
57779W        W30094   0.193  25.686   3.189
57780W        W30095   1.747  26.103   0.978
57781W        W30096  17.029  19.300   4.826
57782W        W30097  34.360  36.558  13.853
57783W        W30098  19.069  32.506  12.032
57784W        W30099  37.523  10.724   3.704
57785W        W30100  17.195  14.680   1.846
57786W        W30101   1.441  21.569  11.479
57787W        W30102  42.319   1.930   0.303
57788W        W30103   1.772  17.560  14.766
57789W        W30104  28.991  11.552   0.341
57790W        W30105  11.937  30.231  14.014
57791W        W30106  24.113  18.717   9.811
57792W        W30107  17.188  43.699  13.362
57793W        W30108  15.810   3.861   2.146
57794W        W30109   0.358  32.409  11.620
57795W        W30110   0.216   5.849  11.464
57796W        W30111  10.280   8.437   1.882
57797W        W30112  15.503  41.489  13.117
57798W        W30113   8.924   2.291   0.222
57799W        W30114  20.081  38.225   0.713
57800W        W30115   2.323   7.935   1.223
57801W        W30116  29.611  15.263  14.297
57802W        W30117  24.889  43.727  11.663
57803W        W30118   4.850  14.051  11.021
57804W        W30119  36.319   9.891   0.767
57805W        W30120  19.293   9.207  10.681
57806W        W30121  35.240  29.258  13.538
57807W        W30122  32.019  28.905  14.858
57808W        W30123  40.527  34.391   0.727
57809W        W30124  20.707   5.792   0.854
57810W        W30125  33.075  27.175   2.727
57811W        W30126  34.506  13.492  11.572
57812W        W30127  10.848   3.388   4.635
57813W        W30128  41.319  20.457   3.185
57814W        W30129   5.297  27.035  12.308
57815W        W30130   7.874  41.177  12.468
57816W        W30131   0.202  21.822   1.394
57817W        W30132  16.283  27.112   1.803
57818W        W30133   6.290  36.907  11.090
57819W        W30134  33.456   2.018   3.730
57820W        W30135  33.228  42.879   0.471
57821W        W30136   8.260  35.669   4.034
57822W        W30137  25.113  38.138  14.888
57823W        W30138  37.384   1.579   4.994
57824W        W30139  30.070  27.150   3.909
57825W        W30140   3.054  27.170   4.618
57826W        W30141   9.642  41.449   4.615
57827W        W30142   0.183  29.077  14.483
57828W        W30143  33.069  41.435  14.378
57829W        W30144  26.533  41.154  13.513
57830W        W30145  41.410  17.384  14.756
57831W        W30146  25.844  19.318  12.527
57832W        W30147  15.254   3.942  11.074
57833W        W30148  38.740  44.156  13.029
57834W        W30149  30.902  22.572   9.936
57835W        W30150  22.093  31.699   3.392
57836W        W30151  24.535  14.296   3.700
57837W        W30152  32.710   0.268  13.398
57838W        W30153  12.975  43.463   3.350
57839W        W30154  38.990  29.110   1.947
57840W        W30155  37.481  32.789  11.487
57841W        W30156  26.571  19.875   3.685
57842W        W30157  18.253   9.181  12.849
57843W        W30158  10.246  39.361  12.864
57844W        W30159  16.171   5.525  11.215
57845W        W30160  16.873  22.103  14.020
57846W        W30161  29.476  25.636  14.359
57847W        W30162   2.399  37.774  11.579
57848W        W30163  43.976  43.555  11.296
57849W        W30164  14.420  10.071  10.195
57850W        W30165  18.195  22.953  12.416
57851W        W30166  19.703  13.040  13.393
57852W        W30167  22.578  21.000   0.809
57853W        W30168  38.133  23.605  14.038
57854W        W30169  15.294  37.208   2.386
57855W        W30170  20.822  10.662   3.760
57856W        W30171  40.116  40.718  10.646
57857W        W30172  24.049  22.098   4.186
57858W        W30173   2.781  29.648   3.804
57859W        W30174  38.114  20.726   0.819
57860W        W30175   2.370  19.104   0.524
57861W        W30176  42.307  25.110  14.445
57862W        W30177  17.119  28.582   2.398
57863W        W30178  28.792   5.471  13.899
57864W        W30179  24.419  15.378  14.285
57865W        W30180  36.005  24.922  13.471
57866W        W30181  36.037  19.685   2.030
57867W        W30182  25.052  27.160   2.482
57868W        W30183  32.893  17.302   1.788
57869W        W30184   3.361  16.247   0.374
57870W        W30185  10.825  15.542   0.913
57871W        W30186  34.844  17.641  14.485
57872W        W30187  19.738  20.595   2.379
57873W        W30188  41.412   6.632  11.106
57874W        W30189   1.743   3.961   2.372
57875W        W30190  31.912   4.166   1.185
57876W        W30191  26.183   7.333   1.388
57877W        W30192  36.043  37.470   1.351
57878W        W30193   7.789   4.842  10.686
57879W        W30194  24.178   1.849   2.228
57880W        W30195  34.063  22.393  10.121
57881W        W30196  30.021  30.582   0.712
57882W        W30197  43.871  24.734   2.377
57883W        W30198   2.404  18.845   0.036
57884W        W30199  36.363   7.489   0.077
57885W        W30200  26.979   2.207  12.052
57886W        W30201  30.015  15.625   1.457
57887W        W30202   9.644  25.523   4.854
57888W        W30203  17.053   1.280  12.576
57889W        W30204  19.804  25.022   1.723
57890W        W30205   1.936  44.648  11.828
57891W        W30206  29.580   6.863   4.730
57892W        W30207  25.763   7.182  14.222
57893W        W30208  40.752  25.616   3.810
57894W        W30209   9.971  43.371   2.832
57895W        W30210  12.724  32.801   0.487
57896W        W30211  32.380  18.723   4.200
57897W        W30212   9.738  37.493   4.806
57898W        W30213  36.980  29.698  11.797
57899W        W30214  11.024  20.184   4.630
57900W        W30215  20.049  16.732   0.623
57901W        W30216  11.749   7.121   0.839
57902W        W30217   1.302  33.665   2.563
57903W        W30218  16.683  42.539   2.313
57904W        W30219  34.424  16.891   2.550
57905W        W30220  25.222  35.998  10.704
57906W        W30221  16.190   3.434   0.795
57907W        W30222   8.843  26.819  11.637
57908W        W30223  33.217  32.511  12.515
57909W        W30224  23.058  14.575  11.117
57910W        W30225  34.170   9.124   2.311
57911W        W30226  35.056  22.613   2.786
57912W        W30227  31.590   0.962   0.140
57913W        W30228  43.711  31.324  14.350
57914W        W30229  29.094  35.162  13.416
57915W        W30230  38.298   4.017   1.982
57916W        W30231  43.645  43.694  14.706
57917W        W30232  16.741   3.422   3.229
57918W        W30233  24.053  41.720   0.272
57919W        W30234  21.023   2.864   1.271
57920W        W30235   1.066  25.191   2.292
57921W        W30236  20.990  11.738  13.429
57922W        W30237  11.688  36.537  12.728
57923W        W30238  29.089   6.190   0.492
57924W        W30239   3.039  33.830   1.659
57925W        W30240  17.520   1.985   1.287
57926W        W30241  30.598  12.265   3.697
57927W        W30242  39.481  10.342   1.975
57928W        W30243  21.589   5.411   4.440
57929W        W30244  29.165  20.740  14.845
57930W        W30245  19.808   1.306  11.467
57931W        W30246  24.198   4.492   1.361
57932W        W30247  20.028  25.416   3.340
57933W        W30248  25.590  24.076   0.691
57934W        W30249  40.551   5.591   0.027
57935W        W30250  12.825  22.166   4.240
57936W        W30251   5.277  28.649  11.477
57937W        W30252  35.679  19.515  11.244
57938W        W30253  42.402  24.266  10.318
57939W        W30254  10.188  15.537  11.499
57940W        W30255  27.566  23.694  13.996
57941W        W30256  24.229  26.806   1.369
57942W        W30257   4.234  29.651  12.381
57943W        W30258  18.643  40.969   4.857
57944W        W30259   1.161  14.264  13.993
57945W        W30260  31.944  12.236   3.226
57946W        W30261   4.872  24.942  13.852
57947W        W30262  28.575  40.370   4.619
57948W        W30263  21.028   0.897   4.578
57949W        W30264  30.455  22.335  14.448
57950W        W30265  33.839  39.393  13.069
57951W        W30266  36.948  41.013   3.382
57952W        W30267  34.868   9.271   2.830
57953W        W30268  14.476   8.423  12.509
57954W        W30269  25.173  29.569   5.015
57955W        W30270  22.011   2.299  12.462
57956W        W30271  27.777   1.773  10.644
57957W        W30272  10.186  11.546   0.758
57958W        W30273  34.562  38.072  10.801
57959W        W30274  18.239  28.199  12.846
57960W        W30275  17.738  12.831   3.730
57961W        W30276   8.310  22.647  11.669
57962W        W30277   0.835  38.500   4.526
57963W        W30278   2.750  12.720  11.828
57964W        W30279   5.936  44.525  13.468
57965W        W30280  43.723  26.446  14.945
57966W        W30281  16.700  17.350  12.594
57967W        W30282  20.306   3.502   5.086
57968W        W30283  13.575  13.836  14.324
57969W        W30284   1.201  11.118  12.546
57970W        W30285   1.090   8.970  13.813
57971W        W30286  37.732  35.547   1.716
57972W        W30287  15.617   8.742  12.172
57973W        W30288  22.771   2.223   3.620
57974W        W30289  19.298  18.093   1.357
57975W        W30290  12.828  17.946  10.254
57976W        W30291  19.001  42.459   0.802
57977W        W30292  20.300   0.462   0.744
57978W        W30293  32.540  11.388  11.620
57979W        W30294  12.289  40.748   2.764
57980W        W30295  18.296  34.168  12.403
57981W        W30296  25.920  39.870   0.740
57982W        W30297  30.258  25.584  14.052
57983W        W30298   3.388  35.961  14.491
57984W        W30299  28.933   5.940  12.413
57985W        W30300  31.084  36.364  13.208
57986W        W30301  12.589   5.897   4.095
57987W        W30302   9.941   0.615   1.067
57988W        W30303   2.312   7.443  10.754
57989W        W30304   6.675  11.844   2.891
57990W        W30305   6.808  20.205   0.797
57991W        W30306  16.826  41.089  11.203
57992W        W30307  21.123  43.489   2.788
57993W        W30308  24.644  41.153   3.652
57994W        W30309  17.307  33.859  11.152
57995W        W30310  40.819  25.678   0.997
57996W        W30311  41.489  18.400   0.839
57997W        W30312  19.969   8.283   2.281
57998W        W30313  28.674  43.631  12.200
57999W        W30314  15.609  38.241   5.162
58000W        W30315  35.903   1.904   2.230
58001W        W30316  16.620  10.619   0.967
58002W        W30317  40.863  36.445   0.952
58003W        W30318  25.034  22.298   4.867
58004W        W30319   9.430   7.632   0.351
58005W        W30320  40.950  42.043   2.683
58006W        W30321   7.934  12.499  14.795
58007W        W30322  12.136  37.854   0.760
58008W        W30323   1.186   7.650   0.268
58009W        W30324  42.238  11.880  12.801
58010W        W30325  38.017  16.702   4.666
58011W        W30326  34.654  11.658   3.453
58012W        W30327   9.700  13.154   0.321
58013W        W30328  15.706  23.867   4.977
58014W        W30329  18.489  24.640   0.384
58015W        W30330  33.521   1.850   1.879
58016W        W30331  27.958  16.114  11.444
58017W        W30332  31.566   9.600   4.421
58018W        W30333   9.101  22.533   2.823
58019W        W30334  10.251  36.990  10.304
58020W        W30335  39.412  11.367   0.344
58021W        W30336  38.576   4.851   0.403
58022W        W30337  37.300  22.785  12.952
58023W        W30338  22.187  38.406   1.508
58024W        W30339  34.163  28.120  12.911
58025W        W30340   6.365  15.850   2.808
58026W        W30341  15.611  36.478   1.336
58027W        W30342   1.946  42.928  12.069
58028W        W30343  23.088   6.667  14.646
58029W        W30344  39.043  17.114  10.673
58030W        W30345  22.744  26.385   2.713
58031W        W30346  29.694  33.316   2.086
58032W        W30347  27.999  12.807   3.689
58033W        W30348  16.259  25.630  13.497
58034W        W30349   5.407  44.531  12.546
58035W        W30350  19.087  32.978   2.884
58036W        W30351  40.867  20.673   4.610
58037W        W30352   8.795  17.240   0.360
58038W        W30353  13.159   0.245  12.780
58039W        W30354  29.019  42.792  12.255
58040W        W30355  19.996  44.373  10.798
58041W        W30356  37.631  39.157   3.569
58042W        W30357   4.911  21.431  14.624
58043W        W30358  17.050   9.143  14.849
58044W        W30359  23.194  40.074  13.332
58045W        W30360  24.463  30.147   2.824
58046W        W30361   1.293  12.630  14.024
58047W        W30362  22.412  17.056  11.577
58048W        W30363  31.190  30.560  10.744
58049W        W30364  16.808  18.614   2.929
58050W        W30365   3.329  14.656   1.305
58051W        W30366  43.499   7.677  11.092
58052W        W30367  11.105  23.710   0.380
58053W        W30368   2.267   0.841   4.171
58054W        W30369  43.788  19.584   2.393
58055W        W30370  18.586  14.799  11.091
58056W        W30371   0.141   6.453  12.888
58057W        W30372   7.150  19.085   4.541
58058W        W30373  44.921  41.029   0.270
58059W        W30374  30.188  39.422  10.501
58060W        W30375  35.424  23.217   3.647
58061W        W30376  32.555  39.054   4.625
58062W        W30377  17.706  40.971   3.369
58063W        W30378  19.228  36.193   2.980
58064W        W30379  39.007  18.525   2.236
58065W        W30380  22.827  26.526   5.091
58066W        W30381  39.020   9.881   0.413
58067W        W30382   2.949  42.026   1.670
58068W        W30383  15.602   0.249   0.400
58069W        W30384  25.775  32.127  10.277
58070W        W30385   7.171  30.088  10.423
58071W        W30386  24.229  18.954  11.020
58072W        W30387  20.241  11.461   3.944
58073W        W30388  30.066  20.695   0.416
58074W        W30389  18.062  35.902  11.380
58075W        W30390  18.934  23.703   0.400
58076W        W30391  34.076  22.220  11.821
58077W        W30392  42.504  39.890  12.880
58078W        W30393  14.666  40.959   0.957
58079W        W30394  17.653  43.537   3.827
58080W        W30395   8.956  25.005  11.160
58081W        W30396  30.112  12.388   2.215
58082W        W30397  39.769  44.436   0.911
58083W        W30398  33.662  23.520   4.146
58084W        W30399  43.772  41.919   1.307
58085W        W30400  25.831  18.314  14.353
58086W        W30401  17.113  13.335   1.311
58087W        W30402  29.136  31.427  14.634
58088W        W30403   8.754  29.834   4.797
58089W        W30404  25.548  35.501  13.800
58090W        W30405  24.762  29.549  12.504
58091W        W30406  18.049  27.414  11.483
58092W        W30407  33.428  32.332   1.190
58093W        W30408  36.909   9.190   0.321
58094W        W30409  18.613  44.692   1.761
58095W        W30410  27.619  43.980  12.657
58096W        W30411  32.355  41.422   3.321
58097W        W30412  20.104  21.288   3.807
58098W        W30413  16.284  17.131   3.677
58099W        W30414  21.267  21.244  11.091
58100W        W30415  39.137  28.704  13.469
58101W        W30416  12.365  20.129  13.370
58102W        W30417  25.544   3.806   1.179
58103W        W30418   6.462  19.804  10.689
58104W        W30419  16.816  17.119   3.614
58105W        W30420   0.747  36.516  14.397
58106W        W30421  16.222  13.171   4.201
58107W        W30422  18.092   5.342   4.359
58108W        W30423  27.549  16.809   2.203
58109W        W30424  20.784  20.621  10.518
58110W        W30425   1.335  44.974  11.237
58111W        W30426  39.020  20.084  11.004
58112W        W30427  14.207  16.024  14.075
58113W        W30428  11.142  30.307  13.607
58114W        W30429  44.425  31.407   3.366
58115W        W30430  20.530  16.695  13.315
58116W        W30431  21.998  25.625   2.097
58117W        W30432  15.821  28.610   5.564
58118W        W30433  10.847  34.962   3.069
58119W        W30434  34.274  28.957   1.892
58120W        W30435   1.305  13.847   1.859
58121W        W30436  21.251  38.564   0.371
58122W        W30437  16.442  36.903   1.517
58123W        W30438  24.586  29.102   0.938
58124W        W30439  13.578  17.233  11.981
58125W        W30440  15.062  19.057  12.362
58126W        W30441  21.436  28.600   4.518
58127W        W30442  38.823  10.855  11.988
58128W        W30443  43.815  13.417  13.471
58129W        W30444  31.896  36.460   0.921
58130W        W30445  22.450  33.934   2.215
58131W        W30446  31.779   4.124   4.162
58132W        W30447   6.174   0.011  13.146
58133W        W30448  36.998  12.395   1.403
58134W        W30449  35.631  23.086  14.185
58135W        W30450   2.477  15.122   4.714
58136W        W30451  15.829   6.802   1.001
58137W        W30452  15.721  39.885   2.734
58138W        W30453  33.442  31.552   4.827
58139W        W30454  10.111  21.171   4.979
58140W        W30455   9.084  44.346  14.468
58141W        W30456  15.883  41.523  14.998
58142W        W30457   1.687  26.772  14.945
58143W        W30458   2.052  35.352   2.850
58144W        W30459  33.149  34.107   3.768
58145W        W30460   6.777   2.246   1.235
58146W        W30461  40.344  17.105  14.571
58147W        W30462  18.237  25.987  14.012
58148W        W30463  13.322  34.328  14.062
58149W        W30464  23.182   8.417   3.310
58150W        W30465  28.693  12.632  11.108
58151W        W30466   1.079  30.137   1.867
58152W        W30467   2.008  44.938   2.621
58153W        W30468  18.594   5.302   1.215
58154W        W30469  39.119   7.888  11.170
58155W        W30470  25.733  28.241  10.353
58156W        W30471  34.325   6.766  14.032
58157W        W30472  39.911  23.812   5.707
58158W        W30473  38.806   0.001  13.508
58159W        W30474  33.546  13.715  11.614
58160W        W30475  25.579  14.427   3.674
58161W        W30476  11.424  41.395   2.693
58162W        W30477   3.705  38.081  14.777
58163W        W30478  34.658   2.979   3.377
58164W        W30479   0.732   8.922   0.436
58165W        W30480  39.540   1.733  12.318
58166W        W30481  10.328  42.055   1.199
58167W        W30482  28.621  19.325  13.511
58168W        W30483   4.822  38.705   1.925
58169W        W30484  21.784  29.654  13.351
58170W        W30485  40.012  37.871   4.639
58171W        W30486  16.067  24.533  12.594
58172W        W30487  43.259  12.670   4.979
58173W        W30488  19.928  38.881   4.989
58174W        W30489  44.772  39.339   4.210
58175W        W30490  39.023  15.356  14.336
58176W        W30491   7.712  33.065  14.956
58177W        W30492   6.255  33.657   4.609
58178W        W30493  33.061  38.401   3.136
58179W        W30494   4.433   4.919   4.649
58180W        W30495  37.362  43.800   5.023
58181W        W30496   4.957   8.128   1.244
58182W        W30497  34.352  27.115  12.276
58183W        W30498  36.493  31.466   3.381
58184W        W30499  17.989  27.137   1.384
58185W        W30500  44.033  30.453  13.853
58186W        W30501  21.496   9.832   1.671
58187W        W30502   2.430  35.736   4.604
58188W        W30503  24.187   2.673  11.649
58189W        W30504  28.985  10.890  14.497
58190W        W30505   0.814  41.350   0.950
58191W        W30506  34.295  14.524  11.666
58192W        W30507   2.247  35.655  14.077
58193W        W30508   8.309  32.833  13.854
58194W        W30509  15.594  28.170  11.153
58195W        W30510   3.255  11.165   1.790
58196W        W30511   7.170  31.522   2.263
58197W        W30512  41.513  29.736  14.075
58198W        W30513  32.453  17.164   4.563
58199W        W30514   1.475   2.792  12.542
58200W        W30515  22.034  31.246   1.764
58201W        W30516  26.187  29.173  12.141
58202W        W30517   8.455  41.900   4.778
58203W        W30518  28.431  11.277  14.704
58204W        W30519  29.036   2.249   3.674
58205W        W30520  25.541   6.387   5.127
58206W        W30521  33.653  14.423  12.356
58207W        W30522  20.991  33.184   3.641
58208W        W30523  38.324   0.327   4.489
58209W        W30524   3.444   9.238   2.626
58210W        W30525   1.681   5.420  12.813
58211W        W30526   9.701  27.975   3.687
58212W        W30527  21.199  20.801  10.232
58213W        W30528  23.550   4.840  11.616
58214W        W30529  39.013  13.850   0.478
58215W        W30530   7.506  42.059   2.804
58216W        W30531  12.147  41.177   2.010
58217W        W30532  17.221   8.995  11.994
58218W        W30533  41.863  30.633   1.151
58219W        W30534  25.749  30.057  13.912
58220W        W30535  25.535  21.348  13.683
58221W        W30536  33.892  10.994  14.873
58222W        W30537  36.756  14.262  12.350
58223W        W30538   6.414  26.928  10.779
58224W        W30539   2.161  38.043   1.522
58225W        W30540  21.712  23.650  13.012
58226W        W30541  44.235  27.684   2.886
58227W        W30542  43.891  19.211   2.764
58228W        W30543  30.710  11.657  10.613
58229W        W30544  24.594  19.447  14.235
58230W        W30545  11.572  38.234  11.504
58231W        W30546  37.383  20.235  13.053
58232W        W30547  26.921   7.674   3.794
58233W        W30548   0.381  40.290   4.185
58234W        W30549  32.109  37.539   1.020
58235W        W30550  40.203  16.546   4.479
58236W        W30551   2.941  21.631  13.485
58237W        W30552  13.099  16.913   1.432
58238W        W30553  30.426  17.879  13.442
58239W        W30554   9.225  34.873   1.130
58240W        W30555  35.684  44.493   1.042
58241W        W30556  23.795   0.354  14.600
58242W        W30557  38.981  38.028   1.826
58243W        W30558  34.018  28.432   1.017
58244W        W30559  41.060  21.559  13.564
58245W        W30560  31.814  31.432   3.889
58246W        W30561  10.925   7.318  11.238
58247W        W30562   9.125  18.184   0.717
58248W        W30563  42.055  22.132  10.737
58249W        W30564   7.457  26.140   1.231
58250W        W30565  27.114   7.814   3.322
58251W        W30566  29.239   1.238   2.584
58252W        W30567   3.866  29.180   2.650
58253W        W30568   4.841  32.675   4.603
58254W        W30569  27.578  20.135   0.005
58255W        W30570  12.305  23.222  11.478
58256W        W30571  29.548  35.651   4.629
58257W        W30572   8.180   1.536  11.035
58258W        W30573   2.447   3.542  14.867
58259W        W30574   7.013   0.001  14.896
58260W        W30575   1.921  31.768  14.944
58261W        W30576  38.436  32.430  12.012
58262W        W30577  19.533  28.454   3.556
58263W        W30578  12.125  18.987   0.285
58264W        W30579   7.996  33.405   2.251
58265W        W30580  11.256  12.367  11.684
58266W        W30581  17.185  16.240   1.692
58267W        W30582  38.287  35.163   2.499
58268W        W30583  10.209  27.651  11.410
58269W        W30584   5.872  10.233  14.018
58270W        W30585   1.946   4.086  12.874
58271W        W30586  14.254  27.162   1.229
58272W        W30587  29.055   7.261   5.000
58273W        W30588  17.324   9.801   0.312
58274W        W30589  36.395  22.682   2.229
58275W        W30590  14.659   1.711   1.861
58276W        W30591  20.657  24.299   1.471
58277W        W30592   5.647  30.410   4.830
58278W        W30593   3.733  24.577  13.217
58279W        W30594  33.753  41.797   0.402
58280W        W30595  34.387  19.255  11.639
58281W        W30596  20.729  42.529  12.967
58282W        W30597  24.277  43.877  14.737
58283W        W30598  23.604  19.307  13.736
58284W        W30599  11.179  19.277   0.306
58285W        W30600  22.599   6.457  10.274
58286W        W30601  39.505   5.203   1.353
58287W        W30602  43.917  43.520  11.818
58288W        W30603   0.262  22.786   4.879
58289W        W30604   6.843  28.614  13.028
58290W        W30605  28.615  12.363  10.677
58291W        W30606  44.788  27.574   4.317
58292W        W30607  17.526  37.827  11.675
58293W        W30608  39.375  43.843   4.143
58294W        W30609  30.914  33.878   0.524
58295W        W30610  33.611  15.411  11.205
58296W        W30611  21.097   4.747  11.965
58297W        W30612  26.535  32.682   2.917
58298W        W30613  33.917   1.697  12.398
58299W        W30614  27.226  23.570   3.387
58300W        W30615  18.107  15.894   0.644
58301W        W30616  23.325  14.096   0.396
58302W        W30617  31.200  21.908  14.937
58303W        W30618  43.345   0.928   3.571
58304W        W30619  35.291  25.890  14.384
58305W        W30620   7.930  44.390  13.699
58306W        W30621  13.740  30.556  13.267
58307W        W30622  40.434   7.360   4.955
58308W        W30623   6.241  40.916  12.845
58309W        W30624  31.985  10.428  11.915
58310W        W30625  32.495   7.283   0.524
58311W        W30626  25.093   8.024   2.126
58312W        W30627  17.820  13.752  14.594
58313W        W30628   7.909  31.889  13.409
58314W        W30629  37.444  22.456   1.192
58315W        W30630   3.477  24.402   2.143
58316W        W30631  20.609  17.163   2.155
58317W        W30632   9.897  34.864  14.506
58318W        W30633  30.926  35.431  11.404
58319W        W30634  27.461  28.875  14.006
58320W        W30635  14.960   5.817  14.049
58321W        W30636   8.333  34.393   1.401
58322W        W30637  10.209  11.585  12.491
58323W        W30638  42.343   8.765  12.919
58324W        W30639  40.332  38.620  13.800
58325W        W30640  21.036  26.529   4.346
58326W        W30641  42.407   4.805  14.983
58327W        W30642  38.457  28.667   0.447
58328W        W30643  42.264  42.635   0.406
58329W        W30644  37.086  15.148   1.869
58330W        W30645  28.139  31.167   4.811
58331W        W30646  29.507   8.661   1.458
58332W        W30647  30.101  20.437  14.518
58333W        W30648  31.166   9.158   3.850
58334W        W30649  28.337  40.958  13.544
58335W        W30650  23.053  38.242  12.373
58336W        W30651   5.111   7.579  12.146
58337W        W30652  41.343  23.988  11.950
58338W        W30653  20.012  26.112  12.258
58339W        W30654   7.392   8.714  14.469
58340W        W30655   3.836   3.673  14.745
58341W        W30656  14.523  19.518  10.254
58342W        W30657  23.572  32.014   3.888
58343W        W30658   8.944  26.454   0.487
58344W        W30659  18.653  30.392  14.360
58345W        W30660  38.329  29.755   1.235
58346W        W30661  17.745  25.816  10.686
58347W        W30662  30.151   3.374  13.102
58348W        W30663  20.748  34.628   2.842
58349W        W30664   3.338  27.173  13.498
58350W        W30665  25.924   3.593   5.043
58351W        W30666  13.814  12.149   3.339
58352W        W30667   5.668  20.227  13.846
58353W        W30668  42.844  22.515   0.652
58354W        W30669  10.826   4.333   0.370
58355W        W30670  21.720  19.892  10.841
58356W        W30671   1.215  43.986   4.647
58357W        W30672   8.605  28.099   1.486
58358W        W30673  15.638  36.690   3.625
58359W        W30674  23.502  26.564   0.724
58360W        W30675   4.518   0.157   1.729
58361W        W30676  43.849  18.148  14.484
58362W        W30677  17.147  33.816  13.381
58363W        W30678  12.198  35.532  14.743
58364W        W30679  13.358   2.753  14.498
58365W        W30680  27.519  25.278  13.914
58366W        W30681  40.659  26.721  10.700
58367W        W30682  37.990  20.723   3.811
58368W        W30683  36.848  12.075  12.927
58369W        W30684   6.972   7.113   1.322
58370W        W30685  15.811   4.744   0.411
58371W        W30686   0.062   2.588  12.405
58372W        W30687  26.691   6.408  13.286
58373W        W30688  35.107  20.198   1.377
58374W        W30689   9.907  39.585   5.023
58375W        W30690  12.220   9.238   0.319
58376W        W30691  18.296  23.276  11.979
58377W        W30692  37.294  26.587  13.271
58378W        W30693  33.012  15.114   2.384
58379W        W30694  40.875  26.188  13.881
58380W        W30695  25.160   4.911   0.464
58381W        W30696  17.721  27.795  10.490
58382W        W30697  39.339  25.435  11.984
58383W        W30698  36.390  33.945   1.431
58384W        W30699  23.011  22.147  14.388
58385W        W30700   2.044  40.123  13.807
58386W        W30701  23.198  26.568   2.595
58387W        W30702  19.844  18.651  14.685
58388W        W30703  23.685  22.081  13.394
58389W        W30704  43.571  20.207  12.964
58390W        W30705  22.696   1.440   3.132
58391W        W30706  20.048  12.907   1.669
58392W        W30707   8.741  27.668   1.758
58393W        W30708  15.059  35.999  12.180
58394W        W30709  23.016  19.558  12.744
58395W        W30710   5.046  43.588  14.844
58396W        W30711  24.249  19.292   9.751
58397W        W30712   3.915   7.616   1.664
58398W        W30713  16.674  33.562   4.424
58399W        W30714   2.674  10.711   3.366
58400W        W30715  30.210  40.780   4.316
58401W        W30716   5.443  41.883  13.056
58402W        W30717  32.007  42.484   2.149
58403W        W30718  24.567   5.856   1.470
58404W        W30719  28.641  12.135  14.682
58405W        W30720  38.582  28.182  11.075
58406W        W30721  20.619  20.129   1.481
58407W        W30722  39.805  30.540  11.828
58408W        W30723  24.926   6.350  13.768
58409W        W30724  42.266  40.412  13.067
58410W        W30725  34.431  43.095  13.437
58411W        W30726  18.920  38.746   3.299
58412W        W30727  34.856  18.560  12.547
58413W        W30728  28.084  24.074   0.761
58414W        W30729  44.934  40.020   0.546
58415W        W30730   0.939   5.891   1.716
58416W        W30731  14.258  43.076  14.813
58417W        W30732  34.631  34.344  14.578
58418W        W30733  44.448  25.206   3.064
58419W        W30734  12.360  30.031  13.784
58420W        W30735  14.318  44.106  11.278
58421W        W30736   7.852  19.761  13.899
58422W        W30737  16.052  10.338   1.524
58423W        W30738   3.439   7.171   0.181
58424W        W30739   4.952  29.449   2.070
58425W        W30740  39.490  18.624  11.071
58426W        W30741  28.871  37.308   3.320
58427W        W30742   5.417  24.110   0.893
58428W        W30743   8.072  10.754  11.272
58429W        W30744  27.528  15.149  12.496
58430W        W30745  36.811  34.917  13.871
58431W        W30746  39.802   3.278   4.078
58432W        W30747  30.458  44.995  11.995
58433W        W30748  39.876  16.840   4.150
58434W        W30749   3.221  33.876  14.420
58435W        W30750  38.945   0.785  14.084
58436W        W30751  14.702   7.195   3.138
58437W        W30752  18.331  12.765   0.536
58438W        W30753  37.318  35.062  13.827
58439W        W30754  23.810  27.338   3.947
58440W        W30755  17.198   6.385   2.193
58441W        W30756  13.686  40.486  10.606
58442W        W30757  14.659   4.042   3.671
58443W        W30758  37.908  15.717   0.038
58444W        W30759  20.734  32.381  14.188
58445W        W30760  25.941  35.523   0.766
58446W        W30761   2.061  28.965  11.239
58447W        W30762  37.380  18.078  14.887
58448W        W30763   0.978  25.521   4.530
58449W        W30764   7.739   5.470   2.154
58450W        W30765  39.170  13.771   2.657
58451W        W30766  31.206  41.008   0.183
58452W        W30767  33.850  42.279  11.581
58453W        W30768  39.995   3.035  14.385
58454W        W30769  27.339  21.271   0.356
58455W        W30770  29.486  34.447  11.560
58456W        W30771  41.117  21.411  11.580
58457W        W30772  20.936  28.656   0.807
58458W        W30773  17.496  12.564   5.318
58459W        W30774  42.169  44.403  10.226
58460W        W30775   2.751  26.659  13.094
58461W        W30776   0.220  21.095   2.868
58462W        W30777  10.554  36.871   2.410
58463W        W30778  30.446  18.385  11.208
58464W        W30779  37.574  24.100   1.613
58465W        W30780  10.633  12.279   0.673
58466W        W30781   4.832  26.633   3.118
58467W        W30782  25.596  27.969   3.316
58468W        W30783  10.886   8.938   1.417
58469W        W30784  16.144  38.119  11.497
58470W        W30785  38.504  32.112   0.775
58471W        W30786  33.863  17.341   3.129
58472W        W30787  10.282  21.546   0.945
58473W        W30788  32.081   2.018  11.665
58474W        W30789  42.342  13.290  11.536
58475W        W30790  19.900  37.484   5.211
58476W        W30791  38.890   7.962   3.889
58477W        W30792  42.476  29.323   4.161
58478W        W30793  28.479  23.061   0.792
58479W        W30794  33.606  41.458  14.425
58480W        W30795  41.183  16.178   3.990
58481W        W30796  39.288  16.506   1.019
58482W        W30797  12.554   7.121  14.995
58483W        W30798   1.869  37.964   4.552
58484W        W30799  17.622  23.164   4.592
58485W        W30800   9.140  41.620  13.002
58486W        W30801  32.653   1.970   1.769
58487W        W30802  28.765  24.402   1.203
58488W        W30803  15.275   4.472   4.306
58489W        W30804  33.925  40.518  12.335
58490W        W30805  33.218  32.957   2.292
58491W        W30806  42.662  38.320  12.908
58492W        W30807  11.400  36.976   3.122
58493W        W30808  23.634  40.874  10.800
58494W        W30809  37.485  24.518   4.395
58495W        W30810  35.591  44.996  11.270
58496W        W30811  26.628  41.057   0.467
58497W        W30812  29.966  31.941  12.782
58498W        W30813  41.564  26.530  13.006
58499W        W30814  39.365  12.143   3.749
58500W        W30815  19.076  42.358   2.772
58501W        W30816   4.765  32.605   3.212
58502W        W30817  20.926  10.382  12.571
58503W        W30818  22.618  23.700   1.338
58504W        W30819  23.196  25.685   3.576
58505W        W30820  40.054  27.443  13.076
58506W        W30821  31.185  27.326   0.150
58507W        W30822   2.940  28.216   2.641
58508W        W30823  18.729  18.016  12.441
58509W        W30824   9.247  17.186   1.711
58510W        W30825   8.856  21.280  12.973
58511W        W30826  41.981  14.532  13.820
58512W        W30827   5.736   6.440  12.572
58513W        W30828  34.859  23.744  14.849
58514W        W30829  17.748  12.616  13.912
58515W        W30830   0.391   4.532  10.935
58516W        W30831  13.780  29.100  14.252
58517W        W30832  14.393   5.828  11.823
58518W        W30833  22.560  20.113   4.718
58519W        W30834  36.945  41.041   1.409
58520W        W30835  32.476  38.070   0.407
58521W        W30836  16.047  43.450   1.651
58522W        W30837   7.269  33.630  13.564
58523W        W30838  19.407  17.227   3.994
58524W        W30839  23.229  27.508   1.668
58525W        W30840   3.236  16.708   0.571
58526W        W30841  21.581  21.299   5.389
58527W        W30842  21.998   8.308  11.052
58528W        W30843   8.203  13.389  11.431
58529W        W30844  33.763  37.477  10.254
58530W        W30845  28.066  38.256  10.678
58531W        W30846  39.592  13.402  11.956
58532W        W30847  26.024  23.568   4.003
58533W        W30848   5.909  29.282  11.473
58534W        W30849  20.183  17.573  13.331
58535W        W30850   8.442  38.042   5.012
58536W        W30851  23.160  23.614   1.377
58537W        W30852  12.242  27.075   1.082
58538W        W30853   9.285   0.682  14.042
58539W        W30854   1.227  26.991   2.609
58540W        W30855   2.437  13.348  14.839
58541W        W30856  12.568  35.820  10.386
58542W        W30857   1.513   9.864  11.190
58543W        W30858  39.721  40.407  12.438
58544W        W30859   2.600   3.485  11.153
58545W        W30860  34.073  18.262  14.612
58546W        W30861  34.088  19.571   2.817
58547W        W30862  40.723   4.796   1.882
58548W        W30863  41.438  26.200   0.444
58549W        W30864  13.233   0.006   3.636
58550W        W30865   2.071  43.502   3.103
58551W        W30866  34.578  40.007  12.861
58552W        W30867  43.929  42.865   1.681
58553W        W30868  44.451  35.117  12.968
58554W        W30869  27.151  32.110  11.057
58555W        W30870   4.947  14.684   0.226
58556W        W30871  14.303   4.854  13.569
58557W        W30872   7.315  17.482  14.962
58558W        W30873  31.439  32.513   3.091
58559W        W30874  28.996  37.957  14.050
58560W        W30875  25.412   3.823   0.249
58561W        W30876  19.578   1.382   3.363
58562W        W30877  19.922  17.227   4.614
58563W        W30878   9.349  42.361   4.054
58564W        W30879   9.146  24.647   0.772
58565W        W30880  39.158  15.967   0.276
58566W        W30881  12.234  15.279  12.132
58567W        W30882  23.272   7.901  12.585
58568W        W30883  29.043  11.244   1.188
58569W        W30884   4.347  18.774   2.315
58570W        W30885   9.637  30.393  12.033
58571W        W30886  39.583  35.653   3.704
58572W        W30887   8.297  33.496  14.586
58573W        W30888   8.084  23.479  12.796
58574W        W30889  31.902   1.266   1.819
58575W        W30890  13.607  29.837  11.064
58576W        W30891  32.949  35.756   5.011
58577W        W30892  25.891  12.364   0.421
58578W        W30893  26.508  20.494   0.339
58579W        W30894  44.523  12.383   9.801
58580W        W30895  42.682   1.739  11.907
58581W        W30896  44.559   8.638   2.739
58582W        W30897   1.413  10.666   5.035
58583W        W30898  16.843  31.341   3.852
58584W        W30899  17.710   6.309   4.539
58585W        W30900  11.391  31.783  11.323
58586W        W30901  21.740  19.980  11.369
58587W        W30902  12.907  29.569   1.121
58588W        W30903  13.241  10.970  13.365
58589W        W30904  26.530   0.237   0.430
58590W        W30905  11.527  17.362  14.919
58591W        W30906  13.830  39.548   3.831
58592W        W30907  25.505  22.405   1.935
58593W        W30908  24.644  23.942   0.385
58594W        W30909  13.955  37.074  11.192
58595W        W30910   9.226  42.388  11.234
58596W        W30911  35.628   2.730  12.524
58597W        W30912  28.736  14.160  11.546
58598W        W30913  22.760  28.124   3.523
58599W        W30914   2.067   9.340   1.523
58600W        W30915  24.703   1.547   3.371
58601W        W30916   4.772  36.145   5.082
58602W        W30917  36.556  27.547  13.274
58603W        W30918  27.184   4.257  11.827
58604W        W30919  30.103  37.393   2.243
58605W        W30920  38.895   3.437  12.699
58606W        W30921  39.480  33.148  14.764
58607W        W30922  12.458  15.247  12.990
58608W        W30923   9.236   8.090   0.408
58609W        W30924  14.374  29.581  14.325
58610W        W30925  20.322  22.745  13.833
58611W        W30926   9.719  13.604  13.307
58612W        W30927  38.286  18.093   0.717
58613W        W30928  15.295  15.350   2.304
58614W        W30929  34.494  24.711   4.539
58615W        W30930  41.668  29.455   1.960
58616W        W30931  10.719  14.903   3.382
58617W        W30932  44.811  24.758   2.956
58618W        W30933  17.665  33.796  11.970
58619W        W30934   5.022  27.861  12.416
58620W        W30935   8.408   6.951  13.011
58621W        W30936   1.448  39.421  12.288
58622W        W30937   4.731  22.296   1.856
58623W        W30938  32.530  24.501  13.568
58624W        W30939   8.862   5.229   4.092
58625W        W30940  39.085  16.804  11.087
58626W        W30941  34.509  14.302   0.797
58627W        W30942  16.315  15.162   4.684
58628W        W30943   7.716  38.056   0.442
58629W        W30944  27.067  35.993  12.124
58630W        W30945   0.413  18.613   4.675
58631W        W30946  35.655  10.738   3.284
58632W        W30947  12.430  22.468  13.522
58633W        W30948  31.338  27.819   1.351
58634W        W30949  20.508  33.391   3.583
58635W        W30950   7.654  41.441  14.392
58636W        W30951  30.079   3.698   2.179
58637W        W30952  13.748  36.320  12.370
58638W        W30953  24.253  22.489  11.896
58639W        W30954  20.015  24.789  13.924
58640W        W30955  25.007  29.689   3.626
58641W        W30956  39.714  35.604   0.899
58642W        W30957  24.182  40.311   1.273
58643W        W30958   7.785   4.493  13.518
58644W        W30959  35.553   0.645   3.383
58645W        W30960  26.506  27.943   1.751
58646W        W30961  35.824  38.851  14.387
58647W        W30962   6.027  26.356  12.541
58648W        W30963   8.736  32.670  12.036
58649W        W30964  34.493  38.069   0.637
58650W        W30965   9.751   8.413   3.288
58651W        W30966  44.002  38.332  13.564
58652W        W30967  31.040  41.095  10.337
58653W        W30968  42.010   4.265  12.066
58654W        W30969  38.353   1.743  12.886
58655W        W30970  32.918   2.513   0.562
58656W        W30971   9.369  24.528   3.115
58657W        W30972   1.568   6.728   3.906
58658W        W30973  11.856  33.043   0.834
58659W        W30974  31.050  34.160   1.477
58660W        W30975   5.723  20.113   0.734
58661W        W30976  17.982  13.557  11.115
58662W        W30977  21.537  33.368  14.537
58663W        W30978  15.848  34.082   0.961
58664W        W30979  41.979  32.041  14.846
58665W        W30980  44.206  25.286   4.541
58666W        W30981  30.117  40.241   4.198
58667W        W30982  13.851  30.938   4.392
58668W        W30983  12.161  25.194   4.134
58669W        W30984  23.987  13.826   3.608
58670W        W30985  39.571  41.764   3.159
58671W        W30986   0.400  11.327   0.779
58672W        W30987  12.591  40.149  11.502
58673W        W30988  14.926  19.436   4.236
58674W        W30989  36.111   5.173  12.400
58675W        W30990  33.009   7.275   4.568
58676W        W30991  19.755  31.922   0.053
58677W        W30992  42.933   5.849   0.731
58678W        W30993  28.215  26.172  12.901
58679W        W30994  19.495  37.517  12.451
58680W        W30995  18.775  21.093  12.127
58681W        W30996  33.018  37.058  12.023
58682W        W30997  23.631   8.747  10.323
58683W        W30998  23.560  34.385   0.861
58684W        W30999  20.757  18.753   2.285
58685W        W31000  17.302   4.222  10.664
58686W        W31001  13.821  44.572  10.747
58687W        W31002  17.166  42.968   0.393
58688W        W31003  13.511  11.830   1.024
58689W        W31004  29.562  40.864  13.374
58690W        W31005  31.067   5.203  13.992
58691W        W31006  39.830  37.526  13.233
58692W        W31007  18.194  26.897  11.426
58693W        W31008   8.468  40.803   3.337
58694W        W31009  38.329  24.464   3.219
58695W        W31010  38.910   2.810  13.593
58696W        W31011  21.078  10.579   0.910
58697W        W31012  13.360   4.988   2.309
58698W        W31013  16.758  44.989   3.364
58699W        W31014  17.253  15.696   1.723
58700W        W31015   4.842  32.101  14.308
58701W        W31016  33.884   4.325  11.076
58702W        W31017  32.175  12.055   2.295
58703W        W31018  15.834  42.967   0.805
58704W        W31019   4.926  16.765   0.403
58705W        W31020  10.728   6.842   1.111
58706W        W31021  17.953  37.064   1.333
58707W        W31022  11.256  35.080  13.606
58708W        W31023  41.074   4.820   0.034
58709W        W31024  13.640  16.200   1.156
58710W        W31025  41.936  43.017  10.327
58711W        W31026   5.947  36.628   0.893
58712W        W31027  30.547  33.140  11.947
58713W        W31028  12.365  39.054  14.030
58714W        W31029  33.362   6.294  11.616
58715W        W31030  42.088  10.291   2.934
58716W        W31031  36.180   4.348   0.679
58717W        W31032  43.059  11.636   0.857
58718W        W31033  26.599  42.706   4.953
58719W        W31034   7.843  27.810   1.259
58720W        W31035  22.527  31.061   4.708
58721W        W31036  27.894  29.376   1.924
58722W        W31037  10.687  31.858   2.708
58723W        W31038   3.289   7.211  10.816
58724W        W31039  17.335  13.802   4.124
58725W        W31040   2.865  22.330   2.587
58726W        W31041   4.898  17.709   0.918
58727W        W31042  10.148  29.403   4.217
58728W        W31043  29.589  42.333  12.989
58729W        W31044  34.285  17.525   3.614
58730W        W31045  19.810  34.861  12.514
58731W        W31046   1.666  43.407  13.071
58732W        W31047   4.371   9.910  10.860
58733W        W31048   0.251  33.127   5.066
58734W        W31049  18.628  15.637  12.613
58735W        W31050  39.991   4.518   2.509
58736W        W31051  18.676  14.870   3.655
58737W        W31052  12.536  34.161   3.253
58738W        W31053  17.154   9.777   1.679
58739W        W31054  30.755  33.589   0.051
58740W        W31055  38.097   7.206   0.271
58741W        W31056  12.561  38.427  11.209
58742W        W31057  28.842   2.934   4.726
58743W        W31058  43.233  27.479  13.513
58744W        W31059  42.460  31.996   0.073
58745W        W31060  37.367  11.357  11.086
58746W        W31061   4.844  21.458   4.485
58747W        W31062   4.331  21.170   3.083
58748W        W31063  32.533  42.351   4.385
58749W        W31064   1.889   2.662  13.340
58750W        W31065  40.914  41.538   2.895
58751W        W31066   1.377   7.236   3.889
58752W        W31067  42.827  29.873   1.228
58753W        W31068  14.869  35.220  11.155
58754W        W31069  29.150  37.896   0.576
58755W        W31070  23.224   7.028  12.862
58756W        W31071  32.336  23.062  11.203
58757W        W31072  14.178  39.575   1.354
58758W        W31073  18.142  34.939  14.840
58759W        W31074  13.348  28.944  14.002
58760W        W31075  11.201  13.853   1.833
58761W        W31076  28.965  34.186  11.027
58762W        W31077   3.871   6.339  13.444
58763W        W31078  42.566   2.485   1.825
58764W        W31079  44.825  21.759   3.045
58765W        W31080  14.511  20.416   2.907
58766W        W31081  15.005  16.810   3.303
58767W        W31082  36.801  35.786   1.288
58768W        W31083  25.556  37.910  11.381
58769W        W31084  15.416  41.306   0.017
58770W        W31085  37.464  37.023   0.690
58771W        W31086  21.251  22.257  10.062
58772W        W31087  23.104  36.457  14.369
58773W        W31088  12.033  26.443   3.188
58774W        W31089  40.862  40.505  12.572
58775W        W31090  28.211  10.359   2.321
58776W        W31091   0.853  22.817  14.821
58777W        W31092   4.475   6.793   1.868
58778W        W31093  23.710  34.879  10.719
58779W        W31094  17.779   4.413   0.192
58780W        W31095  18.754  29.793  10.665
58781W        W31096  32.312  28.505  13.853
58782W        W31097  14.651  30.424  10.738
58783W        W31098  25.224  42.873   0.822
58784W        W31099  39.533  16.037  10.915
58785W        W31100   2.513   6.849  12.803
58786W        W31101  22.574   1.462  13.540
58787W        W31102   0.503   8.420  11.456
58788W        W31103  31.896  18.715   3.302
58789W        W31104  19.567   8.195   0.417
58790W        W31105   6.910  44.226   3.405
58791W        W31106  38.528  37.816  13.796
58792W        W31107  38.792  13.200  14.942
58793W        W31108  44.200   8.853  10.595
58794W        W31109  38.676   2.598   2.399
58795W        W31110  19.396  36.274  12.900
58796W        W31111  41.260  10.089  13.820
58797W        W31112   9.337  17.197  11.741
58798W        W31113  22.205  16.799   2.293
58799W        W31114  44.795  37.975  12.086
58800W        W31115  31.491  18.356   0.349
58801W        W31116   7.406  26.321  12.055
58802W        W31117  26.234  34.995  12.860
58803W        W31118   0.781   7.895   2.261
58804W        W31119  35.791  12.784  11.536
58805W        W31120  43.314  11.269   4.547
58806W        W31121  25.685  10.835  11.114
58807W        W31122  28.754  16.136  11.853
58808W        W31123  28.154   7.773  13.854
58809W        W31124  42.498   2.824  12.913
58810W        W31125  44.944   7.064  13.508
58811W        W31126  34.174  35.513  13.034
58812W        W31127  33.434  39.554   0.696
58813W        W31128  28.366  20.786  11.947
58814W        W31129  19.722  33.344   3.669
58815W        W31130  21.013  15.215  11.197
58816W        W31131  21.969  36.137   3.776
58817W        W31132  10.925  20.025  12.296
58818W        W31133  14.248  16.177   3.303
58819W        W31134  37.540  42.379  11.067
58820W        W31135   3.226  12.422  13.353
58821W        W31136   5.980  18.207   0.208
58822W        W31137  24.183  39.025   1.818
58823W        W31138  40.000   5.642   4.047
58824W        W31139  24.718  29.967   1.012
58825W        W31140  17.249  34.299   2.693
58826W        W31141  20.244  32.289   1.077
58827W        W31142  18.998   7.187  11.374
58828W        W31143  32.910  19.691  12.529
58829W        W31144  39.513   9.565   2.241
58830W        W31145  34.347   1.228   3.226
58831W        W31146  10.698  37.012  11.049
58832W        W31147  41.569  17.590   2.855
58833W        W31148   5.383  13.580   1.754
58834W        W31149   7.436  11.627  11.459
58835W        W31150  22.504   1.344   1.676
58836W        W31151  44.583  25.948  12.552
58837W        W31152  41.172  34.419  11.021
58838W        W31153  40.347  20.740  12.984
58839W        W31154  12.599  11.635   3.027
58840W        W31155  13.559   0.636  12.649
58841W        W31156  10.675   5.127  12.496
58842W        W31157   8.842  27.251   5.207
58843W        W31158  10.189  25.288   0.853
58844W        W31159  36.326   5.811   2.193
58845W        W31160  33.715  18.832  12.010
58846W        W31161  43.935  42.889   4.605
58847W        W31162  23.955  13.003   4.457
58848W        W31163  27.399  11.409   2.261
58849W        W31164  38.263  25.025  10.674
58850W        W31165  38.519  21.123  12.515
58851W        W31166  11.707  19.712   3.472
58852W        W31167  15.455   9.705   3.090
58853W        W31168  31.893  27.504  13.912
58854W        W31169  23.276  22.639  10.633
58855W        W31170  38.459   1.051   3.410
58856W        W31171  28.722  44.946  13.542
58857W        W31172  22.439  17.550  12.005
58858W        W31173   9.372  42.071   1.235
58859W        W31174   2.703  31.007   1.523
58860W        W31175  24.800  42.882   3.121
58861W        W31176   1.488  37.076  10.701
58862W        W31177  17.015  24.040   9.941
58863W        W31178  33.594  23.510   1.076
58864W        W31179  39.902  11.236   1.790
58865W        W31180  35.349  24.961  12.799
58866W        W31181   1.973   2.477   3.263
58867W        W31182  13.786  44.783   4.171
58868W        W31183   9.126  24.643   4.817
58869W        W31184   6.974  40.898  11.096
58870W        W31185  35.437  22.638   4.818
58871W        W31186  36.061  21.970   0.274
58872W        W31187  43.857  23.947   1.672
58873W        W31188  13.879  43.959   0.422
58874W        W31189  13.404  27.207   2.155
58875W        W31190  27.233  19.593  14.314
58876W        W31191  11.826  20.903  13.116
58877W        W31192   0.010  23.774  11.086
58878W        W31193   4.165   8.241   4.115
58879W        W31194  12.185  34.456   1.041
58880W        W31195  10.892   3.416   2.330
58881W        W31196  37.483   9.443  13.515
58882W        W31197  15.381  42.115   0.250
58883W        W31198  33.029  21.754  11.065
58884W        W31199   5.661  38.106  13.446
58885W        W31200  35.989  27.414  12.944
58886W        W31201  12.664  18.426  11.193
58887W        W31202   7.638  42.520   2.588
58888W        W31203   3.405  21.432  13.320
58889W        W31204  25.514  22.544  10.610
58890W        W31205  23.506  11.402   4.195
58891W        W31206  26.946   3.471   3.302
58892W        W31207  14.357   9.138   0.831
58893W        W31208  12.378  17.879   2.051
58894W        W31209  17.604  18.330  13.410
58895W        W31210  27.939  10.511   1.064
58896W        W31211  11.161  36.936   0.215
58897W        W31212   8.883  31.573   0.084
58898W        W31213  42.728  10.814  14.471
58899W        W31214  22.479  11.965  10.342
58900W        W31215  44.961  26.422   0.340
58901W        W31216  28.639   1.534   0.858
58902W        W31217  35.841  20.639   0.250
58903W        W31218   8.962  10.239   2.190
58904W        W31219  16.979  28.990  10.858
58905W        W31220  22.921   3.230  11.100
58906W        W31221   3.291  14.127   5.180
58907W        W31222  26.478   4.958  11.596
58908W        W31223   0.017  22.432  14.938
58909W        W31224  23.500  14.073  13.531
58910W        W31225  34.957  21.459  11.549
58911W        W31226  27.207   5.929  11.831
58912W        W31227  22.475   5.934   0.452
58913W        W31228  34.590  34.556  11.234
58914W        W31229  14.591  27.467  14.513
58915W        W31230  32.083  15.487  10.106
58916W        W31231  37.064  12.544  12.899
58917W        W31232  40.723  30.002  12.942
58918W        W31233  39.483  41.186   0.009
58919W        W31234  23.215  12.960   2.329
58920W        W31235  11.928   8.648   3.636
58921W        W31236  33.936  16.279   3.165
58922W        W31237  42.995   5.865  10.809
58923W        W31238  35.062   3.710   0.344
58924W        W31239  42.473  24.679  10.624
58925W        W31240  30.019  28.222  13.423
58926W        W31241   9.129   2.928  11.408
58927W        W31242  14.742  12.753   1.614
58928W        W31243   7.200  20.857  10.243
58929W        W31244  40.560  35.103   1.767
58930W        W31245  17.498  21.769   1.026
58931W        W31246  10.818  11.928   2.240
58932W        W31247  11.118  39.227   3.335
58933W        W31248  32.445  30.621   1.291
58934W        W31249  37.914   5.272   1.026
58935W        W31250  34.043  19.657  11.642
58936W        W31251  35.653  12.927  14.302
58937W        W31252  20.792  44.317  14.141
58938W        W31253  32.670  35.960   0.850
58939W        W31254   4.747  33.501   3.145
58940W        W31255  11.159  31.654   2.379
58941W        W31256  33.408   6.570  12.041
58942W        W31257  33.139  39.909   2.106
58943W        W31258  20.098  28.699   2.389
58944W        W31259  44.774  38.379  13.059
58945W        W31260  26.976   0.719  11.961
58946W        W31261   4.346  18.706  11.636
58947W        W31262  19.999  14.730   1.473
58948W        W31263   7.139   0.603  11.136
58949W        W31264  36.026   5.938   0.486
58950W        W31265  44.860  18.085  10.491
58951W        W31266  12.224  29.058   1.943
58952W        W31267  13.276   4.274   3.874
58953W        W31268   3.502  13.792   1.749
58954W        W31269   4.970  40.419   0.677
58955W        W31270  38.917  36.819   3.027
58956W        W31271  40.034  29.743  14.794
58957W        W31272  25.392  21.769   1.398
58958W        W31273  41.478  42.764   0.831
58959W        W31274   8.090  42.956  11.642
58960W        W31275   2.340  15.137   3.978
58961W        W31276  42.292   7.080  10.904
58962W        W31277   3.937  17.300   1.636
58963W        W31278   0.491   7.439  12.486
58964W        W31279  39.018  40.374  11.385
58965W        W31280  39.403  36.068  12.397
58966W        W31281  10.700  36.885  13.358
58967W        W31282   0.445  35.002  12.608
58968W        W31283  42.092  27.710   1.615
58969W        W31284  18.786  36.620  11.879
58970W        W31285  10.204  38.824   5.035
58971W        W31286  28.164  36.582   4.671
58972W        W31287  17.067  32.175   2.196
58973W        W31288   6.872  31.070  11.240
58974W        W31289  28.165  43.420   1.353
58975W        W31290  12.202   3.441  11.959
58976W        W31291   7.952  22.159  13.008
58977W        W31292  28.003  18.161   0.201
58978W        W31293  17.633  15.815  12.005
58979W        W31294  41.769  39.108  14.875
58980W        W31295  36.519  32.138  13.901
58981W        W31296  35.578  38.797  13.844
58982W        W31297   8.078  17.004   1.686
58983W        W31298  18.081  34.992  10.561
58984W        W31299  40.352   0.044  13.408
58985W        W31300  35.553  44.506  14.356
58986W        W31301  24.982   1.480  14.808
58987W        W31302  29.373  17.270  14.027
58988W        W31303  41.337   7.422   0.469
58989W        W31304  11.637  23.757  14.490
58990W        W31305  25.249  44.956   1.825
58991W        W31306   0.399  41.536  11.947
58992W        W31307  38.253  15.669   0.441
58993W        W31308  34.831   2.747  11.204
58994W        W31309  33.127   0.669  12.339
58995W        W31310  43.453  42.272  11.024
58996W        W31311  21.258  33.134   4.107
58997W        W31312  39.785  27.539   1.684
58998W        W31313  19.528   8.465  10.348
58999W        W31314  37.130  27.527  14.972
59000W        W31315  42.484   5.702   4.634
59001W        W31316   9.096  24.101   2.853
59002W        W31317  43.758  11.597   1.867
59003W        W31318  39.599   5.683   0.559
59004W        W31319   6.699  19.079  13.379
59005W        W31320  41.655  38.566  11.518
59006W        W31321  27.219  38.846  14.413
59007W        W31322   1.124  39.573  11.045
59008W        W31323  43.526  43.157   4.462
59009W        W31324  37.030  17.121   2.401
59010W        W31325  21.202  22.680   0.861
59011W        W31326  16.837  19.523   2.820
59012W        W31327  20.133  20.733   4.688
59013W        W31328   0.206   6.161   0.145
59014W        W31329  25.085  36.471  11.967
59015W        W31330  16.960  41.408   1.008
59016W        W31331  20.509  33.584   1.553
59017W        W31332  32.319  24.233   2.893
59018W        W31333  32.787  36.871  12.436
59019W        W31334   5.424  24.553  14.319
59020W        W31335  19.061  32.679  12.749
59021W        W31336   7.313  21.091  12.002
59022W        W31337  12.969  38.121  13.896
59023W        W31338  24.238  35.059   1.759
59024W        W31339  11.223   9.630  12.180
59025W        W31340   4.385   4.222  10.816
59026W        W31341  14.221  44.229  13.258
59027W        W31342  12.961  19.558  13.901
59028W        W31343  41.712   5.130   0.739
59029W        W31344   7.898  27.639  10.849
59030W        W31345  22.531  23.221   3.818
59031W        W31346  43.796  33.102  13.922
59032W        W31347   2.560  11.311  13.902
59033W        W31348   1.516   4.453   2.421
59034W        W31349  29.661  21.497  11.138
59035W        W31350   8.843  24.121  11.095
59036W        W31351  34.908  14.495  10.781
59037W        W31352   2.851  23.580  10.744
59038W        W31353   8.697  23.015  12.523
59039W        W31354   8.070  10.334  14.899
59040W        W31355  32.995  21.485  12.541
59041W        W31356  26.736  11.619  12.649
59042W        W31357  11.608   0.566   1.776
59043W        W31358   6.142   6.714  12.109
59044W        W31359   5.668  13.858  13.270
59045W        W31360  39.318  15.593  11.145
59046W        W31361  22.571  30.931  10.692
59047W        W31362  33.881  26.070  11.453
59048W        W31363   3.802  34.653   1.765
59049W        W31364  10.867  12.958   3.214
59050W        W31365  31.682  42.548  12.120
59051W        W31366  26.606  34.712   3.245
59052W        W31367  15.056   7.865   4.429
59053W        W31368  27.015   0.006   0.361
59054W        W31369  39.921  15.114  10.691
59055W        W31370  10.349  20.559  11.911
59056W        W31371   7.836  40.523   1.870
59057W        W31372  11.310  21.944  10.509
59058W        W31373  14.521  28.542   3.145
59059W        W31374  40.003  31.660  13.287
59060W        W31375  32.008  10.659  11.431
59061W        W31376   4.261  19.683   3.760
59062W        W31377  30.003   4.505  11.889
59063W        W31378  21.601  25.308  12.197
59064W        W31379  20.227  15.380  12.501
59065W        W31380  22.760  20.994  11.088
59066W        W31381  21.959  22.296  11.073
59067W        W31382   8.218   2.508   4.211
59068W        W31383  25.530  18.556  13.990
59069W        W31384   5.248  33.449  12.942
59070W        W31385  41.088  32.018   0.843
59071W        W31386  17.664  14.867  11.093
59072W        W31387  16.696  34.092   0.504
59073W        W31388  36.907  35.347  11.164
59074W        W31389   2.965  28.030   1.237
59075W        W31390  18.247   3.922   3.796
59076W        W31391  36.915   8.643   4.445
59077W        W31392  12.449  13.795  11.512
59078W        W31393   0.927  24.416   4.638
59079W        W31394  10.341  34.993  13.604
59080W        W31395  33.447   1.327   2.779
59081W        W31396  36.845   2.498   1.789
59082W        W31397  14.534  23.182   1.717
59083W        W31398  20.536  17.172  12.972
59084W        W31399   7.635  11.333  14.733
59085W        W31400  28.496  42.788  12.459
59086W        W31401  24.910  18.550  12.105
59087W        W31402   8.802  15.328  14.884
59088W        W31403   3.954  26.893   4.552
59089W        W31404   1.984   3.919   4.188
59090W        W31405  35.881  26.088  13.328
59091W        W31406  35.019  42.448  13.935
59092W        W31407  21.260  16.273  13.503
59093W        W31408  13.911  33.047   1.257
59094W        W31409  30.339  41.431  11.435
59095W        W31410  22.739   7.719  13.392
59096W        W31411  19.550  31.937  13.558
59097W        W31412  33.685  20.767   0.386
59098W        W31413  39.738   4.376  10.640
59099W        W31414  28.616  23.378  13.451
59100W        W31415  32.179  33.748  13.467
59101W        W31416  32.264  40.222   3.816
59102W        W31417  27.457  15.114   3.626
59103W        W31418  43.046  22.051   4.326
59104W        W31419  36.048  38.842  10.985
59105W        W31420  42.083  16.102   3.205
59106W        W31421  11.740  12.181  14.900
59107W        W31422  11.522  31.911  11.966
59108W        W31423   0.418  21.494  12.062
59109W        W31424  17.734  13.349  12.108
59110W        W31425   0.382  24.886  14.325
59111W        W31426  33.195  19.723  12.069
59112W        W31427   8.292  15.533  12.915
59113W        W31428  18.548  13.067   4.134
59114W        W31429  17.333   9.346  14.451
59115W        W31430  39.402  21.040   3.216
59116W        W31431  13.548  13.483   0.294
59117W        W31432  13.094  17.766   4.139
59118W        W31433  21.376  16.063  13.968
59119W        W31434  21.771  12.647   1.131
59120W        W31435  21.471  22.219  10.915
59121W        W31436  36.551  15.421   1.896
59122W        W31437  40.916  20.352   1.244
59123W        W31438  31.572  12.094   3.603
59124W        W31439  44.375  28.993  10.133
59125W        W31440   9.852  41.364   1.249
59126W        W31441   4.938   8.304  10.687
59127W        W31442   0.691  38.163  10.700
59128W        W31443  33.519   5.748   3.790
59129W        W31444  21.032   1.954   4.727
59130W        W31445  11.849   6.686   2.079
59131W        W31446  22.379  44.046  10.833
59132W        W31447  22.671  29.871   5.099
59133W        W31448  12.830  25.454   2.796
59134W        W31449  24.554  12.051  12.411
59135W        W31450  27.954  23.159   4.985
59136W        W31451  43.502  17.188   3.796
59137W        W31452  13.288  16.709  13.223
59138W        W31453  30.874   7.158   3.187
59139W        W31454  23.694  14.139  13.037
59140W        W31455  27.161  35.187  10.285
59141W        W31456  25.743  35.901  10.785
59142W        W31457  31.191   0.794  12.199
59143W        W31458  39.533  38.592  13.332
59144W        W31459   2.913   1.063  14.795
59145W        W31460  14.384   9.304  14.490
59146W        W31461  20.590  32.070  11.636
59147W        W31462   1.031  39.027   1.696
59148W        W31463   5.768  25.901  13.903
59149W        W31464  38.525   5.175  13.011
59150W        W31465  24.547  26.570   0.356
59151W        W31466  31.439  13.053  12.441
59152W        W31467  43.087  40.841  13.120
59153W        W31468   4.405  15.711   2.299
59154W        W31469  14.524  18.569   3.869
59155W        W31470  19.085  18.360   2.611
59156W        W31471  32.961  14.931  12.610
59157W        W31472  43.759  28.216   3.294
59158W        W31473  21.594  13.105  11.221
59159W        W31474   8.731  16.964   2.858
59160W        W31475   1.176  16.986  12.466
59161W        W31476  37.919   0.457   4.151
59162W        W31477  30.352  43.335  13.275
59163W        W31478  15.248   2.461   0.682
59164W        W31479  20.564  34.658  14.694
59165W        W31480  12.644   3.299  12.176
59166W        W31481  22.199  22.595  13.458
59167W        W31482  31.192   6.955  11.891
59168W        W31483  14.467  19.583  13.987
59169W        W31484  35.304  18.649  12.321
59170W        W31485  16.981  39.485   1.810
59171W        W31486   8.734   7.392  10.736
59172W        W31487  42.807  43.437  14.780
59173W        W31488  33.615  43.498   0.913
59174W        W31489  23.484  24.486  12.964
59175W        W31490   4.724  41.573   3.699
59176W        W31491  42.243  33.114   4.240
59177W        W31492  24.395  41.034   3.170
59178W        W31493  12.038  37.290   2.297
59179W        W31494  13.189  33.329   2.358
59180W        W31495  32.546  17.728  13.824
59181W        W31496   9.449   1.870  14.933
59182W        W31497  11.791  25.479  13.176
59183W        W31498  10.483   8.107   5.190
59184W        W31499  31.593   7.195  11.211
59185W        W31500  24.950  37.424   4.541
59186W        W31501   4.885  15.689  12.094
59187W        W31502  34.932   4.337  11.866
59188W        W31503  20.592  28.990  11.012
59189W        W31504  29.221  36.814  12.596
59190W        W31505  10.077  41.367  10.577
59191W        W31506  41.362  44.751   0.433
59192W        W31507  13.560  40.540  14.000
59193W        W31508  18.829  43.198  10.797
59194W        W31509  40.973   4.428  13.537
59195W        W31510  29.077  16.577   0.320
59196W        W31511  25.140   3.269   2.884
59197W        W31512  15.068  29.594   3.130
59198W        W31513  44.532  22.500   1.015
59199W        W31514  23.649  18.003  11.834
59200W        W31515   2.502  17.851   2.194
59201W        W31516  40.030   5.857   0.812
59202W        W31517  17.954  39.728  12.471
59203W        W31518  18.398   4.094   1.719
59204W        W31519  33.114  44.841  11.322
59205W        W31520   1.938  32.676   2.811
59206W        W31521  15.424  26.074  12.904
59207W        W31522  14.636  15.738  13.989
59208W        W31523  32.771  21.600   3.448
59209W        W31524  38.069  23.696  13.531
59210W        W31525  20.449  39.064  12.024
59211W        W31526  33.951  16.247  14.946
59212W        W31527  17.008  10.686   2.692
59213W        W31528  17.156  18.628  10.639
59214W        W31529  40.015  33.860   0.959
59215W        W31530  41.001  44.599  14.634
59216W        W31531  42.230  26.044  11.004
59217W        W31532  28.111  41.398   2.694
59218W        W31533  13.284  24.468  12.991
59219W        W31534  33.799   9.394   0.318
59220W        W31535  31.091  31.506  11.238
59221W        W31536  38.456  33.124  12.975
59222W        W31537  20.270   0.271   3.543
59223W        W31538  13.257  32.202  14.180
59224W        W31539   4.913  33.477   0.037
59225W        W31540   2.018  12.189  14.914
59226W        W31541  28.672  31.415  11.122
59227W        W31542  39.476   8.169  10.859
59228W        W31543  25.294  24.572   4.585
59229W        W31544   7.543  26.599  10.243
59230W        W31545   6.400  12.892  14.844
59231W        W31546   5.999  34.329  11.179
59232W        W31547  16.640  10.157   0.747
59233W        W31548  31.281  16.555   3.684
59234W        W31549  37.763   8.701  10.646
59235W        W31550  16.342  38.529  12.448
59236W        W31551   7.486  22.257   0.216
59237W        W31552  37.398  36.110  14.502
59238W        W31553  27.438  43.391  11.022
59239W        W31554  29.614  30.374   4.332
59240W        W31555  19.474   4.832   1.509
59241W        W31556  27.455  34.445  13.448
59242W        W31557   7.601  34.505  14.288
59243W        W31558  16.492  20.518  11.492
59244W        W31559  41.965   0.507   3.630
59245W        W31560  10.425   6.307  14.083
59246W        W31561   9.087  41.717   0.224
59247W        W31562   9.437  43.522  14.993
59248W        W31563  37.603  20.209   4.360
59249W        W31564   2.362   7.723  12.141
59250W        W31565   2.965   3.454  14.948
59251W        W31566  10.212  33.352  11.277
59252W        W31567   9.817   8.668   1.932
59253W        W31568   0.647  22.441   5.029
59254W        W31569   6.168  29.870  11.569
59255W        W31570  31.559   0.948  12.862
59256W        W31571  37.274  15.241  11.643
59257W        W31572   4.980  33.190   4.108
59258W        W31573  28.515  44.826   4.812
59259W        W31574  23.671  29.052   4.663
59260W        W31575  29.420   7.731   0.329
59261W        W31576  21.196  23.253   0.318
59262W        W31577  31.123   3.683   0.307
59263W        W31578   8.395  30.667   2.289
59264W        W31579  39.983  28.540   1.934
59265W        W31580  11.945  13.784  11.543
59266W        W31581  36.321  24.661  14.975
59267W        W31582  19.567  30.894   2.654
59268W        W31583   0.953  24.180   2.448
59269W        W31584   4.242  35.404   3.274
59270W        W31585   1.347   3.917   4.493
59271W        W31586  29.054   1.646   1.207
59272W        W31587  13.950  15.311  12.003
59273W        W31588  12.913  18.040  14.217
59274W        W31589   4.684  23.503  13.881
59275W        W31590  12.960  35.634  13.459
59276W        W31591  30.068  15.589   4.968
59277W        W31592  18.701  39.127   4.573
59278W        W31593  44.977  36.538   1.665
59279W        W31594  23.530   2.950   1.451
59280W        W31595  18.179  26.624  10.981
59281W        W31596  42.365  42.749  12.533
59282W        W31597  34.650  37.962   2.117
59283W        W31598  25.284  39.927  12.627
59284W        W31599  19.341   9.045  11.587
59285W        W31600  43.980  14.016  12.862
59286W        W31601  30.870  15.708  10.665
59287W        W31602  44.438   4.540   3.815
59288W        W31603  23.852  42.443  14.105
59289W        W31604  21.173  20.548  14.850
59290W        W31605  23.585  12.832   3.202
59291W        W31606  19.435  15.300   0.965
59292W        W31607   2.262   7.051  11.083
59293W        W31608  14.343  14.296   0.730
59294W        W31609   9.681  20.182   2.191
59295W        W31610   0.870  12.552   4.616
59296W        W31611  28.097  15.069   2.304
59297W        W31612   8.777   1.689  11.164
59298W        W31613  38.316  26.084   5.430
59299W        W31614  20.193   3.399  12.123
59300W        W31615  27.478   1.327  13.010
59301W        W31616  26.286  43.757   1.943
59302W        W31617  22.165   6.380   3.745
59303W        W31618  24.578  42.980  14.231
59304W        W31619  41.475  14.528   2.363
59305W        W31620  12.357   0.428  14.781
59306W        W31621  37.492   6.353  11.639
59307W        W31622   2.523  16.104   2.378
59308W        W31623   4.479  28.538   1.710
59309W        W31624   3.433  26.758   4.613
59310W        W31625  31.192  44.253   2.311
59311W        W31626   2.344  29.661   1.982
59312W        W31627   2.516  34.065   3.708
59313W        W31628  32.629  26.406  12.005
59314W        W31629  24.489  17.406   4.875
59315W        W31630  18.034  10.433   2.685
59316W        W31631   4.952   2.314   1.623
59317W        W31632  25.274  24.090  14.033
59318W        W31633  33.332  13.829  14.707
59319W        W31634  39.886  29.237  14.885
59320W        W31635   3.555  24.489  14.236
59321W        W31636  28.655  24.757  14.692
59322W        W31637  20.029  31.556   0.381
59323W        W31638  30.344  16.783  11.687
59324W        W31639  34.099  22.047  13.236
59325W        W31640   7.317   4.518  12.398
59326W        W31641  35.289   0.801  13.905
59327W        W31642  17.725  27.992   2.789
59328W        W31643  21.294  38.057   0.452
59329W        W31644  35.407  33.478  10.288
59330W        W31645  42.497  26.956   3.203
59331W        W31646  29.871  38.451  11.610
59332W        W31647  22.475  32.399   4.659
59333W        W31648   6.351  22.534   1.260
59334W        W31649   7.926  19.071   2.864
59335W        W31650   0.070  12.234   5.505
59336W        W31651  15.831   3.458  13.092
59337W        W31652   2.444   3.990  11.149
59338W        W31653  21.335   9.790   2.220
59339W        W31654  22.888  42.969   1.691
59340W        W31655  32.032  21.479   1.696
59341W        W31656   9.194  43.406   0.841
59342W        W31657  24.159  13.577   0.881
59343W        W31658  29.181  31.707  11.089
59344W        W31659  21.731  26.148  12.410
59345W        W31660  37.694  19.250   0.724
59346W        W31661   0.777  29.122   1.977
59347W        W31662  21.828   9.424   3.224
59348W        W31663   0.345   0.159  10.436
59349W        W31664  37.384  11.236  12.151
59350W        W31665  16.676   3.913   3.174
59351W        W31666  40.038  20.200  11.221
59352W        W31667  37.697  15.289   4.186
59353W        W31668  38.250  21.648   1.378
59354W        W31669  36.755  43.564  13.610
59355W        W31670  29.464  35.920   5.128
59356W        W31671  36.827   4.965   2.773
59357W        W31672  43.306  26.114  14.840
59358W        W31673  31.196  37.667   5.059
59359W        W31674   4.706  39.644  12.575
59360W        W31675  19.293  23.459   4.893
59361W        W31676  31.207  11.381   1.293
59362W        W31677  30.708  36.707  10.981
59363W        W31678  38.580  10.626  12.888
59364W        W31679  42.708  25.415   3.272
59365W        W31680  22.676   1.464   1.198
59366W        W31681  37.456  13.720  12.484
59367W        W31682  37.319   3.520  11.644
59368W        W31683   8.282  23.754   3.097
59369W        W31684  32.456  23.545   3.228
59370W        W31685   6.178  22.441  14.321
59371W        W31686  16.202   7.697  14.437
59372W        W31687  21.750  29.778   4.237
59373W        W31688  32.593  36.479  12.721
59374W        W31689  44.877  33.993  13.523
59375W        W31690  18.599  20.035  10.612
59376W        W31691  12.766   7.190  14.523
59377W        W31692  42.632   8.843   2.279
59378W        W31693   5.085  29.401   3.722
59379W        W31694  13.771  20.297  12.167
59380W        W31695  19.938  44.699  12.399
59381W        W31696   0.305   1.307  12.561
59382W        W31697  25.771  29.326   2.623
59383W        W31698  19.783   8.026   3.660
59384W        W31699   6.872  40.505  13.868
59385W        W31700  14.285  15.072  13.409
59386W        W31701   2.357  25.726  13.190
59387W        W31702  11.489   0.314   2.221
59388W        W31703   8.827  28.571   1.253
59389W        W31704  30.104   0.569  12.985
59390W        W31705  14.458  20.885   2.662
59391W        W31706  23.250   8.795  11.684
59392W        W31707  26.184   9.771  10.997
59393W        W31708  31.860  22.605   0.864
59394W        W31709  32.631  34.936  13.314
59395W        W31710   5.951  14.573  12.818
59396W        W31711  13.742  19.723   4.621
59397W        W31712   5.378  27.443   1.972
59398W        W31713  26.475   8.194  13.560
59399W        W31714  15.666  39.262   5.086
59400W        W31715  34.803  13.787  11.276
59401W        W31716   6.134  11.254   3.157
59402W        W31717  34.874  10.065   4.141
59403W        W31718  38.536  16.868  11.504
59404W        W31719  41.492   9.420  10.783
59405W        W31720  40.373  27.625   3.813
59406W        W31721  41.915   7.939   0.487
59407W        W31722   5.356   2.272   4.272
59408W        W31723  20.147   8.933  10.371
59409W        W31724  12.718   6.251  10.756
59410W        W31725  42.270  30.147  11.164
59411W        W31726  37.487  16.796   4.608
59412W        W31727  39.439  24.090  12.572
59413W        W31728   9.226  33.974   1.703
59414W        W31729  13.133  24.081  10.489
59415W        W31730  34.028  14.797   1.673
59416W        W31731  28.137  43.955   4.629
59417W        W31732  31.984  21.034  12.542
59418W        W31733   3.379  18.089   2.694
59419W        W31734   1.703  23.460  10.768
59420W        W31735   7.671  37.515   0.477
59421W        W31736  42.285  10.116  14.818
59422W        W31737  17.201  29.597   2.383
59423W        W31738  29.238   4.784   0.423
59424W        W31739  23.007  37.886   0.755
59425W        W31740   4.289  29.202  10.532
59426W        W31741  28.640   6.855   5.537
59427W        W31742  39.829  25.865   5.630
59428W        W31743  35.047  34.626  14.388
59429W        W31744  27.688  13.890   0.943
59430W        W31745  13.616   6.361   1.294
59431W        W31746  33.051   0.240   3.333
59432W        W31747  14.356  14.125  11.559
59433W        W31748  11.287  15.920  11.922
59434W        W31749   5.567  25.325  11.682
59435W        W31750   3.260  38.170  12.558
59436W        W31751   2.021  38.007   3.151
59437W        W31752  34.048  30.135   1.229
59438W        W31753  17.759  42.719  13.960
59439W        W31754   2.885  25.779  13.984
59440W        W31755  33.040  17.360  12.043
59441W        W31756  30.054  15.001  11.973
59442W        W31757  26.574   0.843  13.088
59443W        W31758  18.092  16.072  10.748
59444W        W31759   8.657   0.432  14.454
59445W        W31760   4.072  12.862  13.859
59446W        W31761  30.137  40.868   3.331
59447W        W31762  36.361  38.894  12.185
59448W        W31763  37.955   2.385  13.814
59449W        W31764  28.943  14.043   0.440
59450W        W31765  13.655  22.157  11.163
59451W        W31766  33.992  39.937  14.121
59452W        W31767  26.951  34.350   3.154
59453W        W31768  22.510  22.352   0.182
59454W        W31769  22.652  35.511  10.721
59455W        W31770   9.154  27.897  14.884
59456W        W31771   6.677   9.731  13.863
59457W        W31772  18.247  29.513  10.739
59458W        W31773   7.784  29.037   1.003
59459W        W31774  27.455  44.205   0.457
59460W        W31775  37.451   9.362  14.461
59461W        W31776  41.851  25.950  14.169
59462W        W31777  23.192  19.058   4.742
59463W        W31778  41.798   9.896   3.741
59464W        W31779  43.797  32.870  10.335
59465W        W31780  36.091  13.397   4.899
59466W        W31781  35.446  24.105  11.517
59467W        W31782  41.343  23.718   1.066
59468W        W31783  22.488  21.576  12.790
59469W        W31784  28.575  27.345   3.284
59470W        W31785  15.642  18.652  14.609
59471W        W31786  30.475  39.663  14.453
59472W        W31787  20.132  34.847  14.887
59473W        W31788  14.796  29.093  14.076
59474W        W31789  25.652   1.994   4.970
59475W        W31790   6.584  27.369  13.400
59476W        W31791  32.809   7.718  10.828
59477W        W31792  36.657  37.608   0.629
59478W        W31793  30.738  21.157  13.862
59479W        W31794  21.290  42.773   0.772
59480W        W31795  36.106  18.374  14.824
59481W        W31796   7.270  14.923  14.879
59482W        W31797  42.526  28.052  14.422
59483W        W31798  24.652   6.962   2.731
59484W        W31799  34.935   6.213  13.352
59485W        W31800  23.898   3.942  14.458
59486W        W31801   3.374  18.300   4.873
59487W        W31802  25.187  25.963   2.476
59488W        W31803  10.738  33.174  11.214
59489W        W31804  33.937  26.846  12.601
59490W        W31805   1.939  10.444   0.783
59491W        W31806   9.105   6.261  11.963
59492W        W31807   6.329  31.051  12.944
59493W        W31808   0.911  31.250  11.847
59494W        W31809   5.132  34.906  14.810
59495W        W31810  25.155  22.881  12.997
59496W        W31811  34.589  10.215   4.944
59497W        W31812   8.286  24.034   1.362
59498W        W31813  11.210   7.814   0.971
59499W        W31814  24.077  19.441  13.885
59500W        W31815   1.373  11.853   1.729
59501W        W31816   4.849  16.644   1.954
59502W        W31817  13.365  18.815  14.233
59503W        W31818  32.145  41.406   1.226
59504W        W31819  24.042  21.615  13.486
59505W        W31820  36.320  32.906  11.506
59506W        W31821   8.272  13.756  10.361
59507W        W31822  15.845  37.089   0.315
59508W        W31823  15.535  11.912   2.383
59509W        W31824  30.985  26.452  12.589
59510W        W31825  13.320  41.248   0.224
59511W        W31826  41.315   7.840   1.799
59512W        W31827  25.766  17.300  12.891
59513W        W31828   4.318   8.124  11.937
59514W        W31829  41.783  40.873   0.280
59515W        W31830  39.125   8.390  12.925
59516W        W31831   2.051  13.032  14.964
59517W        W31832  25.736   3.267   2.823
59518W        W31833  32.996  25.508  14.984
59519W        W31834   1.253  27.559   2.428
59520W        W31835  30.940   8.559   2.214
59521W        W31836  37.486  20.050  11.693
59522W        W31837  10.526  34.694   4.875
59523W        W31838  16.556  17.082  11.626
59524W        W31839  33.880  37.941   9.986
59525W        W31840  43.398  21.775  13.345
59526W        W31841  36.744  10.884  11.559
59527W        W31842  26.560   6.808  12.993
59528W        W31843  36.465  14.909  13.862
59529W        W31844  29.594  20.068  13.463
59530W        W31845  25.445  40.973  11.576
59531W        W31846   9.190  13.511   3.752
59532W        W31847  25.537  29.592  12.987
59533W        W31848  32.875  24.582   3.175
59534W        W31849   4.154   2.608   4.262
59535W        W31850  33.929  37.623  11.735
59536W        W31851  26.987  14.790   0.937
59537W        W31852  34.175  35.327   4.474
59538W        W31853  13.062  26.847  14.229
59539W        W31854   8.711   0.735   4.273
59540W        W31855  42.653  11.608   3.554
59541W        W31856  11.866  16.113   3.860
59542W        W31857   4.736  38.463   4.382
59543W        W31858   6.788  22.044  10.765
59544W        W31859   5.228  11.107  10.684
59545W        W31860  16.859  25.612  10.992
59546W        W31861   5.873   7.083  11.854
59547W        W31862   0.933  13.843  14.232
59548W        W31863  35.620   1.001   4.330
59549W        W31864  42.098  18.470  12.061
59550W        W31865   8.049  11.795   1.824
59551W        W31866  25.881  25.649   0.800
59552W        W31867  38.904  22.108   1.935
59553W        W31868  39.877  27.667   2.937
59554W        W31869   2.681  13.035  13.059
59555W        W31870  33.497  32.115  14.936
59556W        W31871  15.511  17.579   3.747
59557W        W31872  16.164  23.541  10.592
59558W        W31873  28.925  22.444   4.486
59559W        W31874  24.138  11.170   0.882
59560W        W31875  30.388  31.942   3.716
59561W        W31876  40.469  37.870  14.818
59562W        W31877  25.817   2.370   3.776
59563W        W31878   4.694  42.385  12.925
59564W        W31879   2.436  39.849  14.831
59565W        W31880  22.522   5.848   3.377
59566W        W31881  31.005   4.708   4.227
59567W        W31882  44.457  40.982   0.467
59568W        W31883  43.241  34.082  11.958
59569W        W31884   0.685   0.915  10.150
59570W        W31885   8.655   1.482   3.263
59571W        W31886  19.774  28.898  13.382
59572W        W31887  35.403  37.689   0.732
59573W        W31888  10.326  27.028  13.640
59574W        W31889  25.113  22.835  10.366
59575W        W31890  10.361  13.651   3.623
59576W        W31891  21.617  12.057  11.103
59577W        W31892  20.484  11.351   5.427
59578W        W31893  23.479   7.968   0.286
59579W        W31894   6.974  40.649   4.827
59580W        W31895  24.958  36.972   3.864
59581W        W31896  17.638  20.132  10.621
59582W        W31897  28.868   9.440   1.750
59583W        W31898  21.718  20.193   3.327
59584W        W31899  39.474  10.928  14.019
59585W        W31900  23.259  10.781  12.969
59586W        W31901   6.676  29.103  12.935
59587W        W31902  30.936   0.952  11.277
59588W        W31903   7.870  27.375   4.499
59589W        W31904   8.256  21.070  12.113
59590W        W31905  37.102   0.986   3.900
59591W        W31906  37.063  40.011  10.534
59592W        W31907  17.111  28.006   1.733
59593W        W31908  26.739   0.107  13.516
59594W        W31909  29.384   6.463  13.925
59595W        W31910  31.393  32.123   3.904
59596W        W31911  43.076  44.251   0.132
59597W        W31912  19.758  23.601  10.497
59598W        W31913  39.932  38.310   4.372
59599W        W31914  18.610  42.733  10.897
59600W        W31915  26.652  42.353   1.244
59601W        W31916  33.092  18.121   0.669
59602W        W31917  33.278  39.406   2.221
59603W        W31918  22.590  28.384  14.836
59604W        W31919  36.029  38.028  10.825
59605W        W31920   3.795   2.454   2.318
59606W        W31921  42.990  16.221   1.953
59607W        W31922  25.225  18.754   0.695
59608W        W31923  24.993   2.157   5.120
59609W        W31924  25.407  33.348  12.389
59610W        W31925  25.740  34.014   2.424
59611W        W31926  21.269  26.464  14.920
59612W        W31927  12.210  11.869   2.217
59613W        W31928  39.899  30.279  14.307
59614W        W31929  38.368  26.369   1.754
59615W        W31930  21.208   5.772   0.975
59616W        W31931  12.609  43.715  13.301
59617W        W31932  21.675   6.894   4.118
59618W        W31933   6.384   6.256  12.115
59619W        W31934   3.414  24.420   3.748
59620W        W31935   2.796  21.865   4.103
59621W        W31936  32.334  20.165   4.933
59622W        W31937  24.546  20.776   2.625
59623W        W31938  20.549   3.550  13.338
59624W        W31939  12.221  18.460  10.914
59625W        W31940   7.033  28.912  11.144
59626W        W31941  37.079   3.917  13.466
59627W        W31942  11.382  39.054  11.464
59628W        W31943  22.672   8.171   3.969
59629W        W31944  37.395  41.824   4.717
59630W        W31945  25.944   8.507  12.912
59631W        W31946   7.800   4.599  12.557
59632W        W31947   9.276  22.910  11.981
59633W        W31948   5.217  31.552   3.772
59634W        W31949  18.041  34.945   0.817
59635W        W31950  41.861  35.920  10.828
59636W        W31951   5.123  11.205  12.046
59637W        W31952   5.236  17.448   2.466
59638W        W31953  12.180  27.956   4.155
59639W        W31954  17.701   5.078   2.285
59640W        W31955  10.574  21.471  11.933
59641W        W31956  17.340  14.008  10.157
59642W        W31957  31.630  29.188   3.789
59643W        W31958   9.911  31.583  13.443
59644W        W31959  16.575  39.895  12.911
59645W        W31960   5.432  11.362   2.217
59646W        W31961  15.845  41.727  11.098
59647W        W31962   8.134  43.545  14.014
59648W        W31963  30.731  29.468  13.073
59649W        W31964   8.279  32.866   4.717
59650W        W31965  22.004  11.313  11.557
59651W        W31966  13.124  10.373   1.329
59652W        W31967  16.012  28.552  13.469
59653W        W31968  29.873  35.084   1.223
59654W        W31969  42.373  34.998   2.184
59655W        W31970  11.759  15.248   3.160
59656W        W31971   2.707   0.010  14.752
59657W        W31972  12.852   8.435   0.416
59658W        W31973  17.185  21.054  10.778
59659W        W31974   0.317   5.893  12.411
59660W        W31975  27.959  11.922   2.830
59661W        W31976   0.715  44.279   4.014
59662W        W31977  35.911  11.077  13.978
59663W        W31978  42.986  10.632  14.867
59664W        W31979   8.450   3.803  14.462
59665W        W31980  22.608  32.287  13.761
59666W        W31981  25.571  12.111  13.427
59667W        W31982  41.904  36.637  13.437
59668W        W31983  44.996  31.539  11.168
59669W        W31984  19.066  11.853   3.732
59670W        W31985  44.718   4.819  13.574
59671W        W31986   9.669  43.999   0.019
59672W        W31987  30.183  27.140  13.438
59673W        W31988   7.089  34.702   2.945
59674W        W31989  22.784  44.751   0.984
59675W        W31990  27.424  12.843   2.281
59676W        W31991   0.564  21.990  12.018
59677W        W31992  31.604  16.618  13.121
59678W        W31993  22.415  14.419   1.778
59679W        W31994  40.420  17.088   0.440
59680W        W31995  42.625  26.050   1.348
59681W        W31996  32.044   4.665   2.876
59682W        W31997  24.444  32.627   4.534
59683W        W31998   5.243  27.588   3.731
59684W        W31999  23.324  39.010  13.072
59685W        W32000  30.859   1.517   4.159
59686W        W32001  43.396  12.328  13.781
59687W        W32002  26.502  42.958  14.004
59688W        W32003   7.917   2.064   4.207
59689W        W32004  20.150   5.240   1.733
59690W        W32005  22.753   8.148   2.948
59691W        W32006  39.017  32.450  12.887
59692W        W32007  26.724  37.625   9.924
59693W        W32008  35.384  35.039  11.143
59694W        W32009  24.353  24.718   0.044
59695W        W32010  33.636  22.232  13.132
59696W        W32011  22.488  37.396  14.709
59697W        W32012  18.396  40.290  10.652
59698W        W32013  32.917  16.472  12.416
59699W        W32014  32.026  11.446   1.831
59700W        W32015  25.458  29.030  14.079
59701W        W32016   5.125  30.589   2.421
59702W        W32017  18.026   0.813   4.708
59703W        W32018  19.352  17.334   1.730
59704W        W32019  39.515   3.477   1.808
59705W        W32020  30.080  31.022   0.416
59706W        W32021   2.981  17.318   4.252
59707W        W32022  44.843  15.354   2.155
59708W        W32023  27.131  43.701  13.936
59709W        W32024  12.304  11.226   2.895
59710W        W32025  44.291  14.521  10.754
59711W        W32026  37.963  21.121  13.903
59712W        W32027  31.440  36.435   2.687
59713W        W32028  32.879   2.689  14.384
59714W        W32029  22.801  19.390   2.893
59715W        W32030  41.878  43.347  12.064
59716W        W32031  15.634  16.676   3.957
59717W        W32032  22.721  27.299  14.678
59718W        W32033  38.028  10.646  11.849
59719W        W32034  26.529  29.548  13.662
59720W        W32035   7.320   8.151  10.513
59721W        W32036   7.177  36.062  14.800
59722W        W32037  26.891   8.162  13.873
59723W        W32038  10.046  18.166   4.963
59724W        W32039  42.435  20.445  13.408
59725W        W32040   1.457   6.738   4.807
59726W        W32041  22.640  31.435   2.148
59727W        W32042  37.060   2.194  13.812
59728W        W32043  10.114  32.083   4.109
59729W        W32044  36.580  40.273  14.877
59730W        W32045  36.199   8.200  13.081
59731W        W32046  34.004  10.839   1.425
59732W        W32047  44.853  19.588   0.223
59733W        W32048   5.832  37.143  11.928
59734W        W32049   6.263  15.201  14.863
59735W        W32050  23.035  15.759   0.850
59736W        W32051  27.690  28.158   1.709
59737W        W32052  44.818   1.983  10.730
59738W        W32053  21.937  14.771   4.285
59739W        W32054  25.534  33.367   4.876
59740W        W32055  14.633   2.471  14.928
59741W        W32056  28.702   3.939   9.809
59742W        W32057  21.084  25.671   0.395
59743W        W32058  34.626  12.995  11.513
59744W        W32059  42.839   7.857  11.368
59745W        W32060  42.033   3.855   2.146
59746W        W32061  44.028   2.330  14.906
59747W        W32062  10.200  23.195  11.421
59748W        W32063   1.152  22.846  13.535
59749W        W32064  18.627   8.632  10.316
59750W        W32065  19.249   9.377  12.978
59751W        W32066  11.619  18.973  14.443
59752W        W32067  28.131  21.790  12.382
59753W        W32068  29.247   2.379  13.409
59754W        W32069  37.876  36.314   4.112
59755W        W32070  26.501  36.278   2.032
59756W        W32071  36.942  26.413   3.815
59757W        W32072  27.698  41.111   0.298
59758W        W32073  23.424  15.226  11.599
59759W        W32074  33.106  22.644  11.956
59760W        W32075  27.655   1.895   3.596
59761W        W32076  19.512  21.516   3.301
59762W        W32077  40.735   6.227   1.558
59763W        W32078   3.019  11.839  12.460
59764W        W32079  43.516  25.215   0.462
59765W        W32080  14.525   7.169   0.857
59766W        W32081  21.068  20.204  10.612
59767W        W32082  24.238  38.043   4.517
59768W        W32083  12.435   8.350  13.720
59769W        W32084  20.756  24.435  14.955
59770W        W32085  16.808  24.333  14.441
59771W        W32086  17.208  22.414   1.801
59772W        W32087  16.601   2.875   0.395
59773W        W32088  21.299  37.312   2.224
59774W        W32089  20.869  40.452   3.562
59775W        W32090  13.774  15.139   0.722
59776W        W32091  39.022  22.811  12.334
59777W        W32092  31.578  19.683   5.038
59778W        W32093  34.306  14.066   0.375
59779W        W32094  29.767  28.237  11.131
59780W        W32095  14.664  21.390   2.369
59781W        W32096  30.604  34.929  12.068
59782W        W32097  18.098  44.005  10.687
59783W        W32098   6.919   0.953  12.977
59784W        W32099   5.158  12.013  13.190
59785W        W32100  30.053  26.756  11.173
59786W        W32101  21.129  44.421   3.660
59787W        W32102  29.649  34.865   2.580
59788W        W32103  24.120  22.005  12.028
59789W        W32104  28.821  21.993  11.698
59790W        W32105   9.153  11.808  14.121
59791W        W32106  37.009  32.931   3.711
59792W        W32107  36.284  26.422   3.197
59793W        W32108  19.478  41.757   3.584
59794W        W32109  38.399  27.648  11.200
59795W        W32110  20.247  44.135   4.854
59796W        W32111  11.195  31.830   0.529
59797W        W32112  26.810  23.559   1.810
59798W        W32113   6.902  30.993  14.177
59799W        W32114  34.401  36.339  13.377
59800W        W32115   1.308  30.438   2.895
59801W        W32116  24.271  32.548   3.893
59802W        W32117  26.162  44.047  14.693
59803W        W32118   5.238  18.664   3.801
59804W        W32119  38.884  31.883  10.232
59805W        W32120   9.347   6.862   4.858
59806W        W32121   9.668   3.436  13.089
59807W        W32122  25.188   2.845  10.677
59808W        W32123  44.958   0.993   1.885
59809W        W32124  43.431  36.327  10.375
59810W        W32125  29.873  21.506   0.923
59811W        W32126  25.972   9.693   2.688
59812W        W32127  23.044  18.355  14.559
59813W        W32128  24.605  28.807   3.643
59814W        W32129  44.300   4.643  12.748
59815W        W32130  27.741  39.127   1.899
59816W        W32131  32.491  30.473   4.800
59817W        W32132  18.844  35.071  11.063
59818W        W32133  21.097  17.660   4.144
59819W        W32134  23.501   1.188   1.946
59820W        W32135  38.812  17.632  12.377
59821W        W32136  19.453  14.691   1.526
59822W        W32137  26.684  31.365   2.114
59823W        W32138   9.819  39.286   0.004
59824W        W32139   0.980  26.772  13.477
59825W        W32140  23.051  34.457   4.588
59826W        W32141  38.420  33.363  10.649
59827W        W32142  43.020  21.171  10.927
59828W        W32143  37.594  30.505   2.932
59829W        W32144  17.060  33.643   1.377
59830W        W32145   8.387  28.052   2.447
59831W        W32146   1.493  44.059  11.476
59832W        W32147   1.272  10.541   1.102
59833W        W32148  30.024  33.363   1.022
59834W        W32149   7.754  10.672  13.056
59835W        W32150   0.683  18.198  13.902
59836W        W32151   0.930  16.103  14.962
59837W        W32152  28.569  39.698   0.764
59838W        W32153  14.128  27.912   0.755
59839W        W32154   3.470  23.085   1.624
59840W        W32155  39.325   1.817   1.362
59841W        W32156  25.053   3.842  10.687
59842W        W32157  22.021  29.475   4.552
59843W        W32158   2.176  33.690  13.410
59844W        W32159  22.452  16.549   4.541
59845W        W32160  25.131  24.734   0.387
59846W        W32161  10.495  21.509   3.619
59847W        W32162  41.130  33.644  14.429
59848W        W32163  25.245  25.542   3.168
59849W        W32164  39.506  26.901   9.593
59850W        W32165  29.990  24.163  11.153
59851W        W32166  43.004   4.344  13.859
59852W        W32167  30.579  38.551   2.202
59853W        W32168  34.951  42.489   1.857
59854W        W32169   6.612  10.690   1.994
59855W        W32170   1.855  11.312   5.324
59856W        W32171  26.254  34.576  14.180
59857W        W32172  15.333  40.939  14.627
59858W        W32173  31.622   2.815  13.236
59859W        W32174  26.918   1.927  11.484
59860W        W32175   3.463  39.524  11.080
59861W        W32176  17.042   7.122   3.205
59862W        W32177  28.541   2.649  12.459
59863W        W32178   3.699  42.800  14.064
59864W        W32179  37.950  27.037  10.611
59865W        W32180  29.040   7.261   1.418
59866W        W32181   3.928  39.392   1.199
59867W        W32182  12.073  29.535   1.045
59868W        W32183  23.607   4.509   1.862
59869W        W32184  18.264  13.740   0.875
59870W        W32185   3.990  17.460  14.931
59871W        W32186  16.326  18.218   1.446
59872W        W32187  14.602  29.086   3.978
59873W        W32188  21.709  34.293  14.935
59874W        W32189  42.228   1.278  12.173
59875W        W32190  34.442  13.724  14.753
59876W        W32191  40.715  17.274   3.477
59877W        W32192   3.274   8.415   2.264
59878W        W32193  13.152  15.441  11.100
59879W        W32194  29.912  12.996   3.684
59880W        W32195  37.020   4.667  14.084
59881W        W32196  42.351  36.731  11.434
59882W        W32197   0.700  18.159   4.538
59883W        W32198  21.082  20.204   0.211
59884W        W32199  29.926  14.074   3.414
59885W        W32200  33.316   9.176   0.246
59886W        W32201   7.612  14.109  13.361
59887W        W32202  11.419   5.755   3.764
59888W        W32203  19.991  35.867  14.426
59889W        W32204  35.902   2.753  14.736
59890W        W32205  38.003   3.911   0.336
59891W        W32206  31.346  30.072  12.084
59892W        W32207   9.405  10.133   3.907
59893W        W32208   5.804   5.863   4.729
59894W        W32209  42.820  34.204  14.886
59895W        W32210  24.126  15.869   2.691
59896W        W32211  15.183  13.540   2.053
59897W        W32212   9.773  15.354  10.955
59898W        W32213  29.040   4.430   5.477
59899W        W32214  15.684   7.770   2.161
59900W        W32215   9.407  32.464  14.360
59901W        W32216  23.174   1.238   4.433
59902W        W32217  35.052  28.499  14.464
59903W        W32218  30.508  32.642  12.635
59904W        W32219  28.721   3.830  13.857
59905W        W32220  19.724  19.692   2.817
59906W        W32221  40.947   8.717  10.676
59907W        W32222  44.426   4.095  11.986
59908W        W32223  44.345  14.112  12.473
59909W        W32224  35.858  16.676   1.771
59910W        W32225  39.757   0.481   0.060
59911W        W32226  15.776  15.380   4.152
59912W        W32227  23.488  19.099   5.415
59913W        W32228  25.438   0.786  12.548
59914W        W32229   1.974  20.616   3.836
59915W        W32230   6.943   8.424  14.491
59916W        W32231  41.373  34.282   0.077
59917W        W32232  11.359  30.032  11.932
59918W        W32233  18.777  29.225   2.734
59919W        W32234  24.715  11.556   1.747
59920W        W32235  39.302  22.074  14.497
59921W        W32236  28.567  37.273  14.973
59922W        W32237  20.259  36.413   4.218
59923W        W32238  37.429   3.273   1.803
59924W        W32239  27.220  32.692  10.907
59925W        W32240  35.881  26.490   2.339
59926W        W32241  10.783  42.964  11.697
59927W        W32242  39.992   1.488   2.713
59928W        W32243   6.180   8.918   3.790
59929W        W32244  24.540   7.114  11.603
59930W        W32245  14.274  39.337   4.588
59931W        W32246   9.354  42.593   1.253
59932W        W32247   7.112  23.679  12.107
59933W        W32248   2.324  42.015   3.634
59934W        W32249   8.401  33.182  11.512
59935W        W32250  41.728  15.889   4.815
59936W        W32251  44.299   5.974   2.374
59937W        W32252  22.208  24.482   3.287
59938W        W32253  22.252   5.333  14.221
59939W        W32254  37.053  32.186   1.638
59940W        W32255  41.520  33.912  12.886
59941W        W32256  30.942  27.003   3.925
59942W        W32257  33.161   8.088   4.214
59943W        W32258   4.930   2.713   0.074
59944W        W32259   0.320  12.355   0.820
59945W        W32260   0.274  35.744   5.410
59946W        W32261   1.038  43.800  11.391
59947W        W32262  12.885  44.215  10.640
59948W        W32263  36.803  16.839  11.117
59949W        W32264   3.937  19.136   4.355
59950W        W32265  23.714   9.266  13.842
59951W        W32266  37.354   9.833   2.947
59952W        W32267  41.926   6.209   2.269
59953W        W32268   3.326  36.849  12.919
59954W        W32269  35.408  43.377  13.771
59955W        W32270  13.394  36.554   2.877
59956W        W32271  14.645  27.234  11.137
59957W        W32272  32.146   2.423   0.506
59958W        W32273  40.518   0.943  13.578
59959W        W32274  38.263   8.894   3.174
59960W        W32275  18.119  14.847   1.400
59961W        W32276  18.307  16.574   4.007
59962W        W32277  12.161  14.496  13.945
59963W        W32278   1.688  14.508  13.912
59964W        W32279  20.678  44.058  11.402
59965W        W32280  24.939  33.414   1.585
59966W        W32281   1.874  19.521   0.277
59967W        W32282   5.113  29.400   0.853
59968W        W32283  44.454  32.904  11.588
59969W        W32284  18.053   6.357  11.988
59970W        W32285   6.660   6.736  12.019
59971W        W32286  34.538  39.999  13.753
59972W        W32287   6.324   7.132   3.401
59973W        W32288  43.291  22.177  10.267
59974W        W32289  27.919  38.568   0.438
59975W        W32290  43.527  15.509   2.109
59976W        W32291  17.078  29.578   0.287
59977W        W32292  16.211  26.912  10.506
59978W        W32293  33.471  25.779   0.780
59979W        W32294  10.822  28.210   4.183
59980W        W32295  28.912   6.235  12.005
59981W        W32296   3.167  16.132  13.350
59982W        W32297   6.941  37.752   4.225
59983W        W32298  30.674  22.170   1.658
59984W        W32299   5.275  10.608   4.279
59985W        W32300  12.062  25.643  10.743
59986W        W32301  19.239  28.101   1.611
59987W        W32302  33.766  38.489   0.908
59988W        W32303  28.672  33.389  12.005
59989W        W32304  32.883  23.512  13.889
59990W        W32305  13.138  17.292  10.683
59991W        W32306  12.132  22.969  14.743
59992W        W32307   1.996  15.373   1.832
59993W        W32308  28.206  20.310   4.876
59994W        W32309  31.467   3.271   1.741
59995W        W32310   0.255  24.461  10.674
59996W        W32311  30.720   7.165   0.336
59997W        W32312  17.870  37.843   9.911
59998W        W32313  16.149  15.599   4.463
59999W        W32314   3.427   4.911  14.855
60000W        W32315  26.459  21.245   2.789
60001W        W32316   3.689  23.410   0.331
60002W        W32317  19.036  11.697  13.312
60003W        W32318  26.210   3.938   2.277
60004W        W32319  40.577  25.134  12.777
60005W        W32320  38.004  24.713   2.697
60006W        W32321  24.446  39.859   1.164
60007W        W32322   8.904   7.293   3.649
60008W        W32323   2.765   6.689   0.605
60009W        W32324   5.887  10.821   2.956
60010W        W32325  36.975   7.377   1.735
60011W        W32326  37.330  16.089   1.872
60012W        W32327   8.968  19.296  12.948
60013W        W32328  39.388  37.565  12.944
60014W        W32329  22.550  14.331  14.949
60015W        W32330  40.891   3.735   4.684
60016W        W32331   2.699  13.883   2.262
60017W        W32332  35.513  39.961  12.379
60018W        W32333  10.700   4.776   0.134
60019W        W32334  14.656   4.426   3.321
60020W        W32335  41.240  12.302   3.338
60021W        W32336   6.689  32.136  10.159
60022W        W32337   9.408  28.897  11.271
60023W        W32338  37.501  22.313   3.407
60024W        W32339   7.266  10.847  11.072
60025W        W32340  39.007  32.073   0.006
60026W        W32341  25.021   8.439  11.399
60027W        W32342   9.704  29.423  11.974
60028W        W32343  17.037  30.582   9.862
60029W        W32344  19.573  18.775  11.582
60030W        W32345  17.925   2.038  12.043
60031W        W32346   9.404   1.289   3.720
60032W        W32347  18.544  27.257  10.746
60033W        W32348  13.313   2.807   3.577
60034W        W32349   2.072  32.999  12.863
60035W        W32350  10.757  38.800   1.292
60036W        W32351  32.442  43.769  10.672
60037W        W32352  29.768  30.536   2.357
60038W        W32353   7.784  15.187   3.159
60039W        W32354  30.367   7.250   3.236
60040W        W32355  18.590  40.240   2.186
60041W        W32356  33.160  13.208   1.599
60042W        W32357  44.422   0.283  10.732
60043W        W32358  42.614  44.830   4.117
60044W        W32359   8.414  15.178  13.749
60045W        W32360   7.190  21.615  13.948
60046W        W32361   0.521  33.338  11.847
60047W        W32362  44.779   1.231   2.323
60048W        W32363  18.907  39.244  12.523
60049W        W32364  19.879  12.317  12.828
60050W        W32365  33.392  32.637  12.977
60051W        W32366  33.998  23.176   1.090
60052W        W32367  44.963  41.036   1.792
60053W        W32368  28.054  24.953   1.720
60054W        W32369  37.928  24.510   3.614
60055W        W32370  30.476  20.433   2.767
60056W        W32371  15.132  37.471  11.698
60057W        W32372  21.258  27.128   2.726
60058W        W32373  21.950  14.218  14.300
60059W        W32374  29.543  16.482  10.755
60060W        W32375  35.113   2.344   1.169
60061W        W32376  32.595  34.855   0.253
60062W        W32377  21.564   5.742   4.860
60063W        W32378  16.834  39.976   1.846
60064W        W32379   8.844   1.398   0.204
60065W        W32380  40.867   1.754  10.538
60066W        W32381  22.188   9.337   2.793
60067W        W32382  26.974  34.003  12.361
60068W        W32383  42.860  41.447  13.845
60069W        W32384   6.148  30.639  13.839
60070W        W32385  36.908  31.228   2.737
60071W        W32386  10.352   8.608   5.015
60072W        W32387  19.357  21.432  11.167
60073W        W32388   6.262  43.382  11.175
60074W        W32389  27.337   7.336  11.446
60075W        W32390  31.165   7.198  10.558
60076W        W32391   4.475   7.568  13.625
60077W        W32392  41.635   8.883   3.755
60078W        W32393  21.071   0.232  13.398
60079W        W32394  25.231  16.027   0.435
60080W        W32395  38.877  22.569   2.158
60081W        W32396  23.564  28.086   2.260
60082W        W32397  23.008  17.689   0.357
60083W        W32398  37.721  19.587   0.277
60084W        W32399  41.434  12.194   0.057
60085W        W32400  43.047   3.366   1.893
60086W        W32401  18.806  22.258  14.017
60087W        W32402   1.635  22.580  10.731
60088W        W32403  42.948  13.072   3.650
60089W        W32404  37.286   4.871   0.741
60090W        W32405  43.768  12.396  13.435
60091W        W32406  23.281  14.261   2.077
60092W        W32407  13.688  29.670   2.876
60093W        W32408  32.610   6.526  11.003
60094W        W32409   1.741  10.596   4.580
60095W        W32410  11.240  39.710   3.323
60096W        W32411  34.049   4.286   1.439
60097W        W32412  28.112  34.087  11.416
60098W        W32413  25.068  28.553   4.425
60099W        W32414  43.381  24.749  14.254
60100W        W32415  28.540  39.771   3.860
60101W        W32416   2.073  15.979   3.122
60102W        W32417   0.302  31.820   3.547
60103W        W32418  22.089  25.536   3.120
60104W        W32419  19.219  13.210  11.164
60105W        W32420  40.286   2.311  12.308
60106W        W32421  31.900  38.060  11.198
60107W        W32422  20.497  30.688   0.722
60108W        W32423  26.647  13.574  13.716
60109W        W32424  16.137  30.067   2.357
60110W        W32425  37.740  23.623  14.878
60111W        W32426  38.060   4.946  14.725
60112W        W32427  35.540  20.347  10.699
60113W        W32428  24.049  24.167  11.615
60114W        W32429  28.224  26.001   3.735
60115W        W32430  22.936  17.483  12.023
60116W        W32431  40.745  23.492   4.687
60117W        W32432  25.161  26.656  11.054
60118W        W32433  41.160   2.172  13.425
60119W        W32434  11.463   6.051   1.852
60120W        W32435  17.340  32.016  12.755
60121W        W32436  11.273  22.338  13.901
60122W        W32437  18.153  44.924   1.863
60123W        W32438  23.527  28.504  12.062
60124W        W32439   2.846   3.943  13.504
60125W        W32440   6.717  11.094  14.792
60126W        W32441  40.418   2.822   3.175
60127W        W32442  26.478   4.342  13.671
60128W        W32443   7.822  12.661   2.712
60129W        W32444   6.226  15.464  11.708
60130W        W32445   7.658  31.064   3.283
60131W        W32446  10.639  42.607   3.395
60132W        W32447   2.017   1.996  10.752
60133W        W32448  37.167  39.307  14.410
60134W        W32449  41.888   2.729   3.752
60135W        W32450  33.930  30.557   3.129
60136W        W32451  19.084  19.898  14.290
60137W        W32452  25.713   9.924  12.869
60138W        W32453  15.224   4.713   0.370
60139W        W32454   2.973  35.287   2.004
60140W        W32455  30.625  16.787  14.279
60141W        W32456  33.125  19.106  14.404
60142W        W32457  14.575  27.620   0.829
60143W        W32458   9.225  26.503   0.917
60144W        W32459  27.915  43.546   0.889
60145W        W32460   2.875  24.288   1.438
60146W        W32461   3.792   1.104  10.358
60147W        W32462   8.607  38.396  12.667
60148W        W32463  19.812  11.547  14.599
60149W        W32464   6.512  34.571  12.021
60150W        W32465  41.956  29.037  13.904
60151W        W32466  33.426  34.140   0.950
60152W        W32467  29.209  35.971   0.947
60153W        W32468  26.942  36.482   4.788
60154W        W32469   9.907  17.650  11.623
60155W        W32470  15.545  34.998   4.533
60156W        W32471  34.454  21.782   0.271
60157W        W32472  20.719  30.271   4.123
60158W        W32473  18.086  20.947  10.587
60159W        W32474  24.991   6.890  11.546
60160W        W32475  30.495   0.225  12.923
60161W        W32476  25.664  29.951   2.011
60162W        W32477  42.315  35.095  10.650
60163W        W32478  19.700  37.652  14.764
60164W        W32479  12.563   8.274   1.800
60165W        W32480  15.054  33.107  13.510
60166W        W32481  17.839  29.629   0.024
60167W        W32482  20.358  31.954  11.201
60168W        W32483  18.173  10.808  11.636
60169W        W32484   8.138  28.869   1.839
60170W        W32485   2.847   0.182  13.835
60171W        W32486  29.879  15.681  10.691
60172W        W32487  38.542  34.043  11.155
60173W        W32488  13.332   2.632  11.401
60174W        W32489   6.181  28.864   1.849
60175W        W32490  40.443  26.975   4.057
60176W        W32491  11.723   7.654   2.746
60177W        W32492   7.320  10.564   1.290
60178W        W32493  23.328   2.300  13.098
60179W        W32494  19.221   8.145   1.795
60180W        W32495  40.020  17.341   4.236
60181W        W32496  26.961   7.153   1.756
60182W        W32497  15.744   8.497   0.372
60183W        W32498  31.664  17.264  11.561
60184W        W32499  23.741  17.184   2.776
60185W        W32500  34.517   5.715   4.581
60186W        W32501   5.470  21.621   0.863
60187W        W32502  37.090  22.708  13.439
60188W        W32503  26.071  24.612   3.715
60189W        W32504   0.615   9.765   5.124
60190W        W32505  28.510  13.412   3.164
60191W        W32506   8.695  44.126  12.370
60192W        W32507   2.271  11.641  10.064
60193W        W32508   6.001  40.527   0.006
60194W        W32509   4.218  20.183  14.946
60195W        W32510  18.656   8.193  13.219
60196W        W32511  44.892  14.870   2.016
60197W        W32512  24.202  24.463   3.579
60198W        W32513  30.260  26.468   4.093
60199W        W32514  34.007  20.468  13.032
60200W        W32515  36.693  11.665  10.843
60201W        W32516   4.199  11.206   1.817
60202W        W32517  10.147  13.864   1.827
60203W        W32518  17.944  18.642  14.332
60204W        W32519   4.948  24.605   4.639
60205W        W32520   6.385   5.336   1.267
60206W        W32521  10.397  36.033  12.504
60207W        W32522   2.728   8.390   2.250
60208W        W32523   4.720  32.570   2.219
60209W        W32524   2.160  15.732   1.226
60210W        W32525  43.961  30.069   3.606
60211W        W32526  17.643   3.682  11.391
60212W        W32527  17.591  30.868  10.412
60213W        W32528  32.546   6.898   1.819
60214W        W32529   5.290   6.234  10.392
60215W        W32530  26.627  28.199  12.531
60216W        W32531  39.232   0.246   4.145
60217W        W32532  24.231  25.747  13.897
60218W        W32533  15.110  33.058  12.954
60219W        W32534  16.727  34.091   4.397
60220W        W32535  33.950   7.295  13.813
60221W        W32536  29.722   1.716  14.453
60222W        W32537  43.712  23.462  14.226
60223W        W32538  38.694   1.391   4.585
60224W        W32539  11.645  42.288  13.835
60225W        W32540  31.469  32.574  14.475
60226W        W32541   1.922  20.902   1.700
60227W        W32542   9.721  43.907  12.964
60228W        W32543  36.276  38.314   2.396
60229W        W32544  19.011  35.639   3.703
60230W        W32545   9.108  22.796   3.847
60231W        W32546  11.148   9.563   3.166
60232W        W32547  28.388  26.150   1.495
60233W        W32548   6.315  13.407  12.588
60234W        W32549  27.961  36.877   2.795
60235W        W32550  42.714   4.378  10.760
60236W        W32551   8.927  17.064  14.311
60237W        W32552  14.336  19.539  14.912
60238W        W32553   9.057  21.392   4.258
60239W        W32554  23.646  14.624   1.927
60240W        W32555  39.155  34.405   5.008
60241W        W32556  29.514  37.745  10.948
60242W        W32557  43.678   5.427   0.776
60243W        W32558  20.174  10.907   2.700
60244W        W32559  17.726  30.736   5.550
60245W        W32560  20.188   5.771  12.858
60246W        W32561  41.763   3.954   3.125
60247W        W32562  18.557  25.573   4.054
60248W        W32563  22.133   0.507  14.375
60249W        W32564  26.092  14.833  12.545
60250W        W32565  35.459   9.925  11.161
60251W        W32566  23.514  42.916   2.398
60252W        W32567  40.410  18.169   2.387
60253W        W32568  14.759  41.005  13.985
60254W        W32569   1.792  32.109   0.670
60255W        W32570  10.826  39.162  13.057
60256W        W32571  14.036  42.868  11.444
60257W        W32572  25.968  27.038   0.308
60258W        W32573  17.198  10.355  14.469
60259W        W32574  36.915   4.915  10.658
60260W        W32575   9.004  20.982  12.544
60261W        W32576  31.595  23.519  13.356
60262W        W32577   7.944  13.749  14.504
60263W        W32578  20.208   9.684   0.765
60264W        W32579  30.654  21.083   4.697
60265W        W32580  28.321  13.828   1.151
60266W        W32581  37.619  13.226  12.635
60267W        W32582  44.893  44.427  14.851
60268W        W32583  35.727  10.548   1.275
60269W        W32584  32.951  24.122   0.411
60270W        W32585  32.399  10.333  13.553
60271W        W32586  19.700  38.026   4.677
60272W        W32587   6.755   8.571   1.194
60273W        W32588   4.526  20.126  12.533
60274W        W32589  23.972   2.088   4.158
60275W        W32590  28.479  14.570   0.743
60276W        W32591   7.705   1.136   5.014
60277W        W32592  15.097  32.147  12.971
60278W        W32593  34.011  44.258  13.604
60279W        W32594  38.639  21.023  11.114
60280W        W32595  43.478  25.273   1.806
60281W        W32596  39.913  25.619   9.699
60282W        W32597  36.054  12.749   3.414
60283W        W32598   6.379  14.735   0.026
60284W        W32599   9.624   4.784   1.873
60285W        W32600  43.893  43.044   0.403
60286W        W32601  33.451  43.464  10.574
60287W        W32602  11.427  32.583   1.717
60288W        W32603   6.276  39.450   4.734
60289W        W32604   8.145  34.147   0.978
60290W        W32605  26.332   6.250  11.917
60291W        W32606  40.726  15.576  11.668
60292W        W32607  21.286  31.082  13.425
60293W        W32608  36.523   6.892   3.193
60294W        W32609  33.582  12.668  12.074
60295W        W32610  20.186   6.736  13.955
60296W        W32611  28.584   8.458   4.200
60297W        W32612  25.849  17.178   4.665
60298W        W32613  27.457  40.463   1.960
60299W        W32614  12.805  26.986  13.805
60300W        W32615   9.371  13.055  12.957
60301W        W32616  36.116  17.429  14.799
60302W        W32617  43.720  34.714  14.781
60303W        W32618  22.084  12.648   1.800
60304W        W32619  23.425  36.164  12.670
60305W        W32620  20.213  15.220   1.331
60306W        W32621  39.668  23.028  14.163
60307W        W32622  20.209  12.565   0.726
60308W        W32623   7.298  28.127  12.444
60309W        W32624   6.856  22.119  11.711
60310W        W32625  23.296   4.962  13.903
60311W        W32626  38.062  35.580  10.704
60312W        W32627  36.846  16.112   2.393
60313W        W32628  31.539  26.972  13.945
60314W        W32629  33.963  24.606  13.130
60315W        W32630  26.968  38.135   0.349
60316W        W32631  17.653  15.741  11.485
60317W        W32632  27.023   0.602   4.211
60318W        W32633  33.278  21.662   0.801
60319W        W32634  18.070  37.832   3.212
60320W        W32635  17.220  32.633  11.494
60321W        W32636  25.084  21.775   3.119
60322W        W32637  13.579  19.810  13.040
60323W        W32638  22.223  11.004  13.557
60324W        W32639  22.573  36.942  14.962
60325W        W32640  17.290  36.522   0.492
60326W        W32641  43.103  27.399   4.576
60327W        W32642  19.389   3.461   0.766
60328W        W32643  33.501  26.549  10.924
60329W        W32644  34.594   3.344   1.770
60330W        W32645  39.604   7.418  11.539
60331W        W32646   7.803  37.872   2.887
60332W        W32647  37.249  31.397   2.335
60333W        W32648  20.205   8.446   1.791
60334W        W32649  33.421  19.824   5.151
60335W        W32650  13.764  16.353  14.807
60336W        W32651  32.414  26.922  11.999
60337W        W32652  16.604   5.832   2.337
60338W        W32653  42.499   3.858   2.913
60339W        W32654   0.099   9.788   5.017
60340W        W32655   2.181  26.671  12.405
60341W        W32656   1.438  44.975   4.345
60342W        W32657  29.876  10.947   2.263
60343W        W32658  29.750   3.668  11.101
60344W        W32659  10.255  25.091   1.319
60345W        W32660  38.369  18.137   1.224
60346W        W32661  17.085   2.433  11.816
60347W        W32662  39.234  12.283   0.365
60348W        W32663  11.465  36.937  12.377
60349W        W32664  41.656  33.648   1.452
60350W        W32665  13.565   8.229  10.652
60351W        W32666   0.854   1.678   5.167
60352W        W32667   4.968  16.713   5.183
60353W        W32668  42.524   8.278  11.515
60354W        W32669  12.730  16.040   1.323
60355W        W32670  39.431  41.017   0.485
60356W        W32671   5.413  34.658   0.260
60357W        W32672  39.356  16.375   3.753
60358W        W32673  18.840  29.464   1.824
60359W        W32674  43.401  25.546   0.047
60360W        W32675  44.336  44.828  12.920
60361W        W32676  25.297   6.324   1.248
60362W        W32677  11.400  43.533  14.936
60363W        W32678  41.865  39.236  12.974
60364W        W32679  40.828  34.461   1.836
60365W        W32680  10.157  17.991   1.278
60366W        W32681  21.228  13.334  12.478
60367W        W32682  28.471  23.680  10.907
60368W        W32683   7.620  16.051   2.716
60369W        W32684   5.187  24.086   3.150
60370W        W32685  28.456  42.444   1.366
60371W        W32686  30.230  30.413   2.537
60372W        W32687  31.048  20.687   2.404
60373W        W32688  13.190  11.424  13.633
60374W        W32689  11.299  34.860   0.597
60375W        W32690  32.630  22.658  14.004
60376W        W32691  31.905  18.175  12.055
60377W        W32692  26.130  36.366   0.255
60378W        W32693   2.703  19.628  13.328
60379W        W32694  37.681  36.597  12.193
60380W        W32695   8.871  22.101  10.868
60381W        W32696  20.391   8.339  11.477
60382W        W32697   4.848   7.886   4.579
60383W        W32698  12.674  15.321   2.950
60384W        W32699  43.987  16.550  10.664
60385W        W32700   0.535  42.681  11.158
60386W        W32701  24.723  31.735  10.680
60387W        W32702  12.236   7.429  13.341
60388W        W32703   9.716  10.160   1.162
60389W        W32704  24.928  24.599  10.251
60390W        W32705   6.429  39.149   2.028
60391W        W32706   5.046  22.700   1.754
60392W        W32707  37.477  34.522  14.950
60393W        W32708  33.418  26.353   2.887
60394W        W32709  37.859  31.655  11.007
60395W        W32710  17.414   4.268  12.963
60396W        W32711  30.129  37.313   1.248
60397W        W32712  33.410  19.425  13.450
60398W        W32713  20.534  15.373  13.051
60399W        W32714  44.909   0.417  10.598
60400W        W32715  22.688  24.480  12.491
60401W        W32716  28.103  41.584  12.519
60402W        W32717  26.052  28.283   3.328
60403W        W32718  44.524  16.673   3.336
60404W        W32719  20.606  30.025  12.142
60405W        W32720   3.708  30.078   0.011
60406W        W32721  37.332  37.987  12.079
60407W        W32722  33.795  27.508   3.387
60408W        W32723  32.192  15.629   4.622
60409W        W32724  38.936   1.033   4.295
60410W        W32725  26.109  11.090   2.778
60411W        W32726  25.573  20.809  10.970
60412W        W32727  25.533  22.643   4.622
60413W        W32728  40.334  13.833   2.072
60414W        W32729  41.472  27.404  13.963
60415W        W32730  44.333  39.710   4.253
60416W        W32731  22.072   6.092  13.000
60417W        W32732  36.400  31.906  10.313
60418W        W32733  15.766  40.216   2.329
60419W        W32734  11.646  39.803   1.388
60420W        W32735  41.935   6.800  14.107
60421W        W32736  35.443  37.418   2.561
60422W        W32737  21.881  33.638   1.913
60423W        W32738  21.584  22.968   4.709
60424W        W32739  35.510  15.724   1.864
60425W        W32740  22.932  12.169   0.527
60426W        W32741   3.571  35.195   0.811
60427W        W32742  28.463  42.818   4.259
60428W        W32743  14.986  30.861  10.753
60429W        W32744   6.593  15.598  14.846
60430W        W32745   6.385  13.333  13.895
60431W        W32746  22.634  19.430   4.130
60432W        W32747  17.093  43.944   4.329
60433W        W32748  22.528  29.935  12.590
60434W        W32749  33.874  25.544   2.409
60435W        W32750  16.759  23.627   2.722
60436W        W32751  25.220  26.381   4.959
60437W        W32752  27.382  16.605   3.518
60438W        W32753  16.151  14.840  10.646
60439W        W32754  27.914  27.940  11.600
60440W        W32755   0.724  32.887  14.920
60441W        W32756   9.285   0.012   1.321
60442W        W32757  38.058  14.157  14.529
60443W        W32758  41.954  13.190  13.015
60444W        W32759  31.430  43.843  11.460
60445W        W32760  15.727   7.576  11.526
60446W        W32761  18.276   6.203   4.464
60447W        W32762  24.065  19.726   0.928
60448W        W32763  28.461   9.463   4.175
60449W        W32764   3.845   9.786   1.198
60450W        W32765  11.287  41.116   1.296
60451W        W32766  33.590  16.317   1.840
60452W        W32767  20.094  24.878   4.482
60453W        W32768   7.942  36.813  10.303
60454W        W32769  31.077  10.893  14.020
60455W        W32770  14.336  30.412  13.907
60456W        W32771   3.796  31.189  12.888
60457W        W32772  25.094  36.564   1.977
60458W        W32773   6.250  31.495   2.690
60459W        W32774  22.724   2.908  10.726
60460W        W32775  22.721   6.954   4.192
60461W        W32776  32.832  27.626  11.555
60462W        W32777  43.503  22.048   4.728
60463W        W32778  43.256  18.603  13.938
60464W        W32779   4.273  35.795  11.080
60465W        W32780   5.221  41.988  13.543
60466W        W32781  32.498  34.005   3.140
60467W        W32782  38.446  19.892   1.238
60468W        W32783  30.044  40.635   2.827
60469W        W32784  19.486  24.708   2.715
60470W        W32785  18.519  35.433  12.589
60471W        W32786  35.211  26.994  11.637
60472W        W32787  43.946  41.941   2.695
60473W        W32788  11.849  41.427  11.224
60474W        W32789  14.237  39.263  13.896
60475W        W32790  28.478   0.222   1.243
60476W        W32791  33.396  23.046  14.718
60477W        W32792  34.918  11.904   0.304
60478W        W32793  32.082  30.396   4.436
60479W        W32794  44.770  36.532   3.178
60480W        W32795  16.576  29.534   1.723
60481W        W32796  25.139  37.592  11.344
60482W        W32797  28.259   8.214  14.447
60483W        W32798  32.419   3.197   0.416
60484W        W32799  36.997  30.038   0.771
60485W        W32800  20.072  41.326  12.054
60486W        W32801  14.172  36.396   2.336
60487W        W32802   6.099  27.044  14.812
60488W        W32803  14.338  31.091  13.159
60489W        W32804  33.764  11.485  12.863
60490W        W32805  31.164  26.194   3.367
60491W        W32806  35.865  22.132   2.884
60492W        W32807  24.470  15.696   3.161
60493W        W32808   4.669  40.742  11.993
60494W        W32809  41.216  17.661  13.284
60495W        W32810   5.521  26.226   1.659
60496W        W32811   2.743  31.645  10.913
60497W        W32812   4.514  20.960   1.309
60498W        W32813  11.558  35.845   0.352
60499W        W32814   3.338  40.590  12.203
60500W        W32815  20.346  34.703  11.437
60501W        W32816  21.559  15.984   0.932
60502W        W32817   9.248   0.799   3.665
60503W        W32818  29.541  15.851   2.187
60504W        W32819  28.558   2.861  14.347
60505W        W32820   4.835  23.690   0.809
60506W        W32821  14.531   0.999  14.917
60507W        W32822  33.927  37.443   2.666
60508W        W32823  13.563   0.790  13.166
60509W        W32824  43.745  24.527  11.263
60510W        W32825  32.991   3.023  13.507
60511W        W32826   9.173  21.097   0.188
60512W        W32827  34.877  24.006  10.400
60513W        W32828  20.246  27.137  12.096
60514W        W32829  39.570   2.217   4.310
60515W        W32830  42.787  41.487   0.923
60516W        W32831  26.936  41.264  14.270
60517W        W32832   4.312  27.085  11.403
60518W        W32833  35.092  15.243   3.201
60519W        W32834  34.666  37.996  14.089
60520W        W32835  44.625  32.404  13.021
60521W        W32836  31.032  43.284  10.185
60522W        W32837  13.616  19.242   4.784
60523W        W32838   5.508   2.673  13.086
60524W        W32839  15.314  13.753  11.877
60525W        W32840  12.854  29.347  12.277
60526W        W32841  16.858  23.844  14.254
60527W        W32842  22.101  21.343  14.954
60528W        W32843  32.476   3.427  14.945
60529W        W32844  16.114  39.412   0.403
60530W        W32845   8.413   2.228   0.184
60531W        W32846  40.057  11.339  10.740
60532W        W32847  18.587  36.799  10.708
60533W        W32848   7.211  23.182  11.199
60534W        W32849  15.463   6.396  12.260
60535W        W32850  35.592  36.730  11.115
60536W        W32851  13.076   5.824   0.703
60537W        W32852  37.302   3.747   1.907
60538W        W32853  19.625  32.418  13.399
60539W        W32854  17.493  35.804   2.648
60540W        W32855   7.012  27.408   1.827
60541W        W32856   7.766   9.573  12.169
60542W        W32857  13.353  13.555  13.029
60543W        W32858  44.094  21.439   9.937
60544W        W32859   9.431  38.463  14.945
60545W        W32860  37.057   6.640  12.519
60546W        W32861  22.281  38.486  14.449
60547W        W32862  15.117  15.832   2.344
60548W        W32863   5.189  21.510  12.539
60549W        W32864   3.901  35.867  10.715
60550W        W32865   1.698  16.302  12.234
60551W        W32866   2.852  39.071   1.754
60552W        W32867  17.553  42.227  14.737
60553W        W32868  35.641   2.000  13.161
60554W        W32869  23.049   7.647   2.853
60555W        W32870  20.065   5.945   2.237
60556W        W32871  34.388  20.203   3.390
60557W        W32872  39.753   2.295  11.117
60558W        W32873   5.101  37.234   3.322
60559W        W32874  17.288  43.842   1.808
60560W        W32875   9.816  29.602  12.436
60561W        W32876  39.064  22.731   4.050
60562W        W32877   7.659   6.235  11.794
60563W        W32878   7.809  34.978  14.303
60564W        W32879   0.745  17.010  12.169
60565W        W32880  33.102  26.545   0.057
60566W        W32881  24.754  37.934   1.506
60567W        W32882  19.219   8.407  13.838
60568W        W32883  39.216  10.138   9.743
60569W        W32884  39.261  29.195  13.661
60570W        W32885  24.071  35.540   2.493
60571W        W32886  27.879  32.409  14.849
60572W        W32887   4.428  35.335   0.578
60573W        W32888   0.983  21.111  13.722
60574W        W32889   6.619   1.797   4.671
60575W        W32890   2.911  41.975  10.654
60576W        W32891  18.229  23.503   1.332
60577W        W32892   5.012   2.667  14.554
60578W        W32893  38.839  43.706  13.947
60579W        W32894   0.732   8.431   2.212
60580W        W32895   7.149  16.780   2.209
60581W        W32896  38.852  32.332  14.032
60582W        W32897  12.144  37.827  12.890
60583W        W32898  44.897   6.478   1.830
60584W        W32899  40.387  31.915   3.768
60585W        W32900  10.761  18.501   0.467
60586W        W32901  39.682  20.621   1.921
60587W        W32902   2.940  21.120  10.575
60588W        W32903  35.036  42.577  12.010
60589W        W32904   6.174  19.256  14.709
60590W        W32905  40.423  17.982   4.055
60591W        W32906   0.229  23.279   0.207
60592W        W32907  11.696  14.980   1.435
60593W        W32908  18.572  21.286   3.356
60594W        W32909   0.451  40.153  11.222
60595W        W32910  39.352   3.742   2.343
60596W        W32911  27.110  36.468  13.440
60597W        W32912  10.365   5.100   2.422
60598W        W32913  33.515  17.768   2.378
60599W        W32914   7.166  11.101  14.516
60600W        W32915  34.010  15.231   2.461
60601W        W32916  30.234  32.080   3.241
60602W        W32917   8.406  23.289   3.322
60603W        W32918  15.669  31.745  12.160
60604W        W32919  11.259  14.131   3.191
60605W        W32920   8.699   7.357   1.420
60606W        W32921  40.330  23.447   4.361
60607W        W32922  12.412  17.689  10.501
60608W        W32923  18.237  28.520   0.691
60609W        W32924  42.302  32.409  14.281
60610W        W32925  41.538  44.536  12.407
60611W        W32926  26.611  15.582  14.287
60612W        W32927  32.055  25.751   3.356
60613W        W32928   0.934  30.797  13.957
60614W        W32929  13.323  43.506   3.790
60615W        W32930   8.670   9.803   2.404
60616W        W32931   3.397  39.782  14.928
60617W        W32932   6.053   2.943   4.432
60618W        W32933  21.312  10.567  13.928
60619W        W32934  35.313   6.545  13.139
60620W        W32935  39.090  20.677  11.403
60621W        W32936  17.088  14.146   5.055
60622W        W32937  34.544   3.814   3.951
60623W        W32938  26.180  18.728  14.350
60624W        W32939  43.072  38.797   2.375
60625W        W32940  44.051   4.117  11.199
60626W        W32941   8.423  20.640   1.166
60627W        W32942   6.609  14.316  13.370
60628W        W32943  30.822  27.699   4.210
60629W        W32944  41.895  16.841  11.857
60630W        W32945  30.175  31.835  10.970
60631W        W32946   0.394  31.979  11.938
60632W        W32947  34.884  43.273   1.263
60633W        W32948  15.576  20.517  14.914
60634W        W32949  44.271   4.804   2.863
60635W        W32950  41.357  29.722  12.504
60636W        W32951  16.317   2.442   2.393
60637W        W32952  41.045  12.674  13.023
60638W        W32953  31.524  23.967  13.598
60639W        W32954  11.370   8.149   1.336
60640W        W32955  23.141   2.143   1.880
60641W        W32956  25.731   6.411   4.639
60642W        W32957   4.968  31.111  14.895
60643W        W32958  37.854  41.742   4.244
60644W        W32959  20.628  29.437  10.711
60645W        W32960   7.481  11.834   4.066
60646W        W32961  30.940   5.362  13.506
60647W        W32962  35.378  18.165  12.112
60648W        W32963  18.868  29.832  11.532
60649W        W32964   4.290  32.599  14.905
60650W        W32965  31.653  19.645   4.534
60651W        W32966   8.485  18.849  11.116
60652W        W32967  27.929  20.712  11.079
60653W        W32968   0.562  21.328  10.434
60654W        W32969  31.186  38.720   3.659
60655W        W32970  30.770  22.411  12.227
60656W        W32971  28.983  35.094   0.354
60657W        W32972   1.195  15.659  11.637
60658W        W32973  25.505  34.463  11.511
60659W        W32974  36.386  11.198   3.066
60660W        W32975  41.911  25.655  11.685
60661W        W32976  36.100  27.519  14.796
60662W        W32977  16.663   6.958  12.777
60663W        W32978  15.274  22.395  11.067
60664W        W32979  17.415  14.134   0.341
60665W        W32980  44.045  17.587  11.191
60666W        W32981  17.593   4.978   2.780
60667W        W32982   5.431  21.138   0.267
60668W        W32983   1.529   6.264   2.268
60669W        W32984  12.127  13.082  11.212
60670W        W32985  16.781  29.007   4.369
60671W        W32986   6.714  13.331  11.597
60672W        W32987   6.794  42.298  13.015
60673W        W32988  38.020   7.866   0.820
60674W        W32989   5.486  24.158   2.687
60675W        W32990   6.133  14.115  11.794
60676W        W32991   6.196   1.383  14.871
60677W        W32992  19.799  10.837  14.998
60678W        W32993  34.187   3.649   0.216
60679W        W32994  26.570  13.900   1.390
60680W        W32995  23.649   3.199   2.355
60681W        W32996  14.842  35.974   2.914
60682W        W32997  22.460  27.568  10.967
60683W        W32998  18.915   6.450  11.251
60684W        W32999  14.770  30.066  12.781
60685W        W33000  11.264  12.613  12.866
60686W        W33001  24.695  41.724  14.544
60687W        W33002  19.174  31.350   1.298
60688W        W33003   1.485  36.125   4.527
60689W        W33004   8.627  23.524   4.004
60690W        W33005  29.197  33.461  11.973
60691W        W33006   6.305  34.410   0.859
60692W        W33007  15.236   0.390  12.640
60693W        W33008  19.023  18.801   4.126
60694W        W33009  33.715  21.127  14.046
60695W        W33010   7.819  43.521   2.151
60696W        W33011  42.517  17.099   3.666
60697W        W33012  12.387  12.347   3.648
60698W        W33013   4.663  26.208   1.463
60699W        W33014  21.564   0.016   3.249
60700W        W33015  35.931  37.499   0.335
60701W        W33016  34.638  43.446   0.236
60702W        W33017  39.530  32.823   4.131
60703W        W33018  38.890  14.882  10.723
60704W        W33019  37.294   4.690  10.357
60705W        W33020  33.428  41.070  13.835
60706W        W33021  36.474  39.261   0.749
60707W        W33022  17.787  13.151  13.817
60708W        W33023   4.886   7.305  14.709
60709W        W33024  12.825  20.607   4.579
60710W        W33025  13.549  36.476  11.929
60711W        W33026  30.312  19.725  12.843
60712W        W33027  42.252   0.177   0.325
60713W        W33028  14.683  11.905   1.496
60714W        W33029  10.465  28.819  12.605
60715W        W33030  15.334  33.584   4.188
60716W        W33031   7.770   4.716   1.718
60717W        W33032  27.151  23.262   1.207
60718W        W33033   0.481  35.138   2.527
60719W        W33034  33.600  24.247  11.577
60720W        W33035  40.836  32.099  13.328
60721W        W33036  10.432  32.137  12.383
60722W        W33037  15.568  18.694  10.996
60723W        W33038  35.426  39.823  13.928
60724W        W33039  10.347  22.207   4.141
60725W        W33040  34.540  39.271  13.668
60726W        W33041   6.929  21.885  13.035
60727W        W33042  38.006  19.230   4.387
60728W        W33043   1.758   1.008   2.250
60729W        W33044  33.965  25.703   2.896
60730W        W33045  39.066  12.503  10.504
60731W        W33046  21.138  40.317   0.517
60732W        W33047   9.397   8.935  13.412
60733W        W33048  31.922  16.478  12.292
60734W        W33049  22.552  20.686  14.335
60735W        W33050   8.452   0.465   0.362
60736W        W33051  42.942  34.935   3.821
60737W        W33052  30.884   9.857   1.637
60738W        W33053  15.539  13.709  13.382
60739W        W33054  42.411   0.540  13.541
60740W        W33055   8.402  18.338  11.065
60741W        W33056  42.109  38.082  14.020
60742W        W33057  16.062  16.768  14.767
60743W        W33058  40.500   3.669   2.333
60744W        W33059  11.105  31.183   2.195
60745W        W33060  25.495  44.868  11.498
60746W        W33061   7.288  42.443  14.515
60747W        W33062  40.970   3.924  10.714
60748W        W33063   5.938  44.857   0.671
60749W        W33064  40.857   6.379   4.886
60750W        W33065  17.747  18.515   2.825
60751W        W33066   4.437   0.826   3.231
60752W        W33067  11.892  10.961   4.506
60753W        W33068  15.557  43.792   3.319
60754W        W33069  31.297   4.283   4.157
60755W        W33070  23.060  38.663  14.815
60756W        W33071  16.464   9.893  14.815
60757W        W33072  27.981  19.413   1.739
60758W        W33073   0.748  13.565  11.860
60759W        W33074   0.730   3.870  13.344
60760W        W33075   8.120  43.027  10.768
60761W        W33076  18.674  26.369   3.007
60762W        W33077  11.300  18.089   2.816
60763W        W33078  13.635   3.640   2.782
60764W        W33079  28.156  12.470  11.496
60765W        W33080  18.178  15.337   1.244
60766W        W33081  34.016  21.077   3.328
60767W        W33082   8.007   9.244   1.313
60768W        W33083  40.293  21.188  11.893
60769W        W33084  36.800  29.489  10.490
60770W        W33085   7.037   6.781   4.414
60771W        W33086  15.698   4.340  10.025
60772W        W33087  34.477  16.148   4.834
60773W        W33088  24.147  40.291   4.454
60774W        W33089  13.267  10.376  12.542
60775W        W33090   1.815  10.952  11.045
60776W        W33091   0.019   2.787   3.315
60777W        W33092   8.885  33.649  11.915
60778W        W33093   9.350  14.407  14.819
60779W        W33094  34.592   0.925  12.486
60780W        W33095   5.244  30.035  14.353
60781W        W33096  15.690  10.367   0.825
60782W        W33097  44.709  13.674  11.207
60783W        W33098   6.440   1.472   3.517
60784W        W33099  28.670  33.468   2.827
60785W        W33100  42.776   3.478   1.248
60786W        W33101  44.324  16.397   4.581
60787W        W33102  34.443   5.766  11.845
60788W        W33103  10.309  43.742  13.447
60789W        W33104   9.192   0.961   0.399
60790W        W33105   7.338  30.848  12.976
60791W        W33106  27.440  14.087   2.666
60792W        W33107  37.756   5.521   4.209
60793W        W33108  40.941   0.977  14.738
60794W        W33109  41.004  41.069   4.615
60795W        W33110  23.431  20.561  13.457
60796W        W33111   9.381  36.126  12.458
60797W        W33112   6.243  22.036  12.526
60798W        W33113  39.885  29.946   2.815
60799W        W33114   0.211  34.319  12.103
60800W        W33115  28.662  17.598   2.180
60801W        W33116  20.709   9.159  14.773
60802W        W33117  36.913  33.077   4.222
60803W        W33118   8.420  36.731  14.379
60804W        W33119  23.094   4.004   0.009
60805W        W33120  15.346  33.123   1.789
60806W        W33121   6.617  19.221   0.835
60807W        W33122  32.063   0.440  11.682
60808W        W33123  34.312  41.615   0.003
60809W        W33124  40.845  17.354   0.430
60810W        W33125  13.717  35.989  11.918
60811W        W33126  39.265   2.362   4.699
60812W        W33127  35.964   3.483   3.280
60813W        W33128  32.582  12.118  13.550
60814W        W33129   3.141  38.608   3.320
60815W        W33130  16.805   8.162  11.077
60816W        W33131   4.021  29.109  11.837
60817W        W33132  17.271  19.302  12.672
60818W        W33133  12.187  32.496  13.785
60819W        W33134  12.269  19.495  10.716
60820W        W33135   2.525  44.289   3.223
60821W        W33136  34.023  28.816   0.679
60822W        W33137   9.033  41.080  11.543
60823W        W33138  22.084   1.314  13.547
60824W        W33139  12.193   0.639  11.186
60825W        W33140  36.588  14.700  11.460
60826W        W33141  13.056  24.368  14.791
60827W        W33142  11.637  43.344   4.927
60828W        W33143  14.373  43.595  11.503
60829W        W33144  18.292  30.015  14.325
60830W        W33145  36.433  42.951   4.992
60831W        W33146  43.081  12.428  10.119
60832W        W33147  37.319   0.844  12.995
60833W        W33148  30.633  16.384  11.834
60834W        W33149  15.005  16.198   0.386
60835W        W33150  28.616  23.940  13.422
60836W        W33151  42.136  38.047   4.375
60837W        W33152  44.970  20.676   3.946
60838W        W33153  13.660  38.015   4.546
60839W        W33154  24.720   3.268   1.374
60840W        W33155   9.094  33.298  12.421
60841W        W33156  11.804  21.019   0.537
60842W        W33157  21.047  31.718   0.274
60843W        W33158  22.563   2.796   1.973
60844W        W33159  13.767  19.057   1.758
60845W        W33160  44.428  28.911  11.494
60846W        W33161  28.889  24.579   4.186
60847W        W33162  29.540   8.533   5.150
60848W        W33163  38.778   4.222   1.894
60849W        W33164  13.960   5.761  10.684
60850W        W33165  18.239  22.027   3.121
60851W        W33166  29.600  31.756   5.271
60852W        W33167  24.632  20.182  11.183
60853W        W33168  19.090  18.231  12.982
60854W        W33169   9.252   4.470  14.609
60855W        W33170  37.441  13.300   4.917
60856W        W33171  32.195  40.450  11.150
60857W        W33172  20.190  13.738   2.217
60858W        W33173   3.849  36.403  10.678
60859W        W33174  35.392  44.315  13.892
60860W        W33175   5.117  38.253  11.529
60861W        W33176  17.847  23.524   4.315
60862W        W33177   3.172  44.880  13.003
60863W        W33178  34.879   5.823  12.204
60864W        W33179  28.470   6.478   2.229
60865W        W33180  39.910  25.794  10.682
60866W        W33181  25.026   4.239   5.027
60867W        W33182  23.056   8.162   1.447
60868W        W33183  11.372  23.634  11.597
60869W        W33184  40.473  28.237  13.284
60870W        W33185  18.893   9.465   0.607
60871W        W33186   4.296  30.528   0.529
60872W        W33187  30.541  18.256  13.074
60873W        W33188  36.559  14.084   4.305
60874W        W33189  42.262  12.242   2.342
60875W        W33190  13.155  26.917   0.649
60876W        W33191   7.667  11.241   4.772
60877W        W33192   2.913  16.229   0.701
60878W        W33193  37.703   4.832  10.659
60879W        W33194  33.475   6.501   4.132
60880W        W33195  23.585   7.738   2.869
60881W        W33196  33.450  26.079  11.164
60882W        W33197  29.323  43.931  11.101
60883W        W33198  39.493  13.852  13.405
60884W        W33199   9.587   5.619  13.907
60885W        W33200  42.131  26.905  14.406
60886W        W33201  34.948  26.891   2.357
60887W        W33202  11.217   7.779  10.469
60888W        W33203   0.894   4.181  12.070
60889W        W33204  25.689  27.755   1.468
60890W        W33205  25.642  43.508  10.659
60891W        W33206  22.046  28.462  14.850
60892W        W33207   9.325  35.290  13.379
60893W        W33208  13.663  23.729   4.644
60894W        W33209  34.153  13.373  12.927
60895W        W33210   2.824   0.777   2.396
60896W        W33211  29.530  32.458  12.464
60897W        W33212   9.667  36.446  14.050
60898W        W33213  25.699   3.311  12.110
60899W        W33214  27.961  42.850   4.151
60900W        W33215  31.093  20.283   3.690
60901W        W33216  17.149  34.798   4.804
60902W        W33217  37.555  24.975  13.408
60903W        W33218   8.301  32.396   2.685
60904W        W33219  15.767  21.111  10.196
60905W        W33220   6.871  44.763   2.184
60906W        W33221   2.703   9.795  11.975
60907W        W33222  44.305  41.544   2.673
60908W        W33223  21.230  23.223   1.718
60909W        W33224  20.058  14.319   3.706
60910W        W33225  18.294  17.696  14.508
60911W        W33226  14.123  26.462  13.861
60912W        W33227  20.610  28.254  12.587
60913W        W33228  16.306  10.849   1.754
60914W        W33229  10.362  44.790  11.934
60915W        W33230  36.863   9.749  12.908
60916W        W33231  21.157  28.033  13.948
60917W        W33232  35.910  41.820  14.291
60918W        W33233   4.981  32.563  13.572
60919W        W33234   3.721   5.411  10.830
60920W        W33235  28.511  29.485  13.128
60921W        W33236  29.486  24.189  11.279
60922W        W33237  32.637   2.113  14.394
60923W        W33238  21.443  30.547   0.631
60924W        W33239  29.514  39.081  13.378
60925W        W33240   6.020  23.980  12.871
60926W        W33241  16.693  28.560  12.702
60927W        W33242  10.392  10.318   4.767
60928W        W33243  17.195  37.558  10.284
60929W        W33244  10.870  33.719  13.420
60930W        W33245  17.715  19.072   0.387
60931W        W33246  24.143  34.196  11.205
60932W        W33247  36.173  18.091   3.645
60933W        W33248  12.305  36.373   0.324
60934W        W33249   0.737   9.093  11.961
60935W        W33250  21.715  21.459   9.711
60936W        W33251  13.386  28.663  10.413
60937W        W33252  24.649  44.468   0.742
60938W        W33253  29.986  32.620   4.121
60939W        W33254   8.126  27.020  11.567
60940W        W33255  20.593  44.030   0.656
60941W        W33256   7.142  16.772  14.281
60942W        W33257   8.458  34.044   3.239
60943W        W33258  20.970  31.509  13.361
60944W        W33259  35.980  42.937  12.672
60945W        W33260  15.426  14.583  10.209
60946W        W33261  32.987  25.540   3.239
60947W        W33262  17.790  22.528  14.779
60948W        W33263   4.211  11.093   3.892
60949W        W33264   3.451  43.400   0.841
60950W        W33265   6.875  20.229   1.884
60951W        W33266  28.386  33.583  13.886
60952W        W33267  29.056  17.802  14.277
60953W        W33268  13.913   1.513  13.036
60954W        W33269  21.780  14.207  12.239
60955W        W33270  20.529  18.157  12.009
60956W        W33271  14.866  29.375   3.627
60957W        W33272  38.077  35.397   3.701
60958W        W33273   7.590   0.869   1.412
60959W        W33274  13.422  12.784   1.498
60960W        W33275   1.746   3.022  10.528
60961W        W33276  26.717  44.817   4.264
60962W        W33277  43.830  40.532   4.203
60963W        W33278  42.281  36.297   2.828
60964W        W33279  43.025  40.000  11.148
60965W        W33280   1.960  23.496   3.626
60966W        W33281  22.480  34.399  14.292
60967W        W33282  29.397  24.043  11.754
60968W        W33283  43.034   3.703  14.517
60969W        W33284  44.604  16.279  13.599
60970W        W33285   1.448  23.074  14.219
60971W        W33286  19.970  43.333   4.298
60972W        W33287  25.948  16.078   4.074
60973W        W33288  14.206  43.189   0.876
60974W        W33289  33.774   3.844  10.995
60975W        W33290  10.961   6.670  14.346
60976W        W33291  25.547  30.174  12.657
60977W        W33292   1.237  34.973  11.102
60978W        W33293   6.239  13.097  14.333
60979W        W33294   8.401  10.679  13.698
60980W        W33295  24.555   0.996  13.830
60981W        W33296  42.015   3.299   1.708
60982W        W33297  32.484  27.576   4.903
60983W        W33298   2.019  11.319  13.925
60984W        W33299  42.809  28.392  10.652
60985W        W33300  25.626   4.725  10.668
60986W        W33301  10.224  21.064  14.556
60987W        W33302  13.609   3.260   1.300
60988W        W33303  44.042   6.975  10.735
60989W        W33304  35.222  30.627  14.829
60990W        W33305   1.984  23.736  12.555
60991W        W33306  16.389  14.630   2.281
60992W        W33307  23.302  29.104  11.132
60993W        W33308  21.271  10.697  11.429
60994W        W33309  42.108   2.917   1.140
60995W        W33310  13.321  21.091   2.404
60996W        W33311  35.510  38.310  12.908
60997W        W33312  38.669  23.213   2.840
60998W        W33313  29.621   5.032   1.776
60999W        W33314  44.740  12.910  11.489
61000W        W33315   0.920  39.872  11.893
61001W        W33316  43.968  38.297  12.445
61002W        W33317  24.410  29.699  13.032
61003W        W33318  27.230   7.517  13.438
61004W        W33319   8.262  39.571   0.859
61005W        W33320  26.765  35.166  13.057
61006W        W33321  20.019  44.787  14.728
61007W        W33322  39.115   2.070   0.946
61008W        W33323  10.239  42.772   4.593
61009W        W33324  28.675  22.098   2.667
61010W        W33325  39.434  44.006   0.854
61011W        W33326   2.829  25.669  12.872
61012W        W33327   5.928  12.177   0.164
61013W        W33328  27.822  10.964   1.252
61014W        W33329  44.764  20.712   4.409
61015W        W33330   5.180   1.380  14.671
61016W        W33331  21.159  41.950  14.297
61017W        W33332   8.134   6.714  10.672
61018W        W33333  17.240  18.605   0.759
61019W        W33334  30.400  37.826  10.328
61020W        W33335   8.227  44.884   2.729
61021W        W33336  25.032  23.270   2.800
61022W        W33337   0.997  18.333  11.071
61023W        W33338  32.953  35.956  13.856
61024W        W33339   7.847   4.693  11.193
61025W        W33340  22.995  40.891   1.422
61026W        W33341  14.117  14.598  11.481
61027W        W33342   4.179   8.213   3.219
61028W        W33343   4.291  17.178   4.697
61029W        W33344  28.496  11.867   1.566
61030W        W33345  39.576  43.765  14.356
61031W        W33346  16.242  10.633   3.373
61032W        W33347  13.365   8.390   4.074
61033W        W33348  29.118  10.398   1.771
61034W        W33349   9.254  14.407   1.426
61035W        W33350  41.537  34.149   4.373
61036W        W33351  34.855   3.692  13.887
61037W        W33352   5.709  14.782   4.646
61038W        W33353  23.197  22.506  11.117
61039W        W33354  23.125  22.064  10.338
61040W        W33355  16.336  19.617  13.823
61041W        W33356  15.097  40.800  11.905
61042W        W33357   1.282  26.958  11.950
61043W        W33358  33.390   4.458  10.526
61044W        W33359   6.556  21.159  11.613
61045W        W33360   2.863   0.414  12.399
61046W        W33361  11.731  27.984   1.370
61047W        W33362  43.358  29.992   0.687
61048W        W33363  18.133  34.918   2.396
61049W        W33364  35.750  19.628  12.985
61050W        W33365  40.414  30.330  14.376
61051W        W33366   4.988   8.367   2.840
61052W        W33367   5.432  40.460   4.280
61053W        W33368  36.995  27.399  12.985
61054W        W33369  39.030  37.352   3.773
61055W        W33370   1.183  28.893  12.804
61056W        W33371  12.383  30.954   0.784
61057W        W33372  26.870  41.525   3.985
61058W        W33373  21.981  40.022   1.348
61059W        W33374  16.111  20.266   1.910
61060W        W33375   2.399   7.980  14.859
61061W        W33376  41.805  22.748   1.857
61062W        W33377  41.790  36.639   3.263
61063W        W33378  26.079   3.654  13.186
61064W        W33379  29.722  44.233  11.242
61065W        W33380  32.030  43.608  14.477
61066W        W33381  11.698  41.423  13.480
61067W        W33382  24.934   6.622  14.822
61068W        W33383  28.213   0.274   0.767
61069W        W33384   4.434   3.775  13.980
61070W        W33385   6.252  14.837  12.414
61071W        W33386  10.679   4.279  12.217
61072W        W33387   7.820  15.182   4.781
61073W        W33388  44.657  28.992   0.662
61074W        W33389  40.472  32.014  12.133
61075W        W33390  28.533  42.719   0.920
61076W        W33391  14.203  36.957   1.092
61077W        W33392  23.818  43.740   4.253
61078W        W33393  11.187  32.744  11.462
61079W        W33394  35.691  25.171  10.691
61080W        W33395  34.268  11.361  12.120
61081W        W33396  23.637  31.478   4.022
61082W        W33397  22.777  12.585  12.534
61083W        W33398  16.321  40.845   3.327
61084W        W33399   9.273  24.588  10.503
61085W        W33400  28.984   2.905   1.471
61086W        W33401  20.681  24.916  12.943
61087W        W33402   6.364  40.422  12.908
61088W        W33403  15.755  29.284   2.870
61089W        W33404   4.401  42.090  14.970
61090W        W33405  33.888  20.555   2.871
61091W        W33406   0.399  34.996   1.539
61092W        W33407  15.636   2.865  13.916
61093W        W33408  43.535  44.915   4.368
61094W        W33409  11.183  34.159  11.958
61095W        W33410  42.686  33.176   3.355
61096W        W33411   4.520  17.786  13.966
61097W        W33412   4.797  20.619  11.673
61098W        W33413  33.625   1.302   4.631
61099W        W33414  17.133  34.810  12.678
61100W        W33415  16.976   9.683  11.573
61101W        W33416  11.278   7.822  12.370
61102W        W33417   5.227  14.202  10.688
61103W        W33418   9.756   6.989   4.538
61104W        W33419  31.867  15.571  14.043
61105W        W33420  26.011  18.407  13.860
61106W        W33421  31.005   3.805  10.796
61107W        W33422  15.138   3.953   4.554
61108W        W33423  43.773  34.918  10.641
61109W        W33424  42.281  34.508  13.034
61110W        W33425   2.651  32.570   3.642
61111W        W33426  29.715  35.943   4.175
61112W        W33427  41.547   4.965   3.329
61113W        W33428  16.039  13.748   1.887
61114W        W33429   8.714   6.865  10.677
61115W        W33430  37.781   9.230   4.748
61116W        W33431  34.949  19.345  12.840
61117W        W33432  27.967  41.071  11.072
61118W        W33433   5.987  41.779  10.787
61119W        W33434  11.674   9.909  14.765
61120W        W33435  33.424  19.121   2.571
61121W        W33436  18.620  32.911   0.411
61122W        W33437  20.780  42.426   2.204
61123W        W33438  41.349   0.992   0.505
61124W        W33439  36.090  35.104   4.507
61125W        W33440   7.773  15.599  11.158
61126W        W33441  30.186  40.936  11.907
61127W        W33442   5.659  25.888  14.955
61128W        W33443   4.349  29.493  10.957
61129W        W33444  39.318  28.899   0.718
61130W        W33445  35.318  20.766   1.699
61131W        W33446  25.891  16.929   2.855
61132W        W33447  35.139  37.054   4.726
61133W        W33448  11.230  38.275   2.926
61134W        W33449  37.780  22.494  11.057
61135W        W33450  14.045  10.670  14.366
61136W        W33451  34.912   5.934  11.710
61137W        W33452  31.080  37.992  11.552
61138W        W33453  27.144  41.836   2.663
61139W        W33454  16.211  24.713  13.382
61140W        W33455  22.235  35.067  13.748
61141W        W33456   6.708  10.676  11.437
61142W        W33457  22.582   5.154  11.517
61143W        W33458  30.116  18.821  12.644
61144W        W33459  12.325  15.377   0.936
61145W        W33460   2.820  41.228  10.567
61146W        W33461  16.411  30.348  13.629
61147W        W33462   2.416  25.341  12.851
61148W        W33463  31.133  19.105  10.658
61149W        W33464  14.742  24.543  14.015
61150W        W33465  26.719  29.313   3.753
61151W        W33466   3.449  37.975  14.341
61152W        W33467  36.532  39.008   2.390
61153W        W33468   5.343  43.176  14.968
61154W        W33469   2.432  19.707   1.283
61155W        W33470   7.153  27.550   3.117
61156W        W33471  41.321  27.767   2.745
61157W        W33472  37.552  32.986   1.697
61158W        W33473  13.571   1.373  10.500
61159W        W33474  18.246  29.985  10.995
61160W        W33475  43.693  12.165  12.941
61161W        W33476  22.867   0.961  11.868
61162W        W33477  12.196  16.316  10.890
61163W        W33478  28.567  20.438  12.334
61164W        W33479   3.778  34.971  12.834
61165W        W33480  14.735  38.961   2.898
61166W        W33481   7.669   4.198   3.403
61167W        W33482  24.614  40.537   4.391
61168W        W33483  40.897   0.348  14.070
61169W        W33484  13.093  44.583   3.317
61170W        W33485  32.405   3.922   2.508
61171W        W33486  34.450  39.123  14.267
61172W        W33487  18.218  42.019   0.947
61173W        W33488  21.036  17.184  13.088
61174W        W33489  41.015  24.452  13.315
61175W        W33490  37.390  42.084   5.192
61176W        W33491  16.607   5.150   4.135
61177W        W33492  41.319   1.902   4.448
61178W        W33493  44.337  20.982  12.943
61179W        W33494  38.287  37.811  12.808
61180W        W33495  34.143  40.918  12.095
61181W        W33496  24.580   5.811  10.957
61182W        W33497  26.240  11.757  13.988
61183W        W33498  10.249  28.739   4.877
61184W        W33499  14.756  15.813   1.403
61185W        W33500  14.901  32.557  11.942
61186W        W33501   7.866   7.615   0.544
61187W        W33502  11.771  24.459   0.943
61188W        W33503  37.992  13.216   1.961
61189W        W33504   9.884  17.614   3.027
61190W        W33505  33.982   0.811   0.902
61191W        W33506  33.350  15.060  14.303
61192W        W33507  16.328   6.721   2.780
61193W        W33508   3.843  14.393  10.694
61194W        W33509   0.812  19.883  11.056
61195W        W33510  25.423  16.634   3.681
61196W        W33511  40.152   1.616   4.855
61197W        W33512  12.673   0.526   4.325
61198W        W33513  32.533  21.521  14.284
61199W        W33514  20.542  34.460  10.444
61200W        W33515  19.277  41.008  14.909
61201W        W33516   8.307   3.994   0.431
61202W        W33517  11.929   4.828   0.718
61203W        W33518   3.555  22.148  14.114
61204W        W33519   2.823  40.491  11.084
61205W        W33520  44.600   4.257  12.954
61206W        W33521   6.962   0.444  13.718
61207W        W33522  35.084   2.766  10.717
61208W        W33523  27.555  19.309   4.140
61209W        W33524  26.619   9.130   2.272
61210W        W33525   5.644   0.448   4.757
61211W        W33526  25.795  27.568  14.367
61212W        W33527  23.077  43.543   0.075
61213W        W33528   2.968  15.676   4.478
61214W        W33529  33.536   8.798   2.673
61215W        W33530   8.244   7.409   4.097
61216W        W33531  32.386  21.769   0.179
61217W        W33532  23.615  15.162   4.618
61218W        W33533  42.557  32.644  11.589
61219W        W33534  43.024  28.876  10.642
61220W        W33535  27.953   8.972  12.723
61221W        W33536  13.588  16.726   1.620
61222W        W33537  27.995   8.717   4.122
61223W        W33538  35.536  27.499  13.394
61224W        W33539  40.906  35.156  13.061
61225W        W33540  21.978  28.996  14.000
61226W        W33541   5.205  44.867   4.433
61227W        W33542  25.520  32.965  14.075
61228W        W33543  34.900  28.177  13.341
61229W        W33544  13.654  42.212   3.769
61230W        W33545  38.462  20.108   1.733
61231W        W33546  15.524   6.418   2.688
61232W        W33547   0.424  27.655  10.835
61233W        W33548  19.524  36.586  14.193
61234W        W33549   0.411  41.531  14.731
61235W        W33550   5.230  29.213   4.176
61236W        W33551  24.268  18.190  11.500
61237W        W33552   6.871  10.570   2.519
61238W        W33553  34.090  23.250   2.101
61239W        W33554  31.750  14.277   5.152
61240W        W33555   5.492  32.634  14.371
61241W        W33556  39.409  37.552  12.435
61242W        W33557   5.425  22.250  11.976
61243W        W33558  41.577  29.687  10.681
61244W        W33559   3.797   5.772   4.091
61245W        W33560  10.154  23.553   1.959
61246W        W33561   4.596  19.602   0.406
61247W        W33562  14.389  35.676  13.389
61248W        W33563  13.083  20.551  11.037
61249W        W33564  37.317  41.280   0.467
61250W        W33565  37.089  41.280   0.965
61251W        W33566  29.783  18.251   3.826
61252W        W33567  16.764  32.070   4.610
61253W        W33568  19.476  41.525   0.870
61254W        W33569  34.767  30.694  13.874
61255W        W33570  10.440  38.873  12.864
61256W        W33571  33.319  44.220  14.172
61257W        W33572   7.243  27.963   2.815
61258W        W33573  23.629  12.354  12.889
61259W        W33574  16.693  22.876  12.644
61260W        W33575  29.425  20.926  13.761
61261W        W33576  44.491  19.228   0.135
61262W        W33577   7.482  17.159  14.567
61263W        W33578  42.405   4.890   4.209
61264W        W33579   0.798  38.026  11.945
61265W        W33580  22.148   0.051  10.443
61266W        W33581   4.762   4.977  11.496
61267W        W33582   1.768  27.805  14.929
61268W        W33583  23.553  36.803   3.778
61269W        W33584   4.740  19.555   3.312
61270W        W33585  13.284   6.630   1.929
61271W        W33586  26.314  35.154  13.341
61272W        W33587  34.142   3.202   1.020
61273W        W33588   3.338  12.131  13.757
61274W        W33589  41.857  34.135   2.334
61275W        W33590  13.299   3.398  12.578
61276W        W33591  44.718  33.989   3.172
61277W        W33592  35.397  32.051  14.868
61278W        W33593  36.294   4.224  12.042
61279W        W33594  16.809  32.886  11.224
61280W        W33595  29.606  35.273  13.552
61281W        W33596  42.232  36.393   1.660
61282W        W33597  15.319  16.662   1.515
61283W        W33598  17.817  44.538  12.668
61284W        W33599   7.117  36.269  11.680
61285W        W33600  29.018  25.979  14.586
61286W        W33601  14.436  41.608   1.697
61287W        W33602   6.767  28.402   1.362
61288W        W33603  13.678   6.355   3.281
61289W        W33604   8.723  20.007  12.500
61290W        W33605   4.812  43.777  13.416
61291W        W33606  26.312  21.268  14.250
61292W        W33607  16.265  18.223  14.095
61293W        W33608  22.246   4.605   4.186
61294W        W33609  15.622  34.990   3.716
61295W        W33610  16.868  42.057  12.035
61296W        W33611  26.953  31.773  12.996
61297W        W33612  24.420  10.620  11.011
61298W        W33613   2.024   2.746  14.828
61299W        W33614  26.215   6.355  10.174
61300W        W33615   4.775  40.971  10.966
61301W        W33616  17.158  24.920  12.996
61302W        W33617  43.348  29.899  11.584
61303W        W33618  29.737   9.366  14.654
61304W        W33619  29.157   8.845   3.254
61305W        W33620  39.106  16.588   1.502
61306W        W33621  17.189  26.115   3.334
61307W        W33622  18.657   4.774   3.566
61308W        W33623  26.268  29.551  11.497
61309W        W33624  25.462  10.864  14.848
61310W        W33625  19.417   9.010  12.329
61311W        W33626  39.451  28.580  12.368
61312W        W33627  11.822  42.570  12.517
61313W        W33628  36.511  21.662   0.881
61314W        W33629  18.706   0.208  14.532
61315W        W33630  27.093  17.134   4.437
61316W        W33631  28.915   2.190   2.258
61317W        W33632  41.641   8.501  12.287
61318W        W33633  39.935  28.717  14.819
61319W        W33634  16.710  25.999   4.228
61320W        W33635  31.183   9.440   4.844
61321W        W33636  16.007  27.934  12.469
61322W        W33637  24.181  26.396   3.796
61323W        W33638  31.922  41.441   0.223
61324W        W33639  35.428  30.062   2.768
61325W        W33640  41.922  37.139   3.251
61326W        W33641  25.407  19.277  14.394
61327W        W33642   3.501   8.168  10.715
61328W        W33643   7.659  36.896   3.265
61329W        W33644   2.743  44.751   3.161
61330W        W33645  21.048  34.432  11.952
61331W        W33646  16.822  16.597  11.438
61332W        W33647  31.704  38.828  10.557
61333W        W33648  35.548   4.920  14.594
61334W        W33649  28.265  37.981   3.807
61335W        W33650  23.077  37.446  13.289
61336W        W33651  21.052  16.346   1.637
61337W        W33652  36.474  24.091   1.386
61338W        W33653  15.470  28.605   3.213
61339W        W33654  15.086  32.583  13.560
61340W        W33655   7.160  38.278   1.613
61341W        W33656   9.881  44.326   1.727
61342W        W33657  11.537  11.703  14.860
61343W        W33658   8.838  21.979  14.993
61344W        W33659   9.263   2.695   2.181
61345W        W33660  44.986   8.848   2.962
61346W        W33661   7.186  38.851   2.268
61347W        W33662  34.003  44.661  12.428
61348W        W33663   9.376   8.291   0.890
61349W        W33664  41.751  18.731  12.417
61350W        W33665  31.932  13.719  10.789
61351W        W33666  42.335   0.863  12.445
61352W        W33667  42.007  20.799   0.427
61353W        W33668  16.801  43.875   0.446
61354W        W33669  21.771  41.895   0.912
61355W        W33670  27.140  35.005  12.699
61356W        W33671  35.104   6.206   1.427
61357W        W33672   4.381  41.514   2.723
61358W        W33673  15.505  25.018   4.743
61359W        W33674  41.610  44.965  10.700
61360W        W33675  32.799  24.740  14.963
61361W        W33676  33.496  16.006   1.440
61362W        W33677  43.789  15.685  10.030
61363W        W33678  10.868  35.885  13.386
61364W        W33679   3.343  40.819   1.699
61365W        W33680  37.302   1.344   2.368
61366W        W33681  37.613  34.049  12.000
61367W        W33682  18.569   9.296  11.870
61368W        W33683  40.100  10.414   3.270
61369W        W33684  30.522  15.129   0.857
61370W        W33685  20.266  43.046   0.649
61371W        W33686  18.086  20.529   3.589
61372W        W33687  30.478  41.570   2.745
61373W        W33688  35.141  29.753  11.029
61374W        W33689  16.313   5.980  10.894
61375W        W33690   2.538  35.226   9.954
61376W        W33691  42.674   3.805  11.133
61377W        W33692  34.018  15.855  11.204
61378W        W33693   2.339  24.762   0.410
61379W        W33694  13.334  17.117   4.613
61380W        W33695  12.890  44.485  11.881
61381W        W33696  34.438   1.006   2.756
61382W        W33697   1.954  24.882   4.152
61383W        W33698   6.436  18.157   2.161
61384W        W33699  19.067   5.351  13.963
61385W        W33700  16.834  38.134   1.988
61386W        W33701  32.951  22.809  13.336
61387W        W33702  25.975  11.370   1.404
61388W        W33703  32.713  15.873  13.134
61389W        W33704  30.111  37.285  12.419
61390W        W33705  36.540   3.666  10.417
61391W        W33706  11.923  41.410  14.206
61392W        W33707  22.011  27.387   3.128
61393W        W33708  36.685  21.970  11.045
61394W        W33709   9.338  34.620  10.517
61395W        W33710  22.104  19.358  11.148
61396W        W33711  30.581   5.757  13.063
61397W        W33712  10.709  22.769  11.347
61398W        W33713  37.468  32.074   3.567
61399W        W33714  24.828   2.375   1.257
61400W        W33715  37.367   8.104  11.178
61401W        W33716  25.456   9.489  13.042
61402W        W33717  12.773  10.313  12.628
61403W        W33718  11.063  14.824   2.762
61404W        W33719  13.585  32.183  13.203
61405W        W33720  19.615  30.570   1.365
61406W        W33721  29.090   5.139  12.933
61407W        W33722  36.395  13.210   0.819
61408W        W33723   5.426  10.507  14.232
61409W        W33724   9.256  10.393  10.990
61410W        W33725  40.072  43.461   3.709
61411W        W33726  26.524  10.208  12.439
61412W        W33727  41.296  32.521   2.378
61413W        W33728  22.031  20.155  14.895
61414W        W33729  36.881  37.867  13.569
61415W        W33730  43.901  12.601   4.628
61416W        W33731   4.469  42.849   1.424
61417W        W33732  14.307  18.676   0.925
61418W        W33733  42.382  44.228   2.385
61419W        W33734  42.364  36.088   4.273
61420W        W33735  26.051  19.122  10.826
61421W        W33736  20.231  11.573   0.779
61422W        W33737   7.737  44.044  13.365
61423W        W33738  33.480  19.013   0.897
61424W        W33739  41.771  40.448  13.926
61425W        W33740  31.956  17.819   1.302
61426W        W33741   6.686  23.131  11.203
61427W        W33742   1.277  17.100   1.341
61428W        W33743  12.238  37.596   2.705
61429W        W33744  22.503  36.155   2.198
61430W        W33745  18.243  38.840   2.787
61431W        W33746  19.497  32.733  12.459
61432W        W33747  38.386  27.321   1.421
61433W        W33748  31.419  42.098  12.087
61434W        W33749  26.427   3.305  14.026
61435W        W33750  23.054  13.388   3.466
61436W        W33751  26.614  10.516  13.782
61437W        W33752  20.803   7.388  12.584
61438W        W33753  32.435  10.339  11.200
61439W        W33754  16.476  32.850  13.373
61440W        W33755  27.611  23.433   3.077
61441W        W33756   4.851  20.097   1.670
61442W        W33757   5.351  25.516   4.868
61443W        W33758  12.756  26.758   2.212
61444W        W33759  19.002   5.303  11.476
61445W        W33760   0.306  40.879   2.205
61446W        W33761  33.007  18.458  10.869
61447W        W33762  11.174  16.452  11.839
61448W        W33763   4.437  25.968  12.866
61449W        W33764  22.734  10.755  11.593
61450W        W33765  20.312  32.955  14.943
61451W        W33766  36.922  21.951   2.365
61452W        W33767  14.191  39.845  12.584
61453W        W33768  16.314  31.685  13.107
61454W        W33769   2.408  17.380  11.215
61455W        W33770  28.903  40.749  10.747
61456W        W33771   0.410  12.220  13.033
61457W        W33772  13.219   9.834   2.332
61458W        W33773  33.642  39.894   3.880
61459W        W33774  25.131  17.710   0.760
61460W        W33775   8.253  19.966  11.851
61461W        W33776  34.988   4.680  11.467
61462W        W33777  16.431  22.992  11.853
61463W        W33778  26.973  30.035   2.659
61464W        W33779   8.275   3.709  12.048
61465W        W33780   5.873   4.500   3.668
61466W        W33781  28.804  39.011  14.256
61467W        W33782  20.956   0.004  14.844
61468W        W33783   0.051  30.110  11.295
61469W        W33784  23.086   0.280   3.784
61470W        W33785  44.790  10.748  10.273
61471W        W33786  11.256  34.605  11.581
61472W        W33787  33.471  18.320   2.433
61473W        W33788   8.860  23.999  12.541
61474W        W33789  12.586  39.040  12.440
61475W        W33790  31.247  15.754   2.835
61476W        W33791   3.965  15.889  13.403
61477W        W33792  11.392  34.156   1.264
61478W        W33793  27.587  16.182  12.582
61479W        W33794   2.943  28.465  14.803
61480W        W33795  22.916  39.850  12.117
61481W        W33796  24.439  17.319  11.143
61482W        W33797  38.585   1.884  14.680
61483W        W33798  27.131  13.903   2.262
61484W        W33799   1.032  30.084   3.826
61485W        W33800  23.720  16.489   0.886
61486W        W33801  25.488   3.791  12.786
61487W        W33802  18.226  24.588   4.332
61488W        W33803  31.857  17.276   5.190
61489W        W33804  31.438  40.028   3.708
61490W        W33805  19.713  32.636  12.916
61491W        W33806  36.435  25.059  10.127
61492W        W33807  26.016  14.105  14.745
61493W        W33808  15.614  21.757  12.010
61494W        W33809  43.371  21.242   3.384
61495W        W33810  23.986  10.375   0.412
61496W        W33811  42.287   1.205  13.955
61497W        W33812  36.767  28.880   2.224
61498W        W33813  20.815  31.612  14.788
61499W        W33814   0.669  26.677  14.934
61500W        W33815  26.541  24.170   1.159
61501W        W33816   1.249  26.908   3.685
61502W        W33817   2.424  39.780   3.579
61503W        W33818  24.003  27.558  14.781
61504W        W33819  21.055   0.560   5.066
61505W        W33820  16.025   2.710  10.608
61506W        W33821   8.371  37.914  14.831
61507W        W33822  31.102   1.290   2.384
61508W        W33823  23.257  30.402  14.786
61509W        W33824   8.606  35.615   4.397
61510W        W33825  23.057  24.345   2.713
61511W        W33826  20.291  15.643   3.240
61512W        W33827  24.144  37.320  13.231
61513W        W33828  25.401   8.497   1.182
61514W        W33829   7.097   6.534  13.089
61515W        W33830  10.057  35.376   4.636
61516W        W33831  17.557  25.999  13.605
61517W        W33832  38.606  31.693  11.505
61518W        W33833   0.089  42.393   4.841
61519W        W33834  27.094  41.550  11.598
61520W        W33835  25.864  28.528   0.888
61521W        W33836  40.812  22.794   0.392
61522W        W33837  27.992  44.766  11.649
61523W        W33838  33.989  27.369  13.483
61524W        W33839  20.799  28.026  13.011
61525W        W33840   6.158  26.103   0.149
61526W        W33841  40.256  39.367  14.771
61527W        W33842  33.897  42.846   3.510
61528W        W33843  36.588   6.858  12.533
61529W        W33844  34.863  36.144  11.970
61530W        W33845  23.260  14.874  12.978
61531W        W33846  23.285  31.148   4.228
61532W        W33847   3.788   2.285   1.306
61533W        W33848   2.831  20.295   0.996
61534W        W33849  42.402  33.335  14.878
61535W        W33850  10.602  13.083  14.938
61536W        W33851  20.762   9.889  12.530
61537W        W33852  24.043  31.623   0.803
61538W        W33853  43.591  42.222   0.769
61539W        W33854  28.906  17.090   2.177
61540W        W33855   2.351  42.400   3.178
61541W        W33856   0.560  22.593  10.736
61542W        W33857  16.627  38.305  13.820
61543W        W33858   8.374  19.064   1.456
61544W        W33859  28.553  17.440   3.421
61545W        W33860  15.291  19.068   1.527
61546W        W33861  25.945  35.816   2.838
61547W        W33862   1.316  33.373  13.891
61548W        W33863  24.168  37.827   4.042
61549W        W33864  37.747  26.905   4.569
61550W        W33865  19.292   5.794   2.927
61551W        W33866  36.347  32.505  13.539
61552W        W33867  36.825  30.609   0.758
61553W        W33868   4.250  38.873   4.646
61554W        W33869  23.925  26.725   4.091
61555W        W33870  44.948  43.371  12.351
61556W        W33871   6.193  35.952   5.351
61557W        W33872  44.519  41.955   1.920
61558W        W33873  44.028   7.390   0.038
61559W        W33874  23.438   3.232  11.201
61560W        W33875  24.170  14.359  12.952
61561W        W33876   2.557  15.745  14.813
61562W        W33877  20.680  15.208   0.380
61563W        W33878  30.900  37.000  11.375
61564W        W33879  44.077  41.351   3.656
61565W        W33880  25.886   3.774  14.224
61566W        W33881  28.173   5.345   2.646
61567W        W33882  28.822  44.831   1.248
61568W        W33883  10.359  10.157   4.283
61569W        W33884  35.036  26.670  14.295
61570W        W33885  31.551   6.170   4.694
61571W        W33886  38.442  42.013   0.505
61572W        W33887  12.958  15.578   4.357
61573W        W33888  19.165  38.956   1.379
61574W        W33889   9.376   6.770  12.863
61575W        W33890   1.074  13.068   4.593
61576W        W33891  40.935  13.566   0.306
61577W        W33892  11.135   0.037   3.786
61578W        W33893  25.229  20.528  14.745
61579W        W33894  15.770  27.511  13.038
61580W        W33895  15.707  13.639  11.568
61581W        W33896  42.485  21.061   4.202
61582W        W33897   2.410  23.150  11.793
61583W        W33898   4.386   7.708   4.308
61584W        W33899   4.681  30.637  12.080
61585W        W33900  11.062  29.500  12.673
61586W        W33901  27.278  30.806   0.884
61587W        W33902  30.822  31.038  14.903
61588W        W33903   8.092  34.131   1.780
61589W        W33904  19.102  44.926  13.513
61590W        W33905  32.924  26.941   4.578
61591W        W33906  39.412  32.485   3.681
61592W        W33907   9.771  19.720   3.311
61593W        W33908  26.458  12.886  13.466
61594W        W33909   1.247  32.143   3.472
61595W        W33910  39.217  29.418   1.543
61596W        W33911  19.172  37.204   2.819
61597W        W33912  26.207  36.911   3.650
61598W        W33913  21.911  30.877  12.097
61599W        W33914   2.505  29.197  13.408
61600W        W33915   3.808  31.451   2.241
61601W        W33916  15.530  21.994   0.719
61602W        W33917  34.083  34.535   3.577
61603W        W33918   8.742  19.193  13.418
61604W        W33919  42.854   7.972   3.541
61605W        W33920  38.735  36.793  12.388
61606W        W33921   1.374   0.313   0.096
61607W        W33922  17.200   5.609  13.198
61608W        W33923   9.231  39.576  11.544
61609W        W33924   0.453  15.197  11.981
61610W        W33925  13.193  13.343  13.489
61611W        W33926  18.714   0.060   3.616
61612W        W33927  16.564   6.387   1.625
61613W        W33928  12.744   1.405   0.416
61614W        W33929  23.216  26.130   2.323
61615W        W33930  40.798  41.803  12.913
61616W        W33931  20.100  41.853  14.389
61617W        W33932   0.657   0.480  12.005
61618W        W33933  24.028  34.675  14.037
61619W        W33934  11.307  43.706   0.433
61620W        W33935  32.492  11.168   1.917
61621W        W33936  15.918  10.359  12.901
61622W        W33937  12.582   1.833   0.726
61623W        W33938  38.614  21.616   0.952
61624W        W33939   2.886  24.880   0.190
61625W        W33940  32.466  15.305   1.662
61626W        W33941  10.700  35.286  14.937
61627W        W33942   4.758  41.821  14.548
61628W        W33943   7.649   5.788   1.714
61629W        W33944  37.971  35.437   3.187
61630W        W33945  17.521  25.155  13.392
61631W        W33946   6.657   2.842   3.776
61632W        W33947  14.256  25.940   3.754
61633W        W33948  44.457  11.094   1.750
61634W        W33949  35.967  30.387   2.019
61635W        W33950  33.970   6.728   4.075
61636W        W33951  21.352   7.335   4.143
61637W        W33952  21.592   6.949   1.469
61638W        W33953  39.454  40.510   1.408
61639W        W33954  13.205  14.237   1.921
61640W        W33955  37.409  11.229   1.199
61641W        W33956  21.102  13.801  14.340
61642W        W33957  11.783  18.268  12.561
61643W        W33958  29.785  41.775  11.975
61644W        W33959  13.692  43.495   0.485
61645W        W33960   5.149  18.172  13.829
61646W        W33961  18.019  33.616  14.810
61647W        W33962   1.064  37.979  14.346
61648W        W33963  17.769  22.665   2.512
61649W        W33964  33.569  12.315   3.635
61650W        W33965  20.364  33.062   4.540
61651W        W33966  11.285  41.950   4.692
61652W        W33967  16.390  13.997  14.305
61653W        W33968  17.154  13.990  11.942
61654W        W33969  34.592  18.695   0.375
61655W        W33970  38.855   0.487  11.523
61656W        W33971  20.109  32.383   4.696
61657W        W33972  39.088   8.789  11.023
61658W        W33973  18.891   8.399   4.565
61659W        W33974  17.723  44.473   1.182
61660W        W33975  30.121  16.098  11.180
61661W        W33976  11.909  27.554  13.338
61662W        W33977   6.190  44.049   0.428
61663W        W33978  12.082  14.994  11.112
61664W        W33979   4.025  17.491   2.395
61665W        W33980  11.935  12.310  14.416
61666W        W33981   0.251  21.807  12.879
61667W        W33982  40.434  40.567  13.935
61668W        W33983  20.607  27.477  12.946
61669W        W33984  30.864   9.730   3.160
61670W        W33985   5.936  15.036  11.567
61671W        W33986  37.108  41.881  10.709
61672W        W33987  26.943  28.219  10.502
61673W        W33988  31.020  14.111   2.852
61674W        W33989  14.570  31.470   0.242
61675W        W33990  24.061  40.098   2.576
61676W        W33991  23.268  34.068  11.546
61677W        W33992   9.756  14.224  13.961
61678W        W33993   6.488   3.380  13.840
61679W        W33994  22.266  37.359  11.482
61680W        W33995  41.716  10.300   0.477
61681W        W33996  18.652   4.102   2.234
61682W        W33997   1.692  12.241  11.651
61683W        W33998   1.740  35.626   3.355
61684W        W33999  29.656  28.828  13.366
61685W        W34000  15.083  40.931   3.221
61686W        W34001  25.217   6.777  13.897
61687W        W34002  22.089  10.897   2.745
61688W        W34003  25.508  20.992   0.775
61689W        W34004  34.143   6.229  13.766
61690W        W34005  44.234  28.165   1.125
61691W        W34006  23.194   0.264  10.639
61692W        W34007   3.029  32.781   3.374
61693W        W34008  28.420   1.358  12.957
61694W        W34009  15.398   5.532   1.652
61695W        W34010  13.351  18.757   5.003
61696W        W34011  38.794   2.799   3.939
61697W        W34012   8.797  20.300   1.215
61698W        W34013  13.633  13.791   0.734
61699W        W34014  14.083  26.148  14.372
61700W        W34015  10.682  35.333   1.641
61701W        W34016  32.549  23.770  14.760
61702W        W34017  36.643  44.585   1.503
61703W        W34018  11.735   6.875  10.920
61704W        W34019  15.202  39.561   0.143
61705W        W34020  18.814  32.003  13.029
61706W        W34021  17.206  21.803   3.663
61707W        W34022  39.238   9.915   1.819
61708W        W34023  22.776  35.864   2.729
61709W        W34024  14.542  41.869  12.387
61710W        W34025  43.362  32.318  14.075
61711W        W34026  40.931  43.053  13.383
61712W        W34027   1.877  36.459  10.073
61713W        W34028  40.013   9.400   3.791
61714W        W34029  30.474   0.750  11.583
61715W        W34030  30.210  20.959  10.752
61716W        W34031  27.402  26.458   4.592
61717W        W34032   0.850  29.761  11.542
61718W        W34033  34.366  20.044   1.899
61719W        W34034   9.589  22.670   4.048
61720W        W34035  31.477   5.929   2.806
61721W        W34036  44.549  29.915  12.119
61722W        W34037   2.682  26.574  12.590
61723W        W34038   1.765   8.338  12.901
61724W        W34039  24.807   6.704  14.301
61725W        W34040  23.642  13.834   0.734
61726W        W34041  15.267  31.079  14.579
61727W        W34042  14.572  24.109   1.226
61728W        W34043  40.516  11.359  11.955
61729W        W34044  32.311  33.802   4.986
61730W        W34045  26.606  44.946  12.995
61731W        W34046  31.987   8.698   0.805
61732W        W34047  22.615  18.671  10.863
61733W        W34048  22.661  23.591  10.463
61734W        W34049  25.440  37.462   1.501
61735W        W34050  33.257  29.521  11.953
61736W        W34051   3.758   6.946  14.336
61737W        W34052  41.582  26.611  10.752
61738W        W34053  13.725  35.800   4.103
61739W        W34054  14.122  40.981  11.179
61740W        W34055  14.184  10.505   2.685
61741W        W34056  38.923  30.099  13.485
61742W        W34057  37.677   3.906   0.953
61743W        W34058  27.091  21.878  13.748
61744W        W34059  39.072  10.365   2.697
61745W        W34060   4.232   3.000   0.188
61746W        W34061  16.852   5.667  11.520
61747W        W34062   7.927  42.549  12.484
61748W        W34063  40.505   1.432   2.785
61749W        W34064  15.305  18.703   3.179
61750W        W34065  12.826  43.430   1.905
61751W        W34066  40.889   5.224  10.947
61752W        W34067  27.480  37.113  11.982
61753W        W34068  28.174  20.252   2.812
61754W        W34069   3.180  41.127   0.347
61755W        W34070   8.255  31.329  11.110
61756W        W34071  32.990  29.653   0.355
61757W        W34072   0.496  29.833  13.395
61758W        W34073   2.552  25.396   1.518
61759W        W34074  17.550  13.575   3.237
61760W        W34075  21.549   8.084  11.202
61761W        W34076  36.870   6.927  12.103
61762W        W34077   0.804   7.565   2.664
61763W        W34078  12.418  12.387  14.246
61764W        W34079  22.934  28.176   4.906
61765W        W34080  26.035  20.703   2.431
61766W        W34081  14.789  29.582  13.395
61767W        W34082  25.242  37.045  12.067
61768W        W34083  33.544   7.934  12.570
61769W        W34084  19.468  18.525   4.179
61770W        W34085  42.920  32.813  11.161
61771W        W34086  10.285   9.261  11.828
61772W        W34087  20.044  33.914   2.225
61773W        W34088  44.962   4.783  11.125
61774W        W34089  35.043  31.173   4.155
61775W        W34090  29.096   6.760  11.156
61776W        W34091  14.882   4.744   2.153
61777W        W34092  32.098  36.758  10.528
61778W        W34093  43.457  25.908   3.238
61779W        W34094  16.457  33.499   2.218
61780W        W34095   2.768  34.562  13.899
61781W        W34096  12.218  18.608  14.342
61782W        W34097   5.236  10.732   1.688
61783W        W34098  15.368  21.120  11.142
61784W        W34099  26.667  33.850  14.531
61785W        W34100   4.168  40.718   0.942
61786W        W34101  25.577  28.729  13.298
61787W        W34102   8.045  24.359   1.682
61788W        W34103  31.695  34.003  11.105
61789W        W34104  29.617  18.246  13.120
61790W        W34105  34.613  20.660  10.538
61791W        W34106  27.193  42.507  14.446
61792W        W34107  36.631  39.398   2.089
61793W        W34108  34.425  33.162   0.737
61794W        W34109  28.165  40.987  11.994
61795W        W34110  23.791   8.290   3.119
61796W        W34111   6.839  33.062   3.105
61797W        W34112   1.383  35.627  11.499
61798W        W34113  24.562  15.776  13.945
61799W        W34114   8.184  31.908  14.024
61800W        W34115   6.957  23.940   1.527
61801W        W34116  22.474  40.712  12.385
61802W        W34117  20.149  32.381   0.550
61803W        W34118  20.667   6.371   2.403
61804W        W34119  39.987  16.763  14.773
61805W        W34120  23.739  33.379   4.072
61806W        W34121  30.559  17.623  10.772
61807W        W34122  37.272  21.648   5.049
61808W        W34123  42.746  17.919   2.333
61809W        W34124  36.363  27.656  11.935
61810W        W34125  25.976   0.881   0.003
61811W        W34126  28.081  24.098   2.357
61812W        W34127  18.862  23.300   3.089
61813W        W34128   3.271  19.088   2.606
61814W        W34129  42.757  41.501  10.936
61815W        W34130  34.951  34.901  10.906
61816W        W34131  39.389  34.867   0.475
61817W        W34132   9.412   1.659   2.421
61818W        W34133  16.507   5.584   3.889
61819W        W34134  34.825  12.684  14.006
61820W        W34135  44.551  14.256  11.999
61821W        W34136  37.916  25.411   3.334
61822W        W34137  25.686  31.518   4.955
61823W        W34138  12.039  27.888  12.912
61824W        W34139  40.408   0.603  12.853
61825W        W34140  41.911  35.553  14.235
61826W        W34141  35.978  28.487  12.383
61827W        W34142  41.513  15.740   4.211
61828W        W34143   0.624  22.768  13.818
61829W        W34144  23.241   6.786   2.751
61830W        W34145  38.939  27.485   2.255
61831W        W34146  17.708  35.999  13.418
61832W        W34147  19.266  30.580  11.874
61833W        W34148  34.078  36.394  14.488
61834W        W34149  16.519  34.593   2.145
61835W        W34150  30.909  14.230   3.728
61836W        W34151  41.980   7.723  14.994
61837W        W34152  35.665   6.803  10.800
61838W        W34153  10.368  43.441  14.948
61839W        W34154  20.598  34.628  14.176
61840W        W34155  29.112  28.286   1.203
61841W        W34156  31.193  42.809   4.595
61842W        W34157  42.960  42.325   3.289
61843W        W34158  23.925  29.390   2.404
61844W        W34159  33.950  38.394   2.726
61845W        W34160  31.033   4.910   3.238
61846W        W34161   6.276  40.360  10.542
61847W        W34162   9.930  40.252   1.872
61848W        W34163   1.283  22.703  11.961
61849W        W34164  25.209  24.205   0.344
61850W        W34165  42.617  20.148  14.245
61851W        W34166  32.663  19.648  13.014
61852W        W34167  25.551  20.144  14.675
61853W        W34168  16.910  27.393  13.525
61854W        W34169  13.796   1.960  14.919
61855W        W34170   9.202  22.035   3.388
61856W        W34171   8.281  18.150  11.533
61857W        W34172  28.647  20.565  14.061
61858W        W34173  34.581  21.303  14.384
61859W        W34174  13.143  11.555  10.993
61860W        W34175  37.096   5.108   3.217
61861W        W34176  14.970  38.600   1.767
61862W        W34177  27.204   0.901   0.697
61863W        W34178  34.448   0.016   2.616
61864W        W34179  32.048  31.678  12.589
61865W        W34180   6.221  18.182   2.638
61866W        W34181  12.486  23.652  13.573
61867W        W34182   3.877   9.829   4.128
61868W        W34183  26.641   4.238   1.937
61869W        W34184  38.477  39.728  10.528
61870W        W34185  32.554   1.864  11.566
61871W        W34186  14.990  44.517   4.537
61872W        W34187  17.921  36.068   4.094
61873W        W34188  27.933  32.818   0.160
61874W        W34189  27.253   7.313   3.967
61875W        W34190  27.277  17.826  14.205
61876W        W34191  30.808  13.236   3.936
61877W        W34192  14.214  37.870  11.457
61878W        W34193  42.814  19.519   2.891
61879W        W34194  24.172  14.091   2.273
61880W        W34195   9.140  38.380   1.838
61881W        W34196  17.768  20.632   2.203
61882W        W34197  33.605  11.640   0.929
61883W        W34198  15.345   8.519   4.256
61884W        W34199  42.208   8.392  11.040
61885W        W34200   2.770  39.825  11.681
61886W        W34201  42.368  25.627   1.142
61887W        W34202  33.882  17.466  12.387
61888W        W34203  27.214  18.101   1.371
61889W        W34204  43.642   5.780  13.171
61890W        W34205  12.324  33.844   4.365
61891W        W34206  17.548  26.758   3.847
61892W        W34207  18.533   9.129  11.372
61893W        W34208  28.362  22.779  12.502
61894W        W34209  35.727  32.473   2.752
61895W        W34210  43.346  15.067   2.850
61896W        W34211  29.531  13.577   2.027
61897W        W34212   5.659  28.298   1.341
61898W        W34213  42.612  19.073  12.444
61899W        W34214  16.698  33.973   3.368
61900W        W34215  30.942   9.950   3.623
61901W        W34216  22.238   0.898  13.851
61902W        W34217  29.610  39.775   0.327
61903W        W34218  36.859  32.140   2.129
61904W        W34219  35.550  44.426  12.990
61905W        W34220  25.435  13.706   4.336
61906W        W34221  43.483  35.341  13.291
61907W        W34222   7.779  10.166   3.595
61908W        W34223  39.701  30.014   1.351
61909W        W34224  25.653  44.407  11.634
61910W        W34225  30.604  17.100  14.684
61911W        W34226  44.965  25.204   3.182
61912W        W34227  25.437   1.817   3.591
61913W        W34228  40.480   0.794   5.036
61914W        W34229  32.776  22.896   2.626
61915W        W34230   4.295  16.009  11.523
61916W        W34231   8.470  15.521   1.831
61917W        W34232  14.012  25.121   4.788
61918W        W34233  42.830  32.876   3.770
61919W        W34234  16.201  22.153  13.111
61920W        W34235  14.662   7.914  12.480
61921W        W34236  30.059   2.302   1.217
61922W        W34237   6.300  14.641  10.414
61923W        W34238  15.721   6.266  13.734
61924W        W34239  27.295   7.217   0.787
61925W        W34240   5.978   0.806  12.106
61926W        W34241  18.971   8.353  12.514
61927W        W34242   6.657  43.836   1.131
61928W        W34243  22.464  17.230  10.691
61929W        W34244  16.600  34.471  14.293
61930W        W34245  39.448  13.711  12.801
61931W        W34246   5.725  32.570   1.323
61932W        W34247  32.009  28.470   3.952
61933W        W34248  32.673  35.640  12.108
61934W        W34249  41.403  31.216  12.409
61935W        W34250   4.733  32.583  14.034
61936W        W34251  15.091  36.936  14.769
61937W        W34252  32.396  14.234   0.888
61938W        W34253  30.852  34.649   1.781
61939W        W34254   2.862  10.427   9.992
61940W        W34255  31.637  36.971  13.224
61941W        W34256  31.369  43.475  13.078
61942W        W34257  21.139  36.655   4.188
61943W        W34258   7.366  35.085   2.705
61944W        W34259  27.296  29.115  13.180
61945W        W34260  28.472  23.284  11.236
61946W        W34261  38.220   9.595   4.019
61947W        W34262   8.198  43.717  14.934
61948W        W34263  23.720  22.712   3.297
61949W        W34264  24.565  44.045   1.292
61950W        W34265   5.338   3.785   2.301
61951W        W34266  32.627  38.255   2.835
61952W        W34267  19.710  39.328  13.837
61953W        W34268  40.379  35.878  11.701
61954W        W34269  25.041   0.973  11.060
61955W        W34270  42.290  21.966  12.039
61956W        W34271  39.748  21.089   3.632
61957W        W34272  25.042  19.964   3.247
61958W        W34273  34.103  34.160   4.958
61959W        W34274  25.987   5.499   2.266
61960W        W34275   3.691   5.515  11.349
61961W        W34276  34.017  43.316   3.703
61962W        W34277  15.055  33.507  14.859
61963W        W34278  22.271  28.579  11.534
61964W        W34279  42.560  22.387   2.401
61965W        W34280  35.720  39.886  14.349
61966W        W34281  18.618  41.636   9.848
61967W        W34282   4.369   4.783  14.085
61968W        W34283   1.287  35.866  14.668
61969W        W34284  36.313  43.278  12.484
61970W        W34285  37.258  34.604   2.742
61971W        W34286  24.786  22.600  11.910
61972W        W34287  28.134  33.359  10.081
61973W        W34288  23.141   5.237  12.530
61974W        W34289  43.797  44.780  13.602
61975W        W34290  18.862   0.362   4.639
61976W        W34291  12.316   6.729  14.750
61977W        W34292   5.685  39.853  13.855
61978W        W34293   4.281  39.083  13.794
61979W        W34294  23.765  23.807  14.977
61980W        W34295  35.055  28.920   1.423
61981W        W34296  30.908   2.032   4.088
61982W        W34297  39.647  12.672   3.527
61983W        W34298  10.085  15.095  12.400
61984W        W34299   2.442  32.459  10.408
61985W        W34300  31.479  17.375  11.093
61986W        W34301   4.497  20.554  13.387
61987W        W34302  22.456  27.589   1.242
61988W        W34303  42.902  31.507   3.664
61989W        W34304  40.366  12.758   4.390
61990W        W34305  10.108  27.402   1.287
61991W        W34306  29.877  17.087   3.720
61992W        W34307  11.022  41.060  11.532
61993W        W34308  11.402  15.652   3.164
61994W        W34309  14.507  40.117  11.612
61995W        W34310  24.471   6.455  13.993
61996W        W34311  35.820  20.027   2.368
61997W        W34312  25.287  32.912  14.885
61998W        W34313  12.704   0.060   2.686
61999W        W34314   1.926  25.907   4.094
62000W        W34315  25.388  20.578   1.636
62001W        W34316  33.333  29.610   4.141
62002W        W34317  17.697  27.156  14.913
62003W        W34318   6.996   4.148  13.503
62004W        W34319  38.867  10.797   0.066
62005W        W34320  38.021  41.664  11.116
62006W        W34321  43.231  28.430   1.208
62007W        W34322  25.463  13.174  13.482
62008W        W34323   9.674  14.231  14.466
62009W        W34324   9.109  19.325   3.668
62010W        W34325  15.724  14.608   3.716
62011W        W34326   2.896  40.327   1.301
62012W        W34327   3.618  42.554  10.749
62013W        W34328  40.077  25.420   1.978
62014W        W34329  30.571  38.086   3.337
62015W        W34330  42.367  21.479   0.369
62016W        W34331   6.205  39.821  11.190
62017W        W34332  10.575  34.535  11.503
62018W        W34333  26.971   9.485  13.707
62019W        W34334  41.468  41.022  11.965
62020W        W34335  23.708  30.587  10.629
62021W        W34336  32.584  38.952  11.659
62022W        W34337   5.260  10.062   4.340
62023W        W34338  17.337  27.572   9.702
62024W        W34339  27.590  22.357   1.617
62025W        W34340  20.773  34.183   3.737
62026W        W34341  27.159  34.510   4.905
62027W        W34342   5.753  11.648   4.560
62028W        W34343  26.922  18.044   1.785
62029W        W34344   8.439   4.862  14.324
62030W        W34345  25.415  30.146  13.505
62031W        W34346  37.448  40.968   1.250
62032W        W34347  26.482  40.856  11.485
62033W        W34348  16.175  33.546   1.794
62034W        W34349  40.511  44.796  14.821
62035W        W34350  19.804  42.697  13.011
62036W        W34351   1.652  33.296   4.985
62037W        W34352  44.543  39.260  12.213
62038W        W34353  43.774  21.664  14.380
62039W        W34354  32.639  27.143  11.536
62040W        W34355  44.413   9.994   9.816
62041W        W34356  10.097  39.010  11.129
62042W        W34357  11.289  26.933  13.648
62043W        W34358  35.888  38.832   3.283
62044W        W34359  28.895  21.619  12.725
62045W        W34360  32.937   0.283  10.586
62046W        W34361  18.194  37.172  12.332
62047W        W34362  41.703   8.282   0.881
62048W        W34363  34.576  14.257  12.046
62049W        W34364   7.611  29.617   2.229
62050W        W34365  10.387  31.304   1.332
62051W        W34366  34.869  20.007  14.527
62052W        W34367  27.928  21.601  11.958
62053W        W34368  14.111   5.909  12.263
62054W        W34369  23.271   8.328  10.957
62055W        W34370  13.754  26.145   3.649
62056W        W34371  33.410  37.650  11.641
62057W        W34372   1.841  31.573   4.119
62058W        W34373  14.610   5.847   1.898
62059W        W34374  16.102  26.990   2.772
62060W        W34375  17.510  10.745  12.464
62061W        W34376  13.188  11.404   4.203
62062W        W34377  39.177   4.227  10.691
62063W        W34378  30.895  25.009   0.728
62064W        W34379  10.976  38.049   3.886
62065W        W34380  16.929  43.071  14.429
62066W        W34381  30.891   3.655  12.540
62067W        W34382   4.435  40.269   4.124
62068W        W34383  44.492  40.472  13.364
62069W        W34384  12.862  16.896   4.529
62070W        W34385   6.742  28.120   3.303
62071W        W34386  31.280  37.318   3.762
62072W        W34387  25.456  12.768   3.201
62073W        W34388  33.088  17.524   2.205
62074W        W34389  12.836  14.739  11.152
62075W        W34390  19.675  16.301   3.634
62076W        W34391   0.478  24.153   4.511
62077W        W34392  21.871  44.452  12.092
62078W        W34393  16.383   1.424  14.906
62079W        W34394   5.162  26.489  12.972
62080W        W34395  39.071   3.707   2.789
62081W        W34396  21.775  40.229   2.901
62082W        W34397  10.117  12.047  13.982
62083W        W34398  35.607  32.395  11.488
62084W        W34399  18.824   6.141   2.408
62085W        W34400  34.830  19.076   2.713
62086W        W34401   5.921   1.778  14.622
62087W        W34402   2.195  12.141  12.573
62088W        W34403  15.316  11.061   1.389
62089W        W34404  36.859  13.670   4.673
62090W        W34405  37.356  25.555  14.945
62091W        W34406   8.048   2.634   1.366
62092W        W34407   5.581   3.241   1.335
62093W        W34408  34.456  10.385   4.173
62094W        W34409   1.887   6.277   4.210
62095W        W34410  39.833  24.142  13.992
62096W        W34411  19.655   3.566   4.597
62097W        W34412  25.468  33.884   3.877
62098W        W34413  28.493  25.381   2.427
62099W        W34414  42.011   8.076  12.400
62100W        W34415  19.459  32.084  14.422
62101W        W34416  40.566  19.340  13.279
62102W        W34417  22.099  39.342  12.563
62103W        W34418  27.714  15.100  13.465
62104W        W34419  26.582  31.184   4.046
62105W        W34420  30.670  11.393  11.471
62106W        W34421  24.445  26.583  13.013
62107W        W34422  16.809   8.690  12.859
62108W        W34423  40.846  43.900   0.268
62109W        W34424  33.023  36.093   3.458
62110W        W34425  28.655  12.385  11.567
62111W        W34426  14.368  28.977   1.760
62112W        W34427  44.477   0.352   0.185
62113W        W34428  30.046  41.022  12.961
62114W        W34429  17.171  26.959  11.074
62115W        W34430  11.156   7.775   2.402
62116W        W34431  37.421  29.501   2.919
62117W        W34432  20.923  23.758  11.219
62118W        W34433  39.994  17.125  12.820
62119W        W34434  24.679   0.048  12.077
62120W        W34435  35.086  23.255   1.802
62121W        W34436  15.122  43.839  12.317
62122W        W34437   1.270   3.342   0.682
62123W        W34438  41.447  29.430  13.487
62124W        W34439  35.044   2.568   1.628
62125W        W34440   9.739  39.527  12.874
62126W        W34441  10.952   8.631  11.512
62127W        W34442  12.628  15.775   0.809
62128W        W34443   2.749  19.262   2.330
62129W        W34444   8.150  12.270  14.338
62130W        W34445  14.169   9.133  11.257
62131W        W34446   3.488  32.506   4.969
62132W        W34447   3.536  19.089   0.267
62133W        W34448   1.607   2.108   4.590
62134W        W34449  40.323  27.230   4.504
62135W        W34450   6.481   6.927  12.455
62136W        W34451  10.269  22.146   1.720
62137W        W34452  17.165  23.475  10.718
62138W        W34453  37.709   7.887   5.162
62139W        W34454  30.103   8.731   4.258
62140W        W34455  39.842   3.984   3.194
62141W        W34456   1.485  43.320   1.298
62142W        W34457  10.467  25.554  12.827
62143W        W34458  28.488  24.204  12.971
62144W        W34459  22.132  28.018   1.504
62145W        W34460  44.999  15.784  14.066
62146W        W34461  42.401   4.713  10.484
62147W        W34462  38.385  27.104   1.933
62148W        W34463  35.625  38.731  11.223
62149W        W34464  12.658  40.225   3.978
62150W        W34465   3.799  28.200   0.495
62151W        W34466  23.787  11.835   4.171
62152W        W34467  26.903  31.114  14.935
62153W        W34468   1.433  26.142   0.017
62154W        W34469   0.976   0.206  12.981
62155W        W34470  43.576  27.194  10.603
62156W        W34471   8.496  16.703   1.543
62157W        W34472  25.221   1.819  12.120
62158W        W34473   6.059   3.669   1.791
62159W        W34474  11.367  23.051   2.349
62160W        W34475  44.767  28.997  11.126
62161W        W34476  24.548  29.897   4.322
62162W        W34477  33.946   1.076   1.941
62163W        W34478  12.672   6.840   3.222
62164W        W34479   7.397  22.147  13.876
62165W        W34480   5.510  13.005  12.157
62166W        W34481  25.218  14.805   3.673
62167W        W34482  31.408  26.047   4.705
62168W        W34483  12.361  41.623  14.313
62169W        W34484  13.623   5.043  14.278
62170W        W34485  43.819   8.014  12.853
62171W        W34486   2.871  23.100  14.431
62172W        W34487  19.070  31.520   4.641
62173W        W34488  43.314  14.211   2.212
62174W        W34489  27.995  12.744   4.986
62175W        W34490  14.206  35.062  12.563
62176W        W34491  37.468  38.716   5.203
62177W        W34492  15.830   9.372  11.095
62178W        W34493  14.975  23.162   3.441
62179W        W34494   2.694   9.941   1.607
62180W        W34495  44.028  25.415   1.328
62181W        W34496  44.013  36.972   4.500
62182W        W34497   8.996   9.374  14.680
62183W        W34498  17.000  41.313  14.027
62184W        W34499  20.562   0.302  13.394
62185W        W34500   3.579   1.720   2.163
62186W        W34501  38.988  40.967   2.874
62187W        W34502  27.025   3.528   1.873
62188W        W34503   4.838  34.159   4.351
62189W        W34504   7.208  30.300   1.375
62190W        W34505   1.733   6.302   1.250
62191W        W34506  28.575  27.072   2.782
62192W        W34507  41.568  23.083   3.717
62193W        W34508  42.278  16.000  13.017
62194W        W34509  18.573  23.788   9.852
62195W        W34510  10.090  10.788  12.963
62196W        W34511  18.959   0.774  12.015
62197W        W34512  41.139  44.054  12.612
62198W        W34513  21.933  17.809   4.450
62199W        W34514  35.533   8.297   3.528
62200W        W34515   9.951  32.483   0.429
62201W        W34516   6.529  12.834   1.825
62202W        W34517  35.499   6.327  14.134
62203W        W34518   0.401  31.921  13.291
62204W        W34519   9.935  39.757   0.166
62205W        W34520   3.259   3.676   3.324
62206W        W34521  18.498  38.411  14.224
62207W        W34522  13.738  42.828  13.304
62208W        W34523  18.314  33.829  11.128
62209W        W34524  28.988  41.025  14.819
62210W        W34525  10.234  16.495   2.267
62211W        W34526  43.809  19.102   4.579
62212W        W34527  26.271  37.478  13.908
62213W        W34528  23.180  10.216  11.433
62214W        W34529  12.736   0.829   1.655
62215W        W34530  37.074  22.620   3.391
62216W        W34531  14.196   7.966  13.380
62217W        W34532  31.911  33.382   2.305
62218W        W34533  11.154   9.869   0.297
62219W        W34534  22.959  32.933  11.151
62220W        W34535  10.567  31.206  10.801
62221W        W34536  25.612  39.299   2.127
62222W        W34537  40.554  21.574  14.907
62223W        W34538  40.467  17.616  14.468
62224W        W34539  43.375  32.239   1.647
62225W        W34540  31.524  27.000  13.441
62226W        W34541  37.089  38.961   3.233
62227W        W34542   7.603  32.485  13.958
62228W        W34543  14.348  19.982  11.092
62229W        W34544  26.689  19.872  11.798
62230W        W34545  13.801  37.573  10.845
62231W        W34546   2.900  17.268   5.151
62232W        W34547  38.586  11.712   0.347
62233W        W34548   6.912  38.928   2.711
62234W        W34549   8.659   4.586  11.314
62235W        W34550   6.285   2.399   3.034
62236W        W34551   9.277  21.899  12.205
62237W        W34552   7.114  18.059   4.087
62238W        W34553  31.196   6.233   0.673
62239W        W34554   0.296  19.102   3.758
62240W        W34555  20.406  18.052   2.474
62241W        W34556   6.436  24.191  13.040
62242W        W34557  20.943  33.558   0.287
62243W        W34558  18.125  38.431   5.706
62244W        W34559  14.552  34.976  11.678
62245W        W34560  24.682  27.994   4.305
62246W        W34561  42.984  41.573  14.342
62247W        W34562  10.045  12.163   2.248
62248W        W34563  42.997  44.897   4.464
62249W        W34564   1.966  10.335  11.692
62250W        W34565  24.918  30.339   3.174
62251W        W34566  37.367  32.053   1.219
62252W        W34567  30.061  29.377  10.601
62253W        W34568   7.945   8.321   1.700
62254W        W34569   9.362  42.361  13.601
62255W        W34570  43.292  40.297   0.861
62256W        W34571  21.817  10.791   3.612
62257W        W34572   4.780  28.617   0.022
62258W        W34573  11.597  12.730   0.736
62259W        W34574  29.713  29.082   3.582
62260W        W34575  27.875  30.579  14.496
62261W        W34576   6.832  28.586   0.861
62262W        W34577  23.784  43.019   0.756
62263W        W34578  21.104   7.297  13.035
62264W        W34579  21.546   6.292  14.751
62265W        W34580  33.660  34.795  10.835
62266W        W34581  34.350  39.308  13.187
62267W        W34582  34.231  26.055   0.441
62268W        W34583  25.696  32.904  13.018
62269W        W34584  25.941  42.873   4.155
62270W        W34585   3.373   5.960  12.787
62271W        W34586  44.946  15.196  11.810
62272W        W34587   5.347  32.653  12.590
62273W        W34588  17.798  25.627  13.335
62274W        W34589  33.861  25.433   1.904
62275W        W34590   1.773  31.588  13.465
62276W        W34591   4.252   2.995   4.599
62277W        W34592  34.421   5.944   4.100
62278W        W34593  14.207  28.937   0.918
62279W        W34594  33.954  35.114   1.548
62280W        W34595  14.280  37.822   3.862
62281W        W34596  13.981  43.867  14.579
62282W        W34597   2.166  26.852   3.752
62283W        W34598  12.646  15.075   3.398
62284W        W34599  34.490  23.573  14.501
62285W        W34600  27.362   1.810  14.709
62286W        W34601  16.641   1.301   4.705
62287W        W34602   8.152  18.016  11.999
62288W        W34603  24.319  38.853  13.832
62289W        W34604  33.353  29.159  10.474
62290W        W34605  35.139   5.706   1.399
62291W        W34606  35.324  23.738   1.808
62292W        W34607  41.041  25.195   9.831
62293W        W34608  28.592  16.888   0.438
62294W        W34609  35.302   8.741  13.120
62295W        W34610   5.842  43.011  11.172
62296W        W34611  16.551  38.505  11.952
62297W        W34612  38.093  40.304  14.198
62298W        W34613   2.953   4.134  11.989
62299W        W34614  12.735  44.060   2.829
62300W        W34615  32.425  22.687   3.783
62301W        W34616   2.462  38.917   0.395
62302W        W34617  38.591  15.175   0.322
62303W        W34618  36.484   2.451   2.162
62304W        W34619  11.713  20.158   1.780
62305W        W34620  28.347   1.924   2.783
62306W        W34621  42.718  33.447  12.898
62307W        W34622   4.694  13.858  13.574
62308W        W34623  44.240  19.767   2.053
62309W        W34624  40.497   0.807  10.628
62310W        W34625  39.376  27.115   0.354
62311W        W34626   5.266  39.171  14.702
62312W        W34627  19.196   7.953   0.667
62313W        W34628  11.773  44.241  10.816
62314W        W34629  26.985  15.690  14.602
62315W        W34630   3.448  27.722   1.402
62316W        W34631  19.626  25.879  12.025
62317W        W34632  38.887  44.288   9.979
62318W        W34633  26.426  36.062  13.941
62319W        W34634  35.354  34.920   0.806
62320W        W34635  37.909  12.072   2.231
62321W        W34636   0.326   1.048   3.269
62322W        W34637  25.102  24.971   2.782
62323W        W34638  36.666   9.626   0.466
62324W        W34639  22.619  31.641   0.220
62325W        W34640  41.101   3.282  12.149
62326W        W34641   7.771   8.837  14.825
62327W        W34642  18.096  15.621  11.733
62328W        W34643  16.739  25.893   3.456
62329W        W34644  28.462  19.603  13.068
62330W        W34645  19.461  30.820   5.021
62331W        W34646  26.683  14.296   4.171
62332W        W34647  32.047  22.225   2.186
62333W        W34648  19.062  44.564   1.254
62334W        W34649   3.283  18.539  13.055
62335W        W34650  26.203  39.970  13.925
62336W        W34651   8.215  21.419  12.882
62337W        W34652   9.656  10.177  13.884
62338W        W34653  12.808  25.477   1.764
62339W        W34654  28.007  14.317  11.059
62340W        W34655  42.086  34.427   4.737
62341W        W34656   5.390  42.425  12.026
62342W        W34657   5.275   7.138  13.441
62343W        W34658  31.057   4.917  12.870
62344W        W34659   4.342  12.965   3.180
62345W        W34660   4.643  41.476  11.612
62346W        W34661  10.551  40.426  12.035
62347W        W34662  13.830   5.850  13.096
62348W        W34663  17.308  32.071  12.249
62349W        W34664  30.472  44.337  10.651
62350W        W34665   6.658   8.215   0.422
62351W        W34666  23.135  33.898  14.472
62352W        W34667  17.163  43.571   0.708
62353W        W34668  13.164   4.180  11.279
62354W        W34669   1.730  30.124  11.865
62355W        W34670  20.192  37.338  11.368
62356W        W34671   4.778  15.652  13.696
62357W        W34672  24.920  19.911  10.824
62358W        W34673   9.451   2.986   2.633
62359W        W34674  21.426  15.112   0.708
62360W        W34675   9.582  10.562   1.473
62361W        W34676  15.667  22.148  13.383
62362W        W34677   1.731  23.764   1.263
62363W        W34678   6.799  33.854  13.462
62364W        W34679  36.456  10.705   3.743
62365W        W34680  15.669  38.556   3.160
62366W        W34681   0.732  33.973   3.208
62367W        W34682   1.544  20.882   3.964
62368W        W34683   9.366  33.856   0.292
62369W        W34684  10.194  21.786   3.216
62370W        W34685  10.423  18.770  13.482
62371W        W34686  29.737   6.351   4.621
62372W        W34687   0.328  17.630  11.621
62373W        W34688   2.113  16.919   0.920
62374W        W34689   5.176  38.566   4.610
62375W        W34690  30.809  36.829  13.479
62376W        W34691  26.035  43.256  12.497
62377W        W34692  28.231  15.164   3.145
62378W        W34693   5.521  25.457  11.210
62379W        W34694  31.868  19.741   3.175
62380W        W34695  27.644  40.936  11.882
62381W        W34696  43.404  43.470   0.565
62382W        W34697  31.380  21.547  12.198
62383W        W34698  29.321  37.260  13.517
62384W        W34699  25.226  21.015   1.349
62385W        W34700  38.206  34.592   3.745
62386W        W34701  20.394  40.498   0.435
62387W        W34702  30.872  19.589  14.786
62388W        W34703  42.314  13.246   0.350
62389W        W34704  28.118  17.503   2.545
62390W        W34705  27.207  15.465   0.453
62391W        W34706  17.720   1.748   1.786
62392W        W34707  27.402  33.402   5.013
62393W        W34708  28.674  30.108  13.052
62394W        W34709  41.454   7.610   2.363
62395W        W34710  14.831   5.873  10.723
62396W        W34711   1.955  19.658   1.058
62397W        W34712   0.445  19.558  13.097
62398W        W34713  14.723  28.435   0.348
62399W        W34714  38.544   5.912   1.451
62400W        W34715  41.878  18.097   1.460
62401W        W34716  16.703  29.997  12.788
62402W        W34717   5.789  11.657  13.817
62403W        W34718   1.275  14.134   1.392
62404W        W34719  26.276  20.349  13.945
62405W        W34720  17.732  23.030   3.547
62406W        W34721   3.801  37.451   1.019
62407W        W34722  39.007  38.357   0.742
62408W        W34723  21.071  18.030  12.941
62409W        W34724  24.614   5.962  11.870
62410W        W34725  19.998  37.621  13.502
62411W        W34726  16.362  35.707  10.475
62412W        W34727  42.247   7.778   1.390
62413W        W34728  13.094  20.061  11.417
62414W        W34729  43.818  15.689   0.058
62415W        W34730  13.156   9.794  13.932
62416W        W34731  34.390  25.718   4.659
62417W        W34732   0.139  38.384  12.336
62418W        W34733   4.187  36.666  12.119
62419W        W34734   6.350  37.453   1.279
62420W        W34735  43.366  40.335   5.065
62421W        W34736  26.956  30.072  14.091
62422W        W34737  40.830  32.460   1.696
62423W        W34738  11.598  38.492  14.288
62424W        W34739  37.147  33.018   0.770
62425W        W34740  14.357   7.303  11.085
62426W        W34741  34.598  33.806  13.498
62427W        W34742   9.547  11.331  14.969
62428W        W34743  37.981   0.465  10.534
62429W        W34744   2.019   0.240   3.359
62430W        W34745  22.171   9.420  12.539
62431W        W34746   8.407  43.551  14.479
62432W        W34747  31.032   6.666   3.270
62433W        W34748  31.368  39.065  12.476
62434W        W34749   5.950   6.910  12.545
62435W        W34750  38.534   6.982  14.446
62436W        W34751   8.117  27.121   1.273
62437W        W34752  34.934   2.352  12.381
62438W        W34753  13.042  38.554   3.255
62439W        W34754   0.303  33.825  13.278
62440W        W34755  38.347  19.242  10.719
62441W        W34756  36.937  36.375   2.273
62442W        W34757   2.764  35.901  10.522
62443W        W34758   4.379  32.857  11.491
62444W        W34759  36.251  17.003   1.668
62445W        W34760  13.505   2.394  14.874
62446W        W34761  10.168  15.239   4.445
62447W        W34762  24.049  42.341  14.836
62448W        W34763  40.632  13.012  13.049
62449W        W34764  35.953  10.775  14.936
62450W        W34765  11.232  14.777   4.139
62451W        W34766  16.918  37.418   2.099
62452W        W34767   1.864  42.282   3.593
62453W        W34768  39.382   0.409   0.927
62454W        W34769  39.501  33.944  12.971
62455W        W34770  39.736   3.802  12.049
62456W        W34771  16.007  26.497   4.737
62457W        W34772  11.189  37.920  10.792
62458W        W34773  43.884  24.156  12.999
62459W        W34774   3.030  44.961   2.764
62460W        W34775  28.196  34.554   3.537
62461W        W34776   7.639  29.121   0.418
62462W        W34777  18.548  33.034  11.569
62463W        W34778  22.743  26.390  14.337
62464W        W34779  40.975  25.425   0.237
62465W        W34780  14.224  18.781  12.536
62466W        W34781  22.647  13.530  13.544
62467W        W34782  10.173  18.793   3.274
62468W        W34783  20.523  30.661   3.210
62469W        W34784   5.708  25.370  13.907
62470W        W34785  10.341  30.090  13.101
62471W        W34786  43.956   9.866   4.989
62472W        W34787  33.692  40.045  12.253
62473W        W34788  28.916  23.584  11.149
62474W        W34789  43.009   1.810  12.475
62475W        W34790  27.672  27.908   4.078
62476W        W34791   4.213  16.033  10.642
62477W        W34792  27.536  32.621  11.555
62478W        W34793   1.593  31.381  12.477
62479W        W34794  40.375  26.182  13.704
62480W        W34795  29.378  11.132  12.722
62481W        W34796   1.570  23.040   2.285
62482W        W34797  14.910   5.861  11.674
62483W        W34798  21.019  31.115  14.763
62484W        W34799  19.130  19.646   4.726
62485W        W34800  22.099  42.666  12.997
62486W        W34801  20.169  37.460   3.834
62487W        W34802  10.622  39.519   1.717
62488W        W34803  22.221   9.842  13.273
62489W        W34804   6.627  23.601   2.312
62490W        W34805  40.547   7.672  14.904
62491W        W34806  21.770   3.214   1.308
62492W        W34807  40.055  40.399  11.977
62493W        W34808  23.247  14.298  12.329
62494W        W34809  33.309  37.081   4.147
62495W        W34810  20.582  40.460  14.739
62496W        W34811   5.165  44.507  10.672
62497W        W34812  36.082  31.172  13.839
62498W        W34813  32.079  28.235  11.268
62499W        W34814  31.437  29.963  12.931
62500W        W34815  41.616  37.640  12.289
62501W        W34816  27.086  10.439  13.993
62502W        W34817  29.139  14.692   4.652
62503W        W34818  10.233  15.511  10.141
62504W        W34819   4.858  43.367   1.803
62505W        W34820  31.578  34.082   3.169
62506W        W34821  34.441  38.049   1.653
62507W        W34822  34.891  29.633  14.291
62508W        W34823  33.175  20.974  10.749
62509W        W34824   5.240  16.101   4.339
62510W        W34825   4.249   4.700   2.807
62511W        W34826  36.000  19.996  12.079
62512W        W34827  12.681  23.585   1.821
62513W        W34828  41.268  18.508  14.913
62514W        W34829  43.601  15.666   3.084
62515W        W34830  44.381  22.991  10.584
62516W        W34831  39.655   0.819  12.031
62517W        W34832   0.268  41.943   0.547
62518W        W34833  33.190   1.931   2.942
62519W        W34834   6.890   5.307   1.444
62520W        W34835  44.294  19.312   4.592
62521W        W34836  13.321  26.639   4.349
62522W        W34837  39.582   8.657   3.288
62523W        W34838   2.988  28.906  11.172
62524W        W34839  13.631   8.821   1.176
62525W        W34840  23.736  17.328   1.414
62526W        W34841  28.126  43.996  10.304
62527W        W34842  21.273   9.910  12.644
62528W        W34843  15.782  32.195   4.594
62529W        W34844  23.418  13.443   2.392
62530W        W34845  18.066  38.819   3.704
62531W        W34846   3.280   3.556   1.858
62532W        W34847  15.056   0.439  14.131
62533W        W34848  41.348   1.029   1.439
62534W        W34849  42.751   1.451  13.985
62535W        W34850  20.813  23.937   3.837
62536W        W34851  34.033  35.505   2.374
62537W        W34852   0.620  44.374  14.461
62538W        W34853  14.122  16.816  13.502
62539W        W34854   6.094  38.275   3.032
62540W        W34855   3.488  16.109   1.339
62541W        W34856  33.824  28.359  13.381
62542W        W34857  22.989  20.273  10.734
62543W        W34858  14.759  40.472  12.882
62544W        W34859   9.222  10.204  10.519
62545W        W34860  21.185  14.292   2.363
62546W        W34861  34.783   3.691  12.934
62547W        W34862   2.768  34.840   0.320
62548W        W34863  10.245  20.787  13.736
62549W        W34864  29.856  38.997   1.012
62550W        W34865  17.152  30.719   4.443
62551W        W34866   9.303  43.945  14.186
62552W        W34867  24.155  13.676   1.894
62553W        W34868  22.757  38.953  12.568
62554W        W34869  32.873  23.049   4.329
62555W        W34870   4.428  15.187  11.441
62556W        W34871  16.136  41.405   3.802
62557W        W34872  42.534   5.187  10.708
62558W        W34873  14.118  29.399   1.969
62559W        W34874   3.633  23.941   3.767
62560W        W34875  11.606  31.928  14.226
62561W        W34876   4.361  15.646   1.362
62562W        W34877  40.315  44.006   0.422
62563W        W34878  20.952   9.971   3.685
62564W        W34879  34.927  26.246  14.577
62565W        W34880  40.007  28.047   1.743
62566W        W34881  38.876  44.585  11.482
62567W        W34882  27.286   8.055  13.563
62568W        W34883  18.820  28.079  11.966
62569W        W34884  15.031  30.494   1.676
62570W        W34885  18.645   1.398  14.431
62571W        W34886   7.659  27.809   3.078
62572W        W34887   5.429  15.707  12.944
62573W        W34888  39.425  21.971   2.845
62574W        W34889  27.021  19.645   2.266
62575W        W34890  17.020  10.890   0.018
62576W        W34891  19.250  38.400   5.009
62577W        W34892  22.779  43.973  11.968
62578W        W34893  25.528  20.611  14.308
62579W        W34894  27.116  39.316   1.062
62580W        W34895  36.007  14.347  13.419
62581W        W34896   0.264  15.586   3.810
62582W        W34897  12.185  39.356  10.893
62583W        W34898  35.798  32.104  11.081
62584W        W34899  12.355  19.988  11.986
62585W        W34900  43.023  31.501  14.932
62586W        W34901  39.331  18.557  11.562
62587W        W34902  11.632  37.961  13.609
62588W        W34903  22.881   2.424  14.087
62589W        W34904  25.604  21.788   5.513
62590W        W34905  11.299   3.499   0.019
62591W        W34906   2.746  20.595   1.761
62592W        W34907  35.606  26.035  13.772
62593W        W34908  33.921  27.093  13.049
62594W        W34909  22.491  33.985  10.989
62595W        W34910  20.021  32.901  12.559
62596W        W34911  11.991   1.220   3.603
62597W        W34912  14.290  19.503   2.905
62598W        W34913  31.046  34.650   1.299
62599W        W34914  17.569  42.290  13.091
62600W        W34915  28.099  29.852   1.928
62601W        W34916  20.940   9.249   0.258
62602W        W34917  39.470  37.123  14.293
62603W        W34918  25.195  43.462  10.378
62604W        W34919  36.547  14.648   3.561
62605W        W34920  25.572  37.473  11.108
62606W        W34921  30.671  30.482   2.241
62607W        W34922  12.871  20.422   1.279
62608W        W34923   6.206   3.369  14.547
62609W        W34924  28.161  36.144   3.832
62610W        W34925  17.278  13.060   3.705
62611W        W34926  10.392  12.810   3.371
62612W        W34927   6.017   2.297  12.463
62613W        W34928  22.255  25.425  11.559
62614W        W34929  35.652   8.458   2.506
62615W        W34930  19.386  25.323  11.158
62616W        W34931  40.413  23.897  13.390
62617W        W34932   5.669  15.999   2.927
62618W        W34933  15.986  30.165   3.944
62619W        W34934  27.863  28.635  14.297
62620W        W34935  43.717  33.465  13.013
62621W        W34936  25.513  36.473   1.643
62622W        W34937  13.220  12.002  14.424
62623W        W34938  34.313  41.112  11.652
62624W        W34939  44.786  17.769  13.368
62625W        W34940   5.264  21.061   2.651
62626W        W34941  15.079  20.959   3.674
62627W        W34942  35.069   6.236  14.932
62628W        W34943  17.015  44.254   3.637
62629W        W34944   5.582  29.468   1.039
62630W        W34945  15.016  29.546  13.897
62631W        W34946  20.186   0.756  10.104
62632W        W34947  39.295  16.666  14.606
62633W        W34948  14.703  39.597   3.871
62634W        W34949  13.052  42.478   3.176
62635W        W34950  26.913  24.576   2.392
62636W        W34951   1.165  29.567  13.358
62637W        W34952  12.141  15.300   1.418
62638W        W34953  11.935  37.600  14.736
62639W        W34954   1.433  35.091  11.556
62640W        W34955   7.223  39.552  12.822
62641W        W34956   4.795  22.195   4.087
62642W        W34957  36.574  37.578  12.143
62643W        W34958  29.324  12.807  11.893
62644W        W34959  10.201  35.843  14.281
62645W        W34960  33.684  32.048  11.886
62646W        W34961   9.735  29.083   2.600
62647W        W34962  10.895  14.229  11.029
62648W        W34963  14.778  38.834  11.192
62649W        W34964  29.638  42.010   3.097
62650W        W34965   2.851  42.253   4.310
62651W        W34966  15.336   6.363  14.999
62652W        W34967  26.684   8.383   2.781
62653W        W34968  38.779  41.761  12.646
62654W        W34969   5.451   4.720  11.491
62655W        W34970  28.074  41.529  14.789
62656W        W34971  37.644  19.260  13.875
62657W        W34972  16.318  20.064   2.321
62658W        W34973  16.540  22.750   2.708
62659W        W34974  39.913  36.900   3.653
62660W        W34975  21.063   2.972  13.072
62661W        W34976  24.697  22.433   1.289
62662W        W34977   1.855  39.298   2.881
62663W        W34978  21.450  44.474   4.213
62664W        W34979  22.598  38.127  13.615
62665W        W34980  24.364  26.654   3.346
62666W        W34981  12.320  14.792  12.320
62667W        W34982   6.283   5.689  10.274
62668W        W34983  33.794  24.446   4.166
62669W        W34984  42.590   7.285  13.522
62670W        W34985   5.254   8.144  13.368
62671W        W34986  35.894  26.661   1.341
62672W        W34987  24.432  44.756  13.966
62673W        W34988  20.047  10.698  11.092
62674W        W34989  42.006  26.503  11.761
62675W        W34990  39.834  10.977   1.318
62676W        W34991  13.130  32.967  13.276
62677W        W34992  34.192  30.151  12.632
62678W        W34993  38.901  40.007  14.558
62679W        W34994  13.329  31.940   0.458
62680W        W34995  19.272  11.795   2.197
62681W        W34996  22.533  11.115  14.774
62682W        W34997   6.768  35.881   0.065
62683W        W34998   4.950   6.286  11.017
62684W        W34999  37.203  29.133   2.328
62685W        W35000  17.764  13.734  13.075
62686W        W35001  18.907  39.739  12.524
62687W        W35002  18.647  36.103   2.344
62688W        W35003  32.839  30.029   0.947
62689W        W35004  30.988   2.835  13.871
62690W        W35005  32.154  34.331  14.782
62691W        W35006   3.944  38.082  12.875
62692W        W35007  15.310  31.025  12.520
62693W        W35008  32.991  25.089   0.919
62694W        W35009  16.987  37.157   2.896
62695W        W35010   7.261  42.868  13.367
62696W        W35011  11.509   7.140  14.866
62697W        W35012  25.531  25.223   2.898
62698W        W35013  39.978   8.280   1.362
62699W        W35014   5.845  31.477  11.622
62700W        W35015  20.187  42.990  11.050
62701W        W35016  33.977   3.220  13.803
62702W        W35017  40.921  18.742  10.408
62703W        W35018  22.450   8.768  13.965
62704W        W35019  43.547  12.879  12.038
62705W        W35020  28.531  36.393   0.520
62706W        W35021  18.074   3.690   1.699
62707W        W35022  18.609  14.840   4.785
62708W        W35023  38.422  43.012   2.713
62709W        W35024  26.124  44.052   3.886
62710W        W35025  24.645  27.774   3.796
62711W        W35026  19.591  23.560  12.553
62712W        W35027  38.287   2.535   4.807
62713W        W35028   1.813   1.799   0.182
62714W        W35029   6.584  39.873   4.037
62715W        W35030   3.905  13.241   4.812
62716W        W35031  14.343  40.827  12.948
62717W        W35032  28.497  28.888  13.900
62718W        W35033   3.527  34.471   1.334
62719W        W35034  34.289  44.352   3.608
62720W        W35035  14.544  19.548  12.060
62721W        W35036  36.910   1.186   1.281
62722W        W35037  30.716  41.572   1.409
62723W        W35038  27.004  35.958   2.349
62724W        W35039  32.179  33.128   3.160
62725W        W35040  29.696  27.032   0.060
62726W        W35041   6.500  20.672   4.049
62727W        W35042  38.962  15.282  10.385
62728W        W35043  21.068  39.052  14.343
62729W        W35044  13.618  33.401   1.612
62730W        W35045  38.146  18.558  14.523
62731W        W35046  44.524  15.749   1.403
62732W        W35047  38.892  32.233   2.427
62733W        W35048   1.743   1.170   0.351
62734W        W35049  17.041  18.283   4.590
62735W        W35050  23.772  12.341  11.893
62736W        W35051  34.979  44.402  11.663
62737W        W35052  36.326  38.000   0.435
62738W        W35053  41.032  37.726  11.412
62739W        W35054  18.054  11.318   9.791
62740W        W35055  29.753  40.595   4.125
62741W        W35056   6.446  22.248   1.935
62742W        W35057  18.597  17.383  14.800
62743W        W35058  21.109  15.229   4.057
62744W        W35059   5.337  41.788   2.607
62745W        W35060  28.684   7.405   0.162
62746W        W35061  22.682   8.345  14.634
62747W        W35062  17.303  30.521  11.850
62748W        W35063  14.308   9.212   2.608
62749W        W35064  16.821  42.882  12.258
62750W        W35065  12.623  20.682   2.719
62751W        W35066  14.158   9.074  14.955
62752W        W35067  26.072   9.407   0.331
62753W        W35068   4.302  20.982   2.591
62754W        W35069   8.880  34.514  13.034
62755W        W35070  25.130   8.413  13.795
62756W        W35071   3.972   8.276   1.031
62757W        W35072  38.859  28.522   4.735
62758W        W35073  27.241  18.767  14.329
62759W        W35074  18.225  26.483  10.455
62760W        W35075   1.872  23.806   2.638
62761W        W35076   3.857  43.256   0.429
62762W        W35077  10.289  27.813   2.281
62763W        W35078  26.500   7.886   2.814
62764W        W35079  20.107  29.403   0.890
62765W        W35080  29.066  40.537  12.435
62766W        W35081  24.086   9.011   4.991
62767W        W35082  17.442  32.156   1.820
62768W        W35083  40.426   1.552   3.597
62769W        W35084  11.386  35.343   0.405
62770W        W35085  29.423   5.733   4.527
62771W        W35086  15.332  11.062   3.284
62772W        W35087   9.890  30.636  10.748
62773W        W35088  26.018  18.659  11.066
62774W        W35089  32.783  39.877  12.390
62775W        W35090  32.034   6.221  10.630
62776W        W35091  12.087  28.496   4.806
62777W        W35092  30.615  32.648   1.879
62778W        W35093  33.097   9.954   4.090
62779W        W35094  33.492  40.337   5.052
62780W        W35095  20.310  41.504   3.838
62781W        W35096  12.840  12.347  12.771
62782W        W35097  44.376   9.556  11.260
62783W        W35098  43.123   1.389   0.391
62784W        W35099  26.938   2.983   3.122
62785W        W35100  19.082  31.766   3.341
62786W        W35101  36.364  35.511  14.902
62787W        W35102  20.213  34.145  13.487
62788W        W35103   4.510  13.680  10.929
62789W        W35104  12.318  33.630   2.007
62790W        W35105  22.795  35.481  12.546
62791W        W35106   3.897  26.126  12.099
62792W        W35107  16.730  23.229   0.496
62793W        W35108   3.616  36.164  14.917
62794W        W35109  26.974  44.491   3.845
62795W        W35110  43.514  34.831  13.172
62796W        W35111  31.641  14.695  13.918
62797W        W35112   8.833  20.510  12.433
62798W        W35113  37.147  39.117   3.743
62799W        W35114  19.704  26.934  13.076
62800W        W35115  30.060  13.219  11.945
62801W        W35116  16.068  42.726  13.362
62802W        W35117  42.686  21.596  10.743
62803W        W35118  12.872  21.797  14.454
62804W        W35119  13.324  21.718  14.124
62805W        W35120  34.071  11.216   1.771
62806W        W35121   5.834  35.002   5.013
62807W        W35122  16.660   2.274   3.766
62808W        W35123  42.725  13.211   2.319
62809W        W35124   2.373  18.720   3.219
62810W        W35125  15.104  40.358   1.947
62811W        W35126  42.941  33.064  14.204
62812W        W35127  24.125  39.102   4.543
62813W        W35128  40.580  36.186   3.861
62814W        W35129  37.089  44.811   0.212
62815W        W35130  40.343  40.087   2.459
62816W        W35131  14.748  20.344   1.103
62817W        W35132  14.880  42.869   1.384
62818W        W35133   0.276  20.563   0.992
62819W        W35134  10.904  14.098  11.956
62820W        W35135  32.823  35.612  14.224
62821W        W35136  11.154  15.617  14.571
62822W        W35137  14.197  32.840  11.202
62823W        W35138  41.931  10.070   2.470
62824W        W35139  16.763  21.019  13.230
62825W        W35140  23.491   2.196  12.082
62826W        W35141  31.414  29.748   2.801
62827W        W35142  13.816  10.258   1.891
62828W        W35143  41.100  27.086  13.782
62829W        W35144  11.174   9.121   3.515
62830W        W35145  27.815  21.092   3.186
62831W        W35146  44.827  28.662   0.287
62832W        W35147  44.233  12.304   0.494
62833W        W35148  37.362  31.007  11.653
62834W        W35149  22.167  39.067   1.750
62835W        W35150   6.496  18.742  11.680
62836W        W35151  42.699  17.719  14.697
62837W        W35152  22.138  31.050   2.895
62838W        W35153   6.890  43.355   3.904
62839W        W35154  28.186  29.101   0.750
62840W        W35155  16.727  30.156   9.797
62841W        W35156  12.955  36.141   0.928
62842W        W35157  33.099  21.083  14.280
62843W        W35158  20.303  44.407  10.371
62844W        W35159  33.618  12.352  13.121
62845W        W35160   9.113  43.682   4.250
62846W        W35161  16.570  17.249  10.347
62847W        W35162   2.353  16.268   0.010
62848W        W35163  11.801  18.250  10.257
62849W        W35164  18.555   8.322   1.854
62850W        W35165  17.549  39.498  14.784
62851W        W35166  31.610  11.283  11.873
62852W        W35167  43.845  43.279   3.171
62853W        W35168  11.895  16.165  13.078
62854W        W35169   0.703  10.639   0.999
62855W        W35170   1.231  26.147  13.780
62856W        W35171  35.850   0.218  14.347
62857W        W35172   3.257  43.344  11.179
62858W        W35173  13.147  18.069  12.794
62859W        W35174  27.613  14.867   2.243
62860W        W35175  38.318  36.154  14.274
62861W        W35176  42.213  42.749   1.432
62862W        W35177  37.570  17.230   1.278
62863W        W35178  29.749  21.297  13.918
62864W        W35179   6.897   2.567   1.896
62865W        W35180   5.870  29.622  10.698
62866W        W35181  19.605  44.646  11.982
62867W        W35182  28.852  23.361  11.633
62868W        W35183   5.986  20.722   4.117
62869W        W35184  10.763  11.418   2.218
62870W        W35185  23.149  16.112  11.962
62871W        W35186  34.550  19.990   3.836
62872W        W35187  23.028  41.219   2.756
62873W        W35188  37.342  10.148  10.691
62874W        W35189  40.096   5.975  13.552
62875W        W35190  32.964   8.763  11.958
62876W        W35191  13.128  37.112  12.387
62877W        W35192  19.196  20.671  10.564
62878W        W35193  18.227  22.669   3.439
62879W        W35194  38.815  38.955   4.242
62880W        W35195  26.189   5.527  14.563
62881W        W35196  35.134  41.274   2.891
62882W        W35197  19.074  24.999   1.983
62883W        W35198  16.347   5.597  13.865
62884W        W35199  36.609   1.220  12.469
62885W        W35200  29.472   1.209  12.598
62886W        W35201  29.611   4.830  11.942
62887W        W35202  41.349   0.992   4.250
62888W        W35203   4.286  26.589   2.712
62889W        W35204  17.583  25.581   0.838
62890W        W35205  35.016  32.648   2.234
62891W        W35206  17.135  41.874  10.428
62892W        W35207  24.090  13.497   0.347
62893W        W35208  41.294  15.004  13.635
62894W        W35209  16.030  34.347   1.412
62895W        W35210  23.135  15.075   1.505
62896W        W35211  41.277  22.689   1.986
62897W        W35212  27.204  38.962   0.640
62898W        W35213   4.296  41.936  12.363
62899W        W35214  24.696   6.358  10.896
62900W        W35215  22.814  12.835  12.988
62901W        W35216   9.324  35.011  14.665
62902W        W35217   5.334  30.125   4.519
62903W        W35218  36.937  14.303  11.505
62904W        W35219  15.130  33.738  12.419
62905W        W35220  14.437   5.863  14.974
62906W        W35221  27.095   4.327  14.661
62907W        W35222  31.506  21.014   0.494
62908W        W35223  15.630  32.230  12.054
62909W        W35224   9.028  12.858   4.178
62910W        W35225  15.811  29.795   0.553
62911W        W35226  17.243  19.762   2.566
62912W        W35227  30.701   4.220  12.891
62913W        W35228  43.805  29.508  11.138
62914W        W35229  40.272  34.562  14.114
62915W        W35230  32.588   8.852   4.589
62916W        W35231  37.977  29.038   4.042
62917W        W35232  17.697  23.756   1.175
62918W        W35233  42.108  38.887   0.834
62919W        W35234   2.457  35.611   1.398
62920W        W35235  31.502  16.873   3.184
62921W        W35236  15.044  15.352   0.340
62922W        W35237   8.301  17.591   0.803
62923W        W35238  43.514   5.256  12.970
62924W        W35239  11.801  31.091  14.060
62925W        W35240   3.907  44.270   0.225
62926W        W35241   1.597  44.410  10.858
62927W        W35242   2.485  42.511  13.535
62928W        W35243  10.924  12.787  11.515
62929W        W35244  35.787  42.024   2.837
62930W        W35245  36.045  39.921  10.714
62931W        W35246   1.210  44.358  12.173
62932W        W35247   8.449  44.259  11.752
62933W        W35248  37.755  22.731   3.615
62934W        W35249  17.676  26.633  12.807
62935W        W35250  38.754  27.993  12.901
62936W        W35251  38.093   7.119   4.616
62937W        W35252  23.272   6.149  10.996
62938W        W35253  42.436  22.771   0.856
62939W        W35254   1.217  34.576  14.905
62940W        W35255  19.344  17.245  11.160
62941W        W35256  44.431  43.666   4.517
62942W        W35257  33.822   0.462   0.526
62943W        W35258  20.077  18.593  13.375
62944W        W35259  13.002  28.980   4.695
62945W        W35260  38.630  31.184   0.312
62946W        W35261  26.594  30.026  13.419
62947W        W35262  21.911   6.007   4.558
62948W        W35263  25.095  24.693  13.330
62949W        W35264  28.207   0.771   1.383
62950W        W35265  20.905  16.134  14.901
62951W        W35266   5.885  25.184  14.370
62952W        W35267  33.116   2.714  13.924
62953W        W35268   2.762  41.401  11.942
62954W        W35269  44.490  39.399  10.733
62955W        W35270  16.962  19.706  12.587
62956W        W35271  24.200  29.508   0.316
62957W        W35272  30.559   2.412   4.041
62958W        W35273  26.925   4.222   0.139
62959W        W35274  37.577  36.157   1.686
62960W        W35275   2.144   3.415  12.467
62961W        W35276   5.597   6.219   1.251
62962W        W35277  24.503  33.617   0.284
62963W        W35278   7.772   0.265   3.488
62964W        W35279  22.581  30.677  10.152
62965W        W35280  20.257  11.948  12.898
62966W        W35281   3.695  38.883  12.195
62967W        W35282  41.908  41.380   3.223
62968W        W35283  27.747  43.781  13.118
62969W        W35284  42.839  31.179   2.247
62970W        W35285  28.600  44.252  14.086
62971W        W35286   7.238  11.179   0.533
62972W        W35287  21.759  29.854  14.823
62973W        W35288  34.505  21.218   3.184
62974W        W35289  37.328  30.036  14.425
62975W        W35290   8.803   6.455   1.093
62976W        W35291  26.673  32.767   0.415
62977W        W35292  44.549  35.874  11.587
62978W        W35293  11.438  12.826  11.577
62979W        W35294  18.635  15.588   2.412
62980W        W35295   3.042  34.389   2.408
62981W        W35296  27.567   0.895  13.283
62982W        W35297  40.204  18.309  11.199
62983W        W35298  10.993   7.371   2.154
62984W        W35299   4.461   7.278  12.370
62985W        W35300  16.339  33.125  14.917
62986W        W35301   9.969   0.999   1.847
62987W        W35302  38.636  24.381   2.213
62988W        W35303  27.591  33.852   1.217
62989W        W35304  36.052  14.730  14.998
62990W        W35305  40.191  16.358  11.973
62991W        W35306   8.622  22.507  13.437
62992W        W35307  18.166  44.156  11.483
62993W        W35308  35.419  32.104   1.751
62994W        W35309  44.750   5.199  12.484
62995W        W35310  32.348   6.431  12.593
62996W        W35311  21.021   5.449  10.753
62997W        W35312  26.144  42.867  13.107
62998W        W35313  42.559  44.073  13.315
62999W        W35314  31.388  33.066  14.399
63000W        W35315  31.563  41.917   2.629
63001W        W35316   7.741  19.167   4.928
63002W        W35317  30.636  36.189  11.002
63003W        W35318  29.943  14.132   4.516
63004W        W35319  39.320   7.249  11.979
63005W        W35320  32.969  15.719   1.088
63006W        W35321  24.368  15.728  10.762
63007W        W35322  11.662  11.162   1.704
63008W        W35323  12.807  24.645   4.249
63009W        W35324  28.235  19.100   0.984
63010W        W35325   6.094   5.976  12.463
63011W        W35326   8.479  44.716   1.867
63012W        W35327  13.726  19.045  11.534
63013W        W35328  35.504  42.726  11.980
63014W        W35329  23.051   2.842   4.019
63015W        W35330  15.590  27.165  13.780
63016W        W35331  25.789   0.902  10.721
63017W        W35332   7.458  38.005   1.302
63018W        W35333  22.218  23.612   2.125
63019W        W35334   6.103  32.072  11.016
63020W        W35335   4.448  12.690  13.020
63021W        W35336  41.269  25.677   3.729
63022W        W35337  24.661  41.054   0.716
63023W        W35338  19.692  39.299  11.075
63024W        W35339  26.613  30.909  12.625
63025W        W35340  19.373  40.235  11.583
63026W        W35341  43.315  15.113  11.135
63027W        W35342  26.454  43.257   0.363
63028W        W35343  43.356  19.361  12.002
63029W        W35344  18.611  24.766  10.764
63030W        W35345  33.275  41.624  14.801
63031W        W35346  11.621  44.354   4.980
63032W        W35347  34.397  26.741   9.875
63033W        W35348  11.766  25.231   2.902
63034W        W35349   8.571   5.724  13.292
63035W        W35350  17.039   3.328   1.398
63036W        W35351  11.209  20.690  10.847
63037W        W35352  42.115  34.604  11.332
63038W        W35353  27.157  35.432  14.845
63039W        W35354  26.786  29.370  14.670
63040W        W35355  27.083   1.922   3.546
63041W        W35356  38.522  41.641   1.934
63042W        W35357  32.979  11.238   4.583
63043W        W35358  35.919  44.030  13.440
63044W        W35359   5.146  14.664  11.552
63045W        W35360  22.236  29.401  13.379
63046W        W35361   4.213   2.052  11.801
63047W        W35362  14.256  21.391   2.691
63048W        W35363  33.561  24.169   3.483
63049W        W35364  43.796  31.230  13.559
63050W        W35365  19.676  10.520   5.173
63051W        W35366  26.584  29.459  14.180
63052W        W35367  14.254   0.411  12.279
63053W        W35368  19.549   5.305  14.834
63054W        W35369  17.238  31.654  14.457
63055W        W35370  27.526  26.996   0.491
63056W        W35371   7.169  23.979  10.829
63057W        W35372  24.429  13.851  13.958
63058W        W35373  39.013  42.282   4.238
63059W        W35374  15.269  40.026   2.409
63060W        W35375  11.843  25.926   3.678
63061W        W35376  40.525   9.255   2.522
63062W        W35377  43.838  11.210  10.207
63063W        W35378  43.426  42.553   1.163
63064W        W35379  15.521   5.445   3.031
63065W        W35380  39.861  38.088   0.402
63066W        W35381  42.477  31.495  12.907
63067W        W35382  18.546  36.839  11.422
63068W        W35383  41.548  16.788  11.479
63069W        W35384  20.325  20.850   0.705
63070W        W35385  35.882  20.790  12.521
63071W        W35386  34.009  35.935  14.776
63072W        W35387  20.748  39.410  13.142
63073W        W35388  20.624   5.373  13.976
63074W        W35389  35.810   3.818  13.048
63075W        W35390   5.381  15.129  14.780
63076W        W35391  14.057  19.290  10.377
63077W        W35392   0.221   9.727   2.887
63078W        W35393  27.319  26.207  14.892
63079W        W35394  25.706  38.993  11.504
63080W        W35395  19.194   0.192   2.418
63081W        W35396  44.032  14.131   2.673
63082W        W35397  14.284  24.206  12.122
63083W        W35398  31.197   3.795  14.755
63084W        W35399  43.211  17.330  13.874
63085W        W35400   4.222  17.764  11.733
63086W        W35401  37.977  10.927   0.177
63087W        W35402  11.891   3.764  11.168
63088W        W35403  27.195  37.597  12.122
63089W        W35404  17.460  20.224   2.412
63090W        W35405  43.949   3.508  11.518
63091W        W35406  23.569  31.127  13.242
63092W        W35407   1.022  12.169   0.797
63093W        W35408  31.941  43.903   4.431
63094W        W35409   2.242  13.163   3.748
63095W        W35410  14.690  10.854  12.566
63096W        W35411  34.021  41.332  10.457
63097W        W35412  23.611  42.871  14.257
63098W        W35413   6.104   3.974   0.963
63099W        W35414  40.879  11.559   5.011
63100W        W35415   5.999  30.096  13.972
63101W        W35416  36.012  10.366  14.523
63102W        W35417  22.243   1.292   0.226
63103W        W35418  17.820  20.762   4.643
63104W        W35419  10.311  16.806  13.704
63105W        W35420   8.631  44.521   2.804
63106W        W35421  42.524  42.910  13.002
63107W        W35422  29.059   1.296   0.066
63108W        W35423  21.936   8.957  14.336
63109W        W35424   5.547  44.759   4.043
63110W        W35425  28.041  19.870  12.941
63111W        W35426  24.901   1.969  14.955
63112W        W35427  17.007   3.247   0.331
63113W        W35428  15.072   1.778   2.158
63114W        W35429  16.692   5.842   1.794
63115W        W35430  30.167   7.410  12.500
63116W        W35431   3.783  38.381  12.046
63117W        W35432  11.955  35.469  14.224
63118W        W35433   2.905   0.254  14.343
63119W        W35434  31.165   8.387  13.827
63120W        W35435  24.365  13.829  12.094
63121W        W35436  41.754   5.559   1.643
63122W        W35437   9.055  22.672  10.479
63123W        W35438   6.406  31.981   2.561
63124W        W35439  33.664   6.334  14.546
63125W        W35440  14.193   5.298   3.808
63126W        W35441  34.405  31.036  12.930
63127W        W35442   4.394   0.157  12.904
63128W        W35443  29.785  23.773  11.399
63129W        W35444  30.533  19.303   0.730
63130W        W35445  20.080  43.532   1.917
63131W        W35446  35.427  39.346  12.962
63132W        W35447   8.882  12.301  10.736
63133W        W35448  41.832   2.291  11.142
63134W        W35449  12.847  43.981  12.903
63135W        W35450   7.933  15.787   4.168
63136W        W35451  32.562   0.880   4.803
63137W        W35452   9.496  41.511  12.185
63138W        W35453   9.437   9.859   1.781
63139W        W35454  43.559   9.672   3.636
63140W        W35455  22.030  27.963   2.299
63141W        W35456   5.990   8.660   3.372
63142W        W35457  33.901  30.469  11.607
63143W        W35458  19.247  32.433   1.681
63144W        W35459  38.321  34.667   2.651
63145W        W35460  11.707   8.614  10.741
63146W        W35461  11.134  40.211   0.436
63147W        W35462  40.780  10.151  13.032
63148W        W35463  32.421  12.795  12.824
63149W        W35464   4.908  43.283   0.819
63150W        W35465  41.601  34.954  13.381
63151W        W35466  14.699   5.409   2.190
63152W        W35467   1.553  24.086  13.334
63153W        W35468  17.972   3.154  10.733
63154W        W35469  17.220  29.099   2.187
63155W        W35470  11.229  14.639   3.208
63156W        W35471  42.248   5.607   1.798
63157W        W35472  25.236  13.671  13.500
63158W        W35473  33.527  32.624  14.862
63159W        W35474  21.325   5.857  10.881
63160W        W35475  18.148  41.505  12.921
63161W        W35476  42.059  14.717   0.697
63162W        W35477   7.797  26.310  12.441
63163W        W35478  30.307  26.532  14.040
63164W        W35479  25.709   0.805  11.583
63165W        W35480   1.358  30.480   1.435
63166W        W35481  42.980  15.076   3.639
63167W        W35482  17.178  23.972  11.435
63168W        W35483   7.831   7.038  10.353
63169W        W35484  36.536   8.784  14.447
63170W        W35485  16.375   2.246  12.895
63171W        W35486   9.790  15.087  13.345
63172W        W35487   8.961  16.285  11.821
63173W        W35488  32.951  10.591   3.405
63174W        W35489  20.068  16.663   3.708
63175W        W35490  30.999  33.648  12.793
63176W        W35491  29.101   6.360   2.902
63177W        W35492   6.003  17.684  10.621
63178W        W35493  26.916   9.823  12.290
63179W        W35494   7.859  42.019  11.621
63180W        W35495  29.574  34.265   3.245
63181W        W35496  39.418  26.009  10.601
63182W        W35497  17.047  41.731   2.347
63183W        W35498   8.319   5.986  11.701
63184W        W35499  12.634   1.800   3.613
63185W        W35500  40.031  34.168   1.874
63186W        W35501  18.472  19.875   1.372
63187W        W35502  27.177   7.741  13.961
63188W        W35503  14.025  33.120  11.609
63189W        W35504   0.964  33.188   5.482
63190W        W35505  18.725  16.597  11.180
63191W        W35506  36.624  44.964   1.843
63192W        W35507  44.911  10.899  14.939
63193W        W35508  23.645   4.570  13.839
63194W        W35509  10.628  22.402   3.751
63195W        W35510  23.675  44.386   3.253
63196W        W35511  15.810  15.512  11.909
63197W        W35512  24.311   0.009  14.872
63198W        W35513   6.895   3.330  13.030
63199W        W35514  44.712  44.926  14.934
63200W        W35515  27.576  28.001  12.507
63201W        W35516  30.737  22.560   5.035
63202W        W35517   2.980  40.409   4.328
63203W        W35518  19.514  34.354   2.313
63204W        W35519   8.558  38.346   1.018
63205W        W35520   1.760  29.943  14.266
63206W        W35521  25.480  24.981   1.001
63207W        W35522  39.448  33.332   4.151
63208W        W35523  20.009   3.266   4.748
63209W        W35524  31.850   5.465  13.912
63210W        W35525  38.427  17.730   1.525
63211W        W35526  39.972  36.852   2.102
63212W        W35527  22.813  23.283   2.290
63213W        W35528  39.288  15.658  10.624
63214W        W35529  25.090  19.531   2.701
63215W        W35530  21.326  42.444  10.584
63216W        W35531   9.811  10.352  12.999
63217W        W35532  37.920  13.233   2.776
63218W        W35533  13.552  44.784   3.225
63219W        W35534  15.212  35.384   1.790
63220W        W35535  10.551  25.063  13.036
63221W        W35536   5.217  17.821   4.696
63222W        W35537  14.068  22.510  12.857
63223W        W35538   5.454  41.508  12.576
63224W        W35539  18.670  41.104   9.891
63225W        W35540  17.374  26.464  11.095
63226W        W35541  31.906  23.298   1.407
63227W        W35542  35.607  25.237  13.527
63228W        W35543  41.555  27.639  12.129
63229W        W35544   8.414   3.498  11.007
63230W        W35545  10.742  21.956  11.968
63231W        W35546   7.040  34.765   1.952
63232W        W35547   4.757  11.658  12.276
63233W        W35548  35.385  22.601   2.314
63234W        W35549   6.902  24.030  12.822
63235W        W35550  12.748  40.736   3.773
63236W        W35551   9.204   4.676   2.862
63237W        W35552  20.073  38.812  12.891
63238W        W35553  22.193   2.364  11.456
63239W        W35554  20.274  25.626  13.324
63240W        W35555  25.297  21.176  11.271
63241W        W35556  23.386  15.584  10.937
63242W        W35557  43.826  43.505   1.399
63243W        W35558  42.997   4.148  12.064
63244W        W35559  23.821  32.926   1.379
63245W        W35560  11.350  32.960  13.698
63246W        W35561  42.433  10.389  14.405
63247W        W35562  13.838  43.367  14.956
63248W        W35563  20.137  26.186   2.412
63249W        W35564  20.615  11.633  14.460
63250W        W35565  32.180  30.028  12.382
63251W        W35566   9.431  44.922  13.000
63252W        W35567  42.310  11.194  13.931
63253W        W35568  25.627  39.267   1.615
63254W        W35569  30.483  38.589   3.246
63255W        W35570  10.987  33.465  12.977
63256W        W35571  33.522  21.348   3.380
63257W        W35572  42.247  15.057   0.359
63258W        W35573  15.461   6.269   4.669
63259W        W35574   1.714  23.304   0.946
63260W        W35575   3.996  36.538   3.840
63261W        W35576  30.685   2.223   3.594
63262W        W35577  34.573   5.784  10.738
63263W        W35578   7.691  33.886  10.725
63264W        W35579   4.626  38.967   0.683
63265W        W35580  16.648  35.608   1.203
63266W        W35581   3.134  10.074  11.979
63267W        W35582   5.545  13.773   4.724
63268W        W35583   7.012  34.089  13.860
63269W        W35584  19.138  11.888   1.193
63270W        W35585   3.400  33.492   0.349
63271W        W35586  30.119  16.168  13.043
63272W        W35587  36.546  34.534  10.696
63273W        W35588  12.913   3.645   0.766
63274W        W35589  18.277  17.752   1.566
63275W        W35590  40.862  31.555   3.818
63276W        W35591  25.169  34.487  10.510
63277W        W35592  13.767  24.259  12.074
63278W        W35593  30.160  21.533   1.381
63279W        W35594   5.453  20.739  12.053
63280W        W35595  12.046  14.846   2.321
63281W        W35596   2.245  23.052   4.183
63282W        W35597  26.871  40.739   0.803
63283W        W35598   5.900  37.963  13.886
63284W        W35599  35.674  32.203  11.971
63285W        W35600  13.648   3.675   4.729
63286W        W35601  16.661   3.201  10.997
63287W        W35602  29.196  16.091  13.189
63288W        W35603  38.943  21.634  11.509
63289W        W35604  26.542  25.969  14.434
63290W        W35605  12.624  33.478  14.808
63291W        W35606  30.477  35.154   1.719
63292W        W35607  41.389  31.166  14.589
63293W        W35608   3.267  31.474   2.282
63294W        W35609  19.052  23.204  10.781
63295W        W35610  40.436  18.719   3.631
63296W        W35611  41.444  37.008   0.520
63297W        W35612  35.357   0.425   2.814
63298W        W35613   5.092   9.783   3.240
63299W        W35614   2.231   0.243  10.691
63300W        W35615  29.055  39.317   2.369
63301W        W35616  15.646  15.910  12.901
63302W        W35617  43.567  11.837   2.314
63303W        W35618   1.856   8.127   1.358
63304W        W35619  38.111  30.989   3.781
63305W        W35620  13.532  13.340   2.205
63306W        W35621  12.343  24.557  11.107
63307W        W35622   0.762  19.766  13.450
63308W        W35623  37.484  17.633  12.523
63309W        W35624  39.847  26.736  11.125
63310W        W35625  27.675  35.929   4.708
63311W        W35626  13.680   6.332  12.944
63312W        W35627  16.856  39.882  11.921
63313W        W35628  43.941  36.425   0.828
63314W        W35629  32.922  12.695   1.345
63315W        W35630  27.652  16.413   0.408
63316W        W35631  10.183  22.548  14.446
63317W        W35632  30.847  30.864  12.944
63318W        W35633   9.389  40.871  14.399
63319W        W35634  17.176   0.465  11.913
63320W        W35635  37.993  42.505  11.819
63321W        W35636  30.364  42.532   0.214
63322W        W35637  33.517  21.271  10.487
63323W        W35638  14.181  39.512  14.922
63324W        W35639  16.436  14.800  14.456
63325W        W35640  11.334  12.129   3.399
63326W        W35641   0.145  12.093  11.753
63327W        W35642  43.350  29.116   2.348
63328W        W35643   0.195  44.040  11.642
63329W        W35644  37.257  26.333   3.160
63330W        W35645  20.684  16.664   2.931
63331W        W35646  17.128  30.385  12.358
63332W        W35647  14.859  39.519  12.924
63333W        W35648   3.775  31.927   0.896
63334W        W35649  24.715  10.701   2.398
63335W        W35650   5.737  26.580   3.237
63336W        W35651  20.044  23.440   4.194
63337W        W35652  22.616  35.062   2.292
63338W        W35653  27.984  24.604   2.217
63339W        W35654  21.373  42.888   0.258
63340W        W35655  12.165  11.762  10.619
63341W        W35656  40.383  25.568   1.419
63342W        W35657  15.359  44.220  14.393
63343W        W35658  37.017  11.621   0.245
63344W        W35659  39.389  15.118  14.045
63345W        W35660  24.018  36.511   4.522
63346W        W35661  18.020   5.626  13.468
63347W        W35662  10.182  23.064   2.147
63348W        W35663   0.832  21.586   3.968
63349W        W35664   7.651  39.549  12.031
63350W        W35665  30.059  18.606   4.600
63351W        W35666  11.659  20.596  12.730
63352W        W35667   5.868  31.113   1.026
63353W        W35668  25.759  23.192   1.955
63354W        W35669  17.220  32.149   0.380
63355W        W35670  37.658  32.116  10.889
63356W        W35671  42.364   9.407   1.336
63357W        W35672  22.097  38.498  13.015
63358W        W35673   6.574  41.322  10.303
63359W        W35674   0.414  22.487   0.824
63360W        W35675  16.760  25.173  11.648
63361W        W35676  12.339  11.781  13.291
63362W        W35677  29.022  43.334   4.171
63363W        W35678  26.231   8.820   3.137
63364W        W35679  17.836  15.093   3.232
63365W        W35680   9.873  23.920  10.758
63366W        W35681   1.526  27.026   4.533
63367W        W35682  37.574   8.382   4.385
63368W        W35683   3.667  22.468  10.620
63369W        W35684  27.930  20.730  12.916
63370W        W35685  18.974  28.032   4.617
63371W        W35686  36.801  44.530  11.117
63372W        W35687  18.998   0.481   1.692
63373W        W35688  17.649  28.495   4.776
63374W        W35689  18.398  20.793  14.728
63375W        W35690  37.366  16.733   0.404
63376W        W35691   1.938  42.280   0.819
63377W        W35692  18.516  36.173   1.314
63378W        W35693  29.117   1.480  13.989
63379W        W35694  33.405   3.112  13.131
63380W        W35695  14.030  16.512   1.833
63381W        W35696   0.526  14.716  11.286
63382W        W35697   1.790  25.215   0.931
63383W        W35698  30.651   4.295   0.894
63384W        W35699  17.804  33.393  12.414
63385W        W35700  20.520  36.584  11.082
63386W        W35701  39.744  37.371  10.997
63387W        W35702   9.888   2.379   4.679
63388W        W35703  41.503  41.274   2.371
63389W        W35704  30.143  19.505   3.975
63390W        W35705  28.432  31.837   1.915
63391W        W35706  21.068   9.488   3.653
63392W        W35707  11.810  19.089   1.663
63393W        W35708  17.616  19.651   1.269
63394W        W35709  23.947  20.592  13.982
63395W        W35710  27.999  28.975   2.251
63396W        W35711   8.525  19.296   2.680
63397W        W35712  24.670  14.925   2.492
63398W        W35713  21.494  44.202   3.025
63399W        W35714  23.848  13.326  11.474
63400W        W35715  25.464  37.496   4.526
63401W        W35716  38.411   5.523  12.067
63402W        W35717  15.310   7.948  11.241
63403W        W35718  24.091  10.589  13.464
63404W        W35719  31.575  28.155   1.827
63405W        W35720  14.597  17.142   3.376
63406W        W35721  36.390  25.256   4.664
63407W        W35722   3.446   7.803   1.755
63408W        W35723  23.014  38.485   2.133
63409W        W35724   6.715  30.335  12.528
63410W        W35725  26.025  39.943  14.825
63411W        W35726   4.251  15.456   1.859
63412W        W35727  21.227  16.870   5.247
63413W        W35728  31.914   0.413   0.459
63414W        W35729  21.986  42.832  12.520
63415W        W35730  24.529  15.866   0.936
63416W        W35731  25.422  34.747   3.604
63417W        W35732  13.163  42.283   2.725
63418W        W35733   1.723   3.437   1.348
63419W        W35734   1.469  27.029   0.753
63420W        W35735  23.534  32.527   3.223
63421W        W35736  38.817  34.227   0.353
63422W        W35737  26.259  39.329   0.247
63423W        W35738  20.587  25.965  13.921
63424W        W35739  33.430   3.306  10.366
63425W        W35740  22.668  22.495   1.932
63426W        W35741   7.328  30.856  12.056
63427W        W35742  36.490  33.450   2.302
63428W        W35743   6.731   4.387  13.877
63429W        W35744   4.249  20.246   4.610
63430W        W35745  11.433  19.649  14.946
63431W        W35746  31.153  39.052   2.737
63432W        W35747  42.765  18.579  12.422
63433W        W35748  12.788   5.237  10.611
63434W        W35749  42.996  31.951   0.775
63435W        W35750  11.257  38.884   2.082
63436W        W35751  16.515  26.601  12.694
63437W        W35752   7.349  44.286  11.686
63438W        W35753  26.085  41.295  14.252
63439W        W35754   4.120  19.845   0.333
63440W        W35755   7.187  24.756   3.227
63441W        W35756  44.356  39.885   1.201
63442W        W35757   8.015   8.703  11.553
63443W        W35758  17.141  15.681  10.206
63444W        W35759  13.694   7.652   4.154
63445W        W35760  40.167  31.817  14.462
63446W        W35761  27.242   2.785   0.935
63447W        W35762  13.165  16.161  10.601
63448W        W35763  43.928   7.060   1.976
63449W        W35764  12.226   2.650   3.844
63450W        W35765  10.240  36.469  11.597
63451W        W35766  40.265  28.923   4.680
63452W        W35767  41.496  41.564   1.499
63453W        W35768  35.491   5.803   0.490
63454W        W35769  25.960  39.749  14.336
63455W        W35770  18.532  10.406   0.832
63456W        W35771  21.320  36.317  13.818
63457W        W35772  43.516   7.410  14.831
63458W        W35773  20.202   6.658  12.053
63459W        W35774  32.985  40.321  12.226
63460W        W35775   9.692   4.971   3.695
63461W        W35776   6.775  19.442  11.590
63462W        W35777  32.801  35.495   1.992
63463W        W35778   7.847   9.938   1.828
63464W        W35779  39.189   6.597   0.224
63465W        W35780   4.915  21.960   4.533
63466W        W35781   7.089  43.792  10.948
63467W        W35782   0.287  43.753  14.362
63468W        W35783   3.332  31.777   1.834
63469W        W35784   7.692   1.695   3.311
63470W        W35785  17.209  19.816   0.299
63471W        W35786  17.539   7.906   1.264
63472W        W35787   4.359  10.356  10.545
63473W        W35788  42.555  31.574   4.265
63474W        W35789  43.016  42.846   3.272
63475W        W35790   7.358  41.752   2.358
63476W        W35791  11.248  20.990  12.910
63477W        W35792   5.974  31.941   2.884
63478W        W35793  28.736  44.441  11.835
63479W        W35794  18.309   6.414   0.313
63480W        W35795  17.320   0.240   1.347
63481W        W35796   0.454  19.741   2.178
63482W        W35797  37.898   1.541  12.974
63483W        W35798   8.494  19.539  11.644
63484W        W35799  10.770  27.101  12.824
63485W        W35800   1.070  25.537   1.890
63486W        W35801   8.958   2.986   2.472
63487W        W35802   2.112  34.337  10.152
63488W        W35803  13.791  14.562   4.541
63489W        W35804  31.632  36.119   4.111
63490W        W35805  44.267   0.701  13.909
63491W        W35806   1.532  11.625   3.190
63492W        W35807   9.107  40.556  11.568
63493W        W35808   5.444  17.653  11.159
63494W        W35809  33.894  32.148   1.365
63495W        W35810   7.680  30.076   0.347
63496W        W35811  16.860  29.054   3.876
63497W        W35812  17.115  35.814  12.638
63498W        W35813  20.608   2.524  13.430
63499W        W35814  26.532  37.872   0.362
63500W        W35815  40.736   0.388   2.237
63501W        W35816  20.156  37.735   0.808
63502W        W35817   8.906  37.666   2.108
63503W        W35818  39.879  16.654  10.666
63504W        W35819  40.336  17.166   2.008
63505W        W35820   6.394  22.180   2.915
63506W        W35821  41.676  22.945   0.582
63507W        W35822  31.173  24.108  12.686
63508W        W35823  36.133   2.864  10.658
63509W        W35824  13.054  41.071  12.648
63510W        W35825   1.946  10.246   1.720
63511W        W35826  27.656  36.990  10.433
63512W        W35827  42.047  11.928  11.079
63513W        W35828  16.128  38.281   3.127
63514W        W35829  28.182  36.121  14.872
63515W        W35830  26.323  13.700   0.573
63516W        W35831   4.435  14.732   0.365
63517W        W35832  12.301  12.800  14.528
63518W        W35833  18.155  21.246  11.013
63519W        W35834   5.283  28.682  13.812
63520W        W35835   5.236  32.852  11.704
63521W        W35836  41.919  20.815   3.347
63522W        W35837  38.864  19.305   2.713
63523W        W35838   6.980   6.372  14.925
63524W        W35839  24.122   1.008  14.992
63525W        W35840  38.375  11.807  11.742
63526W        W35841   9.966  29.968   2.749
63527W        W35842  14.141   3.914   4.869
63528W        W35843  22.554  13.623   0.753
63529W        W35844  10.712  20.031  10.511
63530W        W35845   8.803   9.355   2.187
63531W        W35846  30.910   4.839  14.365
63532W        W35847  23.684  26.086   0.546
63533W        W35848  38.412  17.311  14.732
63534W        W35849  16.365  16.844   3.246
63535W        W35850   8.932  15.575  12.152
63536W        W35851  36.806   0.475   1.934
63537W        W35852  10.653   1.878   1.175
63538W        W35853  16.862  39.466  13.011
63539W        W35854  16.989  27.098   1.289
63540W        W35855  24.659  13.008   2.880
63541W        W35856   0.906  27.768  13.755
63542W        W35857   0.050   9.145   1.186
63543W        W35858  15.748  22.744  11.700
63544W        W35859  37.628  10.260   0.853
63545W        W35860  31.327  13.846   2.144
63546W        W35861  22.788  27.037   3.176
63547W        W35862  24.001  32.870  11.676
63548W        W35863  39.278  13.340  14.085
63549W        W35864  28.614  40.906   4.501
63550W        W35865  21.740   8.170   3.931
63551W        W35866  19.780  11.649   0.490
63552W        W35867  37.460   2.770   1.683
63553W        W35868  42.843   4.707   3.991
63554W        W35869   8.887  39.875  14.368
63555W        W35870   7.804  13.831   2.370
63556W        W35871  16.189  34.080   3.226
63557W        W35872  32.385  32.537  12.115
63558W        W35873  12.697  11.964   1.349
63559W        W35874  16.125  30.900   3.329
63560W        W35875  14.116  21.888   0.925
63561W        W35876   8.603  26.527  14.497
63562W        W35877  31.533  20.841  10.761
63563W        W35878  31.477  25.270  11.835
63564W        W35879   6.208   3.885  12.144
63565W        W35880  28.647  34.491   0.053
63566W        W35881  11.924   1.082  12.865
63567W        W35882  22.026  43.994   3.619
63568W        W35883   6.752   9.220  10.701
63569W        W35884  44.425  21.081   4.545
63570W        W35885  44.778  30.101   1.754
63571W        W35886  23.033  28.672  12.023
63572W        W35887   0.328   7.299  14.459
63573W        W35888  21.529  12.042   0.278
63574W        W35889   5.854  32.626   4.077
63575W        W35890  23.044  27.058   1.860
63576W        W35891  18.323   3.214   0.793
63577W        W35892  23.439  26.552   4.120
63578W        W35893  21.007  29.055  14.514
63579W        W35894  28.631  44.955   0.775
63580W        W35895   0.769  41.054   3.288
63581W        W35896   1.795  19.620   2.056
63582W        W35897  38.831  19.675   9.916
63583W        W35898  10.151  29.142   5.226
63584W        W35899   0.233  44.863  12.647
63585W        W35900  32.852  15.291   1.341
63586W        W35901   1.174  38.861   4.863
63587W        W35902  24.182  33.865   2.274
63588W        W35903  37.100  34.574  12.556
63589W        W35904  18.668  38.564  10.685
63590W        W35905   4.283   1.171  10.526
63591W        W35906  32.702  13.861   4.773
63592W        W35907  24.284   3.468   1.182
63593W        W35908   5.914   1.368  13.888
63594W        W35909  29.620  17.319  11.055
63595W        W35910  20.217  21.160  11.018
63596W        W35911   0.825  37.974   3.286
63597W        W35912  36.076   3.514   4.258
63598W        W35913  38.645  21.993   1.491
63599W        W35914  36.378  37.026  14.336
63600W        W35915  33.973  29.617   1.263
63601W        W35916   7.284  19.198  10.767
63602W        W35917  10.314   0.960  11.637
63603W        W35918   0.241  32.611  10.736
63604W        W35919  14.507  24.689   1.071
63605W        W35920  24.739  13.068   0.543
63606W        W35921  43.468  33.947  11.498
63607W        W35922  21.748  42.850   3.197
63608W        W35923  25.255  18.128   2.623
63609W        W35924  26.549  32.145  14.031
63610W        W35925   5.725  39.592  13.390
63611W        W35926  31.478  19.247   0.430
63612W        W35927  11.508  32.071   4.101
63613W        W35928  37.952  37.597  11.862
63614W        W35929  36.873  20.122  13.164
63615W        W35930   6.414  15.296  13.824
63616W        W35931  37.778  24.268  10.668
63617W        W35932   6.697  42.965   1.677
63618W        W35933  43.404  44.532  13.337
63619W        W35934  13.676  39.812   1.352
63620W        W35935   4.801   6.446  10.540
63621W        W35936   4.749  44.668   4.672
63622W        W35937   3.952  14.197   2.884
63623W        W35938   6.045   4.736  11.142
63624W        W35939   5.794  27.055   4.130
63625W        W35940  11.809   2.819  13.592
63626W        W35941   7.677  31.735  14.321
63627W        W35942  22.625   6.005   5.088
63628W        W35943  32.153  32.708   1.752
63629W        W35944  43.890  42.778  14.937
63630W        W35945  41.763  40.984  12.553
63631W        W35946   5.903  24.676  14.435
63632W        W35947  38.517  20.718  13.425
63633W        W35948  34.586   1.226   0.976
63634W        W35949  25.677  38.943  10.620
63635W        W35950  27.530  17.756  11.477
63636W        W35951   1.276   8.446  13.099
63637W        W35952   3.869  19.259  12.999
63638W        W35953  42.663  31.077   3.784
63639W        W35954  16.030  15.349   1.211
63640W        W35955  21.100   7.269  10.852
63641W        W35956  26.300   5.848  12.219
63642W        W35957  30.932  28.725  13.404
63643W        W35958   7.668  12.603  13.530
63644W        W35959  37.475   0.411  10.429
63645W        W35960  36.028  33.650  11.044
63646W        W35961  29.057  31.484   0.180
63647W        W35962  13.209  44.194  11.603
63648W        W35963   5.730  23.661   1.243
63649W        W35964  37.455  32.405  13.373
63650W        W35965  13.227  19.580   1.493
63651W        W35966   2.571  27.220  14.894
63652W        W35967   8.320  13.710   2.574
63653W        W35968   6.142   9.580  11.192
63654W        W35969   2.379  41.917  14.388
63655W        W35970  25.200  42.975  13.563
63656W        W35971  13.703  44.159  11.701
63657W        W35972  38.515  24.208  10.276
63658W        W35973  16.644  30.425  13.105
63659W        W35974  28.200  20.334  13.095
63660W        W35975  26.008  21.327  10.079
63661W        W35976  12.318  43.481   1.679
63662W        W35977   4.979  18.752   0.907
63663W        W35978   2.164   4.125   3.760
63664W        W35979  22.098  16.344   2.570
63665W        W35980  34.590  42.394  14.226
63666W        W35981  42.928  42.268   2.440
63667W        W35982  33.935  32.891   0.027
63668W        W35983  37.822  14.182   2.845
63669W        W35984   5.008  31.998   1.284
63670W        W35985  40.968  12.533  11.467
63671W        W35986   8.319   1.138   1.979
63672W        W35987  35.064  38.046  12.874
63673W        W35988   1.495  39.280  14.417
63674W        W35989  21.093  13.216   3.730
63675W        W35990   6.279  22.038  13.388
63676W        W35991  30.398  40.098   2.229
63677W        W35992  37.124   5.919   0.328
63678W        W35993  29.913  40.944   2.369
63679W        W35994  40.523  16.034   0.482
63680W        W35995  19.998  35.017   5.400
63681W        W35996  13.552  23.069   1.613
63682W        W35997  20.876  38.100  13.343
63683W        W35998  32.654  43.309  13.508
63684W        W35999  10.763  41.840   2.239
63685W        W36000  21.153  21.560   1.826
63686W        W36001   8.302  34.887   3.790
63687W        W36002   7.342  20.144   1.678
63688W        W36003  15.245  32.843  13.971
63689W        W36004  18.162  22.297   0.730
63690W        W36005  43.815  42.465   1.969
63691W        W36006  19.964   0.278   2.191
63692W        W36007  14.334  31.908  14.385
63693W        W36008  26.473  28.674  12.821
63694W        W36009   1.266  15.721   4.145
63695W        W36010  22.723  13.196  12.110
63696W        W36011   4.928  44.240  11.431
63697W        W36012  32.381  15.249  12.872
63698W        W36013   7.397  19.520  12.134
63699W        W36014   3.788  18.520  11.092
63700W        W36015  30.383  34.087   3.250
63701W        W36016  36.905  22.244  14.896
63702W        W36017  28.603  44.871  14.041
63703W        W36018  21.127  22.739   0.341
63704W        W36019  26.169  32.366  11.496
63705W        W36020  42.017  42.786  12.959
63706W        W36021  43.482  26.546  14.481
63707W        W36022  39.334   4.986   4.520
63708W        W36023  31.046   9.593   1.244
63709W        W36024  33.849  12.696   2.747
63710W        W36025   0.153  35.651   4.244
63711W        W36026  27.013  34.723   0.443
63712W        W36027  31.359  31.462   0.358
63713W        W36028  15.818   3.538   4.253
63714W        W36029  43.498  26.213   0.351
63715W        W36030  27.035   0.817   1.666
63716W        W36031   2.938  39.421  11.404
63717W        W36032  23.724  12.137   2.135
63718W        W36033  26.116  27.605   1.755
63719W        W36034   0.145  33.415  10.991
63720W        W36035  34.070   6.715  13.586
63721W        W36036  34.494  25.137   4.911
63722W        W36037  38.146  19.120  13.780
63723W        W36038  19.271   9.599   0.243
63724W        W36039  29.644  19.166  14.245
63725W        W36040  39.755  13.139  13.964
63726W        W36041  38.042  26.508  12.379
63727W        W36042  30.988  11.212   3.362
63728W        W36043  18.592  23.502  10.892
63729W        W36044  33.010  23.912   1.418
63730W        W36045   0.909  27.911   0.819
63731W        W36046  33.050  19.250   4.585
63732W        W36047  39.410  18.516  13.004
63733W        W36048   1.452  24.016   1.720
63734W        W36049  23.066  18.020  14.964
63735W        W36050   1.901  14.806  14.289
63736W        W36051  10.370   7.946  12.609
63737W        W36052  39.938  42.255  12.530
63738W        W36053  21.181   8.628  12.937
63739W        W36054  23.170  33.987   0.474
63740W        W36055  25.689  35.324   4.455
63741W        W36056  30.493  14.792  12.545
63742W        W36057  16.078  33.596   0.020
63743W        W36058  23.647  32.306   2.401
63744W        W36059  33.909   6.106  12.444
63745W        W36060   4.374  23.687   3.752
63746W        W36061  20.234  38.311   4.190
63747W        W36062  37.335  16.291   2.347
63748W        W36063   1.811  28.118   3.426
63749W        W36064  13.120   1.449   4.652
63750W        W36065   3.783  21.245   9.646
63751W        W36066  33.361   5.307   0.016
63752W        W36067  10.283  12.082  14.854
63753W        W36068  32.912  12.813  12.970
63754W        W36069   7.452  17.258  12.030
63755W        W36070   4.738  14.388  10.655
63756W        W36071  19.725   4.864   4.792
63757W        W36072   8.121  34.401   3.815
63758W        W36073   3.365  40.428   2.929
63759W        W36074   1.943   2.861   0.665
63760W        W36075   5.707  24.950   0.788
63761W        W36076  40.872   1.768   3.730
63762W        W36077   3.359  34.915  11.696
63763W        W36078  13.173  41.763   2.711
63764W        W36079  24.631  41.354  10.998
63765W        W36080  40.074   4.120   4.487
63766W        W36081  14.643  40.973  12.153
63767W        W36082  40.179  15.831  12.573
63768W        W36083  43.025  42.053  14.147
63769W        W36084  14.994  22.078   0.977
63770W        W36085  10.927  43.238  10.824
63771W        W36086   0.284  37.448   2.492
63772W        W36087   4.773  12.149   3.652
63773W        W36088  12.010   9.507  14.895
63774W        W36089  27.682  13.263  12.973
63775W        W36090  35.048  29.485   2.199
63776W        W36091  27.499  32.413  13.998
63777W        W36092  29.177  22.917  11.659
63778W        W36093  12.698  40.558  11.141
63779W        W36094  24.525  22.894   1.189
63780W        W36095  23.967  15.147  11.609
63781W        W36096  28.007  24.557   3.081
63782W        W36097   9.786   5.695   3.228
63783W        W36098  29.688   0.309   2.501
63784W        W36099   2.453   8.010  12.538
63785W        W36100  16.806  17.775   3.267
63786W        W36101  28.991  16.866  12.094
63787W        W36102  36.087  13.365   2.795
63788W        W36103  20.504  17.813  10.678
63789W        W36104  11.377  16.746   9.656
63790W        W36105   3.189  11.717  10.488
63791W        W36106   8.941   9.946   3.409
63792W        W36107  21.251  11.341  14.391
63793W        W36108  41.995  13.104   1.620
63794W        W36109  28.529  15.837   0.319
63795W        W36110   4.261  26.586  11.500
63796W        W36111  17.066  29.718   4.616
63797W        W36112   0.347  41.911  13.904
63798W        W36113  21.595   0.149  14.431
63799W        W36114  10.229  35.119  14.825
63800W        W36115  32.657  34.066   1.672
63801W        W36116  44.905  44.796   0.873
63802W        W36117   9.192  27.427   1.768
63803W        W36118  41.468  28.045   1.390
63804W        W36119   3.509  10.189   3.359
63805W        W36120  18.048   6.702   4.637
63806W        W36121  36.025  14.560  12.010
63807W        W36122  29.085  13.306  13.584
63808W        W36123  31.994  35.283  11.032
63809W        W36124   2.207  42.285  13.118
63810W        W36125  44.816  27.170  11.841
63811W        W36126  20.758   8.700   2.268
63812W        W36127  14.315  38.744  13.834
63813W        W36128  33.582  31.388   1.701
63814W        W36129   6.022   1.308   3.780
63815W        W36130   6.966   7.284  11.652
63816W        W36131  33.447  13.261   4.399
63817W        W36132  18.919  39.032   0.751
63818W        W36133  38.065   9.741  12.398
63819W        W36134  27.514   2.276  14.874
63820W        W36135  28.429  10.424  10.456
63821W        W36136  11.268  38.300  12.957
63822W        W36137  32.031  34.864   2.392
63823W        W36138   7.185   2.253  12.197
63824W        W36139  19.523  18.065  14.981
63825W        W36140  17.173  15.510  10.702
63826W        W36141   6.346  34.646  13.419
63827W        W36142  17.359   2.896  14.526
63828W        W36143   3.180  35.828   2.664
63829W        W36144   3.390  16.160   2.273
63830W        W36145  28.693  36.472   3.425
63831W        W36146  19.083  15.676   1.463
63832W        W36147  22.722   4.235   3.148
63833W        W36148  42.437   0.750   3.986
63834W        W36149   7.187  27.845   0.569
63835W        W36150  23.447  17.474  11.175
63836W        W36151   4.230  29.545   1.409
63837W        W36152  29.964   3.389   4.949
63838W        W36153   0.850  40.049   3.147
63839W        W36154  12.021   2.753   2.908
63840W        W36155  27.503  42.055   0.260
63841W        W36156  11.655  27.930  12.007
63842W        W36157  23.284   6.239  12.407
63843W        W36158  27.801  35.040   4.541
63844W        W36159   5.918  35.079   3.977
63845W        W36160  16.858   0.417   1.499
63846W        W36161  10.252  27.367  14.817
63847W        W36162   7.365  35.419  13.004
63848W        W36163  35.072  33.599  13.436
63849W        W36164  23.573  41.789   3.976
63850W        W36165  29.519  10.629  11.966
63851W        W36166  33.040  10.367   0.721
63852W        W36167   3.459   0.165  12.655
63853W        W36168  30.045  13.280  11.422
63854W        W36169  14.036  35.097   4.836
63855W        W36170  23.694  44.347   0.583
63856W        W36171  20.693  20.291   4.155
63857W        W36172  11.561  22.366   0.794
63858W        W36173  24.775  36.888  11.948
63859W        W36174  35.264  44.502   2.462
63860W        W36175  29.520  27.952   0.003
63861W        W36176   3.305  39.265   3.780
63862W        W36177   2.433   0.829  14.985
63863W        W36178  21.437   9.908   3.897
63864W        W36179  31.146  42.670   1.186
63865W        W36180   6.450  41.622  12.553
63866W        W36181  24.953  33.490  12.622
63867W        W36182  14.230  37.275   0.036
63868W        W36183   5.428  15.087  11.600
63869W        W36184  19.782  18.634  13.792
63870W        W36185  10.070  12.833  10.337
63871W        W36186  13.172   6.098   4.048
63872W        W36187  44.280   9.056  12.631
63873W        W36188  37.135  34.039  11.274
63874W        W36189  30.619  43.985   0.717
63875W        W36190   2.439   3.804   3.048
63876W        W36191  36.439  21.282   4.973
63877W        W36192  12.696  33.225   0.787
63878W        W36193   7.740  27.901   0.334
63879W        W36194  19.635   4.526   4.408
63880W        W36195  31.381  17.241  11.983
63881W        W36196  34.556  21.157  10.372
63882W        W36197  11.372  37.773   4.120
63883W        W36198   9.270  43.024  14.992
63884W        W36199  24.612  39.587   0.743
63885W        W36200  27.613  33.840  14.375
63886W        W36201  32.557  11.843  14.921
63887W        W36202  17.661  43.707   0.737
63888W        W36203   3.291  41.728  13.000
63889W        W36204  31.046  42.548  14.505
63890W        W36205   2.127  21.534  11.105
63891W        W36206  25.583  26.812  13.033
63892W        W36207  20.595  30.065  11.179
63893W        W36208  44.288  43.452  13.155
63894W        W36209   7.422  28.931  12.118
63895W        W36210  30.746  26.664   4.827
63896W        W36211  21.825  41.436   3.777
63897W        W36212  42.961   4.210   2.938
63898W        W36213  24.229  22.909  11.018
63899W        W36214  23.941  21.337   2.206
63900W        W36215  37.075  36.515   4.566
63901W        W36216  16.165  30.566   4.617
63902W        W36217  13.634  20.957   4.253
63903W        W36218  20.189  26.613   1.388
63904W        W36219  31.463   4.619   3.254
63905W        W36220  12.698  42.169  14.710
63906W        W36221  38.853  33.559   1.842
63907W        W36222   4.295  26.214  12.439
63908W        W36223   6.757  38.282  14.547
63909W        W36224  32.917  37.045   1.130
63910W        W36225  44.723   7.151   4.450
63911W        W36226  28.014  42.043  14.939
63912W        W36227  21.730  27.165  11.679
63913W        W36228  41.302  25.544  14.350
63914W        W36229  32.886  39.909  13.492
63915W        W36230  38.076  32.567  11.697
63916W        W36231  38.936   4.685   0.970
63917W        W36232  42.746  41.410   1.853
63918W        W36233   7.438  24.490   0.336
63919W        W36234  24.398  15.085  13.403
63920W        W36235  16.068  18.151   4.611
63921W        W36236  15.534  18.147  14.409
63922W        W36237  29.563  38.035  14.825
63923W        W36238   1.343   3.824   3.968
63924W        W36239  38.888  20.209   1.437
63925W        W36240  25.221  22.715  13.476
63926W        W36241   4.960  10.256   0.048
63927W        W36242  11.356  44.437   2.772
63928W        W36243  16.549  32.889  14.316
63929W        W36244  20.187  38.304   0.209
63930W        W36245   3.476  16.302  11.084
63931W        W36246  36.436  34.762  11.652
63932W        W36247  15.035  39.636   1.515
63933W        W36248  39.746  44.183   1.676
63934W        W36249   9.717  18.562  12.029
63935W        W36250  20.530  31.080  13.016
63936W        W36251  21.940  24.520  10.681
63937W        W36252  10.532   4.805  11.173
63938W        W36253   9.436  22.146   2.483
63939W        W36254  30.960  26.445   1.390
63940W        W36255  43.194  38.048  14.732
63941W        W36256  28.443  25.760   1.844
63942W        W36257  36.477  11.439  11.251
63943W        W36258  29.828  29.163   4.772
63944W        W36259  21.082  23.076  13.084
63945W        W36260  43.951  19.708   4.657
63946W        W36261  36.363  22.269   3.588
63947W        W36262  43.308  14.730  12.107
63948W        W36263  29.909  27.247  11.115
63949W        W36264  16.453  42.950   2.049
63950W        W36265  40.826  28.134   4.754
63951W        W36266  16.818  13.680   0.512
63952W        W36267  18.836  10.170  12.526
63953W        W36268  38.394  16.685  14.398
63954W        W36269   2.922  16.086  12.774
63955W        W36270  34.207  28.001   2.633
63956W        W36271  32.940  27.522   0.757
63957W        W36272  10.194  12.682   2.235
63958W        W36273  18.998  39.423   1.866
63959W        W36274  18.841  14.788  12.026
63960W        W36275  43.555  34.082  10.417
63961W        W36276  13.693  16.627   0.250
63962W        W36277  42.991  41.483   1.392
63963W        W36278  42.432  42.399   2.762
63964W        W36279   0.191  31.003   4.733
63965W        W36280   6.940  28.091   0.982
63966W        W36281  28.080  15.154  10.532
63967W        W36282  11.578  37.987   3.229
63968W        W36283   1.808  33.030   0.864
63969W        W36284  15.278   2.914   4.546
63970W        W36285  25.388  29.271  11.219
63971W        W36286  13.051  39.736  10.661
63972W        W36287  40.920  12.302   0.916
63973W        W36288  28.941  10.277   0.771
63974W        W36289  27.096  29.092  13.660
63975W        W36290   0.979  33.797  10.694
63976W        W36291  21.725   2.673  11.655
63977W        W36292  31.011  41.772   1.897
63978W        W36293  35.944  26.044   4.552
63979W        W36294  11.588  39.118   3.552
63980W        W36295   0.196  31.458  10.696
63981W        W36296  21.992  35.885   3.298
63982W        W36297  19.840  16.695   1.309
63983W        W36298  35.940   1.778  12.302
63984W        W36299  26.964   6.597   3.311
63985W        W36300  34.819  36.494   2.218
63986W        W36301  34.934   1.993  13.409
63987W        W36302  27.264  37.886  14.377
63988W        W36303  43.794  25.893   0.951
63989W        W36304  17.514  24.048   1.975
63990W        W36305  20.720   9.156   1.398
63991W        W36306  28.092  35.881   3.399
63992W        W36307   0.016  11.613   0.504
63993W        W36308  26.996   6.216   0.743
63994W        W36309   5.377  24.941  14.001
63995W        W36310   7.824   4.490   0.919
63996W        W36311  15.758  21.040   4.821
63997W        W36312  27.951  41.871   2.895
63998W        W36313  44.769  34.819   1.780
63999W        W36314  31.755  38.451   2.352
64000W        W36315  24.058   3.718  13.950
64001W        W36316   9.716  22.244   4.745
64002W        W36317  31.967   1.750  13.060
64003W        W36318  16.156   1.911  14.797
64004W        W36319   3.964  18.013   0.759
64005W        W36320  34.584  30.970   3.829
64006W        W36321  31.064  33.016  12.045
64007W        W36322  19.590  14.293  10.658
64008W        W36323  18.391  33.877  11.963
64009W        W36324  22.994  24.453  12.033
64010W        W36325  23.158  25.047   0.213
64011W        W36326  34.360   0.125  12.087
64012W        W36327  33.584   0.662   1.193
64013W        W36328  28.865  24.806  12.616
64014W        W36329  18.167  13.510  13.741
64015W        W36330  11.331  32.352  14.343
64016W        W36331   2.457  44.033  11.395
64017W        W36332  25.536  18.747  11.599
64018W        W36333  24.971  35.433  12.921
64019W        W36334  12.371  30.477   3.186
64020W        W36335  20.554  44.220   3.895
64021W        W36336   7.677  19.935   4.817
64022W        W36337  10.496  36.497  10.773
64023W        W36338  33.974  44.323  14.486
64024W        W36339  17.170  38.354   4.141
64025W        W36340  22.133   1.242  12.379
64026W        W36341  39.888  29.431   2.304
64027W        W36342   2.883  35.361   1.496
64028W        W36343   3.000  18.567  10.673
64029W        W36344  24.689  37.937   3.340
64030W        W36345  12.323  22.061   0.652
64031W        W36346  15.574  22.106   1.838
64032W        W36347   7.251   1.446   2.099
64033W        W36348   5.953   2.560   1.781
64034W        W36349  21.619  16.948  14.207
64035W        W36350  26.906  12.298   4.145
64036W        W36351   9.771  33.038  11.275
64037W        W36352  29.101   0.042  14.959
64038W        W36353  37.363  36.561   1.431
64039W        W36354  24.448   8.710  14.263
64040W        W36355  18.592  44.432  14.725
64041W        W36356   8.944  38.450  11.195
64042W        W36357   8.968  27.190  13.970
64043W        W36358  22.043  10.627   1.886
64044W        W36359  23.635  11.148  12.980
64045W        W36360  10.864  14.640   0.662
64046W        W36361   4.208  11.655   4.708
64047W        W36362  31.572  21.235   5.022
64048W        W36363  29.604  36.790  11.841
64049W        W36364  41.508  11.203   0.872
64050W        W36365   2.795   3.955   2.478
64051W        W36366  38.404  41.738   0.945
64052W        W36367  17.276  20.645   0.712
64053W        W36368  40.739   4.185  12.967
64054W        W36369  17.658  34.272   3.432
64055W        W36370  38.164   8.926  11.928
64056W        W36371  15.611  13.457  12.919
64057W        W36372  28.442   0.466   3.081
64058W        W36373  22.085  29.562   2.495
64059W        W36374  18.146   4.535   0.521
64060W        W36375  35.543  24.484  12.857
64061W        W36376   9.020   2.944   1.321
64062W        W36377  36.769   8.767   3.220
64063W        W36378  38.512  38.233   1.755
64064W        W36379  43.407   8.725   0.642
64065W        W36380  31.840  42.858   0.766
64066W        W36381  19.599  24.573  11.608
64067W        W36382  40.511  36.029   0.832
64068W        W36383  13.094  27.480   2.804
64069W        W36384  26.023   4.921   1.430
64070W        W36385   4.525  42.445  11.542
64071W        W36386  19.766   6.877  14.915
64072W        W36387   5.700  19.079   1.845
64073W        W36388  28.523  37.294   0.507
64074W        W36389  10.417  39.344   3.365
64075W        W36390  17.572  36.862   2.361
64076W        W36391   4.391  43.064   4.601
64077W        W36392  13.267  21.490   0.476
64078W        W36393  38.334  17.668  10.459
64079W        W36394  35.977  17.206  11.665
64080W        W36395   2.996  39.833   1.391
64081W        W36396  29.446  10.636  11.098
64082W        W36397  38.825  42.292   2.269
64083W        W36398   7.277  12.069   0.504
64084W        W36399  15.523  36.905  11.959
64085W        W36400   2.227   4.312   5.129
64086W        W36401  44.824   9.264   2.034
64087W        W36402  36.461  31.736  13.024
64088W        W36403   8.354  23.576   1.083
64089W        W36404   6.205  20.766  11.592
64090W        W36405  34.099  15.059  13.898
64091W        W36406  19.752  31.105   0.472
64092W        W36407  23.090  35.671  11.014
64093W        W36408  34.205  19.634   3.693
64094W        W36409   2.765   4.317   4.601
64095W        W36410  28.136  21.576  10.082
64096W        W36411  26.276   4.410  12.869
64097W        W36412  21.047   4.464  10.725
64098W        W36413   2.382  23.454  11.382
64099W        W36414   4.188  42.369   2.125
64100W        W36415   0.438  21.121  14.542
64101W        W36416  36.297  44.058  11.452
64102W        W36417  44.693  42.062  14.274
64103W        W36418  34.516  30.330   3.178
64104W        W36419  37.899  37.831  11.413
64105W        W36420  27.075  26.974  14.550
64106W        W36421  27.739   6.321  10.221
64107W        W36422  27.307  23.567   2.690
64108W        W36423  25.747   7.033   2.841
64109W        W36424  16.403  34.690  14.730
64110W        W36425  20.431  28.263   3.109
64111W        W36426  21.063  40.045  12.034
64112W        W36427  27.626  31.276   9.729
64113W        W36428  27.007  20.290   0.967
64114W        W36429  26.205  21.737   3.686
64115W        W36430  31.867  36.133  12.820
64116W        W36431  44.443  28.306   4.572
64117W        W36432  20.433  33.365  11.557
64118W        W36433  20.447   6.428   1.268
64119W        W36434  28.125  32.489  13.360
64120W        W36435  17.740  41.047   2.806
64121W        W36436  44.335  14.489  14.264
64122W        W36437  23.021  20.267   0.976
64123W        W36438   4.951   0.772   3.287
64124W        W36439  20.035  29.200   2.340
64125W        W36440  14.682   5.134   4.037
64126W        W36441  11.488  26.450  13.614
64127W        W36442   6.454  31.010   2.778
64128W        W36443  26.896  32.421   4.276
64129W        W36444  35.636  38.206   2.420
64130W        W36445  40.448  12.699  14.907
64131W        W36446   3.561  27.253   4.562
64132W        W36447   3.071  39.038   3.055
64133W        W36448  20.890   8.211   9.813
64134W        W36449  23.915  38.370   3.315
64135W        W36450  20.317  40.063   2.823
64136W        W36451  33.269  38.633   0.886
64137W        W36452  29.248  34.317   5.474
64138W        W36453  19.543  17.529  12.151
64139W        W36454  35.380  42.410   2.171
64140W        W36455  17.241   6.818  11.066
64141W        W36456  40.991  30.819  14.728
64142W        W36457  37.358  28.959  13.334
64143W        W36458   3.433  22.530   2.263
64144W        W36459  35.912  32.201  12.599
64145W        W36460   0.158   0.377  11.882
64146W        W36461  32.105  33.719   0.875
64147W        W36462  24.402  20.127   0.744
64148W        W36463   5.334   0.967   0.396
64149W        W36464  21.671   3.463  12.105
64150W        W36465  42.672   0.797  12.034
64151W        W36466  40.989  39.286  13.003
64152W        W36467   1.868  25.611   1.261
64153W        W36468  41.805  33.428  13.835
64154W        W36469   9.558   7.459   4.479
64155W        W36470  29.048  36.508  14.753
64156W        W36471   2.608  39.093   0.908
64157W        W36472  24.966  35.814  11.125
64158W        W36473  11.813   6.253  12.361
64159W        W36474  27.612   0.504  10.826
64160W        W36475  19.963  22.719   1.529
64161W        W36476  21.165  43.978   3.897
64162W        W36477  29.526  43.743   4.576
64163W        W36478   1.789  13.050   1.957
64164W        W36479  44.845  42.930   2.151
64165W        W36480  16.152   0.521  14.137
64166W        W36481   4.779  25.147  13.382
64167W        W36482  44.691  40.850  11.168
64168W        W36483   0.276   0.799  12.813
64169W        W36484  27.308  41.547  10.795
64170W        W36485  13.297   7.274   4.653
64171W        W36486   1.270   5.060  13.472
64172W        W36487   4.622  33.578   2.118
64173W        W36488  32.297  17.463   3.797
64174W        W36489  31.179   3.384   2.415
64175W        W36490  12.890   4.245   4.217
64176W        W36491  28.893  29.985   0.692
64177W        W36492  11.859   5.301   1.502
64178W        W36493  44.007  11.426   0.912
64179W        W36494  44.009  39.363  10.925
64180W        W36495   0.950  22.047   2.533
64181W        W36496  44.752  17.107   3.148
64182W        W36497   9.275  30.576  13.911
64183W        W36498   6.634  32.129  11.035
64184W        W36499  17.639   4.552   2.459
64185W        W36500  11.712   0.575   4.232
64186W        W36501  41.951   8.171   1.312
64187W        W36502  38.394  24.237   3.665
64188W        W36503  28.974  41.493   2.169
64189W        W36504  35.641   5.374   0.250
64190W        W36505  17.055  36.948   2.419
64191W        W36506  16.810  41.762  13.819
64192W        W36507  34.002   9.418  11.542
64193W        W36508  27.551  30.506  14.117
64194W        W36509  29.478   3.951  10.686
64195W        W36510  22.224  40.007   2.231
64196W        W36511  18.038  26.586   2.763
64197W        W36512  34.983   0.953  13.314
64198W        W36513  38.709  36.496   1.767
64199W        W36514  31.971  19.966  11.534
64200W        W36515  37.013  43.069   1.805
64201W        W36516  30.166   5.658  13.599
64202W        W36517  41.088  40.780   3.141
64203W        W36518  30.071  12.813  12.921
64204W        W36519  28.680  28.022  14.069
64205W        W36520  40.723  43.889  11.529
64206W        W36521  40.888  26.983   0.399
64207W        W36522  11.193  22.143  13.434
64208W        W36523   3.903   8.864  12.158
64209W        W36524  24.650   1.685   0.337
64210W        W36525  22.097  44.765  13.441
64211W        W36526  10.576   2.824  11.678
64212W        W36527  20.503  20.958   1.974
64213W        W36528  27.053  16.309   3.798
64214W        W36529  33.252  16.414  11.520
64215W        W36530   9.547  35.219  12.570
64216W        W36531   0.315  34.511   5.238
64217W        W36532  10.700   7.921   3.665
64218W        W36533  32.360   9.795   3.340
64219W        W36534  25.274  26.989   4.181
64220W        W36535  24.774   9.226   1.679
64221W        W36536   7.424  37.389  13.552
64222W        W36537  22.049  28.847   0.219
64223W        W36538  15.487  14.118  12.175
64224W        W36539   6.820   0.507  13.212
64225W        W36540   4.754  18.324   4.124
64226W        W36541   7.054   4.491  14.268
64227W        W36542  33.490  28.194  12.499
64228W        W36543  26.456  23.579   1.401
64229W        W36544  44.523  29.644  10.580
64230W        W36545  29.510  29.561   4.936
64231W        W36546  27.195  12.228  12.488
64232W        W36547   9.082  11.219   3.311
64233W        W36548  21.033  18.757   4.102
64234W        W36549  43.929  20.153  12.064
64235W        W36550  36.393  19.961   2.337
64236W        W36551  34.409  22.625   2.360
64237W        W36552  36.711  19.697  12.908
64238W        W36553  10.895  18.768  10.335
64239W        W36554  19.356   1.649  13.020
64240W        W36555  37.615   5.841  11.612
64241W        W36556   4.684  38.947  11.999
64242W        W36557  14.817  39.890  11.985
64243W        W36558   6.721   6.691   4.898
64244W        W36559  22.605  18.276   0.838
64245W        W36560   4.955  41.566   2.314
64246W        W36561  14.892  18.030  11.159
64247W        W36562  18.729  14.645  12.586
64248W        W36563  43.948  27.114   1.935
64249W        W36564  26.501  37.519   0.766
64250W        W36565  14.675   5.772   4.513
64251W        W36566  26.733  16.024  13.338
64252W        W36567  33.994  34.995   2.495
64253W        W36568  26.144  27.426  12.611
64254W        W36569  18.588  43.738   2.217
64255W        W36570  17.707  41.868   1.790
64256W        W36571  26.522  35.413   1.120
64257W        W36572   9.378  32.422  12.668
64258W        W36573  25.455  40.916   3.288
64259W        W36574  25.186   7.203  11.957
64260W        W36575   0.009   9.529   2.450
64261W        W36576  30.250  35.932   1.828
64262W        W36577  10.424  18.693   1.971
64263W        W36578  14.204  27.747   5.093
64264W        W36579   5.337   0.068   2.739
64265W        W36580   6.493  12.393  12.349
64266W        W36581  11.289   8.660  14.383
64267W        W36582  16.626  37.559  14.666
64268W        W36583  39.256   8.373  11.276
64269W        W36584  18.373   5.941  14.316
64270W        W36585  20.749   8.378   1.816
64271W        W36586   9.493   8.265   4.876
64272W        W36587  21.461  41.407   4.132
64273W        W36588  35.550  15.916  11.990
64274W        W36589   0.323  14.339  12.603
64275W        W36590  34.026   7.743  10.667
64276W        W36591  21.103  42.479  12.575
64277W        W36592  19.762   6.376  12.196
64278W        W36593  44.541  34.699  11.011
64279W        W36594  14.680  28.692   2.154
64280W        W36595  31.423  24.141   4.600
64281W        W36596  16.665  37.421   1.260
64282W        W36597   1.745  41.229  12.364
64283W        W36598   6.629  38.218  11.710
64284W        W36599  39.372   7.930  13.085
64285W        W36600  44.477  26.188   0.364
64286W        W36601  35.322  35.027   3.885
64287W        W36602  24.177   4.260   3.569
64288W        W36603   4.793   0.234   3.354
64289W        W36604  23.506  18.688  10.641
64290W        W36605  39.479   0.286  14.606
64291W        W36606  20.781  18.253   2.919
64292W        W36607  22.914   9.658   3.768
64293W        W36608  40.462  11.288   0.662
64294W        W36609  21.205   7.983   3.587
64295W        W36610  13.239  30.488   1.383
64296W        W36611   0.507  37.858  12.957
64297W        W36612  13.860  27.566  11.861
64298W        W36613   2.958  17.552  14.895
64299W        W36614  44.507  33.155   4.304
64300W        W36615  35.440  41.427  12.892
64301W        W36616   3.225  19.102   2.096
64302W        W36617  33.819  19.036   2.871
64303W        W36618  24.217  21.208   3.297
64304W        W36619  19.164   6.764  11.652
64305W        W36620  44.670  18.852   1.028
64306W        W36621  22.921  22.289   2.809
64307W        W36622  31.561  35.226  13.881
64308W        W36623  21.152  24.263   0.284
64309W        W36624   1.662  34.592   9.903
64310W        W36625  33.956   1.241  10.529
64311W        W36626  26.337  40.481  13.953
64312W        W36627  42.203  10.862  14.409
64313W        W36628  36.100  33.451  13.968
64314W        W36629  20.257  32.168  10.617
64315W        W36630  18.805  38.836   2.149
64316W        W36631  19.666   0.894   3.575
64317W        W36632  30.006  23.663  12.281
64318W        W36633   1.962  22.930  14.302
64319W        W36634  23.656  20.681  13.006
64320W        W36635  37.549  29.153  14.274
64321W        W36636   8.729   3.164   3.613
64322W        W36637  14.279   4.381   1.746
64323W        W36638   0.787   7.267  12.890
64324W        W36639   0.032   5.762   4.571
64325W        W36640   2.209  24.141  11.230
64326W        W36641  26.616  14.857   1.304
64327W        W36642   9.101   4.811  11.143
64328W        W36643  33.052  43.753   2.572
64329W        W36644   9.867  36.597   0.438
64330W        W36645   5.862  37.047  14.315
64331W        W36646   4.348  28.713   4.232
64332W        W36647  28.426  27.668   1.269
64333W        W36648   4.158  28.230   4.185
64334W        W36649  12.006  28.280  11.885
64335W        W36650  32.648  26.487   0.785
64336W        W36651  15.113  36.901   1.630
64337W        W36652  16.881  35.311  11.123
64338W        W36653  42.777  38.385   4.559
64339W        W36654   3.396  39.706  13.409
64340W        W36655   6.441  31.635  14.718
64341W        W36656  20.511  41.012  10.667
64342W        W36657  44.276  35.895   3.986
64343W        W36658  42.550   4.871   1.396
64344W        W36659  10.108  13.588  10.718
64345W        W36660  14.869  10.785   1.970
64346W        W36661  11.158  11.253   0.428
64347W        W36662  30.052  13.579   3.542
64348W        W36663  31.096  40.088   4.574
64349W        W36664  44.224  33.923   3.212
64350W        W36665   1.273  39.866  12.495
64351W        W36666   7.540   7.657  13.186
64352W        W36667  30.985  34.147   0.972
64353W        W36668  13.797  15.000   1.679
64354W        W36669  38.138  40.939   0.605
64355W        W36670  25.867  42.423  12.962
64356W        W36671   8.272   8.702  14.322
64357W        W36672  13.209  26.588  13.816
64358W        W36673   9.111  28.369   0.858
64359W        W36674  16.274  27.415  10.627
64360W        W36675  11.780  18.490   4.209
64361W        W36676  25.660  44.556   1.142
64362W        W36677   8.435  27.216   2.646
64363W        W36678  17.473  23.739  13.978
64364W        W36679  10.692  18.216  12.602
64365W        W36680  11.521  24.793   2.773
64366W        W36681  11.415   5.756  10.723
64367W        W36682  43.935   5.709   1.147
64368W        W36683  35.903   9.184   4.116
64369W        W36684   9.674  18.926   3.307
64370W        W36685   1.437  13.083   0.734
64371W        W36686  44.627  29.517   1.338
64372W        W36687  36.805  44.804   4.506
64373W        W36688  31.318  11.767   2.280
64374W        W36689  27.461  39.156  14.771
64375W        W36690  10.547  23.558  13.496
64376W        W36691  28.928  42.737  13.440
64377W        W36692  43.966  43.753   0.951
64378W        W36693  32.602  18.092   1.422
64379W        W36694  31.011  15.854   2.347
64380W        W36695  11.613   6.694  12.769
64381W        W36696   7.545  32.617   0.176
64382W        W36697   8.732  13.360   0.350
64383W        W36698  14.308  37.786  14.959
64384W        W36699  21.560  26.996   0.528
64385W        W36700  25.113  20.736  10.637
64386W        W36701  22.834  15.659  13.043
64387W        W36702   7.775  28.187  11.048
64388W        W36703   0.534   6.504   3.330
64389W        W36704   0.425   7.226   4.664
64390W        W36705  40.568   2.164   1.009
64391W        W36706  40.001  44.029  14.709
64392W        W36707   9.231  21.680  14.837
64393W        W36708  27.416   6.367   3.267
64394W        W36709  33.041  42.735   2.592
64395W        W36710  31.007   6.731   2.132
64396W        W36711  34.847   8.453  13.310
64397W        W36712  13.280  16.061  13.998
64398W        W36713   7.653   8.336   1.243
64399W        W36714  42.356   4.714  13.313
64400W        W36715   5.493   4.261   2.129
64401W        W36716   0.798   2.394   0.542
64402W        W36717  36.102   4.260  13.925
64403W        W36718  43.617  32.545  13.084
64404W        W36719  32.399   2.582  14.274
64405W        W36720  15.148  42.388   3.115
64406W        W36721  27.201   6.285  13.302
64407W        W36722  23.431  15.212   3.731
64408W        W36723  20.008  44.547  11.643
64409W        W36724  22.963  37.654  14.737
64410W        W36725  25.977  25.115  12.429
64411W        W36726   7.749  16.340  12.923
64412W        W36727  27.538   4.396   3.861
64413W        W36728  27.704   3.707  12.447
64414W        W36729  29.020  39.295   0.568
64415W        W36730  41.828  35.569   1.753
64416W        W36731   1.540  23.909   0.800
64417W        W36732  16.130  12.423  12.074
64418W        W36733   9.463  10.887  11.509
64419W        W36734  34.606  16.393   2.668
64420W        W36735  36.641   3.568  12.918
64421W        W36736  24.074  11.230  10.553
64422W        W36737   5.766  39.732   2.140
64423W        W36738   9.214   2.885  14.961
64424W        W36739  11.979  39.047  14.989
64425W        W36740  21.087  20.074  12.934
64426W        W36741  10.607   0.462   2.244
64427W        W36742   9.732   6.433   0.851
64428W        W36743   5.381  20.501  14.782
64429W        W36744  28.178  35.620  14.799
64430W        W36745  20.694  30.432  14.371
64431W        W36746  13.320  15.548  14.017
64432W        W36747   3.126  23.624   4.138
64433W        W36748   9.179   4.035   4.458
64434W        W36749  39.059  15.088  14.794
64435W        W36750  15.505  27.844  12.374
64436W        W36751  16.132  23.622   1.783
64437W        W36752  30.142  11.651  13.529
64438W        W36753  28.564  14.540  13.245
64439W        W36754  13.866  11.302   3.451
64440W        W36755  40.958  44.044  13.533
64441W        W36756  30.470  38.301   0.259
64442W        W36757  19.261  29.077  10.687
64443W        W36758  32.008   1.508   1.351
64444W        W36759   4.395   1.708  10.345
64445W        W36760   5.821   9.837  14.398
64446W        W36761  11.056   4.066  13.871
64447W        W36762   5.597  36.990   4.595
64448W        W36763  29.091  23.235   4.049
64449W        W36764   7.778  34.115  11.455
64450W        W36765  29.015  40.548   4.827
64451W        W36766  29.235  35.080  14.383
64452W        W36767   9.147  41.336   1.652
64453W        W36768  44.004  18.790  11.834
64454W        W36769  41.015   8.416  14.247
64455W        W36770  16.770  15.676  11.468
64456W        W36771  40.044   7.146  11.536
64457W        W36772  42.090  44.193   2.823
64458W        W36773  39.172  27.620   0.209
64459W        W36774  15.233  25.051  14.352
64460W        W36775   7.927  18.561  11.045
64461W        W36776  12.782  41.261   2.387
64462W        W36777   1.286  34.663  10.568
64463W        W36778  39.784  24.114  12.175
64464W        W36779  20.604  36.510   0.956
64465W        W36780  23.172  39.319   1.829
64466W        W36781  40.032  17.828  11.213
64467W        W36782  38.483  33.942  10.655
64468W        W36783  26.762  26.086   1.186
64469W        W36784  39.967   8.216   4.072
64470W        W36785   1.446   8.564   1.875
64471W        W36786  32.473   8.635   1.011
64472W        W36787  36.469  12.217   0.686
64473W        W36788  29.906  24.483  14.120
64474W        W36789  16.927   5.388   1.788
64475W        W36790  35.575  14.084  13.536
64476W        W36791   9.040  38.713  10.351
64477W        W36792  23.118  17.605   4.323
64478W        W36793  41.845  15.521  13.918
64479W        W36794   1.957   9.191   4.980
64480W        W36795   8.834  12.779   3.256
64481W        W36796   0.902  24.650  13.945
64482W        W36797  39.330   2.377   1.711
64483W        W36798   3.490   3.983  10.778
64484W        W36799  41.389   7.301  12.916
64485W        W36800  10.221   9.260   3.135
64486W        W36801  15.701  41.290   0.459
64487W        W36802  20.221  19.072   4.118
64488W        W36803  20.420   1.029   3.346
64489W        W36804  39.836   4.019   2.370
64490W        W36805  35.354  23.412   0.940
64491W        W36806  24.351  26.005   2.209
64492W        W36807  31.559  17.547   4.074
64493W        W36808  39.478  34.157  11.899
64494W        W36809  36.383  37.541  14.369
64495W        W36810  19.343  20.763   1.728
64496W        W36811   2.904  40.558   2.756
64497W        W36812  44.232  24.766   4.526
64498W        W36813  12.374  10.662   4.569
64499W        W36814  31.346   9.754  12.892
64500W        W36815   9.683  16.137   0.374
64501W        W36816   9.746  20.658   1.765
64502W        W36817  25.060  42.280   0.286
64503W        W36818  30.566   9.399  12.734
64504W        W36819   7.072  21.153  11.554
64505W        W36820   5.235  13.372   4.688
64506W        W36821  36.382   9.173   0.435
64507W        W36822  42.524  39.332   4.525
64508W        W36823  13.570   7.435   1.784
64509W        W36824  14.538  44.745   3.169
64510W        W36825   9.783  22.641  12.844
64511W        W36826  22.233  10.690  11.580
64512W        W36827  30.411  17.166   4.768
64513W        W36828  15.104  37.064  13.483
64514W        W36829  37.672   0.037  14.457
64515W        W36830  17.339  21.225  12.407
64516W        W36831  11.701  39.330   4.936
64517W        W36832  10.083  42.235  13.845
64518W        W36833  26.631  14.315  11.825
64519W        W36834  20.174   3.814   4.661
64520W        W36835   5.386  24.481   1.270
64521W        W36836   9.941  17.365  12.373
64522W        W36837  30.336  42.952  14.884
64523W        W36838  42.464  37.506   2.582
64524W        W36839  13.937  26.122  10.711
64525W        W36840  38.581  35.538  11.506
64526W        W36841  38.409  10.116  14.441
64527W        W36842  42.794   0.909  14.874
64528W        W36843  44.978  30.711   3.225
64529W        W36844   8.378  19.352  14.316
64530W        W36845   2.928  40.320  13.676
64531W        W36846  41.767   7.919  13.748
64532W        W36847  43.255   1.440   4.205
64533W        W36848  37.827  42.490   3.218
64534W        W36849  42.961  35.076   1.940
64535W        W36850  37.894  40.874   4.494
64536W        W36851  26.765   7.273  13.307
64537W        W36852  43.141  43.033  11.869
64538W        W36853  30.717  10.402  10.298
64539W        W36854  44.873  43.551  12.830
64540W        W36855   3.021  12.093  14.914
64541W        W36856  33.708  23.565   1.934
64542W        W36857  33.298   8.188  10.053
64543W        W36858  20.703  12.173  13.593
64544W        W36859  36.544  44.738  12.453
64545W        W36860  18.313   7.655   1.821
64546W        W36861  35.888   4.677   1.879
64547W        W36862  20.278  25.193   2.799
64548W        W36863  39.322   5.267   0.432
64549W        W36864  12.786  13.414  10.781
64550W        W36865   6.913   4.825   4.119
64551W        W36866  11.409   6.247   0.719
64552W        W36867  24.038  24.728   0.465
64553W        W36868   8.924  29.007  14.959
64554W        W36869  14.179   8.740   2.325
64555W        W36870  38.347  15.172  13.858
64556W        W36871  11.852  31.387   3.285
64557W        W36872  34.338  24.253  13.305
64558W        W36873  32.610  24.680   2.761
64559W        W36874  14.343  19.130   0.618
64560W        W36875  23.820   0.227   0.618
64561W        W36876  29.238  22.992   0.272
64562W        W36877  41.942  11.673  12.089
64563W        W36878  34.765  10.983  12.445
64564W        W36879  34.816  13.602  10.801
64565W        W36880   3.401  20.746  10.853
64566W        W36881   2.805  11.869   0.421
64567W        W36882  27.044  14.258  12.610
64568W        W36883  38.060  33.016  13.305
64569W        W36884  42.859  27.322  10.630
64570W        W36885  40.218   0.754   0.040
64571W        W36886  14.937  19.325  10.875
64572W        W36887  16.136  32.374  12.024
64573W        W36888  18.815   5.880  13.997
64574W        W36889  19.484  26.395  11.205
64575W        W36890  27.566  13.417   0.761
64576W        W36891  11.363  39.776  11.051
64577W        W36892  12.306   7.022  13.037
64578W        W36893  25.713  18.356   2.699
64579W        W36894  29.418  40.570  14.932
64580W        W36895  37.012  30.926   1.172
64581W        W36896  21.296  14.245  12.100
64582W        W36897  34.447  34.147   0.020
64583W        W36898  39.959  10.331   1.720
64584W        W36899   4.484  42.977  13.851
64585W        W36900  19.082  22.249   1.393
64586W        W36901   6.519  38.480  13.434
64587W        W36902  39.517  40.823  12.697
64588W        W36903  26.419  35.872   1.343
64589W        W36904  17.550  19.663   3.650
64590W        W36905  42.282  41.783   1.027
64591W        W36906  27.522  18.429  10.671
64592W        W36907   6.146  15.620  13.411
64593W        W36908   8.881   8.993   3.786
64594W        W36909  39.974  26.379   5.605
64595W        W36910  18.824   0.869   2.900
64596W        W36911  14.309   8.457   3.261
64597W        W36912  39.301  24.666   0.485
64598W        W36913  26.638  31.285   2.622
64599W        W36914  10.608  29.628  12.478
64600W        W36915  26.580  19.136   2.803
64601W        W36916  41.752   3.787   0.870
64602W        W36917  43.008  11.396  14.358
64603W        W36918  13.043  35.658  10.968
64604W        W36919   8.274  33.685  13.562
64605W        W36920  35.297  30.390   0.420
64606W        W36921  12.266  34.039  11.427
64607W        W36922  32.322  15.818  13.924
64608W        W36923  11.076  22.780   4.418
64609W        W36924  28.763  41.424  14.458
64610W        W36925  41.583  28.701  13.984
64611W        W36926  22.157  23.987   3.477
64612W        W36927  32.710  13.819   1.000
64613W        W36928  17.802  23.474  14.760
64614W        W36929  37.091   4.538   2.843
64615W        W36930   1.757  11.322  13.491
64616W        W36931  29.900  39.508   3.703
64617W        W36932  27.405  20.736  11.037
64618W        W36933  40.336  21.665   2.380
64619W        W36934  21.803   1.674  14.571
64620W        W36935  17.106  37.911   3.244
64621W        W36936  31.772  19.625  11.203
64622W        W36937  35.834   1.861  14.363
64623W        W36938   3.990  14.065   1.762
64624W        W36939  27.624  40.498   3.295
64625W        W36940   8.979   9.935  11.944
64626W        W36941  15.300  12.635  14.370
64627W        W36942  42.030  22.009   1.729
64628W        W36943  17.693  11.125  10.599
64629W        W36944  17.528  29.899   3.253
64630W        W36945  35.374   4.525  11.143
64631W        W36946  22.518   2.222  14.947
64632W        W36947   5.624  33.201   2.714
64633W        W36948   7.809  23.105   0.409
64634W        W36949  22.928  15.310  14.065
64635W        W36950  19.283  36.348   0.579
64636W        W36951  36.874  14.358  13.386
64637W        W36952  29.724  19.609  14.498
64638W        W36953  41.490  23.336  14.520
64639W        W36954  39.281   1.376  11.080
64640W        W36955   7.529  42.755  13.818
64641W        W36956   6.743  28.745   2.663
64642W        W36957   7.826  37.774  12.351
64643W        W36958  42.827  23.534   2.094
64644W        W36959  10.078  37.263  12.219
64645W        W36960  20.084  24.436   4.226
64646W        W36961  44.850   2.380  14.383
64647W        W36962  11.604  22.163   3.352
64648W        W36963  41.544  31.130  10.694
64649W        W36964  32.435  11.809  11.317
64650W        W36965  31.915  22.172   4.293
64651W        W36966  35.147  35.833   1.888
64652W        W36967  29.178   0.506  14.798
64653W        W36968  42.353  24.701  13.106
64654W        W36969  25.424   9.740   3.990
64655W        W36970  21.099   5.359   3.654
64656W        W36971  11.180  19.530  13.033
64657W        W36972   3.953  29.604   1.846
64658W        W36973   6.697  28.572   3.627
64659W        W36974  32.847   2.122  11.226
64660W        W36975  32.073  30.559  11.943
64661W        W36976  15.565  35.954   2.422
64662W        W36977  35.128   2.254   2.892
64663W        W36978  33.425  37.162  11.515
64664W        W36979  35.910  29.146  12.469
64665W        W36980  20.450  28.561   0.949
64666W        W36981  36.866  17.713   2.697
64667W        W36982  39.298  13.569   4.281
64668W        W36983  44.571  44.000  14.938
64669W        W36984   2.266   1.365   4.375
64670W        W36985  31.854   5.696  12.402
64671W        W36986  42.556  32.840  14.463
64672W        W36987  30.652  42.825   1.263
64673W        W36988  27.029  39.410  13.841
64674W        W36989  27.385  42.678  11.650
64675W        W36990  17.041   5.287   3.175
64676W        W36991  38.828  24.392  11.221
64677W        W36992   0.033  11.611  11.640
64678W        W36993  24.590  17.093  14.946
64679W        W36994  31.667  13.799  11.804
64680W        W36995  27.565  25.531   4.855
64681W        W36996  42.881   6.951  12.876
64682W        W36997  32.748  34.372   4.580
64683W        W36998  33.674   2.914  10.635
64684W        W36999  12.750  12.777   3.729
64685W        W37000  30.035  19.757   0.748
64686W        W37001  27.683  38.346  11.093
64687W        W37002  30.262  12.645   3.678
64688W        W37003  27.914  28.137  14.221
64689W        W37004  23.951  23.517  11.137
64690W        W37005   8.828  27.437  12.328
64691W        W37006   1.477  12.166  13.915
64692W        W37007  11.205  34.682   1.250
64693W        W37008   5.528  39.778   0.317
64694W        W37009  25.455   7.223  13.793
64695W        W37010  14.587  44.054  10.650
64696W        W37011  19.715  34.414   4.181
64697W        W37012  28.459  16.312   1.598
64698W        W37013  12.182  19.599  11.598
64699W        W37014   7.662  26.807  12.157
64700W        W37015  19.867   2.038  11.096
64701W        W37016  28.470   9.411   1.348
64702W        W37017  41.912   6.373  11.947
64703W        W37018  19.533  18.325   1.800
64704W        W37019   6.851  31.031  12.909
64705W        W37020  43.395   0.278  11.027
64706W        W37021   7.886  35.736   1.118
64707W        W37022  16.293  31.767   3.121
64708W        W37023  35.887  25.325   0.817
64709W        W37024   0.054  28.062   1.739
64710W        W37025  38.035  24.535   0.676
64711W        W37026  35.307  12.829   2.726
64712W        W37027  30.859  16.298  13.561
64713W        W37028  11.658  39.460  10.713
64714W        W37029  26.152  39.849   1.617
64715W        W37030   6.807  15.814   3.622
64716W        W37031  19.881   6.184  14.482
64717W        W37032  24.977   2.738   3.573
64718W        W37033  30.104  23.496  13.817
64719W        W37034   5.779  13.237  12.538
64720W        W37035   5.255  25.657   3.372
64721W        W37036  33.848  11.840  14.312
64722W        W37037  11.603  10.739  10.407
64723W        W37038  32.836  42.826   1.736
64724W        W37039  31.018   7.358  14.230
64725W        W37040  19.562  22.266  13.494
64726W        W37041  42.047   6.850  12.675
64727W        W37042  35.064  41.755   1.694
64728W        W37043   1.726   0.247   2.915
64729W        W37044   5.785  37.645   2.775
64730W        W37045  26.949  37.942   4.276
64731W        W37046  42.399  30.570   1.278
64732W        W37047  41.518  25.709  13.538
64733W        W37048  27.472  30.670  12.433
64734W        W37049   4.733   1.661  11.184
64735W        W37050  11.840   2.447   0.305
64736W        W37051  36.583   9.853  12.483
64737W        W37052  40.288  13.199  13.907
64738W        W37053  16.609  19.046   0.954
64739W        W37054  36.083  33.041  13.407
64740W        W37055   1.879   4.647   0.779
64741W        W37056  40.512   2.505   1.409
64742W        W37057   0.662  31.697  10.705
64743W        W37058  35.368   7.831  13.585
64744W        W37059  27.880  35.059  12.039
64745W        W37060  27.370   9.832  13.567
64746W        W37061  36.542   5.195   0.239
64747W        W37062  13.845   8.367   2.468
64748W        W37063  10.302  40.724   3.665
64749W        W37064   2.702  25.076  10.813
64750W        W37065  42.877  43.424  14.214
64751W        W37066  25.935  23.668  12.799
64752W        W37067  42.457  20.120  11.566
64753W        W37068   5.767  35.881   1.374
64754W        W37069  26.605  38.144   3.108
64755W        W37070  19.294  10.669  12.023
64756W        W37071  22.602  23.955  12.411
64757W        W37072  37.367  40.929   4.699
64758W        W37073   3.496  20.304   5.061
64759W        W37074   6.980  34.746   1.445
64760W        W37075   4.065   5.168  11.152
64761W        W37076  19.006   3.958  11.987
64762W        W37077   7.987   1.347  13.455
64763W        W37078  40.037   6.240  14.005
64764W        W37079  23.262   4.496   3.176
64765W        W37080  31.000   3.656   3.530
64766W        W37081  26.175   7.842   1.252
64767W        W37082  29.358  34.868   1.281
64768W        W37083  36.571  15.911  12.035
64769W        W37084   3.997  17.047  11.146
64770W        W37085  21.570   2.874   2.608
64771W        W37086   9.661  30.716   1.366
64772W        W37087  27.048  17.275   3.398
64773W        W37088  36.293  13.085  13.514
64774W        W37089  22.731   3.223   0.339
64775W        W37090  39.861  35.865   2.207
64776W        W37091   2.451   0.456  13.135
64777W        W37092  29.965  15.704  14.425
64778W        W37093   7.701  20.640  13.855
64779W        W37094   5.690  14.219   0.557
64780W        W37095   8.756   4.399   2.893
64781W        W37096  11.670  34.155   2.764
64782W        W37097  20.116   3.643   3.700
64783W        W37098   9.822  28.989   0.060
64784W        W37099  38.253  38.339  14.484
64785W        W37100  44.580  41.493   3.674
64786W        W37101  29.847   5.478   3.593
64787W        W37102  31.028  20.516  14.477
64788W        W37103  19.176   0.159  14.306
64789W        W37104   8.054  41.502  11.555
64790W        W37105  12.135  20.886  11.078
64791W        W37106  38.840   0.507   4.382
64792W        W37107  12.275  26.120   3.881
64793W        W37108  35.052  22.006  11.620
64794W        W37109  21.106  30.589  13.526
64795W        W37110  19.580  27.806  10.722
64796W        W37111  36.556  43.532  10.731
64797W        W37112   5.788  44.277  13.878
64798W        W37113  31.409  29.747   1.908
64799W        W37114  16.511  37.682  11.528
64800W        W37115  24.803   7.109   0.004
64801W        W37116   7.693   1.207  14.437
64802W        W37117  43.733  25.787  12.086
64803W        W37118  40.932   5.319   0.256
64804W        W37119   9.458  36.177   2.319
64805W        W37120  36.845  22.552   0.372
64806W        W37121   8.633  17.643  12.920
64807W        W37122   2.260  30.273  11.229
64808W        W37123   7.888  42.435   3.038
64809W        W37124  44.725   9.770  12.937
64810W        W37125  14.003  11.223  11.136
64811W        W37126  20.339   8.852  11.490
64812W        W37127  18.561   0.537  13.708
64813W        W37128   5.362   9.691   0.847
64814W        W37129  11.731  37.571  10.301
64815W        W37130   3.062  11.301  14.778
64816W        W37131   9.007  26.125  11.143
64817W        W37132   7.132  15.357  11.607
64818W        W37133  25.091   4.416   3.710
64819W        W37134  30.511  40.034  12.553
64820W        W37135  13.665  15.202   1.223
64821W        W37136  20.737  30.535   4.571
64822W        W37137  16.718  36.104  14.870
64823W        W37138  16.800   5.264  12.381
64824W        W37139  20.634  39.246   1.522
64825W        W37140   4.978  29.001   2.329
64826W        W37141   3.153  35.212  14.433
64827W        W37142   4.120  30.065   0.337
64828W        W37143  38.349  31.424  13.938
64829W        W37144  36.112  39.607   2.769
64830W        W37145  43.330  39.213   2.575
64831W        W37146  40.278  12.405  14.478
64832W        W37147  28.946  31.410   9.799
64833W        W37148   9.307  39.348   4.856
64834W        W37149  39.641  21.160   4.137
64835W        W37150  29.187  18.781  10.747
64836W        W37151  35.427  38.025  10.723
64837W        W37152  13.107  36.970   5.000
64838W        W37153   0.550  42.619  12.057
64839W        W37154  31.970  20.291  11.957
64840W        W37155  29.620  43.563   2.196
64841W        W37156  44.207  19.662   4.210
64842W        W37157  31.052  30.498  12.224
64843W        W37158  17.415  28.068   4.589
64844W        W37159  38.589  17.189   4.114
64845W        W37160  29.953  37.328  11.122
64846W        W37161  15.989  20.782   1.873
64847W        W37162  26.918  30.425  13.320
64848W        W37163  20.195  38.822   5.463
64849W        W37164  44.624  34.632  12.868
64850W        W37165  23.085   4.682  12.107
64851W        W37166  39.603  24.539   2.364
64852W        W37167   5.186   3.946   1.815
64853W        W37168  40.748  26.861  14.479
64854W        W37169  17.633  40.920  11.591
64855W        W37170   4.202  42.931  13.388
64856W        W37171  19.587  42.937  12.320
64857W        W37172  39.999  37.972  11.501
64858W        W37173  33.135  44.281   3.114
64859W        W37174  30.662  43.291   1.504
64860W        W37175  10.039  29.755   4.586
64861W        W37176  29.751  10.309   4.296
64862W        W37177  42.827  39.495   2.818
64863W        W37178   7.573   2.307  11.112
64864W        W37179  25.765  26.945   3.269
64865W        W37180  13.134  25.961   0.247
64866W        W37181   5.179  32.907   2.762
64867W        W37182  24.307   0.538   4.287
64868W        W37183  34.621  13.679   0.232
64869W        W37184  15.808  13.732  12.073
64870W        W37185  39.921  35.848  14.255
64871W        W37186  27.226   7.345   3.459
64872W        W37187  18.530  37.583   1.185
64873W        W37188   6.093   7.130   0.307
64874W        W37189   2.794  24.966   3.955
64875W        W37190  22.943  24.093  11.089
64876W        W37191  18.752  39.373  11.869
64877W        W37192  44.953  17.556   1.343
64878W        W37193  17.262  23.525  14.417
64879W        W37194  41.551  13.852  12.533
64880W        W37195   9.241   2.960   0.847
64881W        W37196  31.228   4.752  14.743
64882W        W37197  12.743  21.786  11.362
64883W        W37198  34.079  14.405   4.932
64884W        W37199   9.820   9.676  13.865
64885W        W37200   2.528  20.300  10.797
64886W        W37201  21.554  44.306  10.714
64887W        W37202   7.711  27.984  13.957
64888W        W37203  19.026  27.016   3.184
64889W        W37204  38.561  37.043   3.370
64890W        W37205  36.674  39.470  14.343
64891W        W37206   3.666  13.257  14.019
64892W        W37207  10.383  22.519   5.122
64893W        W37208   8.798   9.867  14.730
64894W        W37209  34.540  44.231   4.166
64895W        W37210  29.398  36.386   2.249
64896W        W37211  37.975   5.481   2.006
64897W        W37212   8.872  21.586   3.813
64898W        W37213  31.942  26.167   3.698
64899W        W37214  34.320  13.290   0.400
64900W        W37215  26.958  13.713  11.294
64901W        W37216  19.986  14.668  10.657
64902W        W37217  27.122  33.098   3.741
64903W        W37218   2.759  40.447   4.780
64904W        W37219   5.306  12.071   2.787
64905W        W37220   2.064  35.119   2.320
64906W        W37221  32.949   5.258  11.903
64907W        W37222  42.520  40.908   4.456
64908W        W37223  19.315  11.240   1.148
64909W        W37224  43.471  19.866  13.343
64910W        W37225  22.113  30.071   0.377
64911W        W37226  18.563  38.391   1.900
64912W        W37227  39.365  40.355  13.903
64913W        W37228  30.901  43.488  11.859
64914W        W37229  41.517   8.319  13.496
64915W        W37230  44.594   7.516  11.895
64916W        W37231  33.534  44.618  14.392
64917W        W37232  11.782  16.167  11.193
64918W        W37233  35.210  26.271   4.081
64919W        W37234  27.410  32.436   4.178
64920W        W37235  43.839  23.496   4.101
64921W        W37236   2.152  10.836   3.353
64922W        W37237  28.069  37.081   1.431
64923W        W37238  30.315  30.881  10.665
64924W        W37239   3.883  11.053  10.996
64925W        W37240  25.328  32.942   0.474
64926W        W37241  15.058  32.237   3.575
64927W        W37242  20.798  13.532   0.108
64928W        W37243  22.700  14.862   0.312
64929W        W37244  10.614  42.827  13.098
64930W        W37245   8.587  42.024   1.734
64931W        W37246   9.339   4.427  13.425
64932W        W37247   2.433   0.407  14.545
64933W        W37248  15.652  25.344  14.362
64934W        W37249  21.563   5.613   3.685
64935W        W37250  15.056  17.060  14.845
64936W        W37251  32.039   6.723   1.899
64937W        W37252  38.904   8.850  13.017
64938W        W37253   0.196  40.778   4.132
64939W        W37254  27.106  39.951  13.025
64940W        W37255  26.460  10.643   2.089
64941W        W37256   1.026  37.186   2.632
64942W        W37257  32.515   4.270   1.800
64943W        W37258  29.984  21.710   0.047
64944W        W37259  24.711  10.293   3.327
64945W        W37260   3.788  33.334   1.255
64946W        W37261   7.404  23.185   2.344
64947W        W37262  31.448  39.505   0.778
64948W        W37263  13.342  41.343  10.250
64949W        W37264  22.479  24.335  12.054
64950W        W37265  21.841  21.777  13.590
64951W        W37266   7.794  31.638  11.993
64952W        W37267  32.409   8.385   2.319
64953W        W37268  26.770  30.218   0.305
64954W        W37269  17.039  22.172  12.803
64955W        W37270  23.113  31.643   0.414
64956W        W37271   5.756   7.461   3.626
64957W        W37272  10.191  28.269   4.566
64958W        W37273  14.401  41.433  12.068
64959W        W37274  28.111  27.986   2.730
64960W        W37275  38.241  36.870   0.307
64961W        W37276  12.975  14.088   5.066
64962W        W37277  31.566  32.895  13.561
64963W        W37278   4.654  17.011   3.435
64964W        W37279  10.138   0.423  13.854
64965W        W37280   4.885  38.833  14.737
64966W        W37281  39.113  26.945  12.638
64967W        W37282  19.587  30.413  10.485
64968W        W37283  20.823  19.262   4.188
64969W        W37284   3.355  38.891   1.752
64970W        W37285  13.122  22.692   2.260
64971W        W37286  24.045   1.127  12.622
64972W        W37287  13.294  38.869  11.091
64973W        W37288  14.218  37.029  12.377
64974W        W37289   0.891  23.650   2.294
64975W        W37290  33.512   7.134  12.889
64976W        W37291  21.088  41.085   1.404
64977W        W37292   1.295  15.044  12.519
64978W        W37293  24.201  25.117   4.735
64979W        W37294  31.398   1.348   1.940
64980W        W37295  12.398  11.463   3.932
64981W        W37296  24.657  44.338  14.733
64982W        W37297  43.303  26.676   2.263
64983W        W37298  10.754  16.768  13.375
64984W        W37299  18.348  43.362  12.886
64985W        W37300  18.732  30.296  10.623
64986W        W37301   4.230   2.015  11.303
64987W        W37302  36.955  32.379   4.587
64988W        W37303  13.130  13.250   0.874
64989W        W37304   8.868  15.341  10.994
64990W        W37305  38.839   5.401  13.381
64991W        W37306  11.194  20.685  12.498
64992W        W37307  16.745  43.681  12.455
64993W        W37308  33.157  24.182  11.832
64994W        W37309  43.723  30.957  14.848
64995W        W37310  35.134  23.854  13.507
64996W        W37311  11.538  18.312   1.725
64997W        W37312   4.181  42.207  12.787
64998W        W37313  39.865  23.151  11.409
64999W        W37314  26.152  43.496   2.663
65000W        W37315   7.452  33.925   2.408
65001W        W37316   3.402  35.918  12.077
65002W        W37317  39.078  32.861   0.677
65003W        W37318  28.543  35.386  11.131
65004W        W37319   6.387  28.094  14.385
65005W        W37320  31.926  11.246  13.426
65006W        W37321   4.466  25.973   3.714
65007W        W37322  22.474  19.230   5.764
65008W        W37323  30.497   0.669   2.200
65009W        W37324  29.420  24.559   1.047
65010W        W37325  40.555  15.710   2.694
65011W        W37326  30.506  43.990   4.119
65012W        W37327  11.383  26.261  14.388
65013W        W37328  21.213  30.075   0.342
65014W        W37329  35.327  42.651  13.499
65015W        W37330  19.246  31.606  14.304
65016W        W37331   8.628  15.393  11.452
65017W        W37332   1.704   1.991   0.929
65018W        W37333  27.145   1.424   0.682
65019W        W37334  10.215   9.456  13.439
65020W        W37335  21.001  38.192   2.164
65021W        W37336  14.796  23.059   0.776
65022W        W37337  31.009   7.732  11.455
65023W        W37338  39.506  23.778  14.381
65024W        W37339  34.027  28.962  12.142
65025W        W37340  28.267   2.455  13.815
65026W        W37341  15.697   4.696  13.469
65027W        W37342  24.458  30.585  13.090
65028W        W37343  12.152  20.337  11.063
65029W        W37344  16.184  35.788   1.506
65030W        W37345   4.836   7.914  13.562
65031W        W37346  44.078  18.594  10.969
65032W        W37347  38.502  43.019   1.591
65033W        W37348  34.290  43.447  14.812
65034W        W37349  20.585   8.208  13.756
65035W        W37350  11.680  36.083  12.997
65036W        W37351  34.618  25.063   2.411
65037W        W37352   1.373  26.991   1.252
65038W        W37353  36.004   6.343   0.007
65039W        W37354  23.424  26.118   0.990
65040W        W37355  26.923  26.233  12.607
65041W        W37356  35.425  27.643  13.905
65042W        W37357  29.885  12.094  11.041
65043W        W37358  34.302  44.016  10.681
65044W        W37359  34.596  10.782  14.000
65045W        W37360  26.402  38.021  13.017
65046W        W37361   2.725  18.125  10.769
65047W        W37362   6.146  31.865   1.666
65048W        W37363  22.270  15.335   1.388
65049W        W37364  18.034   0.099   3.238
65050W        W37365  10.947   4.604  14.723
65051W        W37366  20.426  16.609   0.218
65052W        W37367  23.886  30.733   1.487
65053W        W37368  26.741  37.710   3.705
65054W        W37369  42.426  23.319   0.875
65055W        W37370  21.578  11.879  14.383
65056W        W37371  41.150   4.204  13.969
65057W        W37372   3.683   4.356  12.476
65058W        W37373  24.477  29.962   0.264
65059W        W37374   3.292  36.072   0.969
65060W        W37375  39.903  33.486   0.270
65061W        W37376  23.285  32.532  11.172
65062W        W37377  28.466  30.072  10.941
65063W        W37378  42.453  16.264  12.574
65064W        W37379  24.678   2.303  11.503
65065W        W37380  10.757   0.238   1.285
65066W        W37381  28.112  12.512   4.535
65067W        W37382   1.698  37.083  14.917
65068W        W37383  25.681   9.028  12.880
65069W        W37384  16.227  11.248   1.429
65070W        W37385   0.810  23.698  10.970
65071W        W37386  42.281  20.263   2.196
65072W        W37387  29.611  36.160   4.647
65073W        W37388  44.856  32.188   4.144
65074W        W37389  29.705   1.468   0.838
65075W        W37390  14.684  26.021  12.572
65076W        W37391  30.428   9.665   0.536
65077W        W37392  44.247   5.896   5.002
65078W        W37393  18.267  10.356  14.926
65079W        W37394  23.332  13.155  14.461
65080W        W37395  35.082  33.553   4.573
65081W        W37396   8.020  32.622   3.199
65082W        W37397  42.125  22.281  14.921
65083W        W37398  30.594  40.847   4.739
65084W        W37399  24.686  15.800   2.221
65085W        W37400  16.725  15.712  10.526
65086W        W37401  36.960  24.572   4.533
65087W        W37402   1.044   5.219   0.878
65088W        W37403  27.180  36.327   1.221
65089W        W37404  35.871  13.031  13.849
65090W        W37405  30.594  11.286   4.125
65091W        W37406  17.353   2.488  10.859
65092W        W37407   6.469  14.775   2.452
65093W        W37408  32.032  19.494  10.730
65094W        W37409  30.418  14.842   4.003
65095W        W37410  31.958  43.382   3.805
65096W        W37411  17.532  32.988  13.369
65097W        W37412   2.067  29.545   1.170
65098W        W37413  15.847  12.071   0.038
65099W        W37414  30.176  26.013  12.846
65100W        W37415  34.099  14.263  13.185
65101W        W37416  31.888   4.937   4.573
65102W        W37417  41.077   3.843   3.769
65103W        W37418  30.986  29.177   0.054
65104W        W37419  29.054  44.585   4.700
65105W        W37420  26.139  18.761   0.788
65106W        W37421  25.460  40.068   4.613
65107W        W37422  24.488  27.104   0.306
65108W        W37423  31.609  39.824  14.466
65109W        W37424  33.520   4.971  10.358
65110W        W37425  14.848   8.689  10.595
65111W        W37426  10.857   1.564   0.785
65112W        W37427  36.748  27.132  13.528
65113W        W37428  31.892   0.567   0.974
65114W        W37429  42.438  36.793  13.994
65115W        W37430  29.607  33.409  11.591
65116W        W37431   2.258  36.130  12.499
65117W        W37432  38.022  12.667   2.068
65118W        W37433  37.549  17.851  13.969
65119W        W37434  14.585  20.833  10.780
65120W        W37435  37.387   0.478  14.531
65121W        W37436  32.976  33.475   4.414
65122W        W37437  20.660  27.852  14.006
65123W        W37438   2.674  19.803  10.848
65124W        W37439   9.705  24.964   4.402
65125W        W37440  36.982  11.363   0.862
65126W        W37441  20.087  37.975   2.436
65127W        W37442   3.939  42.037  14.743
65128W        W37443  13.660  29.047   2.278
65129W        W37444   0.695  32.461   0.254
65130W        W37445  33.925   3.791  11.566
65131W        W37446   5.366  35.871   4.229
65132W        W37447   2.116  31.410   4.528
65133W        W37448   2.741  36.999   4.384
65134W        W37449  29.550  44.249   3.581
65135W        W37450  35.868   1.729  14.889
65136W        W37451  15.760  27.223   3.670
65137W        W37452  34.556  25.134  14.850
65138W        W37453  27.772   3.411  13.644
65139W        W37454  31.649  29.952  14.831
65140W        W37455  42.096  22.264   4.120
65141W        W37456  10.731   6.937   0.167
65142W        W37457  41.804  32.641   1.407
65143W        W37458  41.885   6.506   0.468
65144W        W37459  24.292   3.337   5.092
65145W        W37460  23.617  40.973  11.673
65146W        W37461  12.304   9.072   3.646
65147W        W37462  39.983  32.069   2.913
65148W        W37463  32.364  30.460  11.503
65149W        W37464  16.857  31.953  12.955
65150W        W37465   3.236  19.837  14.794
65151W        W37466  10.158  21.033   0.941
65152W        W37467  29.435   4.435  13.586
65153W        W37468  30.576  29.136  13.930
65154W        W37469  30.786  44.761  10.698
65155W        W37470   9.089  10.139  13.597
65156W        W37471  43.824  14.839   2.842
65157W        W37472   4.743  15.105   2.619
65158W        W37473   9.538  33.006  14.253
65159W        W37474   1.960  23.493  11.656
65160W        W37475   7.037  31.240   4.273
65161W        W37476  10.533  24.998   4.151
65162W        W37477  26.609   8.451  10.950
65163W        W37478   8.625   0.374  10.596
65164W        W37479  15.349   6.642   0.447
65165W        W37480   0.498   6.234  14.295
65166W        W37481  22.984  24.589  13.405
65167W        W37482  15.663  15.756   4.566
65168W        W37483   1.854   8.223   0.382
65169W        W37484   3.809   6.656   3.953
65170W        W37485  24.987  39.245   3.860
65171W        W37486  15.539  36.555  12.353
65172W        W37487  39.465  12.569  11.604
65173W        W37488  28.518  27.468  14.992
65174W        W37489  40.853   6.350  14.896
65175W        W37490  25.569   2.452  11.644
65176W        W37491  19.592  19.088  13.985
65177W        W37492  29.224   8.100  13.915
65178W        W37493  28.168  42.987   4.638
65179W        W37494  25.900  42.970   0.334
65180W        W37495  32.180   7.223   2.823
65181W        W37496  22.274  28.476  10.682
65182W        W37497  12.290  30.068  12.445
65183W        W37498  14.196  38.818   4.523
65184W        W37499  26.336   2.510   2.611
65185W        W37500  20.297   1.692  13.585
65186W        W37501   5.183  21.747  13.924
65187W        W37502   4.166   8.720   2.877
65188W        W37503  23.803   4.687  11.075
65189W        W37504  16.761  37.326   4.592
65190W        W37505  37.947  31.007  11.580
65191W        W37506  39.096   9.225  11.620
65192W        W37507  30.024  40.327  14.997
65193W        W37508  35.267  32.418  14.452
65194W        W37509  27.129  23.151   0.703
65195W        W37510   6.259  13.657   0.691
65196W        W37511  27.089   8.490  11.159
65197W        W37512  25.710   4.690   4.571
65198W        W37513  37.191  39.969  11.428
65199W        W37514  21.663  15.970   1.874
65200W        W37515  29.977  25.585  13.101
65201W        W37516   2.239  23.547   1.449
65202W        W37517  24.553   0.711   3.178
65203W        W37518  42.413  40.045   0.452
65204W        W37519  43.960  41.776  13.481
65205W        W37520  43.795  38.054   0.235
65206W        W37521  16.176  40.127   9.800
65207W        W37522  31.113  34.554  14.826
65208W        W37523   9.553  16.730   1.383
65209W        W37524  35.144   0.397  12.444
65210W        W37525  34.812  12.872   2.897
65211W        W37526  34.199  44.374   3.090
65212W        W37527  37.627  40.029   2.611
65213W        W37528  35.737  34.454   4.378
65214W        W37529  17.049  16.770  11.000
65215W        W37530  35.169  35.429   0.835
65216W        W37531   1.858   3.833  12.416
65217W        W37532  14.032  31.463   0.247
65218W        W37533  33.116  41.876  13.525
65219W        W37534   2.152   5.873  11.384
65220W        W37535  19.895   4.342  12.583
65221W        W37536  30.849   8.617  13.376
65222W        W37537  12.828  35.834   1.888
65223W        W37538   8.781  28.623   2.193
65224W        W37539  43.813  15.221   3.253
65225W        W37540  23.481  15.847   3.304
65226W        W37541  42.041  22.737   4.317
65227W        W37542  27.574  27.960   3.093
65228W        W37543   9.558  10.806  12.871
65229W        W37544  30.441  40.062  14.786
65230W        W37545  29.523  10.558   0.682
65231W        W37546  18.141  43.557  13.307
65232W        W37547  11.378  10.740  13.732
65233W        W37548  39.743  40.841   2.360
65234W        W37549  10.917  18.045  13.046
65235W        W37550  34.467  22.679  11.951
65236W        W37551  34.433  12.365  12.053
65237W        W37552  43.535   4.389  14.403
65238W        W37553  40.065  20.344   3.002
65239W        W37554  11.252  33.904   3.592
65240W        W37555  33.976  38.160   0.443
65241W        W37556   7.196  39.414   1.696
65242W        W37557   5.244  31.400  11.938
65243W        W37558   3.927  36.392   4.313
65244W        W37559  38.846   6.278   1.717
65245W        W37560  37.547  29.085  13.773
65246W        W37561  11.542   3.886  14.735
65247W        W37562  40.941   4.408  12.018
65248W        W37563  34.408  23.654   2.277
65249W        W37564  35.596  41.499   3.599
65250W        W37565  27.626  15.778   0.424
65251W        W37566  42.320  11.763  13.301
65252W        W37567  23.911  19.328  13.273
65253W        W37568  32.132  13.903  11.648
65254W        W37569  40.524  39.827  14.787
65255W        W37570  40.627  11.402  10.948
65256W        W37571   3.303   3.224   2.251
65257W        W37572  30.825  15.865   3.647
65258W        W37573  16.265   6.172   1.289
65259W        W37574  14.291  28.080  10.894
65260W        W37575  16.741   7.944   4.119
65261W        W37576   7.853  40.688   2.700
65262W        W37577  18.090   9.328  14.833
65263W        W37578  13.174  39.325   4.583
65264W        W37579  35.993  36.402   3.699
65265W        W37580  31.943  29.945  12.838
65266W        W37581  26.322  41.652  11.881
65267W        W37582  18.587   9.433   4.671
65268W        W37583  35.503  33.165  11.891
65269W        W37584  10.906  34.107  13.756
65270W        W37585  44.751   9.842   2.140
65271W        W37586  12.789  18.658   5.814
65272W        W37587   4.608  37.363   3.279
65273W        W37588  42.991  39.585  14.264
65274W        W37589  44.439  12.892  14.409
65275W        W37590  10.812  37.724  14.853
65276W        W37591  14.392  14.258   2.644
65277W        W37592  41.565  39.520  12.082
65278W        W37593  24.877  39.129  14.859
65279W        W37594  28.904  25.484  10.733
65280W        W37595  39.836   4.789  13.915
65281W        W37596  19.569   2.673   5.222
65282W        W37597  27.099  21.059   1.751
65283W        W37598  43.988  33.206   4.064
65284W        W37599  15.071  21.807   4.467
65285W        W37600   3.136  42.848  12.475
65286W        W37601   8.664  12.373   0.418
65287W        W37602  44.803   8.317  13.087
65288W        W37603  31.012  25.509  12.665
65289W        W37604  29.426   8.283  12.005
65290W        W37605  29.916  20.219   0.510
65291W        W37606  44.850  23.577  14.990
65292W        W37607  38.457  27.712   0.436
65293W        W37608  36.302   5.390  12.820
65294W        W37609  22.389  12.684   4.658
65295W        W37610  26.130  15.337  12.473
65296W        W37611  14.695  10.611   4.238
65297W        W37612  16.023  14.718   1.006
65298W        W37613   9.858  40.557   2.884
65299W        W37614  26.537   7.129   0.372
65300W        W37615  28.918  39.688  12.829
65301W        W37616  19.231  15.267   0.264
65302W        W37617   7.844  27.010   1.841
65303W        W37618  39.470  15.170   0.528
65304W        W37619  25.536   8.099   0.829
65305W        W37620  30.189  27.407  12.155
65306W        W37621   4.550  33.974  12.548
65307W        W37622  12.337  36.312   2.187
65308W        W37623  20.511  29.826  14.919
65309W        W37624  15.345  37.466   0.971
65310W        W37625   2.983  35.860   1.359
65311W        W37626   2.579  10.911   2.593
65312W        W37627  37.356  20.754  11.058
65313W        W37628  42.530  11.121  14.919
65314W        W37629  26.026  31.041   2.740
65315W        W37630  22.267  28.038   3.700
65316W        W37631   2.966  29.541  11.119
65317W        W37632  22.454  12.073   0.743
65318W        W37633   4.342  16.794   2.001
65319W        W37634   7.370  12.175   2.159
65320W        W37635  24.303  40.354   2.152
65321W        W37636  26.399  10.503  14.861
65322W        W37637  11.278  39.310   4.332
65323W        W37638   1.198  20.144  12.707
65324W        W37639   2.258   9.885  13.360
65325W        W37640  41.254  19.436   1.407
65326W        W37641  26.297  28.025  14.863
65327W        W37642  11.275  42.858  10.935
65328W        W37643  15.706  12.363   3.233
65329W        W37644  30.196  32.908   1.627
65330W        W37645  11.896   9.610   2.767
65331W        W37646  41.074   1.351   1.760
65332W        W37647  13.767  28.584  13.991
65333W        W37648  36.812  29.111   4.585
65334W        W37649  38.812  42.872   0.193
65335W        W37650  21.750  17.590  10.673
65336W        W37651  29.943  44.004   1.384
65337W        W37652  30.254  14.555  12.145
65338W        W37653  27.414  13.655  12.709
65339W        W37654  39.538  42.257  14.888
65340W        W37655  44.860  40.464   3.345
65341W        W37656  36.001  42.348   3.904
65342W        W37657   3.613   0.039   1.838
65343W        W37658  28.086  41.315   1.635
65344W        W37659  18.669  36.317   2.837
65345W        W37660  44.218  18.810  10.496
65346W        W37661  16.676  22.697   2.216
65347W        W37662  10.147  38.402   4.309
65348W        W37663  19.115  17.562   2.138
65349W        W37664  33.476  18.158   4.598
65350W        W37665  34.931   3.734   1.424
65351W        W37666  34.945  14.539   4.355
65352W        W37667  17.869  32.938  12.993
65353W        W37668  41.312   4.338  10.677
65354W        W37669   7.676  31.240  10.710
65355W        W37670  26.135  35.055   1.835
65356W        W37671  40.523  23.069  11.266
65357W        W37672  34.503  35.864  11.575
65358W        W37673  31.670  39.125   1.701
65359W        W37674  10.879  39.520   4.090
65360W        W37675  16.184  14.168   1.614
65361W        W37676  24.383   5.841   0.330
65362W        W37677  33.956   6.913   1.731
65363W        W37678  21.136  17.851  11.218
65364W        W37679  33.266  21.148  13.791
65365W        W37680   7.538  28.794   1.426
65366W        W37681  38.466  12.766   2.888
65367W        W37682  24.637   1.956   0.994
65368W        W37683  12.868  13.231   4.674
65369W        W37684  34.214  13.286  12.026
65370W        W37685  44.874  18.356   0.944
65371W        W37686  32.556   1.413  14.108
65372W        W37687  21.663  15.691  11.284
65373W        W37688  13.138  34.407   2.369
65374W        W37689  26.778  10.165   2.794
65375W        W37690  27.494  24.445   1.737
65376W        W37691  28.256  12.249   1.982
65377W        W37692  29.224  16.871  14.414
65378W        W37693   0.964   9.390  10.676
65379W        W37694  36.626  44.065  13.733
65380W        W37695  21.770  11.383   2.245
65381W        W37696   7.445  18.650   0.787
65382W        W37697  43.713  30.012  13.953
65383W        W37698  38.329  16.855  12.051
65384W        W37699  35.542  19.026   2.113
65385W        W37700  12.854  31.288   3.142
65386W        W37701  33.629  34.797   3.409
65387W        W37702   7.840  22.239  11.945
65388W        W37703  20.697   5.711   4.178
65389W        W37704  26.633  36.929   4.847
65390W        W37705  12.834  41.412  13.513
65391W        W37706   6.402  12.132   2.556
65392W        W37707  17.049  17.126  14.802
65393W        W37708  32.862  34.275   2.265
65394W        W37709  25.928  14.420   0.764
65395W        W37710  37.187  43.254   3.492
65396W        W37711  37.902   5.294   0.502
65397W        W37712   6.831  38.864   0.894
65398W        W37713   3.299  41.947  12.478
65399W        W37714  11.255   4.365  10.825
65400W        W37715  29.695   0.774   4.627
65401W        W37716   3.379   3.784   1.048
65402W        W37717  18.231   0.388  11.010
65403W        W37718  23.298  42.362  13.544
65404W        W37719  31.528  22.075   4.632
65405W        W37720  34.347  31.105  12.039
65406W        W37721  27.428  33.964  12.605
65407W        W37722  28.645   4.183  12.452
65408W        W37723  18.065   2.758   0.891
65409W        W37724  21.238  42.921  12.823
65410W        W37725  40.384  25.630  14.569
65411W        W37726  22.773  14.300   3.136
65412W        W37727  18.233  31.241   5.019
65413W        W37728   1.027  10.261   9.861
65414W        W37729  21.241  23.432  10.315
65415W        W37730  17.029  24.734  12.536
65416W        W37731  17.639  29.010   4.851
65417W        W37732   7.375  30.567   4.638
65418W        W37733   2.460  38.184   1.047
65419W        W37734  27.270  26.003   3.757
65420W        W37735  27.014  40.527   2.348
65421W        W37736   3.223   1.468  14.459
65422W        W37737  31.697  22.631  12.954
65423W        W37738  40.452  12.617   3.866
65424W        W37739  20.984   5.278   1.781
65425W        W37740  17.134  16.075   4.697
65426W        W37741  22.064  43.591   0.893
65427W        W37742  33.446  16.196  12.289
65428W        W37743  41.888  17.756   1.879
65429W        W37744  24.248  40.859  13.857
65430W        W37745   6.247  29.620  12.399
65431W        W37746  16.211   9.467  14.599
65432W        W37747  29.441  18.974   4.088
65433W        W37748  11.806  19.532   2.398
65434W        W37749  25.718   5.373  13.503
65435W        W37750  44.500  32.659   1.543
65436W        W37751  30.767  40.454   2.275
65437W        W37752  13.859  42.854  12.302
65438W        W37753  35.879  24.561   2.136
65439W        W37754  16.844  24.633   3.114
65440W        W37755  37.894  40.954  13.817
65441W        W37756  18.779  32.997  13.075
65442W        W37757  28.933  11.908   4.548
65443W        W37758  31.851   5.743  10.563
65444W        W37759  16.201   2.810   4.282
65445W        W37760   9.848  17.119   2.827
65446W        W37761  25.995  11.029   4.547
65447W        W37762  27.035  33.395   0.956
65448W        W37763  32.574  18.209  10.597
65449W        W37764   3.891  20.656   1.869
65450W        W37765  16.328  43.814   3.806
65451W        W37766  23.599   3.476   2.808
65452W        W37767  30.976  13.216   2.381
65453W        W37768  36.236  17.059  10.311
65454W        W37769  35.977  24.985   1.249
65455W        W37770  17.687  21.622   2.422
65456W        W37771   1.995  30.528  12.090
65457W        W37772   0.450  37.909   2.760
65458W        W37773  35.599  37.493  14.819
65459W        W37774  33.958   4.729  12.634
65460W        W37775  23.505   5.656  11.191
65461W        W37776   4.233  10.679   1.727
65462W        W37777  26.049  37.392  10.933
65463W        W37778   7.182  17.124   4.249
65464W        W37779   8.617  25.469   5.212
65465W        W37780  17.219  12.689  10.680
65466W        W37781  17.222   6.869  10.549
65467W        W37782  41.404   9.151   3.369
65468W        W37783  24.038  26.963   3.648
65469W        W37784   6.386  35.630  11.457
65470W        W37785   4.955  41.366  14.386
65471W        W37786   4.800  43.796   4.740
65472W        W37787  16.203   8.751   1.253
65473W        W37788  27.628  27.170  11.322
65474W        W37789  20.704  37.102   4.933
65475W        W37790  41.330  24.079   2.812
65476W        W37791  38.904   5.894  13.034
65477W        W37792  37.943  13.816  12.338
65478W        W37793   3.835  16.525  13.847
65479W        W37794  19.730  44.540   3.794
65480W        W37795  44.288   5.701  13.992
65481W        W37796  16.663  12.286   4.857
65482W        W37797   1.770  26.100  14.383
65483W        W37798  41.884  23.057  10.888
65484W        W37799  42.353  40.719  13.530
65485W        W37800  20.328  28.959  13.354
65486W        W37801  25.080  11.181  11.632
65487W        W37802  36.340  42.966  14.294
65488W        W37803  20.990  44.662  10.184
65489W        W37804  25.213  22.349   2.400
65490W        W37805  19.676  20.081   4.141
65491W        W37806  10.701  28.185   1.249
65492W        W37807  28.088  29.588   1.474
65493W        W37808  36.140   4.902  13.281
65494W        W37809  38.455   5.505   1.810
65495W        W37810  24.233  10.062  12.051
65496W        W37811  36.247  13.742  10.586
65497W        W37812   6.517   7.755  13.364
65498W        W37813  33.522  21.435  12.862
65499W        W37814  10.937   2.775   0.276
65500W        W37815  38.658  24.739  10.450
65501W        W37816   2.033   6.739  12.983
65502W        W37817   2.423  36.854  10.776
65503W        W37818   6.309  15.004  11.915
65504W        W37819  14.855   8.297   1.245
65505W        W37820  16.147   8.931   1.736
65506W        W37821   9.327  14.255   1.906
65507W        W37822  35.404  18.292  10.654
65508W        W37823  12.625  42.552  12.792
65509W        W37824  19.667  23.056   4.841
65510W        W37825  35.351  25.092  11.085
65511W        W37826  18.805  16.275   4.637
65512W        W37827  40.777  10.723  14.899
65513W        W37828  32.109   6.367  14.457
65514W        W37829  35.792  31.544  14.058
65515W        W37830  28.070  27.849  12.490
65516W        W37831  13.312  18.839  12.351
65517W        W37832   1.107  21.960   0.691
65518W        W37833  40.322   3.366  13.274
65519W        W37834  24.932  41.832   2.142
65520W        W37835  42.269   0.470   2.990
65521W        W37836  24.643   3.189   0.250
65522W        W37837   4.308  23.898   4.536
65523W        W37838  22.263  13.261  14.429
65524W        W37839  43.459   4.459   3.181
65525W        W37840  32.683  12.630  13.416
65526W        W37841  40.952  38.078  14.831
65527W        W37842  32.978  18.028  12.473
65528W        W37843  10.653  24.875  11.597
65529W        W37844  30.103   8.771  13.868
65530W        W37845   7.344  16.532   3.509
65531W        W37846   5.393  30.560   3.682
65532W        W37847   0.151  38.823   0.580
65533W        W37848  14.766  12.580  13.276
65534W        W37849   1.258  19.835   1.924
65535W        W37850  34.063  10.079   4.144
65536W        W37851  15.710  39.058   3.334
65537W        W37852  44.902  37.650  13.555
65538W        W37853  35.123  11.644   3.229
65539W        W37854  31.458  12.584  11.559
65540W        W37855   0.464  33.173  10.333
65541W        W37856  36.878  17.248  11.964
65542W        W37857  20.463  19.249   0.871
65543W        W37858  21.813   6.837  14.992
65544W        W37859  40.456  37.630  14.327
65545W        W37860  44.945  19.626   2.163
65546W        W37861   2.938  35.395  12.420
65547W        W37862  44.067   4.253   4.062
65548W        W37863  32.745  38.981   3.305
65549W        W37864  23.700  22.213   4.538
65550W        W37865   3.454  35.109   1.977
65551W        W37866  42.970  10.041  11.933
65552W        W37867  27.690   7.668  12.682
65553W        W37868   0.450  17.104  13.549
65554W        W37869  36.561  40.872  13.077
65555W        W37870  21.159  43.323   1.897
65556W        W37871  42.283  35.900   3.286
65557W        W37872  12.695  21.094   3.054
65558W        W37873   6.415  37.985  12.485
65559W        W37874   7.893  15.643   5.039
65560W        W37875   8.870   3.324  12.091
65561W        W37876  26.359  20.345   4.548
65562W        W37877  14.056   9.731   3.876
65563W        W37878  44.971  24.713  11.069
65564W        W37879  27.736   5.768   0.501
65565W        W37880   9.776  36.838  14.980
65566W        W37881  18.564  42.574  10.389
65567W        W37882  26.641  23.032   2.652
65568W        W37883  39.968  25.783  13.175
65569W        W37884   2.539  29.970   2.875
65570W        W37885  40.986  20.826  11.603
65571W        W37886  18.749  44.847  11.663
65572W        W37887  33.492  32.902   0.310
65573W        W37888  30.241  33.800   3.662
65574W        W37889  23.114  13.957   3.826
65575W        W37890  32.598  12.190  12.147
65576W        W37891   9.262  42.469  11.936
65577W        W37892   5.095  18.639  13.654
65578W        W37893   3.918   4.002   4.277
65579W        W37894  36.952  21.679  14.203
65580W        W37895  27.435   0.281   1.313
65581W        W37896  34.782   4.923   1.907
65582W        W37897  44.537  33.180  12.929
65583W        W37898   4.855   7.494   9.991
65584W        W37899   7.878  18.653   3.176
65585W        W37900   7.298   0.633   2.874
65586W        W37901  19.251  38.844   2.869
65587W        W37902  17.306  38.090   2.794
65588W        W37903  44.127  18.280  13.849
65589W        W37904  31.420  36.340   0.510
65590W        W37905  38.810  29.592   0.474
65591W        W37906  27.885  19.014   1.393
65592W        W37907  32.923  33.605   1.602
65593W        W37908  39.247  38.512   2.711
65594W        W37909  36.091  27.613  12.470
65595W        W37910   6.063  11.621  11.082
65596W        W37911  44.423  23.534  10.808
65597W        W37912  30.142  16.610  11.220
65598W        W37913  12.380  34.096   0.360
65599W        W37914  12.830  30.692  11.026
65600W        W37915  15.110   8.271   2.577
65601W        W37916  37.634  31.843   0.813
65602W        W37917  12.224  37.336  13.861
65603W        W37918  30.957  11.901   3.736
65604W        W37919  43.263  41.592  12.076
65605W        W37920  29.547  16.765  12.950
65606W        W37921  37.544  30.665  10.704
65607W        W37922  20.475  42.075  13.039
65608W        W37923  42.096  44.818  13.757
65609W        W37924  32.913  21.586   4.728
65610W        W37925  30.338  37.313   2.795
65611W        W37926  19.729  22.794   1.975
65612W        W37927   0.549   8.399   0.410
65613W        W37928  30.643   3.252   4.287
65614W        W37929  43.560  31.753   4.268
65615W        W37930   5.216  32.335  14.020
65616W        W37931   6.404  23.726  13.761
65617W        W37932  27.372  15.754  13.222
65618W        W37933  38.683   5.766   4.174
65619W        W37934  27.587   6.119  11.034
65620W        W37935  17.142   8.406   4.695
65621W        W37936  41.929  39.318   4.721
65622W        W37937  18.987  26.678   3.562
65623W        W37938  27.296  12.884  13.011
65624W        W37939  26.276   8.317  12.557
65625W        W37940   2.396  22.632  11.708
65626W        W37941  38.801  41.854   2.897
65627W        W37942   0.008  11.783   1.470
65628W        W37943  16.588  23.162   0.989
65629W        W37944  25.726  30.432   0.331
65630W        W37945  21.749  28.739   4.126
65631W        W37946  25.583  15.243   4.331
65632W        W37947  24.767   5.162  12.162
65633W        W37948  22.982   3.385   0.814
65634W        W37949   4.981  16.666  10.217
65635W        W37950  23.854  17.809   1.344
65636W        W37951  26.970  31.905  10.610
65637W        W37952  14.136   6.344  11.971
65638W        W37953  17.655  10.412  12.888
65639W        W37954   3.000  39.434  13.204
65640W        W37955  43.951  34.046  11.695
65641W        W37956  29.092   2.482   1.836
65642W        W37957  28.944  15.099   4.899
65643W        W37958  13.867  43.477   2.386
65644W        W37959   8.754  40.912   3.744
65645W        W37960  39.794   3.377   0.445
65646W        W37961  35.372   6.504   3.210
65647W        W37962  37.035   8.874  11.109
65648W        W37963  26.209  43.890   0.597
65649W        W37964  44.371  13.437   4.506
65650W        W37965   2.827  17.338  14.358
65651W        W37966  33.085   6.991   1.794
65652W        W37967  12.819  41.600  11.077
65653W        W37968  25.639  40.904  13.572
65654W        W37969  26.705  19.598  14.278
65655W        W37970  40.865  44.551   0.137
65656W        W37971  40.572  39.502  12.032
65657W        W37972  12.231  42.046  14.009
65658W        W37973  42.738  42.859   0.484
65659W        W37974  21.863  30.847   3.331
65660W        W37975  12.721  40.382  10.654
65661W        W37976  19.162  28.207  13.444
65662W        W37977  26.122   0.270  10.976
65663W        W37978  38.074  37.518  13.779
65664W        W37979  24.470  28.525  10.854
65665W        W37980  15.876  22.962  14.060
65666W        W37981  23.137  37.724   2.663
65667W        W37982  30.418  23.163   1.269
65668W        W37983   6.426  12.525  12.823
65669W        W37984   3.711  23.965   0.411
65670W        W37985   2.773   2.557   4.015
65671W        W37986  10.385   2.849   3.290
65672W        W37987  35.964  30.096  12.356
65673W        W37988   9.714  27.113   1.965
65674W        W37989  38.558  28.027   2.160
65675W        W37990  10.210  35.318  10.605
65676W        W37991  15.657  39.205   1.354
65677W        W37992  37.132  25.012   4.756
65678W        W37993   5.386  19.133   3.650
65679W        W37994  28.109   7.206   3.348
65680W        W37995  37.478  27.492  13.162
65681W        W37996  18.784  23.914  11.160
65682W        W37997   5.684  36.152  12.083
65683W        W37998  28.553  32.663   3.788
65684W        W37999  35.476   0.985  13.467
65685W        W38000  16.795  42.930  11.219
65686W        W38001  37.358  41.107   1.773
65687W        W38002   6.643   8.299  11.412
65688W        W38003  42.849   2.937  10.729
65689W        W38004   4.507  42.064   4.556
65690W        W38005  41.822  37.850  10.905
65691W        W38006   5.947  21.058   4.636
65692W        W38007  19.668  22.527   4.939
65693W        W38008  18.287  43.755   4.549
65694W        W38009  26.258  17.496  14.865
65695W        W38010  32.896  44.963   2.404
65696W        W38011  29.087  40.057   3.255
65697W        W38012  30.987   6.297   4.184
65698W        W38013  22.176  18.826  11.112
65699W        W38014  21.242   3.880   2.424
65700W        W38015  39.449  32.145  12.578
65701W        W38016  21.313   4.623  10.235
65702W        W38017   4.627  39.370  14.079
65703W        W38018  17.549  11.303   9.573
65704W        W38019  10.802  35.126  12.870
65705W        W38020  11.155  36.054  13.008
65706W        W38021   5.663  21.614  13.288
65707W        W38022  30.329  31.162  14.966
65708W        W38023  36.229  38.063   4.615
65709W        W38024   8.695  22.285   3.088
65710W        W38025   1.010  26.190  13.301
65711W        W38026  38.504  30.630   3.912
65712W        W38027  39.995  27.668  14.900
65713W        W38028  17.610  36.511  12.486
65714W        W38029   0.364   0.642   1.771
65715W        W38030   0.698  22.217  13.970
65716W        W38031  28.598  16.113   3.494
65717W        W38032  20.754  37.427  12.179
65718W        W38033  38.098  28.913  10.739
65719W        W38034   4.320  15.975   3.246
65720W        W38035   4.880  29.819   4.479
65721W        W38036  43.863   2.326   3.635
65722W        W38037  43.227  34.913   0.826
65723W        W38038   0.558  16.416   4.076
65724W        W38039  13.351  39.925  12.805
65725W        W38040  17.895   6.376   2.060
65726W        W38041  44.100  42.323   3.404
65727W        W38042  23.746  17.830  10.831
65728W        W38043  14.611  33.017  12.856
65729W        W38044  34.713  29.885   2.277
65730W        W38045  27.910  18.795  10.683
65731W        W38046  35.051  13.009  11.824
65732W        W38047   6.956  18.529   0.750
65733W        W38048  18.686   6.571   3.846
65734W        W38049  40.492  27.128   1.909
65735W        W38050  26.231   1.203   4.199
65736W        W38051  17.799   6.411  14.394
65737W        W38052  43.849  24.204   1.206
65738W        W38053  13.789  27.377   1.262
65739W        W38054  32.684   9.905  13.411
65740W        W38055  29.236  42.870   2.452
65741W        W38056  15.810  27.487   3.218
65742W        W38057  44.627  26.674   1.646
65743W        W38058  43.712  18.334  12.634
65744W        W38059  43.012  13.961  13.947
65745W        W38060  39.596  42.065   1.270
65746W        W38061  26.736  24.184  12.107
65747W        W38062  31.983  35.920   4.739
65748W        W38063  19.446  13.775   4.666
65749W        W38064  27.401  20.748  12.850
65750W        W38065   1.242  42.361  13.866
65751W        W38066  20.761  36.958  11.970
65752W        W38067  11.153  18.543  11.462
65753W        W38068   7.331   3.613   2.247
65754W        W38069  24.760  26.655   1.810
65755W        W38070   4.969   7.248  12.507
65756W        W38071  43.545   0.482  13.837
65757W        W38072  27.380  22.401  11.625
65758W        W38073  16.680   4.489  12.114
65759W        W38074  43.905  21.727   3.093
65760W        W38075  34.973  43.772   0.908
65761W        W38076  14.712  17.281  10.700
65762W        W38077   3.753  33.986  10.694
65763W        W38078  40.797  28.909   3.243
65764W        W38079   4.209  40.064  11.499
65765W        W38080  19.235   9.513  13.480
65766W        W38081  27.419  20.434   2.841
65767W        W38082  24.681  22.126  11.687
65768W        W38083  28.513  41.249   3.508
65769W        W38084  11.112  39.954  10.626
65770W        W38085  13.071  14.757  14.084
65771W        W38086  35.758  10.069   4.371
65772W        W38087  22.237   6.200   2.247
65773W        W38088  43.481  44.149  11.092
65774W        W38089  37.179   0.430  10.857
65775W        W38090  20.212   6.803  13.018
65776W        W38091  36.173  29.430   0.254
65777W        W38092  37.568  40.158   1.848
65778W        W38093  34.122  27.501  14.881
65779W        W38094   0.490  26.502   2.656
65780W        W38095  13.740  32.711  11.452
65781W        W38096  16.769  11.143   2.844
65782W        W38097   4.837   7.355   3.571
65783W        W38098  29.539   1.317  14.797
65784W        W38099  25.837  20.026   2.231
65785W        W38100  25.431   2.678   4.034
65786W        W38101  30.548  20.255   5.079
65787W        W38102  22.043  25.879  10.665
65788W        W38103  30.283   8.797  14.876
65789W        W38104   6.976  33.316  11.553
65790W        W38105  30.137  20.542  11.078
65791W        W38106  13.055   5.598  12.261
65792W        W38107  17.743  10.223   2.279
65793W        W38108   6.614  40.458   2.245
65794W        W38109  20.559  29.522  12.015
65795W        W38110   5.216  40.789  13.861
65796W        W38111  12.148  42.532   2.160
65797W        W38112   3.144  29.308   5.200
65798W        W38113  32.943  42.818   4.165
65799W        W38114   7.724  16.209  10.526
65800W        W38115  44.187  39.388   1.075
65801W        W38116  37.333  38.831  13.727
65802W        W38117   7.304  11.680   2.325
65803W        W38118  33.551  19.033   4.601
65804W        W38119  10.753   6.735  13.855
65805W        W38120  15.563  42.685  11.117
65806W        W38121   1.423  43.550  13.525
65807W        W38122  27.745  38.392   4.948
65808W        W38123  37.016  36.523  12.902
65809W        W38124  40.199   0.548  13.335
65810W        W38125  37.097  14.679   2.322
65811W        W38126  26.671  40.837  11.990
65812W        W38127  15.221  43.317  14.536
65813W        W38128  29.722  26.041  13.079
65814W        W38129  35.871  21.496  13.927
65815W        W38130  21.487  27.417   3.204
65816W        W38131  32.952   2.475  12.180
65817W        W38132  33.589   8.215  12.138
65818W        W38133  20.267   2.936   4.469
65819W        W38134  34.826   9.394  11.187
65820W        W38135  25.976  17.597  12.117
65821W        W38136  42.721  33.837   5.276
65822W        W38137   9.794  28.456   3.879
65823W        W38138  33.046   6.282  12.826
65824W        W38139  30.208   2.649   2.959
65825W        W38140  19.185  38.017   0.910
65826W        W38141  36.391   8.415   0.761
65827W        W38142   8.785  33.029   4.639
65828W        W38143  40.581  29.465  14.400
65829W        W38144  34.567   0.656  11.125
65830W        W38145  39.169   0.022   2.899
65831W        W38146  38.730  25.083   3.852
65832W        W38147  31.917  37.106   0.724
65833W        W38148  36.733  30.749   2.748
65834W        W38149  30.031  22.528  10.619
65835W        W38150  10.268   4.359   1.293
65836W        W38151  12.748   7.892  11.617
65837W        W38152  11.652   1.062   5.152
65838W        W38153  30.173  39.869  13.377
65839W        W38154   8.885   4.304   3.784
65840W        W38155  29.653   2.718   2.305
65841W        W38156  20.054  33.350   0.279
65842W        W38157  31.053   3.107  11.462
65843W        W38158  11.814  26.124  12.927
65844W        W38159  37.590  37.767  12.476
65845W        W38160  23.268   7.390  12.492
65846W        W38161  16.683  43.798  13.357
65847W        W38162  27.589  32.547  10.544
65848W        W38163  19.450   2.653   2.223
65849W        W38164   0.005   3.704   4.672
65850W        W38165  16.581   8.678   1.922
65851W        W38166  18.131  13.651  14.992
65852W        W38167  25.375  26.597  14.245
65853W        W38168  35.828  25.697   2.676
65854W        W38169   4.617  27.994   3.300
65855W        W38170  31.400  13.067   2.697
65856W        W38171  38.525  16.051   4.316
65857W        W38172  33.235  38.663  13.020
65858W        W38173  15.927  16.090   0.694
65859W        W38174  13.904  14.272  14.722
65860W        W38175  33.105  36.915   2.190
65861W        W38176  19.585  43.944  10.678
65862W        W38177  27.718  38.318   0.012
65863W        W38178  27.947  10.320  14.742
65864W        W38179  32.331  12.381   2.917
65865W        W38180  39.797  22.112  13.528
65866W        W38181   6.809  39.084   4.495
65867W        W38182   3.674  14.145  14.258
65868W        W38183  12.769  19.757   1.313
65869W        W38184   7.205  38.974  14.888
65870W        W38185   3.344  10.888  11.112
65871W        W38186  18.339  36.414  13.643
65872W        W38187  35.315  38.896  14.274
65873W        W38188  29.480  43.522  13.861
65874W        W38189  15.847  22.561  13.164
65875W        W38190   7.855   3.436   0.027
65876W        W38191  25.093   2.848  14.404
65877W        W38192  18.774  30.246   0.383
65878W        W38193  31.648  43.788   3.677
65879W        W38194  42.603  19.741   1.313
65880W        W38195  44.926   8.965  13.935
65881W        W38196  21.302  17.609   3.677
65882W        W38197  14.381  43.346  12.908
65883W        W38198  44.033  24.933  12.415
65884W        W38199  29.678  26.569   1.289
65885W        W38200  33.421  17.298   3.385
65886W        W38201   4.375  41.219   1.832
65887W        W38202  42.687   5.727   2.803
65888W        W38203   3.221  10.203   3.788
65889W        W38204  43.773  38.983  13.838
65890W        W38205   5.745   1.217   1.114
65891W        W38206  42.265  37.081  13.564
65892W        W38207  14.751  27.466   2.395
65893W        W38208   2.666   1.663   4.253
65894W        W38209  10.262   6.140   2.214
65895W        W38210  16.756  30.135  14.010
65896W        W38211  20.011  35.295  12.075
65897W        W38212  34.525   0.255  14.357
65898W        W38213  35.775  33.268  14.387
65899W        W38214  30.975  36.063   4.619
65900W        W38215  14.687   3.943  11.641
65901W        W38216  35.417  31.832  13.258
65902W        W38217  26.766  31.046   3.112
65903W        W38218   5.863  16.056  11.203
65904W        W38219  19.223  39.025  12.869
65905W        W38220  41.843  39.374  12.480
65906W        W38221  20.262  43.863   4.224
65907W        W38222   7.521  34.895   3.178
65908W        W38223  38.758  32.660  13.639
65909W        W38224  40.067  34.915  13.271
65910W        W38225   3.277  10.519   5.093
65911W        W38226  18.511  20.554   3.887
65912W        W38227  25.063  10.493   3.674
65913W        W38228  36.131  24.182  14.810
65914W        W38229  30.485  38.046   1.243
65915W        W38230  21.590  36.514   3.688
65916W        W38231   4.560  11.761   3.897
65917W        W38232  24.441  15.258   3.774
65918W        W38233  24.796  12.367  10.899
65919W        W38234   9.771  42.301   0.347
65920W        W38235  20.645  19.531   2.761
65921W        W38236  33.013   1.837  14.931
65922W        W38237  16.769  11.926   3.926
65923W        W38238  34.330  11.243   1.331
65924W        W38239  34.343  25.924  11.244
65925W        W38240   8.126  27.666   4.143
65926W        W38241  17.778  35.138  12.070
65927W        W38242  27.165   4.250  12.345
65928W        W38243  16.546   2.822  10.643
65929W        W38244   3.290  38.303   0.858
65930W        W38245  43.517  26.967   3.319
65931W        W38246  30.972  44.281  10.480
65932W        W38247  18.770  29.747   0.223
65933W        W38248  14.584   0.448  13.049
65934W        W38249  30.266  21.251  12.041
65935W        W38250  40.063  23.246  13.914
65936W        W38251  40.220  43.927  11.556
65937W        W38252   8.887  38.060   3.456
65938W        W38253  22.078   6.796  13.810
65939W        W38254  17.686  15.867  12.966
65940W        W38255  27.114  31.419   1.711
65941W        W38256   8.912  24.994  14.329
65942W        W38257  41.585   2.503  10.738
65943W        W38258   8.548  29.679  12.491
65944W        W38259  14.249  33.460  14.345
65945W        W38260  20.808  19.751   3.221
65946W        W38261  14.613  38.622   4.045
65947W        W38262  18.748  27.907   4.177
65948W        W38263   3.280  33.562  14.848
65949W        W38264   9.583  18.167  11.665
65950W        W38265  23.326  15.700   4.429
65951W        W38266  39.867   7.652   3.839
65952W        W38267   1.764  18.672   3.289
65953W        W38268  20.292  29.083   2.809
65954W        W38269  36.821  40.154  11.110
65955W        W38270  14.880  14.781  14.309
65956W        W38271   6.686  43.536  14.599
65957W        W38272   0.526  44.300   1.167
65958W        W38273  22.562  29.547   3.805
65959W        W38274   7.471  34.558  12.093
65960W        W38275  11.216  44.859  11.664
65961W        W38276   0.350  13.601   2.908
65962W        W38277  35.680  42.957  14.005
65963W        W38278  36.019  20.994  11.980
65964W        W38279  35.992  43.506  14.895
65965W        W38280  28.134  40.614   4.525
65966W        W38281  43.816   3.242   2.698
65967W        W38282  10.304  36.822  14.297
65968W        W38283  34.412   1.502  13.998
65969W        W38284  29.243   6.876   1.793
65970W        W38285  30.010  10.568  13.132
65971W        W38286   6.445  29.682   0.474
65972W        W38287  19.126  10.996  13.983
65973W        W38288  20.371  18.641  12.017
65974W        W38289  15.293  32.586   4.212
65975W        W38290  35.912  39.466   0.638
65976W        W38291  39.773  19.667  12.069
65977W        W38292  43.882  30.856   0.314
65978W        W38293   9.666  40.428  14.355
65979W        W38294  30.167  41.941   0.239
65980W        W38295  43.197  41.887   2.215
65981W        W38296  28.615  42.412   4.580
65982W        W38297  22.355  31.514  14.792
65983W        W38298  20.086  28.679   0.251
65984W        W38299  16.644  27.572  12.688
65985W        W38300  23.701   9.016  11.636
65986W        W38301  37.418  41.511   2.221
65987W        W38302  42.839  39.833   2.397
65988W        W38303  10.874   3.850   1.229
65989W        W38304   9.732  15.065   4.218
65990W        W38305  23.015   4.453   2.303
65991W        W38306  18.780  16.599  12.584
65992W        W38307  43.768   0.280  13.398
65993W        W38308  14.880   5.835   1.357
65994W        W38309  12.570  14.866  13.977
65995W        W38310  27.074  17.369  14.109
65996W        W38311  14.365  26.974   2.547
65997W        W38312   5.404   5.305  10.366
65998W        W38313  34.082   9.479  12.988
65999W        W38314  27.117  33.711   1.378
66000W        W38315  24.911  11.344   0.403
66001W        W38316  42.831   5.363   0.409
66002W        W38317   9.661  18.156  14.318
66003W        W38318  33.057  15.047  10.989
66004W        W38319  12.924  20.115   4.782
66005W        W38320   3.487  15.518  14.760
66006W        W38321   1.235  34.088  13.574
66007W        W38322  21.328  42.913  11.681
66008W        W38323   1.673   1.614  10.730
66009W        W38324   2.677   3.363   3.816
66010W        W38325  37.260  29.084  12.502
66011W        W38326  40.821  10.282   3.774
66012W        W38327  31.895  20.332  13.909
66013W        W38328  31.221   0.154  12.587
66014W        W38329  19.495  20.281   1.867
66015W        W38330  17.263  43.844  12.428
66016W        W38331  25.655  11.392  13.838
66017W        W38332  32.635  33.471  14.959
66018W        W38333  16.275  20.029   0.011
66019W        W38334  18.592  18.049   1.872
66020W        W38335   8.730  26.247   3.152
66021W        W38336   8.164  22.650   1.397
66022W        W38337  30.430  16.732   2.163
66023W        W38338  39.510  21.471   2.860
66024W        W38339  38.653  27.486  14.495
66025W        W38340  33.032   9.449  13.911
66026W        W38341  14.109  40.359   3.633
66027W        W38342  32.433  27.604   4.402
66028W        W38343   2.403  28.429   2.701
66029W        W38344  15.540   4.283   4.687
66030W        W38345  11.216  41.441   3.181
66031W        W38346   9.613  35.608   2.266
66032W        W38347  26.608  16.487  13.514
66033W        W38348  32.632  14.706   4.881
66034W        W38349   7.944  10.028  11.945
66035W        W38350  31.408  25.057  14.501
66036W        W38351  38.464   7.534   0.499
66037W        W38352  15.598  41.521   3.136
66038W        W38353  44.937   5.216  11.590
66039W        W38354   8.715   8.824  12.378
66040W        W38355  24.731  42.771   2.161
66041W        W38356  37.926  22.271   4.531
66042W        W38357  19.734  38.998   4.527
66043W        W38358   7.740  31.933  12.445
66044W        W38359   2.437  18.428  13.163
66045W        W38360  32.839  16.063  14.814
66046W        W38361   1.431  43.753   2.246
66047W        W38362  38.817  27.283   1.737
66048W        W38363  41.680  29.474   1.427
66049W        W38364  22.360  27.348  11.403
66050W        W38365  21.429  14.352   1.893
66051W        W38366  20.652   1.283  14.797
66052W        W38367  34.883  31.836  11.600
66053W        W38368  37.150  21.132  14.317
66054W        W38369  40.811  10.195   1.078
66055W        W38370  33.673  28.050   0.869
66056W        W38371   6.209  20.247   3.994
66057W        W38372  36.855   6.659   2.192
66058W        W38373  31.928   1.476   2.801
66059W        W38374   9.257  24.755  12.605
66060W        W38375  32.691   0.568   3.104
66061W        W38376   9.397  34.639   4.079
66062W        W38377  42.523  19.276  11.568
66063W        W38378  11.170  31.925  14.606
66064W        W38379  22.793  25.147   3.147
66065W        W38380  29.143  12.051   0.419
66066W        W38381  40.710  40.894  13.575
66067W        W38382  12.540   9.788  10.638
66068W        W38383   8.809  36.011   1.756
66069W        W38384  43.924   3.988  11.699
66070W        W38385  14.588   5.411  14.371
66071W        W38386  19.213  12.926   1.432
66072W        W38387  26.661  26.421   4.088
66073W        W38388  44.930   2.125   2.318
66074W        W38389  11.725   9.888   1.203
66075W        W38390  38.395  25.713  12.458
66076W        W38391  19.201  41.111   2.245
66077W        W38392  41.916  33.909  11.036
66078W        W38393  29.161   3.464   2.779
66079W        W38394   8.179   2.801  14.054
66080W        W38395  12.146  24.243  14.906
66081W        W38396  13.983  42.437   1.663
66082W        W38397  13.107  32.165   0.060
66083W        W38398   5.690  38.869  14.777
66084W        W38399  34.200  43.031  10.592
66085W        W38400   9.103  35.440   2.348
66086W        W38401  10.074   7.734  10.758
66087W        W38402  28.076  23.088   1.751
66088W        W38403   4.313   1.371  14.702
66089W        W38404  16.607   4.632  10.640
66090W        W38405   0.923  32.954  11.064
66091W        W38406  39.832   9.253   0.393
66092W        W38407  19.033  42.837   2.530
66093W        W38408  34.816  14.031  10.519
66094W        W38409   9.155  10.072   4.812
66095W        W38410  30.352   8.897  11.165
66096W        W38411   2.751  44.532   2.683
66097W        W38412  15.310  29.408   3.942
66098W        W38413  16.847   1.800   2.802
66099W        W38414  12.161   4.906   0.237
66100W        W38415  29.166   6.768   1.308
66101W        W38416  26.648   9.244   4.165
66102W        W38417   8.270   5.444  11.505
66103W        W38418  36.777  16.288   1.924
66104W        W38419   3.626  30.988   1.310
66105W        W38420  21.152  36.054  10.773
66106W        W38421  31.833   6.183  14.864
66107W        W38422   4.234  17.835   0.355
66108W        W38423  33.374  32.637   0.759
66109W        W38424  35.479  11.858   1.671
66110W        W38425   8.526   7.194  11.461
66111W        W38426  12.246  33.920  13.809
66112W        W38427   5.673  37.354  11.503
66113W        W38428  18.872  32.349   2.310
66114W        W38429  16.990  15.693   3.280
66115W        W38430  11.702  10.240  13.370
66116W        W38431  30.542  24.482   3.281
66117W        W38432  12.323  17.902  14.874
66118W        W38433  41.256  28.642  11.589
66119W        W38434  26.211  13.629  13.998
66120W        W38435  24.095  29.966  11.896
66121W        W38436  39.806   1.318  12.945
66122W        W38437  24.000  29.787   3.243
66123W        W38438   4.758  38.577  10.661
66124W        W38439  25.929   8.948   4.103
66125W        W38440  43.559   1.687   4.615
66126W        W38441  35.475  33.380  14.867
66127W        W38442  22.202   7.169  12.923
66128W        W38443  11.891   7.914   0.420
66129W        W38444   8.920  21.562   5.015
66130W        W38445  12.838   2.792  12.050
66131W        W38446   5.351  36.025   0.640
66132W        W38447  17.912  37.951   4.980
66133W        W38448  44.723  32.023   1.441
66134W        W38449  39.539  33.035   2.789
66135W        W38450  10.799  33.985   2.097
66136W        W38451  15.745  32.737  12.092
66137W        W38452  29.411  26.622   9.639
66138W        W38453  14.979  16.358  13.411
66139W        W38454  12.451  35.179   1.665
66140W        W38455   3.088  36.034   4.380
66141W        W38456  34.057  34.090  12.502
66142W        W38457  10.955  32.698  14.516
66143W        W38458  12.635  28.622  14.396
66144W        W38459   7.173  25.022  11.650
66145W        W38460  30.627  44.802   1.710
66146W        W38461  21.614  28.534  14.564
66147W        W38462  13.265  14.632  11.441
66148W        W38463  10.952   6.277  14.004
66149W        W38464   6.815  38.131   0.459
66150W        W38465  15.056  10.668  14.800
66151W        W38466  19.888  10.447  11.533
66152W        W38467   7.757  10.812   2.405
66153W        W38468  17.113  10.163   0.989
66154W        W38469  24.769  26.297  14.821
66155W        W38470  21.105  39.032   0.242
66156W        W38471  44.382  33.585  14.205
66157W        W38472   9.135   1.052   1.260
66158W        W38473  21.589  13.818  14.110
66159W        W38474  22.587   8.401   2.182
66160W        W38475   2.878   9.668   2.563
66161W        W38476  37.054   9.617   3.308
66162W        W38477   9.388  16.682  12.473
66163W        W38478  29.875  34.516  14.595
66164W        W38479  38.827   7.734   2.261
66165W        W38480  30.794  20.869   2.832
66166W        W38481  29.172   8.094  14.892
66167W        W38482  17.329  12.526   3.714
66168W        W38483  24.199   2.378  13.456
66169W        W38484   0.078  11.311   5.285
66170W        W38485  38.590   9.110  11.686
66171W        W38486  26.148  19.525   3.124
66172W        W38487  15.595  15.637   3.741
66173W        W38488  31.026  23.749  13.556
66174W        W38489  17.664  33.143  10.687
66175W        W38490  22.964  28.984  12.428
66176W        W38491  23.052   2.421   3.169
66177W        W38492  13.580  10.780  11.479
66178W        W38493  26.491  42.006  14.645
66179W        W38494  19.675   8.234  13.498
66180W        W38495  22.491  17.856   1.750
66181W        W38496  29.600  17.960  10.376
66182W        W38497  25.566  27.976   2.456
66183W        W38498   1.910  25.524  14.360
66184W        W38499  40.547  22.675   0.955
66185W        W38500  22.897  13.090  11.212
66186W        W38501  23.463   5.417  11.659
66187W        W38502   1.192  33.909  14.421
66188W        W38503  26.739  10.111   4.143
66189W        W38504  13.868  24.305   3.794
66190W        W38505  21.852  23.368   2.414
66191W        W38506   4.677  23.975  11.016
66192W        W38507   2.272  35.847   1.803
66193W        W38508  17.636  12.280  12.076
66194W        W38509   5.667  17.283  14.398
66195W        W38510  32.154   8.746  10.707
66196W        W38511  24.260  15.578  11.626
66197W        W38512  42.478  20.633   4.830
66198W        W38513   7.055  23.454   2.015
66199W        W38514  16.290  12.229  13.170
66200W        W38515  43.295   8.211  11.987
66201W        W38516  22.793   3.389  12.089
66202W        W38517  11.113  19.019   2.257
66203W        W38518  33.447   3.243   2.773
66204W        W38519   5.282  30.860  12.816
66205W        W38520  22.289   5.036   0.333
66206W        W38521  18.269  21.958   0.311
66207W        W38522  16.157  10.337   0.559
66208W        W38523  20.271  10.478   4.315
66209W        W38524  43.098  25.972   1.533
66210W        W38525  41.499  43.455  14.550
66211W        W38526  35.820  17.625  10.734
66212W        W38527   9.305  25.468  11.630
66213W        W38528  27.085  36.830   0.862
66214W        W38529  13.171  13.756   0.519
66215W        W38530  39.434  17.589   2.644
66216W        W38531   4.401  19.669   2.892
66217W        W38532  39.403  41.734  13.120
66218W        W38533  21.307  27.005  11.182
66219W        W38534  33.206  43.057  11.408
66220W        W38535   4.731  37.858  13.542
66221W        W38536  31.372  33.292  12.911
66222W        W38537  23.020  13.395  14.916
66223W        W38538   6.137  32.218   2.076
66224W        W38539  11.804  38.838   1.372
66225W        W38540  37.911  24.242   2.467
66226W        W38541   6.465  33.973  13.834
66227W        W38542  13.467  33.128  12.449
66228W        W38543  41.462  10.282  10.283
66229W        W38544  34.099  16.707   4.488
66230W        W38545  13.709  36.674   1.205
66231W        W38546  13.639  16.071   3.124
66232W        W38547  30.347  32.446  13.978
66233W        W38548  16.019  10.961   2.704
66234W        W38549  30.346  39.393  14.951
66235W        W38550  41.944  34.873  10.927
66236W        W38551   8.392  24.202   3.349
66237W        W38552   1.194   6.175   1.335
66238W        W38553  29.728  35.379  11.912
66239W        W38554  29.321  13.942  14.160
66240W        W38555  23.573  10.214   3.660
66241W        W38556  37.032  23.235   2.779
66242W        W38557  17.250  20.324   0.275
66243W        W38558  25.706  13.264   2.315
66244W        W38559  12.391  31.610   0.182
66245W        W38560  37.269  28.039  11.022
66246W        W38561  21.050  13.779   2.281
66247W        W38562  40.467  12.095  13.941
66248W        W38563  32.462  15.635   1.271
66249W        W38564  12.973  35.224   2.739
66250W        W38565  43.887  26.883  10.859
66251W        W38566   6.808  40.663   2.690
66252W        W38567  13.824  34.328   1.879
66253W        W38568  36.973   0.762   0.403
66254W        W38569  34.989  29.664  11.502
66255W        W38570  12.056  25.179  12.497
66256W        W38571  14.980  24.490   1.166
66257W        W38572  23.721  39.657  14.300
66258W        W38573  23.270  36.121  11.241
66259W        W38574   8.685  37.219   2.365
66260W        W38575  37.947  12.781   0.217
66261W        W38576   7.180  37.297   0.429
66262W        W38577   5.816  27.264   1.217
66263W        W38578  21.468   8.646  13.377
66264W        W38579  18.171   6.976  11.636
66265W        W38580  30.627   0.727  12.907
66266W        W38581  33.968   3.261  12.453
66267W        W38582  26.729  13.548  12.848
66268W        W38583  39.272  20.266   0.159
66269W        W38584  33.602   1.260  12.015
66270W        W38585  14.166  30.054  14.267
66271W        W38586  24.466   2.008  11.112
66272W        W38587  34.355  42.248  11.560
66273W        W38588  10.605  26.664  12.048
66274W        W38589  32.689   4.806  11.688
66275W        W38590   0.182  23.570   2.811
66276W        W38591  30.596   3.984   0.457
66277W        W38592  22.153  12.807   0.341
66278W        W38593  38.457   7.797   4.668
66279W        W38594   7.088  20.257   0.362
66280W        W38595   2.835  31.152  13.954
66281W        W38596  35.837  38.492   0.496
66282W        W38597  26.461  14.617   2.977
66283W        W38598  28.485  17.170   2.433
66284W        W38599  20.505  44.213  10.804
66285W        W38600  30.393  24.861   4.485
66286W        W38601  26.040  42.218  11.147
66287W        W38602  27.539  23.512  10.759
66288W        W38603  26.222  23.884   0.092
66289W        W38604   8.775  41.907  12.631
66290W        W38605  21.464  13.863   4.156
66291W        W38606   8.894  17.534   5.174
66292W        W38607  11.995  22.944   3.159
66293W        W38608  41.960   3.969  12.536
66294W        W38609   0.502  30.046   3.949
66295W        W38610  11.267  20.382  12.067
66296W        W38611  28.908  27.739   3.265
66297W        W38612  14.357  42.321  13.439
66298W        W38613  40.022  18.073  11.829
66299W        W38614  36.076  34.406   0.292
66300W        W38615  32.493  15.831  10.688
66301W        W38616   6.680  11.827  13.517
66302W        W38617   1.806  31.048  10.404
66303W        W38618  36.943   7.714   0.943
66304W        W38619  29.438  44.947  12.378
66305W        W38620  30.557   3.257  11.518
66306W        W38621  28.323   8.158   0.636
66307W        W38622  28.502  38.568   3.187
66308W        W38623  22.121  18.641  10.637
66309W        W38624  32.731  30.943   4.698
66310W        W38625  21.577   7.888  12.075
66311W        W38626  38.081  21.128  11.714
66312W        W38627   5.683  40.783  12.193
66313W        W38628  28.314   0.894  12.624
66314W        W38629  26.655  18.654   3.023
66315W        W38630  20.514  34.542  13.660
66316W        W38631  24.496  31.279   4.531
66317W        W38632   3.146  20.684   4.236
66318W        W38633  17.057  38.015  13.875
66319W        W38634   6.694  13.799  13.390
66320W        W38635  16.240  12.052  12.680
66321W        W38636   5.465  30.719   2.788
66322W        W38637  42.041  38.563   1.381
66323W        W38638  35.606   8.119  14.453
66324W        W38639  21.166  15.844   1.673
66325W        W38640  23.713  40.067  13.972
66326W        W38641  19.677  35.589   0.777
66327W        W38642   4.308  44.984   0.580
66328W        W38643  31.696  12.240  12.944
66329W        W38644  18.564  38.095   5.431
66330W        W38645  12.229   2.294  13.402
66331W        W38646  39.299  41.107   2.446
66332W        W38647  12.245  23.059   3.604
66333W        W38648   5.445  15.643   2.530
66334W        W38649  34.572   3.436  14.318
66335W        W38650   1.256  44.453  11.240
66336W        W38651  43.933  21.036   3.692
66337W        W38652  40.432  41.914   1.931
66338W        W38653  13.147   6.663  12.013
66339W        W38654  27.276   0.202  11.138
66340W        W38655  39.211  24.899   3.746
66341W        W38656  37.942  22.593   1.307
66342W        W38657  37.176  40.473  11.978
66343W        W38658  33.853  44.699   4.854
66344W        W38659  15.297  43.375  12.516
66345W        W38660  14.648   8.795   1.320
66346W        W38661   6.787  25.264  11.421
66347W        W38662   8.722  21.687  13.952
66348W        W38663   8.279   3.654   1.275
66349W        W38664  12.320  24.616   1.213
66350W        W38665  27.828  34.497  11.463
66351W        W38666  40.283  44.222   2.637
66352W        W38667  29.414  39.319  11.621
66353W        W38668  24.745   3.721  13.444
66354W        W38669  32.817  26.549  11.533
66355W        W38670  24.721  37.880   4.693
66356W        W38671   8.697  33.071   1.839
66357W        W38672  14.372  20.789  14.892
66358W        W38673   7.867  15.267   4.271
66359W        W38674  29.042   8.658  11.867
66360W        W38675  23.930  36.397  12.951
66361W        W38676   6.463  31.141  14.885
66362W        W38677  11.381  23.517   1.258
66363W        W38678   6.983  44.675  13.927
66364W        W38679  40.894   0.675  11.892
66365W        W38680  37.053  43.405  14.885
66366W        W38681  29.240  11.352  14.421
66367W        W38682   8.151  34.917  12.097
66368W        W38683  19.510  10.972   5.015
66369W        W38684  44.274  25.342  14.437
66370W        W38685  40.139   3.773  12.954
66371W        W38686  28.980  28.203   4.373
66372W        W38687   5.757   3.627   2.629
66373W        W38688  42.345  14.998  12.995
66374W        W38689  33.726  26.184  13.873
66375W        W38690  39.588  21.146   0.429
66376W        W38691  23.715   3.876  13.556
66377W        W38692  40.198  38.658  12.820
66378W        W38693  21.963  32.532  10.730
66379W        W38694  15.888  37.741   2.440
66380W        W38695   8.641  15.130   2.837
66381W        W38696  39.841  17.054   1.074
66382W        W38697  14.193  14.339   0.222
66383W        W38698  40.691  32.566   0.116
66384W        W38699  10.162   7.763   1.204
66385W        W38700  20.728  18.889  11.738
66386W        W38701  36.522   8.879  10.166
66387W        W38702   3.227   0.961  13.496
66388W        W38703  19.573  27.606   0.764
66389W        W38704  36.755  21.096  12.381
66390W        W38705  16.817  37.999   4.027
66391W        W38706  32.754  41.541  14.801
66392W        W38707   3.024  34.046   3.660
66393W        W38708   2.016  40.502   1.329
66394W        W38709  21.147  11.368  11.208
66395W        W38710  17.244   0.192   2.340
66396W        W38711  43.730  16.975   0.271
66397W        W38712  10.600   4.260  14.894
66398W        W38713  15.121  40.876   1.897
66399W        W38714  29.835  42.829  14.883
66400W        W38715  23.213   7.422  11.977
66401W        W38716  19.545  21.090   0.960
66402W        W38717  17.336   4.576  13.914
66403W        W38718  24.458   9.219  14.478
66404W        W38719  17.150  22.760  11.521
66405W        W38720  15.716  32.257  14.353
66406W        W38721  41.387   7.874   2.806
66407W        W38722   1.899  20.762   0.627
66408W        W38723  30.085  14.227   2.958
66409W        W38724  22.656  30.158   4.237
66410W        W38725  31.079  15.077  13.988
66411W        W38726  31.144  43.185   1.419
66412W        W38727  13.050  16.821  10.464
66413W        W38728   2.684   8.506  11.383
66414W        W38729  36.852  17.817  10.715
66415W        W38730  36.947   4.700   4.920
66416W        W38731  11.483  40.277   4.371
66417W        W38732  21.626  24.263  11.449
66418W        W38733  38.859  27.410  13.722
66419W        W38734  35.962  27.129  14.486
66420W        W38735   4.964   1.002  13.776
66421W        W38736   2.663  18.245  12.681
66422W        W38737  23.176  37.352  11.431
66423W        W38738   2.918  42.975  12.038
66424W        W38739  44.778  42.523  12.442
66425W        W38740  31.884  17.094   0.413
66426W        W38741  36.269  17.687  14.342
66427W        W38742  36.116  31.688  11.200
66428W        W38743  17.026   5.753  12.740
66429W        W38744  22.788  37.898   1.880
66430W        W38745  31.626  26.474   1.804
66431W        W38746  13.733  10.356   4.449
66432W        W38747  19.710   7.862   2.404
66433W        W38748  38.039  38.779  11.218
66434W        W38749  34.815   3.516   9.744
66435W        W38750  39.982  44.890   0.747
66436W        W38751  38.671  13.920   3.573
66437W        W38752  36.889  29.387   3.645
66438W        W38753   3.019  23.760  12.475
66439W        W38754  21.108  34.306  12.464
66440W        W38755   6.251  30.623   1.371
66441W        W38756  20.073  11.937   2.638
66442W        W38757  17.144   6.906   2.327
66443W        W38758  21.488  10.298  14.366
66444W        W38759  43.482   9.402   1.744
66445W        W38760  44.780   3.052   1.914
66446W        W38761  40.005   9.077  14.870
66447W        W38762  34.970  25.991  11.992
66448W        W38763   5.490  42.586  12.520
66449W        W38764  13.648  19.075   2.917
66450W        W38765  43.598  24.488   4.635
66451W        W38766   1.386  32.614  13.412
66452W        W38767  35.151   6.263   4.513
66453W        W38768  25.541  42.811  13.911
66454W        W38769  17.653  21.530   3.464
66455W        W38770  11.474  36.124   3.204
66456W        W38771  43.388   7.236   4.568
66457W        W38772   4.288  14.294   0.082
66458W        W38773  19.838  27.472  12.527
66459W        W38774  34.387  42.855  14.458
66460W        W38775  12.586  12.183   4.440
66461W        W38776  12.162  10.066  14.818
66462W        W38777   2.387   4.278   1.871
66463W        W38778   3.145   6.689   3.700
66464W        W38779  18.570  20.573  13.397
66465W        W38780  11.755  24.475  12.005
66466W        W38781  24.623  18.440   1.282
66467W        W38782  39.207  24.658   3.296
66468W        W38783  13.280   4.737  12.450
66469W        W38784  13.312  17.263  12.435
66470W        W38785  24.833  39.864  12.914
66471W        W38786  14.126   3.415  14.480
66472W        W38787  37.363  33.041   1.230
66473W        W38788  14.138  25.015   2.703
66474W        W38789   5.110  31.962  10.662
66475W        W38790  17.083   6.507  10.184
66476W        W38791   8.197  40.440  11.533
66477W        W38792   3.794   0.477   3.357
66478W        W38793   6.326   3.453   0.035
66479W        W38794  27.996   7.340  12.187
66480W        W38795  19.574  31.905   3.461
66481W        W38796  38.070  17.718   1.051
66482W        W38797  19.580  14.580  13.428
66483W        W38798  27.343  36.537   1.679
66484W        W38799  31.110  15.050   4.125
66485W        W38800  31.477  13.265   4.699
66486W        W38801  29.424   9.097   1.210
66487W        W38802  26.588  14.319  13.472
66488W        W38803  18.255   8.007  11.512
66489W        W38804  35.866  23.535  12.895
66490W        W38805  10.203  37.427   1.018
66491W        W38806  11.150  43.937  13.479
66492W        W38807  21.391   8.459  14.071
66493W        W38808  35.794  34.934  12.514
66494W        W38809  31.484  41.406   2.623
66495W        W38810  12.900  26.738   1.378
66496W        W38811  44.921  11.052   0.964
66497W        W38812  39.842  44.587   4.542
66498W        W38813   7.380  36.892   1.870
66499W        W38814  30.666  40.932  12.124
66500W        W38815   4.454  21.282   0.461
66501W        W38816  26.355  16.180  11.254
66502W        W38817  20.231   3.998  10.991
66503W        W38818  14.753  11.752  13.065
66504W        W38819  38.426  22.713  14.275
66505W        W38820  23.538  10.923  12.105
66506W        W38821  20.231   1.297   0.677
66507W        W38822  36.050  25.248   4.292
66508W        W38823  43.905  36.332   0.190
66509W        W38824  14.837  24.969   1.359
66510W        W38825   4.314  43.046   3.772
66511W        W38826  15.547  42.854   2.673
66512W        W38827   7.979   0.622  12.417
66513W        W38828   8.212  36.033   0.655
66514W        W38829   7.921   0.456  14.902
66515W        W38830  41.863  26.727   1.747
66516W        W38831  21.482  35.086  10.236
66517W        W38832  43.609  26.691   1.289
66518W        W38833  38.178  40.328   4.635
66519W        W38834  24.255  25.521  10.414
66520W        W38835  23.007  41.438  10.808
66521W        W38836  44.887   4.375   2.199
66522W        W38837  34.156  18.264  14.105
66523W        W38838  33.320  33.303  10.619
66524W        W38839  22.468   1.918   2.325
66525W        W38840  27.619  30.387  10.893
66526W        W38841  31.212   9.848  11.090
66527W        W38842  38.581   6.243   4.300
66528W        W38843  37.338  24.698   2.002
66529W        W38844   7.751  29.471   4.590
66530W        W38845  16.609   6.933  14.663
66531W        W38846  18.202  11.802  10.029
66532W        W38847  28.492  23.662   4.009
66533W        W38848  32.096  23.202  10.722
66534W        W38849  30.537   5.322  13.820
66535W        W38850  19.566  31.986  11.630
66536W        W38851  10.632  16.477   1.290
66537W        W38852  39.362   8.912  12.361
66538W        W38853  26.078  15.110  14.906
66539W        W38854  35.238  20.252  11.113
66540W        W38855   2.857   7.705  12.440
66541W        W38856  25.960   5.959   4.501
66542W        W38857  36.849  22.176   3.322
66543W        W38858   0.388  31.013  10.890
66544W        W38859  33.445  25.700  10.361
66545W        W38860   6.717  38.014  13.403
66546W        W38861   8.682  24.507  11.649
66547W        W38862  24.412   2.398   2.811
66548W        W38863  42.129   6.707   2.328
66549W        W38864   2.217  20.348  13.445
66550W        W38865  28.987  44.531  14.902
66551W        W38866  11.068  36.849   2.224
66552W        W38867  35.983  42.281   0.747
66553W        W38868  29.630  25.226   4.998
66554W        W38869  39.979   5.502  12.619
66555W        W38870  17.370  33.466   2.323
66556W        W38871  38.299   4.948   3.207
66557W        W38872  37.197  17.786   0.290
66558W        W38873  11.809   3.621   2.740
66559W        W38874   8.817  15.249   4.643
66560W        W38875   1.343  43.957   2.718
66561W        W38876  37.176   1.028  13.464
66562W        W38877  42.827  31.054  11.793
66563W        W38878  15.129  39.046  13.480
66564W        W38879  24.574  37.650  12.574
66565W        W38880  38.134  26.467  10.593
66566W        W38881  29.462  21.709  13.782
66567W        W38882   8.368   5.250  13.426
66568W        W38883  37.548  35.141   4.649
66569W        W38884  31.941  38.404  10.722
66570W        W38885   0.563   1.060   4.179
66571W        W38886  36.604  18.698  10.980
66572W        W38887  34.926   8.856   5.190
66573W        W38888  28.949  44.978   3.634
66574W        W38889  35.980  35.308  12.193
66575W        W38890   8.661  12.193  14.188
66576W        W38891  39.485  20.073   4.690
66577W        W38892  10.783  41.280   1.370
66578W        W38893   8.155  38.546   0.778
66579W        W38894  29.473  34.956   0.346
66580W        W38895  25.479  15.541  10.401
66581W        W38896  10.385   4.007   1.965
66582W        W38897   0.872  35.450   2.831
66583W        W38898  22.055  34.141   3.182
66584W        W38899   8.140  31.633   2.493
66585W        W38900   0.884  14.147  10.728
66586W        W38901  43.581  37.221  14.055
66587W        W38902  11.046  17.311  12.574
66588W        W38903  38.072  27.054  13.932
66589W        W38904  22.937  20.402  12.561
66590W        W38905  31.924  41.002  14.440
66591W        W38906   2.266   3.543  13.833
66592W        W38907  18.467  25.354  11.449
66593W        W38908   4.349  21.439  13.237
66594W        W38909  29.016   1.901  12.511
66595W        W38910  10.661   4.155  13.448
66596W        W38911   2.755  29.438   3.313
66597W        W38912  18.249  30.066  12.918
66598W        W38913  38.900   3.973  13.520
66599W        W38914  25.190   0.875   2.919
66600W        W38915  12.072  10.635  13.147
66601W        W38916  35.650  35.440   1.024
66602W        W38917   2.245  22.508  14.460
66603W        W38918   7.882  15.623   2.901
66604W        W38919  34.895  18.591   0.941
66605W        W38920   1.428   1.790   1.546
66606W        W38921  11.150  28.939  14.924
66607W        W38922  11.561  39.887  11.538
66608W        W38923   4.895  15.591  14.746
66609W        W38924  26.573  17.913  14.849
66610W        W38925  15.691  37.095   2.742
66611W        W38926   8.373  20.968   4.897
66612W        W38927  27.252  17.692   3.647
66613W        W38928  15.257   7.336   4.512
66614W        W38929  43.941   4.541   0.339
66615W        W38930  26.671   5.721   3.894
66616W        W38931   3.513  31.902   1.357
66617W        W38932   3.956  10.699  10.612
66618W        W38933  12.281  37.335   5.008
66619W        W38934  42.004   5.284  10.731
66620W        W38935  44.047  16.253   3.718
66621W        W38936  20.922   3.021   0.290
66622W        W38937  28.258  25.507   0.420
66623W        W38938   6.225  39.961   0.693
66624W        W38939  31.056  30.945  12.485
66625W        W38940  11.804  18.875   9.683
66626W        W38941  22.609   6.914   5.067
66627W        W38942  10.250  24.519   2.576
66628W        W38943  15.344   7.376  11.952
66629W        W38944   3.017  28.161  13.868
66630W        W38945  24.947  40.448  13.804
66631W        W38946  34.751  27.361  13.016
66632W        W38947  32.421  40.967  12.944
66633W        W38948  41.783  12.289   2.072
66634W        W38949  19.236  14.279  14.559
66635W        W38950   9.977   3.538   0.957
66636W        W38951  27.715  24.705   4.284
66637W        W38952  18.775  30.084  12.960
66638W        W38953  14.825  44.376  13.186
66639W        W38954   5.314  41.572  11.599
66640W        W38955   0.833  23.692  12.394
66641W        W38956  31.525  18.477  13.831
66642W        W38957  16.317  20.564  13.452
66643W        W38958  22.985  44.474  14.800
66644W        W38959  43.760  25.644  12.850
66645W        W38960   8.355  31.895   3.797
66646W        W38961   0.909  33.438  12.636
66647W        W38962   8.940  32.815  12.485
66648W        W38963  14.374  24.528   4.037
66649W        W38964  10.568  36.822  13.846
66650W        W38965  23.599  26.068   4.454
66651W        W38966   6.708  20.854  13.083
66652W        W38967  21.658  19.225  14.842
66653W        W38968  31.667  26.187  12.909
66654W        W38969  32.085  21.229   3.044
66655W        W38970  34.933   1.846   0.332
66656W        W38971  18.528  35.759   3.539
66657W        W38972  30.448  27.262   1.255
66658W        W38973  30.232   4.354   2.889
66659W        W38974  20.107   5.943  13.332
66660W        W38975  21.005  29.702   0.039
66661W        W38976  35.879  35.005  10.975
66662W        W38977  19.308  37.914  12.100
66663W        W38978   6.302   8.582   0.375
66664W        W38979  21.236  19.846   5.026
66665W        W38980  11.533  44.029  14.822
66666W        W38981  27.454  41.021  11.003
66667W        W38982  33.354   9.237   4.531
66668W        W38983  19.301  40.641   0.823
66669W        W38984  14.134  13.878   1.316
66670W        W38985  30.908  43.362   3.765
66671W        W38986  28.531   8.882   1.350
66672W        W38987   7.278  40.351  10.997
66673W        W38988  19.629  11.109   3.347
66674W        W38989  36.390  31.086   1.955
66675W        W38990  33.449  30.403  14.383
66676W        W38991  35.386   2.032   2.382
66677W        W38992   4.180  33.106   0.371
66678W        W38993  37.045   6.857   1.745
66679W        W38994  30.130   9.278   1.768
66680W        W38995  32.092  33.054  12.999
66681W        W38996  21.186  20.738   3.593
66682W        W38997  24.123  25.286   1.380
66683W        W38998  43.252   4.492  14.827
66684W        W38999  14.574  29.599  12.924
66685W        W39000  13.271   2.917  11.831
66686W        W39001  22.031  12.107  10.601
66687W        W39002  28.052  31.828  11.474
66688W        W39003  11.870   7.712   3.708
66689W        W39004  28.415  19.037  13.064
66690W        W39005   6.034  11.571  10.579
66691W        W39006   0.717  30.632   4.626
66692W        W39007  29.013  34.437   3.711
66693W        W39008  26.868  22.249   4.772
66694W        W39009  30.610   4.711   4.579
66695W        W39010  34.656   1.814  13.007
66696W        W39011   7.406   7.965   0.955
66697W        W39012  15.692   4.158  12.176
66698W        W39013  33.069   1.345   0.748
66699W        W39014   4.409   5.688  13.012
66700W        W39015  40.653  42.899  14.530
66701W        W39016  20.469  23.052   4.176
66702W        W39017  28.868  26.805  13.435
66703W        W39018  32.311   5.945  12.385
66704W        W39019  44.488  42.542  14.869
66705W        W39020  10.798  32.412   2.859
66706W        W39021  40.041   1.869  11.102
66707W        W39022  37.871   1.916  11.168
66708W        W39023  33.568  24.053  11.101
66709W        W39024  22.322  10.868   3.657
66710W        W39025   2.688  19.549  12.589
66711W        W39026  24.597  23.064   2.592
66712W        W39027  14.773  19.393   0.833
66713W        W39028  30.116   1.100   2.725
66714W        W39029  25.654  35.058  12.532
66715W        W39030  28.492   5.459   2.165
66716W        W39031  22.004   6.675  12.337
66717W        W39032  18.153  15.844   1.143
66718W        W39033   9.612  40.362   2.310
66719W        W39034  38.032  23.774   0.360
66720W        W39035  42.133  35.107  14.345
66721W        W39036  17.769   3.928  13.659
66722W        W39037  16.570  21.642  13.875
66723W        W39038  22.567   1.376  10.880
66724W        W39039  34.035  30.372   1.680
66725W        W39040   0.301  43.779  10.800
66726W        W39041  39.461  43.947   2.160
66727W        W39042  34.130  15.338  11.192
66728W        W39043  22.290  34.018   3.621
66729W        W39044  14.300  27.779  13.432
66730W        W39045  22.006  38.068   3.090
66731W        W39046  44.515  41.300   1.382
66732W        W39047  39.273  41.113  12.337
66733W        W39048  27.479  40.637   0.274
66734W        W39049   1.764  36.096   1.742
66735W        W39050  29.292  26.237  11.575
66736W        W39051  14.072  25.972   3.272
66737W        W39052  40.537  38.987  12.996
66738W        W39053  32.597  18.030   2.930
66739W        W39054  18.017   1.503   4.405
66740W        W39055   3.588  12.074   4.237
66741W        W39056  38.208  36.292   3.697
66742W        W39057   6.217   1.290  12.048
66743W        W39058   0.579  15.185   3.867
66744W        W39059  34.637  41.563  14.288
66745W        W39060  17.300  36.828   3.901
66746W        W39061  37.290   8.925   2.366
66747W        W39062   8.774   0.971  13.015
66748W        W39063   0.434  34.468  13.925
66749W        W39064   0.774  17.824   1.466
66750W        W39065  38.295  13.444   0.847
66751W        W39066   0.804  30.958   0.344
66752W        W39067  34.359   6.156  11.520
66753W        W39068  37.392  19.100  10.879
66754W        W39069  33.462  28.735  12.481
66755W        W39070   5.279  38.077  12.400
66756W        W39071  30.884   2.821   4.060
66757W        W39072   5.485  27.088   2.337
66758W        W39073   4.325  44.521   1.725
66759W        W39074  34.213  22.001  14.776
66760W        W39075   8.221  21.558   2.746
66761W        W39076  41.358  26.624   1.933
66762W        W39077   2.325   0.677   3.309
66763W        W39078  39.321   4.843   3.153
66764W        W39079  30.866  41.909   3.867
66765W        W39080  34.817  37.391   5.020
66766W        W39081  43.445  38.396   0.820
66767W        W39082  32.056  25.062   1.261
66768W        W39083  43.975  39.594   3.882
66769W        W39084  27.474  10.793  11.208
66770W        W39085  44.450  19.565  13.429
66771W        W39086  22.997   4.858  11.635
66772W        W39087  14.627  44.734  14.596
66773W        W39088  18.070  28.578  10.497
66774W        W39089  12.194  12.267   1.865
66775W        W39090  27.961  39.491  13.054
66776W        W39091   4.731  23.629   1.813
66777W        W39092  15.171  17.101   2.745
66778W        W39093   4.167  13.154  13.043
66779W        W39094  10.879  39.067   1.750
66780W        W39095   9.004  34.962   2.104
66781W        W39096   8.904   1.596   2.785
66782W        W39097   2.675  27.622  10.796
66783W        W39098  27.733  22.072  10.522
66784W        W39099  43.215  36.950   2.128
66785W        W39100  17.378  30.434   2.745
66786W        W39101   0.289  17.528  13.146
66787W        W39102  26.563  16.298   3.590
66788W        W39103   2.340  37.923  14.410
66789W        W39104   9.873  32.219  14.434
66790W        W39105  10.358  14.830  10.733
66791W        W39106  19.033  20.017  13.354
66792W        W39107  20.539  44.789  13.517
66793W        W39108  21.731  25.938   1.458
66794W        W39109   5.674   3.665  13.811
66795W        W39110  10.689   2.753  14.834
66796W        W39111   4.644  13.956   9.913
66797W        W39112  24.175   9.791   3.264
66798W        W39113  15.913  44.818   1.302
66799W        W39114  38.447  26.863  10.724
66800W        W39115   5.777  21.146  12.054
66801W        W39116  44.373  32.504   0.645
66802W        W39117  19.251  36.053  12.434
66803W        W39118  43.645  18.230  14.015
66804W        W39119   7.929   8.302   4.210
66805W        W39120  44.982  40.770  14.346
66806W        W39121  20.050  23.474  12.331
66807W        W39122  15.458  24.564   3.738
66808W        W39123  25.973  10.487   3.624
66809W        W39124   7.728  23.847  14.905
66810W        W39125  30.525  21.049   0.481
66811W        W39126  35.262  33.325   3.724
66812W        W39127  32.030  34.893   3.670
66813W        W39128  16.280  18.721  12.078
66814W        W39129  24.522  26.488  12.089
66815W        W39130  29.367   3.662   3.206
66816W        W39131   8.198  26.761   2.770
66817W        W39132  42.313  12.569  11.197
66818W        W39133  21.578  31.901   1.208
66819W        W39134  24.606  17.577   3.522
66820W        W39135   2.859  32.582  11.203
66821W        W39136  22.527  24.166  11.562
66822W        W39137  12.246  21.601   3.926
66823W        W39138   5.967  39.234   0.285
66824W        W39139  43.981  25.503   3.768
66825W        W39140   8.240  40.853   1.945
66826W        W39141  21.415  34.008   0.723
66827W        W39142  18.370  25.396   2.249
66828W        W39143  39.055  42.461  14.974
66829W        W39144  41.548  26.899  13.969
66830W        W39145   4.775   7.410   0.616
66831W        W39146   5.337  13.687  11.536
66832W        W39147  36.351  33.047  14.881
66833W        W39148  33.970  12.879  12.946
66834W        W39149  15.657  28.165  13.956
66835W        W39150  32.834  30.570   0.880
66836W        W39151  26.518  13.598  10.538
66837W        W39152   8.383   7.901   4.202
66838W        W39153  35.763  34.843   3.625
66839W        W39154  31.373   2.975   0.763
66840W        W39155   2.365  24.388   1.391
66841W        W39156  25.257  43.878  13.555
66842W        W39157   0.312   9.864  11.138
66843W        W39158  34.363  35.187  14.961
66844W        W39159  23.960  43.272  12.305
66845W        W39160   1.697  14.680   4.321
66846W        W39161  18.290  17.182  14.300
66847W        W39162  25.793  29.436   0.789
66848W        W39163   8.643  18.899   2.306
66849W        W39164   4.598  19.129  14.833
66850W        W39165   6.835  44.424  13.500
66851W        W39166   0.103  44.304   2.208
66852W        W39167  19.267  37.299  11.472
66853W        W39168   5.285   3.420  12.939
66854W        W39169  18.638  25.794  12.304
66855W        W39170  20.566   9.700   4.725
66856W        W39171  13.060  25.945   1.719
66857W        W39172  23.640  15.213  12.078
66858W        W39173   9.455   0.239  11.101
66859W        W39174   6.669   8.806  13.801
66860W        W39175   9.131  28.789  12.530
66861W        W39176   9.317  30.326  11.191
66862W        W39177  11.249  41.421   4.603
66863W        W39178  31.147   4.350   1.826
66864W        W39179  12.394  18.001  11.060
66865W        W39180  36.612  18.783  14.037
66866W        W39181  22.069  41.374  13.905
66867W        W39182  23.027  37.973  13.365
66868W        W39183  31.160  30.584   3.709
66869W        W39184  38.262  11.267   3.734
66870W        W39185  12.002  43.721   2.446
66871W        W39186  18.981  14.838  10.731
66872W        W39187   4.972  15.689   3.834
66873W        W39188  16.046  26.540  10.857
66874W        W39189   2.152   0.131   1.797
66875W        W39190  13.282   4.961  10.598
66876W        W39191  21.223  26.965   3.223
66877W        W39192  29.586  12.705   4.520
66878W        W39193  25.503  17.393   1.718
66879W        W39194   3.872  31.578   4.131
66880W        W39195  34.915  13.192  13.969
66881W        W39196   1.088  24.833  14.920
66882W        W39197   1.260  26.003   1.152
66883W        W39198  29.091  23.281   3.217
66884W        W39199   9.915  18.127  13.017
66885W        W39200  28.152  36.856  11.612
66886W        W39201   0.328  21.922  11.172
66887W        W39202  13.145  10.642   2.680
66888W        W39203  37.407  36.952  14.818
66889W        W39204  44.525   3.876   2.838
66890W        W39205  26.221  25.587  13.036
66891W        W39206  27.216  42.299   2.940
66892W        W39207  22.959   1.265  13.084
66893W        W39208  14.116   2.139  10.945
66894W        W39209   6.425  30.257  14.760
66895W        W39210  41.841  24.285   0.610
66896W        W39211  37.945  34.929  11.959
66897W        W39212  11.610   6.377  14.082
66898W        W39213  27.784  44.036   3.789
66899W        W39214  11.236  24.210   3.638
66900W        W39215  17.350  17.066   3.669
66901W        W39216   8.272  21.219   3.722
66902W        W39217  16.072  26.835   3.809
66903W        W39218  36.283  23.185   2.309
66904W        W39219  16.679  39.599  14.340
66905W        W39220  12.737  30.307   2.834
66906W        W39221   6.034  24.601  13.519
66907W        W39222  14.268  38.133  13.007
66908W        W39223  16.766   5.233   2.693
66909W        W39224  42.006   4.212   1.761
66910W        W39225  18.812  39.377  11.362
66911W        W39226  39.802  34.500   0.016
66912W        W39227  18.650   5.425   1.774
66913W        W39228   3.712  24.752  14.760
66914W        W39229  16.662  35.789   3.625
66915W        W39230  33.226  34.566   9.993
66916W        W39231   6.722  10.647  13.913
66917W        W39232   8.107  19.586   2.781
66918W        W39233  25.323  13.304  12.980
66919W        W39234  38.564  30.686  14.343
66920W        W39235  14.169   5.831  11.359
66921W        W39236  27.787  31.146  10.195
66922W        W39237  15.417  26.664  11.426
66923W        W39238  26.904  32.856  11.732
66924W        W39239   1.348  38.919   2.103
66925W        W39240   6.230  25.683  13.885
66926W        W39241  33.410  39.098  12.336
66927W        W39242  12.138   4.734  11.180
66928W        W39243  33.476  36.952  14.567
66929W        W39244  23.443  13.124   3.678
66930W        W39245  17.605  40.365   1.609
66931W        W39246   2.675  39.680   2.707
66932W        W39247   3.018  31.437  12.429
66933W        W39248  41.287  37.250   3.792
66934W        W39249  25.738   2.332   2.347
66935W        W39250  19.612  16.627   1.798
66936W        W39251  17.080  38.544  13.926
66937W        W39252  29.656  20.599  14.120
66938W        W39253  34.296  24.471  14.035
66939W        W39254  24.519  42.121   1.517
66940W        W39255  30.904  37.057  14.015
66941W        W39256  24.029   2.927   4.893
66942W        W39257  29.473  34.089   1.457
66943W        W39258  24.675  36.329   3.671
66944W        W39259  20.314  35.313  11.018
66945W        W39260  41.742   2.326   2.926
66946W        W39261  19.590  44.517  13.379
66947W        W39262  27.461   5.763   4.563
66948W        W39263  21.773   4.407  10.347
66949W        W39264  13.167  21.296   1.427
66950W        W39265  18.502   2.870  13.564
66951W        W39266  26.895  12.467   2.221
66952W        W39267  43.028   3.968   1.195
66953W        W39268  36.473  30.003   2.855
66954W        W39269  16.846   6.754  11.383
66955W        W39270  12.599  35.385   3.124
66956W        W39271  35.876  20.518   1.136
66957W        W39272  22.348  31.912   2.625
66958W        W39273   4.672  12.593  12.123
66959W        W39274  42.752  40.295  13.119
66960W        W39275  15.916  31.970  11.712
66961W        W39276  19.105  36.886  14.957
66962W        W39277  35.238   5.482  11.595
66963W        W39278  36.910  15.632  11.742
66964W        W39279  11.263   9.349  14.431
66965W        W39280  41.498  21.287  13.524
66966W        W39281  23.240   0.414  14.982
66967W        W39282  38.801  18.119  14.042
66968W        W39283  26.212   6.777   2.868
66969W        W39284  43.522  27.568   4.854
66970W        W39285   4.470  41.488   1.368
66971W        W39286  33.392  11.836   0.001
66972W        W39287  18.543  26.172   1.997
66973W        W39288   2.891   9.656  14.432
66974W        W39289  14.542  11.285   2.672
66975W        W39290  12.159  38.998  11.968
66976W        W39291  11.311  16.785  13.416
66977W        W39292  35.597  43.465   2.784
66978W        W39293  44.779   7.705  14.329
66979W        W39294  43.491   0.271  12.948
66980W        W39295  12.878  35.828  12.458
66981W        W39296  26.078  24.705   0.003
66982W        W39297  31.734  23.517  12.053
66983W        W39298   3.925   1.183  14.994
66984W        W39299  28.544   7.168   3.647
66985W        W39300  36.071   4.930  14.731
66986W        W39301  14.773  11.895  14.033
66987W        W39302  24.185   7.359  12.159
66988W        W39303  36.050  11.879  14.923
66989W        W39304  24.667  41.493   3.204
66990W        W39305   7.643   0.244   0.828
66991W        W39306  18.742  11.301  11.004
66992W        W39307  33.154  31.378  14.823
66993W        W39308   5.735  43.846   0.688
66994W        W39309   2.016  42.464  11.834
66995W        W39310  11.831  38.699   2.401
66996W        W39311  10.088   3.680   3.291
66997W        W39312  17.440  20.062   3.996
66998W        W39313  44.453   5.225   2.149
66999W        W39314  33.374  34.637   0.756
67000W        W39315   5.777  19.004   3.110
67001W        W39316  20.081   3.792   1.336
67002W        W39317  11.459  39.818   1.912
67003W        W39318  40.902   4.864   4.295
67004W        W39319   0.760   3.900  12.479
67005W        W39320  41.342   2.601   2.630
67006W        W39321   7.344  35.463   0.438
67007W        W39322   0.804   7.055   2.657
67008W        W39323  28.847  29.263   3.264
67009W        W39324  37.885   4.848   1.400
67010W        W39325   4.730   4.985  13.702
67011W        W39326  40.453  41.558   0.983
67012W        W39327  13.553   0.881   1.865
67013W        W39328  19.290  31.068   3.678
67014W        W39329  26.133   6.396  11.050
67015W        W39330  43.781  37.511   0.923
67016W        W39331   8.507  36.417  13.280
67017W        W39332  22.155  27.433   0.841
67018W        W39333  38.643  34.858  10.353
67019W        W39334  13.307  17.651  13.557
67020W        W39335   3.238   4.243   2.656
67021W        W39336  22.127   2.559  11.930
67022W        W39337  38.714  42.334  11.590
67023W        W39338   3.911  40.622  12.762
67024W        W39339  18.205  32.173  14.943
67025W        W39340  21.783  13.654  13.146
67026W        W39341  17.067  11.366  11.894
67027W        W39342  10.149  24.342  13.345
67028W        W39343   5.421   2.950   2.952
67029W        W39344  31.198  16.586  10.811
67030W        W39345   4.755  37.460  14.301
67031W        W39346  14.636  25.095  12.108
67032W        W39347  22.044  19.884   9.790
67033W        W39348   3.130  17.213   0.654
67034W        W39349  14.708  20.286   4.658
67035W        W39350  36.842  31.121   4.380
67036W        W39351   0.280  36.134   2.668
67037W        W39352  33.083   8.090  12.767
67038W        W39353  34.572  27.273  11.086
67039W        W39354  29.571  27.821   4.569
67040W        W39355  24.519  10.310  13.756
67041W        W39356  24.705  16.266  12.099
67042W        W39357  13.719  19.967  13.759
67043W        W39358  35.115  26.040   0.024
67044W        W39359  33.271  17.740   1.760
67045W        W39360  36.311  38.772   1.975
67046W        W39361  32.601  19.382   3.307
67047W        W39362  23.180  25.613   2.196
67048W        W39363  21.696  22.683  13.583
67049W        W39364   2.802  11.297  11.664
67050W        W39365  31.104   9.423  10.717
67051W        W39366   6.484  31.858   4.128
67052W        W39367  15.442   2.768  13.403
67053W        W39368  11.768   6.353  10.652
67054W        W39369  22.114  32.110  13.639
67055W        W39370   0.786   9.532  13.680
67056W        W39371  16.945  35.798   2.633
67057W        W39372  16.577  25.984   0.908
67058W        W39373  23.262  44.834   4.613
67059W        W39374  22.493  41.409  10.871
67060W        W39375   3.782  14.339   1.366
67061W        W39376  32.387   6.754   2.721
67062W        W39377  44.543  18.841   5.149
67063W        W39378   8.990  22.849   0.889
67064W        W39379  30.426  37.100  11.186
67065W        W39380  43.952   5.936  12.791
67066W        W39381  10.648  27.395  11.498
67067W        W39382  30.552  41.719   0.538
67068W        W39383  18.228  14.356  13.423
67069W        W39384  11.272  14.819   1.715
67070W        W39385  31.658  44.578   0.020
67071W        W39386  36.423  14.148   3.398
67072W        W39387  11.646   2.378   2.223
67073W        W39388  19.194  32.701  13.265
67074W        W39389  10.833  27.688   4.199
67075W        W39390  39.727  44.061  11.510
67076W        W39391  33.861  15.636   2.763
67077W        W39392  19.585  34.633  10.822
67078W        W39393  40.277  39.068  12.013
67079W        W39394  16.270  37.624   0.948
67080W        W39395  14.804   9.841  12.574
67081W        W39396  15.985  16.344   1.163
67082W        W39397  40.671   1.304  10.675
67083W        W39398  25.691  24.335  13.861
67084W        W39399  14.202  27.690   1.214
67085W        W39400  14.056   8.246   0.900
67086W        W39401  35.974  11.037   1.813
67087W        W39402  11.925  17.657  13.800
67088W        W39403  34.809  40.395  11.662
67089W        W39404  28.972   4.405   1.456
67090W        W39405  13.815  16.668   4.055
67091W        W39406   3.253  44.430  13.400
67092W        W39407  43.827  18.253   4.542
67093W        W39408  36.094  11.649   4.246
67094W        W39409  13.862  24.211   1.735
67095W        W39410  18.544  20.721   0.245
67096W        W39411  20.053  41.406  14.777
67097W        W39412  13.142  19.095  13.029
67098W        W39413   8.839   7.734  14.536
67099W        W39414  35.947   8.265  13.536
67100W        W39415  34.354  10.783   1.900
67101W        W39416  33.896  37.644   2.153
67102W        W39417  14.353  29.951  11.561
67103W        W39418  19.185   0.901  11.568
67104W        W39419  20.575  41.839  11.595
67105W        W39420  40.788   8.435   2.712
67106W        W39421  34.886   7.726   1.166
67107W        W39422  35.690  13.442  11.223
67108W        W39423  19.192   0.499   2.846
67109W        W39424  12.562  28.103   0.267
67110W        W39425  26.577   6.732  11.035
67111W        W39426  12.806  39.496   4.118
67112W        W39427  26.176  11.906   0.431
67113W        W39428  34.602   7.726   1.730
67114W        W39429   6.618  37.432   1.728
67115W        W39430   5.839  30.408  12.730
67116W        W39431  23.580   6.946   3.593
67117W        W39432   3.171  22.212   4.214
67118W        W39433  30.952  11.763  11.791
67119W        W39434  14.210  19.832  10.557
67120W        W39435  25.664   8.715  12.467
67121W        W39436   3.149  13.130   2.319
67122W        W39437  24.767   8.230   2.527
67123W        W39438  41.066   3.471   4.153
67124W        W39439   5.786  17.545  12.581
67125W        W39440  12.061  10.741   0.843
67126W        W39441  22.148  30.251   4.377
67127W        W39442   0.289  29.544   4.860
67128W        W39443  12.529   5.581  12.403
67129W        W39444  25.218  40.909  13.898
67130W        W39445  10.620  23.662  12.995
67131W        W39446  28.379  16.934   3.244
67132W        W39447  18.765   7.755  13.474
67133W        W39448  26.931   1.904   0.630
67134W        W39449  11.036  44.018   4.608
67135W        W39450  25.096  14.814  12.678
67136W        W39451  17.087   0.877   3.598
67137W        W39452  37.652  41.974   3.840
67138W        W39453  21.708  12.537   0.259
67139W        W39454  20.757  11.713   0.003
67140W        W39455   1.517  15.683  13.070
67141W        W39456  17.171  38.530   9.801
67142W        W39457  40.505  38.554  14.276
67143W        W39458  18.675  23.143   1.319
67144W        W39459   3.679  21.603   1.437
67145W        W39460   3.389  10.605   4.084
67146W        W39461  43.759   6.182   0.093
67147W        W39462  37.987  25.164   2.376
67148W        W39463  17.632   9.234  13.063
67149W        W39464  28.186  43.066   3.567
67150W        W39465  13.269  36.065   4.066
67151W        W39466  39.934  20.247   4.027
67152W        W39467  20.389  20.130  11.212
67153W        W39468  26.754  36.001   4.620
67154W        W39469  33.106  41.037   1.239
67155W        W39470  19.690  12.615  11.917
67156W        W39471  12.175  29.018  10.893
67157W        W39472  10.170  31.578  10.165
67158W        W39473  38.437  17.808   2.064
67159W        W39474   9.852  30.515   4.888
67160W        W39475   6.640  28.813  12.503
67161W        W39476  11.781  43.232   3.027
67162W        W39477  31.819  34.157   4.092
67163W        W39478   8.138  44.362   2.710
67164W        W39479  37.620  26.003  10.642
67165W        W39480  19.531  10.427   0.915
67166W        W39481  16.672   4.898   1.556
67167W        W39482  37.516  16.873  13.081
67168W        W39483  20.619   2.225  12.918
67169W        W39484  23.895  30.838   0.409
67170W        W39485  20.298  22.217  12.355
67171W        W39486  18.024  11.571   1.252
67172W        W39487  37.810   4.833   0.756
67173W        W39488  26.218  24.206   2.812
67174W        W39489  25.957  30.742  14.977
67175W        W39490   7.321  13.121   0.354
67176W        W39491  42.414  27.363   0.187
67177W        W39492  42.492  30.356  12.015
67178W        W39493   8.773   6.057  13.632
67179W        W39494  38.415  14.076  11.506
67180W        W39495   7.750  16.596  13.385
67181W        W39496  28.532   4.462  12.030
67182W        W39497  12.809  34.820  14.453
67183W        W39498  39.168   4.190   2.708
67184W        W39499  18.249  40.370   1.331
67185W        W39500  18.849  23.797   1.942
67186W        W39501  21.683  37.504  11.164
67187W        W39502  10.330  17.344  13.633
67188W        W39503  32.448  38.808   3.690
67189W        W39504  25.432  26.114  14.444
67190W        W39505  30.623  29.174   2.038
67191W        W39506  11.801  10.279   0.871
67192W        W39507  16.837  32.417  13.450
67193W        W39508  22.950  13.245   5.372
67194W        W39509  40.844  25.281   4.579
67195W        W39510  27.494   4.161  14.953
67196W        W39511   4.108   9.825  12.926
67197W        W39512   6.344  32.506  12.601
67198W        W39513  26.235  43.874  13.155
67199W        W39514  19.328  26.858  14.817
67200W        W39515  26.654  20.315  13.029
67201W        W39516  20.473  16.281   2.232
67202W        W39517  29.435  37.260   2.758
67203W        W39518  34.624  11.353  11.251
67204W        W39519  34.583   6.457  13.641
67205W        W39520  26.502   3.744   1.777
67206W        W39521  41.418  21.268   1.823
67207W        W39522  17.966   9.186  10.141
67208W        W39523  32.558  41.229   3.803
67209W        W39524   0.745  14.286  13.039
67210W        W39525  39.802   0.830   2.267
67211W        W39526  28.100   9.899   3.337
67212W        W39527  41.951  13.583   0.520
67213W        W39528  38.268  28.467  14.762
67214W        W39529  18.098  11.413  10.820
67215W        W39530  17.287  12.274  13.459
67216W        W39531  44.259   1.772   2.566
67217W        W39532  31.062  38.058  14.572
67218W        W39533  43.786  32.593  13.903
67219W        W39534  36.057  31.611   3.602
67220W        W39535  20.742  18.108  13.324
67221W        W39536  41.831  25.407   4.956
67222W        W39537  24.765  25.133  11.867
67223W        W39538  32.969  32.197   2.834
67224W        W39539  42.327   4.422   0.466
67225W        W39540  19.665  22.002   0.342
67226W        W39541   4.933  24.460  12.534
67227W        W39542  31.229   5.884   3.260
67228W        W39543  27.774  36.467  11.636
67229W        W39544  33.528  15.563  12.655
67230W        W39545  34.678  30.526  14.768
67231W        W39546  28.952  27.238  11.598
67232W        W39547  27.216   8.336   2.760
67233W        W39548  29.463  11.644   1.750
67234W        W39549  18.248  31.334  13.499
67235W        W39550  40.859  41.289  13.021
67236W        W39551  10.892  21.669  11.531
67237W        W39552  24.108  30.719   4.540
67238W        W39553  37.344   8.496  10.862
67239W        W39554  36.939  38.083  14.061
67240W        W39555  42.423  40.993  11.898
67241W        W39556   7.247  40.967  14.912
67242W        W39557  23.695  18.093  13.326
67243W        W39558   4.440   0.865  12.113
67244W        W39559  30.553   2.708   0.774
67245W        W39560  23.006  29.561  12.032
67246W        W39561  37.268  26.166  10.139
67247W        W39562   7.922  35.427  14.084
67248W        W39563  28.559  24.868   2.335
67249W        W39564  16.511  15.151   2.343
67250W        W39565  37.540   6.703  13.813
67251W        W39566  27.740  25.885   3.904
67252W        W39567  28.573  21.597   4.707
67253W        W39568  23.587  18.853  11.660
67254W        W39569  44.373  24.663   1.734
67255W        W39570  20.694  31.186   4.135
67256W        W39571  17.850   2.006   0.396
67257W        W39572   8.764  39.458  13.797
67258W        W39573  34.167   2.313   1.477
67259W        W39574   6.780  11.281   4.370
67260W        W39575  44.235  17.117   3.190
67261W        W39576   4.279  41.062  14.754
67262W        W39577  13.492  26.733   1.960
67263W        W39578  22.789  44.371   2.954
67264W        W39579  25.531  15.702   0.713
67265W        W39580  39.962  40.490  13.548
67266W        W39581   2.000   5.295  10.970
67267W        W39582  44.731  32.754   0.377
67268W        W39583  33.912  19.809   4.973
67269W        W39584   8.911  16.130   0.726
67270W        W39585  43.011   4.910  13.828
67271W        W39586  29.058  24.303   0.785
67272W        W39587  39.303  15.637  14.803
67273W        W39588   7.776  35.568   2.773
67274W        W39589  25.774  25.464   4.265
67275W        W39590  31.995   7.469  13.740
67276W        W39591   1.989  31.430   1.752
67277W        W39592   6.831  13.580  13.830
67278W        W39593  21.097   3.418  11.673
67279W        W39594  16.390  31.132   1.739
67280W        W39595  38.867   3.401   0.216
67281W        W39596  16.061  17.056  12.021
67282W        W39597  26.375  14.171   0.762
67283W        W39598  17.675  40.600  10.296
67284W        W39599  43.989   8.605  14.020
67285W        W39600   7.767  26.288   5.077
67286W        W39601  44.547  13.110  13.943
67287W        W39602  13.963  20.479  14.813
67288W        W39603  35.164  12.546   3.131
67289W        W39604  33.959  33.119   0.487
67290W        W39605  37.158  12.339   2.689
67291W        W39606  14.348  39.556  12.999
67292W        W39607  41.654   1.983   5.109
67293W        W39608  15.720  10.424   0.276
67294W        W39609  17.642  24.286   3.911
67295W        W39610  23.526   7.225  13.355
67296W        W39611   6.340  15.020   3.442
67297W        W39612  11.704   1.723   1.080
67298W        W39613  28.012  10.301  12.728
67299W        W39614   3.715   2.798  14.259
67300W        W39615  21.505   0.525   3.313
67301W        W39616  29.892  32.657  14.601
67302W        W39617  25.586  16.014  10.683
67303W        W39618  35.588   7.188   4.760
67304W        W39619  22.460  20.503  14.890
67305W        W39620  22.060  32.730   1.933
67306W        W39621  13.693  12.842   4.361
67307W        W39622  36.961  24.116  12.880
67308W        W39623  27.779  42.535  11.163
67309W        W39624  26.595  26.977  13.454
67310W        W39625  17.592  22.089   1.809
67311W        W39626   1.202  15.090  13.147
67312W        W39627  35.524   1.493   4.612
67313W        W39628   3.472  35.167  13.820
67314W        W39629  19.018  21.486   3.224
67315W        W39630  28.842  14.756  12.687
67316W        W39631  25.194  29.613   2.700
67317W        W39632  38.926  32.436   0.401
67318W        W39633   6.861  44.848   2.689
67319W        W39634  44.461  33.888   0.769
67320W        W39635   8.704  16.372   1.897
67321W        W39636  11.487  28.421   3.701
67322W        W39637  30.894  34.908   0.491
67323W        W39638  28.668   7.891   1.606
67324W        W39639  38.297  33.588  14.444
67325W        W39640  38.874  24.962   0.456
67326W        W39641  35.521   4.222   4.584
67327W        W39642  10.239   9.969   3.828
67328W        W39643  29.449  14.271   4.708
67329W        W39644  20.361  24.286   3.805
67330W        W39645  17.240   2.322  10.394
67331W        W39646  31.931  29.110  11.241
67332W        W39647  39.853  39.816  11.211
67333W        W39648  33.885  12.836   1.381
67334W        W39649  11.319  19.814   1.784
67335W        W39650  18.158  11.592  12.625
67336W        W39651   4.040  41.087   3.771
67337W        W39652  27.138  15.599   1.335
67338W        W39653  37.024  27.617   4.762
67339W        W39654  41.274  32.491   0.947
67340W        W39655  26.970  15.844   0.772
67341W        W39656  31.559   9.320  13.081
67342W        W39657  14.667  28.759   2.687
67343W        W39658  21.730  13.807  10.897
67344W        W39659  15.121  44.883   1.726
67345W        W39660  40.044  22.523  14.693
67346W        W39661  43.540  26.093  12.465
67347W        W39662  32.869  41.299  13.931
67348W        W39663  41.254   0.226  11.132
67349W        W39664   5.638  12.265  13.116
67350W        W39665   9.317  42.795   1.729
67351W        W39666   2.332  34.105   4.915
67352W        W39667   5.208   5.281   3.642
67353W        W39668   9.557  32.420   3.160
67354W        W39669  38.410  21.519   5.071
67355W        W39670   9.404  36.677   2.161
67356W        W39671  44.836   9.333  11.445
67357W        W39672  32.866  44.408   4.571
67358W        W39673   5.502  22.712   3.098
67359W        W39674  17.359  24.556   1.277
67360W        W39675   5.684   2.237  11.204
67361W        W39676   7.967   1.881   2.492
67362W        W39677  27.694  17.410  10.569
67363W        W39678  12.703  10.603  11.915
67364W        W39679  38.839   9.280   1.807
67365W        W39680  21.784  20.658   1.791
67366W        W39681  10.192  28.472  13.417
67367W        W39682  10.301  20.102  10.969
67368W        W39683  17.180  41.883  13.047
67369W        W39684  27.633  36.504  13.412
67370W        W39685  42.725  10.845   2.628
67371W        W39686  17.580  31.972   2.824
67372W        W39687  33.855  42.071  10.725
67373W        W39688  35.812   1.349   2.222
67374W        W39689   3.291   3.439   4.593
67375W        W39690   9.034  15.242   3.791
67376W        W39691  35.039  42.992   1.724
67377W        W39692  28.671  15.716  13.949
67378W        W39693  35.312  12.807  13.912
67379W        W39694  13.587  10.400   3.283
67380W        W39695  25.224  38.938   0.810
67381W        W39696   5.874  32.061  14.367
67382W        W39697  37.604  21.216   0.193
67383W        W39698  13.221   2.731  13.246
67384W        W39699   1.706  39.891   3.001
67385W        W39700  25.291  38.030  12.112
67386W        W39701  28.758  17.240   1.298
67387W        W39702  13.744  32.711  12.530
67388W        W39703  44.416  34.426   1.640
67389W        W39704   9.653  38.432   1.787
67390W        W39705  38.867  44.136  11.107
67391W        W39706  42.497   8.810   0.212
67392W        W39707   3.015  23.839  11.437
67393W        W39708  40.347  39.284   2.887
67394W        W39709   7.518  25.168   1.092
67395W        W39710  17.271   7.179   1.366
67396W        W39711  27.765   5.717   1.904
67397W        W39712   6.196  43.872  10.952
67398W        W39713  12.872  17.514  12.427
67399W        W39714   3.228  33.954  13.502
67400W        W39715  18.340  18.157  11.625
67401W        W39716   6.414  19.096   0.133
67402W        W39717  43.899   8.559  12.751
67403W        W39718   0.826  22.643   1.254
67404W        W39719   8.954  22.949  14.689
67405W        W39720  22.566  43.007   1.246
67406W        W39721  21.567  40.530   0.344
67407W        W39722   1.744  14.948  11.999
67408W        W39723   4.888  19.572  14.956
67409W        W39724  30.186  28.575  10.987
67410W        W39725  10.680  29.521  11.004
67411W        W39726  25.637  16.341   0.396
67412W        W39727  12.530   0.544  13.468
67413W        W39728  23.013  29.419   3.552
67414W        W39729   7.797  24.713   3.697
67415W        W39730  25.595  12.068  11.528
67416W        W39731  35.943  32.330   0.976
67417W        W39732  12.155  37.793   3.629
67418W        W39733  31.723  35.916   1.856
67419W        W39734  11.493  14.359  13.361
67420W        W39735   8.917  36.864  14.580
67421W        W39736  20.490  14.482  12.205
67422W        W39737   8.866  11.425  14.376
67423W        W39738  23.998  21.736   0.446
67424W        W39739  10.760  42.010  10.868
67425W        W39740  43.079   0.489  11.718
67426W        W39741  41.146   8.752   3.638
67427W        W39742  23.252  22.313   5.443
67428W        W39743  40.620  37.499   2.644
67429W        W39744  20.789  43.779  14.752
67430W        W39745   0.730   7.325  10.712
67431W        W39746  36.197  29.725   4.269
67432W        W39747  12.402  29.572  12.412
67433W        W39748  35.312  40.874   4.771
67434W        W39749   3.424  13.667  12.999
67435W        W39750   1.236  39.318   4.496
67436W        W39751   9.382  23.169   4.062
67437W        W39752  36.830   1.383  11.730
67438W        W39753  21.207  23.578  13.081
67439W        W39754  21.816  44.981  12.103
67440W        W39755  27.212  28.233   3.932
67441W        W39756   5.315  41.031  12.479
67442W        W39757  13.174  10.887   4.070
67443W        W39758  15.577  13.945  10.644
67444W        W39759  16.120  26.568  14.942
67445W        W39760   6.422   6.920   9.851
67446W        W39761  13.789   8.173   4.907
67447W        W39762  29.656   1.696   4.696
67448W        W39763  39.804  34.409   3.665
67449W        W39764  33.139   4.767   1.252
67450W        W39765   8.811  19.309  11.993
67451W        W39766  29.124  31.062   4.225
67452W        W39767  38.110  39.808  11.102
67453W        W39768  29.981  38.958   0.101
67454W        W39769  16.007  34.808   4.646
67455W        W39770  16.160  25.983   1.229
67456W        W39771   7.300   1.693   1.223
67457W        W39772  31.730  43.090  12.926
67458W        W39773  23.506  17.799   0.399
67459W        W39774   2.967   7.664   4.383
67460W        W39775  32.502  15.572  13.481
67461W        W39776  24.062  41.218   4.553
67462W        W39777  31.910  13.815   4.055
67463W        W39778  25.172  13.721   1.266
67464W        W39779  22.681  36.607   2.296
67465W        W39780   3.999   6.605  11.257
67466W        W39781  10.230  24.516  10.668
67467W        W39782  14.028  24.796  10.530
67468W        W39783  40.830  13.715   4.340
67469W        W39784   8.262  20.149  12.797
67470W        W39785   2.678  28.033   4.466
67471W        W39786  19.460  33.175   2.488
67472W        W39787  23.665  40.051   4.473
67473W        W39788   6.665  41.065   2.326
67474W        W39789  30.856  41.266   1.823
67475W        W39790   5.732  13.626  11.207
67476W        W39791  19.317  16.163   0.786
67477W        W39792  28.230  26.410  12.435
67478W        W39793  18.724   5.229  10.686
67479W        W39794  17.318  19.532  13.943
67480W        W39795  26.007  21.302  11.867
67481W        W39796  27.930   2.640   4.916
67482W        W39797  11.437  27.396  13.473
67483W        W39798  19.087  12.952  10.507
67484W        W39799  12.906  27.924   3.031
67485W        W39800  16.780  25.157   4.269
67486W        W39801  32.854  29.399   4.161
67487W        W39802   3.168  19.673  14.268
67488W        W39803   1.316  29.962  11.601
67489W        W39804  12.501  17.661   9.971
67490W        W39805   2.802  14.256   1.290
67491W        W39806  40.066   2.823  11.968
67492W        W39807  25.331  35.065  14.047
67493W        W39808  44.548  39.086  14.854
67494W        W39809  17.107  15.184   3.732
67495W        W39810  12.844  43.723   0.469
67496W        W39811   7.382  27.596   0.131
67497W        W39812  20.719   6.616  12.947
67498W        W39813   1.939  40.792   2.850
67499W        W39814  33.966   9.001   5.082
67500W        W39815  18.104  10.177  12.939
67501W        W39816  35.032  11.221  13.828
67502W        W39817  30.983  43.053   3.335
67503W        W39818  19.118  33.104  12.476
67504W        W39819  42.956  10.385   2.895
67505W        W39820  17.012  24.994  12.080
67506W        W39821  20.507   2.675  11.996
67507W        W39822   5.236  24.611  14.784
67508W        W39823  11.711  39.142  13.142
67509W        W39824  36.767  32.950   4.736
67510W        W39825  37.592  21.852   4.661
67511W        W39826  30.995  20.297   2.733
67512W        W39827  40.247  24.569   0.396
67513W        W39828  13.956  10.776   3.108
67514W        W39829  23.081  30.324   2.604
67515W        W39830  38.111  33.416  10.207
67516W        W39831   3.193  44.376   2.912
67517W        W39832  36.442  29.192   0.644
67518W        W39833  35.820  37.150  13.557
67519W        W39834   2.464  40.492   1.059
67520W        W39835  40.578  40.636   3.148
67521W        W39836  31.237  19.580  12.070
67522W        W39837   9.244  29.374  11.287
67523W        W39838  38.008   9.425  13.413
67524W        W39839  23.569   8.145   4.109
67525W        W39840   3.712  18.165   1.177
67526W        W39841  40.871   6.649   1.920
67527W        W39842  21.048  44.925  13.811
67528W        W39843  23.304  29.643  10.718
67529W        W39844  31.136  37.075  10.572
67530W        W39845  34.528  34.772  10.673
67531W        W39846  12.955   8.163  13.070
67532W        W39847  42.043  39.331  12.001
67533W        W39848  42.466  18.079   2.770
67534W        W39849  27.455  34.123  10.253
67535W        W39850  23.744  39.419   0.558
67536W        W39851  40.785   7.222   1.187
67537W        W39852  38.487   7.180  13.851
67538W        W39853  16.220  29.035   0.738
67539W        W39854  28.408  35.824  13.041
67540W        W39855  20.380  42.360  14.271
67541W        W39856   0.651  44.886  12.367
67542W        W39857  19.179  10.470  13.999
67543W        W39858  43.457  23.648   2.844
67544W        W39859  27.214  16.576   1.794
67545W        W39860   0.535   7.161  12.057
67546W        W39861  10.929  41.788  14.977
67547W        W39862  23.542  11.032   1.120
67548W        W39863   1.276  30.020  14.115
67549W        W39864   1.819   8.298  13.931
67550W        W39865  30.247  31.537  13.822
67551W        W39866  38.969   6.945  13.790
67552W        W39867  19.317  38.448   3.188
67553W        W39868   9.321  25.681   4.466
67554W        W39869  28.279  22.596   0.987
67555W        W39870  26.018  27.236   0.790
67556W        W39871  18.850  19.687   4.278
67557W        W39872  12.253  18.888  12.884
67558W        W39873  16.369  15.384   3.214
67559W        W39874  36.500  30.399  10.939
67560W        W39875  15.296  22.706  12.930
67561W        W39876  43.724   9.186   1.312
67562W        W39877   4.844   1.959  13.017
67563W        W39878  24.144   6.302   0.216
67564W        W39879  39.274  32.395   0.794
67565W        W39880  33.843   6.191  11.523
67566W        W39881  32.917  22.666   3.535
67567W        W39882  39.439  30.839   0.368
67568W        W39883  19.712  12.976  11.128
67569W        W39884  11.178  22.629  14.335
67570W        W39885  18.458   7.747  13.014
67571W        W39886   3.283   5.133   1.145
67572W        W39887  16.524  18.697  14.931
67573W        W39888  43.513  20.749   3.198
67574W        W39889  10.260  21.699   4.063
67575W        W39890  43.521  43.083  13.491
67576W        W39891  38.256  10.931   0.701
67577W        W39892  10.822  29.136  14.308
67578W        W39893  22.745  16.987  11.954
67579W        W39894  12.401  44.277  11.681
67580W        W39895  31.442  28.035  10.642
67581W        W39896  10.860  39.809   1.355
67582W        W39897  44.903  39.592   4.645
67583W        W39898  15.307   7.251  10.411
67584W        W39899  31.070  28.550   4.412
67585W        W39900  43.939  43.732   4.099
67586W        W39901   6.028  36.922   4.898
67587W        W39902  36.422  24.146   3.907
67588W        W39903  30.453  29.757   3.793
67589W        W39904  12.143   3.325  13.367
67590W        W39905   7.585  40.068  14.291
67591W        W39906  23.420  11.058   0.613
67592W        W39907  38.359  10.640   2.932
67593W        W39908  17.708   3.013   4.689
67594W        W39909  38.387   9.243  14.860
67595W        W39910  20.413  14.419  11.052
67596W        W39911  38.587   9.197   1.332
67597W        W39912  34.607  26.686   0.884
67598W        W39913  27.328   7.394  10.946
67599W        W39914  33.977  18.301  12.618
67600W        W39915  35.572  10.656  14.466
67601W        W39916  14.264  37.509  11.032
67602W        W39917  30.977  24.135   0.823
67603W        W39918   8.600   5.958  14.135
67604W        W39919  44.426  20.952   2.302
67605W        W39920  29.212  33.685   5.428
67606W        W39921  32.041  42.919  10.768
67607W        W39922   2.377  22.754   3.051
67608W        W39923  12.563  29.105   4.389
67609W        W39924   6.664  16.726  14.563
67610W        W39925  43.254   7.644  14.015
67611W        W39926  43.829   8.882   0.897
67612W        W39927  19.129  38.723  13.290
67613W        W39928  10.798  16.394   4.589
67614W        W39929  44.814  39.902  14.247
67615W        W39930  36.557  31.737  12.162
67616W        W39931  12.306  22.143   4.194
67617W        W39932  33.158  28.967   4.455
67618W        W39933  26.004  28.011   0.281
67619W        W39934  41.256  24.660   3.857
67620W        W39935   9.206  20.251   3.625
67621W        W39936  37.908  44.850  12.328
67622W        W39937  11.884  32.551  10.714
67623W        W39938  12.236   1.190   0.361
67624W        W39939  39.080  34.744   0.885
67625W        W39940  17.144  16.863   0.899
67626W        W39941  16.935  40.685   1.332
67627W        W39942   4.713  42.780   4.993
67628W        W39943   0.434  12.150  12.163
67629W        W39944  23.535  30.897   4.616
67630W        W39945  20.092  11.324  14.991
67631W        W39946  23.810  19.090  10.631
67632W        W39947   9.924  28.469  13.865
67633W        W39948  20.500  26.208   0.055
67634W        W39949  22.108  19.054  13.455
67635W        W39950  12.573  27.113   2.570
67636W        W39951  23.625  35.895  10.695
67637W        W39952  44.917  36.201  13.589
67638W        W39953  44.802  18.151  14.449
67639W        W39954  10.155  28.644  14.860
67640W        W39955  38.710  41.705   3.837
67641W        W39956   0.576  44.707   0.321
67642W        W39957   3.413  29.001  11.629
67643W        W39958   2.122  28.606  10.866
67644W        W39959  43.101  16.237  14.799
67645W        W39960  26.510  31.077  13.635
67646W        W39961   3.578  17.865   4.505
67647W        W39962  18.161   3.759  11.501
67648W        W39963  29.190  15.331   1.806
67649W        W39964  43.498  34.012   0.770
67650W        W39965   4.836   0.994  14.625
67651W        W39966  27.647   4.446  13.333
67652W        W39967  20.424  40.514   3.847
67653W        W39968  20.749   4.691  14.790
67654W        W39969  42.731  30.091   2.995
67655W        W39970  42.620  38.789   0.841
67656W        W39971  42.997  30.518  12.911
67657W        W39972   2.393  44.521  12.908
67658W        W39973  19.947  40.026  14.270
67659W        W39974  28.579  37.767  11.168
67660W        W39975  43.479  42.903  10.668
67661W        W39976  24.998  17.721   2.375
67662W        W39977  27.886  17.690  12.883
67663W        W39978  12.329  25.207  10.570
67664W        W39979  29.642  18.575  14.932
67665W        W39980  30.114  21.421  14.262
67666W        W39981  12.626  35.113  14.838
67667W        W39982  31.931  37.353   1.984
67668W        W39983  18.802  32.611  13.592
67669W        W39984   4.472  26.480   3.753
67670W        W39985  15.844  34.114  13.492
67671W        W39986   8.924  14.134  14.808
67672W        W39987  20.710  40.413   2.200
67673W        W39988  36.542  20.121   2.821
67674W        W39989  42.336   7.178   0.893
67675W        W39990   8.367  20.148  11.014
67676W        W39991   0.980  36.557  13.932
67677W        W39992   9.346  34.284  12.385
67678W        W39993  43.520   8.343  13.949
67679W        W39994  19.072   4.967  12.777
67680W        W39995  41.194  17.285   1.724
67681W        W39996   5.767   2.868   3.586
67682W        W39997  35.447  18.769  13.268
67683W        W39998   1.354  24.291  12.870
67684W        W39999  19.791  36.026   2.218
67685W        W40000  17.233  44.414   4.572
67686W        W40001  14.653  17.597  11.106
67687W        W40002  39.259   4.390   1.714
67688W        W40003  24.899   6.508   4.277
67689W        W40004  22.379  26.118  13.380
67690W        W40005  26.198  17.832   0.697
67691W        W40006   6.652   7.292  13.131
67692W        W40007  37.579   2.700  10.580
67693W        W40008  22.285  33.415   4.135
67694W        W40009  33.943  38.182  12.578
67695W        W40010   6.361   4.812   1.991
67696W        W40011   0.708  19.887   4.462
67697W        W40012  36.746  21.308  11.549
67698W        W40013  33.638  24.568  11.191
67699W        W40014  41.286  44.418   4.035
67700W        W40015  19.173   9.640   2.444
67701W        W40016  27.779  10.344  11.223
67702W        W40017  44.769  20.554   2.470
67703W        W40018   6.729  32.090  14.813
67704W        W40019  18.292   1.271   4.815
67705W        W40020  40.240  32.168   4.186
67706W        W40021  39.006  23.913  11.182
67707W        W40022  13.271  30.311  12.994
67708W        W40023  15.361  37.404  13.965
67709W        W40024  17.660   8.657  14.396
67710W        W40025  30.928  32.914  10.977
67711W        W40026  13.650  25.768   2.720
67712W        W40027   2.318  28.148   2.269
67713W        W40028   5.297  31.143  12.392
67714W        W40029  30.854   3.136   0.812
67715W        W40030  24.191  44.733   4.650
67716W        W40031  25.440  21.080  12.274
67717W        W40032   7.903  21.615  14.503
67718W        W40033  18.057  16.319   2.702
67719W        W40034  17.463  31.113  12.615
67720W        W40035  44.537   4.933  11.413
67721W        W40036  34.353  17.065   1.546
67722W        W40037  36.328   3.203  13.503
67723W        W40038  36.199  11.592  12.078
67724W        W40039   3.979  36.957  11.457
67725W        W40040   1.250   4.648  12.636
67726W        W40041   0.061  38.002  14.363
67727W        W40042  29.930   9.676  14.272
67728W        W40043  12.334  31.957  10.993
67729W        W40044  35.100  29.084   4.149
67730W        W40045   3.156  16.363   1.670
67731W        W40046   6.684  19.043  13.918
67732W        W40047  37.306  32.571   1.881
67733W        W40048   8.020  35.655   0.096
67734W        W40049  19.258  26.535   3.137
67735W        W40050  23.102  37.161  13.962
67736W        W40051  39.480  12.659  10.759
67737W        W40052  35.495  30.573  13.324
67738W        W40053  17.708  24.603   4.316
67739W        W40054   8.936  18.640   3.151
67740W        W40055  36.414  33.156   0.829
67741W        W40056   1.348  41.156  11.559
67742W        W40057   7.337  38.085  14.060
67743W        W40058  44.423  21.752  11.561
67744W        W40059  13.798   1.737   0.392
67745W        W40060   3.401  26.716   2.214
67746W        W40061  22.982  16.077   1.325
67747W        W40062   6.859  44.095   5.044
67748W        W40063  43.324  22.231  11.178
67749W        W40064  18.110  14.215   1.114
67750W        W40065  26.670  34.120  13.062
67751W        W40066  27.485  10.613   5.005
67752W        W40067  10.650  26.093  14.892
67753W        W40068  36.215  32.389  10.789
67754W        W40069  20.845   9.119   0.826
67755W        W40070   7.153  24.757  12.099
67756W        W40071  22.570  11.838  14.277
67757W        W40072  23.790  22.015  12.520
67758W        W40073  40.903  28.421   1.806
67759W        W40074   0.411   6.896  10.713
67760W        W40075   3.303  41.414   4.067
67761W        W40076  43.230  10.568   4.937
67762W        W40077   3.818   9.363  12.042
67763W        W40078  43.467   6.222   1.258
67764W        W40079  41.825  38.755  11.085
67765W        W40080  32.448   9.253  11.545
67766W        W40081  14.194  42.318  10.769
67767W        W40082  10.675   4.219  14.368
67768W        W40083  31.481  29.564   0.991
67769W        W40084  37.396  44.028   0.492
67770W        W40085  42.595   4.695  12.825
67771W        W40086  13.592  13.641  13.800
67772W        W40087  11.915  19.064   3.381
67773W        W40088  27.597   8.963  13.991
67774W        W40089  35.594  19.119  14.847
67775W        W40090  44.585  43.591   2.270
67776W        W40091  27.797   0.747   2.857
67777W        W40092  39.054   4.007   4.105
67778W        W40093  38.601  44.914   1.696
67779W        W40094  38.445  42.609   2.366
67780W        W40095  37.887  24.654  12.392
67781W        W40096  29.554  31.711  10.129
67782W        W40097   3.267   8.322  11.528
67783W        W40098  12.759   2.042  13.349
67784W        W40099  18.011  12.329  12.478
67785W        W40100  11.533  17.247  12.450
67786W        W40101  10.804  10.255   0.237
67787W        W40102  44.643  22.307   2.253
67788W        W40103  24.270  40.911  14.906
67789W        W40104  35.845  14.747   2.391
67790W        W40105  33.863   9.104  11.153
67791W        W40106  42.276   7.238  11.843
67792W        W40107  40.366   1.762  10.676
67793W        W40108  34.437  28.607  12.473
67794W        W40109  30.413  32.485   1.424
67795W        W40110  17.272   2.421   1.412
67796W        W40111  36.156  20.217  11.319
67797W        W40112  11.263  36.870   4.061
67798W        W40113  26.988   2.798  13.510
67799W        W40114  33.929  31.861   0.004
67800W        W40115  23.273  19.170  10.608
67801W        W40116  21.680  10.344   0.254
67802W        W40117   3.403  18.212  14.314
67803W        W40118  40.413   5.766   3.252
67804W        W40119  19.196  42.287   0.339
67805W        W40120   1.848  36.429  12.382
67806W        W40121   4.606  13.861   0.843
67807W        W40122   8.497   2.890   3.202
67808W        W40123  15.749  11.933  10.159
67809W        W40124  22.585  24.001  14.444
67810W        W40125  10.260  32.524   2.885
67811W        W40126  23.066  33.398  13.743
67812W        W40127  33.821   4.857   2.264
67813W        W40128  41.351   2.043   1.263
67814W        W40129   2.743  23.881  14.256
67815W        W40130   1.559   0.868  11.576
67816W        W40131  24.710   5.246  14.460
67817W        W40132  11.643   3.461   1.849
67818W        W40133   8.313   9.396   3.880
67819W        W40134  37.733  44.112   4.237
67820W        W40135  10.341  37.175   4.072
67821W        W40136   6.259  14.311   2.254
67822W        W40137  34.443  31.343  13.344
67823W        W40138   7.103   2.255   2.761
67824W        W40139  37.314  23.925   5.138
67825W        W40140  17.182  29.295  11.241
67826W        W40141  37.609  28.074   3.739
67827W        W40142   3.954  16.557  10.970
67828W        W40143   9.709   2.914   2.055
67829W        W40144  27.197  15.248   2.316
67830W        W40145  44.568  37.991  14.511
67831W        W40146   5.208  39.479  13.263
67832W        W40147  11.926  40.772   2.279
67833W        W40148  35.573  22.537  10.457
67834W        W40149  19.138  14.932  12.404
67835W        W40150   5.041  37.006   0.831
67836W        W40151   8.668  10.605  12.898
67837W        W40152  27.775   5.910   5.596
67838W        W40153  15.120  41.435   3.345
67839W        W40154  16.926  23.593   3.831
67840W        W40155  32.575  27.945   1.814
67841W        W40156  43.329  14.047   3.768
67842W        W40157  18.212  19.750  13.370
67843W        W40158  21.533  21.730  11.891
67844W        W40159   4.430   2.067   0.387
67845W        W40160  31.787  32.064  12.410
67846W        W40161  11.788  10.743  14.129
67847W        W40162  44.085  11.164  12.881
67848W        W40163  16.347  10.642  12.972
67849W        W40164   2.821  44.044   2.801
67850W        W40165  15.038  42.776   3.708
67851W        W40166   4.285   6.170  14.233
67852W        W40167  17.896  41.035  11.154
67853W        W40168  44.016  15.825   1.375
67854W        W40169  22.096   3.393   2.234
67855W        W40170  34.012  14.217  12.674
67856W        W40171  36.487  12.521  14.397
67857W        W40172   5.638  12.931  14.954
67858W        W40173  14.810  31.604  11.151
67859W        W40174  35.503  42.082   0.443
67860W        W40175   9.652  22.135  11.539
67861W        W40176  23.132   5.770  12.574
67862W        W40177   4.201  32.998   2.623
67863W        W40178  29.369  27.393  12.819
67864W        W40179  18.876  42.288  10.747
67865W        W40180  36.823  31.043  13.459
67866W        W40181   7.252  26.707  13.059
67867W        W40182  10.684  19.034  13.855
67868W        W40183   1.021  38.604   4.010
67869W        W40184  16.351  11.550  12.587
67870W        W40185  17.491  14.369   4.739
67871W        W40186  30.892  19.120  12.875
67872W        W40187   2.203   7.276  10.276
67873W        W40188  38.079  36.343   3.205
67874W        W40189  26.159  44.185   1.653
67875W        W40190  42.608  42.854  11.835
67876W        W40191  40.016   0.969  11.689
67877W        W40192  34.305  11.790   3.827
67878W        W40193  29.351  23.429   2.761
67879W        W40194  44.894  42.519   3.894
67880W        W40195  29.413  37.559   0.003
67881W        W40196  24.014  20.126  14.224
67882W        W40197   4.874  34.648   4.546
67883W        W40198  38.992   7.864  12.028
67884W        W40199  19.223  20.228   0.991
67885W        W40200  40.650   6.381   1.072
67886W        W40201   6.651  31.341  12.521
67887W        W40202   4.910  37.524  12.113
67888W        W40203  43.236  28.151   0.773
67889W        W40204   6.285  27.224  13.811
67890W        W40205  16.255  18.130  10.714
67891W        W40206  21.323  42.352  13.604
67892W        W40207  28.481   1.293  10.458
67893W        W40208  18.736   6.185   4.210
67894W        W40209  38.088  33.638   0.524
67895W        W40210  27.433  18.139  11.135
67896W        W40211   6.323  24.971  11.637
67897W        W40212  40.142  27.152  11.033
67898W        W40213  30.522  39.353   1.774
67899W        W40214  25.899  31.489  14.969
67900W        W40215  39.932  20.221   1.655
67901W        W40216  44.167   9.826  12.988
67902W        W40217  34.319  17.582   1.722
67903W        W40218  33.867  38.127   2.280
67904W        W40219  18.119  20.463   1.275
67905W        W40220  16.851  15.624  14.246
67906W        W40221  19.884  39.461  11.527
67907W        W40222  11.883  19.231  10.485
67908W        W40223  22.684  18.696  14.471
67909W        W40224  18.408   8.741   9.656
67910W        W40225  16.703  33.439   1.732
67911W        W40226  12.274   8.783  13.465
67912W        W40227  42.878  14.290   0.680
67913W        W40228  23.106  15.662   2.991
67914W        W40229  40.401  20.672   0.432
67915W        W40230   6.326  31.590  10.827
67916W        W40231  35.232  17.258   2.075
67917W        W40232  37.892  33.415  10.716
67918W        W40233  20.037  34.826   4.090
67919W        W40234   8.755  41.933  13.139
67920W        W40235  32.563  21.599  12.895
67921W        W40236  32.020  38.744  14.855
67922W        W40237  18.492  39.368   2.842
67923W        W40238  38.592   9.671  12.518
67924W        W40239  34.482  38.028  12.589
67925W        W40240  19.129  31.247   4.174
67926W        W40241  23.087  33.415  11.017
67927W        W40242   3.872  31.214   2.732
67928W        W40243  27.988  17.053   2.351
67929W        W40244  42.918  31.215   4.325
67930W        W40245  26.177   1.927  10.741
67931W        W40246  36.680  10.313   4.023
67932W        W40247   6.434  22.737   1.732
67933W        W40248   5.873   1.204  13.411
67934W        W40249  17.349   1.418  10.958
67935W        W40250  25.611  20.136  11.477
67936W        W40251  43.836   8.403  13.250
67937W        W40252  30.670  14.843   1.317
67938W        W40253  38.531  40.977  10.660
67939W        W40254   1.335   3.955   2.690
67940W        W40255  37.529  10.467  13.420
67941W        W40256   9.718  35.372  13.040
67942W        W40257   6.288  25.176  13.965
67943W        W40258  20.563  23.347   2.810
67944W        W40259  37.058  23.473   4.526
67945W        W40260  16.656   6.032  12.968
67946W        W40261  15.261   0.849  12.924
67947W        W40262  13.045  11.337  12.403
67948W        W40263  20.692   6.175   1.739
67949W        W40264  25.722   8.109   1.447
67950W        W40265  35.610  31.394   3.050
67951W        W40266   5.602  42.758  14.727
67952W        W40267  14.048   4.532   0.362
67953W        W40268  22.562  44.837   2.872
67954W        W40269  35.024  15.090   1.540
67955W        W40270  17.056   6.253   2.867
67956W        W40271   5.636  14.587  11.575
67957W        W40272  43.597  16.187  14.795
67958W        W40273  26.464  18.658  11.878
67959W        W40274  20.394  39.264  11.553
67960W        W40275   5.262   0.344   3.184
67961W        W40276  42.732   9.486   2.617
67962W        W40277  22.225  12.424  14.470
67963W        W40278  26.503  27.295  13.008
67964W        W40279  22.182  21.728  11.147
67965W        W40280  35.269  12.738  12.572
67966W        W40281   3.893  38.329  11.554
67967W        W40282  34.945  40.284   1.428
67968W        W40283  43.579  17.029   2.178
67969W        W40284  24.010  23.417   3.866
67970W        W40285   8.352   1.062   4.598
67971W        W40286   0.052  12.754   2.271
67972W        W40287  28.359  14.660   2.775
67973W        W40288  36.915  32.507  12.635
67974W        W40289  36.471  21.260  11.967
67975W        W40290  26.451  12.367  11.087
67976W        W40291  33.532  34.598  13.389
67977W        W40292  17.780  41.377   9.826
67978W        W40293  13.762   4.341   4.061
67979W        W40294  39.286  38.520  10.664
67980W        W40295  19.012  25.510  11.462
67981W        W40296   8.717  41.447   4.664
67982W        W40297  42.460  34.137   4.418
67983W        W40298  22.588  29.144   3.134
67984W        W40299  38.079  21.743   4.546
67985W        W40300  43.746  29.731   3.940
67986W        W40301  40.294  43.133   1.175
67987W        W40302   7.842  27.203  10.523
67988W        W40303  35.519   9.131   3.443
67989W        W40304  12.944  11.283   3.725
67990W        W40305  21.674  43.880   4.190
67991W        W40306  44.936   2.271  13.315
67992W        W40307  30.078  17.833  10.581
67993W        W40308   3.301  36.410   4.907
67994W        W40309  12.352  21.345  14.036
67995W        W40310  12.286   9.160  11.119
67996W        W40311  39.426   6.430  14.354
67997W        W40312  22.431  30.542   1.146
67998W        W40313  43.050  17.281   1.342
67999W        W40314  11.899   0.750   0.947
68000W        W40315  37.886  22.538   0.283
68001W        W40316  44.923  21.197  11.906
68002W        W40317  25.456  24.180   3.557
68003W        W40318   5.686  34.537  10.796
68004W        W40319  31.407  24.208  11.241
68005W        W40320  41.179  31.955  11.976
68006W        W40321   0.761  28.832  13.928
68007W        W40322  31.424  40.916   2.366
68008W        W40323   1.419  44.927  13.035
68009W        W40324  44.942  37.798   4.965
68010W        W40325  28.905  31.940  12.044
68011W        W40326  27.579  41.905   3.568
68012W        W40327   9.254  37.784   3.719
68013W        W40328  27.892  11.524   3.691
68014W        W40329  38.344   6.496  12.214
68015W        W40330   1.817   9.375   1.986
68016W        W40331  44.254  12.623   2.792
68017W        W40332  15.197  10.871  11.491
68018W        W40333  27.867  27.029   1.395
68019W        W40334  18.458  35.973   0.315
68020W        W40335  22.495  40.366   0.218
68021W        W40336   3.772  13.545  12.490
68022W        W40337  40.790  23.811   3.676
68023W        W40338  28.707   7.214  13.511
68024W        W40339  38.870   3.030   4.389
68025W        W40340  24.185   4.335  11.214
68026W        W40341  18.745  12.328   4.628
68027W        W40342  28.576  41.350  10.980
68028W        W40343  14.839  14.353  13.565
68029W        W40344  41.438  24.384   3.210
68030W        W40345  11.072  30.461   0.417
68031W        W40346  31.686  32.475  14.923
68032W        W40347   0.435  11.652  14.457
68033W        W40348   8.357   8.077   2.478
68034W        W40349  44.970  20.312  10.748
68035W        W40350   6.337  37.553  12.147
68036W        W40351  25.049  16.474   1.368
68037W        W40352  17.153   2.315   4.555
68038W        W40353  37.563  25.533   1.708
68039W        W40354   3.147  35.577   0.734
68040W        W40355  17.324  18.224   2.870
68041W        W40356  11.199  36.847   4.574
68042W        W40357  15.319  42.616  10.670
68043W        W40358  17.371  21.044   2.729
68044W        W40359  42.522  20.984  13.482
68045W        W40360  26.569  39.880  10.654
68046W        W40361  39.865  18.691   0.294
68047W        W40362  21.653  33.467   2.734
68048W        W40363   1.819   5.410   4.406
68049W        W40364  17.032  18.798  12.628
68050W        W40365   1.328  21.460   1.366
68051W        W40366  15.507  33.200  13.239
68052W        W40367  34.104  13.211   3.624
68053W        W40368  19.279  37.358  14.818
68054W        W40369  26.477  11.183  14.408
68055W        W40370  43.970  36.034  13.298
68056W        W40371   7.947  19.439  11.632
68057W        W40372  22.075   6.914  10.965
68058W        W40373   7.469  22.977  11.583
68059W        W40374  41.297  11.131   0.245
68060W        W40375  18.255   8.635   0.468
68061W        W40376  14.565  24.181  11.475
68062W        W40377  30.902   7.385  14.897
68063W        W40378  42.666  39.285  13.345
68064W        W40379  25.252  31.741  10.723
68065W        W40380  23.150  20.635   1.763
68066W        W40381   7.772  21.038   0.469
68067W        W40382   8.594  11.454   1.396
68068W        W40383   8.171  11.242  11.203
68069W        W40384  16.835  33.108   3.110
68070W        W40385  34.938   1.383  11.476
68071W        W40386  16.483  31.627  13.871
68072W        W40387  23.641  33.072  10.399
68073W        W40388  36.908  24.619  12.747
68074W        W40389  36.514  36.197   1.104
68075W        W40390  42.525  13.070   2.800
68076W        W40391  29.038  32.488  12.286
68077W        W40392  18.149  25.687  11.991
68078W        W40393   8.371  24.636  10.706
68079W        W40394  42.548  42.638   3.195
68080W        W40395   5.872   3.910   2.197
68081W        W40396  23.615  34.135  12.850
68082W        W40397  35.872  36.631  13.517
68083W        W40398   5.349  34.277   5.031
68084W        W40399  17.787   5.910  13.112
68085W        W40400  43.962  18.127  10.557
68086W        W40401  12.202  43.477   4.599
68087W        W40402   0.056  28.111  11.613
68088W        W40403   8.454  17.519   2.300
68089W        W40404  43.795  20.788   1.301
68090W        W40405  39.522  28.189   3.623
68091W        W40406  42.513  29.723  14.933
68092W        W40407  13.165  16.064  12.561
68093W        W40408  42.413   6.937  11.392
68094W        W40409  24.715  34.130   4.564
68095W        W40410  22.908  15.182  12.730
68096W        W40411  31.925  35.308  14.949
68097W        W40412  18.421   6.959  14.549
68098W        W40413  42.399  13.094   3.811
68099W        W40414   1.226   7.674   2.070
68100W        W40415   7.020   3.026   4.083
68101W        W40416  13.247  28.096   1.286
68102W        W40417  43.043  31.841   2.824
68103W        W40418  29.872  14.361   4.985
68104W        W40419  40.578  17.818  14.941
68105W        W40420  18.070  24.178   3.187
68106W        W40421  36.655   5.788  13.468
68107W        W40422   4.457   3.663   2.711
68108W        W40423  39.448  29.865  12.526
68109W        W40424  38.564  39.442   1.349
68110W        W40425   6.737  42.901   4.123
68111W        W40426  36.989  31.789  13.967
68112W        W40427  28.060  18.970  11.130
68113W        W40428  13.139  38.057   3.200
68114W        W40429  16.504  43.080  14.098
68115W        W40430  32.694  39.196   2.678
68116W        W40431  32.353  35.345   2.757
68117W        W40432  26.084  19.232   2.692
68118W        W40433  10.113  31.134   1.950
68119W        W40434  44.467  32.382  11.569
68120W        W40435  41.358   8.930  11.516
68121W        W40436  29.643   4.843   4.613
68122W        W40437   5.884  24.865  13.950
68123W        W40438  38.295   9.598   2.562
68124W        W40439  21.942  35.530  12.947
68125W        W40440   4.869  13.096   1.745
68126W        W40441   5.718   5.121   2.782
68127W        W40442  36.239  16.510   0.804
68128W        W40443   5.828   1.952   1.812
68129W        W40444   8.672  22.595   5.011
68130W        W40445   6.942  30.502   5.003
68131W        W40446  10.765  30.964   1.097
68132W        W40447   2.422  17.751   4.502
68133W        W40448  14.291  43.261  10.694
68134W        W40449  26.986  28.993   2.429
68135W        W40450   3.589  20.977   3.272
68136W        W40451  25.701  13.089  10.772
68137W        W40452   1.463   7.298  10.913
68138W        W40453  34.587   3.559  11.266
68139W        W40454  36.625  39.617  11.063
68140W        W40455  27.397  41.353  13.990
68141W        W40456   0.446  37.349  13.965
68142W        W40457   7.872  20.458  13.324
68143W        W40458  17.053  19.108   3.079
68144W        W40459  12.624  19.816  12.999
68145W        W40460   5.771  23.290   4.646
68146W        W40461  34.760  13.810   2.706
68147W        W40462  36.447  14.320   2.917
68148W        W40463  15.276  14.501   1.733
68149W        W40464  10.223   2.562  13.005
68150W        W40465   7.393  38.303   4.113
68151W        W40466  42.807   0.848   4.909
68152W        W40467  39.111  43.566   3.806
68153W        W40468  21.585   7.109  11.013
68154W        W40469  35.171  39.564   2.390
68155W        W40470   5.101   6.152   0.309
68156W        W40471  38.492  40.290   2.778
68157W        W40472  44.339  15.225   3.249
68158W        W40473  27.082  17.187  14.603
68159W        W40474  19.671  41.798  13.252
68160W        W40475  24.130  33.111   4.589
68161W        W40476  44.750  22.580  13.786
68162W        W40477  19.014   5.083   1.400
68163W        W40478   7.232   7.385   4.899
68164W        W40479  38.450  42.263  12.025
68165W        W40480  19.230  37.680   4.246
68166W        W40481   1.721  18.662  12.038
68167W        W40482   1.744  23.155   4.334
68168W        W40483  30.602  39.626   1.343
68169W        W40484   0.510  33.364   5.665
68170W        W40485  32.671  20.923   5.391
68171W        W40486   4.126   1.397   2.274
68172W        W40487  40.315   9.693  11.570
68173W        W40488  43.157  15.325   4.136
68174W        W40489  35.377  25.881   3.675
68175W        W40490   2.990  20.702  11.822
68176W        W40491  35.545   4.782   2.308
68177W        W40492   9.838  37.804   4.391
68178W        W40493  27.513  31.489   5.517
68179W        W40494  19.534   5.094  11.513
68180W        W40495  13.497  35.000   2.635
68181W        W40496  33.617  39.483   3.364
68182W        W40497  39.786  24.620   1.424
68183W        W40498  17.207  31.087   4.120
68184W        W40499  42.961  20.996   9.928
68185W        W40500  42.745   8.279  11.058
68186W        W40501  39.609  21.152   2.204
68187W        W40502   4.278  30.138  12.604
68188W        W40503  22.709   9.621  14.855
68189W        W40504  13.976  15.995   1.807
68190W        W40505  26.230  44.539  14.835
68191W        W40506  11.202  30.866  12.452
68192W        W40507  40.575  11.307  11.452
68193W        W40508  17.309  17.839   0.654
68194W        W40509  44.470  18.007   2.703
68195W        W40510  22.036  43.876   2.444
68196W        W40511   0.817  31.884   3.319
68197W        W40512   6.178   0.199  11.708
68198W        W40513  10.639  34.108   4.580
68199W        W40514  41.958   7.414   2.313
68200W        W40515  17.592  18.194   2.422
68201W        W40516  44.504   6.703  10.719
68202W        W40517  44.346  25.730  14.784
68203W        W40518  10.817  33.329  14.780
68204W        W40519   3.309   8.459  12.574
68205W        W40520  36.395  43.518   3.174
68206W        W40521  23.059  38.277   0.406
68207W        W40522   5.750  14.208   2.356
68208W        W40523   6.815  12.344   2.866
68209W        W40524  44.678  10.614   1.793
68210W        W40525  22.199  17.733   2.714
68211W        W40526  40.832   8.884   9.932
68212W        W40527   5.657  36.882   1.296
68213W        W40528  42.789  10.182  12.392
68214W        W40529  17.338  10.364  11.220
68215W        W40530   1.724  25.502  10.707
68216W        W40531  41.014   1.975  11.887
68217W        W40532   6.441  11.068   1.477
68218W        W40533  12.322  33.269  12.002
68219W        W40534   6.171  28.515   3.644
68220W        W40535  37.415   2.431  10.991
68221W        W40536  13.812  23.259  13.384
68222W        W40537  15.548  31.098   3.118
68223W        W40538  30.543  20.780  14.363
68224W        W40539   3.786  23.770  14.936
68225W        W40540  28.593  36.297  13.047
68226W        W40541  34.310  30.861   1.376
68227W        W40542   0.677  39.596  14.517
68228W        W40543  14.551  21.254   1.744
68229W        W40544  35.941  13.386   2.290
68230W        W40545  38.789   4.471   1.430
68231W        W40546  21.252  40.594  14.554
68232W        W40547  27.764  40.963   3.182
68233W        W40548   4.991  28.121  10.192
68234W        W40549   5.101  16.076  13.135
68235W        W40550  30.151  28.463   0.968
68236W        W40551  34.181  18.136  13.604
68237W        W40552  24.870  19.272   0.568
68238W        W40553  11.237  14.294   4.342
68239W        W40554  23.813  19.096   0.825
68240W        W40555   3.850  27.912   4.553
68241W        W40556  34.098  16.068  11.668
68242W        W40557   1.031  11.707   0.431
68243W        W40558  15.398   1.748  13.581
68244W        W40559  41.285   5.882   3.364
68245W        W40560  41.307  10.275   1.299
68246W        W40561  20.292  33.458   2.518
68247W        W40562  41.061  35.983  11.074
68248W        W40563   1.257  13.784  13.208
68249W        W40564  17.246  31.432  14.980
68250W        W40565   6.629  31.128  12.007
68251W        W40566   5.615  27.087   1.684
68252W        W40567  21.779  15.649   2.280
68253W        W40568  41.224  12.489  14.420
68254W        W40569  21.261  28.034   1.860
68255W        W40570   9.914   0.798   4.500
68256W        W40571   9.873  32.413  10.423
68257W        W40572  10.278  19.446  12.852
68258W        W40573  19.188   6.610   0.429
68259W        W40574  12.221  10.605   3.695
68260W        W40575  13.051  39.548  14.032
68261W        W40576  15.540  27.150  11.257
68262W        W40577  23.634  43.377   3.292
68263W        W40578  11.525  21.627   9.956
68264W        W40579  43.003   5.140  11.537
68265W        W40580   2.282  24.580  11.509
68266W        W40581  22.773  36.685   1.284
68267W        W40582  31.767  37.069   3.398
68268W        W40583  10.660  37.409  10.718
68269W        W40584  34.997  43.827  12.005
68270W        W40585  34.361  30.470  11.386
68271W        W40586  42.461  41.450  14.255
68272W        W40587  36.831  20.122  13.688
68273W        W40588   8.211  33.597  12.527
68274W        W40589   3.768   8.281  14.785
68275W        W40590  44.191  31.631   2.270
68276W        W40591  13.294  31.691  14.983
68277W        W40592   9.264   5.843   3.159
68278W        W40593  16.800  43.527  11.538
68279W        W40594  22.802  19.194  14.372
68280W        W40595  41.502  12.970  12.539
68281W        W40596   7.310  33.526   2.770
68282W        W40597  11.690   6.877   0.342
68283W        W40598   1.279  17.742  14.788
68284W        W40599  28.545  38.185  14.199
68285W        W40600   0.528  32.652  11.178
68286W        W40601   6.492  27.106  12.936
68287W        W40602  29.127  32.707  10.995
68288W        W40603  17.639  40.063  10.317
68289W        W40604  19.292   0.999  13.336
68290W        W40605  13.686  10.075  12.501
68291W        W40606  19.212  24.607   0.790
68292W        W40607  44.752  25.179   2.659
68293W        W40608  32.401  12.223   4.354
68294W        W40609  42.196   4.317  10.774
68295W        W40610  32.997  42.794  13.503
68296W        W40611   4.703   8.906  13.785
68297W        W40612  29.852   5.144  12.503
68298W        W40613   6.751  24.682  13.366
68299W        W40614   8.200   5.700   0.020
68300W        W40615  41.448   7.340   1.327
68301W        W40616  13.724  22.248   2.819
68302W        W40617  26.578  21.364   3.721
68303W        W40618   2.880  39.886  13.402
68304W        W40619  32.974  13.674   1.977
68305W        W40620  23.500  12.682   4.449
68306W        W40621  12.627  41.919  13.678
68307W        W40622  17.663  10.197   4.648
68308W        W40623   3.043  43.141   5.095
68309W        W40624  31.070  26.753  13.514
68310W        W40625   3.774  32.454   3.220
68311W        W40626  15.305   4.268  10.661
68312W        W40627  44.736  22.631   3.811
68313W        W40628  10.665  13.144  12.380
68314W        W40629   2.348  13.859  14.844
68315W        W40630  23.730  15.233  11.161
68316W        W40631  14.533  12.590  11.089
68317W        W40632  23.082  13.124  13.816
68318W        W40633  27.533  25.353  13.042
68319W        W40634  43.827   9.189   0.423
68320W        W40635  41.984   1.692  12.475
68321W        W40636  35.041  10.389   3.774
68322W        W40637   2.304  27.421  14.053
68323W        W40638  27.599  19.076   4.594
68324W        W40639  27.701  12.237  11.548
68325W        W40640   8.169   4.285   3.340
68326W        W40641  29.614  26.790   1.775
68327W        W40642  37.175  26.769  11.958
68328W        W40643  24.431  16.208  12.543
68329W        W40644  38.385  16.684  10.609
68330W        W40645  30.627  27.188  10.577
68331W        W40646  36.417   8.842  12.964
68332W        W40647  39.883  39.960  12.252
68333W        W40648   8.804  13.856   0.474
68334W        W40649  17.819  42.308  10.727
68335W        W40650  33.498  11.668  11.987
68336W        W40651   6.245  18.923   0.636
68337W        W40652  22.699   7.414  12.062
68338W        W40653  16.716  37.092  14.858
68339W        W40654  37.752  40.676  11.173
68340W        W40655  31.520   5.747  14.576
68341W        W40656  39.997  32.611   4.355
68342W        W40657  24.060  40.629  10.627
68343W        W40658  31.106  14.638  11.980
68344W        W40659  11.763  10.280  12.105
68345W        W40660  31.584   9.015   0.868
68346W        W40661  27.689  11.235  14.219
68347W        W40662   0.001   6.769   2.769
68348W        W40663  26.590   0.269  10.766
68349W        W40664  35.599  20.845  10.394
68350W        W40665  21.702  26.544   0.224
68351W        W40666   5.306  43.739  13.565
68352W        W40667   0.757  18.743   1.799
68353W        W40668  39.523  15.744   1.137
68354W        W40669  31.580  10.081  10.101
68355W        W40670  14.909  32.458   2.427
68356W        W40671  27.484  16.692  11.408
68357W        W40672  33.784  14.910  11.194
68358W        W40673  17.328   3.165   1.820
68359W        W40674  10.554  38.812  12.026
68360W        W40675  10.255   3.620   2.812
68361W        W40676  10.148  17.948  14.325
68362W        W40677  27.460  34.945  10.677
68363W        W40678  14.185  25.686   2.115
68364W        W40679   3.357  39.280  14.992
68365W        W40680  17.598  18.218   0.882
68366W        W40681  35.076  27.706  11.663
68367W        W40682  21.033   4.456  14.393
68368W        W40683  23.514  12.743  12.115
68369W        W40684  14.847  37.525  13.405
68370W        W40685  40.260  24.646  11.516
68371W        W40686  38.129   6.326   4.542
68372W        W40687  19.354   6.734   2.678
68373W        W40688  25.033   8.406  13.247
68374W        W40689  27.085   4.454   4.600
68375W        W40690   3.221  11.050  12.569
68376W        W40691   4.736  21.659  14.185
68377W        W40692  30.143  30.924  12.566
68378W        W40693   9.949  32.085   2.257
68379W        W40694  37.736  19.357   1.235
68380W        W40695  34.032  35.909   2.063
68381W        W40696  14.014  18.061  10.658
68382W        W40697   9.741  13.535   3.387
68383W        W40698  15.320  34.861   4.117
68384W        W40699  43.719  16.593  12.818
68385W        W40700  17.368  24.267   0.847
68386W        W40701  13.541  37.764   3.357
68387W        W40702  26.219  37.405   2.897
68388W        W40703  14.333  14.551  14.384
68389W        W40704  35.582  30.201  13.892
68390W        W40705  41.489  40.924   0.718
68391W        W40706   3.929  37.659   0.029
68392W        W40707  41.027  24.149  13.752
68393W        W40708  12.228  15.808  12.134
68394W        W40709  27.397  21.633  11.942
68395W        W40710  17.602  41.825  11.601
68396W        W40711  27.047   1.545  14.363
68397W        W40712  32.013  31.507   2.797
68398W        W40713   0.768  24.252   1.978
68399W        W40714   3.386  37.335   0.691
68400W        W40715  15.712  37.624   4.561
68401W        W40716  28.351   3.227   4.130
68402W        W40717  38.894  19.647  11.468
68403W        W40718  40.956   4.356   0.814
68404W        W40719  42.318  15.819  14.798
68405W        W40720  29.371  11.079  14.834
68406W        W40721  34.391  32.934   0.266
68407W        W40722  36.581  29.983  13.804
68408W        W40723  10.543  29.635   4.504
68409W        W40724   0.887  23.689  13.930
68410W        W40725   2.727   2.707   2.667
68411W        W40726   6.703  40.799   4.100
68412W        W40727  26.624  43.187   2.785
68413W        W40728  15.225   2.394   4.472
68414W        W40729  23.226  25.596  10.685
68415W        W40730  37.356   2.147   4.537
68416W        W40731  10.613  34.754  11.043
68417W        W40732  26.237  28.521  13.801
68418W        W40733  14.757  13.538   2.389
68419W        W40734  31.895  15.606   4.153
68420W        W40735   6.303  21.952   0.969
68421W        W40736   0.840   0.801   1.993
68422W        W40737  11.055  28.247  12.755
68423W        W40738  25.669  41.387   3.138
68424W        W40739  26.141  37.894  12.519
68425W        W40740  11.307  10.874  11.526
68426W        W40741  43.689  39.986  14.963
68427W        W40742   0.905  14.846   3.392
68428W        W40743   4.865   2.308   2.593
68429W        W40744  12.301  36.040   3.604
68430W        W40745   0.463   8.458  14.551
68431W        W40746  41.032  29.576   3.209
68432W        W40747   7.796   7.919   3.876
68433W        W40748   6.378   0.952   4.321
68434W        W40749  28.910  35.873   2.818
68435W        W40750  36.379   2.926  11.110
68436W        W40751   1.691  20.469   1.478
68437W        W40752   0.027  21.044  14.193
68438W        W40753  10.130   3.028  13.974
68439W        W40754  42.427  10.403  13.517
68440W        W40755   8.420  19.588  13.391
68441W        W40756  44.742  30.936   2.779
68442W        W40757  24.477  21.845  13.007
68443W        W40758  19.473  26.049   3.125
68444W        W40759  22.669  35.160   1.380
68445W        W40760   8.624  31.494  10.746
68446W        W40761  40.278   9.115   1.660
68447W        W40762  37.007  44.259   1.290
68448W        W40763   6.222  23.599   0.998
68449W        W40764  34.143  10.692  13.498
68450W        W40765  24.676  38.354  14.490
68451W        W40766  38.922  41.546  14.462
68452W        W40767  13.025  41.816  10.663
68453W        W40768  32.288  23.162   2.701
68454W        W40769  39.988  36.044   0.783
68455W        W40770  33.932  16.917  13.987
68456W        W40771   8.755   2.125   2.733
68457W        W40772  31.555  41.294   0.865
68458W        W40773  44.443  24.439   3.586
68459W        W40774  11.152  18.367  11.942
68460W        W40775  37.791  23.796   1.199
68461W        W40776  17.840  22.178  11.120
68462W        W40777   1.791   2.048  14.700
68463W        W40778  32.609   1.006   1.453
68464W        W40779  34.081  10.694  12.594
68465W        W40780  40.513  22.747  12.009
68466W        W40781  33.116  10.456  10.591
68467W        W40782  29.590  12.452  13.792
68468W        W40783  14.081  44.019  10.519
68469W        W40784  31.494   4.167  13.024
68470W        W40785  27.142  30.953   0.401
68471W        W40786  39.684  27.695  11.646
68472W        W40787  29.231  10.405  14.437
68473W        W40788  40.157   7.529  11.878
68474W        W40789  42.623   7.134   0.410
68475W        W40790  28.068  18.562  14.758
68476W        W40791   5.426  30.206   2.827
68477W        W40792  37.157  37.436  14.752
68478W        W40793  18.103  21.280   0.781
68479W        W40794  27.904  41.262  13.417
68480W        W40795  16.221  23.737  14.957
68481W        W40796  41.476  39.023  12.022
68482W        W40797   2.112   8.302  14.371
68483W        W40798  26.752   3.802  10.617
68484W        W40799  35.997   2.496   4.174
68485W        W40800   7.390  14.099   4.720
68486W        W40801  13.231  25.438   0.221
68487W        W40802  25.798  27.624  13.542
68488W        W40803  27.555  43.868  14.905
68489W        W40804  10.400  40.326   3.286
68490W        W40805  27.738   8.727   4.663
68491W        W40806  37.092   8.761   2.829
68492W        W40807  36.292  24.007   0.308
68493W        W40808  34.825  18.877  12.116
68494W        W40809  29.959   1.429  14.083
68495W        W40810   7.135   3.654  13.378
68496W        W40811  36.895  28.991   1.422
68497W        W40812  21.189  15.222   0.263
68498W        W40813  34.600  43.896  12.350
68499W        W40814  43.485  20.463  10.926
68500W        W40815   8.842  40.901   2.350
68501W        W40816  37.587  36.032  11.134
68502W        W40817   1.840  25.609   0.279
68503W        W40818  31.881  24.523   2.801
68504W        W40819   6.813  11.695  11.174
68505W        W40820  37.479  41.126   3.597
68506W        W40821  30.541   6.460   1.758
68507W        W40822  28.845   1.978  11.145
68508W        W40823  11.701  30.137   0.461
68509W        W40824  10.887  28.908  10.557
68510W        W40825   3.193  37.553   2.205
68511W        W40826  36.397  43.256  13.397
68512W        W40827  30.002   2.892   4.222
68513W        W40828   6.574   1.753  13.376
68514W        W40829   5.317  40.058   2.061
68515W        W40830   4.423  34.915   3.996
68516W        W40831  33.075  44.895  12.573
68517W        W40832  40.433   7.924  13.514
68518W        W40833   5.905  15.425   1.402
68519W        W40834  29.166  21.240  14.715
68520W        W40835   6.246  11.197  13.444
68521W        W40836  40.345   2.140  12.789
68522W        W40837  32.655  32.615  11.688
68523W        W40838  17.815  16.122   4.595
68524W        W40839  15.056  39.089   1.614
68525W        W40840  24.660  38.801   1.868
68526W        W40841  18.233  41.047   3.226
68527W        W40842  19.519  32.531   4.178
68528W        W40843   2.381  37.440   0.253
68529W        W40844  29.941   6.837   4.368
68530W        W40845   8.650  36.445  12.686
68531W        W40846  30.629  21.580   2.363
68532W        W40847  33.091  12.507  12.037
68533W        W40848  17.792  13.690  12.543
68534W        W40849  37.315   1.760  12.007
68535W        W40850   7.146  28.757  13.659
68536W        W40851  35.577  22.187  12.054
68537W        W40852  36.675  39.893  11.659
68538W        W40853  29.750  10.611   2.652
68539W        W40854   4.186  10.837   1.243
68540W        W40855  30.413  40.940   3.834
68541W        W40856  34.900   0.721  14.290
68542W        W40857   6.934  41.329  13.250
68543W        W40858  40.596   8.334   2.225
68544W        W40859  23.405  43.267   1.744
68545W        W40860  35.127  33.216   1.234
68546W        W40861  21.674  28.068   3.227
68547W        W40862  26.526  16.384   0.951
68548W        W40863   9.974  23.220  14.826
68549W        W40864  16.563  37.070  10.691
68550W        W40865  41.458   4.172  13.425
68551W        W40866  17.310   1.919  10.736
68552W        W40867   6.195  33.382   0.806
68553W        W40868  36.479  16.171   0.291
68554W        W40869   3.323  28.210  10.432
68555W        W40870  18.690   4.473  12.023
68556W        W40871   0.510  20.647   0.506
68557W        W40872  37.327   3.078   2.765
68558W        W40873   5.215  32.557   2.373
68559W        W40874  16.788  36.709  12.952
68560W        W40875  15.634  22.949   2.797
68561W        W40876   0.265  25.419  11.541
68562W        W40877  14.624  32.494   1.981
68563W        W40878  10.422  29.663  13.517
68564W        W40879  26.193  14.069   4.272
68565W        W40880  42.041   9.148  14.916
68566W        W40881  33.247  38.785   3.404
68567W        W40882  13.893  25.725  11.035
68568W        W40883   0.064  14.334  11.945
68569W        W40884  24.507  40.654  11.180
68570W        W40885  39.493  22.975  12.589
68571W        W40886   9.267  33.833   4.633
68572W        W40887  30.260  12.702   4.537
68573W        W40888  41.894  14.739  14.289
68574W        W40889  30.757   8.121  12.605
68575W        W40890  10.874  19.187   5.486
68576W        W40891  15.231  29.031  11.820
68577W        W40892  25.669  26.155   4.852
68578W        W40893  21.438   0.350  11.043
68579W        W40894  13.891  38.537   1.412
68580W        W40895  21.466  24.427   1.492
68581W        W40896  33.196  13.051  12.066
68582W        W40897   7.476  43.499  13.796
68583W        W40898  15.164   1.517  11.207
68584W        W40899  17.845  26.616   1.421
68585W        W40900  28.464   0.022   3.381
68586W        W40901  15.785  44.462  11.452
68587W        W40902  17.450  25.502  14.474
68588W        W40903  22.699  35.158   0.459
68589W        W40904   4.805  28.863   4.854
68590W        W40905  29.895  43.755  11.116
68591W        W40906   1.297   0.859   1.330
68592W        W40907  14.083  33.089  10.760
68593W        W40908  29.577  12.812  14.199
68594W        W40909  28.648   9.142  10.045
68595W        W40910  22.281   1.795  14.411
68596W        W40911  39.859  30.555   5.298
68597W        W40912  39.111  42.506   1.898
68598W        W40913  34.508  21.029  10.887
68599W        W40914   5.806  24.169  14.478
68600W        W40915  24.964  42.422   0.783
68601W        W40916  35.800   8.655  12.513
68602W        W40917  42.831  39.544  10.710
68603W        W40918  44.917  12.883  12.562
68604W        W40919  30.633  43.427   2.425
68605W        W40920  17.855  25.534   2.199
68606W        W40921  40.174  44.491   0.495
68607W        W40922  24.214  44.577  10.971
68608W        W40923  33.648  14.398   2.372
68609W        W40924   8.393  40.528   3.847
68610W        W40925  13.665  40.863   4.261
68611W        W40926  18.346   9.268  14.371
68612W        W40927   4.266  12.755  11.378
68613W        W40928  27.916  25.571  14.418
68614W        W40929   7.711   0.513  11.590
68615W        W40930  34.856  41.763   1.196
68616W        W40931  30.897  37.235  12.767
68617W        W40932   8.785  12.404   2.845
68618W        W40933  34.277  16.720  10.996
68619W        W40934  39.428  33.660  12.512
68620W        W40935  30.101  38.916  11.669
68621W        W40936   5.956   6.421   2.245
68622W        W40937  24.946   5.282   1.846
68623W        W40938  34.438  27.623   4.697
68624W        W40939  34.352  16.433   2.216
68625W        W40940   2.363  30.209   1.206
68626W        W40941  32.579  29.191  13.330
68627W        W40942  13.718  16.817  13.857
68628W        W40943   7.835   7.243  13.008
68629W        W40944   5.270   6.811   2.360
68630W        W40945   5.003  24.392   5.124
68631W        W40946   8.438  19.322   0.841
68632W        W40947  42.937   8.900  10.357
68633W        W40948  29.745  43.014  10.701
68634W        W40949  43.106  12.819  11.674
68635W        W40950  44.945  16.988   2.220
68636W        W40951  43.444  32.007   2.544
68637W        W40952  37.965  16.626  12.952
68638W        W40953  27.202  25.482   0.319
68639W        W40954  43.874  16.076   0.413
68640W        W40955  42.634  19.790   0.512
68641W        W40956  23.026   2.642   1.784
68642W        W40957  25.248  30.580   4.569
68643W        W40958   9.004  29.523  12.834
68644W        W40959  17.548   1.854  12.906
68645W        W40960   9.022  35.081  12.465
68646W        W40961  34.616  39.091  10.392
68647W        W40962   4.440  29.941  13.856
68648W        W40963  14.660  10.300   4.665
68649W        W40964  34.373  12.143   1.244
68650W        W40965   0.376  23.767  14.034
68651W        W40966   1.972  40.431  12.915
68652W        W40967  40.074  33.670   2.243
68653W        W40968  19.656  30.628   4.550
68654W        W40969  11.652   6.723   4.599
68655W        W40970  35.828  15.188   4.059
68656W        W40971   9.822  44.985   4.788
68657W        W40972   4.341  35.971  12.672
68658W        W40973  23.361  23.581  13.824
68659W        W40974   8.431  43.247   3.254
68660W        W40975  39.511  43.197  11.623
68661W        W40976   7.267  13.800   2.282
68662W        W40977  22.663  22.774  13.272
68663W        W40978   2.917  18.539   3.565
68664W        W40979  25.639   2.685  13.885
68665W        W40980  38.541  13.326  12.180
68666W        W40981   5.243  27.197  11.826
68667W        W40982  31.401  40.284  11.365
68668W        W40983  25.642  36.323   3.713
68669W        W40984  30.016  34.938   4.348
68670W        W40985  33.561  38.401   9.914
68671W        W40986  32.633  18.283  14.435
68672W        W40987  30.579  24.411  13.685
68673W        W40988   0.846   4.027   2.755
68674W        W40989  15.734  19.032   3.578
68675W        W40990  31.865  40.319  11.579
68676W        W40991  43.703   7.791  14.340
68677W        W40992  22.509  42.364  12.896
68678W        W40993  28.677  18.896   1.160
68679W        W40994  41.504  37.302   2.841
68680W        W40995  11.678  27.575   2.841
68681W        W40996  14.624  12.917  14.697
68682W        W40997  24.613  31.929  12.846
68683W        W40998  11.999  17.710   9.925
68684W        W40999   3.739  27.047   4.095
68685W        W41000  13.683  40.216  13.504
68686W        W41001  10.699  21.267   0.821
68687W        W41002   7.751  21.579  12.609
68688W        W41003  34.552  11.162   4.571
68689W        W41004  12.708  17.798  12.854
68690W        W41005   1.006  12.552   5.451
68691W        W41006   8.201  40.199  11.082
68692W        W41007  18.086  30.045  14.822
68693W        W41008  27.919  27.598  12.937
68694W        W41009  14.135  39.042   5.012
68695W        W41010  31.735  13.341   4.209
68696W        W41011   6.870  29.106   0.844
68697W        W41012  34.535  40.607  14.758
68698W        W41013  23.926  14.844  13.363
68699W        W41014  25.692  18.876   2.722
68700W        W41015  32.586  41.006   4.377
68701W        W41016  42.840   2.509   4.542
68702W        W41017  14.355  25.526  11.036
68703W        W41018  37.059  39.415   2.400
68704W        W41019  43.915  12.222  13.947
68705W        W41020  28.026  37.977   1.285
68706W        W41021  43.879   6.488  10.635
68707W        W41022  28.968  39.467   1.046
68708W        W41023  22.046  43.238   1.962
68709W        W41024   5.145  44.311  12.984
68710W        W41025   8.169   8.766  12.919
68711W        W41026  22.500  40.782   2.699
68712W        W41027   2.918  25.450  13.473
68713W        W41028  20.099  37.383  14.959
68714W        W41029  18.160  40.807  10.176
68715W        W41030  14.314  39.579   0.443
68716W        W41031  23.075  11.168   2.753
68717W        W41032  11.522   9.412  10.680
68718W        W41033  22.334  16.700  10.641
68719W        W41034  43.200  38.593  13.447
68720W        W41035  10.394  38.045  14.939
68721W        W41036  42.869   2.485  13.063
68722W        W41037  22.554   6.913  13.952
68723W        W41038  37.104  33.950  11.772
68724W        W41039   9.571  39.872  11.318
68725W        W41040  21.472  38.938  13.442
68726W        W41041   0.957  41.634   0.545
68727W        W41042  30.424  36.486   0.782
68728W        W41043  11.460  21.187  11.675
68729W        W41044  39.395   6.615   4.792
68730W        W41045  15.207  30.756   2.337
68731W        W41046  41.760   0.690   0.684
68732W        W41047  39.519   1.318   0.683
68733W        W41048  27.993  43.860  12.008
68734W        W41049  22.669   4.495  10.765
68735W        W41050  10.436  30.581  14.652
68736W        W41051  37.627   3.919   2.781
68737W        W41052   7.964   6.116  13.891
68738W        W41053  21.852   5.393   2.397
68739W        W41054  44.732  40.568   1.757
68740W        W41055   2.350  19.358   0.087
68741W        W41056  33.413  30.951  14.393
68742W        W41057  20.550  18.301  14.962
68743W        W41058  10.221   6.214  10.659
68744W        W41059  35.345  40.438  12.280
68745W        W41060  25.756  31.636  11.037
68746W        W41061  15.341  35.893   4.186
68747W        W41062  25.752  21.537  10.577
68748W        W41063   1.385  36.642  12.482
68749W        W41064  38.301  39.155  13.913
68750W        W41065  19.253   1.006  10.575
68751W        W41066  38.129   1.415   3.265
68752W        W41067  18.538  15.644   0.845
68753W        W41068  23.722  20.201  12.368
68754W        W41069  24.479   1.029   3.575
68755W        W41070  10.732  23.310   2.803
68756W        W41071  19.540  20.223  10.999
68757W        W41072  16.737  30.826   4.020
68758W        W41073  20.494  39.043   0.764
68759W        W41074  22.326  36.127  11.243
68760W        W41075   4.250  39.404   0.074
68761W        W41076   2.404   6.165   0.391
68762W        W41077  44.790  31.549  12.510
68763W        W41078  12.246  41.367  12.794
68764W        W41079  11.407  17.874  14.982
68765W        W41080  19.304   5.989  12.716
68766W        W41081  44.788  22.058  13.689
68767W        W41082  24.852  28.825  12.802
68768W        W41083  15.844   1.871  10.733
68769W        W41084  28.758   3.399  14.527
68770W        W41085   1.661  28.867  14.417
68771W        W41086   3.435  22.768   4.441
68772W        W41087   6.008  36.017  10.813
68773W        W41088  44.317  24.766  12.793
68774W        W41089  32.833  10.134   1.129
68775W        W41090  44.417  24.163   4.009
68776W        W41091  36.471  28.362  14.434
68777W        W41092  33.647  23.077  13.366
68778W        W41093   8.268  26.575   3.274
68779W        W41094   2.761  27.428   3.824
68780W        W41095  10.296  21.068   2.826
68781W        W41096  14.812   9.573  13.610
68782W        W41097  13.671  40.964  13.046
68783W        W41098  35.443   2.166   3.279
68784W        W41099  37.931  19.374  10.977
68785W        W41100  37.083  35.490   4.630
68786W        W41101  29.948  40.481   4.655
68787W        W41102  16.533  42.993   2.546
68788W        W41103  25.674  38.155  11.808
68789W        W41104  34.555  18.244  11.064
68790W        W41105   9.429  13.660  12.856
68791W        W41106   3.049  11.302  11.232
68792W        W41107  22.836  27.001  11.162
68793W        W41108  28.013  11.434  11.570
68794W        W41109  23.549  34.991  12.131
68795W        W41110   5.666  20.989   3.298
68796W        W41111  39.581  25.106  14.758
68797W        W41112   6.369  14.268  12.935
68798W        W41113  41.146  41.297   0.501
68799W        W41114  24.243  28.536   1.900
68800W        W41115   9.122   4.883  13.355
68801W        W41116  41.775  26.570   2.779
68802W        W41117  14.902  22.183   3.262
68803W        W41118  34.974  43.815   3.488
68804W        W41119  19.643  19.128   1.389
68805W        W41120   5.597  37.550   1.740
68806W        W41121  37.080  43.573   1.719
68807W        W41122  14.640  39.047   4.874
68808W        W41123  40.402  16.131  14.751
68809W        W41124   9.626  39.454   0.472
68810W        W41125  31.186  34.190  11.033
68811W        W41126   0.065   4.445  12.895
68812W        W41127   5.701  20.197   2.591
68813W        W41128  44.963  34.419  13.223
68814W        W41129  28.196   2.193  14.272
68815W        W41130  24.074   6.712   3.916
68816W        W41131  16.169  22.544  11.940
68817W        W41132  37.067  42.888   3.836
68818W        W41133  36.245  12.280   3.549
68819W        W41134   2.712  32.346   1.984
68820W        W41135  39.505  35.445  11.642
68821W        W41136  16.413   5.941  11.390
68822W        W41137  40.077   6.307   2.362
68823W        W41138  38.607  28.117  13.443
68824W        W41139   4.389  25.138  10.652
68825W        W41140  21.525  13.526   1.497
68826W        W41141   3.413  37.245   5.092
68827W        W41142  41.551  15.754   0.492
68828W        W41143   4.879   9.735   4.165
68829W        W41144   2.364  30.249   4.284
68830W        W41145   9.725  31.198   1.621
68831W        W41146  41.067  40.889   3.707
68832W        W41147  29.450  33.669  11.137
68833W        W41148   9.705  11.675   4.200
68834W        W41149  31.164  42.768   2.242
68835W        W41150  35.157  36.407   2.605
68836W        W41151  19.115  22.026   3.224
68837W        W41152  28.760   5.206   0.842
68838W        W41153  17.190  20.684  11.118
68839W        W41154  43.828  15.094   2.290
68840W        W41155   1.204  27.465   0.929
68841W        W41156   2.267   6.361  11.555
68842W        W41157  20.905   7.215  11.636
68843W        W41158  31.305   2.910   3.773
68844W        W41159  29.611  27.461  13.389
68845W        W41160  29.044  42.586   1.986
68846W        W41161  19.043  38.348   3.624
68847W        W41162   7.534  23.002  14.278
68848W        W41163  36.920  19.811   1.217
68849W        W41164   5.032   4.311  10.329
68850W        W41165  17.372  22.037  13.943
68851W        W41166  34.847  23.167  11.377
68852W        W41167   7.435  32.031   2.415
68853W        W41168  44.544  37.274   0.573
68854W        W41169  12.639  33.685   0.995
68855W        W41170  42.324   3.606  11.905
68856W        W41171   1.213  23.074   0.244
68857W        W41172  35.642  25.209   2.682
68858W        W41173  21.299  11.805  11.430
68859W        W41174  26.518   4.162   0.463
68860W        W41175  15.335  41.917   3.320
68861W        W41176  24.181  26.470  14.358
68862W        W41177  25.714  44.430   4.621
68863W        W41178  41.003  31.523  12.183
68864W        W41179  39.177  13.488   3.465
68865W        W41180  41.467  18.518   2.647
68866W        W41181  15.368  26.071  11.945
68867W        W41182  24.120  34.491  10.752
68868W        W41183  33.805  22.313  14.830
68869W        W41184   1.533   0.855  14.856
68870W        W41185   5.183  40.811  12.032
68871W        W41186   1.857   7.823  12.040
68872W        W41187   1.438  14.500  14.380
68873W        W41188  17.872  25.016  14.883
68874W        W41189   4.866  43.338  11.170
68875W        W41190  31.556  37.938  14.378
68876W        W41191  15.076  14.371  12.000
68877W        W41192  10.642  44.861  11.494
68878W        W41193  33.336  15.111  13.416
68879W        W41194   5.941  32.681   1.807
68880W        W41195  23.206   7.945  11.635
68881W        W41196  18.518  10.520  12.862
68882W        W41197  23.076   0.432  12.554
68883W        W41198  42.828  34.500  10.517
68884W        W41199  19.454  22.138  11.529
68885W        W41200  21.800  27.992  11.920
68886W        W41201   3.834   9.149  14.423
68887W        W41202  41.278  27.237   2.636
68888W        W41203   2.260  40.886  14.459
68889W        W41204  13.715  32.175  12.638
68890W        W41205  23.517  14.757  11.037
68891W        W41206  30.844  37.255  14.736
68892W        W41207  11.714  12.277  11.063
68893W        W41208  17.745  14.599   2.113
68894W        W41209  13.153  22.768  14.348
68895W        W41210  10.098   4.498  11.061
68896W        W41211  44.936  26.533  14.446
68897W        W41212  12.286  18.680   5.569
68898W        W41213  25.001   9.632   3.146
68899W        W41214  28.539  25.058   0.460
68900W        W41215  38.899   2.749   3.412
68901W        W41216   9.188  25.061  10.693
68902W        W41217  29.972  39.292   2.324
68903W        W41218  37.407  27.761   3.370
68904W        W41219  11.233  21.810   1.731
68905W        W41220  44.728  18.134   4.322
68906W        W41221  38.626  24.936   1.693
68907W        W41222  20.904   8.375  11.493
68908W        W41223  22.981  34.503   2.628
68909W        W41224  11.835  40.764   4.098
68910W        W41225  39.394  10.261  13.365
68911W        W41226  20.256   1.904  13.114
68912W        W41227   9.268   1.018  10.651
68913W        W41228  12.304  12.739   3.983
68914W        W41229  30.385   0.507  11.137
68915W        W41230  38.742   8.409  13.788
68916W        W41231  38.569  15.127   3.229
68917W        W41232   6.159  20.955   3.178
68918W        W41233  42.090  31.928   0.909
68919W        W41234  23.056   8.338  12.432
68920W        W41235  16.433  33.119  12.507
68921W        W41236  11.195   4.026   3.197
68922W        W41237  41.374  34.137  12.439
68923W        W41238  26.151   8.900  14.149
68924W        W41239  42.787  35.789   4.339
68925W        W41240  35.204  15.131  11.469
68926W        W41241  41.889  27.573   2.650
68927W        W41242  20.695  23.243   1.341
68928W        W41243  34.114  24.139   0.710
68929W        W41244   5.401  42.099  11.570
68930W        W41245  19.000  17.203  12.544
68931W        W41246  13.636  28.379   1.495
68932W        W41247  44.789  20.743   1.005
68933W        W41248  36.291  30.423  13.824
68934W        W41249   0.691  44.783  12.875
68935W        W41250  11.948   8.185  10.955
68936W        W41251  32.493  40.853  11.226
68937W        W41252  42.154  43.281  12.935
68938W        W41253  27.023  27.671  11.484
68939W        W41254  21.282  33.262   2.998
68940W        W41255   2.440  10.554   0.850
68941W        W41256  13.247  11.309   3.299
68942W        W41257  34.475  43.278  10.954
68943W        W41258  25.272  31.171  11.998
68944W        W41259   9.949   9.161  12.213
68945W        W41260  34.904   9.174   4.779
68946W        W41261  14.382  26.043  12.141
68947W        W41262  28.620  37.795  14.908
68948W        W41263  34.399  37.019  14.064
68949W        W41264  11.337   4.858   4.569
68950W        W41265  14.707  34.112  12.063
68951W        W41266   1.958  14.147   0.672
68952W        W41267  35.412  25.125   4.638
68953W        W41268   6.313  15.631  10.822
68954W        W41269  40.568   2.103   1.716
68955W        W41270  44.407  10.916   0.786
68956W        W41271   5.932  33.932   2.313
68957W        W41272  39.861  30.249  10.520
68958W        W41273  20.325  12.795   0.254
68959W        W41274  35.279   2.973   3.601
68960W        W41275  29.114  10.562  11.618
68961W        W41276  14.610   1.723   3.129
68962W        W41277  30.710  22.089  10.077
68963W        W41278   6.976   3.972  14.388
68964W        W41279   7.304   2.840  10.434
68965W        W41280  31.038  37.463   4.385
68966W        W41281  27.548  39.480  12.007
68967W        W41282  43.477  13.995   2.934
68968W        W41283  23.516  24.252   0.119
68969W        W41284  38.788  26.923  14.511
68970W        W41285  35.071  15.128   0.489
68971W        W41286  43.420  40.277  11.572
68972W        W41287  30.041  33.377   3.426
68973W        W41288  35.244  39.339   2.851
68974W        W41289  20.353  44.955  13.052
68975W        W41290   3.927  44.731   2.468
68976W        W41291  39.792   6.844  12.827
68977W        W41292  39.266  13.840  14.285
68978W        W41293   1.472  35.898   1.323
68979W        W41294   9.283   6.902   4.333
68980W        W41295  11.618  32.521  12.383
68981W        W41296  39.478  28.050  12.459
68982W        W41297  31.878  37.607   4.546
68983W        W41298  19.743  34.859   1.352
68984W        W41299  31.741  31.660  14.055
68985W        W41300  15.587  35.850   3.742
68986W        W41301  39.977   4.386   2.023
68987W        W41302   2.800  32.155  14.023
68988W        W41303  41.879  22.557  10.991
68989W        W41304   0.943  30.455  12.034
68990W        W41305  38.890  28.944  12.478
68991W        W41306  44.547  40.011  13.782
68992W        W41307  22.765  31.873   1.368
68993W        W41308  11.377  25.494  14.888
68994W        W41309  20.105  22.514  11.081
68995W        W41310  36.365  12.405  13.072
68996W        W41311   4.452  26.886   0.755
68997W        W41312  42.275  21.237   1.971
68998W        W41313  43.568  32.205  10.222
68999W        W41314  34.623  24.614   2.116
69000W        W41315  20.761   6.459  12.441
69001W        W41316  19.187   8.996   3.707
69002W        W41317   0.316  22.016   3.151
69003W        W41318   2.711  32.092  11.165
69004W        W41319   2.130  25.520  12.428
69005W        W41320  29.163  39.335   4.215
69006W        W41321  18.378   5.762   4.186
69007W        W41322  43.852  24.964  11.547
69008W        W41323   9.562  37.987  12.439
69009W        W41324  41.565  27.456  11.241
69010W        W41325  20.286  20.435  13.207
69011W        W41326   4.813  23.776   3.996
69012W        W41327  14.828  42.005   3.251
69013W        W41328   5.467  27.567   4.592
69014W        W41329  34.857   5.200  11.412
69015W        W41330  24.781  38.613  12.278
69016W        W41331  32.900   3.012  12.984
69017W        W41332  15.570  38.212  11.196
69018W        W41333  42.744  36.866   2.313
69019W        W41334  33.537   7.262   4.575
69020W        W41335  26.626  17.308   0.946
69021W        W41336  38.595  11.774  10.980
69022W        W41337  40.320  42.059  11.957
69023W        W41338  40.887  17.568   4.724
69024W        W41339  31.000  29.424  12.437
69025W        W41340  18.543   6.380   0.776
69026W        W41341  16.169  19.650   1.301
69027W        W41342  30.008  19.015   2.842
69028W        W41343  38.677  40.067  13.438
69029W        W41344  42.333  37.871  10.657
69030W        W41345   7.225  25.494   3.809
69031W        W41346  34.809   5.418  11.872
69032W        W41347  22.114  40.431   2.560
69033W        W41348   8.781  41.905   0.979
69034W        W41349   7.824  17.256   3.257
69035W        W41350  15.962  15.980   3.595
69036W        W41351   0.448   3.620   0.900
69037W        W41352  13.233  19.068   0.243
69038W        W41353  17.240  14.474  10.389
69039W        W41354  14.015  32.626  14.788
69040W        W41355  29.047  12.419   3.634
69041W        W41356  18.289  33.482  13.366
69042W        W41357  10.226  38.752  14.429
69043W        W41358  25.179  11.368   2.392
69044W        W41359  16.789  40.557  13.465
69045W        W41360  16.142  32.115   1.699
69046W        W41361  23.759  29.003   2.701
69047W        W41362  23.831  13.260  14.397
69048W        W41363  42.876  24.145  12.053
69049W        W41364   6.224  16.933  14.727
69050W        W41365  14.228   2.925  14.783
69051W        W41366  34.902  10.080  12.874
69052W        W41367  14.851  26.045   4.471
69053W        W41368  41.266   1.360  14.068
69054W        W41369  19.568  41.429  14.979
69055W        W41370  17.950  39.560   2.255
69056W        W41371  13.542  32.667  13.409
69057W        W41372  20.718  19.628   2.184
69058W        W41373   6.831   5.273   0.948
69059W        W41374  16.796  36.596  14.861
69060W        W41375  14.833   6.943  14.381
69061W        W41376  12.665  43.199  13.432
69062W        W41377  15.963  25.237  13.323
69063W        W41378   7.811  24.133   0.335
69064W        W41379  12.732  19.028  11.137
69065W        W41380   4.290  23.481  12.902
69066W        W41381  33.013  10.842  13.936
69067W        W41382   2.250  35.281   5.476
69068W        W41383  32.182   4.668  11.999
69069W        W41384  11.311   1.752  11.884
69070W        W41385  11.344  21.630   1.262
69071W        W41386   0.918   2.023   0.194
69072W        W41387  13.661  17.656   4.043
69073W        W41388   0.994  35.080   2.399
69074W        W41389  32.389  42.952  12.703
69075W        W41390  23.605  23.668   2.918
69076W        W41391   3.916  27.557   3.381
69077W        W41392  40.075  29.782   3.760
69078W        W41393  37.271  22.399   3.845
69079W        W41394  35.337  14.762  10.713
69080W        W41395  34.940  41.362  13.036
69081W        W41396  15.289  13.953  11.058
69082W        W41397  13.686  14.814  11.719
69083W        W41398  14.683   7.330  14.690
69084W        W41399  21.701  19.924   4.264
69085W        W41400   1.815   7.120   4.117
69086W        W41401  42.066  24.161  11.648
69087W        W41402  10.268  43.003   3.328
69088W        W41403  28.835   7.742  12.834
69089W        W41404  39.487  23.433   1.878
69090W        W41405  18.536  32.338  14.546
69091W        W41406  31.365  41.788   0.803
69092W        W41407  41.570   1.950   2.178
69093W        W41408  27.911   8.752  13.633
69094W        W41409  28.276  16.307   4.505
69095W        W41410  10.789  41.924  13.767
69096W        W41411   0.108  40.872   2.700
69097W        W41412  27.969   2.976   0.201
69098W        W41413  41.792  26.412   5.136
69099W        W41414  17.200  23.918  10.445
69100W        W41415  14.033   0.541   3.441
69101W        W41416  16.199  17.733  13.923
69102W        W41417  12.372  20.153   2.384
69103W        W41418  41.926  40.863   3.081
69104W        W41419   9.854  15.175  11.932
69105W        W41420  13.837  15.620  11.566
69106W        W41421  18.223  17.583   1.071
69107W        W41422  32.407  37.022   0.459
69108W        W41423   2.487  26.263   2.092
69109W        W41424  20.000  34.190  13.004
69110W        W41425  42.328  34.175  11.174
69111W        W41426  34.238  30.947  11.563
69112W        W41427  22.974  27.523   4.174
69113W        W41428  18.322  34.545  11.527
69114W        W41429  21.051   6.891  14.323
69115W        W41430  12.770  19.168   4.786
69116W        W41431  44.929   8.090   2.757
69117W        W41432  42.510   1.138   3.649
69118W        W41433  10.104  17.344   1.602
69119W        W41434  38.925  37.490  12.636
69120W        W41435  15.102  19.810  14.511
69121W        W41436  28.083   5.734   2.320
69122W        W41437   8.213  24.024   0.011
69123W        W41438  37.723   6.337  13.046
69124W        W41439  10.758   1.517   2.164
69125W        W41440  42.933  16.148   0.432
69126W        W41441  34.960  15.995   4.108
69127W        W41442  11.722  39.400   3.138
69128W        W41443  10.188  18.511   1.168
69129W        W41444  28.310  30.109   1.389
69130W        W41445   6.700  29.461   4.394
69131W        W41446  35.398  36.853  14.968
69132W        W41447  17.576  44.834   4.361
69133W        W41448   3.958  28.663   1.819
69134W        W41449  19.532  34.483   4.675
69135W        W41450  34.537   3.457   3.125
69136W        W41451  16.667  43.542  14.414
69137W        W41452  22.519  11.600   4.520
69138W        W41453  11.845  34.437   1.882
69139W        W41454   1.715  11.303   2.557
69140W        W41455  36.036  18.191  11.554
69141W        W41456   6.212  15.942  14.838
69142W        W41457   8.276  36.177  13.744
69143W        W41458   0.715  19.642  11.955
69144W        W41459  34.613  22.202  11.867
69145W        W41460   5.477   5.252  11.412
69146W        W41461  30.444  35.769   3.831
69147W        W41462  36.232  21.169  12.421
69148W        W41463  41.540  29.577   3.088
69149W        W41464  26.640  40.607   3.174
69150W        W41465  40.776   6.749   2.803
69151W        W41466  20.662  18.046   1.305
69152W        W41467  39.247  23.168  10.573
69153W        W41468  11.548  22.473  12.170
69154W        W41469  34.194  35.575  12.121
69155W        W41470   7.187  28.739   4.953
69156W        W41471   3.273  17.614   1.741
69157W        W41472   7.812  16.307  13.822
69158W        W41473  38.876  21.665   2.199
69159W        W41474   6.474  18.125   1.641
69160W        W41475  23.119  16.043  10.998
69161W        W41476  16.443  15.800   3.511
69162W        W41477  33.366  31.193  11.569
69163W        W41478  43.861  23.860   0.695
69164W        W41479  17.669  15.794   1.344
69165W        W41480  31.218  39.345  10.730
69166W        W41481  18.353  40.542  14.470
69167W        W41482   5.161  35.823  14.814
69168W        W41483  19.094   6.054  10.968
69169W        W41484   9.570  30.368  14.955
69170W        W41485  14.318  30.629  14.800
69171W        W41486   0.162  31.693   1.420
69172W        W41487  38.061  34.609  10.575
69173W        W41488   6.478  32.520  10.737
69174W        W41489  17.849  20.548  10.891
69175W        W41490   2.085   1.067  13.872
69176W        W41491  42.843   3.872  14.078
69177W        W41492  19.497   6.508   0.859
69178W        W41493   5.228  16.362   3.244
69179W        W41494   0.081   8.726  12.881
69180W        W41495   6.727  26.598   0.679
69181W        W41496  27.457  32.078  10.654
69182W        W41497  33.731   2.885  11.931
69183W        W41498  23.519  20.303   4.743
69184W        W41499  36.037  34.851  11.988
69185W        W41500  13.870  38.096   3.692
69186W        W41501  10.291  16.477  12.503
69187W        W41502  31.165   6.362  13.483
69188W        W41503  34.193   3.829  10.702
69189W        W41504  34.899   9.954  13.370
69190W        W41505  28.905  20.169   1.354
69191W        W41506  11.687   1.351   2.302
69192W        W41507  40.426  27.005   0.131
69193W        W41508  37.097  16.117  11.663
69194W        W41509   0.977   7.419   3.587
69195W        W41510  27.869  41.753   1.411
69196W        W41511  23.342  35.085   4.865
69197W        W41512  44.544  12.767   2.218
69198W        W41513  39.647   9.284  13.102
69199W        W41514  34.390   7.687  12.109
69200W        W41515  38.881  11.351   4.307
69201W        W41516  40.036  21.563  14.762
69202W        W41517  32.216  13.284  10.912
69203W        W41518   3.606  15.847  10.288
69204W        W41519  21.001  23.239  11.098
69205W        W41520   6.840  40.603  12.088
69206W        W41521  35.537   9.549  11.500
69207W        W41522  44.299  18.387  14.396
69208W        W41523  43.342  43.560  13.597
69209W        W41524   4.006   9.812  11.207
69210W        W41525   1.759  34.062   9.883
69211W        W41526  40.492  30.950   1.832
69212W        W41527  15.017  20.449   2.798
69213W        W41528  10.282   8.680  14.514
69214W        W41529   9.177  27.261   4.101
69215W        W41530  15.138  10.867   2.856
69216W        W41531  21.779  15.302  13.662
69217W        W41532   3.162  44.232  12.391
69218W        W41533  35.121  11.731   0.743
69219W        W41534  25.581  37.464  10.608
69220W        W41535   6.271  24.243  10.672
69221W        W41536  18.030   8.477  11.509
69222W        W41537  27.769   1.853   4.949
69223W        W41538  32.227  36.055  14.383
69224W        W41539  33.640  13.309   1.399
69225W        W41540  15.328  38.182  10.711
69226W        W41541  42.476  16.544  14.382
69227W        W41542   4.676   2.791   2.332
69228W        W41543   4.316  28.869   2.803
69229W        W41544  12.231   4.798   4.586
69230W        W41545  23.492  19.200   4.030
69231W        W41546  33.589  36.975   4.578
69232W        W41547  40.306  33.867   3.248
69233W        W41548  44.215  31.044   3.814
69234W        W41549  35.915  12.394   2.364
69235W        W41550  35.983  44.510   0.350
69236W        W41551   5.298   9.359   2.121
69237W        W41552  25.488   4.404   4.157
69238W        W41553  34.523  25.933   3.724
69239W        W41554  26.265  11.717  11.771
69240W        W41555  41.538  43.912  14.308
69241W        W41556  44.284  19.443  12.078
69242W        W41557  11.558   2.043  13.027
69243W        W41558  35.604  42.971  11.544
69244W        W41559  19.641  12.665   2.449
69245W        W41560   3.329  33.547   1.340
69246W        W41561   5.152   1.910  12.598
69247W        W41562  28.598  35.327  14.955
69248W        W41563   9.228  13.788   0.806
69249W        W41564   8.783  37.539   3.651
69250W        W41565   8.816  41.234   0.404
69251W        W41566  33.221  32.149   0.719
69252W        W41567   5.305   3.842   2.822
69253W        W41568  32.593   1.314   2.441
69254W        W41569  42.011  33.335   3.425
69255W        W41570  29.695  35.790   0.915
69256W        W41571  18.794  44.834   4.535
69257W        W41572  16.682   9.799   9.792
69258W        W41573   7.841   5.345  14.809
69259W        W41574  32.659  43.309   4.079
69260W        W41575  42.329   6.194  10.663
69261W        W41576  21.873   0.937   0.047
69262W        W41577  38.272  11.083  14.310
69263W        W41578  44.340   7.207  12.842
69264W        W41579  15.590  40.794  13.778
69265W        W41580  12.775  32.485  14.119
69266W        W41581  25.512  10.405  12.834
69267W        W41582  33.544  22.904   4.780
69268W        W41583  20.662  43.571  12.921
69269W        W41584   2.349  26.196   4.252
69270W        W41585   6.742  38.122   2.865
69271W        W41586  29.676  39.569  13.464
69272W        W41587  40.832  18.948  11.235
69273W        W41588  33.869   7.617  13.374
69274W        W41589  39.500  22.805   4.350
69275W        W41590  30.582  19.067  10.695
69276W        W41591   4.416  22.239   0.361
69277W        W41592  30.645   9.787  14.553
69278W        W41593  32.895  20.171  14.811
69279W        W41594  18.669  34.496   4.433
69280W        W41595   1.164  33.175  11.985
69281W        W41596  41.472  13.138  14.972
69282W        W41597  43.396  39.504  14.852
69283W        W41598  20.971  27.213  14.426
69284W        W41599   9.078  20.157   0.133
69285W        W41600   3.509  42.542  13.328
69286W        W41601  33.692  16.119   2.734
69287W        W41602  15.312  25.529   2.230
69288W        W41603  44.315  20.968   0.801
69289W        W41604   7.242  44.309   3.786
69290W        W41605   5.695  23.891  14.973
69291W        W41606   8.263  37.605  10.650
69292W        W41607   6.996  16.334  14.477
69293W        W41608  31.918  31.693   3.416
69294W        W41609  19.523  30.301  12.658
69295W        W41610  26.242  33.801   0.419
69296W        W41611  38.986  12.647   1.825
69297W        W41612   5.791  38.824   3.460
69298W        W41613  31.004   0.341  12.034
69299W        W41614  16.533  10.465   1.454
69300W        W41615   5.931   6.758  14.452
69301W        W41616   1.837   1.348  12.435
69302W        W41617   6.416  27.663  11.939
69303W        W41618  10.932  15.658  10.741
69304W        W41619  17.011  39.359  12.394
69305W        W41620  35.772  12.865   4.290
69306W        W41621  27.492  12.132   2.746
69307W        W41622  43.608  29.718   3.379
69308W        W41623  27.998  42.398   2.292
69309W        W41624  43.964  40.888   1.148
69310W        W41625  18.058   7.988   4.578
69311W        W41626  23.215  23.604   2.444
69312W        W41627  30.865  16.823  11.712
69313W        W41628  43.516   6.704  14.290
69314W        W41629  34.560  16.680   1.255
69315W        W41630  15.336  10.686  13.898
69316W        W41631  26.591  20.510   4.115
69317W        W41632  26.594   9.916  10.713
69318W        W41633   5.302  43.401  11.444
69319W        W41634  16.249  31.713  11.350
69320W        W41635  27.501  14.133   3.656
69321W        W41636  40.016   5.807   2.522
69322W        W41637  33.592  34.694   2.674
69323W        W41638  12.919   3.091   3.277
69324W        W41639  32.149  26.193  10.618
69325W        W41640  26.648  44.066  13.440
69326W        W41641   9.556  38.935   3.572
69327W        W41642   2.895  18.033  11.253
69328W        W41643  23.456  28.671   3.422
69329W        W41644  22.647  33.129  11.506
69330W        W41645  37.484  24.614  14.573
69331W        W41646  18.830  34.359   0.900
69332W        W41647  37.243  44.769   4.214
69333W        W41648  11.822  13.319  12.973
69334W        W41649  44.311  34.374  13.991
69335W        W41650  33.424  23.628   1.535
69336W        W41651  20.439   0.071  14.528
69337W        W41652  44.091  26.701   4.123
69338W        W41653  35.435  37.424   4.494
69339W        W41654  37.819  27.020  11.547
69340W        W41655  27.514  36.596   2.157
69341W        W41656  19.509  10.728  10.751
69342W        W41657  34.862  25.241  10.999
69343W        W41658  21.814  35.614  13.455
69344W        W41659   3.866  22.653  13.221
69345W        W41660  43.299  38.420   4.368
69346W        W41661  19.724   0.795  11.341
69347W        W41662   1.107  24.923   0.456
69348W        W41663  39.542  21.810   1.369
69349W        W41664  41.085   8.450  12.412
69350W        W41665  21.776  21.589   2.753
69351W        W41666  13.655  14.660   1.021
69352W        W41667  20.917  16.281  14.017
69353W        W41668  39.422  29.407   3.333
69354W        W41669  34.761  41.035   2.431
69355W        W41670  39.542  24.747  12.875
69356W        W41671  22.222   8.785   2.260
69357W        W41672   2.675  41.299   2.319
69358W        W41673  16.209  20.183  12.622
69359W        W41674  29.665  12.699   2.268
69360W        W41675  30.089  36.138  13.596
69361W        W41676  12.326  27.107   0.046
69362W        W41677  19.750  42.224  13.529
69363W        W41678  18.449  28.056   4.582
69364W        W41679  22.767  22.504   1.176
69365W        W41680  40.683   3.427  11.239
69366W        W41681  21.153  20.984   5.188
69367W        W41682  16.038   1.397   1.286
69368W        W41683  27.026   3.307  14.968
69369W        W41684  26.447  36.896   2.782
69370W        W41685  21.326  43.358  10.945
69371W        W41686  38.576  26.085   0.192
69372W        W41687  13.204  32.140  12.480
69373W        W41688   0.160   9.349  11.063
69374W        W41689  25.986  33.897   2.865
69375W        W41690   6.469   3.842   4.200
69376W        W41691  34.579   8.878   1.146
69377W        W41692  43.437  38.752  11.631
69378W        W41693  12.284   8.750  10.696
69379W        W41694  29.974  41.309  14.928
69380W        W41695  39.747  24.455   3.541
69381W        W41696  38.503  30.495   0.760
69382W        W41697  10.469  24.110   3.256
69383W        W41698  23.961  28.596   4.754
69384W        W41699  32.020  13.948  12.166
69385W        W41700   0.683  42.845  12.523
69386W        W41701   1.417  44.516  11.734
69387W        W41702   1.961   1.315   0.790
69388W        W41703  32.447  26.660   1.388
69389W        W41704  36.049   2.763   3.736
69390W        W41705  19.792  31.113  13.165
69391W        W41706  26.935  14.776  12.584
69392W        W41707  14.301  22.861   3.195
69393W        W41708  43.424  31.409   0.926
69394W        W41709  27.623  22.461   2.136
69395W        W41710  29.013  33.351   0.845
69396W        W41711  26.886   2.710  11.171
69397W        W41712   1.778  17.168   2.454
69398W        W41713  43.315  25.087  10.670
69399W        W41714  10.422  26.409   2.278
69400W        W41715  20.689   9.349   1.881
69401W        W41716  12.105   9.907  12.085
69402W        W41717  34.454  25.888   2.921
69403W        W41718  41.278  30.927  11.098
69404W        W41719  30.907  13.616  11.144
69405W        W41720  39.892  25.587  10.210
69406W        W41721  25.186  40.317  11.502
69407W        W41722  21.124  35.400  13.801
69408W        W41723  25.901  25.074  11.082
69409W        W41724  22.946   6.311  13.289
69410W        W41725   2.960  27.024   2.372
69411W        W41726  33.911  15.362   3.358
69412W        W41727  30.813  30.046  11.986
69413W        W41728  38.435  42.759  11.940
69414W        W41729  34.147  24.755   4.960
69415W        W41730  36.871   0.811  11.046
69416W        W41731  43.522  38.191  13.423
69417W        W41732  31.002  22.759   0.411
69418W        W41733  20.758   5.818  14.954
69419W        W41734  39.633  33.502   3.718
69420W        W41735   5.965  10.760  13.362
69421W        W41736  17.158  21.529   4.717
69422W        W41737  26.949  28.138  13.985
69423W        W41738  29.152  28.641   0.812
69424W        W41739   5.701  34.964   1.336
69425W        W41740  29.439  15.214   4.755
69426W        W41741   3.861   0.381   5.260
69427W        W41742  21.545  17.257  13.005
69428W        W41743   8.668  35.271   1.219
69429W        W41744  14.580  34.159   2.338
69430W        W41745  27.686  43.539  12.419
69431W        W41746   0.139  24.191  13.813
69432W        W41747  36.814   7.705   2.413
69433W        W41748  28.139  32.382   2.674
69434W        W41749  12.407  28.559  11.671
69435W        W41750  30.398  41.933   1.163
69436W        W41751  22.934  37.048  11.072
69437W        W41752  43.580  35.871  14.378
69438W        W41753  19.099   1.710   3.127
69439W        W41754   7.878  11.870   0.937
69440W        W41755   9.728   6.416  14.480
69441W        W41756  31.681   3.245   5.045
69442W        W41757  30.154   4.290   0.474
69443W        W41758  27.002  31.278   5.480
69444W        W41759  39.636  11.480  11.966
69445W        W41760  44.427  33.010  13.417
69446W        W41761   3.450  25.980   2.817
69447W        W41762  20.812  20.760  12.999
69448W        W41763   5.871  10.671   4.941
69449W        W41764   8.860   8.741  11.888
69450W        W41765   0.916  12.351   1.283
69451W        W41766  39.182   9.157  10.692
69452W        W41767  41.469  34.058  11.950
69453W        W41768  18.621  11.642  14.377
69454W        W41769  10.895  25.584   4.103
69455W        W41770  24.679  32.390  14.363
69456W        W41771   6.689  26.537   4.755
69457W        W41772  22.221  36.688  14.131
69458W        W41773  11.723  28.602  13.497
69459W        W41774  28.893   6.684   0.638
69460W        W41775  33.070  32.209  11.628
69461W        W41776  34.486  40.858  12.481
69462W        W41777  24.690  17.337  12.987
69463W        W41778  30.034  21.299  14.749
69464W        W41779  32.775   9.332  11.122
69465W        W41780  28.128  42.331  12.003
69466W        W41781   5.181  40.006   4.503
69467W        W41782   2.985  13.276   4.160
69468W        W41783  44.073   4.628  11.132
69469W        W41784  22.437   7.856  12.011
69470W        W41785  41.287  36.432   3.282
69471W        W41786  33.839  10.322  11.646
69472W        W41787  14.170   2.086  14.193
69473W        W41788  18.750   8.258  10.634
69474W        W41789  25.484  40.585   4.658
69475W        W41790  35.358  18.892   4.087
69476W        W41791   7.899  30.608   2.399
69477W        W41792  32.843   6.124  14.988
69478W        W41793  29.791  25.786   1.664
69479W        W41794  30.206   3.900   1.708
69480W        W41795  32.094  31.657   1.745
69481W        W41796  19.365  16.668   0.002
69482W        W41797  20.942  32.103   2.696
69483W        W41798  13.666  24.940   4.318
69484W        W41799  20.532  25.484  13.753
69485W        W41800  16.661  23.860  11.487
69486W        W41801  34.583  42.935   0.977
69487W        W41802  23.552  27.561  13.887
69488W        W41803  24.007  19.246   3.355
69489W        W41804  18.742  30.690  13.334
69490W        W41805  35.978   8.080   0.832
69491W        W41806   5.911  21.045   0.430
69492W        W41807   6.294  38.315   1.921
69493W        W41808  17.068  14.578  12.733
69494W        W41809   9.207  27.708   3.391
69495W        W41810  30.342  42.680  11.737
69496W        W41811  28.022   0.769   2.373
69497W        W41812  23.699  42.822  12.333
69498W        W41813  26.509  15.126   2.787
69499W        W41814   4.192   1.009   3.657
69500W        W41815   6.754  44.222   3.923
69501W        W41816  27.673  22.169  13.060
69502W        W41817  13.334  37.152   0.498
69503W        W41818  37.268  24.258  12.087
69504W        W41819  41.908  24.292  13.065
69505W        W41820  22.274  35.977  12.827
69506W        W41821  17.344  15.351  12.044
69507W        W41822   8.260  33.980  11.238
69508W        W41823  24.506  27.877   4.830
69509W        W41824  18.212  29.445   0.999
69510W        W41825  11.865   8.913  12.537
69511W        W41826   9.983  21.909  11.096
69512W        W41827  37.143  30.296   3.641
69513W        W41828  44.040   0.416   1.878
69514W        W41829  22.782  32.339   3.681
69515W        W41830  36.631  15.016  12.419
69516W        W41831  35.033  42.724   2.748
69517W        W41832   8.420   9.218  12.925
69518W        W41833  31.396  39.537   1.869
69519W        W41834  33.079  18.195   1.178
69520W        W41835  11.454  20.418  14.025
69521W        W41836  39.564  27.563   1.204
69522W        W41837  15.369  35.001   0.451
69523W        W41838  27.922  31.917   3.515
69524W        W41839  43.456  36.655  12.069
69525W        W41840  24.502  10.396  14.682
69526W        W41841  44.260  30.618   2.767
69527W        W41842  39.754  19.226   2.757
69528W        W41843  31.198   4.771   1.484
69529W        W41844  40.852  34.378   4.492
69530W        W41845  11.287  15.747   4.189
69531W        W41846   4.352   2.375   2.375
69532W        W41847  10.887  39.661  14.795
69533W        W41848  34.976  29.014   4.655
69534W        W41849  41.871  25.162   3.361
69535W        W41850  44.485   5.473  13.379
69536W        W41851  42.026  40.040  14.341
69537W        W41852   1.823   9.399  14.870
69538W        W41853  18.269   5.934   3.260
69539W        W41854  25.113  44.814   4.168
69540W        W41855  35.570  34.620   2.620
69541W        W41856   9.270  15.929  11.419
69542W        W41857   7.904   7.206   0.866
69543W        W41858  17.242  30.347  10.962
69544W        W41859  44.400  20.212   1.799
69545W        W41860   4.716  13.281   2.217
69546W        W41861  26.781   9.331   1.727
69547W        W41862   6.181  25.146   0.532
69548W        W41863   8.705  31.617  12.058
69549W        W41864  40.254  28.484   0.256
69550W        W41865   5.133   5.347  14.493
69551W        W41866  24.045   1.070  13.963
69552W        W41867   0.673  34.873   3.358
69553W        W41868  37.347  33.509   0.937
69554W        W41869  38.955  33.034  14.810
69555W        W41870  41.011  34.160  14.349
69556W        W41871   9.901  42.451   4.824
69557W        W41872  41.868  44.392   1.673
69558W        W41873  15.705  38.060   2.847
69559W        W41874  21.042   7.249  12.155
69560W        W41875  21.759   7.314  13.891
69561W        W41876  22.466  20.227  12.141
69562W        W41877  41.771  42.051   0.781
69563W        W41878  13.711  39.033   4.628
69564W        W41879  31.044  13.843  13.466
69565W        W41880  41.329  13.879   3.767
69566W        W41881  43.213  23.508   1.745
69567W        W41882  17.120   3.829   4.222
69568W        W41883  21.914  39.859  13.201
69569W        W41884  42.982  36.571  13.324
69570W        W41885  11.584  31.554  13.865
69571W        W41886  17.618  36.488   4.163
69572W        W41887  21.961  30.351  12.955
69573W        W41888  32.626  15.551  11.546
69574W        W41889  38.393   0.330   0.943
69575W        W41890  20.067   1.781  11.527
69576W        W41891  28.988   3.190   3.639
69577W        W41892  42.048  28.274   4.808
69578W        W41893  20.579   2.830  13.862
69579W        W41894  14.343   2.615  11.126
69580W        W41895  25.010  29.714  12.045
69581W        W41896  20.505  37.735   2.133
69582W        W41897  41.375  35.184   4.633
69583W        W41898  12.896   1.806  14.501
69584W        W41899  13.835  34.840   1.830
69585W        W41900   1.267   0.342   1.340
69586W        W41901  20.671   7.684   3.665
69587W        W41902  43.585  36.334  10.894
69588W        W41903  17.288   9.116  10.856
69589W        W41904   9.468  13.073   3.271
69590W        W41905  16.217  15.166  12.795
69591W        W41906   9.567  42.443   0.796
69592W        W41907   6.015  18.244  12.463
69593W        W41908  34.344  37.068   0.437
69594W        W41909  40.802  13.614   2.758
69595W        W41910   8.065  38.617  14.881
69596W        W41911  16.086  27.991  11.109
69597W        W41912  24.284  41.857  14.828
69598W        W41913   2.948  37.265  14.558
69599W        W41914  12.638  44.926  11.223
69600W        W41915  32.439   8.048   4.111
69601W        W41916   7.389   8.940   3.416
69602W        W41917  26.254  12.294   0.773
69603W        W41918  21.516   9.108  11.118
69604W        W41919  40.918  32.593   4.379
69605W        W41920  32.198  10.419   0.281
69606W        W41921   4.894  24.543   1.425
69607W        W41922  13.653  39.921  11.497
69608W        W41923  24.053  39.806   2.151
69609W        W41924  37.066  16.078   4.081
69610W        W41925  10.124  43.180  13.793
69611W        W41926  12.420  31.513   1.613
69612W        W41927  28.174  27.248   1.050
69613W        W41928   2.786   8.238   0.966
69614W        W41929  14.545   0.344  13.949
69615W        W41930  11.914  41.159   4.479
69616W        W41931   9.415  45.000  11.933
69617W        W41932  15.302  22.450  13.627
69618W        W41933  18.640  27.474  13.678
69619W        W41934  22.419   3.259   5.138
69620W        W41935  30.464  34.252  11.136
69621W        W41936  19.042   5.319  14.947
69622W        W41937  21.070   8.811  14.892
69623W        W41938   2.301  25.525  11.549
69624W        W41939  28.505  42.196  12.330
69625W        W41940  23.645   7.724  14.313
69626W        W41941   6.759  33.881   0.431
69627W        W41942  35.988  39.924  11.650
69628W        W41943  18.805  33.585  13.400
69629W        W41944  27.001  17.016  10.730
69630W        W41945  36.893  12.645   2.251
69631W        W41946   7.354   2.747  10.939
69632W        W41947   1.936  41.211   3.665
69633W        W41948  13.292  28.642   0.359
69634W        W41949  13.422  35.408   4.221
69635W        W41950  19.583  13.780   1.359
69636W        W41951  17.366  17.913   2.044
69637W        W41952  34.867   2.782   3.823
69638W        W41953  18.826  27.473  11.122
69639W        W41954  20.318  36.458  11.556
69640W        W41955  34.847  34.068   2.966
69641W        W41956   7.382  41.484  12.959
69642W        W41957   2.788  35.391  10.413
69643W        W41958  33.062   5.035  11.407
69644W        W41959  40.278  11.146  12.586
69645W        W41960  15.417   5.869   1.256
69646W        W41961   3.696  33.319   2.238
69647W        W41962  41.686  25.500  14.018
69648W        W41963  24.104  18.862  14.903
69649W        W41964  17.007  26.028  13.235
69650W        W41965  17.765   1.702  10.822
69651W        W41966  10.512  42.488   4.933
69652W        W41967  33.863   0.711  11.631
69653W        W41968  37.628  36.867  13.953
69654W        W41969   3.525  43.992  13.918
69655W        W41970  41.913  41.743   3.638
69656W        W41971  42.053  30.177   4.703
69657W        W41972  16.205  39.010  12.585
69658W        W41973  21.364  10.317  12.324
69659W        W41974  10.829   8.214   4.439
69660W        W41975  42.900  16.242  14.335
69661W        W41976  44.101  18.845  13.421
69662W        W41977   7.674  22.858   2.663
69663W        W41978  33.147   3.914   2.712
69664W        W41979   6.712  39.403   2.829
69665W        W41980  21.467  36.407   2.701
69666W        W41981  15.732  29.612  13.418
69667W        W41982  14.544   3.934  12.912
69668W        W41983  38.379  25.722   3.343
69669W        W41984  21.956  44.341   4.188
69670W        W41985  30.575  33.170   0.966
69671W        W41986  30.577  13.665  14.742
69672W        W41987  15.991  16.271  11.410
69673W        W41988  12.115  26.778   1.750
69674W        W41989  25.506   0.548   2.553
69675W        W41990  42.311  29.211  14.915
69676W        W41991  21.755   5.684  12.911
69677W        W41992  24.558  16.648  13.024
69678W        W41993   2.751  44.748   0.853
69679W        W41994   1.775  22.088  13.763
69680W        W41995  18.203  33.890  13.678
69681W        W41996  14.335  29.771  12.505
69682W        W41997   3.888  12.918   4.423
69683W        W41998   3.234  33.182   0.970
69684W        W41999   8.950   4.910  14.425
69685W        W42000  22.027  20.077  11.842
69686W        W42001  11.282  13.898  10.751
69687W        W42002   5.859   2.299  12.968
69688W        W42003  15.311  33.564  14.411
69689W        W42004  17.663  40.136   3.204
69690W        W42005  42.020  12.125  13.967
69691W        W42006  21.171  40.843   0.510
69692W        W42007   3.176  36.367  12.205
69693W        W42008  24.922   0.289  13.095
69694W        W42009  39.554  11.734  10.479
69695W        W42010  24.742  36.297   2.834
69696W        W42011   2.785  19.350  14.413
69697W        W42012  36.587   5.137   3.222
69698W        W42013  38.281  38.006  11.933
69699W        W42014   5.453  21.679  10.785
69700W        W42015  32.893  20.530  10.737
69701W        W42016  27.070  13.222  12.595
69702W        W42017  17.163  11.789  13.680
69703W        W42018  10.724  36.110   2.888
69704W        W42019  26.504  23.857  14.165
69705W        W42020   1.244  30.942  11.589
69706W        W42021  38.996  21.756  10.496
69707W        W42022   1.805  13.711   2.946
69708W        W42023  30.681  33.909   4.091
69709W        W42024  31.221  18.797  11.048
69710W        W42025  18.092  37.704   2.009
69711W        W42026  16.363  40.949   3.838
69712W        W42027  11.658  29.011  12.832
69713W        W42028   1.837  33.916   0.465
69714W        W42029  28.648  10.718  11.789
69715W        W42030  16.577  12.135  14.245
69716W        W42031  43.972  17.359   2.099
69717W        W42032   4.561  41.368   0.373
69718W        W42033  15.099  43.544   1.573
69719W        W42034  41.313  28.228   0.458
69720W        W42035  38.380  42.122   2.067
69721W        W42036  15.271  16.112   4.585
69722W        W42037   6.437  38.005  13.836
69723W        W42038   2.259  34.883   1.889
69724W        W42039  16.830  17.313   4.517
69725W        W42040  27.698  22.938   2.306
69726W        W42041  12.079  32.996   1.330
69727W        W42042  22.052  30.051  11.648
69728W        W42043  42.759  16.754  13.183
69729W        W42044  25.879   1.371   3.280
69730W        W42045   6.265  34.188   4.637
69731W        W42046  12.615  23.012  12.437
69732W        W42047  43.273  27.605   4.109
69733W        W42048  43.172  28.873  14.443
69734W        W42049  29.708   0.955  11.837
69735W        W42050  12.878   3.915  10.962
69736W        W42051  32.563   4.582   2.794
69737W        W42052  18.491  18.465  14.443
69738W        W42053  23.613  25.276  13.412
69739W        W42054  10.345  23.038   2.630
69740W        W42055  38.243   5.739   2.361
69741W        W42056  35.433  11.838  13.045
69742W        W42057   2.365  30.460  14.886
69743W        W42058   0.668  33.050   2.074
69744W        W42059  27.203  30.529  13.741
69745W        W42060   1.544   0.955  12.873
69746W        W42061  12.822   6.159   4.930
69747W        W42062  10.159   9.064   0.776
69748W        W42063   4.338  32.569  10.581
69749W        W42064  18.045  37.436   0.988
69750W        W42065  21.672   6.096  11.163
69751W        W42066  43.401  37.797  13.121
69752W        W42067  21.165  12.378  12.636
69753W        W42068   6.442   1.601  13.882
69754W        W42069   5.440  34.154   3.599
69755W        W42070  35.216  41.440  11.638
69756W        W42071   1.357   2.393  12.891
69757W        W42072   5.945  21.518   3.977
69758W        W42073   5.534  25.848   1.303
69759W        W42074   6.822  44.376   2.903
69760W        W42075  32.671  11.025   2.832
69761W        W42076  35.110  28.850  10.932
69762W        W42077  38.537  10.400  14.859
69763W        W42078  30.411  28.443   2.698
69764W        W42079  28.441  43.502   0.827
69765W        W42080  28.993  18.851  12.955
69766W        W42081  22.779  12.707  13.871
69767W        W42082  33.789  25.654  12.538
69768W        W42083  15.551  18.534   3.603
69769W        W42084   3.878  19.658   3.099
69770W        W42085  35.161  18.581   2.708
69771W        W42086  19.885  44.214  12.028
69772W        W42087  11.806  26.637   5.084
69773W        W42088  14.399  15.036  13.914
69774W        W42089  26.463  36.682   4.040
69775W        W42090   4.657  12.606  14.839
69776W        W42091  37.546  39.935   4.202
69777W        W42092  27.513  31.723   0.240
69778W        W42093  17.323  35.047  11.134
69779W        W42094  37.124  16.218   2.817
69780W        W42095  25.144  18.247   1.611
69781W        W42096   1.737  38.060   2.186
69782W        W42097   4.309  41.685   0.887
69783W        W42098  42.308  18.588   2.748
69784W        W42099  44.228  34.259  10.995
69785W        W42100   3.862  23.504  14.025
69786W        W42101  33.121   0.861   1.507
69787W        W42102  25.225  14.890   0.660
69788W        W42103  16.362  28.108  13.452
69789W        W42104  39.748  30.172   3.718
69790W        W42105  26.886  30.077  12.555
69791W        W42106  17.673  19.350  14.942
69792W        W42107  21.153   5.773   3.951
69793W        W42108  14.750  23.521   4.641
69794W        W42109   4.530   0.016   3.745
69795W        W42110  43.075  30.740  11.434
69796W        W42111  33.818   7.439   2.894
69797W        W42112  25.474  19.883   5.648
69798W        W42113  21.123   5.852   0.445
69799W        W42114  16.082  21.782  14.934
69800W        W42115   2.300  17.876  11.308
69801W        W42116  28.380   6.326   3.665
69802W        W42117   9.463  13.304   0.792
69803W        W42118  23.012   2.915   2.227
69804W        W42119  42.972   8.778   1.899
69805W        W42120  30.603  42.018   2.180
69806W        W42121  27.441  35.904   1.433
69807W        W42122  38.011  18.098   2.132
69808W        W42123  33.070  34.610   0.187
69809W        W42124  42.143   6.520   5.015
69810W        W42125  36.985  30.074  11.429
69811W        W42126  16.195  20.602  12.935
69812W        W42127  35.103  11.019  13.336
69813W        W42128  35.599  30.886  11.139
69814W        W42129  36.540  34.199  14.055
69815W        W42130   2.042  19.086   3.400
69816W        W42131  26.135  20.061  11.006
69817W        W42132  20.164   0.753   3.689
69818W        W42133  10.124  28.002  14.166
69819W        W42134  32.971  39.723   3.149
69820W        W42135  11.151  29.433   0.098
69821W        W42136  42.100  18.141   4.594
69822W        W42137   9.493  22.151  13.571
69823W        W42138   2.197   8.320   3.168
69824W        W42139  13.603   6.905  14.315
69825W        W42140  21.132  18.316  14.786
69826W        W42141  27.123  12.770   4.161
69827W        W42142  15.372   4.447  14.002
69828W        W42143   5.230  38.372  13.833
69829W        W42144  25.250  10.262   4.656
69830W        W42145   3.857  23.017   2.329
69831W        W42146  22.205   8.638   1.757
69832W        W42147   2.828   2.407   2.261
69833W        W42148  34.370  12.143  14.836
69834W        W42149  31.458  16.491   4.157
69835W        W42150  32.665   4.110   0.669
69836W        W42151  15.851  30.436  11.081
69837W        W42152   0.860   0.079   2.549
69838W        W42153  23.912   9.848  10.514
69839W        W42154  44.535  22.834   4.611
69840W        W42155  17.294  21.264   3.188
69841W        W42156  12.323   3.192   0.435
69842W        W42157   7.408  20.728   3.074
69843W        W42158  41.300   5.677   1.883
69844W        W42159   3.442  21.193  10.594
69845W        W42160  11.563  19.123  12.228
69846W        W42161  26.707  41.568   2.647
69847W        W42162  38.504  24.988  13.794
69848W        W42163  25.661  14.540  11.667
69849W        W42164  37.160  19.647   1.687
69850W        W42165  29.434  10.064   0.808
69851W        W42166  36.444   3.496   2.249
69852W        W42167  31.854  21.759  12.945
69853W        W42168  13.862  27.198  13.962
69854W        W42169  34.689  27.073   3.367
69855W        W42170   1.434   6.485   4.329
69856W        W42171  14.871   9.365  12.359
69857W        W42172  28.178  39.367   2.152
69858W        W42173  28.480  44.280   1.764
69859W        W42174  40.022  42.696  11.257
69860W        W42175  30.507  33.571  13.662
69861W        W42176  22.045   0.750   2.292
69862W        W42177  18.518  38.619  11.173
69863W        W42178  10.792  18.288  10.277
69864W        W42179   3.481  31.271  11.147
69865W        W42180  20.002  44.762   2.093
69866W        W42181   5.214  40.453  10.655
69867W        W42182  31.484   0.922  11.105
69868W        W42183  39.934   2.945  10.570
69869W        W42184  24.940  28.237  11.045
69870W        W42185  16.926  38.233   3.595
69871W        W42186   2.023  43.851   4.381
69872W        W42187   2.780  31.856   0.815
69873W        W42188  30.170  20.161   3.684
69874W        W42189  16.741   0.490  14.293
69875W        W42190  30.950   6.511  11.937
69876W        W42191  12.752  24.006  11.735
69877W        W42192   3.395  35.493   4.884
69878W        W42193  20.638  23.006  12.812
69879W        W42194  23.636  24.892  13.893
69880W        W42195  38.100  43.009  11.650
69881W        W42196  33.983  33.387   0.926
69882W        W42197   0.834   9.754   1.579
69883W        W42198  23.467  13.570  14.198
69884W        W42199  30.596  35.504  12.851
69885W        W42200  44.667   9.209  10.979
69886W        W42201   2.286  23.257  12.509
69887W        W42202  33.008  29.071  11.255
69888W        W42203  31.420   9.323   2.173
69889W        W42204   1.970  18.787  11.606
69890W        W42205   7.199  21.074  12.893
69891W        W42206   0.422  10.844  13.762
69892W        W42207  25.052  12.283  13.051
69893W        W42208  21.105   1.371   1.683
69894W        W42209  26.783  32.852   4.635
69895W        W42210  39.374  40.332  12.825
69896W        W42211   3.224  10.433  10.896
69897W        W42212  21.980  22.070  14.423
69898W        W42213  13.155  21.043  13.277
69899W        W42214  42.317   2.265  13.930
69900W        W42215  35.835   5.742  12.012
69901W        W42216  23.462  35.461  13.810
69902W        W42217  38.735  43.049   4.600
69903W        W42218  28.082  15.560   0.406
69904W        W42219   4.390  41.687   3.316
69905W        W42220  16.732  44.332  11.127
69906W        W42221  38.585  37.211  11.088
69907W        W42222   2.613  19.103   4.183
69908W        W42223  36.397  43.385  14.602
69909W        W42224  38.285   9.471  12.008
69910W        W42225  35.327  18.202   4.671
69911W        W42226  42.517   0.295   0.870
69912W        W42227  16.522  20.669   0.437
69913W        W42228  26.018  27.153  11.218
69914W        W42229  26.433  11.752  13.059
69915W        W42230   5.518  10.088   3.263
69916W        W42231  41.993  21.775  14.930
69917W        W42232  11.683  38.184   2.419
69918W        W42233  41.951  35.316  12.364
69919W        W42234   4.525  25.294  12.402
69920W        W42235  33.183  36.083  14.401
69921W        W42236  43.577  35.001  10.159
69922W        W42237   2.542  38.908  12.930
69923W        W42238  19.927  16.247  13.887
69924W        W42239   6.207  30.073   0.777
69925W        W42240  32.526  26.955   2.719
69926W        W42241  27.491  13.740   1.408
69927W        W42242  28.995  40.715  12.903
69928W        W42243  10.752   2.349  11.930
69929W        W42244  10.226  41.741  12.653
69930W        W42245  33.524  33.136   0.784
69931W        W42246  14.696  30.606   3.665
69932W        W42247   8.904  14.962  11.363
69933W        W42248  38.830  40.300   4.478
69934W        W42249   6.816  27.875  11.669
69935W        W42250  16.800   1.744   1.890
69936W        W42251  24.533  32.747   2.270
69937W        W42252  30.499  14.625   1.797
69938W        W42253  30.019  22.055   0.949
69939W        W42254  26.120  24.658  12.603
69940W        W42255   2.908   3.202  13.152
69941W        W42256  13.227  28.585  10.992
69942W        W42257  14.635  26.601   4.449
69943W        W42258   2.408  44.498   0.435
69944W        W42259  21.486  40.375   4.270
69945W        W42260  33.005  30.501   4.574
69946W        W42261  34.820  33.103   4.538
69947W        W42262  38.992  10.196   2.199
69948W        W42263  25.566  27.134   4.612
69949W        W42264   1.980  22.946  11.604
69950W        W42265  29.529   0.293  10.244
69951W        W42266   2.383   2.771   1.274
69952W        W42267  33.112  12.305  11.525
69953W        W42268  23.615  36.534   4.209
69954W        W42269  22.177  10.464  14.679
69955W        W42270   0.671  34.447  11.305
69956W        W42271  23.340  15.890  13.059
69957W        W42272  18.178   6.166   1.685
69958W        W42273  41.960  34.675   1.867
69959W        W42274  25.258  18.552  13.378
69960W        W42275  13.308  25.586  12.387
69961W        W42276  12.178  25.392  13.484
69962W        W42277  25.728  43.400  11.624
69963W        W42278  38.026  35.974   1.867
69964W        W42279   3.403   3.067  12.290
69965W        W42280  26.668   7.780  10.235
69966W        W42281   1.154  12.330   1.786
69967W        W42282  29.607  41.274   0.530
69968W        W42283  40.323  35.043  14.297
69969W        W42284  22.249  24.828  13.923
69970W        W42285  30.937  30.051   4.671
69971W        W42286  33.908  32.575  13.557
69972W        W42287  34.030  23.577   0.755
69973W        W42288  39.761  20.897  11.919
69974W        W42289  18.653  23.879  14.972
69975W        W42290   8.408  19.770   3.735
69976W        W42291  11.126  44.883  14.791
69977W        W42292  39.959  33.510  12.432
69978W        W42293  33.842  30.336   2.626
69979W        W42294  37.304   1.214   0.297
69980W        W42295   5.479  22.748  13.019
69981W        W42296  28.606   3.047   3.263
69982W        W42297   5.363   7.718  11.200
69983W        W42298  29.721   9.916   2.172
69984W        W42299   0.617  39.944  10.411
69985W        W42300  23.988   2.408  12.050
69986W        W42301  11.392  36.089  13.471
69987W        W42302  33.147   5.639   4.456
69988W        W42303  19.777  26.578  10.435
69989W        W42304  29.840  20.609  13.584
69990W        W42305  44.292   6.345   4.628
69991W        W42306  26.069  32.528   4.003
69992W        W42307  22.404  14.181  10.036
69993W        W42308  26.661  23.119   1.285
69994W        W42309  18.806  23.666  11.639
69995W        W42310  23.118  10.715   4.590
69996W        W42311   0.874  39.557   1.668
69997W        W42312  37.360  28.621   0.388
69998W        W42313  35.802  32.472  13.039
69999W        W42314  18.154  26.034   0.460
70000W        W42315  33.909  27.842  12.568
70001W        W42316  22.151   2.889  10.696
70002W        W42317  18.711  30.819  12.412
70003W        W42318   2.392  37.155  12.696
70004W        W42319  14.780  37.331   5.348
70005W        W42320  18.080  44.420   0.395
70006W        W42321  35.321  35.073   0.248
70007W        W42322   6.901  20.432  13.366
70008W        W42323  18.401  14.252   0.687
70009W        W42324  36.061  16.769  12.613
70010W        W42325  18.619   3.189  13.056
70011W        W42326   0.851  22.223  10.496
70012W        W42327  19.198   8.940  13.845
70013W        W42328  11.188  11.146   1.905
70014W        W42329  16.317  29.033   4.582
70015W        W42330  30.449  44.032   1.233
70016W        W42331  12.113   7.695   2.306
70017W        W42332   8.945  32.449  10.506
70018W        W42333  35.127  38.116   2.288
70019W        W42334  14.180   7.471   4.147
70020W        W42335   0.908  31.202   1.778
70021W        W42336   2.877  30.481   4.357
70022W        W42337  30.780  21.195  11.966
70023W        W42338  28.440   4.884   5.115
70024W        W42339  16.663  33.112   2.626
70025W        W42340   6.991  30.312  11.628
70026W        W42341  23.993  38.499  12.652
70027W        W42342   5.871   8.879  10.597
70028W        W42343   2.931   7.084   0.286
70029W        W42344   7.642  35.598  12.598
70030W        W42345  38.221   0.684   1.274
70031W        W42346  31.424   7.386   3.826
70032W        W42347  43.622  12.011  11.779
70033W        W42348  13.188  26.361  14.310
70034W        W42349   3.659   7.881  14.449
70035W        W42350  44.349   7.328  12.322
70036W        W42351  30.136  12.765   1.876
70037W        W42352  27.517  24.245  13.955
70038W        W42353   5.395   9.345   0.246
70039W        W42354  44.405  13.614  14.053
70040W        W42355  44.057  43.982  13.812
70041W        W42356   1.264  38.511  11.497
70042W        W42357  16.132  19.107   4.630
70043W        W42358  26.556  26.011  13.426
70044W        W42359  24.655  32.533   3.106
70045W        W42360  20.153   0.530  14.251
70046W        W42361  39.812  33.215  12.046
70047W        W42362   9.338   8.759   3.814
70048W        W42363  19.000   9.995   3.263
70049W        W42364  11.127  15.057  11.524
70050W        W42365   8.901  43.372  14.935
70051W        W42366  33.443  14.594   0.217
70052W        W42367   8.966   8.276  12.089
70053W        W42368   7.416  40.401   4.719
70054W        W42369  12.081  32.968  13.001
70055W        W42370  42.865  36.245  14.853
70056W        W42371  16.625   0.756   3.809
70057W        W42372  30.605   1.750   3.750
70058W        W42373   0.472  30.712   3.328
70059W        W42374  29.839  44.273   0.061
70060W        W42375  42.446  23.031   1.301
70061W        W42376   7.952  32.063   1.154
70062W        W42377  23.774   7.819   3.347
70063W        W42378   5.205  17.110  12.970
70064W        W42379  14.384  38.240  13.964
70065W        W42380  35.476  15.986   2.866
70066W        W42381  20.222  20.025  11.691
70067W        W42382  10.774  33.104   4.550
70068W        W42383  40.158   7.273   4.104
70069W        W42384   6.697  35.923  14.575
70070W        W42385  12.749  20.283   0.362
70071W        W42386  34.047   6.414   3.615
70072W        W42387  19.993   3.858   3.224
70073W        W42388  44.329  16.604  14.889
70074W        W42389   1.179   8.928  14.397
70075W        W42390  42.940  37.548   2.844
70076W        W42391  15.333  38.270  13.724
70077W        W42392   4.778  15.836   4.844
70078W        W42393  22.600  12.139   4.549
70079W        W42394  14.735   2.191  14.429
70080W        W42395  28.073  36.047  13.891
70081W        W42396  17.214  36.958   3.322
70082W        W42397  21.009  36.527  10.967
70083W        W42398   9.236  32.200  14.769
70084W        W42399   4.998   9.336  13.992
70085W        W42400  20.108  18.710  11.584
70086W        W42401   5.898  44.005  13.385
70087W        W42402   2.022  17.973  14.981
70088W        W42403   3.853  39.455  14.744
70089W        W42404  36.596  35.921   4.076
70090W        W42405  39.062   8.441  12.027
70091W        W42406  38.312  29.023  11.200
70092W        W42407  44.396  38.458   3.250
70093W        W42408   6.441  36.055   4.621
70094W        W42409  38.366  12.743   1.329
70095W        W42410   3.859  43.698   4.414
70096W        W42411  39.890   9.912  10.672
70097W        W42412  18.169   7.937   4.067
70098W        W42413   1.802  31.947   1.149
70099W        W42414  35.564  13.899  12.018
70100W        W42415  20.487  25.221   2.305
70101W        W42416   7.936   8.656   4.684
70102W        W42417   5.905   7.506  10.598
70103W        W42418  38.143  38.416   3.525
70104W        W42419  22.611  13.074  12.587
70105W        W42420  32.352  17.889  11.140
70106W        W42421  15.902  32.356   2.438
70107W        W42422  38.357  22.985  12.911
70108W        W42423  24.974   2.457   0.699
70109W        W42424  13.457  42.865   4.459
70110W        W42425  16.715  36.278  11.200
70111W        W42426  36.965  20.558  13.428
70112W        W42427  16.735  30.160   4.629
70113W        W42428  19.287  27.430   3.343
70114W        W42429   5.760  27.935  13.583
70115W        W42430  34.510  22.106   4.922
70116W        W42431  30.682  38.829   3.687
70117W        W42432  15.272  34.081  14.407
70118W        W42433  34.074  19.079  13.341
70119W        W42434  40.786   3.763  13.767
70120W        W42435  10.097  33.904   1.619
70121W        W42436  37.291  31.564   0.441
70122W        W42437  40.739  22.534   1.947
70123W        W42438  35.029  24.806  13.601
70124W        W42439  27.792  30.054   1.566
70125W        W42440   5.211  41.708  14.788
70126W        W42441  31.619  13.814   1.692
70127W        W42442   2.474  31.943  10.161
70128W        W42443  30.033  15.816  11.650
70129W        W42444  11.779  16.642  11.020
70130W        W42445  25.056  31.093   3.676
70131W        W42446  26.624  26.459  10.583
70132W        W42447  18.175  41.681  13.400
70133W        W42448  10.255  12.338   3.557
70134W        W42449   5.275   0.298  12.979
70135W        W42450  33.234  42.674  11.028
70136W        W42451   7.732   4.694   4.523
70137W        W42452  19.590  36.314   2.602
70138W        W42453  32.969   2.783  14.917
70139W        W42454  21.146  24.503  13.356
70140W        W42455  41.115  11.302   2.890
70141W        W42456  39.624  18.516   0.825
70142W        W42457  21.212  11.925  14.851
70143W        W42458  28.322  31.099  10.118
70144W        W42459  34.607  15.178  14.017
70145W        W42460  44.450  32.719   4.671
70146W        W42461  34.053   1.917  11.125
70147W        W42462  35.123  13.680  12.171
70148W        W42463   7.715  32.135  12.932
70149W        W42464  15.130  34.987  14.102
70150W        W42465   2.209  21.050  12.370
70151W        W42466  36.823  31.667  11.053
70152W        W42467   5.403  24.593  11.145
70153W        W42468  29.502  13.604  10.902
70154W        W42469  29.998  29.176   0.398
70155W        W42470  14.665  26.195  11.726
70156W        W42471  41.877  15.142   2.668
70157W        W42472  42.254  38.449   2.258
70158W        W42473  14.364  39.769  11.112
70159W        W42474   0.385  17.146  14.588
70160W        W42475   0.263   4.432  12.409
70161W        W42476   7.748  18.409  11.513
70162W        W42477  16.979  31.722  14.000
70163W        W42478  37.543   8.457  12.566
70164W        W42479  39.940   1.486  11.557
70165W        W42480  18.136  19.422   0.270
70166W        W42481  17.152  27.542   1.517
70167W        W42482   3.831  28.236  10.577
70168W        W42483  43.585  41.489   5.170
70169W        W42484  11.135  21.313   2.899
70170W        W42485  32.882   6.720  14.054
70171W        W42486   7.436  16.766  13.805
70172W        W42487  24.427  16.693   3.688
70173W        W42488  10.709  41.891  14.490
70174W        W42489  36.632   8.824   1.490
70175W        W42490  40.252  43.625   0.977
70176W        W42491   0.818   5.997  11.627
70177W        W42492  26.254  39.349   4.199
70178W        W42493  37.347  25.168   0.819
70179W        W42494  33.544  32.871   1.232
70180W        W42495  22.082  41.802   3.195
70181W        W42496  39.312   6.671   2.775
70182W        W42497   4.131   2.711  13.006
70183W        W42498  25.491  14.712   3.241
70184W        W42499   5.496  22.025   2.430
70185W        W42500  18.703   1.361   2.256
70186W        W42501  10.708  30.866  11.657
70187W        W42502  16.306  34.083   0.007
70188W        W42503  38.133   3.131   4.992
70189W        W42504   3.189  27.671   2.245
70190W        W42505  44.468  34.668   0.237
70191W        W42506  44.438  33.384   0.610
70192W        W42507   2.917  22.648  13.490
70193W        W42508  40.755  23.320   0.298
70194W        W42509  43.861  26.939   2.817
70195W        W42510  16.231   6.497   0.899
70196W        W42511   0.914   0.329  11.592
70197W        W42512  18.050   6.821  14.190
70198W        W42513  19.688   6.340   1.852
70199W        W42514  12.229  37.051  11.581
70200W        W42515  13.239  18.691  10.595
70201W        W42516  26.056  17.961  14.767
70202W        W42517  15.251  16.188  10.732
70203W        W42518  16.059   2.681   2.022
70204W        W42519  13.499  39.947   3.822
70205W        W42520  15.039  15.517   0.855
70206W        W42521   3.910  18.102  12.000
70207W        W42522   7.006  27.920   2.370
70208W        W42523  33.006  28.444  12.469
70209W        W42524  20.703  19.988   0.477
70210W        W42525  26.938  12.172  11.992
70211W        W42526   7.172  16.998  14.961
70212W        W42527   4.412  25.431  11.889
70213W        W42528  40.077  18.249   2.867
70214W        W42529  24.109  26.566   2.776
70215W        W42530  24.943   6.770   0.475
70216W        W42531   1.259  13.082  13.749
70217W        W42532  36.637   4.803  14.901
70218W        W42533   5.011  22.358  13.024
70219W        W42534  19.752   4.816  14.871
70220W        W42535  39.987  38.907  12.413
70221W        W42536  10.898  31.709  13.402
70222W        W42537  23.475   8.803  13.897
70223W        W42538  25.204   0.821  11.531
70224W        W42539  39.764  11.294  11.208
70225W        W42540  16.922  13.238  12.353
70226W        W42541  43.450  38.359  10.667
70227W        W42542  12.290  43.283  11.253
70228W        W42543   4.919  18.502  12.497
70229W        W42544  39.863  22.674  11.211
70230W        W42545  43.500  43.186   2.804
70231W        W42546  38.996  35.580   2.212
70232W        W42547  15.794  25.316   1.354
70233W        W42548  14.795  22.449  12.263
70234W        W42549  17.222  32.676   0.365
70235W        W42550   0.090  32.918  11.142
70236W        W42551  42.312  41.296   0.857
70237W        W42552  21.202  27.057  13.535
70238W        W42553  28.357  31.647   1.402
70239W        W42554  42.808  36.136  13.562
70240W        W42555  22.299  37.069   4.099
70241W        W42556  16.126  11.263   0.436
70242W        W42557  34.364  17.756  11.040
70243W        W42558  15.376   4.907  12.429
70244W        W42559  42.969  15.183  14.437
70245W        W42560  34.576  30.650  10.962
70246W        W42561  22.603  13.032  13.511
70247W        W42562  27.399  18.179   3.355
70248W        W42563  41.499  32.077  14.594
70249W        W42564  41.583  43.776  10.681
70250W        W42565  38.053  28.683   1.199
70251W        W42566  37.467  34.083   0.787
70252W        W42567  24.507   4.618  13.326
70253W        W42568  43.902  17.771   4.738
70254W        W42569  24.526  16.467   1.237
70255W        W42570   7.300   8.452  12.888
70256W        W42571  35.075  27.983  14.380
70257W        W42572  27.497  37.127  12.945
70258W        W42573  12.227  43.344   2.776
70259W        W42574  25.460  21.261   4.624
70260W        W42575  42.925   1.741   3.345
70261W        W42576  19.001  12.652  12.928
70262W        W42577  15.541  29.913  13.062
70263W        W42578  23.167  32.175   1.246
70264W        W42579  41.799  34.553  14.893
70265W        W42580  15.401  16.688   2.983
70266W        W42581  33.186  16.670  12.017
70267W        W42582  37.391  18.358   4.854
70268W        W42583  23.241  15.766  11.420
70269W        W42584  40.620  34.027  13.486
70270W        W42585  17.730   0.307  10.988
70271W        W42586  22.740  27.636  13.333
70272W        W42587  36.198  37.858   3.292
70273W        W42588  42.096  23.898  10.119
70274W        W42589  33.925  35.996   2.549
70275W        W42590  23.754  39.777  12.471
70276W        W42591  31.976  12.125   4.627
70277W        W42592   1.953  23.085   1.924
70278W        W42593  21.890   6.535   4.456
70279W        W42594   6.079  31.990   5.018
70280W        W42595  13.232  27.594  11.239
70281W        W42596  39.325  42.861  12.003
70282W        W42597  33.986  11.249   2.704
70283W        W42598  40.363  26.948   1.098
70284W        W42599  43.383  23.364   1.259
70285W        W42600  20.258  19.614  11.395
70286W        W42601   3.688  11.146  10.538
70287W        W42602   2.343  36.000   9.697
70288W        W42603  44.982  39.900  11.227
70289W        W42604  22.767  32.822   3.868
70290W        W42605  13.340  29.580  12.136
70291W        W42606  39.479   3.483   0.988
70292W        W42607  23.258  13.862   4.311
70293W        W42608   1.192  26.607  14.915
70294W        W42609  36.570  42.618  10.195
70295W        W42610  41.951  11.267   4.530
70296W        W42611  29.724  32.729   1.849
70297W        W42612  28.443  20.905  13.724
70298W        W42613   7.366   3.394   0.870
70299W        W42614  21.133  28.965   2.353
70300W        W42615  26.552  15.314   4.571
70301W        W42616   5.049   3.233   4.325
70302W        W42617   6.624   5.909  12.416
70303W        W42618   4.989  16.739   4.676
70304W        W42619  21.213  11.639   0.391
70305W        W42620  21.549  44.237  11.582
70306W        W42621  13.892   3.228  13.007
70307W        W42622  24.201   8.521   4.861
70308W        W42623  41.352  26.583  12.543
70309W        W42624  29.486  16.217   0.314
70310W        W42625   3.625   9.641   1.704
70311W        W42626   7.144  36.610  12.563
70312W        W42627  33.972   3.590   3.316
70313W        W42628  24.336   5.745  11.428
70314W        W42629  18.565  24.280  13.516
70315W        W42630  42.815  13.775  12.930
70316W        W42631  27.887   1.256  11.877
70317W        W42632  11.814   7.313  14.483
70318W        W42633   9.934   8.432  12.349
70319W        W42634   8.142  32.794   0.116
70320W        W42635  37.511  35.896   0.938
70321W        W42636  21.584   2.028   3.193
70322W        W42637   3.507  25.211  12.572
70323W        W42638  24.255  21.874  14.972
70324W        W42639  40.929  13.638  13.435
70325W        W42640  36.836  25.102  12.947
70326W        W42641  38.902   3.457   2.378
70327W        W42642  18.710  27.074   0.860
70328W        W42643  18.230  35.897  10.308
70329W        W42644   1.903  41.438   3.182
70330W        W42645  22.187  32.429   0.003
70331W        W42646   4.472  13.332  14.456
70332W        W42647  40.948   9.294   4.900
70333W        W42648  38.031  16.980  11.640
70334W        W42649  26.454  32.300  12.504
70335W        W42650  29.102  21.013  13.362
70336W        W42651  15.126  29.904  10.270
70337W        W42652  29.024   9.736   0.718
70338W        W42653  26.045  19.497  14.822
70339W        W42654   5.585   8.591  12.641
70340W        W42655  38.548  41.765  10.458
70341W        W42656  19.520  14.500   4.191
70342W        W42657  14.537  26.195   0.149
70343W        W42658  32.857  35.181   3.515
70344W        W42659  24.347  23.268   1.637
70345W        W42660  38.976  40.022  14.040
70346W        W42661  15.389   7.197   3.635
70347W        W42662  25.190  40.739   5.087
70348W        W42663  12.912  38.856   0.350
70349W        W42664  14.746  37.644   1.662
70350W        W42665  32.631  39.766  10.639
70351W        W42666  34.900  11.897  14.335
70352W        W42667   6.614   3.707   2.796
70353W        W42668  18.825  14.351  13.915
70354W        W42669   2.939  30.501  11.430
70355W        W42670  26.619  41.477  10.906
70356W        W42671  22.195  33.331  12.056
70357W        W42672  31.581  22.519  11.176
70358W        W42673  28.778  25.639  13.807
70359W        W42674  24.656  16.277   2.446
70360W        W42675   7.697  16.074   1.808
70361W        W42676   5.894  15.638  13.875
70362W        W42677  21.198  11.727   2.145
70363W        W42678  33.533  16.943   0.483
70364W        W42679  33.246  23.216   1.899
70365W        W42680  27.433   8.709   3.740
70366W        W42681  32.985  27.267  11.159
70367W        W42682   4.489  15.682  11.188
70368W        W42683  15.484   1.678  12.036
70369W        W42684  17.211  22.911  10.173
70370W        W42685   9.663  22.504  11.980
70371W        W42686  21.818  22.273  14.881
70372W        W42687  40.427  43.438  11.634
70373W        W42688   9.478   0.813   0.843
70374W        W42689  39.938  44.085   4.342
70375W        W42690  30.553  19.598  11.955
70376W        W42691  13.285  42.317   1.473
70377W        W42692  35.925  18.244  10.771
70378W        W42693  43.827  37.117   1.374
70379W        W42694   0.657  30.678  10.143
70380W        W42695  16.172  31.880  12.187
70381W        W42696  44.401  28.883  13.902
70382W        W42697   6.068  17.339  12.169
70383W        W42698  42.531   7.775  12.174
70384W        W42699  12.622  13.821   2.898
70385W        W42700  13.642  29.956   2.220
70386W        W42701  11.403  36.368   0.375
70387W        W42702  43.773  29.065  12.032
70388W        W42703  12.748   8.047  14.075
70389W        W42704  13.197  12.779  14.917
70390W        W42705  32.689  41.951   0.460
70391W        W42706  14.198  17.011   4.558
70392W        W42707  39.806  31.890   2.471
70393W        W42708  30.159  24.718   2.487
70394W        W42709  22.058  13.031   0.829
70395W        W42710  44.945  14.225   1.436
70396W        W42711  17.152  25.307   0.813
70397W        W42712  14.203   0.896   1.200
70398W        W42713  17.694  33.235   0.660
70399W        W42714  16.344  39.541   5.378
70400W        W42715   3.441   1.666   0.762
70401W        W42716  44.236  32.031  12.937
70402W        W42717   8.986  17.479   0.812
70403W        W42718  12.569  27.650   3.806
70404W        W42719  34.068  42.081   2.450
70405W        W42720  31.439  44.222   2.783
70406W        W42721  40.393   1.532   4.109
70407W        W42722  31.183  22.258  14.530
70408W        W42723  24.213  27.493   3.653
70409W        W42724  35.993  14.804   1.388
70410W        W42725  28.543   2.414  14.617
70411W        W42726   3.795  16.351  12.467
70412W        W42727  24.173  11.093   0.014
70413W        W42728  23.800  39.646   4.174
70414W        W42729  11.794   0.759   3.384
70415W        W42730  37.427  11.152  13.059
70416W        W42731  31.997  16.212  13.066
70417W        W42732   5.792  29.092   0.755
70418W        W42733   8.720  16.649  12.101
70419W        W42734  11.788  33.352  10.934
70420W        W42735   3.976  32.888   2.157
70421W        W42736   1.299   2.355   3.641
70422W        W42737  37.084  36.000   2.804
70423W        W42738   1.897  15.883   1.843
70424W        W42739  30.023  19.262   0.900
70425W        W42740  22.673  23.381  12.102
70426W        W42741   5.223  19.588   5.019
70427W        W42742  29.351  19.831   1.888
70428W        W42743  23.947  39.503   0.064
70429W        W42744  10.394  33.375   3.919
70430W        W42745   8.317  14.052   4.991
70431W        W42746   4.437  40.062  10.656
70432W        W42747  42.040  28.502  12.185
70433W        W42748  12.304   5.187   2.745
70434W        W42749   7.592  25.795   5.042
70435W        W42750   9.600  21.422   4.070
70436W        W42751  33.576   0.360  13.339
70437W        W42752  13.475   3.826   2.309
70438W        W42753  12.789  25.556  11.651
70439W        W42754  14.511  23.324   3.308
70440W        W42755  19.571  12.320   4.631
70441W        W42756  42.329  10.429  12.999
70442W        W42757  18.909  12.918   0.626
70443W        W42758  15.863  41.139  12.957
70444W        W42759  43.274  18.687   2.756
70445W        W42760  24.865  19.325  12.333
70446W        W42761  29.684   9.192   0.759
70447W        W42762  33.843  34.469   3.088
70448W        W42763   7.343   3.344   3.820
70449W        W42764  37.491   1.933  13.603
70450W        W42765  39.464  26.282  11.050
70451W        W42766  42.334   9.167   2.743
70452W        W42767  21.939  24.631   1.424
70453W        W42768  21.659  27.009   2.415
70454W        W42769   9.242  35.912   4.667
70455W        W42770  16.868  23.170   1.421
70456W        W42771  20.300  28.491   1.701
70457W        W42772  22.668  27.696   3.233
70458W        W42773  44.375  19.671   3.712
70459W        W42774  30.653  42.083   0.185
70460W        W42775  16.239  14.655  11.989
70461W        W42776  20.118  16.259   1.268
70462W        W42777   2.540  16.382  12.601
70463W        W42778  26.238  13.836  13.488
70464W        W42779  24.076  43.549  13.259
70465W        W42780   8.417  43.413  11.669
70466W        W42781  35.573  15.150   0.769
70467W        W42782   9.395  17.062  14.002
70468W        W42783  37.245  32.821   4.528
70469W        W42784   5.265  33.096   3.659
70470W        W42785  37.599  30.561  11.542
70471W        W42786  36.149  36.911  13.894
70472W        W42787  21.766  32.049   4.185
70473W        W42788  16.227  28.726  11.537
70474W        W42789  12.744  16.086   2.226
70475W        W42790  35.509   0.542   4.590
70476W        W42791  11.353  18.760  11.035
70477W        W42792  28.448  40.500  10.581
70478W        W42793  14.625  30.070  13.292
70479W        W42794  22.486  27.687   4.093
70480W        W42795  25.811  28.497   0.382
70481W        W42796  15.429  43.391  13.015
70482W        W42797  13.757   0.439   3.858
70483W        W42798  21.318  12.574  11.944
70484W        W42799  20.240  12.930   4.174
70485W        W42800  41.390   7.471  13.735
70486W        W42801  10.876  19.978   0.734
70487W        W42802  22.809   6.273  11.178
70488W        W42803  43.742  38.853   3.261
70489W        W42804  20.060  40.518   2.816
70490W        W42805  35.629   6.266   4.676
70491W        W42806  34.595  19.544   2.706
70492W        W42807   3.557   5.823  11.746
70493W        W42808   2.887   2.923  13.846
70494W        W42809  37.980  12.406   1.255
70495W        W42810  37.546  43.174  10.967
70496W        W42811  23.990  18.223   3.130
70497W        W42812  36.243  12.636   4.294
70498W        W42813  31.274  43.782  12.647
70499W        W42814  13.160  33.986  11.406
70500W        W42815  33.496  20.334   0.816
70501W        W42816  26.215  18.722  12.560
70502W        W42817  44.806   2.950  13.248
70503W        W42818  40.633  31.881  11.603
70504W        W42819  40.755  22.311   2.852
70505W        W42820  20.540  33.910   0.251
70506W        W42821  11.110  28.752   4.576
70507W        W42822  33.647  40.155  10.372
70508W        W42823  40.796  33.556   2.873
70509W        W42824   3.920   0.959   3.210
70510W        W42825  15.212  20.570  11.843
70511W        W42826  20.686  33.812  11.623
70512W        W42827   6.145   1.806  12.532
70513W        W42828  19.782  10.960  11.563
70514W        W42829   3.803   6.675  13.880
70515W        W42830  26.366  22.719   1.805
70516W        W42831  18.189  32.616  12.398
70517W        W42832   3.536  14.071   3.627
70518W        W42833   9.974  13.386   0.695
70519W        W42834  19.700  25.215   1.254
70520W        W42835   1.848  23.671   1.780
70521W        W42836  21.349   0.378   0.730
70522W        W42837  34.590  27.543  11.976
70523W        W42838  24.499  28.578   1.034
70524W        W42839  21.222  42.764   3.308
70525W        W42840  17.968   8.899   3.963
70526W        W42841   7.960   2.694  11.286
70527W        W42842  39.599  36.588  14.060
70528W        W42843  13.652   3.121   3.327
70529W        W42844  14.290  26.916  14.006
70530W        W42845   0.785   6.409   1.702
70531W        W42846  22.534  18.759   3.067
70532W        W42847   6.387  38.090   4.130
70533W        W42848  16.019  16.343  13.456
70534W        W42849  27.006  15.833   3.575
70535W        W42850  37.723  44.979   4.111
70536W        W42851  44.691   0.068   4.529
70537W        W42852   0.182  27.156   0.768
70538W        W42853  21.033   0.893   1.461
70539W        W42854  41.076  10.822  12.496
70540W        W42855   1.855  34.811   0.507
70541W        W42856   4.322   1.839  10.843
70542W        W42857  25.240   7.448   4.550
70543W        W42858  29.439  36.738   2.640
70544W        W42859  32.979  25.213   2.824
70545W        W42860  35.056  30.759  11.105
70546W        W42861  25.974  16.702  10.607
70547W        W42862  43.462  21.094  12.790
70548W        W42863  14.804  20.450  11.128
70549W        W42864  36.040  22.467  11.195
70550W        W42865  38.925  18.791   1.792
70551W        W42866  43.016  26.751   3.210
70552W        W42867   5.348  29.406  11.932
70553W        W42868   9.352  19.746  13.635
70554W        W42869  32.197   8.869   2.338
70555W        W42870  33.936   2.105   4.682
70556W        W42871  21.585  28.913   0.882
70557W        W42872  37.756  14.391  14.917
70558W        W42873  25.921  38.838   1.443
70559W        W42874  36.503  43.636   0.055
70560W        W42875   7.194  22.508   3.984
70561W        W42876  10.515  37.850  14.452
70562W        W42877   9.701   8.839  12.612
70563W        W42878   3.247  42.542   0.480
70564W        W42879  17.196  36.105   1.696
70565W        W42880   2.475  19.396  13.737
70566W        W42881  19.095  32.559   4.873
70567W        W42882  35.256  29.980   2.284
70568W        W42883  25.551  22.511  14.415
70569W        W42884  28.278  37.700   0.766
70570W        W42885   3.970   2.488   1.817
70571W        W42886  22.059   8.791   2.750
70572W        W42887  17.116  26.620  10.670
70573W        W42888  23.987  22.951   1.832
70574W        W42889  29.331  31.042   0.902
70575W        W42890   5.480   0.949  11.490
70576W        W42891  17.317  19.493  12.200
70577W        W42892  43.217   9.129  11.994
70578W        W42893   1.015  40.510   1.289
70579W        W42894  25.325  25.273  11.729
70580W        W42895  34.384  37.065   1.778
70581W        W42896  36.671  25.517   2.825
70582W        W42897  25.165  10.900   3.946
70583W        W42898  31.606  17.029   4.236
70584W        W42899  32.410   1.001  12.927
70585W        W42900  25.579  42.523   2.151
70586W        W42901   4.975  34.937   0.318
70587W        W42902  20.668  28.052   4.464
70588W        W42903   0.786  11.781   5.336
70589W        W42904  13.704  15.959  12.689
70590W        W42905  17.762  10.555   4.277
70591W        W42906  44.349  25.924   3.459
70592W        W42907   8.703  31.210   3.235
70593W        W42908   7.185   6.918   3.111
70594W        W42909  33.553  14.785   3.164
70595W        W42910   0.272  18.518  11.682
70596W        W42911  16.749   0.513   3.368
70597W        W42912  43.714  10.098  11.075
70598W        W42913  41.344  32.935  14.051
70599W        W42914   5.511  22.485   1.632
70600W        W42915  41.944  39.828   4.012
70601W        W42916  19.212  29.740  13.503
70602W        W42917  35.328  14.546   4.704
70603W        W42918   7.781  26.714   4.024
70604W        W42919  25.962   9.592   1.248
70605W        W42920  14.034   5.789   4.045
70606W        W42921   9.670  29.415   4.459
70607W        W42922   3.291  28.182   0.310
70608W        W42923  29.035  11.328   1.703
70609W        W42924   7.526  27.966  14.775
70610W        W42925  15.172   5.512  13.084
70611W        W42926  33.039   8.210  13.277
70612W        W42927  24.706  32.150  10.319
70613W        W42928  44.383  20.093   3.997
70614W        W42929  17.293   5.112   0.290
70615W        W42930   4.228  39.885   0.388
70616W        W42931  37.382  38.859  10.792
70617W        W42932   5.701  38.744  12.936
70618W        W42933  37.624  36.951   1.215
70619W        W42934  28.657  36.137   1.920
70620W        W42935  42.033  36.350   2.293
70621W        W42936  20.854  13.027   0.229
70622W        W42937   4.701   4.440  14.381
70623W        W42938  42.104  42.006  13.413
70624W        W42939   7.140  29.209   0.397
70625W        W42940  42.990  24.770  14.994
70626W        W42941  28.048  40.048  14.249
70627W        W42942  10.912  33.696  11.244
70628W        W42943  21.684  12.085  13.854
70629W        W42944  38.974  40.395   1.642
70630W        W42945  20.516  16.352  11.597
70631W        W42946  32.189   1.520   0.852
70632W        W42947  17.210   8.337  12.803
70633W        W42948  36.540  17.740  11.103
70634W        W42949  27.427   5.126  10.258
70635W        W42950  15.597  43.064   2.212
70636W        W42951  32.021  13.020  11.304
70637W        W42952  12.175  43.154   1.304
70638W        W42953  39.019  25.253   1.874
70639W        W42954  44.846  37.523   0.890
70640W        W42955   5.978   2.049   0.935
70641W        W42956  36.203  33.527   0.373
70642W        W42957   3.754  13.029  12.430
70643W        W42958  23.099  44.961  12.758
70644W        W42959   1.103  23.844   3.834
70645W        W42960   3.515  31.959  10.066
70646W        W42961  16.860  35.554  12.989
70647W        W42962  22.245  11.187   2.300
70648W        W42963  29.440  10.891  14.282
70649W        W42964  12.783  28.803   3.413
70650W        W42965  28.271  26.826  12.743
70651W        W42966  43.277  24.931  12.090
70652W        W42967   0.715  14.841   1.345
70653W        W42968  37.545  32.981   2.606
70654W        W42969  25.478  36.672   4.113
70655W        W42970  30.829  44.856   1.025
70656W        W42971  24.622   2.821  11.423
70657W        W42972  12.656  28.847   2.828
70658W        W42973  43.429  35.941   3.790
70659W        W42974  44.285  35.096   0.763
70660W        W42975  33.973  19.301  11.996
70661W        W42976   8.239  23.126  11.371
70662W        W42977  42.974   3.930  10.706
70663W        W42978  22.990  22.983   3.782
70664W        W42979  33.415  27.894   0.003
70665W        W42980  26.490  18.662   4.282
70666W        W42981  34.055  21.111  14.434
70667W        W42982  13.734   6.735   3.637
70668W        W42983  33.947   2.090   0.297
70669W        W42984  11.162  40.530  14.482
70670W        W42985  36.081  14.072  13.863
70671W        W42986  12.624  15.138   2.473
70672W        W42987  24.221   6.979   2.378
70673W        W42988  15.114  35.055   0.908
70674W        W42989   3.939   9.116  12.611
70675W        W42990   6.277  21.080  11.169
70676W        W42991  12.469  32.416  11.209
70677W        W42992  44.970  35.672  13.618
70678W        W42993  12.275  14.046  13.082
70679W        W42994  13.180  18.580  13.329
70680W        W42995   9.391  27.595  10.431
70681W        W42996  27.081  37.874   3.301
70682W        W42997  42.787  41.101  14.457
70683W        W42998   6.148   6.152   5.016
70684W        W42999  26.178  20.715  11.629
70685W        W43000  13.778  41.293  13.447
70686W        W43001   7.710   6.325  14.318
70687W        W43002  28.535  15.314  13.048
70688W        W43003  24.019  21.233  11.585
70689W        W43004  26.576  37.594   4.238
70690W        W43005  26.550   6.206   1.665
70691W        W43006  22.022  35.921  14.346
70692W        W43007  36.505  12.581   3.222
70693W        W43008   8.437  24.224  13.076
70694W        W43009  12.113  19.210   2.065
70695W        W43010  32.320  29.969  13.423
70696W        W43011   4.773  14.378   4.508
70697W        W43012  15.861  33.111   1.702
70698W        W43013  26.458   8.116   1.889
70699W        W43014  20.143  30.001   0.861
70700W        W43015  43.423  21.116  11.748
70701W        W43016  32.655  23.156  11.625
70702W        W43017  24.128  17.148   3.186
70703W        W43018  35.109  39.349  14.425
70704W        W43019  39.974  36.369   2.254
70705W        W43020   1.741   3.961   1.370
70706W        W43021  14.283   8.429  13.056
70707W        W43022   3.070   7.426  14.918
70708W        W43023  21.016  21.706   3.614
70709W        W43024  23.250  22.042  12.048
70710W        W43025  38.920  30.124   4.391
70711W        W43026   0.798  23.198   3.282
70712W        W43027  38.260  10.096  11.029
70713W        W43028   0.282  36.936   9.846
70714W        W43029   6.501  44.920  14.819
70715W        W43030  14.780  11.626  13.573
70716W        W43031  40.375  14.216   4.832
70717W        W43032   3.078  43.986   1.615
70718W        W43033  32.515   4.747   0.454
70719W        W43034  24.043  11.755   0.546
70720W        W43035  21.117  19.683   0.293
70721W        W43036  23.930  11.136   4.056
70722W        W43037   6.008  12.102  10.677
70723W        W43038  34.414  13.392  13.855
70724W        W43039  12.489  12.455   1.497
70725W        W43040  25.168   5.312   4.272
70726W        W43041  10.600  35.598   2.924
70727W        W43042  20.910  12.708   3.719
70728W        W43043   7.773  36.774   0.999
70729W        W43044  43.953  32.100   2.255
70730W        W43045  16.334   4.475   2.333
70731W        W43046  33.717  28.924   3.761
70732W        W43047  12.351  28.648  13.942
70733W        W43048  38.147   5.170   2.372
70734W        W43049  43.205  25.999  11.602
70735W        W43050  43.697  27.263  13.439
70736W        W43051   2.698  38.979  11.547
70737W        W43052  25.624   4.218   5.445
70738W        W43053  31.202  29.528  12.875
70739W        W43054   7.632  44.266  14.404
70740W        W43055  29.233  17.112  14.902
70741W        W43056  14.535  18.771   1.412
70742W        W43057   7.452  29.980  14.892
70743W        W43058  15.207  12.315   3.745
70744W        W43059   8.848  29.625  13.299
70745W        W43060  13.670   3.528   1.863
70746W        W43061  16.726   1.027   4.253
70747W        W43062  34.092  34.514  10.785
70748W        W43063  25.214  18.044  13.475
70749W        W43064  29.374  13.717   0.432
70750W        W43065  10.630   9.160   2.803
70751W        W43066  18.559  32.406  11.119
70752W        W43067  15.273   8.246   3.552
70753W        W43068   4.025  32.949   3.131
70754W        W43069  41.651  24.210   3.707
70755W        W43070  21.183  28.557  14.288
70756W        W43071  37.120  21.790  10.759
70757W        W43072  22.528  12.732  11.213
70758W        W43073  30.199  28.481   3.186
70759W        W43074  22.927  14.327  11.543
70760W        W43075  20.650   1.924   3.687
70761W        W43076   0.521  20.067   3.470
70762W        W43077  36.774  22.229   2.816
70763W        W43078  20.235  16.258  13.472
70764W        W43079  12.588  14.470   4.309
70765W        W43080   2.947  15.503  12.064
70766W        W43081  29.192   8.728  14.961
70767W        W43082  18.827   7.302  13.220
70768W        W43083  21.772  14.873   2.730
70769W        W43084  44.995  10.705  11.283
70770W        W43085  12.067  19.207   9.973
70771W        W43086  41.948  20.055   1.810
70772W        W43087  37.659  22.697  10.601
70773W        W43088  15.523  31.987   4.204
70774W        W43089  14.042  26.408  14.902
70775W        W43090  32.935  41.455  13.052
70776W        W43091  43.750  19.686   2.902
70777W        W43092   3.550  31.866  14.504
70778W        W43093  16.425  13.312  13.487
70779W        W43094  41.062   9.552  11.511
70780W        W43095   7.127  17.028  12.991
70781W        W43096  13.549  42.407  12.098
70782W        W43097  36.779  24.970  11.491
70783W        W43098  35.458  34.207   2.969
70784W        W43099  27.477  23.469  11.679
70785W        W43100  39.358   1.540  10.575
70786W        W43101  18.281  44.571  12.912
70787W        W43102  26.440  31.189   0.865
70788W        W43103  29.241  33.174   5.353
70789W        W43104  38.065  33.087   1.707
70790W        W43105  35.125  16.218  14.527
70791W        W43106  39.381  16.988   0.824
70792W        W43107   9.319  44.557  11.584
70793W        W43108  32.943  44.049  10.249
70794W        W43109  44.587  43.406   3.674
70795W        W43110  17.610  39.153   3.497
70796W        W43111  17.751   0.293  12.473
70797W        W43112  36.528   4.660   1.981
70798W        W43113  23.758   7.181   2.236
70799W        W43114  32.967  23.394   1.477
70800W        W43115   7.111  42.479   2.867
70801W        W43116  21.774  13.472   4.399
70802W        W43117  29.278  21.552   4.490
70803W        W43118  39.281  35.017   4.334
70804W        W43119  30.606  18.582   3.766
70805W        W43120  15.123  15.230  14.409
70806W        W43121  32.467  42.473  12.933
70807W        W43122   7.201  15.043  12.902
70808W        W43123  20.137   5.327  14.542
70809W        W43124   1.909  42.847  11.064
70810W        W43125  37.828  14.014   2.363
70811W        W43126   7.845  29.048   3.297
70812W        W43127  35.105  10.864   2.437
70813W        W43128  12.767  34.099   4.246
70814W        W43129  30.960  31.087   4.636
70815W        W43130  30.023  44.016   4.365
70816W        W43131   1.253  28.120  13.983
70817W        W43132  37.802  10.702  12.834
70818W        W43133  33.531  42.163   4.581
70819W        W43134  20.750  22.349  10.171
70820W        W43135  19.984  28.642   2.883
70821W        W43136  20.830  14.452   3.129
70822W        W43137  19.820  32.971  12.088
70823W        W43138  36.882  18.201   2.526
70824W        W43139   3.718  10.759  13.235
70825W        W43140   3.025  20.066  12.453
70826W        W43141  14.701  35.526  12.983
70827W        W43142  18.628  26.036  13.289
70828W        W43143  35.940  37.770  13.551
70829W        W43144  29.447   6.057  10.559
70830W        W43145  27.911  23.501  14.345
70831W        W43146   0.355  31.010   2.288
70832W        W43147  42.471   5.734   0.496
70833W        W43148  24.743   0.875   0.740
70834W        W43149  33.367  37.053   0.082
70835W        W43150   8.227   2.508  12.567
70836W        W43151  34.865  17.535  10.890
70837W        W43152  16.673  19.624  13.432
70838W        W43153  33.692  24.465   1.996
70839W        W43154   1.317  42.089   4.731
70840W        W43155  36.828  43.080  14.534
70841W        W43156  33.649  28.762  10.777
70842W        W43157  20.519   2.732   1.350
70843W        W43158   5.788   3.985  10.844
70844W        W43159   2.742   9.914  12.865
70845W        W43160   8.086  10.242  12.407
70846W        W43161  41.586  24.637   0.920
70847W        W43162   1.228  35.541   3.244
70848W        W43163  22.481  27.356   2.910
70849W        W43164  28.810   5.682   1.832
70850W        W43165  42.270  40.037  11.598
70851W        W43166  10.433   5.870   1.803
70852W        W43167  20.356  35.859  11.094
70853W        W43168  19.291  43.765   2.902
70854W        W43169  33.954   9.175  13.432
70855W        W43170   7.936  43.045   1.417
70856W        W43171   0.904   3.431  11.573
70857W        W43172  11.684  35.846  12.114
70858W        W43173  41.933   7.305   4.318
70859W        W43174  44.893   9.628   4.145
70860W        W43175  36.121  37.300   3.189
70861W        W43176  36.407  26.174   1.931
70862W        W43177  21.427  14.996   3.434
70863W        W43178  31.478  19.719   1.841
70864W        W43179  28.498   6.353   1.711
70865W        W43180  18.388  29.223   1.827
70866W        W43181   5.789  37.564  14.448
70867W        W43182  44.942   9.007   2.473
70868W        W43183  11.102  24.285   0.891
70869W        W43184  39.128  17.608   4.142
70870W        W43185  19.018  40.793   1.308
70871W        W43186  17.700  28.190  11.260
70872W        W43187  11.625  34.360  11.823
70873W        W43188   0.816  27.925  14.240
70874W        W43189  30.118  34.604  13.097
70875W        W43190  12.499  41.813  12.361
70876W        W43191  41.328  17.756  11.611
70877W        W43192  37.742  44.540  10.780
70878W        W43193  13.645  20.252   0.254
70879W        W43194  36.438  21.051   2.120
70880W        W43195   0.478  21.216   0.456
70881W        W43196   7.077  42.293  11.214
70882W        W43197  30.612  28.982  12.935
70883W        W43198  44.285  39.593   1.605
70884W        W43199  44.732  44.606  12.021
70885W        W43200  25.177  19.790   4.517
70886W        W43201  18.376  31.227   1.575
70887W        W43202  10.971  41.463  13.898
70888W        W43203  22.912  19.742  11.447
70889W        W43204  25.540  33.669   4.433
70890W        W43205  40.336  14.958   0.445
70891W        W43206  12.431  26.226  11.064
70892W        W43207  39.629  30.107  12.072
70893W        W43208  20.595  13.569  12.350
70894W        W43209  13.106  35.115  13.605
70895W        W43210   9.158  34.448   1.436
70896W        W43211   9.418  27.504  12.096
70897W        W43212   5.964   7.991  10.440
70898W        W43213  38.919   8.285   1.223
70899W        W43214  38.354  28.932  13.092
70900W        W43215  26.518  33.058   0.815
70901W        W43216  40.607  15.816   2.177
70902W        W43217  17.022  15.240   2.443
70903W        W43218  11.625   8.748   4.539
70904W        W43219  11.678  40.915   3.630
70905W        W43220  34.331  26.622   1.321
70906W        W43221  21.045  22.346   4.744
70907W        W43222  10.696   1.396  13.476
70908W        W43223   0.754   9.278  12.462
70909W        W43224  25.964  25.125  14.689
70910W        W43225  22.086  41.446  12.441
70911W        W43226  36.365   1.035  11.110
70912W        W43227   5.288  25.611  14.500
70913W        W43228  37.016   4.248   2.450
70914W        W43229  37.119  18.270  12.114
70915W        W43230   6.924   2.483  14.326
70916W        W43231  12.168  26.258   0.600
70917W        W43232  19.127  17.637   4.904
70918W        W43233  43.478   2.967   3.192
70919W        W43234   4.921   0.813   0.121
70920W        W43235  11.869  19.759  12.357
70921W        W43236   0.456  26.130   3.282
70922W        W43237  13.708  42.705   3.603
70923W        W43238  22.679  15.227  14.717
70924W        W43239  34.540  38.962   1.256
70925W        W43240  22.902  39.487   0.888
70926W        W43241  31.687  18.277   1.321
70927W        W43242  32.359  42.830  14.375
70928W        W43243  14.825   8.208   3.255
70929W        W43244  28.068   9.917  11.041
70930W        W43245   0.408  20.007  12.484
70931W        W43246  42.270  27.691  11.682
70932W        W43247  35.318   0.050  13.622
70933W        W43248  42.346  18.502   1.823
70934W        W43249   3.434   0.244   3.097
70935W        W43250   7.582  36.873  13.244
70936W        W43251   6.556  42.321   2.945
70937W        W43252  30.248  28.602  11.651
70938W        W43253  41.421  14.912   1.467
70939W        W43254   6.662  22.039   3.900
70940W        W43255  22.743  41.840   2.788
70941W        W43256  44.909  37.999   4.364
70942W        W43257   6.245  14.053   1.449
70943W        W43258  44.496  24.207   1.944
70944W        W43259  21.534  12.681  13.421
70945W        W43260  19.139   0.050  14.800
70946W        W43261   0.007   3.797  13.797
70947W        W43262   5.242  37.625   3.664
70948W        W43263   8.889   4.303   1.536
70949W        W43264  15.755  38.872   3.799
70950W        W43265  36.668  43.316   3.577
70951W        W43266  32.481  15.127  14.957
70952W        W43267  23.605  15.713   2.801
70953W        W43268  30.752  13.905   1.273
70954W        W43269  23.147  38.037  14.427
70955W        W43270  16.622   8.387  14.773
70956W        W43271  42.391  20.115   0.216
70957W        W43272  37.949  20.333   1.812
70958W        W43273   3.311  15.152   0.090
70959W        W43274  27.070  24.091   0.970
70960W        W43275  40.250  19.593   4.175
70961W        W43276   4.303  33.902   1.861
70962W        W43277   1.678  42.784  10.618
70963W        W43278   0.432  27.843   3.262
70964W        W43279  35.663   2.026  11.944
70965W        W43280  25.094  30.604   1.752
70966W        W43281  42.509  20.088   0.946
70967W        W43282  26.089  24.417   1.328
70968W        W43283   3.289  37.573   4.708
70969W        W43284  14.952   5.142   0.233
70970W        W43285  26.528  30.084   4.089
70971W        W43286  41.257  23.170   0.356
70972W        W43287  12.669  39.380  10.682
70973W        W43288  29.705  18.581   2.748
70974W        W43289  22.489  28.490   3.779
70975W        W43290   9.080  31.676  13.889
70976W        W43291  42.980   7.737  11.838
70977W        W43292  29.028  29.486  11.909
70978W        W43293   8.634  15.867  13.099
70979W        W43294  40.262  17.625   1.645
70980W        W43295  15.250  42.082   1.276
70981W        W43296  23.184  17.100   0.636
70982W        W43297   9.117   1.443   0.645
70983W        W43298  19.739  26.592   1.670
70984W        W43299  17.785   2.696  10.644
70985W        W43300   4.802  35.680   1.929
70986W        W43301  29.231  31.394   2.427
70987W        W43302  37.418   7.935   0.831
70988W        W43303   7.151  37.813  14.508
70989W        W43304  42.337  35.725  14.921
70990W        W43305   9.893  20.876  12.446
70991W        W43306  11.643   6.035   4.420
70992W        W43307   3.342  28.663   1.013
70993W        W43308  20.133   9.439  12.015
70994W        W43309  26.006   9.872  13.840
70995W        W43310  15.416  37.311   4.832
70996W        W43311  15.235  16.612   4.309
70997W        W43312  42.102  19.401   3.246
70998W        W43313  30.644  20.703  12.146
70999W        W43314  20.024  42.408   1.371
71000W        W43315  11.724  13.896   0.328
71001W        W43316  22.790  39.673   1.779
71002W        W43317  33.878  42.776   2.992
71003W        W43318  38.144  42.603  11.325
71004W        W43319  28.265  35.497   4.179
71005W        W43320  22.188  25.153   2.282
71006W        W43321  26.145   2.890   4.767
71007W        W43322  26.194  31.440   0.424
71008W        W43323   6.276  32.504  11.218
71009W        W43324  39.020   5.321   4.816
71010W        W43325  15.776  18.515   0.840
71011W        W43326  32.843  12.807  11.389
71012W        W43327  12.389   4.774  13.387
71013W        W43328  16.618  13.098  14.789
71014W        W43329  34.878  21.506  12.953
71015W        W43330  35.329  43.423  11.565
71016W        W43331  12.122  29.524  10.667
71017W        W43332  35.131  13.575  12.676
71018W        W43333   8.203   5.591   2.512
71019W        W43334  38.409   2.769   4.309
71020W        W43335  35.942  34.039   2.815
71021W        W43336   7.778  44.252   3.708
71022W        W43337  10.245  40.316   4.665
71023W        W43338  16.737  13.680   1.419
71024W        W43339  37.817   6.207  10.403
71025W        W43340  22.347  12.389   1.426
71026W        W43341  37.347  28.055  10.516
71027W        W43342  19.290  17.754  13.178
71028W        W43343   2.387  15.214   3.456
71029W        W43344  29.835   8.033   0.385
71030W        W43345  44.313  33.814  11.970
71031W        W43346  31.073   2.328  14.898
71032W        W43347   0.492   5.813  12.895
71033W        W43348   0.364  33.218   0.840
71034W        W43349   5.773  38.496   3.825
71035W        W43350  41.814   6.011   3.011
71036W        W43351   4.329  19.876   1.654
71037W        W43352   2.170  36.880   2.630
71038W        W43353  11.547   1.083   4.321
71039W        W43354   1.088  28.528  14.245
71040W        W43355  10.263   1.335   2.151
71041W        W43356   2.561  27.576  14.477
71042W        W43357   0.787  12.705  11.519
71043W        W43358  41.735  10.337  11.674
71044W        W43359  40.673  43.343   0.856
71045W        W43360  12.669  42.308  12.335
71046W        W43361  42.474  40.101   3.195
71047W        W43362   0.082  44.156   0.306
71048W        W43363  39.845  11.672  11.556
71049W        W43364  34.039   0.964  12.973
71050W        W43365  21.304  21.534  13.414
71051W        W43366  12.360  15.828  10.779
71052W        W43367  31.861  30.492   2.962
71053W        W43368  24.751  10.667  12.338
71054W        W43369  28.817  30.597  14.202
71055W        W43370  13.914  35.624   0.430
71056W        W43371  34.128  36.397  11.139
71057W        W43372  24.362  29.666   2.216
71058W        W43373  25.087   1.672   1.299
71059W        W43374   1.884  16.781   2.120
71060W        W43375  17.182  27.252  11.536
71061W        W43376  20.107  35.675  13.509
71062W        W43377   5.301  22.753  12.032
71063W        W43378  23.034  40.860  14.029
71064W        W43379  15.105  22.569  10.629
71065W        W43380  41.993  25.686   1.890
71066W        W43381  22.011  39.026  11.978
71067W        W43382  27.943  24.229   4.301
71068W        W43383  32.559   3.953  14.878
71069W        W43384   0.913  10.257  14.273
71070W        W43385  19.243  26.833   2.301
71071W        W43386   8.827  29.028   0.905
71072W        W43387   7.803  17.328  14.994
71073W        W43388  15.311   6.718  14.269
71074W        W43389  38.871  17.757   1.797
71075W        W43390  20.320  21.515  10.662
71076W        W43391   6.314  21.718   4.325
71077W        W43392   9.392  32.450   0.327
71078W        W43393  34.885  43.345  13.542
71079W        W43394  39.935   4.096  13.338
71080W        W43395  34.557  34.267  10.816
71081W        W43396   5.759  22.078  13.489
71082W        W43397  36.021  21.502  11.988
71083W        W43398  22.346  20.161  10.105
71084W        W43399   8.801  16.524   1.075
71085W        W43400  33.774  15.748  14.812
71086W        W43401  25.230   3.414   1.409
71087W        W43402  17.275  36.549   1.019
71088W        W43403  33.328  32.053  10.474
71089W        W43404  17.170  40.751   3.329
71090W        W43405  44.073  43.515   2.247
71091W        W43406  34.864  16.955  13.570
71092W        W43407  22.984  37.233   2.720
71093W        W43408  43.027  37.395  13.165
71094W        W43409   0.829  28.277   3.693
71095W        W43410  21.999  29.589   3.824
71096W        W43411  11.693  10.867   1.256
71097W        W43412  11.998   6.121   2.746
71098W        W43413  11.220  25.223   2.904
71099W        W43414  17.660   4.422  14.294
71100W        W43415  11.079   2.940   1.822
71101W        W43416  40.064  39.999   2.903
71102W        W43417  41.322   1.590   3.567
71103W        W43418  36.447  35.981   1.586
71104W        W43419   0.358  24.113   4.014
71105W        W43420  28.501  15.298  10.808
71106W        W43421  21.043  23.652  12.061
71107W        W43422  13.693  35.632   1.290
71108W        W43423   4.547  28.174  14.774
71109W        W43424  24.818  34.664  13.322
71110W        W43425  12.694  25.422   3.655
71111W        W43426  32.303  14.550   1.280
71112W        W43427  42.114  23.651  11.492
71113W        W43428  21.710  12.066   4.243
71114W        W43429  33.624  25.973   2.611
71115W        W43430   3.879   7.404   4.673
71116W        W43431  27.033  41.278  11.149
71117W        W43432   6.855  32.856   0.817
71118W        W43433   0.842  20.703  14.558
71119W        W43434  32.568  34.064  11.991
71120W        W43435   5.055  10.327   3.377
71121W        W43436  42.911  21.285   3.130
71122W        W43437  43.525  28.881  11.470
71123W        W43438  18.565   8.355   2.817
71124W        W43439   2.299  38.687   1.026
71125W        W43440  21.089   0.875   2.418
71126W        W43441  15.339  44.968  14.089
71127W        W43442  40.566   3.295   3.383
71128W        W43443  14.571  41.044   3.224
71129W        W43444  10.198  29.258  10.347
71130W        W43445  36.587   6.370  10.282
71131W        W43446  16.862   6.713   1.919
71132W        W43447   3.479   2.142  12.802
71133W        W43448  19.993   7.032  10.642
71134W        W43449  33.999   2.796   0.730
71135W        W43450  19.647   3.353   1.205
71136W        W43451  17.870  30.984  12.917
71137W        W43452  38.325  21.524  13.807
71138W        W43453  20.638  35.327   2.181
71139W        W43454   7.852  14.247   3.079
71140W        W43455  30.576  15.792  14.340
71141W        W43456  40.053  34.015   2.800
71142W        W43457  26.096  33.567   3.258
71143W        W43458  26.664   6.215  11.053
71144W        W43459  32.338  41.243  10.643
71145W        W43460  39.359   4.602   0.038
71146W        W43461   6.116  30.593   2.269
71147W        W43462  10.275   3.252   0.650
71148W        W43463  39.046  13.182   1.342
71149W        W43464  38.034  34.367   1.200
71150W        W43465   2.748  43.120  14.529
71151W        W43466  19.942  11.834  12.448
71152W        W43467   1.724  42.515   0.402
71153W        W43468  10.756  33.533  14.300
71154W        W43469  26.000   8.777   0.116
71155W        W43470  37.817   3.938  10.533
71156W        W43471  19.765   0.597   4.988
71157W        W43472  12.204  39.483   2.919
71158W        W43473  26.787  23.556   2.720
71159W        W43474   5.328  26.736   2.904
71160W        W43475   6.915  14.096   3.350
71161W        W43476  41.579  16.972   0.012
71162W        W43477  24.231  10.215   4.653
71163W        W43478   4.762   8.184  12.637
71164W        W43479  21.306  37.149   4.282
71165W        W43480   1.850  36.933  12.589
71166W        W43481  33.075  41.892   3.257
71167W        W43482  34.850   9.926  14.872
71168W        W43483  31.159   9.113  14.655
71169W        W43484  37.573  19.984   1.756
71170W        W43485  18.077   9.449   4.666
71171W        W43486   5.761  35.952   2.316
71172W        W43487  30.124  17.723  14.352
71173W        W43488  19.268  44.200   0.903
71174W        W43489  15.372  36.386  13.987
71175W        W43490   5.717  36.194   1.835
71176W        W43491  33.408   8.180   2.228
71177W        W43492   9.941   4.351   3.674
71178W        W43493  10.709  20.602   3.392
71179W        W43494  12.364  44.316   1.764
71180W        W43495  30.772  43.012   4.918
71181W        W43496  28.400   6.406  10.227
71182W        W43497  34.002  19.992   0.668
71183W        W43498  25.011  35.689   2.444
71184W        W43499  14.301  13.272   1.820
71185W        W43500   3.854  11.905  12.000
71186W        W43501   5.419  12.045   3.313
71187W        W43502  37.350  26.384   2.662
71188W        W43503  23.037   4.983   2.315
71189W        W43504  35.139  27.364   2.237
71190W        W43505  11.705  26.031   3.182
71191W        W43506   6.559  36.901   4.187
71192W        W43507  43.787  22.047   2.705
71193W        W43508  17.174   1.995   0.408
71194W        W43509  26.357   3.437   2.187
71195W        W43510  15.901  34.409  12.530
71196W        W43511   2.489  21.488  12.370
71197W        W43512  24.521  28.258  12.047
71198W        W43513  26.216  19.631   3.976
71199W        W43514  12.206   5.821   0.259
71200W        W43515  20.575   6.124  12.780
71201W        W43516  31.111  43.027  11.853
71202W        W43517  22.978  29.911   2.945
71203W        W43518  18.738   4.334   0.331
71204W        W43519  21.192  35.812   0.883
71205W        W43520  23.908   9.184  12.084
71206W        W43521  32.279  10.140   1.163
71207W        W43522  35.322  20.280   3.183
71208W        W43523   1.210  39.086  10.828
71209W        W43524  37.410  17.274   0.367
71210W        W43525  25.191  38.595   2.210
71211W        W43526  36.074  31.640   3.061
71212W        W43527  22.621   2.540   4.002
71213W        W43528   1.841  32.822  11.474
71214W        W43529   7.377   0.449  14.133
71215W        W43530  22.313  25.703  11.113
71216W        W43531   4.928  26.747   4.647
71217W        W43532   2.108  21.590   3.680
71218W        W43533  19.752  20.652   3.924
71219W        W43534  30.128  36.786  13.037
71220W        W43535  44.265  14.270  11.568
71221W        W43536  21.435  36.031   1.342
71222W        W43537  43.998  33.916   2.759
71223W        W43538  19.874  37.045   0.514
71224W        W43539  17.057   6.269   1.692
71225W        W43540  17.204  34.107   3.178
71226W        W43541  28.570   1.773  13.532
71227W        W43542  29.854  16.756  12.522
71228W        W43543  33.798  14.797  14.863
71229W        W43544  22.041  18.126  14.185
71230W        W43545   4.221  18.153   1.254
71231W        W43546  20.774  40.761   3.156
71232W        W43547  32.105  13.521   1.796
71233W        W43548  11.825   0.951  11.703
71234W        W43549  39.371  23.133   3.181
71235W        W43550  23.020  32.583  13.784
71236W        W43551  21.016  38.812   4.971
71237W        W43552   7.492   7.331  11.622
71238W        W43553  38.840   8.401  14.799
71239W        W43554  38.398  21.274   0.168
71240W        W43555   9.623   0.488   3.583
71241W        W43556  12.015  42.175   4.448
71242W        W43557   5.708  41.773   3.955
71243W        W43558  25.667  42.888  12.841
71244W        W43559  33.688  32.459  10.424
71245W        W43560  25.426  42.550  11.580
71246W        W43561   6.703  18.913   3.788
71247W        W43562  18.808   7.436   4.515
71248W        W43563  37.182  26.608   1.704
71249W        W43564  28.223  17.597  14.547
71250W        W43565  15.131  28.022  12.070
71251W        W43566  26.714  33.114  13.066
71252W        W43567  42.286  15.330   3.922
71253W        W43568   0.740  36.148   1.764
71254W        W43569  29.010  34.773  12.399
71255W        W43570  26.485  28.503   1.031
71256W        W43571   2.869  19.475   3.805
71257W        W43572  33.475   2.566  12.307
71258W        W43573  29.137  39.802  10.455
71259W        W43574  36.869  34.897  10.933
71260W        W43575  30.648  35.674  11.026
71261W        W43576   0.830   3.397   0.423
71262W        W43577   0.327  37.780  10.597
71263W        W43578  13.602  17.063  10.645
71264W        W43579  30.632  26.596   1.779
71265W        W43580   1.379  39.565  13.976
71266W        W43581  39.635  25.549   2.870
71267W        W43582  24.930  22.482  11.380
71268W        W43583   9.389  20.477  10.695
71269W        W43584   9.752  13.010  13.809
71270W        W43585  13.178  17.511   1.331
71271W        W43586  14.061  37.877  13.464
71272W        W43587  24.456  33.093  13.873
71273W        W43588   1.303   6.641   1.148
71274W        W43589   0.161   6.979  12.382
71275W        W43590  30.908   4.259  14.749
71276W        W43591  16.391  25.372  12.462
71277W        W43592  19.713  43.840  12.324
71278W        W43593  19.642  26.414  13.014
71279W        W43594  43.752   1.484  13.892
71280W        W43595   2.115  22.045  11.114
71281W        W43596   7.865  24.593   3.200
71282W        W43597   5.331  18.065  14.804
71283W        W43598  31.523  12.255   1.116
71284W        W43599   4.932  25.797   1.314
71285W        W43600  18.243   0.073  13.066
71286W        W43601   1.284  36.846   2.301
71287W        W43602  24.735   6.255   4.700
71288W        W43603  33.465  42.379  11.925
71289W        W43604   8.427   7.189  14.820
71290W        W43605  43.964  42.264  12.105
71291W        W43606  17.272  18.515  13.048
71292W        W43607  39.339  17.947   3.626
71293W        W43608  27.042  21.323   0.825
71294W        W43609  33.513  36.462   4.543
71295W        W43610  24.450   1.709  10.254
71296W        W43611  29.377  26.911   3.581
71297W        W43612  24.922  20.572  12.981
71298W        W43613  21.177   2.803  14.895
71299W        W43614  20.055  34.871   2.695
71300W        W43615  15.857   2.338  12.307
71301W        W43616  32.032   9.713   1.443
71302W        W43617   0.920   6.469  12.487
71303W        W43618   5.326  38.594  12.483
71304W        W43619  28.134  21.038   3.614
71305W        W43620  30.148  39.346   1.365
71306W        W43621  26.964  28.549  12.821
71307W        W43622  14.073  19.598  13.113
71308W        W43623  42.232  26.773  12.987
71309W        W43624  12.944   5.698   2.603
71310W        W43625  23.551   2.931   4.196
71311W        W43626  22.154  21.242  11.432
71312W        W43627   8.421   1.993   3.211
71313W        W43628   6.760  40.772   1.388
71314W        W43629  19.282   9.132  14.380
71315W        W43630   2.467  22.886  14.199
71316W        W43631  29.506  35.588   3.299
71317W        W43632  36.819  38.899   4.603
71318W        W43633  32.923  13.638   1.433
71319W        W43634  16.732   9.200   5.714
71320W        W43635  11.199  23.315   4.221
71321W        W43636  16.953  42.234   3.787
71322W        W43637  14.703  29.095   4.488
71323W        W43638   1.976  35.275   5.036
71324W        W43639  13.374   3.768   0.988
71325W        W43640  19.552  35.059  11.542
71326W        W43641  12.230  42.837  11.021
71327W        W43642  25.190  19.454   3.196
71328W        W43643  31.147  19.767   3.686
71329W        W43644  15.573  24.881  10.148
71330W        W43645  32.887  31.697   2.717
71331W        W43646   5.158  17.103   3.669
71332W        W43647  30.607   6.863  12.090
71333W        W43648  27.238   6.918  11.175
71334W        W43649   3.862  40.614   3.712
71335W        W43650  39.697  35.199   4.059
71336W        W43651  23.447  36.748   4.639
71337W        W43652   2.152   3.387   3.872
71338W        W43653   8.944  36.741  11.174
71339W        W43654  16.349  39.104  10.665
71340W        W43655  28.100  20.431   1.760
71341W        W43656  40.082  41.748   3.332
71342W        W43657   9.457  32.899  12.436
71343W        W43658   3.846  35.538  12.901
71344W        W43659  34.013  12.215  11.681
71345W        W43660  29.349   5.806  10.989
71346W        W43661  28.735  40.895   3.176
71347W        W43662  21.236  41.246   3.163
71348W        W43663  14.038  21.551   0.507
71349W        W43664  44.561  44.385   2.272
71350W        W43665  21.037  11.584   3.245
71351W        W43666   3.528  18.071   1.647
71352W        W43667  28.064  29.561   0.946
71353W        W43668  41.843  23.589   1.220
71354W        W43669  25.608  32.327  11.545
71355W        W43670  14.700   1.342   4.544
71356W        W43671  19.389  34.013   4.054
71357W        W43672   2.929  34.428  12.426
71358W        W43673   1.352  40.179  14.412
71359W        W43674   4.339  42.202   0.802
71360W        W43675  37.568  36.509   2.431
71361W        W43676  25.951  14.453   4.061
71362W        W43677  41.013  31.547   2.322
71363W        W43678   2.725  34.297   0.304
71364W        W43679   9.199  36.829  11.980
71365W        W43680  38.658  32.069  11.131
71366W        W43681  22.600  32.592  14.183
71367W        W43682  32.567  36.468  12.210
71368W        W43683  14.318  21.458   3.873
71369W        W43684  39.451  21.080   4.609
71370W        W43685  11.118  25.032   2.429
71371W        W43686  38.337   7.271  11.091
71372W        W43687   8.083  42.654  13.861
71373W        W43688  29.426  24.583  10.550
71374W        W43689  30.626  44.440   3.188
71375W        W43690   8.170  23.012  12.556
71376W        W43691  17.799  30.109   2.786
71377W        W43692   4.906   6.371   4.574
71378W        W43693  37.712  25.207   4.213
71379W        W43694  16.159  17.026   2.338
71380W        W43695   9.154   2.533  10.496
71381W        W43696   8.648   0.459  13.088
71382W        W43697  44.754  36.040   3.828
71383W        W43698  17.458   0.686  14.874
71384W        W43699  26.335  27.978   2.815
71385W        W43700   2.863  20.604   4.659
71386W        W43701  43.499  18.645   4.539
71387W        W43702  38.873  35.561  13.447
71388W        W43703  21.568  39.360   1.189
71389W        W43704   5.164  17.997   4.212
71390W        W43705   1.277  16.546  13.525
71391W        W43706  44.296  32.596   2.543
71392W        W43707   5.479   4.088  14.049
71393W        W43708  42.305   1.224   2.281
71394W        W43709  44.694  29.760  13.924
71395W        W43710  41.819  15.673   3.364
71396W        W43711  37.943   6.129   3.691
71397W        W43712  11.097  35.894  13.865
71398W        W43713  23.005  41.205   0.040
71399W        W43714  15.378   0.390  10.233
71400W        W43715  11.417   0.604   2.646
71401W        W43716  12.208  13.830  11.971
71402W        W43717  34.783  20.468   3.755
71403W        W43718   5.338   7.408   2.944
71404W        W43719  43.063   9.799  14.521
71405W        W43720   4.703  20.376  12.098
71406W        W43721  22.467  42.478  14.967
71407W        W43722  32.824   3.888   4.598
71408W        W43723  28.718   3.788   1.365
71409W        W43724  13.201  31.093  13.499
71410W        W43725  37.048  35.426  10.685
71411W        W43726  16.160  14.177   2.154
71412W        W43727  40.327  12.216  11.917
71413W        W43728  13.788  20.056   4.186
71414W        W43729  37.801  13.390  10.600
71415W        W43730  17.341  35.440   2.323
71416W        W43731  31.440  16.756   2.288
71417W        W43732  40.671  28.596  13.642
71418W        W43733  28.880  41.407   3.160
71419W        W43734  40.516  12.265  11.453
71420W        W43735  21.696  17.588  11.629
71421W        W43736  15.690   8.276  14.017
71422W        W43737  27.601  16.094  10.736
71423W        W43738  32.492   0.668  10.507
71424W        W43739  28.038   4.770   4.785
71425W        W43740   3.709  12.307  14.418
71426W        W43741  34.118  40.492  13.473
71427W        W43742   1.721   7.649   1.924
71428W        W43743  23.249  34.724   4.169
71429W        W43744  10.723  38.805  14.545
71430W        W43745  30.611  37.290  12.325
71431W        W43746  17.645   8.179   3.293
71432W        W43747  19.051  38.541   1.752
71433W        W43748  44.857   1.197  13.442
71434W        W43749  32.171   2.176   5.017
71435W        W43750  15.657   2.731   0.878
71436W        W43751  29.614  30.977   1.353
71437W        W43752  35.944   4.782   3.808
71438W        W43753  16.281   9.434  14.056
71439W        W43754  35.661   3.652  10.499
71440W        W43755   3.651  30.036  14.319
71441W        W43756  30.884  26.865   0.320
71442W        W43757  28.548  23.237  13.941
71443W        W43758   6.796  22.509   3.623
71444W        W43759  26.526   7.292  12.839
71445W        W43760   4.034  12.103  12.434
71446W        W43761  22.557  25.551   2.893
71447W        W43762  17.587  31.868   0.091
71448W        W43763  11.499  17.543  14.396
71449W        W43764   7.854  25.961  14.835
71450W        W43765  19.659  35.163   3.903
71451W        W43766  42.950  23.498  14.976
71452W        W43767  24.650  21.640  12.147
71453W        W43768  15.991  42.834   0.313
71454W        W43769  26.884  10.433  12.972
71455W        W43770  34.485  30.683  14.310
71456W        W43771  41.012  11.560   3.854
71457W        W43772  38.133  40.261  12.009
71458W        W43773   4.988  23.196   0.981
71459W        W43774   1.925  11.893   3.346
71460W        W43775  19.194  21.098   0.003
71461W        W43776  19.675  36.101   0.879
71462W        W43777  27.633  20.677   1.686
71463W        W43778   4.930  35.996   0.328
71464W        W43779  30.118  30.988   3.616
71465W        W43780   7.180  41.846  12.499
71466W        W43781  31.951  25.991   2.367
71467W        W43782  44.323   9.208   0.229
71468W        W43783  31.567  37.941   1.071
71469W        W43784  36.303   4.430  13.459
71470W        W43785  24.579  34.104   1.229
71471W        W43786   4.019  16.765   2.908
71472W        W43787   6.221  37.393  12.620
71473W        W43788  35.341  42.268   4.159
71474W        W43789   7.284  43.260  12.408
71475W        W43790  24.631   3.520  11.769
71476W        W43791   5.340   8.182   4.521
71477W        W43792  36.972  10.004  11.588
71478W        W43793  30.050  13.588  14.807
71479W        W43794  42.803  44.391   3.333
71480W        W43795  36.486  22.767  12.053
71481W        W43796   6.407   1.194  12.563
71482W        W43797   4.253   5.322  14.750
71483W        W43798  17.325  34.832   0.021
71484W        W43799  20.749  10.669  14.632
71485W        W43800  32.008   6.334  13.901
71486W        W43801  19.089   1.207  12.912
71487W        W43802  11.190  18.593  14.517
71488W        W43803  17.257  31.993  13.286
71489W        W43804   9.911  19.036  11.153
71490W        W43805  24.217  20.204  11.503
71491W        W43806  12.434  37.427   0.752
71492W        W43807  11.561   9.240   3.171
71493W        W43808  15.658  44.813  14.528
71494W        W43809  41.595  38.242  11.139
71495W        W43810   6.440   7.859  10.610
71496W        W43811  31.978  32.003   0.743
71497W        W43812   6.399  25.331   2.833
71498W        W43813  30.169  23.751  11.745
71499W        W43814  31.577  33.551   0.769
71500W        W43815  44.329  30.454  11.581
71501W        W43816  22.664  21.990  11.553
71502W        W43817   6.840   1.328  10.708
71503W        W43818  15.150  34.320  11.487
71504W        W43819  10.251  17.824  11.996
71505W        W43820   3.322   1.620  12.334
71506W        W43821  42.971  30.040   1.693
71507W        W43822  20.069  39.144  14.298
71508W        W43823  13.898  40.769   2.372
71509W        W43824  15.261  38.952  11.405
71510W        W43825  11.754  27.588  14.465
71511W        W43826  24.950  38.048  12.500
71512W        W43827   1.008  32.182   4.543
71513W        W43828   0.275   1.596   0.617
71514W        W43829  18.141  33.935   3.263
71515W        W43830  26.296  16.042  14.810
71516W        W43831  44.255  19.575   2.904
71517W        W43832   8.289  39.571  14.878
71518W        W43833  16.688  25.142  12.988
71519W        W43834  22.829  32.109  10.618
71520W        W43835  41.421  15.297  10.998
71521W        W43836  16.108  39.924  10.582
71522W        W43837  26.668  25.025   0.918
71523W        W43838  29.947  13.771  10.688
71524W        W43839  35.888  32.481   3.221
71525W        W43840  31.156   7.754  12.377
71526W        W43841  11.717  24.185  11.579
71527W        W43842  13.113   4.093  12.959
71528W        W43843   1.009  37.368   1.331
71529W        W43844  39.914  14.244   1.049
71530W        W43845   6.194  22.131   3.384
71531W        W43846  28.951   6.152   5.098
71532W        W43847   2.988  21.104   4.549
71533W        W43848  34.677  24.902   4.033
71534W        W43849   1.348  31.133   3.175
71535W        W43850  31.867   8.771   2.696
71536W        W43851   2.259  14.314  12.857
71537W        W43852  28.048   7.435   4.865
71538W        W43853  43.818  23.259   4.613
71539W        W43854  37.792   9.620   2.744
71540W        W43855  20.335  37.801   4.294
71541W        W43856  28.888  21.728   1.743
71542W        W43857  14.085  40.453  14.886
71543W        W43858  43.837  40.332  12.202
71544W        W43859  41.281  41.567  12.861
71545W        W43860  24.458  26.087  12.817
71546W        W43861   6.236   6.620  10.730
71547W        W43862   2.981  12.321   2.882
71548W        W43863   3.371  28.384  14.507
71549W        W43864  18.567  42.937  14.301
71550W        W43865  16.285   7.273  12.938
71551W        W43866   3.240  27.130   1.406
71552W        W43867   0.341  37.655   0.822
71553W        W43868  24.809  43.828   4.233
71554W        W43869  15.986  43.086  13.738
71555W        W43870   0.792  16.737   3.692
71556W        W43871  25.083  38.437  13.249
71557W        W43872  14.812  44.495   0.822
71558W        W43873   3.186  23.690  11.954
71559W        W43874  35.200   7.619  11.748
71560W        W43875  36.801  43.863  11.388
71561W        W43876  22.303   4.108  13.574
71562W        W43877   1.623  33.095   1.788
71563W        W43878  15.296  30.694   2.889
71564W        W43879  23.680   9.895   3.256
71565W        W43880  35.343  23.146  11.606
71566W        W43881   6.990  21.052  10.703
71567W        W43882  43.274  23.713  13.546
71568W        W43883  11.267  10.719  14.221
71569W        W43884  23.516   8.657  14.710
71570W        W43885   4.968   0.919   4.195
71571W        W43886  16.885  38.089  12.026
71572W        W43887  26.083   7.934   3.176
71573W        W43888  28.094  40.470  10.164
71574W        W43889  22.073  36.371   2.942
71575W        W43890  38.359  30.042   2.129
71576W        W43891  31.939  33.028   2.688
71577W        W43892  26.089  44.487   3.011
71578W        W43893  15.182  41.571  10.584
71579W        W43894  25.351  42.879  14.496
71580W        W43895  20.966  38.199  12.187
71581W        W43896  14.167   6.759  12.308
71582W        W43897  23.562  39.516   3.747
71583W        W43898   5.203   1.248  11.985
71584W        W43899  25.706  21.675   3.732
71585W        W43900  27.096   1.036  14.379
71586W        W43901  33.986  20.496   0.707
71587W        W43902  28.168  31.921   4.988
71588W        W43903  36.728  25.023  13.499
71589W        W43904  35.504  16.417  11.957
71590W        W43905  24.315  18.638  14.485
71591W        W43906  28.551  25.295   3.164
71592W        W43907  11.729   8.153   2.863
71593W        W43908  40.848  28.850  12.322
71594W        W43909  10.467  11.681  13.096
71595W        W43910  44.438  11.147  14.994
71596W        W43911  21.982  37.164  14.205
71597W        W43912  11.345   9.610  12.757
71598W        W43913  14.858  29.906  10.710
71599W        W43914  17.815  19.138  14.431
71600W        W43915   1.945   5.694   2.635
71601W        W43916  35.358  15.351   5.049
71602W        W43917  29.969  23.309   0.423
71603W        W43918  19.626  38.774   9.814
71604W        W43919  41.941   8.938   3.276
71605W        W43920   9.744  38.405  11.220
71606W        W43921  32.026  33.982   2.916
71607W        W43922   2.938  38.606  10.362
71608W        W43923  21.989  13.718   2.118
71609W        W43924  22.040  20.948   3.629
71610W        W43925   6.359  22.787  12.893
71611W        W43926  23.654  34.845   3.424
71612W        W43927  14.606   1.174  12.379
71613W        W43928   8.117   3.263  14.286
71614W        W43929   2.992  40.930  14.905
71615W        W43930   2.144  21.014   4.189
71616W        W43931  39.423  39.603   4.080
71617W        W43932  28.047  29.855  10.704
71618W        W43933  32.118   5.428   1.951
71619W        W43934   5.020  21.041  12.645
71620W        W43935  27.180  37.926  11.458
71621W        W43936  17.066  32.463   0.879
71622W        W43937  40.767   4.936   4.813
71623W        W43938   3.642  29.449  11.631
71624W        W43939  24.988  12.658   4.481
71625W        W43940  36.954  14.192  10.997
71626W        W43941   5.788  10.629  11.174
71627W        W43942  40.858   7.621  14.127
71628W        W43943  37.502  29.455  13.403
71629W        W43944  32.003  41.889  10.473
71630W        W43945   4.183  32.543  13.993
71631W        W43946   7.764  10.302  10.174
71632W        W43947  33.388  39.232  14.768
71633W        W43948   5.943  25.285  12.590
71634W        W43949   7.897  37.658   3.902
71635W        W43950  26.487  34.271  11.685
71636W        W43951  38.072  42.783   3.961
71637W        W43952  34.314  44.457  12.814
71638W        W43953  40.085   3.362  13.977
71639W        W43954  44.963  21.543  11.464
71640W        W43955   4.289  24.498  12.995
71641W        W43956  19.843  24.788  13.426
71642W        W43957  20.340  29.999   2.811
71643W        W43958  19.738  17.979  11.208
71644W        W43959  29.996  39.945  12.470
71645W        W43960  35.861   2.966  11.102
71646W        W43961  22.013  16.815   2.788
71647W        W43962  25.468   2.344  12.879
71648W        W43963   6.307  21.581  10.919
71649W        W43964   7.618  25.063   3.255
71650W        W43965  26.380  27.178  13.995
71651W        W43966  37.933  22.232   3.662
71652W        W43967  37.402  13.074  10.777
71653W        W43968  28.026  23.606   2.186
71654W        W43969  15.243   5.780   4.094
71655W        W43970  43.327  20.346  13.503
71656W        W43971  40.992  32.334  10.589
71657W        W43972  12.951  14.593   0.818
71658W        W43973   7.958  23.624  11.156
71659W        W43974  25.052  12.906  12.363
71660W        W43975  39.431  30.537  12.910
71661W        W43976  40.290  20.999  10.538
71662W        W43977  43.075   0.634  12.927
71663W        W43978   4.732  33.550  13.421
71664W        W43979  13.670  32.694   2.926
71665W        W43980  21.904   3.510   4.050
71666W        W43981   2.772  15.379  10.886
71667W        W43982  39.529  10.138  14.862
71668W        W43983   8.120  13.483   2.122
71669W        W43984  15.815  11.222  13.237
71670W        W43985  26.233  35.440  11.535
71671W        W43986  13.647  25.869  14.408
71672W        W43987  14.182  19.589  14.398
71673W        W43988  35.912  44.094  11.110
71674W        W43989  16.387   0.254   1.696
71675W        W43990  36.811  19.745   4.470
71676W        W43991  15.748  37.577  11.170
71677W        W43992   7.381  27.622  12.544
71678W        W43993   8.918  17.548  11.584
71679W        W43994  16.090  17.063   4.600
71680W        W43995  28.764  34.221   0.910
71681W        W43996  33.429  43.018   0.956
71682W        W43997  25.188  41.788  10.935
71683W        W43998  24.488  12.438  14.508
71684W        W43999   3.404  39.481  12.868
71685W        W44000   8.477  34.513  12.152
71686W        W44001  44.074  10.896   1.448
71687W        W44002  18.697  10.124  10.524
71688W        W44003  43.462  32.604   2.746
71689W        W44004  17.098  26.076   3.868
71690W        W44005  18.570  34.972  13.424
71691W        W44006  33.995   8.228   1.257
71692W        W44007  15.879  23.156   1.298
71693W        W44008   2.385  22.107   3.641
71694W        W44009  28.656  22.979   2.407
71695W        W44010   9.132  41.489   4.976
71696W        W44011  33.603   9.013  11.650
71697W        W44012  10.574  19.532  14.002
71698W        W44013   3.708  41.261  14.025
71699W        W44014   6.501  30.054  13.865
71700W        W44015  12.544  30.800   1.264
71701W        W44016  30.194  13.665  12.158
71702W        W44017   0.914  27.546   3.212
71703W        W44018  36.878  31.142  11.086
71704W        W44019  43.722  20.282   1.275
71705W        W44020  40.223  32.701   2.358
71706W        W44021  25.491  34.056  13.113
71707W        W44022  32.459  23.609   0.309
71708W        W44023  18.592  36.835  12.318
71709W        W44024   0.559   4.255   1.937
71710W        W44025  35.480   4.862  14.063
71711W        W44026   1.897  33.426   1.529
71712W        W44027  32.458  39.388   3.132
71713W        W44028   3.878  41.253  11.109
71714W        W44029  35.445  41.201  12.037
71715W        W44030  18.336   7.408  13.418
71716W        W44031  13.197  19.511   4.575
71717W        W44032  38.400  33.269   0.312
71718W        W44033  39.782  40.906   1.379
71719W        W44034  14.186   6.437   3.235
71720W        W44035  34.006   9.680  13.454
71721W        W44036  43.055  32.498  11.537
71722W        W44037  11.440  40.964   0.808
71723W        W44038   6.077   1.686   4.537
71724W        W44039  25.980  21.454   4.126
71725W        W44040  28.660   8.722   3.282
71726W        W44041  10.442  34.088  12.514
71727W        W44042  27.785   4.711   1.673
71728W        W44043   7.809  19.572  11.141
71729W        W44044  42.486  22.303  13.008
71730W        W44045  41.923   3.534  14.785
71731W        W44046  38.756  35.446  13.952
71732W        W44047  28.677  10.229   2.637
71733W        W44048  39.806  43.001  12.075
71734W        W44049  15.800  42.434  14.167
71735W        W44050  40.252   8.753  12.347
71736W        W44051  35.786  33.903   4.212
71737W        W44052  32.342   9.681  13.064
71738W        W44053   5.313  30.610   1.433
71739W        W44054  20.127  37.303   4.339
71740W        W44055  17.676   7.926   2.817
71741W        W44056  28.080  38.372   3.497
71742W        W44057  32.011  15.730  14.502
71743W        W44058  40.865  22.936  13.393
71744W        W44059  44.913  22.414   1.788
71745W        W44060  36.099  24.003  12.013
71746W        W44061   4.893   0.457  10.670
71747W        W44062  36.580  26.695   9.937
71748W        W44063   0.183  11.711  12.122
71749W        W44064  39.438   9.149   1.317
71750W        W44065  23.986   9.485  11.320
71751W        W44066  42.328  31.633  11.651
71752W        W44067  39.525  31.197   3.189
71753W        W44068   7.814   8.934   5.110
71754W        W44069  31.534  43.207  10.347
71755W        W44070  44.692  37.510  10.355
71756W        W44071  26.593  35.550  14.019
71757W        W44072  34.362  19.706   3.224
71758W        W44073   8.095  29.942  11.600
71759W        W44074  18.921  30.620   0.776
71760W        W44075  43.948  18.665   4.829
71761W        W44076   9.920  38.059   0.869
71762W        W44077  19.842  22.461  11.564
71763W        W44078   1.911   8.311  11.914
71764W        W44079   5.724  36.608  11.062
71765W        W44080  17.297  28.743  12.640
71766W        W44081  31.875  21.797   0.384
71767W        W44082  28.560  42.190   0.895
71768W        W44083  32.820  20.696   0.899
71769W        W44084  18.656   4.455  13.860
71770W        W44085  43.757   7.651  13.834
71771W        W44086   9.609  21.717  11.853
71772W        W44087  36.328  16.702   0.277
71773W        W44088  25.838  28.068   2.887
71774W        W44089  11.683  43.887  12.166
71775W        W44090  42.419  34.096  12.677
71776W        W44091   5.722  31.814   4.645
71777W        W44092  30.081  10.262   3.892
71778W        W44093  19.765   1.460   1.407
71779W        W44094  22.730  37.179  13.578
71780W        W44095  30.101  40.510   0.489
71781W        W44096  29.982  27.926  13.861
71782W        W44097   0.353  10.283  13.553
71783W        W44098  35.021  27.875  10.652
71784W        W44099   1.438  31.571  13.923
71785W        W44100   2.037  21.076  10.793
71786W        W44101   7.525  22.647  11.954
71787W        W44102  41.663  43.869   0.703
71788W        W44103  13.495  43.709  11.102
71789W        W44104  38.768  22.174  11.389
71790W        W44105  20.494  15.804  11.634
71791W        W44106  42.998  32.476   0.020
71792W        W44107  40.282  14.388  11.057
71793W        W44108   1.301  22.611  14.999
71794W        W44109  42.967  36.727  12.481
71795W        W44110  23.484  22.260   3.620
71796W        W44111   0.317  32.153   1.580
71797W        W44112  43.824  23.402  11.693
71798W        W44113  14.630  11.725  12.154
71799W        W44114  16.561   8.752   4.088
71800W        W44115  34.832  31.904   2.783
71801W        W44116  34.377   4.273  14.312
71802W        W44117   8.583  39.009  11.193
71803W        W44118   7.918   1.367   0.395
71804W        W44119  29.465   3.418  10.740
71805W        W44120  31.459  14.369   2.935
71806W        W44121  18.692  25.738  10.647
71807W        W44122  23.309  13.732   1.183
71808W        W44123  44.052   8.357   4.596
71809W        W44124  35.054  28.936  12.125
71810W        W44125  17.710  40.433   0.319
71811W        W44126  29.048  15.888   1.799
71812W        W44127   4.176  25.721  12.435
71813W        W44128  44.241  40.376   1.757
71814W        W44129  21.503  44.549  13.392
71815W        W44130  36.943  22.767   1.951
71816W        W44131  29.937  31.392   2.676
71817W        W44132  11.782   7.396   0.395
71818W        W44133  12.949  13.890  12.195
71819W        W44134   1.525  17.740  10.771
71820W        W44135  36.131  16.964   2.182
71821W        W44136  23.736   0.813  12.973
71822W        W44137  34.127   2.744   1.238
71823W        W44138  43.406  20.496   2.746
71824W        W44139   0.553  43.219   0.318
71825W        W44140   0.812   0.911   0.994
71826W        W44141  22.240   7.627   1.410
71827W        W44142  43.716  39.014  11.205
71828W        W44143  16.321  27.285   3.729
71829W        W44144  37.401  34.011  14.782
71830W        W44145  36.567  22.616  13.472
71831W        W44146  30.966  19.506   0.928
71832W        W44147  29.928  28.158   3.910
71833W        W44148  11.211  40.679   3.130
71834W        W44149  32.589  12.006   2.701
71835W        W44150  27.690  44.508   2.833
71836W        W44151  43.684  15.379   4.094
71837W        W44152  24.697  39.306   0.318
71838W        W44153  11.389  32.598  11.926
71839W        W44154  18.860  21.299  11.646
71840W        W44155  25.970   9.885  13.329
71841W        W44156  40.018   3.361   1.834
71842W        W44157  19.992  27.231  14.053
71843W        W44158  20.908  14.814   4.309
71844W        W44159  11.685  35.057  10.759
71845W        W44160  37.036  36.584  10.572
71846W        W44161  28.464  12.614   0.464
71847W        W44162  35.854   8.741  11.503
71848W        W44163  41.195   0.045   1.800
71849W        W44164  38.834   6.952  11.127
71850W        W44165  29.297  33.577  12.836
71851W        W44166  42.992  18.020   2.793
71852W        W44167  25.352  13.539  14.439
71853W        W44168  10.801  38.415   2.575
71854W        W44169  20.129  33.748   0.806
71855W        W44170  13.955  14.619   1.984
71856W        W44171  33.265   8.064  11.414
71857W        W44172  18.564  35.472   1.691
71858W        W44173  32.139  34.763  13.480
71859W        W44174  15.329  44.259  13.117
71860W        W44175  32.177  17.249   2.498
71861W        W44176  18.214   0.994  11.376
71862W        W44177  13.521  31.444   2.131
71863W        W44178  11.346  24.793  12.103
71864W        W44179  29.944   6.368   4.151
71865W        W44180   6.877  22.394  13.978
71866W        W44181  27.202  43.556   1.822
71867W        W44182  25.877  37.984   2.692
71868W        W44183  18.075  17.149  11.639
71869W        W44184  38.609  42.595   0.623
71870W        W44185  18.852  29.621   3.238
71871W        W44186  21.294  18.812  13.051
71872W        W44187  37.812  23.768   5.127
71873W        W44188  15.976  18.251   9.957
71874W        W44189  14.589  31.412  13.474
71875W        W44190  15.340  41.055   1.451
71876W        W44191  30.647  37.798   0.228
71877W        W44192   1.332  28.300  11.977
71878W        W44193  31.926  23.769  12.460
71879W        W44194  38.212  37.394  11.408
71880W        W44195  32.709  26.757   3.894
71881W        W44196  34.887  18.203   4.400
71882W        W44197  10.797  11.155   2.685
71883W        W44198   4.717   8.648   1.928
71884W        W44199  13.742  12.500  10.596
71885W        W44200  30.919  21.737   0.333
71886W        W44201  13.623  40.826   0.177
71887W        W44202  25.017  20.724   3.362
71888W        W44203  20.251  15.543   2.311
71889W        W44204  30.087   2.427   0.690
71890W        W44205  14.217  27.017  11.352
71891W        W44206   5.772  31.869  12.557
71892W        W44207  10.052  22.658   2.445
71893W        W44208  31.085   5.991  14.412
71894W        W44209  24.123  18.503   2.472
71895W        W44210  22.228   9.455   4.109
71896W        W44211  36.423  40.959   3.239
71897W        W44212   3.858  23.264  14.849
71898W        W44213  36.675  30.636   4.455
71899W        W44214  20.200   4.797   2.015
71900W        W44215  16.093   0.514  13.144
71901W        W44216  34.445   8.847   1.683
71902W        W44217  29.607  39.310   1.831
71903W        W44218   6.381   3.840   0.577
71904W        W44219   1.129   7.690  12.904
71905W        W44220  43.539  19.004   4.132
71906W        W44221  11.644   7.880   4.173
71907W        W44222  13.596  39.944   4.393
71908W        W44223  14.133   5.376  11.623
71909W        W44224  41.523  23.801  12.597
71910W        W44225  27.920  34.047   3.683
71911W        W44226  11.058  26.648   1.665
71912W        W44227  34.448  27.060   2.489
71913W        W44228  11.627  29.602  11.935
71914W        W44229  18.576   7.439  14.746
71915W        W44230   4.559  21.763   0.632
71916W        W44231  36.027  24.719   4.264
71917W        W44232  39.827  34.433  10.882
71918W        W44233  41.330  33.309  13.689
71919W        W44234   7.938   8.256  13.548
71920W        W44235  13.022  34.744  12.489
71921W        W44236  38.344  21.200   1.134
71922W        W44237   5.717  25.821  11.689
71923W        W44238  18.538  29.286   0.433
71924W        W44239  25.837   8.646   1.426
71925W        W44240  24.088  26.158  11.024
71926W        W44241  13.308  14.214   0.785
71927W        W44242  10.343  33.460   0.937
71928W        W44243   2.647  44.187   4.410
71929W        W44244  23.947  43.324  11.491
71930W        W44245  41.969   3.575  12.910
71931W        W44246  43.212  20.987   2.819
71932W        W44247  41.004  37.473  13.138
71933W        W44248  40.999  11.559   0.309
71934W        W44249  29.450  15.561   4.330
71935W        W44250  35.399  25.748   1.385
71936W        W44251  36.130  40.127  14.584
71937W        W44252   5.016  25.480  12.563
71938W        W44253  44.021  37.861  14.352
71939W        W44254  19.118  33.040   0.366
71940W        W44255  38.700  24.513  12.878
71941W        W44256   8.749   8.255  13.015
71942W        W44257  13.995  15.337   2.778
71943W        W44258  12.821  12.766   2.757
71944W        W44259  15.413   4.711   2.216
71945W        W44260  33.257  20.157  12.427
71946W        W44261  19.627  28.411   0.345
71947W        W44262  34.037  41.128  10.933
71948W        W44263   5.910  38.460  11.170
71949W        W44264  17.859  14.171  14.289
71950W        W44265  19.002  35.155  13.633
71951W        W44266  11.221  43.734   4.192
71952W        W44267   2.439   2.272  11.561
71953W        W44268  25.932  13.813  12.348
71954W        W44269   5.262  35.905   2.111
71955W        W44270   0.381  35.625   0.815
71956W        W44271  28.492  14.428  10.729
71957W        W44272   3.023   1.917   2.946
71958W        W44273   9.721  14.429   3.762
71959W        W44274  14.713  37.546   3.857
71960W        W44275  33.028   4.378  14.008
71961W        W44276  21.619  16.411   2.816
71962W        W44277  24.473  38.660  12.676
71963W        W44278  38.684  26.090  13.904
71964W        W44279  15.997  42.145  13.789
71965W        W44280   3.710   2.960   2.429
71966W        W44281  32.671  14.837  13.032
71967W        W44282  19.016  38.747   4.693
71968W        W44283   9.659  41.140  14.748
71969W        W44284  28.522  12.715   1.992
71970W        W44285  30.046   9.654   3.768
71971W        W44286  19.451  26.671  14.335
71972W        W44287  21.259  29.872  14.015
71973W        W44288   7.715  41.173   3.654
71974W        W44289   9.968   6.739  11.982
71975W        W44290  36.780  30.488   1.367
71976W        W44291   8.797  10.362  14.415
71977W        W44292  41.568  36.356   5.010
71978W        W44293   5.109  24.590   0.277
71979W        W44294  14.563  43.820  14.498
71980W        W44295   2.262  20.073   4.075
71981W        W44296   9.522  11.842   0.070
71982W        W44297  41.095  31.908  10.298
71983W        W44298  12.108  22.674  10.529
71984W        W44299   9.986   3.496  14.159
71985W        W44300  31.111  20.146   3.198
71986W        W44301   9.240   7.909   1.388
71987W        W44302  34.021  40.783  12.826
71988W        W44303  18.264  30.656   2.352
71989W        W44304  39.311  26.023   5.593
71990W        W44305   5.216   7.301  12.959
71991W        W44306  38.325   6.779  14.898
71992W        W44307  17.457  18.541  12.525
71993W        W44308  29.752  14.143  11.549
71994W        W44309  19.355   5.967   3.946
71995W        W44310  30.864  42.059  10.924
71996W        W44311  21.078  36.290  12.294
71997W        W44312   3.718  22.912  11.568
71998W        W44313   6.251  17.729   1.875
71999W        W44314  12.358  43.830   3.802
72000W        W44315  40.433  26.517   0.306
72001W        W44316  25.662   0.322   4.068
72002W        W44317  23.520  10.812   1.919
72003W        W44318  37.454  12.670   3.009
72004W        W44319  42.100   8.319  12.851
72005W        W44320  14.688  33.627  11.249
72006W        W44321  37.585   7.932   4.119
72007W        W44322  20.578   5.172  10.777
72008W        W44323  17.894  11.087  11.985
72009W        W44324  44.381  19.158  13.725
72010W        W44325  40.652  27.457   0.299
72011W        W44326  11.681  37.081   0.323
72012W        W44327  24.016  42.891  10.692
72013W        W44328  25.457  18.660  12.926
72014W        W44329  43.823  21.904  12.203
72015W        W44330   7.727   5.032   3.596
72016W        W44331  35.695   9.070   5.042
72017W        W44332  37.598  39.617   1.159
72018W        W44333   0.970  12.288  14.892
72019W        W44334  38.559  22.938   3.275
72020W        W44335  18.970  13.766   3.153
72021W        W44336   6.132  24.848   1.933
72022W        W44337  16.104  23.402   2.242
72023W        W44338  39.820  17.337  11.109
72024W        W44339   1.775   6.736   0.962
72025W        W44340  26.794   7.177   4.592
72026W        W44341  14.394   5.663  10.936
72027W        W44342  43.405   2.927   0.788
72028W        W44343  34.982   7.404   1.568
72029W        W44344   9.326  35.527   4.998
72030W        W44345  13.797   8.482  12.856
72031W        W44346   8.998  43.324  10.784
72032W        W44347  35.896   0.717  12.093
72033W        W44348   0.667  10.060  10.772
72034W        W44349  42.520  36.436  10.580
72035W        W44350  34.147  41.427  14.514
72036W        W44351  40.835  43.124  10.754
72037W        W44352  12.625  43.130  12.008
72038W        W44353  23.600  19.792   4.659
72039W        W44354   5.920  33.408  13.559
72040W        W44355  33.179  13.196   3.168
72041W        W44356  19.159  17.256  10.667
72042W        W44357  18.044  11.559   3.524
72043W        W44358  27.259  22.938   4.262
72044W        W44359  11.777  28.708   1.797
72045W        W44360  30.437  23.659   3.949
72046W        W44361  41.064  36.123  12.992
72047W        W44362  26.230  35.067   0.831
72048W        W44363  23.323  11.369  11.203
72049W        W44364  25.412  12.370  11.141
72050W        W44365  21.280  17.663   2.254
72051W        W44366  12.349  14.242   3.691
72052W        W44367   7.238  24.488  13.468
72053W        W44368  28.354  38.211   0.719
72054W        W44369  15.163   3.180  12.476
72055W        W44370   6.410  26.513  14.331
72056W        W44371  16.955   7.288  13.080
72057W        W44372  39.405  31.984  10.333
72058W        W44373  11.874  25.671   0.770
72059W        W44374  38.826  40.972  11.073
72060W        W44375   5.368   5.376   1.376
72061W        W44376  41.906  43.425   0.246
72062W        W44377   5.756   2.776  13.952
72063W        W44378  36.376  40.373   2.356
72064W        W44379  16.193  35.044   2.819
72065W        W44380  11.654  17.714   2.860
72066W        W44381   6.734  34.406  12.474
72067W        W44382  27.153  23.239  14.323
72068W        W44383  26.224   3.784  13.783
72069W        W44384   2.275  44.572   2.862
72070W        W44385  38.506   8.153   2.228
72071W        W44386  35.520  11.616   2.639
72072W        W44387  44.004  13.151  12.630
72073W        W44388  30.382  22.412   4.191
72074W        W44389  20.128  13.577  11.989
72075W        W44390   8.943  16.053   4.299
72076W        W44391   0.825  37.599  10.625
72077W        W44392   3.481  35.551   0.351
72078W        W44393  32.368   5.199   4.144
72079W        W44394  27.529  44.298  13.053
72080W        W44395  30.953  23.251   0.514
72081W        W44396  43.131  33.140   1.918
72082W        W44397  17.261   2.846  12.525
72083W        W44398  17.731  19.666  10.403
72084W        W44399   3.194  19.475   0.171
72085W        W44400  13.150  14.013  13.016
72086W        W44401  21.505  23.611  13.519
72087W        W44402   6.895  20.052   3.326
72088W        W44403  17.153  17.074  10.570
72089W        W44404   1.063  14.592   0.798
72090W        W44405  19.308  27.889   3.118
72091W        W44406  12.852  38.597   4.217
72092W        W44407  22.803   1.850  12.577
72093W        W44408  27.026   2.282   0.960
72094W        W44409  15.837  40.470  11.524
72095W        W44410  33.824  36.880  12.327
72096W        W44411  43.970  40.801  10.623
72097W        W44412  33.436   0.204  11.111
72098W        W44413   0.515  11.640   0.328
72099W        W44414  38.160  36.822   3.056
72100W        W44415  15.363  36.391  14.941
72101W        W44416  27.867  38.799   3.711
72102W        W44417   3.696  25.212  11.145
72103W        W44418   5.725  35.846  14.888
72104W        W44419  26.329  14.244  11.296
72105W        W44420  33.663  42.670   0.673
72106W        W44421  18.139  37.085  12.847
72107W        W44422  25.961  19.576  13.026
72108W        W44423  37.975  44.886   4.548
72109W        W44424   4.702  28.609   2.542
72110W        W44425  24.702  16.543  14.826
72111W        W44426  10.407  26.156   1.034
72112W        W44427  25.022  33.354   5.039
72113W        W44428  22.746  41.878  10.853
72114W        W44429  30.505   8.320  14.916
72115W        W44430   7.881   6.530   5.184
72116W        W44431  30.870   5.769  10.779
72117W        W44432   6.436   5.696  11.977
72118W        W44433  35.949  29.450  13.787
72119W        W44434  14.545   5.839   0.917
72120W        W44435  19.815  29.172   1.856
72121W        W44436  15.245  21.559  14.257
72122W        W44437   4.320  18.242   4.418
72123W        W44438   1.010  19.783   3.075
72124W        W44439  35.719   1.457  13.481
72125W        W44440   6.405   2.300  10.660
72126W        W44441   3.239  33.203  10.974
72127W        W44442  13.140   1.134  11.118
72128W        W44443  33.286  24.626  13.938
72129W        W44444  42.308  34.803  13.918
72130W        W44445  16.350  19.731   2.736
72131W        W44446  26.188  19.118  12.922
72132W        W44447  29.850  42.311  12.519
72133W        W44448  29.393  24.581  14.033
72134W        W44449   9.926  41.515   2.763
72135W        W44450   8.328   3.362   3.325
72136W        W44451  27.612  33.574  11.580
72137W        W44452  21.105  15.441   4.519
72138W        W44453  15.361  43.748  14.788
72139W        W44454   2.910  13.401   0.384
72140W        W44455  14.627  36.179   2.179
72141W        W44456  37.513  10.275  14.937
72142W        W44457   6.733   8.323   2.356
72143W        W44458  23.664  18.159  10.013
72144W        W44459   4.956  42.433  13.391
72145W        W44460  37.527  40.096   3.685
72146W        W44461   5.214  18.347   1.169
72147W        W44462  15.974  43.352   4.617
72148W        W44463  17.101   2.809   0.045
72149W        W44464  17.051  23.986  13.779
72150W        W44465  20.483  32.534  14.648
72151W        W44466  20.210  24.622  14.792
72152W        W44467  44.034  39.143  12.183
72153W        W44468  14.702   0.820  14.029
72154W        W44469  22.503  18.847   9.838
72155W        W44470  38.254   5.228   3.656
72156W        W44471  29.207  22.941   1.282
72157W        W44472  28.512   2.022   3.259
72158W        W44473  18.780  21.767   1.778
72159W        W44474   8.808  43.451   1.786
72160W        W44475   6.368  25.056   4.606
72161W        W44476  17.489   2.509  14.827
72162W        W44477   2.791  34.283  11.940
72163W        W44478  11.263  36.155  12.191
72164W        W44479  26.125  16.564  13.726
72165W        W44480   6.380   1.289  13.441
72166W        W44481  39.789  34.999   4.530
72167W        W44482  15.294  17.531   0.819
72168W        W44483  15.162   1.458   4.916
72169W        W44484  38.171  24.563  12.861
72170W        W44485  38.409  38.783  12.055
72171W        W44486  13.880  35.931   4.642
72172W        W44487  41.943   0.181   2.715
72173W        W44488  10.653  27.548  14.511
72174W        W44489  41.515  10.767   1.217
72175W        W44490   6.735  26.989  13.961
72176W        W44491  22.064   7.277   2.858
72177W        W44492  19.847  19.409  11.137
72178W        W44493  31.877  11.125   1.039
72179W        W44494  35.315  16.783  13.825
72180W        W44495  31.924  40.314  13.306
72181W        W44496  12.802  36.076   2.370
72182W        W44497  37.120   5.182  12.333
72183W        W44498  32.598   9.898   4.182
72184W        W44499  33.429  23.133  11.079
72185W        W44500  11.172  31.862   1.055
72186W        W44501  19.535  41.764   1.702
72187W        W44502  40.858  12.235  12.303
72188W        W44503  40.816   7.144  14.306
72189W        W44504  25.674  24.285   4.016
72190W        W44505   7.284  38.439  11.092
72191W        W44506  36.871  38.072   0.414
72192W        W44507  44.957  33.547  14.895
72193W        W44508  16.248  27.158   3.234
72194W        W44509   9.697  18.647  11.503
72195W        W44510   5.133   2.897  11.597
72196W        W44511   3.478  33.868  11.508
72197W        W44512  22.484  22.064  13.066
72198W        W44513  14.114   4.941   4.719
72199W        W44514  26.000  14.109   0.311
72200W        W44515   5.988  39.291   2.282
72201W        W44516   8.202   2.367  12.061
72202W        W44517   9.593  40.717  11.575
72203W        W44518  41.993  29.930   0.339
72204W        W44519  33.554   3.448  12.754
72205W        W44520  19.771  14.500  11.092
72206W        W44521  17.221   4.962   2.403
72207W        W44522  33.459  11.456   4.607
72208W        W44523  11.003   4.252  11.291
72209W        W44524   5.606  36.318   2.647
72210W        W44525   5.832  19.130  13.034
72211W        W44526  15.656  18.215  12.452
72212W        W44527   9.486  20.160   1.090
72213W        W44528  17.187  16.997  14.289
72214W        W44529  15.404  32.037  11.614
72215W        W44530  10.627   7.846  14.787
72216W        W44531  12.373  22.815  13.911
72217W        W44532   8.328  17.632  11.608
72218W        W44533  33.870  17.181  10.564
72219W        W44534  15.639  30.412  13.063
72220W        W44535  29.694  21.119  12.905
72221W        W44536  31.480  27.125  11.561
72222W        W44537   3.706   4.226   1.185
72223W        W44538  12.567   0.291   0.441
72224W        W44539  39.142  44.258  14.754
72225W        W44540  19.696  37.492   0.736
72226W        W44541  14.760  43.032   0.909
72227W        W44542  26.065  25.054   4.125
72228W        W44543  43.790  44.398   2.359
72229W        W44544   6.358  10.265  13.862
72230W        W44545   9.191  24.653  14.029
72231W        W44546  22.974  34.521  11.623
72232W        W44547  33.075  42.574  12.159
72233W        W44548  11.254  26.166   4.999
72234W        W44549  18.799   8.622  12.926
72235W        W44550  33.971  35.888  13.882
72236W        W44551  18.586   7.919   4.557
72237W        W44552  19.050  25.181  12.948
72238W        W44553  12.449  24.155   0.323
72239W        W44554  29.413  13.416   3.090
72240W        W44555  32.082  16.330   1.116
72241W        W44556  35.066  25.848  11.527
72242W        W44557   7.875  10.755   4.779
72243W        W44558   1.421  24.677  13.831
72244W        W44559  38.000   3.056  13.122
72245W        W44560  39.960  43.868  13.064
72246W        W44561  20.018  41.960   1.631
72247W        W44562  12.765   2.933  13.046
72248W        W44563  14.364  14.637   3.802
72249W        W44564  35.028  16.516  11.593
72250W        W44565  19.069  16.538  13.487
72251W        W44566  14.289  38.758  11.460
72252W        W44567  32.516  43.381  12.458
72253W        W44568  43.833  19.653  10.886
72254W        W44569  22.754  14.581   4.625
72255W        W44570  31.484  27.118  10.849
72256W        W44571  15.611   9.080  10.730
72257W        W44572  43.532  39.018  12.072
72258W        W44573  28.660  16.318   2.539
72259W        W44574  36.548   4.787  11.448
72260W        W44575  43.346  23.735  14.503
72261W        W44576  29.343  19.497  14.868
72262W        W44577   8.499  21.898   0.813
72263W        W44578   5.319   4.397  10.775
72264W        W44579  39.340  12.030  11.662
72265W        W44580  19.319  23.770   1.267
72266W        W44581  30.438   0.513   1.358
72267W        W44582  44.523  10.181   0.526
72268W        W44583   5.983  37.375   4.550
72269W        W44584  29.926  25.906  11.053
72270W        W44585  23.047  22.981  14.941
72271W        W44586  33.032  19.773  13.912
72272W        W44587  20.109   4.963  10.622
72273W        W44588  20.663  19.315  11.474
72274W        W44589   1.518  14.872   1.823
72275W        W44590  10.894  17.788  10.188
72276W        W44591  25.258  29.974   3.277
72277W        W44592  37.304   5.118  12.824
72278W        W44593  27.465  36.463   0.790
72279W        W44594  14.856  21.294   0.760
72280W        W44595  13.562  32.348   4.235
72281W        W44596   9.655   1.480   3.302
72282W        W44597   9.383  12.952  14.936
72283W        W44598  10.101  42.338   0.807
72284W        W44599  44.378  40.511   3.127
72285W        W44600  26.463  15.699   0.803
72286W        W44601  42.606  31.634  11.207
72287W        W44602  12.158  42.401  12.137
72288W        W44603  27.122  34.527  12.459
72289W        W44604  27.537   4.027  10.245
72290W        W44605  41.436   5.270   0.330
72291W        W44606  31.093  22.585   3.133
72292W        W44607  31.835  38.340  12.889
72293W        W44608  26.843  11.813   3.946
72294W        W44609  10.834  13.659   0.350
72295W        W44610   5.693  29.473   2.879
72296W        W44611   2.465  18.753  11.479
72297W        W44612  34.428  22.065   2.455
72298W        W44613  17.581   7.258   0.592
72299W        W44614  23.584  22.680  13.580
72300W        W44615  14.302  20.519  11.110
72301W        W44616  44.099  14.650   2.391
72302W        W44617  29.653  34.915  11.699
72303W        W44618  17.693  11.234   5.447
72304W        W44619  42.733  20.234   1.439
72305W        W44620  16.910  30.203  13.513
72306W        W44621  28.914  28.790   1.263
72307W        W44622  20.078  22.218   4.757
72308W        W44623  21.705  44.817  10.736
72309W        W44624  30.458  25.794  12.421
72310W        W44625   8.858  11.266   1.799
72311W        W44626  14.702  23.127   2.207
72312W        W44627  35.086  27.653   0.800
72313W        W44628  10.288  43.117  10.976
72314W        W44629  10.556  36.404   4.641
72315W        W44630  41.559  18.130   4.660
72316W        W44631  39.392   5.700   2.868
72317W        W44632  13.724  10.618  12.523
72318W        W44633  28.734  29.417   3.782
72319W        W44634  12.347  14.589   1.678
72320W        W44635  32.202  16.706   1.858
72321W        W44636   1.810  12.872  10.587
72322W        W44637  21.212  28.981  14.961
72323W        W44638  30.792  31.576   3.715
72324W        W44639  16.626   5.420  11.017
72325W        W44640   9.796   8.750   2.867
72326W        W44641  16.595  35.789   4.592
72327W        W44642  27.838   4.960  11.572
72328W        W44643  25.091  43.189   4.753
72329W        W44644  23.782  27.402   4.664
72330W        W44645  36.061  44.429   1.961
72331W        W44646  35.820  19.002  12.106
72332W        W44647   3.046  28.090  11.572
72333W        W44648  27.194  13.231   2.869
72334W        W44649  11.728  13.296  10.963
72335W        W44650   1.386  15.825  14.833
72336W        W44651  39.611  37.534   4.697
72337W        W44652   8.235  30.791   2.798
72338W        W44653  23.184  13.684   2.819
72339W        W44654  27.323   4.447   0.366
72340W        W44655  24.997   1.993   3.359
72341W        W44656  21.537  12.295  10.665
72342W        W44657  25.815  43.959   4.326
72343W        W44658   6.330  22.435   3.792
72344W        W44659  19.622  42.950  14.407
72345W        W44660  35.866  31.950   2.210
72346W        W44661  40.618  14.398  13.487
72347W        W44662  28.622   4.781  14.082
72348W        W44663  37.830   1.320  10.574
72349W        W44664   9.358  22.314  14.070
72350W        W44665  35.134  43.850  13.831
72351W        W44666   7.807  40.640   3.634
72352W        W44667  30.925  23.616  11.515
72353W        W44668  32.389  43.106   1.708
72354W        W44669  38.380   2.216  11.493
72355W        W44670  35.011   7.175   1.092
72356W        W44671   2.837  12.086  13.372
72357W        W44672  30.359  10.950   1.159
72358W        W44673   3.017   1.061   2.849
72359W        W44674  15.142  10.162  14.917
72360W        W44675  30.662  42.974   2.161
72361W        W44676  14.384  28.390  12.909
72362W        W44677  25.478  25.522   1.194
72363W        W44678  40.880  38.426   3.407
72364W        W44679  31.088  27.894   1.836
72365W        W44680  11.083  32.361   0.961
72366W        W44681  32.300  10.472  12.707
72367W        W44682  14.152   9.506  10.426
72368W        W44683   2.250   0.759   1.474
72369W        W44684  19.488   0.284   1.987
72370W        W44685  15.149  24.925   0.910
72371W        W44686  26.961  37.379  12.565
72372W        W44687  17.693  33.937  10.420
72373W        W44688   6.845  30.688   2.958
72374W        W44689  39.379  36.624   2.842
72375W        W44690  25.842  13.680  14.364
72376W        W44691  34.346  40.886   2.178
72377W        W44692  18.687  24.519   3.148
72378W        W44693  38.446  31.186  14.388
72379W        W44694  33.909  44.960  14.282
72380W        W44695  12.561  42.638  11.928
72381W        W44696  32.405  33.610   1.837
72382W        W44697  37.465  40.595  12.397
72383W        W44698  13.187   1.003  10.622
72384W        W44699  21.004   6.739  12.096
72385W        W44700  17.306   6.873  13.046
72386W        W44701   8.632  43.770   4.104
72387W        W44702  18.058   5.919  10.541
72388W        W44703  26.039  13.224   4.345
72389W        W44704   9.582  28.478  12.519
72390W        W44705  15.214   5.697  13.577
72391W        W44706  30.982  20.366   1.388
72392W        W44707  20.949  17.879  12.038
72393W        W44708  39.196  22.402  11.615
72394W        W44709   5.936  22.096   2.676
72395W        W44710  30.189  36.035  11.798
72396W        W44711  12.467  38.984  11.552
72397W        W44712  35.886  39.083  12.998
72398W        W44713   9.858  44.764  11.967
72399W        W44714   7.649  21.217  14.288
72400W        W44715  16.998  29.587  12.931
72401W        W44716  22.243  23.613   4.496
72402W        W44717  23.566   8.334  11.609
72403W        W44718  20.207  35.364  13.911
72404W        W44719  31.858  24.499  14.781
72405W        W44720  11.661  21.143  12.652
72406W        W44721  23.380  21.758   3.687
72407W        W44722  35.888  13.870   0.867
72408W        W44723  33.575  15.521  13.168
72409W        W44724  23.168  27.028   2.819
72410W        W44725  19.606  15.677   1.450
72411W        W44726  34.310   5.185   1.794
72412W        W44727  18.110  34.405  12.825
72413W        W44728  38.491  10.536  12.352
72414W        W44729   2.827  12.639  14.384
72415W        W44730  41.123  39.098  10.582
72416W        W44731  16.191  15.246  10.297
72417W        W44732  35.401  16.332   3.255
72418W        W44733  30.363  19.167   2.481
72419W        W44734  27.998  42.374   2.800
72420W        W44735  25.922   0.472   2.875
72421W        W44736  22.763  21.677  10.419
72422W        W44737  17.793  36.837  10.662
72423W        W44738  30.523  22.100   0.678
72424W        W44739  26.229   9.940  12.886
72425W        W44740   2.342  34.922   2.729
72426W        W44741  25.092  29.548   4.484
72427W        W44742  20.518  29.465   3.691
72428W        W44743  17.127   0.261  14.714
72429W        W44744  23.938  40.437  14.919
72430W        W44745  15.971  21.106   2.285
72431W        W44746  36.818  10.174  10.580
72432W        W44747  10.371  17.675  12.504
72433W        W44748  34.845   6.694  14.843
72434W        W44749  34.861  24.607  12.638
72435W        W44750  27.996  14.804   1.850
72436W        W44751  34.459  29.833   1.382
72437W        W44752   2.444  44.351  13.938
72438W        W44753  37.417   7.263  14.521
72439W        W44754  22.893   0.859   9.850
72440W        W44755  14.603   2.470   2.331
72441W        W44756   4.745  15.337   4.131
72442W        W44757  40.308  41.470   0.156
72443W        W44758  32.500  28.770   1.417
72444W        W44759   3.204   1.973   5.095
72445W        W44760  38.192  20.881  14.363
72446W        W44761  27.946  23.473  13.026
72447W        W44762   9.839  35.533  14.037
72448W        W44763  17.551   1.895  13.423
72449W        W44764  22.722   5.370  11.026
72450W        W44765   7.772  38.225  11.085
72451W        W44766   8.852  40.325  13.970
72452W        W44767  10.767  42.867  11.160
72453W        W44768  18.529  26.833   3.144
72454W        W44769  25.138  34.458   4.561
72455W        W44770  14.038   5.954   1.017
72456W        W44771  25.227  29.509   0.269
72457W        W44772  36.499  38.783  12.970
72458W        W44773  28.511  44.763  10.579
72459W        W44774   0.298  12.775   4.667
72460W        W44775  23.268  23.774   0.150
72461W        W44776   2.700  41.624   1.890
72462W        W44777  11.828  24.464  11.132
72463W        W44778  42.319  39.054  12.353
72464W        W44779  22.632   9.679  12.530
72465W        W44780  28.110  11.619  10.428
72466W        W44781  23.791  23.143  14.374
72467W        W44782  21.256  12.591   1.009
72468W        W44783  44.314   3.013  13.565
72469W        W44784  11.103   9.241  13.640
72470W        W44785  26.414  24.404   2.375
72471W        W44786   6.837   3.995   1.256
72472W        W44787   1.904  34.871  12.522
72473W        W44788  30.545  28.682  12.511
72474W        W44789  20.138  40.098  13.794
72475W        W44790  40.334  31.091   1.176
72476W        W44791  31.889   6.126   3.362
72477W        W44792   1.273  23.728  13.568
72478W        W44793  26.195  25.595   0.408
72479W        W44794  23.822  42.499  13.543
72480W        W44795  26.371  42.705   0.342
72481W        W44796  38.406  17.293   1.236
72482W        W44797  18.694  28.858   4.984
72483W        W44798  26.522  15.815  12.914
72484W        W44799   3.218  17.688   0.332
72485W        W44800  39.980   4.269  11.093
72486W        W44801  33.880  44.456   9.996
72487W        W44802  28.157  27.991   1.591
72488W        W44803  17.078  14.784  13.758
72489W        W44804  32.682  42.972  13.987
72490W        W44805  43.951  21.188  14.192
72491W        W44806  14.258   7.244   0.405
72492W        W44807  26.463   3.745   4.303
72493W        W44808  41.845  37.434  11.863
72494W        W44809  15.560   5.315  12.823
72495W        W44810  16.556  29.949  14.475
72496W        W44811  41.957  24.294   0.115
72497W        W44812  37.055  19.679   4.018
72498W        W44813  37.223  22.066  14.477
72499W        W44814  24.180  44.313  10.509
72500W        W44815  34.058  14.447  14.538
72501W        W44816   2.552  19.242  11.651
72502W        W44817  21.194  28.041   0.019
72503W        W44818   1.479  29.183  12.489
72504W        W44819  37.476   2.443  13.475
72505W        W44820  22.985  17.426   3.836
72506W        W44821  24.670  24.355   4.173
72507W        W44822   3.212  31.772  11.098
72508W        W44823  11.423  33.742  11.043
72509W        W44824   2.647   8.512   4.280
72510W        W44825  15.771  18.817  11.827
72511W        W44826  40.996  42.284  12.934
72512W        W44827  18.863  15.616  14.418
72513W        W44828  37.917  41.349  12.515
72514W        W44829  15.420   8.925  11.734
72515W        W44830  36.565  36.254  12.953
72516W        W44831  30.903  41.475  11.599
72517W        W44832  30.915  44.217  13.459
72518W        W44833  36.845  19.937   5.084
72519W        W44834  37.494  27.222   1.433
72520W        W44835  37.317  28.915  11.229
72521W        W44836   2.399   7.407   1.421
72522W        W44837   5.893  44.487   4.843
72523W        W44838  26.912  26.972   2.223
72524W        W44839  35.563  12.314  10.781
72525W        W44840  33.411   7.450  12.485
72526W        W44841   5.405  29.170  11.463
72527W        W44842  31.999  32.426   1.331
72528W        W44843  40.564  26.709  13.922
72529W        W44844  28.718  13.843   2.418
72530W        W44845  14.162  23.123  13.788
72531W        W44846  36.406  39.787  14.873
72532W        W44847  38.127   6.587  13.245
72533W        W44848   0.743  24.686   3.317
72534W        W44849  13.332  12.612   2.738
72535W        W44850  16.593   2.814  13.719
72536W        W44851  20.638  24.812   1.455
72537W        W44852  15.127  10.366   1.877
72538W        W44853   3.245  35.181   4.493
72539W        W44854  14.885   0.854   4.544
72540W        W44855  10.941  33.404  13.833
72541W        W44856  43.034  41.997   2.886
72542W        W44857  41.770  42.562  10.546
72543W        W44858  35.790  25.246  11.690
72544W        W44859  33.303  31.709   4.335
72545W        W44860  12.791  14.649  11.639
72546W        W44861  11.722  30.681   3.832
72547W        W44862  22.412  26.624   4.151
72548W        W44863  22.741  29.455  12.475
72549W        W44864   6.215  34.481   1.764
72550W        W44865   5.440  25.894   2.599
72551W        W44866  38.401   6.670  11.235
72552W        W44867  11.144  37.975  14.420
72553W        W44868   4.363  25.919  11.973
72554W        W44869  14.116  41.929   2.004
72555W        W44870  26.438  35.577   0.644
72556W        W44871  23.691  37.277  12.090
72557W        W44872  41.102  23.163   1.833
72558W        W44873  38.368  26.995   4.324
72559W        W44874   7.816   5.916   2.420
72560W        W44875  28.093   1.294  14.354
72561W        W44876  28.705   8.744  10.976
72562W        W44877  36.971  22.147   9.775
72563W        W44878  40.829  32.800  11.979
72564W        W44879  43.479  33.800   3.674
72565W        W44880  33.867  33.519  13.108
72566W        W44881  41.002   7.705  12.072
72567W        W44882  18.638  21.804   3.356
72568W        W44883  29.322   6.328   3.367
72569W        W44884  31.699   9.621  11.000
72570W        W44885   6.530  34.889   0.835
72571W        W44886  22.818  38.436   2.825
72572W        W44887   0.008  42.084  10.858
72573W        W44888  18.329   7.685  11.093
72574W        W44889   5.515  15.154   1.209
72575W        W44890   4.810  23.165  10.670
72576W        W44891  22.934  30.545   0.748
72577W        W44892  10.357  15.291  11.951
72578W        W44893  31.377  15.489   2.406
72579W        W44894  21.168  25.894   2.164
72580W        W44895  20.824  42.388  13.457
72581W        W44896  24.558  12.436   3.120
72582W        W44897  30.969   1.282  14.044
72583W        W44898  44.537   3.286  14.523
72584W        W44899  14.593  40.201  12.404
72585W        W44900  33.833  18.792  12.520
72586W        W44901  41.812  36.393  14.476
72587W        W44902  38.194  40.430   0.778
72588W        W44903  22.837  11.489  11.175
72589W        W44904  42.753  27.613   0.485
72590W        W44905  31.159  23.464   1.830
72591W        W44906   3.578  12.841  13.682
72592W        W44907  21.478   2.472   0.741
72593W        W44908  20.252  21.498   4.245
72594W        W44909  13.667  33.699   4.427
72595W        W44910  28.154  25.663   4.173
72596W        W44911  32.405   3.296   1.335
72597W        W44912  10.772  33.549   1.238
72598W        W44913  26.057  33.395  14.775
72599W        W44914  38.509  36.387   2.274
72600W        W44915   9.725   1.790   2.883
72601W        W44916  14.691   9.247  13.156
72602W        W44917  24.665   7.267  10.696
72603W        W44918  15.255  41.031  14.123
72604W        W44919  34.970  22.822   4.988
72605W        W44920  24.564  44.947   3.648
72606W        W44921  17.716   7.298  13.573
72607W        W44922  31.167  31.421  14.886
72608W        W44923  44.465  18.635   3.648
72609W        W44924  35.523   9.467  12.418
72610W        W44925   9.642  27.465   1.038
72611W        W44926  44.435  37.535  11.156
72612W        W44927  39.942   7.351  13.904
72613W        W44928  14.275  13.304  12.990
72614W        W44929  30.379  43.418   2.876
72615W        W44930  38.589  19.360   2.233
72616W        W44931  38.012   2.377   0.885
72617W        W44932  36.781  41.700   4.280
72618W        W44933  43.202  29.069  11.093
72619W        W44934  37.581   3.360  12.975
72620W        W44935   1.562   4.239   4.151
72621W        W44936  42.484  27.760   0.939
72622W        W44937  20.527  40.957   1.327
72623W        W44938  44.004  42.007   1.791
72624W        W44939   7.928  22.944  11.782
72625W        W44940  30.344  34.343  14.411
72626W        W44941   6.221   3.334  11.347
72627W        W44942  36.216  34.632   4.357
72628W        W44943  30.975  11.819   1.413
72629W        W44944  23.970  17.104  14.275
72630W        W44945  34.875  32.485  12.936
72631W        W44946  27.907  21.886   0.016
72632W        W44947   1.194   3.160   3.593
72633W        W44948  44.205  20.165   3.513
72634W        W44949  41.873  41.571  10.756
72635W        W44950  27.376  36.276   4.013
72636W        W44951  17.275   5.895  11.740
72637W        W44952  19.408  22.703   2.402
72638W        W44953  14.266  11.305   0.155
72639W        W44954  30.639   4.961  11.615
72640W        W44955   4.384  29.731   3.269
72641W        W44956  41.729  30.104  12.943
72642W        W44957  23.209  10.673   1.329
72643W        W44958   6.232  17.886   0.760
72644W        W44959  18.423   1.819  14.222
72645W        W44960   6.176   0.205  10.694
72646W        W44961  31.665   6.439  13.525
72647W        W44962   6.366  28.381  10.708
72648W        W44963  18.128  12.869  12.406
72649W        W44964  39.068  20.729   5.057
72650W        W44965  24.618  23.052   3.604
72651W        W44966  20.585  10.911  13.119
72652W        W44967  11.318  30.499  12.109
72653W        W44968  14.168  35.309   3.278
72654W        W44969  17.759  39.910  13.860
72655W        W44970   1.771  27.668   2.195
72656W        W44971   4.188  28.552   3.214
72657W        W44972  42.114  22.298   4.644
72658W        W44973  30.207   0.731   1.784
72659W        W44974  33.534  27.058   1.198
72660W        W44975  21.740  10.607   1.460
72661W        W44976  35.476  23.507  10.865
72662W        W44977  20.813  30.022   2.618
72663W        W44978   1.266  36.112  13.340
72664W        W44979  41.187   5.909  14.433
72665W        W44980  19.378  36.947   0.413
72666W        W44981  42.277   5.937  13.940
72667W        W44982  30.176  40.944  11.373
72668W        W44983  35.252  41.812  10.651
72669W        W44984  31.944  43.390   2.395
72670W        W44985  17.102  12.547   3.245
72671W        W44986   9.630  14.742  12.048
72672W        W44987  23.518  43.546   2.824
72673W        W44988  17.258  40.167  11.879
72674W        W44989  23.707  18.324  10.954
72675W        W44990  28.041   2.550   0.487
72676W        W44991  23.974   1.907  11.180
72677W        W44992   2.369   9.742   3.748
72678W        W44993  19.726  28.864   3.272
72679W        W44994  41.661  36.834   0.952
72680W        W44995  23.078  34.705  12.490
72681W        W44996  36.530  18.073  14.698
72682W        W44997  31.570  21.995   1.377
72683W        W44998  31.601  23.378  10.889
72684W        W44999   2.116  27.969   1.823
72685W        W45000   9.215  20.215  13.805
72686W        W45001  36.850   6.816  12.975
72687W        W45002  34.712   3.836   1.904
72688W        W45003  17.129   7.891   4.545
72689W        W45004  20.629   8.057  10.241
72690W        W45005  17.412   0.938  13.534
72691W        W45006  31.518   2.587   4.703
72692W        W45007   1.008  43.419   1.041
72693W        W45008  16.372   2.330   1.360
72694W        W45009  43.600  28.700   3.316
72695W        W45010   2.458   3.592   2.577
72696W        W45011  41.533  29.063  11.495
72697W        W45012  15.851   5.449  13.984
72698W        W45013  36.398  38.030  13.462
72699W        W45014  38.483  38.804   0.225
72700W        W45015  43.055  38.547  13.987
72701W        W45016  13.321  38.060  11.994
72702W        W45017  43.894  27.372  14.913
72703W        W45018  17.460  34.570  13.780
72704W        W45019   4.906  39.715   2.463
72705W        W45020   3.775  15.152   3.274
72706W        W45021   9.449  39.889   0.197
72707W        W45022  27.909   6.203   3.501
72708W        W45023  37.215  38.656   2.772
72709W        W45024  19.060  43.327   0.886
72710W        W45025  15.888  39.434   0.926
72711W        W45026  27.681  16.680   3.920
72712W        W45027   9.365   4.243   0.412
72713W        W45028  11.801  17.359  11.574
72714W        W45029  41.253  19.748  13.389
72715W        W45030  36.251  18.274  12.431
72716W        W45031  43.904  16.349   2.843
72717W        W45032  15.789  16.326   3.228
72718W        W45033   0.680  10.611  11.963
72719W        W45034  21.610  42.075  12.941
72720W        W45035  36.414  37.640   4.921
72721W        W45036  16.781  12.436   0.780
72722W        W45037  38.297  37.167  14.505
72723W        W45038   8.683  22.238  12.953
72724W        W45039   4.063  27.376   2.172
72725W        W45040  17.058  35.961  11.660
72726W        W45041  28.017  32.270  13.893
72727W        W45042  34.138  10.227   0.449
72728W        W45043  24.075  35.484   1.978
72729W        W45044  29.592  13.431  13.469
72730W        W45045  35.635   3.697   4.587
72731W        W45046   6.457  18.638   2.806
72732W        W45047  13.443  27.583  13.793
72733W        W45048  28.391  29.960   0.893
72734W        W45049  24.022   8.398   4.245
72735W        W45050  14.419  30.117   2.151
72736W        W45051  19.195  25.103   2.469
72737W        W45052  19.916  14.348   0.741
72738W        W45053  36.953   1.872   3.656
72739W        W45054  37.578   1.329  13.331
72740W        W45055  27.932  11.208  10.675
72741W        W45056  43.390  15.479  14.380
72742W        W45057   5.810  17.803  12.130
72743W        W45058  11.695  31.348   1.410
72744W        W45059  42.703   8.720   4.747
72745W        W45060  26.996   7.560  12.945
72746W        W45061   3.766  44.658   3.747
72747W        W45062   8.370  41.978   3.208
72748W        W45063  23.635  42.438   3.199
72749W        W45064   9.147  36.469  14.912
72750W        W45065   2.516  14.238   3.140
72751W        W45066   8.980  41.998   4.837
72752W        W45067  27.692  32.884   4.267
72753W        W45068  14.316   5.258  13.906
72754W        W45069  25.120  36.525  11.059
72755W        W45070  37.752  41.460  11.620
72756W        W45071   8.641  34.104  14.678
72757W        W45072  26.985  14.509   2.993
72758W        W45073  27.225  14.787  10.718
72759W        W45074  18.687  17.039   0.201
72760W        W45075  15.940  27.805  10.313
72761W        W45076  19.135   1.201   3.133
72762W        W45077  31.107  39.846  10.675
72763W        W45078  24.643  11.495  11.022
72764W        W45079  11.320   6.405   4.221
72765W        W45080  12.559  11.229  11.519
72766W        W45081   3.444  14.257   4.114
72767W        W45082  40.092  29.519  12.505
72768W        W45083  22.980  30.901  11.050
72769W        W45084  12.072  32.117  14.283
72770W        W45085  16.246  10.822  10.666
72771W        W45086  40.936  18.248   1.278
72772W        W45087  25.614   4.603   3.682
72773W        W45088  26.293  22.488   3.166
72774W        W45089  32.968  32.892   0.266
72775W        W45090   7.868  13.578   0.858
72776W        W45091   6.968   9.273  13.887
72777W        W45092  33.938  37.403  12.240
72778W        W45093   4.999  39.966   1.669
72779W        W45094   2.395   5.195  11.907
72780W        W45095  24.931  41.650  11.367
72781W        W45096  32.952  20.931  13.340
72782W        W45097  13.399  44.317   0.752
72783W        W45098  19.874  38.829  11.115
72784W        W45099  36.030  26.279  14.744
72785W        W45100  26.119  31.971   5.558
72786W        W45101  32.131  10.302   2.712
72787W        W45102   3.693  40.952  12.387
72788W        W45103  34.547  28.892  12.916
72789W        W45104  27.000  15.642  13.562
72790W        W45105  14.169  18.665   0.005
72791W        W45106  16.166  37.341   1.422
72792W        W45107  34.463  15.644  12.896
72793W        W45108  29.639  42.858   4.545
72794W        W45109  33.689  14.599  11.589
72795W        W45110  17.283  13.684  14.105
72796W        W45111  35.489  21.192   3.578
72797W        W45112  39.872   2.803   3.092
72798W        W45113  24.513  30.104  13.397
72799W        W45114  37.368  22.600   0.334
72800W        W45115   1.527   9.616  12.371
72801W        W45116  38.784   1.073  10.379
72802W        W45117  16.813  13.597  12.715
72803W        W45118  34.381  28.513  13.996
72804W        W45119  29.022  29.064  10.638
72805W        W45120  44.958  35.374   0.066
72806W        W45121  33.342  31.231   3.442
72807W        W45122  14.845  13.210  14.296
72808W        W45123  22.657  22.165   4.683
72809W        W45124  30.169   7.326   3.719
72810W        W45125  28.966  44.309   3.017
72811W        W45126  10.174   5.925   0.020
72812W        W45127   7.512  27.439   1.945
72813W        W45128  37.990  23.205  11.280
72814W        W45129   8.420  11.321   0.918
72815W        W45130  12.952  29.170  14.872
72816W        W45131   3.324  24.194  11.157
72817W        W45132  38.602   1.378   3.041
72818W        W45133  33.221   0.372   2.316
72819W        W45134  36.413  36.435  14.886
72820W        W45135  23.638  15.266   0.182
72821W        W45136   4.762  18.054   4.582
72822W        W45137  31.898  24.787  14.353
72823W        W45138  36.417  15.179  14.305
72824W        W45139  18.554  10.285   2.715
72825W        W45140  41.039  39.881  14.795
72826W        W45141   1.515  36.851  13.016
72827W        W45142  14.073  19.788   3.318
72828W        W45143  24.632   2.848   1.709
72829W        W45144  36.914  16.286  13.535
72830W        W45145  31.973  17.094  11.173
72831W        W45146  26.078  38.876  14.584
72832W        W45147  17.619  23.702  10.709
72833W        W45148   0.535  38.630   0.873
72834W        W45149  34.427  36.679   0.060
72835W        W45150  26.661  37.818  12.599
72836W        W45151   0.414  43.035   2.113
72837W        W45152  44.264  17.375  14.509
72838W        W45153  36.887   9.237   3.014
72839W        W45154  39.805   1.499  14.742
72840W        W45155   2.895  12.792   2.706
72841W        W45156  37.567   5.375   1.718
72842W        W45157  42.772  23.960   0.182
72843W        W45158  42.634  37.009   4.091
72844W        W45159   0.993   8.945   3.671
72845W        W45160  30.278   4.847   2.114
72846W        W45161  33.958  23.112  12.912
72847W        W45162  21.672  18.113   4.105
72848W        W45163   8.172   7.263  14.312
72849W        W45164   8.464  32.599  10.592
72850W        W45165   1.487  25.034   3.218
72851W        W45166  29.219  19.250   3.258
72852W        W45167  29.572  23.586   4.941
72853W        W45168   1.749  17.850  12.549
72854W        W45169  41.206  15.732  12.565
72855W        W45170  18.607  15.399  14.001
72856W        W45171  36.103  24.819  11.619
72857W        W45172  19.673  36.966  13.392
72858W        W45173  11.177   4.683  12.105
72859W        W45174   0.226  24.800   1.202
72860W        W45175  40.369  16.366   0.987
72861W        W45176  43.447  24.926  13.005
72862W        W45177  35.756   5.217   4.647
72863W        W45178  13.582  38.299   3.311
72864W        W45179  40.368  44.633   0.977
72865W        W45180  21.559   2.252  13.771
72866W        W45181  22.749  24.611   3.938
72867W        W45182  25.695  15.592  12.486
72868W        W45183  40.080  35.395   3.777
72869W        W45184  24.108  35.544  14.881
72870W        W45185  44.019  33.387   2.780
72871W        W45186   4.604   5.697   3.354
72872W        W45187  13.973  44.625  12.927
72873W        W45188   1.401  32.734  14.777
72874W        W45189  37.163   9.344  12.072
72875W        W45190  40.608   7.171  14.784
72876W        W45191  20.268  16.821   1.606
72877W        W45192  14.236  43.304   5.137
72878W        W45193  34.375  27.167   4.918
72879W        W45194  15.298  29.391   0.760
72880W        W45195   8.128  15.775   0.892
72881W        W45196  25.311  31.673  14.341
72882W        W45197  12.423   9.787   1.813
72883W        W45198  37.530  44.767   0.988
72884W        W45199  12.710  14.348   2.077
72885W        W45200  41.542  13.608   2.242
72886W        W45201   6.369  41.155  12.376
72887W        W45202   9.882  12.572  12.396
72888W        W45203  41.823  19.106   0.444
72889W        W45204  10.241  31.445  11.131
72890W        W45205  13.648   1.719   4.209
72891W        W45206   4.772  13.367  12.542
72892W        W45207  24.754  36.218  14.788
72893W        W45208  29.159  20.521  13.946
72894W        W45209  29.973   2.213  10.602
72895W        W45210   1.719  41.473   2.210
72896W        W45211   1.062  43.450   3.859
72897W        W45212  38.868  12.150  14.323
72898W        W45213  26.500  34.041  12.142
72899W        W45214  21.344  40.464   3.745
72900W        W45215  17.390   4.275  13.497
72901W        W45216  25.988   1.753   2.932
72902W        W45217   0.417   5.092  13.620
72903W        W45218  23.953   8.833   4.527
72904W        W45219  39.079  17.558   2.235
72905W        W45220  10.183  30.720   0.516
72906W        W45221  15.220  15.295   3.911
72907W        W45222  21.540  22.051   2.958
72908W        W45223  15.070  33.545   1.640
72909W        W45224  38.009  26.608   0.542
72910W        W45225  41.928  40.390  13.439
72911W        W45226   1.144   8.778  10.180
72912W        W45227  10.740   3.339   2.794
72913W        W45228  36.827   1.890   3.145
72914W        W45229  27.074  33.456  13.283
72915W        W45230  25.180  36.557   3.705
72916W        W45231  44.266   9.149   0.745
72917W        W45232  24.238  39.910   4.091
72918W        W45233  34.429  24.037   4.431
72919W        W45234  24.456  36.049  13.437
72920W        W45235  22.830  16.818  10.502
72921W        W45236  25.251  36.483   2.831
72922W        W45237   5.210  28.474  14.274
72923W        W45238  44.803   0.898  12.996
72924W        W45239  32.547  29.380  14.169
72925W        W45240  32.560   4.650   0.996
72926W        W45241   5.521  34.983   0.843
72927W        W45242  35.544  33.494   1.350
72928W        W45243  15.217  34.781   2.782
72929W        W45244  19.519  32.639   2.852
72930W        W45245   3.410  23.441  12.375
72931W        W45246   2.967  25.994  10.623
72932W        W45247  28.290  29.823   2.762
72933W        W45248   7.122  19.085   0.735
72934W        W45249  18.936  35.837   1.240
72935W        W45250  21.746  43.393  10.623
72936W        W45251  24.049  31.936   4.132
72937W        W45252   4.597  26.448  11.080
72938W        W45253  19.083  42.297  13.944
72939W        W45254  14.178  28.409  12.122
72940W        W45255  20.688  12.269  13.081
72941W        W45256  23.958  32.634   4.758
72942W        W45257   1.023  40.255   2.293
72943W        W45258  15.091  40.091  14.508
72944W        W45259  43.786  10.947   3.721
72945W        W45260   5.924  17.580  14.040
72946W        W45261   6.606  42.867  14.794
72947W        W45262  10.182  12.362  14.410
72948W        W45263   6.155   6.837   0.738
72949W        W45264   7.225  42.793  11.142
72950W        W45265  21.584   7.776   1.815
72951W        W45266  12.021  22.326  12.365
72952W        W45267  39.019  33.998   2.865
72953W        W45268  13.375   9.338   2.303
72954W        W45269  23.058   0.296   4.689
72955W        W45270  34.376  30.819   3.172
72956W        W45271  43.986  31.564  13.008
72957W        W45272  10.135  20.071  11.828
72958W        W45273  35.167  14.423  13.505
72959W        W45274   0.534  27.242  11.124
72960W        W45275  27.310  30.920   1.808
72961W        W45276   8.134  18.219   3.248
72962W        W45277  27.962  34.833  11.089
72963W        W45278  19.667  28.977  12.033
72964W        W45279  16.738  31.920   2.934
72965W        W45280  23.441   7.951   1.716
72966W        W45281   0.439  24.188   2.375
72967W        W45282  20.453  11.721  12.495
72968W        W45283  13.867  39.929   3.465
72969W        W45284  11.559   7.790  14.497
72970W        W45285   0.062  13.614   3.794
72971W        W45286  42.632  22.450  11.640
72972W        W45287  16.023  33.383  10.693
72973W        W45288   3.420  28.242   1.335
72974W        W45289  10.329   5.657   4.960
72975W        W45290   9.357  13.430  11.413
72976W        W45291   9.205   2.375   3.153
72977W        W45292   1.885   8.970  11.151
72978W        W45293  12.695  10.919  13.941
72979W        W45294  35.529   7.907   3.216
72980W        W45295  38.976  41.016  12.766
72981W        W45296  44.819  42.610   1.385
72982W        W45297  30.173  13.549  14.285
72983W        W45298  18.423  24.195  12.072
72984W        W45299  34.474  17.042   4.322
72985W        W45300  44.734  37.001  10.516
72986W        W45301   2.195  42.961  13.519
72987W        W45302   4.013   5.813  10.590
72988W        W45303  25.882  35.506   1.977
72989W        W45304   8.751  39.899  13.503
72990W        W45305  18.554  39.811  11.540
72991W        W45306   4.189   0.436  14.764
72992W        W45307  29.350  44.957   0.416
72993W        W45308  34.599   4.897  11.742
72994W        W45309  44.060  39.395  10.417
72995W        W45310  15.868   7.215  12.662
72996W        W45311  14.464  11.635  11.670
72997W        W45312  44.752  34.236   0.301
72998W        W45313  25.161  44.944  13.455
72999W        W45314  40.416   8.197   3.824
73000W        W45315  17.573  28.049  12.564
73001W        W45316  37.990  26.055   0.878
73002W        W45317  25.058  40.548   3.341
73003W        W45318  19.454   2.330  11.115
73004W        W45319  41.889  32.790  13.167
73005W        W45320  12.753  37.454  12.310
73006W        W45321  18.822  15.810   5.067
73007W        W45322  14.290   0.376  11.759
73008W        W45323  40.609  25.356  12.105
73009W        W45324  34.188  43.947  12.655
73010W        W45325   4.139  35.063  12.064
73011W        W45326  22.606  25.356  14.508
73012W        W45327  31.953  17.480   0.912
73013W        W45328  10.409  13.658  14.944
73014W        W45329   2.272  10.314   3.419
73015W        W45330  25.417  37.486   5.135
73016W        W45331  42.398   7.143  12.931
73017W        W45332   5.306  14.184  11.693
73018W        W45333  30.900  35.260   2.837
73019W        W45334  22.640  28.015   0.244
73020W        W45335   6.138   8.679  11.071
73021W        W45336  26.719   2.527   1.279
73022W        W45337   5.552  44.057   4.100
73023W        W45338  35.529   5.460  13.343
73024W        W45339  44.900  36.601   4.200
73025W        W45340  37.499  24.555   2.528
73026W        W45341  14.018  22.520   0.498
73027W        W45342   2.975  38.973   0.566
73028W        W45343   9.348  26.544  14.490
73029W        W45344  31.096  12.819  10.763
73030W        W45345  21.259  33.816   1.889
73031W        W45346  26.886  18.477   5.177
73032W        W45347  35.577  13.536   1.132
73033W        W45348  41.722   4.142  10.958
73034W        W45349  16.709  28.040   2.438
73035W        W45350  16.323  29.295  12.439
73036W        W45351  27.556  11.127   0.213
73037W        W45352  32.535  27.990  11.105
73038W        W45353  23.980  22.889   3.799
73039W        W45354  36.916  37.077  10.565
73040W        W45355  42.989  29.247  11.539
73041W        W45356  38.226   1.601   4.621
73042W        W45357  24.407  42.641   1.503
73043W        W45358  13.417   5.658  14.794
73044W        W45359  20.316   3.023   1.746
73045W        W45360  27.318  19.563  12.530
73046W        W45361  20.031  44.775  13.406
73047W        W45362  26.103  26.743  14.146
73048W        W45363  11.375   5.524   1.783
73049W        W45364  14.991  20.219  11.550
73050W        W45365  24.929  36.976  14.341
73051W        W45366  42.602  17.119   0.817
73052W        W45367  27.412  24.423  11.635
73053W        W45368  19.613  28.204   1.952
73054W        W45369  44.770  34.581   2.426
73055W        W45370  41.546  16.549   3.993
73056W        W45371   7.575  43.371  12.007
73057W        W45372  12.753  39.608  12.380
73058W        W45373  43.384  16.613   1.934
73059W        W45374   2.788  35.532  11.369
73060W        W45375  38.711  34.618   1.824
73061W        W45376  20.537   7.527   0.816
73062W        W45377  27.528  16.316   2.145
73063W        W45378  10.653  42.744  12.595
73064W        W45379   4.154  29.493  14.964
73065W        W45380  21.598  39.256  14.306
73066W        W45381  27.119  39.752  12.530
73067W        W45382  41.776   5.089  11.164
73068W        W45383  22.714   7.864  14.363
73069W        W45384   9.787  20.118  10.847
73070W        W45385   0.978   2.380  11.845
73071W        W45386  24.024  20.959   2.551
73072W        W45387   9.112   3.999  13.295
73073W        W45388  18.175  14.290   2.137
73074W        W45389  29.903  12.151   3.095
73075W        W45390  25.183  15.499   4.149
73076W        W45391   4.090  42.833  10.111
73077W        W45392  21.070  17.282   1.949
73078W        W45393   4.352   4.896   0.082
73079W        W45394  11.212  33.671  14.504
73080W        W45395   3.617   4.801   3.311
73081W        W45396  14.939  15.101  11.849
73082W        W45397  42.774  12.523  10.590
73083W        W45398  40.927  30.614   1.703
73084W        W45399  19.743   1.885  13.325
73085W        W45400  42.389  15.182   2.855
73086W        W45401  39.819  39.898  10.521
73087W        W45402   5.743  32.334   4.717
73088W        W45403  23.316   4.156  11.203
73089W        W45404  40.483  18.944  12.548
73090W        W45405  36.597  41.535  13.437
73091W        W45406   6.428  39.327   0.039
73092W        W45407  24.111  31.323  14.847
73093W        W45408  23.639  25.980  13.190
73094W        W45409  23.193  41.988  12.176
73095W        W45410  16.693  21.149   4.401
73096W        W45411  21.518  18.216   4.580
73097W        W45412   9.566  14.439   0.345
73098W        W45413  42.531  29.936   2.010
73099W        W45414  13.698  28.135   0.964
73100W        W45415  32.558   7.458  12.487
73101W        W45416  36.035  32.064   2.707
73102W        W45417  37.578  24.922   2.910
73103W        W45418  41.015  41.980   4.590
73104W        W45419   9.646  19.298   3.674
73105W        W45420  44.709   6.181   4.907
73106W        W45421  34.242   9.772  12.224
73107W        W45422   2.655  26.943   3.670
73108W        W45423  34.387  36.548   1.893
73109W        W45424   2.384  27.559   4.595
73110W        W45425  25.780  10.655  11.598
73111W        W45426  33.976  13.674  13.865
73112W        W45427   4.476   1.648   4.465
73113W        W45428  27.431  41.064   2.797
73114W        W45429  27.823  26.515  12.744
73115W        W45430  29.068  43.474  10.659
73116W        W45431  20.874   2.038  11.119
73117W        W45432  27.130  31.415  11.737
73118W        W45433  38.538  20.179   4.599
73119W        W45434  21.566  24.480  12.530
73120W        W45435  43.284  36.876  14.356
73121W        W45436  21.713  21.198  10.153
73122W        W45437  28.454  33.422  11.119
73123W        W45438  32.424  24.141   4.848
73124W        W45439  27.574  13.531  13.788
73125W        W45440  40.673  29.676   1.289
73126W        W45441  28.574  15.468   4.929
73127W        W45442  10.131  35.852   0.969
73128W        W45443  44.853  38.713  13.467
73129W        W45444   0.374   1.328  14.081
73130W        W45445  10.417  33.891   0.287
73131W        W45446  17.358  25.404   2.061
73132W        W45447  28.314  39.184   3.990
73133W        W45448  19.696   8.712   4.752
73134W        W45449  36.962  33.474  11.621
73135W        W45450   1.333  44.652   3.385
73136W        W45451  37.821  31.676   3.608
73137W        W45452  32.900   6.500   1.823
73138W        W45453  27.513  25.625   1.750
73139W        W45454  27.199  29.146  11.506
73140W        W45455   8.260   8.868   0.627
73141W        W45456  21.779  39.068  12.901
73142W        W45457  19.596  22.180   0.816
73143W        W45458   6.658  15.587  13.451
73144W        W45459  11.078   2.664  11.607
73145W        W45460  31.915  32.922  14.801
73146W        W45461  14.382  29.185   2.649
73147W        W45462  43.500  36.388   2.093
73148W        W45463   8.758  20.239  12.957
73149W        W45464   0.706  15.695  12.610
73150W        W45465  37.323  41.446   1.392
73151W        W45466  18.786  17.050   1.822
73152W        W45467  27.555   6.238   0.647
73153W        W45468  25.989   2.722   3.021
73154W        W45469  28.417   1.336   1.823
73155W        W45470  38.193  41.901   3.847
73156W        W45471  35.437  26.963  14.525
73157W        W45472  19.691  19.429  13.605
73158W        W45473  36.946  36.032   0.845
73159W        W45474  36.731  33.666   0.347
73160W        W45475  22.543  36.330   2.707
73161W        W45476   5.287  19.101  13.774
73162W        W45477  16.169   8.374   2.689
73163W        W45478  18.473  44.122   3.690
73164W        W45479   1.483  25.666   4.256
73165W        W45480  27.526   8.777  10.671
73166W        W45481  34.933  29.148   0.077
73167W        W45482  44.795  40.911   4.466
73168W        W45483   3.276  33.115   4.586
73169W        W45484  40.408   8.207   4.350
73170W        W45485  10.102   4.277   2.696
73171W        W45486  22.643  39.367  13.762
73172W        W45487  22.090  29.683   1.987
73173W        W45488  29.049  37.041   0.512
73174W        W45489  29.920  27.679   4.216
73175W        W45490  21.224   7.594  10.443
73176W        W45491  44.649  39.135  13.696
73177W        W45492  16.675  41.460  13.370
73178W        W45493   2.436  43.387   0.750
73179W        W45494   2.423  31.479  14.945
73180W        W45495  37.979  13.868   0.845
73181W        W45496  40.061  19.306   0.786
73182W        W45497   4.474  24.254   1.297
73183W        W45498  27.072  40.721  11.154
73184W        W45499   0.470   5.163  13.084
73185W        W45500  21.456  41.842  11.116
73186W        W45501  29.135  24.971  13.025
73187W        W45502  25.379  15.292   0.981
73188W        W45503   8.045  26.032  13.814
73189W        W45504  41.287  26.195  13.538
73190W        W45505  27.967  36.909  13.409
73191W        W45506   1.398   3.196  11.513
73192W        W45507  13.155  18.082  14.945
73193W        W45508  43.024   7.783   0.902
73194W        W45509  23.957  16.762  13.178
73195W        W45510  42.000  42.695  14.646
73196W        W45511   1.291   2.191  11.460
73197W        W45512  25.031  35.480  10.723
73198W        W45513  34.885   3.196  13.968
73199W        W45514   6.339  39.078  11.629
73200W        W45515  36.030   9.337  14.320
73201W        W45516  35.539  11.770  12.142
73202W        W45517  30.680  42.031   3.356
73203W        W45518  25.504  28.116   0.286
73204W        W45519  13.025   7.310  14.067
73205W        W45520  16.862  14.227  11.572
73206W        W45521   5.817  32.620  13.046
73207W        W45522  42.790  20.640  14.337
73208W        W45523  25.488   8.805  10.703
73209W        W45524  13.238  31.538   3.394
73210W        W45525  32.165  14.249   4.230
73211W        W45526  14.131   9.968   0.698
73212W        W45527  22.229   6.798   2.813
73213W        W45528  40.815  28.573   3.633
73214W        W45529  32.371  40.471   0.486
73215W        W45530  42.824  41.012   0.286
73216W        W45531  38.775  37.538   0.899
73217W        W45532  31.497   1.207  12.407
73218W        W45533   2.541  30.067  13.355
73219W        W45534  17.561  18.859   1.819
73220W        W45535  39.492  14.652   0.416
73221W        W45536  44.370  41.743  13.927
73222W        W45537  28.920  33.509   1.852
73223W        W45538  23.612   1.131   4.776
73224W        W45539   9.175  29.401  14.038
73225W        W45540  21.239  25.498   3.736
73226W        W45541  40.267  10.869   1.881
73227W        W45542  32.876   7.468   1.780
73228W        W45543  44.476   8.725  13.805
73229W        W45544   1.413  23.566   2.021
73230W        W45545  26.082  16.150   1.177
73231W        W45546  16.192   7.153   3.334
73232W        W45547  20.825  29.461   4.575
73233W        W45548  34.762  23.767   3.574
73234W        W45549  20.906  37.798   1.787
73235W        W45550   0.951   8.712   3.203
73236W        W45551   9.682  26.925   1.300
73237W        W45552   8.717   2.272  10.656
73238W        W45553  44.168  35.495   3.282
73239W        W45554  41.947  21.554   2.319
73240W        W45555  21.554  39.449  10.737
73241W        W45556  39.080  18.567   4.588
73242W        W45557  42.952  19.368   0.955
73243W        W45558  24.035   3.499   2.150
73244W        W45559  15.303  36.619   0.871
73245W        W45560  29.499  28.357   4.627
73246W        W45561  28.887  14.620  11.666
73247W        W45562   8.911  40.271  12.069
73248W        W45563  27.422   4.337  10.884
73249W        W45564  18.860  43.836   0.857
73250W        W45565   6.849  26.994   2.125
73251W        W45566  27.502  18.277   4.180
73252W        W45567  29.930  42.063   3.531
73253W        W45568   4.515  28.745  13.466
73254W        W45569  10.371  26.127  14.269
73255W        W45570  30.527  19.742  13.422
73256W        W45571  19.293  24.926   0.008
73257W        W45572  17.750  26.542   2.339
73258W        W45573   8.351  10.919   3.642
73259W        W45574  38.109  24.005  14.915
73260W        W45575  23.508   5.019   1.707
73261W        W45576   5.676  10.886  11.613
73262W        W45577  18.165  38.294  13.417
73263W        W45578  42.391  43.182   1.764
73264W        W45579  37.127   1.886  12.452
73265W        W45580  21.682  10.634  14.755
73266W        W45581  29.318   8.551  14.166
73267W        W45582  25.595  21.940   4.167
73268W        W45583  29.333   0.070  12.875
73269W        W45584  31.047  13.543  12.447
73270W        W45585   8.366   4.309  14.330
73271W        W45586  36.110  28.150  13.487
73272W        W45587  10.158  38.066   2.253
73273W        W45588  39.688  36.899   0.082
73274W        W45589  12.213  35.279  11.177
73275W        W45590  44.023  17.354  13.341
73276W        W45591  33.894  16.634  13.381
73277W        W45592  37.079  34.474   0.503
73278W        W45593   6.184  19.079   2.677
73279W        W45594   8.809  30.436  12.816
73280W        W45595  25.037  28.368  11.886
73281W        W45596  35.158  17.759   1.294
73282W        W45597   6.784  11.122   0.774
73283W        W45598   2.864  21.619   4.573
73284W        W45599  43.893  17.714   1.392
73285W        W45600  44.975   1.520   1.897
73286W        W45601   6.854   1.754  14.854
73287W        W45602   9.597  12.869  10.542
73288W        W45603  14.698  32.376  10.601
73289W        W45604  29.970  30.480  14.694
73290W        W45605  32.987  43.270   2.810
73291W        W45606  21.961  12.848  14.314
73292W        W45607  36.385  28.156   3.188
73293W        W45608  35.621   4.074  12.621
73294W        W45609   0.393  21.308   2.284
73295W        W45610  34.001  42.461   0.980
73296W        W45611   4.809   6.210  13.025
73297W        W45612  41.867  16.972  12.367
73298W        W45613  37.544  13.196   1.476
73299W        W45614  24.346  22.039   4.585
73300W        W45615  17.646  38.362   4.854
73301W        W45616   7.329  20.260  11.093
73302W        W45617   9.977  40.088   1.334
73303W        W45618  13.315  44.718  14.060
73304W        W45619   7.409  12.397  14.848
73305W        W45620  20.598  11.252  14.832
73306W        W45621  13.922  40.504  13.134
73307W        W45622  38.627  40.277  12.145
73308W        W45623  32.589  25.099  12.828
73309W        W45624  41.386   4.650  12.497
73310W        W45625   3.436   8.190   4.530
73311W        W45626  16.675  40.741  10.776
73312W        W45627  40.823  21.179  11.948
73313W        W45628   2.304  21.866   0.791
73314W        W45629   7.595  40.930  14.129
73315W        W45630  18.086  40.091   2.254
73316W        W45631  31.505  44.257   0.994
73317W        W45632  13.568  25.891   3.238
73318W        W45633  16.752  41.978  13.343
73319W        W45634  16.612  36.567  10.784
73320W        W45635   0.521  29.120  12.568
73321W        W45636  24.652   0.028   4.565
73322W        W45637   9.887   4.689   2.445
73323W        W45638  38.218  13.605   3.613
73324W        W45639  13.896  44.402  14.242
73325W        W45640  28.589  22.224   3.540
73326W        W45641  24.071  15.134  14.892
73327W        W45642  22.830  15.636   4.263
73328W        W45643  32.406  18.851  12.419
73329W        W45644  17.189  21.523   2.715
73330W        W45645  14.562  17.673   0.131
73331W        W45646  25.165   4.077  13.421
73332W        W45647  32.954  34.706   4.911
73333W        W45648  28.124  44.078  13.951
73334W        W45649  22.757  43.976   4.170
73335W        W45650  20.672   5.019  11.980
73336W        W45651  40.530  32.658  11.070
73337W        W45652  22.530  19.236  10.181
73338W        W45653  33.328   4.654   0.029
73339W        W45654  19.519  39.787  11.103
73340W        W45655   9.281  27.684   1.310
73341W        W45656  44.264  41.013  12.501
73342W        W45657   1.931  27.232  11.694
73343W        W45658  39.491   4.691  11.780
73344W        W45659  38.055  21.244  13.418
73345W        W45660  36.485  26.887   2.668
73346W        W45661  37.345  33.624  12.895
73347W        W45662  30.179  22.645  12.886
73348W        W45663  40.326   7.761   4.108
73349W        W45664   3.280  31.723   0.909
73350W        W45665  41.302  42.933   3.698
73351W        W45666  36.591  33.183  14.046
73352W        W45667   3.437  33.046  13.835
73353W        W45668  43.596  29.252   4.600
73354W        W45669  35.256  28.481  13.562
73355W        W45670   6.530  44.973  10.979
73356W        W45671   4.719  36.031  10.360
73357W        W45672  43.844   2.684   0.885
73358W        W45673  25.516  40.443   3.533
73359W        W45674  24.138  18.137   0.663
73360W        W45675  37.006  34.969   4.082
73361W        W45676  41.831   2.838   1.871
73362W        W45677  37.886  37.552   3.744
73363W        W45678  24.930  29.456  14.759
73364W        W45679  15.252   9.129   3.565
73365W        W45680  16.711   2.463  14.116
73366W        W45681  35.279  14.715   0.292
73367W        W45682  32.039  28.108  10.759
73368W        W45683  36.384  15.593  11.636
73369W        W45684  17.176  42.541  12.839
73370W        W45685  28.542   2.138  12.499
73371W        W45686  36.798  36.042  14.919
73372W        W45687  25.540  21.532  14.544
73373W        W45688  13.575   2.520  12.450
73374W        W45689  15.478   2.745  12.508
73375W        W45690  15.228   7.895   3.128
73376W        W45691   7.643  41.638  12.527
73377W        W45692  23.092   3.150   1.716
73378W        W45693  22.893  13.380   2.456
73379W        W45694  41.443   5.213   4.592
73380W        W45695  20.270  27.083   0.674
73381W        W45696  19.548  17.730  14.574
73382W        W45697  17.254  14.886   4.156
73383W        W45698  41.876  27.690  14.038
73384W        W45699  42.281  36.812   3.014
73385W        W45700  11.610  18.617   3.329
73386W        W45701  40.491   6.076   0.707
73387W        W45702  36.971   0.299  13.624
73388W        W45703   4.767  44.744   1.525
73389W        W45704  25.612  14.662  12.639
73390W        W45705  27.005  32.083   3.660
73391W        W45706  24.666   7.787  13.916
73392W        W45707  22.445  18.777   0.902
73393W        W45708  36.900   0.162   1.459
73394W        W45709  19.140  10.320   2.291
73395W        W45710  34.524   9.347  11.603
73396W        W45711  10.884  29.665  13.819
73397W        W45712  41.389  35.415  13.538
73398W        W45713  26.161   3.199   3.115
73399W        W45714  14.104   6.487   4.398
73400W        W45715  17.186  29.866  11.138
73401W        W45716  26.479   2.968   1.378
73402W        W45717  21.108  38.788  12.853
73403W        W45718  28.477  27.033   4.545
73404W        W45719   5.103   4.019  14.419
73405W        W45720  22.215  13.183  11.974
73406W        W45721   6.751   7.387   5.070
73407W        W45722  40.441  32.447   3.662
73408W        W45723  35.041   7.621   4.111
73409W        W45724  13.336  16.040  14.869
73410W        W45725  21.584   3.617  13.471
73411W        W45726  21.730  19.151  11.444
73412W        W45727  20.742  19.165   1.902
73413W        W45728   9.444  12.355  11.609
73414W        W45729  27.858  23.631  14.858
73415W        W45730  22.973  36.962  12.392
73416W        W45731  17.296  37.747   1.932
73417W        W45732   3.655  29.188  14.315
73418W        W45733  31.136  34.223   2.906
73419W        W45734  39.186  41.444   2.875
73420W        W45735  40.808  32.292  11.866
73421W        W45736  18.639   7.330  14.251
73422W        W45737  28.086  11.636   1.372
73423W        W45738   6.821   8.258   3.289
73424W        W45739  28.334  13.299   4.482
73425W        W45740  25.597  19.379   2.837
73426W        W45741  33.304  43.581  12.290
73427W        W45742  24.553  34.835   2.560
73428W        W45743   6.733  11.756   4.614
73429W        W45744   9.132  26.684  14.012
73430W        W45745  25.001  28.592   4.927
73431W        W45746  14.754  40.195   1.617
73432W        W45747   9.039  31.478   2.212
73433W        W45748  44.667  29.003   1.175
73434W        W45749  34.528   1.421   0.485
73435W        W45750  39.132  22.221  12.906
73436W        W45751  31.927  32.561   3.287
73437W        W45752  36.186  14.410  11.531
73438W        W45753   4.185  16.578   2.452
73439W        W45754  44.285  36.852  13.488
73440W        W45755   9.278  39.396  13.949
73441W        W45756  36.975  13.615   2.380
73442W        W45757  35.605  39.367  12.092
73443W        W45758  26.241  13.891   5.346
73444W        W45759  27.821   0.898  12.476
73445W        W45760  36.664  41.463   2.630
73446W        W45761  39.131  16.552   3.321
73447W        W45762  28.983  13.690  12.711
73448W        W45763   9.770  29.440   0.284
73449W        W45764   3.959  41.381   4.216
73450W        W45765  43.852  29.001   2.204
73451W        W45766  38.175  12.122   2.674
73452W        W45767  10.205  26.069   3.250
73453W        W45768  39.800   8.705  12.552
73454W        W45769  17.453  10.598  14.880
73455W        W45770  23.105  32.823  12.945
73456W        W45771  20.196  10.284   3.396
73457W        W45772  15.854   6.909   3.665
73458W        W45773   9.658  13.977   0.555
73459W        W45774  26.499  36.765   1.918
73460W        W45775  39.299  23.130   1.450
73461W        W45776   1.477   7.974  13.192
73462W        W45777  34.936  12.626  14.872
73463W        W45778  19.700   2.926  13.379
73464W        W45779  39.411  25.464  13.849
73465W        W45780   7.375  31.687   0.659
73466W        W45781  42.021  13.358   4.087
73467W        W45782   7.170  31.646  12.502
73468W        W45783  27.552  38.563   2.358
73469W        W45784  42.302   0.399  11.113
73470W        W45785  10.892   3.876   2.138
73471W        W45786  17.034   1.521   4.959
73472W        W45787   3.218  41.341  11.179
73473W        W45788  21.794  18.667  13.982
73474W        W45789  43.231   8.128  11.074
73475W        W45790  41.367  14.890  10.698
73476W        W45791   8.511  27.214  14.933
73477W        W45792  32.363  32.843  12.553
73478W        W45793  30.990  41.822  13.920
73479W        W45794   7.204  33.386  13.099
73480W        W45795  44.526  44.995   2.728
73481W        W45796   0.789  17.810   0.954
73482W        W45797  24.183   9.579  11.867
73483W        W45798  20.250   5.409   1.261
73484W        W45799  42.479  32.335   3.626
73485W        W45800  31.224  26.617   2.612
73486W        W45801  15.644  34.956   0.940
73487W        W45802  21.996  28.489  11.111
73488W        W45803  27.818  27.524   2.711
73489W        W45804  11.257  37.410  11.601
73490W        W45805  13.098  21.473   3.644
73491W        W45806   1.069  21.315  10.505
73492W        W45807  32.035  16.297   2.137
73493W        W45808  41.673  31.938  12.788
73494W        W45809   1.244  19.485  12.468
73495W        W45810  24.122  31.366  12.498
73496W        W45811  16.183  17.267  14.541
73497W        W45812  30.131  20.756  12.079
73498W        W45813  12.401  27.553  13.120
73499W        W45814  44.024  26.194   2.339
73500W        W45815  35.504   4.386   1.459
73501W        W45816  26.185  39.290  11.137
73502W        W45817  16.502  32.500   1.578
73503W        W45818  22.215  35.793  11.621
73504W        W45819  22.935   8.790  12.140
73505W        W45820  18.766   3.639   2.409
73506W        W45821  39.009  12.394   4.266
73507W        W45822  10.090  28.014  13.661
73508W        W45823  40.870  40.085   2.693
73509W        W45824   6.679  17.103  11.187
73510W        W45825  15.149  35.353  13.226
73511W        W45826  36.608  33.972   2.018
73512W        W45827  31.390  18.172  12.013
73513W        W45828  35.810  18.230   0.250
73514W        W45829  32.049  44.817   1.713
73515W        W45830  20.117  18.056  13.144
73516W        W45831   6.821  11.937  11.658
73517W        W45832   8.031   2.120  11.310
73518W        W45833   2.282  29.890  14.316
73519W        W45834  24.664  14.562  12.923
73520W        W45835  10.780  16.835  11.495
73521W        W45836   3.976  33.639   4.183
73522W        W45837  16.599  35.015  11.439
73523W        W45838  18.132  27.444   2.353
73524W        W45839  19.546  30.923   0.031
73525W        W45840  31.707  34.413   4.538
73526W        W45841  35.444  37.025  13.173
73527W        W45842   4.878   3.025  13.798
73528W        W45843   4.262  32.558   3.405
73529W        W45844  42.585  29.093   4.804
73530W        W45845   6.969  14.864   3.711
73531W        W45846  32.642  27.449   2.403
73532W        W45847  12.092  39.997   4.921
73533W        W45848  31.986  20.761  14.155
73534W        W45849  30.560  15.309   0.337
73535W        W45850  29.423  34.433   2.338
73536W        W45851   7.284  20.122   2.196
73537W        W45852  32.567  11.712   4.189
73538W        W45853  37.384  36.623  14.376
73539W        W45854  27.995   2.879   1.787
73540W        W45855  40.758  36.962  11.393
73541W        W45856   2.733   6.148  11.547
73542W        W45857  22.991  30.438  11.257
73543W        W45858  28.942   8.250  12.181
73544W        W45859   7.342  37.964  11.245
73545W        W45860  17.167  36.626   4.857
73546W        W45861  13.625  12.258   0.788
73547W        W45862   7.466   1.978  10.668
73548W        W45863  44.966  18.970   1.426
73549W        W45864   0.922  34.264   4.513
73550W        W45865  12.258  15.029   4.672
73551W        W45866  31.564  26.047  13.808
73552W        W45867  39.622  29.567   5.050
73553W        W45868  38.002   8.743  14.187
73554W        W45869  24.980   1.617   0.780
73555W        W45870  28.739  16.309   1.149
73556W        W45871   6.024  35.487   2.122
73557W        W45872  34.968  10.611  10.678
73558W        W45873  19.806  37.169  12.093
73559W        W45874   0.797  16.260  14.258
73560W        W45875  10.263  30.659   4.559
73561W        W45876  15.365  31.209  13.020
73562W        W45877  15.512  33.009  11.574
73563W        W45878  39.571  42.920   4.134
73564W        W45879   9.958  27.439   2.255
73565W        W45880  12.281  21.148  10.672
73566W        W45881  41.994   6.244   0.898
73567W        W45882  37.065  42.157  12.234
73568W        W45883  20.700   3.321   1.935
73569W        W45884  22.243  20.019   5.157
73570W        W45885   3.654  16.305  13.401
73571W        W45886  29.439  34.307  14.786
73572W        W45887  19.005  11.608   4.204
73573W        W45888  23.681  34.532   1.341
73574W        W45889  43.088  43.323   4.724
73575W        W45890  40.771   2.464  11.141
73576W        W45891  34.501  23.539  12.066
73577W        W45892  20.224  40.714  10.369
73578W        W45893  43.438  16.114   0.736
73579W        W45894  28.932  29.520   1.834
73580W        W45895  26.193  24.393   4.737
73581W        W45896  16.334   4.293  14.848
73582W        W45897  44.267  37.954  12.122
73583W        W45898  40.894   6.193  13.119
73584W        W45899  38.138   0.285  14.342
73585W        W45900  18.061   2.662   2.940
73586W        W45901  32.590  39.651   0.951
73587W        W45902  32.871  10.412   3.986
73588W        W45903  24.098  44.788  11.440
73589W        W45904   0.007  14.082  11.100
73590W        W45905  27.504  19.673   1.801
73591W        W45906  22.990   1.299   3.554
73592W        W45907  38.428  44.992   0.123
73593W        W45908  24.508  42.454   2.989
73594W        W45909  28.428  14.827  11.706
73595W        W45910  26.756  14.667   3.812
73596W        W45911   4.372   9.390   2.362
73597W        W45912  40.955  33.145  11.619
73598W        W45913   9.834  37.283   4.210
73599W        W45914  22.951  12.443   0.079
73600W        W45915  26.335  35.114   5.052
73601W        W45916   2.586   0.768  11.465
73602W        W45917  23.064  27.725  13.931
73603W        W45918  30.580  40.845  13.189
73604W        W45919  29.862  41.260  13.603
73605W        W45920  38.240  19.594   4.050
73606W        W45921   8.959  24.750  12.099
73607W        W45922   8.357  24.367   0.382
73608W        W45923  10.304   3.095   2.845
73609W        W45924   3.953   9.753   3.624
73610W        W45925  19.803   8.843   5.406
73611W        W45926  23.991  24.937  13.491
73612W        W45927   3.542  21.264   3.694
73613W        W45928  40.802  29.244  11.967
73614W        W45929  28.554  35.302  13.730
73615W        W45930  14.282  22.536  13.616
73616W        W45931  30.601   6.202  10.734
73617W        W45932  25.712  15.881  11.195
73618W        W45933  30.512   4.773   4.074
73619W        W45934   3.821  41.053  14.515
73620W        W45935  30.425   6.700  11.569
73621W        W45936   5.101   3.610   0.664
73622W        W45937   5.877  13.686  11.701
73623W        W45938  21.329  16.529  12.068
73624W        W45939  31.951  28.025  13.044
73625W        W45940   6.339  22.217  11.524
73626W        W45941  16.973   9.390   0.298
73627W        W45942  35.121  35.788  12.268
73628W        W45943   0.950  15.328   0.343
73629W        W45944  11.308  41.332  11.155
73630W        W45945  26.481  41.823   1.350
73631W        W45946  32.381  21.258   0.255
73632W        W45947  11.314  41.908   3.810
73633W        W45948   9.253  15.491   5.140
73634W        W45949  30.872  32.613   0.323
73635W        W45950  11.262  25.557  13.421
73636W        W45951   2.073   7.086   1.189
73637W        W45952   1.314  23.577   4.804
73638W        W45953  36.359   2.707   1.725
73639W        W45954  27.683  37.913  11.402
73640W        W45955   0.170  11.419   4.216
73641W        W45956  26.199  31.652   0.907
73642W        W45957  21.048  33.357  12.380
73643W        W45958   4.622  34.530   0.971
73644W        W45959  22.918   5.187  12.056
73645W        W45960  27.043  12.575  11.684
73646W        W45961   1.504  31.938   0.262
73647W        W45962  23.710  16.832   3.292
73648W        W45963   6.362  20.697  14.414
73649W        W45964  25.642  23.244   2.895
73650W        W45965  26.178  15.588   4.108
73651W        W45966  25.442  35.387   0.780
73652W        W45967  37.850  42.478  13.434
73653W        W45968   2.748  33.633   3.476
73654W        W45969  39.542  28.661  14.430
73655W        W45970  26.175  12.835  10.810
73656W        W45971   0.517  39.030   1.730
73657W        W45972   7.766   1.435  12.144
73658W        W45973  19.309  18.600   1.395
73659W        W45974   5.191  31.056  14.404
73660W        W45975  20.431  42.289  11.814
73661W        W45976  26.510  23.456  14.937
73662W        W45977  40.903  10.715  13.898
73663W        W45978  35.962   6.353   1.479
73664W        W45979  26.096  13.665   4.587
73665W        W45980  28.449  28.606   1.458
73666W        W45981   4.822  40.932   1.837
73667W        W45982  10.361   5.250   1.357
73668W        W45983  19.945  36.581   2.300
73669W        W45984   3.974   4.228  12.911
73670W        W45985  24.617   9.662   1.927
73671W        W45986   8.175  37.525   4.659
73672W        W45987  33.154  20.102  14.335
73673W        W45988  32.191  10.775  14.276
73674W        W45989  25.736  25.469   3.316
73675W        W45990  32.961  13.138   3.648
73676W        W45991  36.738  40.061   0.342
73677W        W45992  38.054  27.683   1.289
73678W        W45993  16.573  26.381   0.078
73679W        W45994  35.508   9.034   4.438
73680W        W45995  32.660   8.795  12.908
73681W        W45996   4.051  14.807   0.002
73682W        W45997  19.099  40.311   1.727
73683W        W45998  37.866  29.695   2.101
73684W        W45999   0.754  22.922   4.818
73685W        W46000  36.699  23.053   3.166
73686W        W46001  43.873  30.999   2.292
73687W        W46002  26.698   8.724  12.036
73688W        W46003   9.355   6.838   3.339
73689W        W46004   3.300  39.110  11.989
73690W        W46005   9.651  24.418  14.037
73691W        W46006  35.527  34.673   3.173
73692W        W46007   7.459  24.433   2.888
73693W        W46008   6.451  11.370  12.441
73694W        W46009  31.851  25.161   3.708
73695W        W46010  25.221  12.085  10.728
73696W        W46011   4.685  34.480  13.902
73697W        W46012  11.830   0.235   0.947
73698W        W46013  36.678  36.015   3.564
73699W        W46014  12.474  39.110  14.903
73700W        W46015   8.960  15.797  13.972
73701W        W46016   1.800  28.183   2.222
73702W        W46017  29.974  13.435   2.260
73703W        W46018  41.418  27.034  12.779
73704W        W46019  42.969  34.869   4.364
73705W        W46020  29.521   0.783  12.317
73706W        W46021   4.952  42.777  13.877
73707W        W46022   2.418  24.471  14.980
73708W        W46023  39.361   1.460   1.723
73709W        W46024  20.141   9.835  11.722
73710W        W46025  19.097  24.133  14.497
73711W        W46026  14.263  16.732  10.806
73712W        W46027  31.514  16.344   0.366
73713W        W46028  39.890  27.682   2.378
73714W        W46029  23.001   1.239   1.659
73715W        W46030  23.706   6.221   2.381
73716W        W46031  37.904  44.036  13.896
73717W        W46032  20.944   8.276   4.867
73718W        W46033   3.822  37.591   0.523
73719W        W46034  10.551  27.690   0.048
73720W        W46035   7.950  37.848   3.396
73721W        W46036  35.638  10.489  12.590
73722W        W46037   9.148  14.647   3.241
73723W        W46038  39.542  17.068   2.744
73724W        W46039  32.569   9.155   0.841
73725W        W46040   3.701   6.350  12.944
73726W        W46041  20.404   9.125   5.034
73727W        W46042  20.654  22.027   0.377
73728W        W46043  31.083  35.571   1.326
73729W        W46044   3.464  29.646   4.260
73730W        W46045  22.224  42.293   3.561
73731W        W46046  37.132   0.033  11.996
73732W        W46047  35.087   7.686   3.184
73733W        W46048  18.634  43.259  13.848
73734W        W46049   2.499  40.792  14.920
73735W        W46050  19.677   5.679  13.417
73736W        W46051  14.305  43.930   3.829
73737W        W46052  39.492  16.204   3.227
73738W        W46053   9.693  22.959  13.778
73739W        W46054  29.247  29.273  12.711
73740W        W46055  27.639   1.622   1.276
73741W        W46056  34.484   9.372   1.867
73742W        W46057  34.035  25.052  11.349
73743W        W46058  25.528  28.087  13.544
73744W        W46059  33.896   2.283   3.845
73745W        W46060  25.249  39.977   2.139
73746W        W46061  44.204  17.147  10.964
73747W        W46062  32.103  43.752   1.631
73748W        W46063  39.498   7.227  10.647
73749W        W46064  24.510  41.377  14.870
73750W        W46065  17.730  44.986   1.148
73751W        W46066  12.398  19.204   3.551
73752W        W46067  10.892   1.053   0.835
73753W        W46068  39.189  14.695  13.151
73754W        W46069  43.501  25.643  13.303
73755W        W46070   3.023   1.266  13.069
73756W        W46071   4.270  30.007   1.865
73757W        W46072   7.094   5.130   0.521
73758W        W46073   0.194   5.699   2.130
73759W        W46074  10.711   6.447   0.802
73760W        W46075  33.815  34.504  12.946
73761W        W46076  18.806  43.832  11.349
73762W        W46077   5.720  40.719   4.619
73763W        W46078  27.629  14.331   0.667
73764W        W46079  38.326   5.433  13.400
73765W        W46080  21.723  20.472   2.309
73766W        W46081  35.373  38.856  12.044
73767W        W46082   0.292  25.952   0.201
73768W        W46083   5.065   1.804  13.473
73769W        W46084  10.246  22.214   2.253
73770W        W46085  17.325   8.726  10.038
73771W        W46086  21.510  34.518   0.866
73772W        W46087  25.983  36.326  11.639
73773W        W46088  26.156  27.932  12.507
73774W        W46089  20.288  22.680  12.599
73775W        W46090  32.004  12.005  11.097
73776W        W46091  27.720  33.987  10.679
73777W        W46092  42.861  44.739  13.408
73778W        W46093  11.666  36.948   4.373
73779W        W46094   6.863  44.776   0.853
73780W        W46095   7.400  31.959   3.886
73781W        W46096  13.962  28.485   3.814
73782W        W46097  20.685  43.178   1.756
73783W        W46098   0.255  37.000   2.249
73784W        W46099   2.219  34.131   3.265
73785W        W46100  33.690  16.830   1.753
73786W        W46101  38.434  10.795   1.168
73787W        W46102   2.643  36.471  11.590
73788W        W46103  11.576  15.268  12.665
73789W        W46104  44.563  17.520  14.124
73790W        W46105  30.992  30.746   1.406
73791W        W46106   0.251  12.687   2.842
73792W        W46107  14.373  12.383  12.523
73793W        W46108  24.537   9.227   2.244
73794W        W46109  17.301  29.449   0.735
73795W        W46110  22.018  26.974   0.302
73796W        W46111  19.483  16.766  13.290
73797W        W46112  12.252  13.299  12.135
73798W        W46113  28.156  27.464  10.697
73799W        W46114  28.680  23.112  14.422
73800W        W46115   1.325  28.239  10.764
73801W        W46116  20.964  35.480   4.113
73802W        W46117  24.682  19.073   3.995
73803W        W46118  21.281   8.137  14.492
73804W        W46119  44.161  40.402   4.592
73805W        W46120  35.167  32.645  10.677
73806W        W46121   2.987   9.342   4.773
73807W        W46122  26.377   3.941   3.701
73808W        W46123   5.487  12.657  12.776
73809W        W46124  23.604   2.077   2.700
73810W        W46125   0.483  18.696  14.041
73811W        W46126   3.165  29.965  10.877
73812W        W46127  19.413  15.714   3.772
73813W        W46128   5.676  18.416   3.145
73814W        W46129  44.567   5.819  10.320
73815W        W46130  44.903  23.315   4.317
73816W        W46131  33.095  29.630  10.561
73817W        W46132  44.690  27.121  11.314
73818W        W46133  35.413   4.739   3.199
73819W        W46134  26.075  22.720  14.377
73820W        W46135   9.947  21.339  12.658
73821W        W46136  13.632  15.468  13.578
73822W        W46137  42.522  22.995   4.484
73823W        W46138  33.926  18.595  13.401
73824W        W46139   0.691  19.793  14.854
73825W        W46140  31.673  18.323  14.325
73826W        W46141  13.322  16.449  11.044
73827W        W46142  34.112  13.886   4.842
73828W        W46143   1.821  30.682  14.745
73829W        W46144  17.788  44.187  14.816
73830W        W46145   8.877   7.687   0.482
73831W        W46146   6.338  11.589  14.387
73832W        W46147  40.901  16.600  14.829
73833W        W46148  20.657   3.689  11.521
73834W        W46149   6.207  27.923   4.186
73835W        W46150   4.293  33.863  13.435
73836W        W46151  10.694  28.622  12.177
73837W        W46152  38.624  35.542   0.437
73838W        W46153  38.470  19.185   3.080
73839W        W46154  29.102  12.633  14.371
73840W        W46155  35.787   1.236   1.721
73841W        W46156  20.176  17.698  11.579
73842W        W46157  32.499  30.912   1.739
73843W        W46158  29.817  13.809  13.907
73844W        W46159  27.646   3.706  11.564
73845W        W46160  33.011   1.311   1.262
73846W        W46161  10.416   0.779   0.857
73847W        W46162  38.435  35.075   4.682
73848W        W46163  20.756   2.475   2.208
73849W        W46164  29.897  22.672  12.456
73850W        W46165  42.268  32.108   4.463
73851W        W46166  24.423  19.238  14.679
73852W        W46167  25.795  21.657   4.546
73853W        W46168   0.214  34.001   3.200
73854W        W46169  21.603  27.719  13.875
73855W        W46170  34.918  36.361  14.710
73856W        W46171  31.082  33.129   0.774
73857W        W46172  44.577  10.276  10.230
73858W        W46173  37.470  38.299  12.465
73859W        W46174  10.756   3.677   4.103
73860W        W46175  11.556  29.047   4.593
73861W        W46176  34.349   4.370   3.230
73862W        W46177  17.303  14.898   1.327
73863W        W46178  25.324  13.196   3.613
73864W        W46179   3.955   1.422  13.928
73865W        W46180   7.286  36.421   4.047
73866W        W46181  15.361  14.098   0.813
73867W        W46182  17.754  30.967   9.920
73868W        W46183  12.690  19.676   4.611
73869W        W46184  42.861  11.865   0.415
73870W        W46185  27.065  43.095  10.235
73871W        W46186  16.798  19.513   0.484
73872W        W46187  32.518   0.048  14.756
73873W        W46188  25.195  41.589   3.248
73874W        W46189  12.666  34.677   3.179
73875W        W46190  41.724  12.664   4.511
73876W        W46191  40.172  15.368  11.180
73877W        W46192  17.228  13.482  11.953
73878W        W46193   2.208  41.506   2.349
73879W        W46194   4.667  29.049   0.273
73880W        W46195  20.372   4.643  11.842
73881W        W46196  23.927   7.321   2.704
73882W        W46197  14.571  41.559   3.250
73883W        W46198   0.383  24.656  13.855
73884W        W46199  13.830  39.775  11.953
73885W        W46200  25.128  21.645   1.855
73886W        W46201  29.589   5.778   2.610
73887W        W46202  32.603  29.644   4.735
73888W        W46203  25.221  41.522   1.854
73889W        W46204   1.138  24.651   2.571
73890W        W46205  37.587  33.527   4.069
73891W        W46206  31.677  24.850  13.190
73892W        W46207  37.845  35.730  13.535
73893W        W46208  31.444  21.089  11.340
73894W        W46209  19.765  27.451  11.194
73895W        W46210  29.568  19.613   0.965
73896W        W46211   7.870  43.254   3.300
73897W        W46212   4.835  19.001  11.621
73898W        W46213  39.392  13.898  12.012
73899W        W46214  14.189  10.595  14.878
73900W        W46215  35.044  39.329  13.574
73901W        W46216  36.759  18.394  12.456
73902W        W46217   6.774  18.112  14.844
73903W        W46218  21.572   1.009   2.389
73904W        W46219  19.248   6.255   2.110
73905W        W46220  29.651   0.893   2.682
73906W        W46221   1.001  15.607   1.667
73907W        W46222  31.432  14.149  13.819
73908W        W46223  23.034  33.123  12.450
73909W        W46224  20.099   2.819  11.669
73910W        W46225  33.898  15.214   1.967
73911W        W46226  15.105  44.205  13.592
73912W        W46227  39.351  26.772  10.994
73913W        W46228  40.372   7.461  14.429
73914W        W46229   1.831  31.448   3.603
73915W        W46230  14.324   9.338   0.364
73916W        W46231  30.034  39.810  14.981
73917W        W46232  40.984  19.095  10.774
73918W        W46233   9.708   8.852   4.198
73919W        W46234  20.618  23.008  13.337
73920W        W46235  22.742  22.513   4.062
73921W        W46236  18.488  35.835   2.765
73922W        W46237  44.445  40.014   0.300
73923W        W46238  17.151  20.225   1.655
73924W        W46239   1.971   8.988   4.519
73925W        W46240  21.102   1.349   3.308
73926W        W46241   9.841   0.727   3.173
73927W        W46242  43.476   8.652  14.574
73928W        W46243  24.125  12.387  13.107
73929W        W46244  20.102  36.005   1.809
73930W        W46245  32.995  11.188   1.707
73931W        W46246  24.667  12.122   0.864
73932W        W46247   6.231  21.845   0.167
73933W        W46248  32.940   8.359   3.239
73934W        W46249   5.337  16.978   0.627
73935W        W46250  19.078  28.051  10.690
73936W        W46251  21.386  24.017   0.836
73937W        W46252  24.741  26.034   1.273
73938W        W46253  15.009  44.850  10.908
73939W        W46254  25.498  28.779   3.580
73940W        W46255  36.718  12.352   1.838
73941W        W46256  13.622  13.739  10.645
73942W        W46257   2.991  40.775  11.462
73943W        W46258  27.099  21.323   3.595
73944W        W46259  23.233  30.490  10.822
73945W        W46260  40.601   2.867  14.961
73946W        W46261   0.706  40.368  14.057
73947W        W46262  23.808  12.798  13.099
73948W        W46263   7.335  21.566  13.021
73949W        W46264   5.092  27.587   2.382
73950W        W46265  15.548  13.305   2.332
73951W        W46266  15.790  23.515  12.824
73952W        W46267  11.848  28.623  14.001
73953W        W46268  42.871  22.182  14.343
73954W        W46269  42.975  10.844  14.016
73955W        W46270  32.063  39.328  13.846
73956W        W46271  33.512   2.551  11.548
73957W        W46272   1.558  34.867   3.651
73958W        W46273  43.982  33.294   1.986
73959W        W46274  23.738   9.705  14.844
73960W        W46275  14.104   3.429   4.679
73961W        W46276  28.803   1.061  12.804
73962W        W46277  21.928  30.542  11.698
73963W        W46278   7.361  25.541   2.481
73964W        W46279   9.833   5.207   4.119
73965W        W46280  36.135  43.251   4.645
73966W        W46281   3.159  37.957   2.919
73967W        W46282  31.151   2.406   3.844
73968W        W46283   8.891  12.186   1.915
73969W        W46284   4.059  12.385  12.015
73970W        W46285   9.241   7.791   4.234
73971W        W46286  41.380  15.258  14.065
73972W        W46287  38.989  37.834   3.260
73973W        W46288  17.737  18.105   1.380
73974W        W46289  11.596  20.635   0.848
73975W        W46290  31.873  25.057  13.901
73976W        W46291   7.757  12.227   1.772
73977W        W46292  30.889   7.368  13.736
73978W        W46293   4.829  36.878   1.753
73979W        W46294  42.083  23.984   1.469
73980W        W46295  44.335   4.613   4.325
73981W        W46296  10.732  16.106  11.941
73982W        W46297  17.079   2.900  10.638
73983W        W46298   6.041  21.242  11.613
73984W        W46299  27.516  14.535   3.136
73985W        W46300  35.053  23.360  13.422
73986W        W46301   5.248  38.055   0.870
73987W        W46302   9.797  26.324   4.980
73988W        W46303   4.769  31.531   1.204
73989W        W46304   5.893  23.673  14.540
73990W        W46305  17.129  38.005  14.830
73991W        W46306  11.354  39.517   3.826
73992W        W46307  27.528  29.965  11.195
73993W        W46308  18.816  28.918   1.817
73994W        W46309  17.251  29.588   5.066
73995W        W46310  34.580  32.229  11.651
73996W        W46311  40.967  40.848   0.703
73997W        W46312  28.629  22.712  14.063
73998W        W46313  15.538  10.822  14.991
73999W        W46314  14.563  10.657  14.516
74000W        W46315  32.027  16.013   3.031
74001W        W46316   1.311  31.895  13.514
74002W        W46317  43.777  38.819  12.503
74003W        W46318   8.390  20.008  10.524
74004W        W46319  29.702  16.356  13.283
74005W        W46320  44.878   8.478  14.073
74006W        W46321  30.736  33.886   3.593
74007W        W46322  35.892  24.187   4.185
74008W        W46323   8.869  30.295   1.750
74009W        W46324  21.878  14.614  10.410
74010W        W46325  10.842  20.013   1.743
74011W        W46326  22.572  31.019   3.722
74012W        W46327  25.475   3.482  14.004
74013W        W46328  33.445  36.606   4.035
74014W        W46329  36.989  33.063   1.721
74015W        W46330  19.530  28.953   1.307
74016W        W46331  44.499  10.097   0.011
74017W        W46332  22.714  13.639   4.720
74018W        W46333  11.757   9.246   0.530
74019W        W46334  24.611  19.701   0.914
74020W        W46335  15.344  14.322  13.550
74021W        W46336  21.550  44.729   3.668
74022W        W46337  38.964  31.105   4.586
74023W        W46338  43.446  41.409  11.289
74024W        W46339  23.668  39.743   0.948
74025W        W46340  21.452  28.518  11.929
74026W        W46341  30.278  18.611  12.204
74027W        W46342  21.276  35.543  14.798
74028W        W46343  38.645  17.760  13.080
74029W        W46344  30.438  11.147   1.672
74030W        W46345  44.439  42.049   2.614
74031W        W46346  18.844  42.268  13.457
74032W        W46347  25.427   4.904  10.238
74033W        W46348  14.080  27.341  12.624
74034W        W46349   1.859  30.555   2.227
74035W        W46350   6.411  41.330  14.473
74036W        W46351  23.510  35.081   1.497
74037W        W46352  15.330  36.033   1.461
74038W        W46353  42.567  44.631  13.852
74039W        W46354  32.510  16.763  11.547
74040W        W46355   7.406  11.200   2.461
74041W        W46356  40.988   3.204   1.776
74042W        W46357  20.672  14.689   4.833
74043W        W46358  32.929  43.461  10.659
74044W        W46359  40.515  39.130   1.002
74045W        W46360  12.960  17.797   1.896
74046W        W46361  37.686  16.313   4.556
74047W        W46362  27.229  40.978  14.974
74048W        W46363   4.643   7.694  11.957
74049W        W46364   7.278  21.771   0.290
74050W        W46365  28.626   1.294  14.330
74051W        W46366  35.529  14.726   5.136
74052W        W46367   3.983   7.525  13.496
74053W        W46368  26.519  27.913  12.137
74054W        W46369  24.644  25.150   4.501
74055W        W46370  43.939  36.669   3.673
74056W        W46371  22.504  10.921   1.910
74057W        W46372  33.715  32.924   3.872
74058W        W46373  35.102  13.838   3.125
74059W        W46374  20.947  25.208  13.947
74060W        W46375   6.338  18.909  14.319
74061W        W46376  10.336  12.785   4.917
74062W        W46377  20.518  33.878   4.139
74063W        W46378  37.322  24.474   3.038
74064W        W46379  13.568   0.299   3.300
74065W        W46380  26.745  43.036   0.887
74066W        W46381  25.610  21.769   0.058
74067W        W46382  32.601   8.189  13.980
74068W        W46383  32.091   0.456  14.923
74069W        W46384  25.650   9.190  13.879
74070W        W46385  13.459  14.786  10.576
74071W        W46386   8.728  42.545  11.206
74072W        W46387  44.663   2.009   2.781
74073W        W46388  23.137   1.563   4.024
74074W        W46389  31.291  38.817   5.007
74075W        W46390  28.628  13.395  10.549
74076W        W46391  23.735  39.928   0.428
74077W        W46392   1.676   3.130  14.771
74078W        W46393   8.070   2.125   0.850
74079W        W46394   7.105   2.337  10.748
74080W        W46395  16.903   3.225  12.404
74081W        W46396  36.547  37.019   0.746
74082W        W46397   6.367  40.446  13.869
74083W        W46398  18.996  24.623   0.312
74084W        W46399  29.958   3.878   2.669
74085W        W46400  42.623  11.058   3.432
74086W        W46401  29.000  32.314   5.002
74087W        W46402  31.555  27.124  14.856
74088W        W46403  17.603  38.074  14.437
74089W        W46404  16.110  33.628  10.005
74090W        W46405  43.020  13.340   3.188
74091W        W46406  42.191  34.292  14.026
74092W        W46407  34.925  12.146  11.983
74093W        W46408  38.805  23.716   1.551
74094W        W46409   2.915  24.375   0.039
74095W        W46410  11.243  31.393   3.762
74096W        W46411  16.130  23.157   2.722
74097W        W46412  39.164  40.119   1.245
74098W        W46413  14.296   8.267  14.432
74099W        W46414  34.051  21.798   1.528
74100W        W46415  10.310  10.069   0.311
74101W        W46416   8.389  41.968  10.701
74102W        W46417   7.135  12.164   4.569
74103W        W46418  28.924  33.551   3.275
74104W        W46419  11.665  39.689  13.965
74105W        W46420  18.510  37.904   0.255
74106W        W46421  24.633   5.699   1.962
74107W        W46422  43.358  12.657   1.039
74108W        W46423   7.825  20.102  11.103
74109W        W46424  24.223  44.738  12.318
74110W        W46425  30.419  14.310   1.324
74111W        W46426  26.472  11.695  14.473
74112W        W46427  25.706  27.452   3.312
74113W        W46428   9.415   0.838  14.940
74114W        W46429   9.742  31.220   4.112
74115W        W46430  11.161  30.437  11.106
74116W        W46431  13.827   1.133   1.495
74117W        W46432   4.398  11.310   0.410
74118W        W46433  25.624  32.685   3.139
74119W        W46434   8.280  18.531   2.325
74120W        W46435  21.040  41.462   2.731
74121W        W46436  27.579  33.598   4.568
74122W        W46437  42.865  40.475   1.805
74123W        W46438   2.352  33.339  10.920
74124W        W46439  25.452   1.261  11.632
74125W        W46440  30.908  44.295   2.749
74126W        W46441  16.604  30.996   3.542
74127W        W46442  26.552   4.353   0.940
74128W        W46443  16.914  21.441  12.934
74129W        W46444  28.066   4.713  10.827
74130W        W46445   7.753  20.292  14.991
74131W        W46446  39.669  25.226   5.058
74132W        W46447   1.591  34.397   1.294
74133W        W46448  42.848  30.984  12.306
74134W        W46449  11.775  20.094  12.752
74135W        W46450  33.635  33.952  12.155
74136W        W46451  22.553   1.974  13.492
74137W        W46452  22.304  15.680   4.266
74138W        W46453  40.050  20.695   3.784
74139W        W46454  10.973  22.865  14.912
74140W        W46455  25.506   0.994   2.263
74141W        W46456  31.947  16.804   2.313
74142W        W46457  19.520  24.313  13.399
74143W        W46458  10.173  23.022   0.739
74144W        W46459  18.060  20.620   3.080
74145W        W46460  18.564  38.623   0.833
74146W        W46461  23.202   1.791   3.535
74147W        W46462  35.622   0.413  10.691
74148W        W46463  28.931  23.071  11.223
74149W        W46464  20.241  42.475  10.903
74150W        W46465  37.574  42.264   0.448
74151W        W46466   8.938  39.727   0.241
74152W        W46467  38.969  39.068   3.449
74153W        W46468  26.725  17.837   0.782
74154W        W46469  19.628   0.841   4.107
74155W        W46470  43.350  24.883   4.941
74156W        W46471  10.679  17.313   4.766
74157W        W46472  27.970  35.801   0.260
74158W        W46473   9.432   9.785  13.481
74159W        W46474  41.109   2.817  11.941
74160W        W46475   1.945   5.333   1.389
74161W        W46476  38.052  17.731  14.798
74162W        W46477   1.346  36.415   2.879
74163W        W46478  15.337   3.190  11.571
74164W        W46479  35.315  32.739   2.642
74165W        W46480   4.588  43.902  12.540
74166W        W46481   6.274  35.605   4.391
74167W        W46482  15.771  17.122   3.674
74168W        W46483  36.106  10.355   0.925
74169W        W46484   9.342  25.031   0.372
74170W        W46485  11.386  10.635   0.906
74171W        W46486  18.468  35.700  12.137
74172W        W46487  16.853  18.360  11.516
74173W        W46488  21.679  26.032   2.001
74174W        W46489  16.057  10.762  12.529
74175W        W46490  35.139  26.732   0.893
74176W        W46491  18.333  17.308  11.201
74177W        W46492  12.726  16.223  13.523
74178W        W46493  42.965   7.844  12.821
74179W        W46494  39.036   5.473   1.413
74180W        W46495  13.789  24.025   3.359
74181W        W46496  31.861  41.320  12.040
74182W        W46497   0.565  13.323   0.729
74183W        W46498  22.703  26.448  10.433
74184W        W46499   8.432  31.458   4.147
74185W        W46500  35.140  26.506  12.800
74186W        W46501  23.261   6.748  13.305
74187W        W46502  37.835  21.215  10.755
74188W        W46503  40.029  23.472  10.685
74189W        W46504  27.614   0.382  12.549
74190W        W46505  10.815   4.342   2.342
74191W        W46506  34.815  38.608  10.315
74192W        W46507  17.394  39.380   1.506
74193W        W46508  37.391  11.616   1.538
74194W        W46509  43.945   6.577   1.755
74195W        W46510   8.175  13.681   4.658
74196W        W46511  36.529   0.030  12.877
74197W        W46512  41.405  25.190   5.142
74198W        W46513   7.438   4.997  11.040
74199W        W46514  32.703  17.233  11.682
74200W        W46515  43.264   0.707  14.695
74201W        W46516  32.065  30.375  13.257
74202W        W46517  32.787  34.501   1.391
74203W        W46518   4.678  14.764   1.238
74204W        W46519   6.320   0.710   0.689
74205W        W46520  11.816  14.305  12.914
74206W        W46521   1.346  21.239   2.422
74207W        W46522  27.942   9.728  11.502
74208W        W46523  26.944  20.112   3.991
74209W        W46524   2.417  40.191  11.167
74210W        W46525  31.375   2.727   3.304
74211W        W46526   6.762  26.023   2.476
74212W        W46527   7.785  31.019   2.111
74213W        W46528  43.292  16.781  13.052
74214W        W46529   9.829   7.915  11.495
74215W        W46530  41.310  32.857   4.078
74216W        W46531   3.747  12.342  13.381
74217W        W46532  31.847  29.156   0.291
74218W        W46533  30.442  43.324  12.779
74219W        W46534  17.262  30.512  13.745
74220W        W46535  42.274  28.163  12.978
74221W        W46536  17.647  31.506  12.985
74222W        W46537  37.131  39.611   1.423
74223W        W46538  19.712  14.053   0.244
74224W        W46539  36.912   8.161   1.284
74225W        W46540  40.781  14.817  12.374
74226W        W46541  11.312   4.142   3.719
74227W        W46542   6.980  11.052  10.705
74228W        W46543  41.456  29.027   1.210
74229W        W46544  28.067  25.111   4.142
74230W        W46545  35.743   2.535   0.505
74231W        W46546   7.646   0.725  11.005
74232W        W46547   9.878  38.597   4.735
74233W        W46548  25.179  20.565   2.154
74234W        W46549  15.834  28.061  13.355
74235W        W46550  20.745  37.919   3.517
74236W        W46551  28.669  18.670  12.580
74237W        W46552   1.731  11.221  12.593
74238W        W46553   0.844  13.102  14.495
74239W        W46554  40.830   8.927  12.572
74240W        W46555  38.777  28.497  14.796
74241W        W46556  25.779  11.606  11.655
74242W        W46557  30.983  28.356  12.553
74243W        W46558  16.166   0.437   4.534
74244W        W46559  16.326  42.469  14.916
74245W        W46560  27.237  17.159  12.086
74246W        W46561  18.626  31.379   4.103
74247W        W46562  36.100  31.076   1.295
74248W        W46563  38.110  43.750  10.661
74249W        W46564  17.138  26.937  13.733
74250W        W46565  32.472  30.052  13.911
74251W        W46566  15.181  36.917   5.047
74252W        W46567  24.524  25.634   4.318
74253W        W46568  43.951  24.894   0.454
74254W        W46569   9.785  38.046  12.925
74255W        W46570   4.760  42.338   4.181
74256W        W46571  37.821  37.986  10.929
74257W        W46572  16.837   7.636   1.945
74258W        W46573  23.032   5.934   2.605
74259W        W46574   3.919  36.580  13.850
74260W        W46575  20.557  21.158  12.270
74261W        W46576   6.457   6.690   0.346
74262W        W46577  23.104  16.188  13.897
74263W        W46578  25.128  24.110   3.127
74264W        W46579  24.097  42.294   1.822
74265W        W46580  26.731  29.636   1.840
74266W        W46581  14.996   9.436   3.077
74267W        W46582  38.904  44.277  13.885
74268W        W46583  21.299  27.140  14.036
74269W        W46584  21.587  10.353  13.331
74270W        W46585  35.392  36.887   4.294
74271W        W46586  40.010  32.526   4.884
74272W        W46587  25.719  31.111  11.680
74273W        W46588  14.094   7.216  13.864
74274W        W46589  21.163  27.530   1.797
74275W        W46590  15.709   1.193   0.336
74276W        W46591  23.734  40.907   4.292
74277W        W46592   1.055  20.813  10.673
74278W        W46593  11.607   3.965  10.758
74279W        W46594  14.533  20.271  10.713
74280W        W46595  44.219   0.258  10.156
74281W        W46596  23.557  11.257   1.648
74282W        W46597  20.001  17.773  12.071
74283W        W46598   7.681  37.809  13.753
74284W        W46599   0.307  37.867   2.208
74285W        W46600  29.533  40.854  12.878
74286W        W46601  31.643   9.273  14.497
74287W        W46602  17.080  27.477  11.068
74288W        W46603  33.133  14.311   3.612
74289W        W46604  11.282  22.778  10.950
74290W        W46605  35.817  29.617  10.575
74291W        W46606  40.396   4.555   4.740
74292W        W46607  24.646  23.646  14.970
74293W        W46608  40.974  19.558  12.984
74294W        W46609  25.560  21.818  11.093
74295W        W46610  30.008  30.134   2.156
74296W        W46611  39.569  13.245  13.046
74297W        W46612   4.955  33.054  14.710
74298W        W46613   0.528  24.055  13.476
74299W        W46614   8.282  32.162  12.357
74300W        W46615  27.600  18.494  13.924
74301W        W46616  40.389  16.652  10.675
74302W        W46617   8.313  19.087   4.273
74303W        W46618   2.952   6.818  10.617
74304W        W46619  18.631  22.837   3.135
74305W        W46620  38.911   8.176   0.707
74306W        W46621  28.929  20.135   0.426
74307W        W46622   3.928  32.340   4.689
74308W        W46623   0.586  15.240   2.573
74309W        W46624  16.918  44.746  12.498
74310W        W46625  27.361  25.965  12.552
74311W        W46626  31.708  24.970  12.225
74312W        W46627   7.385  24.756   4.162
74313W        W46628  12.304  10.227  11.405
74314W        W46629  13.277   0.002  13.611
74315W        W46630  30.386   8.264   4.684
74316W        W46631  19.813  35.115   3.149
74317W        W46632  43.066  33.754  11.010
74318W        W46633  26.706  13.833  14.850
74319W        W46634  22.383  30.060   1.339
74320W        W46635  29.201  21.553   2.171
74321W        W46636  33.518  10.718  12.911
74322W        W46637   6.230   7.871  12.379
74323W        W46638   1.465  19.383   3.960
74324W        W46639  41.027  42.953   4.147
74325W        W46640  37.538   9.953  13.419
74326W        W46641  37.804   2.214  10.715
74327W        W46642   5.025  16.400  14.427
74328W        W46643  43.377  14.274  14.159
74329W        W46644   0.288  34.035   1.834
74330W        W46645  39.560  28.556   0.396
74331W        W46646  41.871  32.433   1.870
74332W        W46647  19.149  15.587   2.464
74333W        W46648   3.250  19.706   1.078
74334W        W46649  28.981   0.840   2.309
74335W        W46650  15.183   4.643  13.412
74336W        W46651  40.586  35.060  12.376
74337W        W46652  10.482  42.700   0.751
74338W        W46653  17.550   6.414  11.099
74339W        W46654  20.215  20.055   0.329
74340W        W46655  20.012  18.175  14.006
74341W        W46656  31.481   1.129  14.677
74342W        W46657  16.711  33.391   3.943
74343W        W46658   4.671  32.977   2.843
74344W        W46659  41.110  15.335   4.656
74345W        W46660  11.534  32.418   3.268
74346W        W46661  27.471  24.154   1.309
74347W        W46662  42.766  29.944  12.574
74348W        W46663  26.666  16.780   4.061
74349W        W46664  33.918  36.499  13.527
74350W        W46665  30.636  24.267   3.742
74351W        W46666  41.533  41.835  13.419
74352W        W46667   7.855  14.768   4.412
74353W        W46668   3.770  22.706  14.196
74354W        W46669  34.638  31.524  11.965
74355W        W46670  35.654  36.379  11.911
74356W        W46671  37.570  28.744   3.297
74357W        W46672  37.374  37.633   3.662
74358W        W46673  41.734  33.146   4.085
74359W        W46674  15.164  31.588  14.760
74360W        W46675  28.997   2.991  11.387
74361W        W46676   6.962  27.438   4.901
74362W        W46677  19.229  34.650   0.723
74363W        W46678  32.009  33.990   4.610
74364W        W46679  38.809  24.550   3.808
74365W        W46680   0.699   1.232   5.386
74366W        W46681  28.406  33.467   3.284
74367W        W46682  36.413  33.414  11.436
74368W        W46683   1.788  14.657   1.336
74369W        W46684  35.519  41.072   3.267
74370W        W46685  36.077  18.529   4.277
74371W        W46686  43.004  17.302   4.664
74372W        W46687   3.300  11.766  11.177
74373W        W46688  38.643  28.185  12.446
74374W        W46689   4.011   0.982   0.524
74375W        W46690  21.574  22.104  10.428
74376W        W46691  43.018  28.501  11.940
74377W        W46692  35.388   9.593   3.633
74378W        W46693  18.710  12.200   3.599
74379W        W46694  18.181  38.322   0.189
74380W        W46695   2.801  10.408   0.242
74381W        W46696  44.081  34.143  10.385
74382W        W46697  32.455  31.083   4.067
74383W        W46698  40.842  29.713  11.108
74384W        W46699  29.281   9.234  14.829
74385W        W46700   0.262  12.885   0.778
74386W        W46701  34.558  40.071   1.723
74387W        W46702  44.795  42.103   1.502
74388W        W46703  38.490   4.925  14.362
74389W        W46704  39.989   0.572  12.347
74390W        W46705  14.749  23.701  11.034
74391W        W46706  19.555  17.278  13.905
74392W        W46707  21.723  13.149  13.354
74393W        W46708  40.861   6.123  10.705
74394W        W46709  18.144  10.552  11.186
74395W        W46710  42.333  29.053   2.398
74396W        W46711  43.202  34.069   0.287
74397W        W46712  28.362  36.520   4.193
74398W        W46713   4.824  39.566   1.371
74399W        W46714   3.518  43.313   0.035
74400W        W46715  43.308  14.274  13.646
74401W        W46716  26.063  37.534   2.390
74402W        W46717  40.060  19.097  14.860
74403W        W46718  11.440  10.707   1.736
74404W        W46719  36.156   5.429   3.284
74405W        W46720   9.065  24.607   1.702
74406W        W46721  32.175  24.977  11.169
74407W        W46722  11.613   2.434   3.419
74408W        W46723  24.105  32.969  14.858
74409W        W46724  28.082  10.369   9.998
74410W        W46725  37.208  11.645  12.994
74411W        W46726  43.732  41.113  14.298
74412W        W46727  23.593  39.167  14.233
74413W        W46728  43.811  35.626  13.970
74414W        W46729  37.267   9.871  11.993
74415W        W46730  43.766  23.323  12.589
74416W        W46731  39.650  16.145   0.267
74417W        W46732  16.619   4.314  14.341
74418W        W46733  31.018  26.816  12.228
74419W        W46734  28.492  17.611   1.615
74420W        W46735   0.521  36.457   5.202
74421W        W46736  19.800  25.631   4.662
74422W        W46737   7.889  22.952   4.583
74423W        W46738  37.426  37.862   4.113
74424W        W46739  41.286  27.479   1.856
74425W        W46740  33.871   4.407   0.810
74426W        W46741   4.786  13.873  10.538
74427W        W46742  38.066  30.570   1.596
74428W        W46743  25.165  10.260  12.038
74429W        W46744  11.071   9.076  11.148
74430W        W46745  38.293  14.679  14.418
74431W        W46746  20.035  41.060   9.423
74432W        W46747  13.823  40.789   3.737
74433W        W46748  44.103  31.245  14.713
74434W        W46749  29.933  27.930  10.722
74435W        W46750  42.073  36.132   0.414
74436W        W46751  26.603  17.150   3.123
74437W        W46752   7.886   2.961  13.618
74438W        W46753  29.378  42.841   3.209
74439W        W46754  33.637  27.502   2.127
74440W        W46755   7.650   9.929  13.701
74441W        W46756   9.387  11.437   0.888
74442W        W46757   7.875  34.300   2.266
74443W        W46758   8.200  31.961  12.817
74444W        W46759  18.832   4.821   0.033
74445W        W46760  10.870   2.981  14.384
74446W        W46761  38.858  26.485  12.624
74447W        W46762  27.094  29.243   3.405
74448W        W46763  18.156  43.673   0.520
74449W        W46764  16.038  41.294   3.312
74450W        W46765  34.930   5.357   4.048
74451W        W46766  19.940   8.574  12.471
74452W        W46767  18.568   5.869  10.676
74453W        W46768  15.124   4.799  14.859
74454W        W46769  19.605  19.139  11.959
74455W        W46770   8.475  38.948   4.550
74456W        W46771  23.119  10.759  13.508
74457W        W46772   7.667  28.299   3.225
74458W        W46773   2.284  30.201   3.302
74459W        W46774  38.903  36.811  11.394
74460W        W46775  33.980  10.398   3.131
74461W        W46776  10.817  14.809  13.362
74462W        W46777  25.563  23.362   3.905
74463W        W46778  13.254  13.576   1.837
74464W        W46779  29.960  25.206   4.563
74465W        W46780  14.061  17.709  11.175
74466W        W46781  43.339  40.357   4.215
74467W        W46782  17.747  42.193   4.160
74468W        W46783   8.904  16.697  12.575
74469W        W46784   1.701  15.749   0.378
74470W        W46785  35.160  33.001   3.194
74471W        W46786  39.615  12.586  12.490
74472W        W46787  21.806  31.542   3.797
74473W        W46788  16.871  14.653   3.186
74474W        W46789   6.724   7.152   4.603
74475W        W46790  21.687   0.736   4.583
74476W        W46791  20.515  25.460  11.525
74477W        W46792  18.223   4.366  14.135
74478W        W46793   6.330  20.739   4.522
74479W        W46794  43.848  41.801  14.847
74480W        W46795  36.839  14.261  12.883
74481W        W46796  29.646  17.682   4.507
74482W        W46797   4.710  42.915  13.393
74483W        W46798   5.679   6.823  13.485
74484W        W46799  32.045  36.280   3.820
74485W        W46800   5.232  44.722  13.446
74486W        W46801  43.008  37.525  10.574
74487W        W46802  40.049  20.760  13.389
74488W        W46803   2.503   5.843   4.530
74489W        W46804   2.872  37.583  11.244
74490W        W46805  16.416  12.554   3.996
74491W        W46806   1.885  28.602  11.541
74492W        W46807  25.838  43.076  14.570
74493W        W46808  15.347  30.957   0.585
74494W        W46809  38.825  44.080   0.137
74495W        W46810  10.134   9.200   2.630
74496W        W46811  12.848  39.316  12.802
74497W        W46812  12.261  33.079   0.483
74498W        W46813   8.378  30.233  14.519
74499W        W46814  33.270  30.923   4.731
74500W        W46815  20.982  43.142   2.387
74501W        W46816  41.435   3.397  10.746
74502W        W46817   6.767  40.729  12.957
74503W        W46818  12.349  42.502   4.222
74504W        W46819  33.684   7.883  14.269
74505W        W46820  34.352  31.347  12.506
74506W        W46821  34.914   7.157   4.534
74507W        W46822   1.952  43.977   0.321
74508W        W46823   8.970   6.079   4.281
74509W        W46824  25.059  30.007  10.650
74510W        W46825  43.217   7.724  14.529
74511W        W46826  37.356   1.889  14.115
74512W        W46827  23.732  12.045  13.318
74513W        W46828  14.283   1.446  14.742
74514W        W46829  12.223  38.882  11.115
74515W        W46830   2.800   9.263  13.544
74516W        W46831  22.881  42.556  14.100
74517W        W46832  29.600  17.735  13.230
74518W        W46833   2.871   0.919  11.069
74519W        W46834  38.188  20.469   3.422
74520W        W46835  22.768  42.961   3.140
74521W        W46836  28.009  43.875   2.876
74522W        W46837  38.895   5.245   1.863
74523W        W46838  27.619  17.923  10.664
74524W        W46839  30.049   5.919   3.395
74525W        W46840   1.033  36.880  12.800
74526W        W46841  16.547   7.174   2.849
74527W        W46842   3.235   3.599  12.210
74528W        W46843  27.456  25.152  11.115
74529W        W46844  36.195   2.785  11.563
74530W        W46845  26.669  28.916  14.433
74531W        W46846  16.415  43.542  12.909
74532W        W46847  30.514  22.788  14.232
74533W        W46848   4.503  26.057  14.572
74534W        W46849  39.910  41.811   0.882
74535W        W46850  22.285  42.592  10.387
74536W        W46851  12.265  21.646  12.127
74537W        W46852  24.919   4.944  10.186
74538W        W46853  17.588  35.364  14.302
74539W        W46854   7.729  19.915   2.501
74540W        W46855  11.560  37.826  14.109
74541W        W46856  26.733  27.504   4.057
74542W        W46857   2.000  13.752  13.339
74543W        W46858   2.974  28.414   1.896
74544W        W46859  36.819  31.006  11.611
74545W        W46860  21.418   6.218   4.598
74546W        W46861  25.237  38.519  13.727
74547W        W46862   1.204  38.852  13.378
74548W        W46863  27.279  31.056   3.192
74549W        W46864  27.309   0.762  12.334
74550W        W46865  28.452  24.235  13.841
74551W        W46866  38.801  30.225  10.323
74552W        W46867  36.352  34.005   0.460
74553W        W46868  11.806  42.235   3.814
74554W        W46869  20.044  30.745   0.166
74555W        W46870  42.680   1.929  13.861
74556W        W46871  31.088  33.762   2.635
74557W        W46872  43.728  34.210  14.802
74558W        W46873  17.680  44.691  14.794
74559W        W46874  34.259   4.216   3.766
74560W        W46875   4.280  44.692  10.504
74561W        W46876  21.621  44.827   1.790
74562W        W46877   4.860  13.414   0.873
74563W        W46878  34.265  30.092  11.753
74564W        W46879  25.779  40.534  10.597
74565W        W46880  41.422  33.626  10.744
74566W        W46881  13.765   2.627   3.212
74567W        W46882  32.655  11.908   0.782
74568W        W46883   0.481  19.562  14.430
74569W        W46884  13.828  40.713  11.553
74570W        W46885  23.453   2.536   1.090
74571W        W46886   0.589  42.298   4.122
74572W        W46887  11.448  22.159   2.828
74573W        W46888  27.291   2.779   2.831
74574W        W46889  13.408  27.966  14.957
74575W        W46890  42.858  12.091   1.816
74576W        W46891  17.481  13.289   2.803
74577W        W46892  42.410  22.439  14.458
74578W        W46893  10.538  33.438   2.864
74579W        W46894  33.478  15.772  10.448
74580W        W46895  25.674  23.768  13.889
74581W        W46896  14.221   2.004   0.246
74582W        W46897  35.419  23.555  14.024
74583W        W46898  31.955   1.237  13.037
74584W        W46899  21.661  10.618   2.712
74585W        W46900  14.652  42.232  11.052
74586W        W46901   9.337  27.072  13.374
74587W        W46902   5.137  12.817  14.883
74588W        W46903   2.246  43.746  14.851
74589W        W46904  17.863   6.900   1.975
74590W        W46905   6.184  35.846  14.582
74591W        W46906  25.810  35.318   2.899
74592W        W46907  41.001   5.237   1.786
74593W        W46908  41.976  15.860   2.676
74594W        W46909  16.140  40.202  12.943
74595W        W46910  44.417   0.851   3.207
74596W        W46911  37.080  28.611  12.525
74597W        W46912  26.392  38.035   5.004
74598W        W46913  17.227  33.168   1.860
74599W        W46914   3.394  39.513  13.991
74600W        W46915  17.181   4.500   2.164
74601W        W46916   0.971  32.451   2.610
74602W        W46917  37.055  20.098  12.676
74603W        W46918  43.779  30.991  12.554
74604W        W46919   9.815   8.734  11.960
74605W        W46920  43.023  19.969   1.784
74606W        W46921  11.677  40.563   2.894
74607W        W46922  44.253  37.000   3.169
74608W        W46923  24.137  12.463  11.551
74609W        W46924  23.747   3.432   3.677
74610W        W46925   5.964  30.545  11.194
74611W        W46926  23.949  18.197  14.281
74612W        W46927  16.142  41.360  13.355
74613W        W46928  24.141   7.752  11.837
74614W        W46929  20.596  23.063  10.412
74615W        W46930  42.566  38.449   2.742
74616W        W46931   7.907   7.995   0.924
74617W        W46932  16.013  17.308  13.079
74618W        W46933  29.139  25.583  14.900
74619W        W46934  29.653  25.043  10.621
74620W        W46935  25.081  26.838   3.735
74621W        W46936  18.074  39.772  10.144
74622W        W46937  15.107  36.019  12.672
74623W        W46938  41.868   9.811   0.663
74624W        W46939  39.236  11.140   3.754
74625W        W46940  34.476  35.048  11.204
74626W        W46941   6.209   9.392   4.618
74627W        W46942  44.152  17.323  11.852
74628W        W46943  27.591  31.562   2.964
74629W        W46944  18.199  34.484  14.598
74630W        W46945  19.942  34.482  11.683
74631W        W46946   3.978   4.149  14.924
74632W        W46947  21.425  12.770   3.711
74633W        W46948   7.470  36.972  12.730
74634W        W46949  28.390   3.765  14.275
74635W        W46950  37.586  14.215   1.648
74636W        W46951  17.550  28.910  13.061
74637W        W46952  11.679   3.980  12.024
74638W        W46953  20.300   1.852  11.992
74639W        W46954  19.516  33.561  12.977
74640W        W46955  34.647   1.918   4.160
74641W        W46956  38.270  41.413  10.740
74642W        W46957  26.385  15.022   3.716
74643W        W46958   3.222  32.155   4.164
74644W        W46959  25.822  34.860  14.054
74645W        W46960  41.891  30.601  13.007
74646W        W46961  21.138  42.990   1.501
74647W        W46962   9.214  29.892  13.538
74648W        W46963  14.390   6.177   4.055
74649W        W46964  37.837   0.542  13.972
74650W        W46965  10.544  27.726   1.003
74651W        W46966   1.772  34.421   3.782
74652W        W46967   1.810  11.919  10.153
74653W        W46968  24.682  19.134  12.820
74654W        W46969  14.103  14.382   1.173
74655W        W46970  33.124  21.660   3.088
74656W        W46971  23.659  11.738  11.083
74657W        W46972   0.413  31.692  14.866
74658W        W46973  16.346  20.584   2.242
74659W        W46974   0.273  10.530   4.488
74660W        W46975  42.311  13.198  13.377
74661W        W46976  35.231   3.771  12.044
74662W        W46977  10.877   1.963  14.414
74663W        W46978  17.361  39.525   0.514
74664W        W46979  44.466  27.084   4.291
74665W        W46980   4.705  19.599   1.901
74666W        W46981  19.930  41.330  14.284
74667W        W46982  29.895  26.407  10.823
74668W        W46983  44.849   3.619  11.644
74669W        W46984  28.452  28.482  11.172
74670W        W46985  12.069  35.496  10.722
74671W        W46986  14.254  19.803  13.561
74672W        W46987   8.611  27.276  11.490
74673W        W46988  39.125   6.294   4.053
74674W        W46989  24.803  43.881  14.862
74675W        W46990  37.391  40.757   3.198
74676W        W46991  30.224   0.285   2.375
74677W        W46992  23.496  21.153   2.335
74678W        W46993  23.292  15.614  14.995
74679W        W46994  13.212  17.579   0.001
74680W        W46995  41.490  11.278  13.368
74681W        W46996   2.159  18.803   0.907
74682W        W46997   3.506  26.895  12.018
74683W        W46998  19.571  11.232  13.772
74684W        W46999   1.409  16.173  10.504
74685W        W47000  32.465  13.729  10.731
74686W        W47001  21.568  43.886  13.272
74687W        W47002  35.392  32.630  11.918
74688W        W47003  44.980  33.540   3.166
74689W        W47004  41.718  18.141  10.330
74690W        W47005  15.763  21.657  14.446
74691W        W47006   0.797  26.953  12.649
74692W        W47007   5.783   2.710  12.632
74693W        W47008  19.572  13.580  11.963
74694W        W47009  13.767  20.599   1.829
74695W        W47010   5.249   2.287  14.821
74696W        W47011  18.672  41.580   2.653
74697W        W47012  19.488  20.581  11.546
74698W        W47013  38.989  30.696  10.220
74699W        W47014  44.771  11.616   4.525
74700W        W47015  19.742  44.447   2.420
74701W        W47016  40.900  35.453  12.221
74702W        W47017   9.739   9.451  10.596
74703W        W47018  30.720   8.408   2.693
74704W        W47019   5.468  21.686   3.686
74705W        W47020   0.013   1.653   2.461
74706W        W47021  36.973  28.924  12.963
74707W        W47022   1.094  25.109  11.278
74708W        W47023  42.306  27.690  14.801
74709W        W47024  33.708  21.489   2.434
74710W        W47025   9.676   4.242  11.210
74711W        W47026  36.949  34.973   1.849
74712W        W47027   2.287  19.165   2.022
74713W        W47028  31.197  12.749   0.827
74714W        W47029  27.652  35.433  13.494
74715W        W47030  41.073  36.650  12.986
74716W        W47031  12.444  25.604  14.903
74717W        W47032   0.896  29.407   0.209
74718W        W47033  32.919   3.930   1.869
74719W        W47034  18.194  42.322   2.783
74720W        W47035  18.734  29.969  10.178
74721W        W47036   1.498   3.269   2.182
74722W        W47037   6.450  20.804   2.759
74723W        W47038   1.018   5.783   0.231
74724W        W47039   9.034  17.568  10.372
74725W        W47040  23.714  16.920  11.069
74726W        W47041  19.032   5.657  12.339
74727W        W47042  14.568  44.822   4.579
74728W        W47043   7.177  24.753  13.009
74729W        W47044  31.192  41.891  13.293
74730W        W47045   0.945   3.815  13.811
74731W        W47046  44.413  42.970   3.421
74732W        W47047  33.173  26.817  14.113
74733W        W47048  20.544  21.668   2.266
74734W        W47049  36.754  39.999   3.285
74735W        W47050  32.821  33.483  13.019
74736W        W47051  31.882  17.067  13.968
74737W        W47052  44.198   3.475   2.942
74738W        W47053  28.432  13.753  14.300
74739W        W47054   5.780  21.099   0.913
74740W        W47055  22.533  44.852   0.526
74741W        W47056  15.350  19.677  14.940
74742W        W47057  21.571  12.554   4.166
74743W        W47058  34.106  20.975  13.042
74744W        W47059   0.072  14.403   1.898
74745W        W47060  15.964  39.383   1.833
74746W        W47061  43.788  44.905   4.852
74747W        W47062  42.925   4.491   3.372
74748W        W47063   6.038  37.202   2.742
74749W        W47064  24.088  40.330  12.076
74750W        W47065  36.359  42.043   4.170
74751W        W47066  26.570  42.666   2.734
74752W        W47067  36.738  32.002   3.213
74753W        W47068  11.694  33.403   3.242
74754W        W47069  18.388  39.189   0.746
74755W        W47070   2.108  29.068   0.793
74756W        W47071  17.622   2.143  11.136
74757W        W47072  29.082  38.564  11.186
74758W        W47073  31.568   9.671   1.204
74759W        W47074  29.242  13.560  14.523
74760W        W47075   2.457  25.905   3.117
74761W        W47076  21.647  39.881   4.525
74762W        W47077  10.660  29.439   5.014
74763W        W47078  10.114  28.683   0.870
74764W        W47079  37.807  38.754  12.524
74765W        W47080  21.222  40.858  14.105
74766W        W47081  40.805  30.524  12.534
74767W        W47082   4.645  13.311   3.464
74768W        W47083  36.937  10.090   3.628
74769W        W47084  36.414  15.443  13.814
74770W        W47085  15.604  37.855  13.856
74771W        W47086  35.002  41.735  13.411
74772W        W47087  24.535  44.870  10.652
74773W        W47088  21.895  32.016  10.882
74774W        W47089   5.755   7.499   0.479
74775W        W47090   4.449  42.465  13.417
74776W        W47091   7.293   5.215   4.195
74777W        W47092   6.417  20.290  11.526
74778W        W47093  41.776  23.577   3.751
74779W        W47094  41.487  12.346   2.888
74780W        W47095  13.619  18.044  13.363
74781W        W47096  14.653   4.989  10.777
74782W        W47097  39.863  44.681   1.750
74783W        W47098  11.054   9.202  11.642
74784W        W47099  36.647  25.991   2.371
74785W        W47100  21.251   0.486  12.947
74786W        W47101  18.679  31.628   1.720
74787W        W47102   1.485  44.265   2.313
74788W        W47103  23.248  29.398  12.452
74789W        W47104  15.396  34.532  12.335
74790W        W47105  10.692  19.757   4.667
74791W        W47106  36.471  30.488   3.109
74792W        W47107  43.947   8.910  14.970
74793W        W47108  20.449  31.540  10.478
74794W        W47109  13.317  25.136   2.293
74795W        W47110  33.128  33.672   3.488
74796W        W47111   5.971  29.632   1.920
74797W        W47112   6.788  41.393   0.690
74798W        W47113  31.971   3.307  12.011
74799W        W47114  23.005  12.099  11.657
74800W        W47115  16.763  41.462   4.524
74801W        W47116  36.629  18.807  11.889
74802W        W47117  34.369  34.617   4.906
74803W        W47118  23.983  29.938  11.367
74804W        W47119  11.430   8.162  10.816
74805W        W47120  19.742   7.004  13.952
74806W        W47121  25.419  22.258   2.866
74807W        W47122  42.026  21.708   3.403
74808W        W47123  43.168  43.826  11.448
74809W        W47124  40.785  40.068  11.399
74810W        W47125   8.838  35.050  11.548
74811W        W47126  40.327  34.854  11.339
74812W        W47127  36.653  35.368  14.502
74813W        W47128  29.587  13.272   0.009
74814W        W47129  17.346  35.861  13.079
74815W        W47130  28.729  12.158   2.235
74816W        W47131  27.110   6.723  10.649
74817W        W47132  23.016   3.381  11.606
74818W        W47133  32.504  32.630   1.293
74819W        W47134  33.915   6.811  13.005
74820W        W47135  36.043  32.567   0.102
74821W        W47136   3.964  12.638   1.214
74822W        W47137   2.940  37.383   4.047
74823W        W47138  12.411   7.990  11.057
74824W        W47139  28.326  15.786  13.172
74825W        W47140  36.814  31.744   1.769
74826W        W47141   7.342  23.967  13.423
74827W        W47142   6.639  31.538   2.350
74828W        W47143  20.734  11.622   1.861
74829W        W47144   2.724  11.942   4.303
74830W        W47145  24.579  38.063  10.675
74831W        W47146   2.758  33.095  11.125
74832W        W47147  28.878   4.391   0.298
74833W        W47148   9.131   0.607   3.196
74834W        W47149   2.629   0.725   3.779
74835W        W47150  32.858  25.432   2.366
74836W        W47151  17.216  18.582  11.854
74837W        W47152  33.445   0.412   3.680
74838W        W47153  30.592  31.648  12.872
74839W        W47154  30.546  14.039  13.409
74840W        W47155   7.779  28.622  11.890
74841W        W47156  24.225  18.072  13.305
74842W        W47157  25.081   3.643   4.150
74843W        W47158  22.601   9.940   4.646
74844W        W47159  14.156  13.614  10.672
74845W        W47160   1.730  16.364   1.836
74846W        W47161  19.760  10.366   1.924
74847W        W47162  42.221  19.521   1.753
74848W        W47163  36.317  31.625  13.960
74849W        W47164  20.680   0.014   3.754
74850W        W47165  18.666   8.746  13.790
74851W        W47166   6.066  32.378  11.705
74852W        W47167   7.364  22.956   3.840
74853W        W47168  23.628  10.415  12.842
74854W        W47169  10.185  26.683   2.634
74855W        W47170  14.711  23.766   0.492
74856W        W47171   9.920  16.763   0.017
74857W        W47172  28.678  18.347   0.976
74858W        W47173  14.466  35.129   4.475
74859W        W47174  11.458  11.477  12.083
74860W        W47175   2.492  17.502  12.084
74861W        W47176  24.115   1.331   1.418
74862W        W47177  19.692  40.431   1.524
74863W        W47178  33.790  17.989  11.716
74864W        W47179  34.555  22.792   2.849
74865W        W47180  42.137  14.435  11.635
74866W        W47181   5.769   3.886  12.418
74867W        W47182  14.022  19.611   0.365
74868W        W47183  23.735   3.853   0.829
74869W        W47184  11.779  38.494  12.364
74870W        W47185  25.005  24.496  14.962
74871W        W47186  20.608  37.392   4.113
74872W        W47187   2.999  20.880   2.152
74873W        W47188  22.474  30.684   5.166
74874W        W47189  38.483   3.223  12.444
74875W        W47190  26.550   2.763  12.800
74876W        W47191  17.141  43.738   3.426
74877W        W47192   5.303  25.610   0.916
74878W        W47193   2.334  22.097   4.151
74879W        W47194   4.758  26.503  10.464
74880W        W47195  11.341  34.491  10.620
74881W        W47196  35.778  32.860   2.145
74882W        W47197   7.353  37.580  14.082
74883W        W47198  32.944  28.797   1.829
74884W        W47199  40.553  41.403  11.192
74885W        W47200  33.428  21.520   4.740
74886W        W47201   9.672  10.799   2.753
74887W        W47202   8.875  30.641   0.854
74888W        W47203  42.331  12.245  10.716
74889W        W47204  26.420  31.384  14.956
74890W        W47205   0.972  39.501   2.834
74891W        W47206  44.582  21.739  14.801
74892W        W47207  15.747   0.241  11.911
74893W        W47208   9.203  35.490   2.980
74894W        W47209   9.694  18.300   2.354
74895W        W47210  30.636   8.678  11.563
74896W        W47211  23.040  39.424  12.930
74897W        W47212   0.104  42.443   3.386
74898W        W47213  19.612  35.334   0.324
74899W        W47214  10.301  33.348   4.550
74900W        W47215  32.873  20.501  12.556
74901W        W47216  33.813  26.640   1.331
74902W        W47217  15.879   5.875   1.506
74903W        W47218  31.102  14.275   0.972
74904W        W47219   7.774  23.913   0.801
74905W        W47220  39.889  33.521  11.608
74906W        W47221  21.059  11.222   1.791
74907W        W47222  17.038  41.721   0.358
74908W        W47223   4.927  21.097   0.361
74909W        W47224  23.588  23.685  12.327
74910W        W47225   9.244  43.514  12.019
74911W        W47226  36.673   7.830  11.618
74912W        W47227  23.255  11.356  12.069
74913W        W47228  23.035   4.728  13.511
74914W        W47229  11.358  16.147  14.164
74915W        W47230  22.994  28.996  11.630
74916W        W47231  28.622   6.877   2.515
74917W        W47232  28.718   4.609   2.790
74918W        W47233  32.061   2.851  13.991
74919W        W47234  36.325  29.626  10.626
74920W        W47235  37.431  11.923   4.624
74921W        W47236  29.091  11.677   4.131
74922W        W47237  43.871  32.332   4.053
74923W        W47238  44.518   5.592   0.153
74924W        W47239  12.837  17.791  13.750
74925W        W47240  42.301  30.145  12.452
74926W        W47241  43.378  11.414  13.985
74927W        W47242  25.054  33.280   2.061
74928W        W47243  13.687  23.612  14.436
74929W        W47244  44.124  13.103   0.377
74930W        W47245   4.579  11.593   5.114
74931W        W47246  12.250  43.840   2.884
74932W        W47247  44.032   5.173   2.438
74933W        W47248   7.304  11.670   4.583
74934W        W47249  30.029  10.526  12.156
74935W        W47250  25.133   1.899  14.495
74936W        W47251   8.174  22.526   2.958
74937W        W47252  13.095  44.456  12.897
74938W        W47253  11.268  31.593   1.481
74939W        W47254  10.873  34.086   4.099
74940W        W47255  31.595  26.376   0.882
74941W        W47256  14.887   3.122   2.901
74942W        W47257  23.340  32.494  13.392
74943W        W47258  32.278  31.900   5.335
74944W        W47259  16.243   1.429  12.198
74945W        W47260  39.393  19.019   1.825
74946W        W47261   1.962  20.914  11.478
74947W        W47262  30.444   3.842   2.864
74948W        W47263  13.985  26.332   4.991
74949W        W47264  20.739  25.581   3.060
74950W        W47265  14.118   4.421   4.727
74951W        W47266  40.524  16.187  14.238
74952W        W47267  12.603  42.412  13.875
74953W        W47268  43.725  40.926   3.034
74954W        W47269  12.076  24.198   4.181
74955W        W47270  19.257  12.082  14.821
74956W        W47271  15.008   1.903   4.657
74957W        W47272  44.421  34.840   2.162
74958W        W47273  42.349  34.053  12.175
74959W        W47274  28.500  36.366   2.363
74960W        W47275  28.583  10.902  12.284
74961W        W47276   0.024  29.178   0.309
74962W        W47277  29.573  15.721   4.815
74963W        W47278   4.698  34.535  14.799
74964W        W47279  30.899  13.918  11.557
74965W        W47280   1.730  23.721  11.227
74966W        W47281  14.540  28.406   1.271
74967W        W47282  26.953  24.990   2.772
74968W        W47283   7.829   7.880   3.343
74969W        W47284   5.632  43.593  12.399
74970W        W47285  11.223  13.729  14.484
74971W        W47286   6.170  23.116  11.207
74972W        W47287   6.191  42.093  12.589
74973W        W47288  36.533  15.401  11.166
74974W        W47289  44.040  19.177   4.126
74975W        W47290  23.978  28.757   3.332
74976W        W47291  32.640  11.671  12.660
74977W        W47292  21.191  13.074  13.444
74978W        W47293  27.987  44.224  12.372
74979W        W47294  11.299   4.202   2.266
74980W        W47295  15.721  22.540   3.728
74981W        W47296   7.491   6.834  12.902
74982W        W47297   5.728   3.817   3.125
74983W        W47298  11.947   0.022   2.245
74984W        W47299  30.763  42.561   3.346
74985W        W47300  30.920  29.950   1.834
74986W        W47301  40.479   4.870  10.265
74987W        W47302  35.976  15.624  13.011
74988W        W47303  23.468  22.946   1.782
74989W        W47304   5.217  42.896  13.449
74990W        W47305  42.801   0.973  10.545
74991W        W47306   3.450  30.517   1.833
74992W        W47307  43.195  38.042   3.614
74993W        W47308  30.452   7.185   1.355
74994W        W47309  33.384  11.192  12.152
74995W        W47310  31.905   0.860   2.155
74996W        W47311  10.492  36.783   1.358
74997W        W47312  35.911   7.283  11.986
74998W        W47313   1.377  13.343   1.707
74999W        W47314  42.912  30.236  14.334
75000W        W47315  11.738  12.840  12.821
75001W        W47316   3.914  28.275   1.452
75002W        W47317  31.056  20.105  11.465
75003W        W47318  15.362   0.429   0.835
75004W        W47319  34.469  43.455   2.810
75005W        W47320  35.563  33.650  12.580
75006W        W47321   4.410  22.526  11.984
75007W        W47322  19.514   6.663  13.627
75008W        W47323   8.736  34.581  10.764
75009W        W47324  16.039  37.021  11.944
75010W        W47325  12.757   2.548  13.412
75011W        W47326  39.812  41.995  10.750
75012W        W47327  31.271  21.301  11.777
75013W        W47328  42.697  20.735  10.720
75014W        W47329  34.972  18.543  14.006
75015W        W47330   0.991  18.092  10.216
75016W        W47331  40.468  25.240  14.214
75017W        W47332  11.751  28.676   2.697
75018W        W47333  30.505  38.089  14.751
75019W        W47334  20.154   3.269   3.317
75020W        W47335  32.907   5.941  14.337
75021W        W47336  43.497  14.659  14.492
75022W        W47337  10.122  31.742  13.891
75023W        W47338  38.821   5.465  11.155
75024W        W47339   0.496  40.626  12.066
75025W        W47340  19.647  39.515   3.261
75026W        W47341  36.950  37.310   0.927
75027W        W47342  43.810  26.147  12.921
75028W        W47343  29.097  30.312   3.705
75029W        W47344  41.285   0.868   2.883
75030W        W47345  14.878   0.235  11.870
75031W        W47346  28.622  35.970   3.319
75032W        W47347  37.870  19.212  11.875
75033W        W47348  39.388  22.952   5.668
75034W        W47349  32.246  40.293  14.403
75035W        W47350  37.954  27.514  11.399
75036W        W47351  40.410  29.409   2.213
75037W        W47352   4.783  40.454  11.581
75038W        W47353  25.353   5.660  12.329
75039W        W47354   4.919  44.911  12.152
75040W        W47355  16.158  10.417  13.518
75041W        W47356  17.075   6.215  13.845
75042W        W47357  31.493  32.968   4.946
75043W        W47358  27.094   9.887  11.379
75044W        W47359  11.702  10.935  12.840
75045W        W47360  24.751   7.823   4.328
75046W        W47361  18.732  41.323   2.207
75047W        W47362   6.958  13.835   0.064
75048W        W47363   5.810  31.974   2.415
75049W        W47364  17.298  21.536   0.211
75050W        W47365  10.892  34.398  12.350
75051W        W47366  39.804   3.806  13.984
75052W        W47367  22.739  32.468  11.182
75053W        W47368  16.798  11.684  14.028
75054W        W47369  42.572  13.635   1.263
75055W        W47370  22.633   6.873  14.459
75056W        W47371  20.705  22.477   2.695
75057W        W47372  15.510  20.572   0.507
75058W        W47373  37.333  30.269   4.174
75059W        W47374  44.318  10.422  11.531
75060W        W47375  23.077  34.025  12.925
75061W        W47376  27.971  14.170  10.570
75062W        W47377  32.649  32.558  10.802
75063W        W47378  32.024  15.385  13.586
75064W        W47379  29.436   6.478  12.995
75065W        W47380   6.272  34.169  12.391
75066W        W47381  43.631  24.584  12.624
75067W        W47382   4.281  17.087   2.614
75068W        W47383  11.230  43.881   1.491
75069W        W47384  19.528  27.465   2.727
75070W        W47385  24.477   1.012   1.190
75071W        W47386  13.986  30.898   0.888
75072W        W47387  16.819  41.363  11.652
75073W        W47388  44.329  37.063  10.194
75074W        W47389  28.820  28.611  12.932
75075W        W47390  43.742  43.568  13.949
75076W        W47391  17.589  25.685  11.937
75077W        W47392  34.314  22.651   0.490
75078W        W47393   3.546   2.388   3.709
75079W        W47394   7.375  14.355   0.893
75080W        W47395   0.522  24.967  11.970
75081W        W47396  18.224  25.900   2.325
75082W        W47397  37.917   8.831   5.059
75083W        W47398  11.811   6.010   5.058
75084W        W47399  28.928   4.703   2.284
75085W        W47400  36.834   1.223   5.036
75086W        W47401  31.596  32.033   2.172
75087W        W47402  35.825  40.404  14.281
75088W        W47403  32.573  19.003  13.413
75089W        W47404   1.469  37.030  11.669
75090W        W47405  41.512  17.213  13.446
75091W        W47406  37.178  32.108   0.702
75092W        W47407   1.486  27.282  13.782
75093W        W47408  27.771  29.141  14.384
75094W        W47409  19.085  22.764  12.885
75095W        W47410  25.438  44.103   2.195
75096W        W47411  26.371  14.726   4.156
75097W        W47412  26.507  30.917   1.370
75098W        W47413  16.746  37.585  11.992
75099W        W47414  32.057  11.110  12.949
75100W        W47415  28.026  44.878   4.339
75101W        W47416   1.851  38.889  14.981
75102W        W47417  42.808  23.732   2.591
75103W        W47418  38.387  19.664   4.533
75104W        W47419  38.208  36.412   1.621
75105W        W47420  44.538  18.660  13.605
75106W        W47421  26.547  11.844  11.048
75107W        W47422   6.385   5.938  13.393
75108W        W47423  29.023  26.477   3.613
75109W        W47424  16.803  19.755  11.066
75110W        W47425  35.624  11.185  14.449
75111W        W47426  16.106  11.227  13.937
75112W        W47427  42.031  14.602  12.850
75113W        W47428   7.669  16.142   0.249
75114W        W47429  38.159   8.578   3.655
75115W        W47430  12.736  31.914   1.686
75116W        W47431  19.573  38.310   3.653
75117W        W47432  39.976  34.954  12.143
75118W        W47433  24.571  25.141   3.618
75119W        W47434  24.789  22.986  11.170
75120W        W47435  30.483  41.343  13.057
75121W        W47436  33.860  24.155  14.164
75122W        W47437  24.007  31.194  12.977
75123W        W47438   5.259  40.513  12.438
75124W        W47439  21.668  22.469  14.037
75125W        W47440  35.538  44.846   1.671
75126W        W47441  12.976  20.295   4.181
75127W        W47442  21.673   1.654  11.440
75128W        W47443  13.237  41.257   4.975
75129W        W47444   8.456  24.180  10.449
75130W        W47445   2.535  32.034  10.676
75131W        W47446   9.281  32.312   3.598
75132W        W47447  15.852  19.672   2.925
75133W        W47448  29.704  21.191   9.890
75134W        W47449  12.845   3.173   0.525
75135W        W47450   5.943  22.901   0.774
75136W        W47451  25.488   2.200  13.768
75137W        W47452  13.467  24.670   2.464
75138W        W47453  27.669  19.201  11.839
75139W        W47454  34.505   7.431   4.792
75140W        W47455  10.246  33.807   3.178
75141W        W47456   6.355  32.476   2.712
75142W        W47457  22.226  29.549  11.614
75143W        W47458  36.782  28.153   0.856
75144W        W47459  32.410  37.513  10.713
75145W        W47460  19.695  25.721   1.417
75146W        W47461  36.964  42.821  14.999
75147W        W47462  34.404  37.473   3.596
75148W        W47463   1.853   1.712   4.380
75149W        W47464  28.494  29.001   4.505
75150W        W47465  21.752  32.953   1.237
75151W        W47466  24.455  17.815  11.187
75152W        W47467  40.369  21.957  12.512
75153W        W47468  36.543  35.479  10.559
75154W        W47469   8.193  20.925  13.025
75155W        W47470  13.260   5.133  14.865
75156W        W47471  27.740   3.058  10.240
75157W        W47472   9.119  15.167  14.369
75158W        W47473  43.857  22.543  13.258
75159W        W47474  36.052  44.966  12.498
75160W        W47475  20.509  12.177  14.079
75161W        W47476  16.996  21.687   1.152
75162W        W47477  20.249   3.369  14.066
75163W        W47478  42.061  11.093  10.795
75164W        W47479  37.659  42.496   3.776
75165W        W47480   0.443  38.558  11.064
75166W        W47481  28.874  32.227  14.025
75167W        W47482  37.628  15.074  12.610
75168W        W47483   1.454   1.953  13.547
75169W        W47484  11.517  23.889   3.335
75170W        W47485   7.852  44.620  12.590
75171W        W47486  40.869   9.008   1.806
75172W        W47487  19.330   1.439   4.709
75173W        W47488  20.316  33.118  12.094
75174W        W47489  43.001   8.240   4.521
75175W        W47490  28.197  31.041  13.651
75176W        W47491  38.258  41.929  13.895
75177W        W47492  38.858  30.647  13.628
75178W        W47493  16.323   4.251  11.650
75179W        W47494  11.606  32.819  13.059
75180W        W47495  38.144  30.080  14.887
75181W        W47496  31.252  25.496   0.071
75182W        W47497  20.577   6.077  14.535
75183W        W47498   2.921  20.146  10.500
75184W        W47499  10.222  43.399  11.962
75185W        W47500   2.871  36.875  12.512
75186W        W47501   7.378  41.477  14.961
75187W        W47502  29.732  11.815  10.580
75188W        W47503  24.339  37.503   3.226
75189W        W47504  40.896  16.567  14.317
75190W        W47505   7.482  18.237  12.467
75191W        W47506  32.307  25.164  10.699
75192W        W47507   9.798  10.735   1.902
75193W        W47508   2.841  39.331  11.909
75194W        W47509  37.834  29.638   2.634
75195W        W47510  44.502  14.980  14.404
75196W        W47511  38.999  12.167   1.225
75197W        W47512  42.575  11.474   0.719
75198W        W47513  24.687   0.535   3.649
75199W        W47514   1.736  19.781  14.806
75200W        W47515   4.292  23.087  10.733
75201W        W47516   5.176  30.852  11.994
75202W        W47517  16.815  25.175  14.874
75203W        W47518  38.592  22.554  14.745
75204W        W47519  36.580   6.256   2.403
75205W        W47520  20.782   1.003  11.128
75206W        W47521  43.510  18.794  12.047
75207W        W47522   7.726  31.413   4.607
75208W        W47523  13.755  20.089   1.687
75209W        W47524  38.749  21.698   4.151
75210W        W47525  38.897  43.912  10.353
75211W        W47526   1.947  36.460   2.813
75212W        W47527  12.577  42.881  11.472
75213W        W47528  31.578  32.387  13.549
75214W        W47529  36.587  23.204   1.297
75215W        W47530  29.263  25.383   2.612
75216W        W47531  30.010  36.104   0.006
75217W        W47532   1.968  11.292   2.089
75218W        W47533  33.110  21.648  13.545
75219W        W47534  36.035  31.894   1.723
75220W        W47535   5.657  43.442   2.326
75221W        W47536  29.126   9.139  12.080
75222W        W47537  34.170  20.274   1.135
75223W        W47538  11.677  25.911  13.443
75224W        W47539   5.402   7.222   1.142
75225W        W47540  23.578  39.786  10.912
75226W        W47541  24.750  16.793   0.852
75227W        W47542   0.919  21.125   1.262
75228W        W47543  25.006  14.565  14.018
75229W        W47544  24.555   9.699  12.211
75230W        W47545  40.741  35.178   3.693
75231W        W47546  28.031  33.562  13.447
75232W        W47547  44.822  40.724  11.644
75233W        W47548  18.705  30.603  11.946
75234W        W47549  21.030  26.502  11.980
75235W        W47550  14.719  41.332   1.342
75236W        W47551  37.601  44.857   1.888
75237W        W47552  43.758  31.910   3.794
75238W        W47553  35.024  34.114  13.424
75239W        W47554   3.303   7.657  12.140
75240W        W47555  28.110  19.794   3.055
75241W        W47556   6.615   1.124   5.129
75242W        W47557   5.916  13.985   4.206
75243W        W47558   2.538  43.272   5.005
75244W        W47559  20.440  12.083   3.552
75245W        W47560  20.786  35.655   1.808
75246W        W47561  17.475   9.810   5.550
75247W        W47562  43.432  27.200  12.137
75248W        W47563   6.778   2.716  14.769
75249W        W47564   1.002   6.291   0.770
75250W        W47565  14.740  22.695   1.675
75251W        W47566  33.116   0.423   1.238
75252W        W47567  31.832  20.120   5.056
75253W        W47568  18.252  29.891   4.643
75254W        W47569  30.612  31.460  11.955
75255W        W47570  27.673  22.485   3.209
75256W        W47571  15.612   4.812   4.557
75257W        W47572   4.491  44.770  14.519
75258W        W47573  37.537  32.025   0.336
75259W        W47574  11.133  16.378   1.230
75260W        W47575  20.212  15.396   4.497
75261W        W47576  16.204   4.780   4.076
75262W        W47577   3.686  33.904   1.201
75263W        W47578  30.336  12.114   4.518
75264W        W47579  39.399  27.234   3.749
75265W        W47580  15.132  23.377  11.192
75266W        W47581  24.948  26.706   2.303
75267W        W47582  32.971   0.799  11.874
75268W        W47583  13.593  17.122   2.816
75269W        W47584  26.889  42.400   3.902
75270W        W47585  41.000  41.594   1.348
75271W        W47586  30.464  40.344   0.819
75272W        W47587  18.156  37.779  13.496
75273W        W47588  40.117  22.173   2.209
75274W        W47589  42.500  26.448  11.916
75275W        W47590  23.339   2.842  13.392
75276W        W47591  20.585  10.070   2.396
75277W        W47592   9.386  29.608   2.193
75278W        W47593  34.568  16.299  11.718
75279W        W47594  10.675   7.280   1.343
75280W        W47595  42.719  28.813  11.052
75281W        W47596  20.040  37.185  10.637
75282W        W47597  12.025  19.968   4.180
75283W        W47598  35.805  28.605   4.571
75284W        W47599  41.228  38.323   2.414
75285W        W47600  23.288  41.345   0.494
75286W        W47601  16.294  32.573   0.757
75287W        W47602  18.957  12.682  12.426
75288W        W47603  34.881  18.997  13.775
75289W        W47604  16.801  17.859   1.438
75290W        W47605  27.590  15.188  10.733
75291W        W47606  24.767  27.443  13.464
75292W        W47607  21.235   7.500   4.965
75293W        W47608   2.393  40.051  12.062
75294W        W47609  42.897   3.010  13.161
75295W        W47610  19.197   4.626   1.880
75296W        W47611  20.660  26.190   3.743
75297W        W47612  39.536  40.287  11.966
75298W        W47613  12.321  17.096  12.569
75299W        W47614  12.854  19.151   1.743
75300W        W47615  36.086   2.247   0.828
75301W        W47616  31.855  17.985   0.820
75302W        W47617  37.432  44.170   0.996
75303W        W47618  39.977  16.880  14.248
75304W        W47619  11.378  38.757   0.593
75305W        W47620  11.684  29.227   4.103
75306W        W47621  21.147  13.316  14.810
75307W        W47622  31.119   2.566  11.563
75308W        W47623  38.119  13.562   0.367
75309W        W47624   8.615  28.744  13.431
75310W        W47625  25.958  18.666  13.047
75311W        W47626  30.576  41.169  14.186
75312W        W47627  22.441   2.748  11.126
75313W        W47628  33.812  22.102  10.516
75314W        W47629  30.456  31.266   1.770
75315W        W47630  37.232  33.038  11.085
75316W        W47631  24.415  26.657   4.244
75317W        W47632  20.131   9.191  14.072
75318W        W47633   0.982   5.869  13.023
75319W        W47634  25.483   9.420   5.065
75320W        W47635   5.506  22.228  13.065
75321W        W47636  23.753  41.232   0.294
75322W        W47637  32.930  28.431   0.876
75323W        W47638  37.043  31.948   0.205
75324W        W47639  40.871  13.085   2.075
75325W        W47640  17.017  17.228  12.961
75326W        W47641  30.626  35.604  13.786
75327W        W47642  18.800  33.349   0.688
75328W        W47643  28.771  26.092  11.558
75329W        W47644  28.145  37.023   0.929
75330W        W47645   1.478  31.459   1.762
75331W        W47646  14.842  18.743   2.270
75332W        W47647  37.895  24.021   5.573
75333W        W47648   6.146  26.304  10.198
75334W        W47649  16.228   1.833   4.026
75335W        W47650  37.853   9.354   1.786
75336W        W47651  14.548  44.308   4.340
75337W        W47652  39.331  26.460  14.729
75338W        W47653   5.160  27.753   4.218
75339W        W47654   1.757   3.977  10.915
75340W        W47655   2.700  33.549   1.404
75341W        W47656   2.203   2.788  10.447
75342W        W47657  10.729  25.035   1.632
75343W        W47658  27.069  15.254   1.826
75344W        W47659  28.038  31.005   1.304
75345W        W47660  16.862  17.662   4.103
75346W        W47661   8.137  37.274   5.143
75347W        W47662  41.917   1.154  10.246
75348W        W47663   3.404  12.360   4.633
75349W        W47664  13.340  20.691  14.046
75350W        W47665  40.495  30.652   1.407
75351W        W47666   0.921  27.254  12.204
75352W        W47667  16.253  34.402  12.109
75353W        W47668  13.825  16.740   2.598
75354W        W47669  38.793   9.998   4.525
75355W        W47670  39.303  14.670  10.457
75356W        W47671  43.403  10.438  10.275
75357W        W47672  24.324  24.390   2.504
75358W        W47673   3.792  27.504  12.797
75359W        W47674  31.564  36.641   2.236
75360W        W47675   2.914   2.982  12.441
75361W        W47676  34.523  22.684  13.347
75362W        W47677  12.561   5.287  13.336
75363W        W47678   4.411   5.255   3.077
75364W        W47679   2.733  36.743   1.596
75365W        W47680   3.304  37.357  12.835
75366W        W47681   4.020  15.598  14.778
75367W        W47682  21.956  18.095   1.176
75368W        W47683  43.995  30.444   3.214
75369W        W47684  10.644  15.643  11.175
75370W        W47685  29.111  15.351   0.919
75371W        W47686  29.059  41.644   1.583
75372W        W47687  19.683  39.365   1.806
75373W        W47688  35.896   3.990   4.247
75374W        W47689  18.678  17.602   0.264
75375W        W47690  35.608  25.906  12.370
75376W        W47691  25.526  41.388  13.436
75377W        W47692   0.123   5.031   3.232
75378W        W47693  19.314  44.226   2.216
75379W        W47694  39.461  23.421   3.663
75380W        W47695  40.968  35.523  12.728
75381W        W47696  11.455  44.847   0.963
75382W        W47697  10.613  22.231   4.606
75383W        W47698  11.264   3.483   2.732
75384W        W47699  18.302  15.168  11.950
75385W        W47700  34.984  20.159  10.670
75386W        W47701  22.713   4.353  13.373
75387W        W47702  22.743  42.510   2.028
75388W        W47703  27.692  42.263  11.586
75389W        W47704  14.051  38.641  12.164
75390W        W47705  16.537  12.198  12.286
75391W        W47706  19.278  18.198  13.473
75392W        W47707  13.177  36.151   3.189
75393W        W47708  44.996  25.562   1.748
75394W        W47709  23.282   5.753   1.265
75395W        W47710  11.854  25.679  11.514
75396W        W47711  19.695  15.654   2.452
75397W        W47712  10.747   8.278  13.450
75398W        W47713   8.130  14.203  13.381
75399W        W47714  34.282  44.389   2.170
75400W        W47715   8.655  39.515   1.863
75401W        W47716   8.301   7.702   4.703
75402W        W47717  21.025  27.658   4.599
75403W        W47718   0.752  10.631  13.427
75404W        W47719  13.689  33.626   3.907
75405W        W47720  11.586  11.223   3.582
75406W        W47721  10.799  17.184   1.274
75407W        W47722  23.828  44.230   0.087
75408W        W47723  24.977  25.699  13.244
75409W        W47724  28.668  14.616   4.417
75410W        W47725  36.672  29.616   3.215
75411W        W47726  16.118  44.124   2.359
75412W        W47727  21.665  30.922   1.952
75413W        W47728  34.836  30.777   1.276
75414W        W47729  39.926  32.704  11.165
75415W        W47730  14.839  23.576   3.767
75416W        W47731  39.552  35.352   0.424
75417W        W47732  34.432  26.695  14.031
75418W        W47733  11.089  41.238   4.038
75419W        W47734  14.848  22.502  11.701
75420W        W47735  25.943  21.042  10.554
75421W        W47736  21.240  38.469   1.789
75422W        W47737  40.263  10.313   0.411
75423W        W47738  42.566  34.578   1.247
75424W        W47739  38.909   1.365   3.908
75425W        W47740  44.279  15.900   4.645
75426W        W47741  10.659  11.559   1.326
75427W        W47742  43.326  29.400   2.807
75428W        W47743  28.936   0.055   4.541
75429W        W47744   9.448   6.027  11.636
75430W        W47745   0.763  36.440  11.124
75431W        W47746  26.753  34.411   5.215
75432W        W47747  42.774   2.898  11.598
75433W        W47748  35.195  41.350  14.919
75434W        W47749  12.190   6.184  10.915
75435W        W47750  33.013   1.580   2.602
75436W        W47751  30.904  13.042  13.964
75437W        W47752  35.075  36.541   1.294
75438W        W47753   8.583  33.023  14.839
75439W        W47754  10.300  16.772   3.237
75440W        W47755  17.454  38.181   3.749
75441W        W47756  15.240  33.994  14.918
75442W        W47757  27.520  10.903  10.698
75443W        W47758  43.265   7.748   4.546
75444W        W47759  38.474  40.741   4.660
75445W        W47760  24.241  15.283  11.030
75446W        W47761   4.938  40.350  13.800
75447W        W47762  30.997  41.231  13.867
75448W        W47763  15.194   6.274  11.854
75449W        W47764  41.571  17.291  11.596
75450W        W47765  39.673   7.429  14.878
75451W        W47766  31.055  28.668  10.782
75452W        W47767  16.447  10.939   9.653
75453W        W47768  22.095   7.770   1.888
75454W        W47769  12.563   0.912   3.309
75455W        W47770  15.326  16.594   0.516
75456W        W47771  38.825  16.988   1.355
75457W        W47772  11.361  39.010   1.578
75458W        W47773  31.494  34.895   4.481
75459W        W47774  44.056  10.933   2.383
75460W        W47775  15.804  30.411  13.960
75461W        W47776   4.229  20.103  13.504
75462W        W47777  20.201  36.685  10.701
75463W        W47778  37.383  37.530  11.177
75464W        W47779  12.662  32.381  12.413
75465W        W47780  22.920  35.631   1.423
75466W        W47781  18.124  40.528  13.999
75467W        W47782  38.384  10.128   1.639
75468W        W47783  24.634  34.635   4.479
75469W        W47784  28.667  12.863  10.567
75470W        W47785  22.275  40.415   1.196
75471W        W47786  39.925  29.603   4.576
75472W        W47787   3.328  16.779   1.899
75473W        W47788   5.440  17.550   4.301
75474W        W47789   5.093  38.599   0.943
75475W        W47790  36.408   3.966  14.806
75476W        W47791  25.286  10.208   2.888
75477W        W47792  31.995  32.682   0.883
75478W        W47793  17.209   0.952   2.683
75479W        W47794  43.269  34.389  13.004
75480W        W47795  11.788  11.815   4.868
75481W        W47796  28.514   8.053   3.321
75482W        W47797  22.077   0.228  12.476
75483W        W47798  38.798  30.053   1.805
75484W        W47799  19.009   2.903   4.421
75485W        W47800  16.593   9.730   1.740
75486W        W47801  28.527  30.162  14.041
75487W        W47802   5.785   6.923   2.251
75488W        W47803  25.622   6.708  13.068
75489W        W47804  33.360  41.905  14.354
75490W        W47805  19.483  34.942  13.459
75491W        W47806  37.282  10.164  14.492
75492W        W47807   9.154  28.768  13.439
75493W        W47808  26.383   8.386  11.758
75494W        W47809  21.206  40.663  11.631
75495W        W47810   0.556  13.281  11.476
75496W        W47811  38.171   4.555  12.613
75497W        W47812  32.164  17.305  13.584
75498W        W47813  30.435  32.416   3.920
75499W        W47814  31.440  43.037   4.189
75500W        W47815  29.456  27.902   0.916
75501W        W47816  35.325  40.425  14.395
75502W        W47817  18.066  10.660  13.131
75503W        W47818  16.233  34.553  11.537
75504W        W47819  19.038  43.469   4.355
75505W        W47820  22.934  24.824   2.603
75506W        W47821  17.082   9.948  12.122
75507W        W47822  33.505  28.802  13.319
75508W        W47823  11.241  34.604  13.090
75509W        W47824  34.325  10.597   2.791
75510W        W47825  42.298  16.517  13.021
75511W        W47826  10.146  10.685   4.289
75512W        W47827   4.150  21.633   1.709
75513W        W47828   0.465  20.067  10.648
75514W        W47829  28.234  23.583   4.863
75515W        W47830  29.848  14.676   0.995
75516W        W47831   8.840  15.877   1.764
75517W        W47832  13.867  43.333  11.648
75518W        W47833  43.604  18.879  13.335
75519W        W47834  23.826  21.141   1.687
75520W        W47835   2.895  10.288   0.754
75521W        W47836  20.004  41.034  10.712
75522W        W47837  43.100   1.423  12.870
75523W        W47838   9.566  26.008   2.763
75524W        W47839  16.386   5.213   4.611
75525W        W47840  10.335   1.832   2.399
75526W        W47841  22.103  16.063   3.942
75527W        W47842  12.244  22.181  10.540
75528W        W47843   8.953  28.599  12.020
75529W        W47844  10.877  30.502   4.410
75530W        W47845  42.845   7.298   0.919
75531W        W47846  29.148  22.654  12.107
75532W        W47847  36.955  44.641  12.815
75533W        W47848  44.931  17.621   0.277
75534W        W47849  16.140  27.636  13.381
75535W        W47850  26.085  42.754  14.903
75536W        W47851  41.718  36.044  14.100
75537W        W47852   5.857   0.877   4.528
75538W        W47853  20.208  40.832   2.226
75539W        W47854  37.310  31.904   2.230
75540W        W47855  32.153   1.391   4.252
75541W        W47856  19.102  14.744   0.328
75542W        W47857  23.036  10.207   4.600
75543W        W47858  28.908  32.434  10.616
75544W        W47859  39.106  18.020  12.188
75545W        W47860  22.703  28.940   4.329
75546W        W47861  20.110  39.881  11.072
75547W        W47862   4.964  38.322  14.690
75548W        W47863  43.897  23.425   3.576
75549W        W47864  14.738  26.342   1.434
75550W        W47865  22.493   1.809  12.154
75551W        W47866  21.760  16.223  13.600
75552W        W47867   3.462  30.067   3.438
75553W        W47868  36.610  38.321   0.805
75554W        W47869  16.227  11.702  13.067
75555W        W47870  42.869  29.115   2.022
75556W        W47871  33.110  36.902   3.694
75557W        W47872  12.628  44.188   0.357
75558W        W47873  40.340  35.311  13.558
75559W        W47874  35.660  40.841   4.237
75560W        W47875  17.469  11.826  14.952
75561W        W47876  15.555  32.648  10.777
75562W        W47877  19.661  19.172   2.901
75563W        W47878   2.165  16.689  12.393
75564W        W47879   8.781   7.622  11.175
75565W        W47880   5.857  15.528  14.905
75566W        W47881  16.602   2.381   4.595
75567W        W47882  26.151  32.602  14.347
75568W        W47883  29.223   2.628  11.662
75569W        W47884  37.028   2.963   1.896
75570W        W47885  17.878  27.391   4.334
75571W        W47886  17.962  13.266  14.675
75572W        W47887  40.524   6.299  12.471
75573W        W47888   2.845  34.360  14.788
75574W        W47889  36.782  32.142  12.980
75575W        W47890   7.909  26.076   1.464
75576W        W47891  42.501  41.427   3.767
75577W        W47892  13.539  24.048  13.872
75578W        W47893  43.881  29.990  14.471
75579W        W47894   7.832   5.774   0.369
75580W        W47895  16.433  25.531  14.817
75581W        W47896   9.362  19.081  14.411
75582W        W47897   8.782  39.418   4.713
75583W        W47898   4.771  10.686   5.084
75584W        W47899  41.279  20.480   4.043
75585W        W47900  10.142  25.793   1.886
75586W        W47901   1.974  23.245  11.156
75587W        W47902  31.387  18.851   3.363
75588W        W47903  38.955  13.513   5.209
75589W        W47904   6.890  37.971  14.953
75590W        W47905  33.797  12.710  11.434
75591W        W47906   4.651   6.822   4.608
75592W        W47907  19.987  37.322  12.575
75593W        W47908  21.511  30.900  12.886
75594W        W47909  38.609  31.043   3.606
75595W        W47910  19.834  44.731   2.881
75596W        W47911  32.997  39.932   4.606
75597W        W47912  17.534  24.065  13.565
75598W        W47913  11.189  29.537  10.636
75599W        W47914  37.935  27.154   1.166
75600W        W47915  31.545  20.138  13.610
75601W        W47916  28.626   5.365  12.997
75602W        W47917  20.976  37.345  14.938
75603W        W47918  23.546   3.317  13.536
75604W        W47919  11.066  31.340  12.557
75605W        W47920   3.774  30.633  11.213
75606W        W47921  28.395  44.867  11.344
75607W        W47922  13.915  30.104   0.404
75608W        W47923   5.114  27.144  14.661
75609W        W47924  41.456  42.050  12.952
75610W        W47925   2.811   8.692  12.633
75611W        W47926   9.427  25.776  11.151
75612W        W47927  38.972   6.683  14.280
75613W        W47928  11.743  19.818  11.387
75614W        W47929  16.671  30.907   2.649
75615W        W47930  41.153  44.077  10.596
75616W        W47931  19.076  27.681  13.399
75617W        W47932   5.895   1.719  12.076
75618W        W47933  36.078  25.733   4.151
75619W        W47934  11.487  11.144   4.130
75620W        W47935  11.324  18.777   1.626
75621W        W47936  17.707   3.292  14.470
75622W        W47937  37.323  12.135  14.484
75623W        W47938  38.259  23.496   5.001
75624W        W47939  18.651  34.333  14.372
75625W        W47940  26.963  38.773  11.202
75626W        W47941  42.162  11.273   3.270
75627W        W47942  18.460   8.787  12.582
75628W        W47943  17.558  21.219   4.552
75629W        W47944  19.724  42.476  11.471
75630W        W47945  35.676  24.789  11.931
75631W        W47946   2.462   9.005  12.398
75632W        W47947  23.999  44.713   2.380
75633W        W47948  26.976  32.086   0.842
75634W        W47949   8.092   9.352   2.837
75635W        W47950   7.678  31.301   0.448
75636W        W47951   7.508  37.565  11.536
75637W        W47952  40.502  34.078  14.980
75638W        W47953  20.145   3.681   2.748
75639W        W47954  29.551   9.705   0.008
75640W        W47955  22.385  24.489  10.271
75641W        W47956  14.904   7.388   3.609
75642W        W47957  32.950   8.213   0.184
75643W        W47958  29.029  43.934   0.320
75644W        W47959   7.543  16.730  12.116
75645W        W47960  28.488  10.556  14.386
75646W        W47961  32.077  37.071  14.673
75647W        W47962  15.206   3.913  14.132
75648W        W47963  31.390   2.072  13.684
75649W        W47964  23.685   4.387  11.971
75650W        W47965   1.355  24.009  14.787
75651W        W47966  37.417   7.187   1.948
75652W        W47967  35.177   7.289   2.579
75653W        W47968   0.265  36.210  10.518
75654W        W47969  16.039  43.922   4.227
75655W        W47970   4.230  11.731   2.624
75656W        W47971  22.498   3.500  11.658
75657W        W47972  29.065  31.331   3.743
75658W        W47973  25.711  37.455  14.990
75659W        W47974  25.998  11.212  13.455
75660W        W47975  30.853   0.277   3.720
75661W        W47976  23.142  16.350  10.564
75662W        W47977  25.236  22.225  11.019
75663W        W47978  17.490  15.652  12.495
75664W        W47979   3.388  20.195   3.603
75665W        W47980  10.472  43.376   2.599
75666W        W47981  31.647   8.818  13.024
75667W        W47982  40.694  22.476   4.728
75668W        W47983  37.407  16.824   2.228
75669W        W47984  26.950   7.291  13.825
75670W        W47985   2.831  23.420  11.670
75671W        W47986  40.994   7.767  13.002
75672W        W47987  16.939  30.915  11.770
75673W        W47988  28.320  44.935   2.356
75674W        W47989  25.140  11.790   4.124
75675W        W47990   1.626   0.358   0.974
75676W        W47991  15.419  10.420  12.992
75677W        W47992  15.081  18.844  11.058
75678W        W47993   8.064  24.198   2.935
75679W        W47994  30.525  34.974   4.404
75680W        W47995  11.822  26.950   1.338
75681W        W47996   4.354  11.323   1.331
75682W        W47997  24.933  43.280   2.721
75683W        W47998  12.260  12.234  10.386
75684W        W47999  44.999  15.947   0.956
75685W        W48000  16.094  13.897  10.681
75686W        W48001  35.058  30.057  11.849
75687W        W48002  13.717  43.000   0.634
75688W        W48003   0.043  41.362   1.373
75689W        W48004  11.673  16.360  11.666
75690W        W48005  37.830  20.068   2.239
75691W        W48006  24.129  11.218  11.725
75692W        W48007  34.491  40.893   1.353
75693W        W48008   5.800  22.015   0.816
75694W        W48009  38.767   9.043   0.525
75695W        W48010  25.689  41.170  11.173
75696W        W48011   7.135   8.683   2.458
75697W        W48012  32.648  31.018   0.365
75698W        W48013  11.212  38.455  10.696
75699W        W48014  42.049  39.263  14.463
75700W        W48015  11.727  35.673   0.804
75701W        W48016  24.678  28.087   1.245
75702W        W48017   2.707   7.884   2.258
75703W        W48018  28.513  17.124   4.267
75704W        W48019   4.180  31.061   2.319
75705W        W48020  21.734  25.040   0.504
75706W        W48021  12.587  21.447   3.583
75707W        W48022  28.513   1.227   1.326
75708W        W48023   7.489   0.704  13.715
75709W        W48024  40.366   7.732  13.990
75710W        W48025  43.454  33.152  14.522
75711W        W48026  23.436  20.638   2.364
75712W        W48027  16.241  28.170  14.431
75713W        W48028  17.112  28.473  14.781
75714W        W48029  11.104  14.645  14.203
75715W        W48030  21.588  35.396  10.653
75716W        W48031  28.976  38.555   1.937
75717W        W48032  31.338  43.578   0.229
75718W        W48033  11.339   4.730  11.607
75719W        W48034  13.140  17.522  11.983
75720W        W48035  26.158  29.176   3.095
75721W        W48036  36.794  38.840   0.866
75722W        W48037  21.450   2.604  13.395
75723W        W48038   2.048   3.734   1.033
75724W        W48039  22.549  30.128   3.162
75725W        W48040  23.594  16.029  13.984
75726W        W48041   8.939  20.693   3.728
75727W        W48042   0.934  10.813   1.413
75728W        W48043  29.383   2.976   2.712
75729W        W48044   8.193  39.069   0.796
75730W        W48045  40.268  28.010  11.968
75731W        W48046  31.922  30.714  12.410
75732W        W48047  41.934   5.811   4.523
75733W        W48048  18.280  18.627  12.847
75734W        W48049  13.913  26.023   0.829
75735W        W48050   7.424  16.042  14.377
75736W        W48051   4.152  36.019  14.965
75737W        W48052   2.804  25.266  13.952
75738W        W48053  38.610  26.487   5.228
75739W        W48054   4.193  16.662  12.327
75740W        W48055  26.282   9.133  14.864
75741W        W48056  41.909  32.086   1.404
75742W        W48057  29.474  35.069  13.095
75743W        W48058  31.401   8.665   2.887
75744W        W48059  25.526  31.282  13.374
75745W        W48060  18.775  34.759   1.257
75746W        W48061  35.065  25.426  14.410
75747W        W48062  18.100  24.096   4.149
75748W        W48063  17.541   3.591  14.006
75749W        W48064  29.489  43.441  10.936
75750W        W48065  29.518   3.193   0.931
75751W        W48066  24.167  31.127   0.770
75752W        W48067  18.496  35.021   2.826
75753W        W48068  41.291   3.119   2.685
75754W        W48069  24.105  35.113   3.350
75755W        W48070  39.817  39.585  14.940
75756W        W48071  29.558  10.148   1.750
75757W        W48072  15.589  12.255   1.903
75758W        W48073  36.842  30.659  12.935
75759W        W48074  28.446  42.192   3.669
75760W        W48075  40.539  35.531  13.102
75761W        W48076  13.242  38.637   1.491
75762W        W48077  37.900  42.409  14.992
75763W        W48078  10.371  21.528  12.876
75764W        W48079  12.200  31.590  13.068
75765W        W48080  15.945  28.446   3.358
75766W        W48081  11.546  42.413   4.607
75767W        W48082  44.974  22.020  14.616
75768W        W48083   4.739  41.230  12.130
75769W        W48084  22.722  17.728  11.599
75770W        W48085  18.566  39.369  13.420
75771W        W48086  15.159   0.723   4.119
75772W        W48087  32.617  27.152   4.215
75773W        W48088  17.798  37.449   2.667
75774W        W48089  28.669  28.127   1.430
75775W        W48090  33.464   6.636   1.830
75776W        W48091   8.700  13.697   1.464
75777W        W48092  23.969  14.649   4.225
75778W        W48093  33.268   1.197   3.254
75779W        W48094  23.825  21.122   4.000
75780W        W48095  35.570   8.357   3.006
75781W        W48096  44.378   9.909   3.223
75782W        W48097   4.720   6.337   1.820
75783W        W48098  39.037   5.410  14.808
75784W        W48099  13.863  29.269  11.394
75785W        W48100  31.217  17.612  13.085
75786W        W48101   7.371  30.314  11.998
75787W        W48102  24.683  32.415  13.056
75788W        W48103   8.137  33.185  13.459
75789W        W48104  15.577  38.725   2.346
75790W        W48105  35.491  23.759  11.921
75791W        W48106  17.535  32.046   4.187
75792W        W48107  31.110  43.004  10.641
75793W        W48108   4.366  10.813  10.283
75794W        W48109  36.846   3.588   0.711
75795W        W48110  17.195  18.942   2.180
75796W        W48111  19.988  36.379  14.406
75797W        W48112   4.350  29.737   3.814
75798W        W48113  17.510   1.454   4.277
75799W        W48114   6.432  28.174  11.907
75800W        W48115   1.352  28.686  12.366
75801W        W48116  38.400  23.460   2.195
75802W        W48117  30.537  35.001   4.924
75803W        W48118  41.891  40.053   0.216
75804W        W48119  44.340   6.430   1.443
75805W        W48120  37.450  29.469   1.447
75806W        W48121  42.467  24.123  11.322
75807W        W48122   7.795  44.031  14.859
75808W        W48123  31.454  16.875   0.278
75809W        W48124  26.211  15.090  12.019
75810W        W48125  40.354  41.013  14.895
75811W        W48126  24.304   9.407   1.510
75812W        W48127  15.324   3.818  13.255
75813W        W48128  16.098  32.012   0.261
75814W        W48129  42.345  18.924   0.436
75815W        W48130  43.354  21.023  14.521
75816W        W48131  32.176  36.524  13.064
75817W        W48132  24.139  35.069   2.301
75818W        W48133  32.560  15.172   2.697
75819W        W48134  40.519  42.810   0.811
75820W        W48135  26.721  34.294  14.309
75821W        W48136   8.190  15.094   1.872
75822W        W48137  11.937  14.786  14.369
75823W        W48138  34.480  34.814  13.654
75824W        W48139  42.703  11.612  12.969
75825W        W48140  18.577  35.997   1.834
75826W        W48141  11.302  36.377   2.231
75827W        W48142  29.130  16.147   2.292
75828W        W48143  32.567  33.177   0.397
75829W        W48144  19.679   8.455  14.066
75830W        W48145   4.628  41.916  12.725
75831W        W48146  11.703  33.674   0.849
75832W        W48147  33.413  20.518  10.708
75833W        W48148  19.332  25.499   3.810
75834W        W48149  35.587  21.736  12.881
75835W        W48150  40.570   2.045   4.019
75836W        W48151  24.696   5.537   4.235
75837W        W48152  42.291  31.179   4.721
75838W        W48153   1.281  24.701   3.557
75839W        W48154   8.534  13.147   2.155
75840W        W48155  27.657  39.210   0.481
75841W        W48156   7.119  40.803   2.286
75842W        W48157  33.688  12.153   1.879
75843W        W48158   6.954   3.038  10.755
75844W        W48159  23.110  36.645  13.878
75845W        W48160   6.553   8.803  12.420
75846W        W48161  18.596  43.476   0.311
75847W        W48162  39.300  33.589   4.574
75848W        W48163   2.493  41.251  13.068
75849W        W48164  17.233   7.677   4.071
75850W        W48165  36.930  14.073  13.817
75851W        W48166  22.661   7.373   1.683
75852W        W48167  39.071  25.924   0.497
75853W        W48168  22.782   4.686  13.946
75854W        W48169  31.707  15.633  11.051
75855W        W48170  42.054  16.254  14.453
75856W        W48171   0.718  33.343  14.649
75857W        W48172   8.434  44.344  13.620
75858W        W48173  22.687  27.052  11.665
75859W        W48174  28.889  30.537  13.350
75860W        W48175  30.361   3.551  14.949
75861W        W48176  23.624  24.117  12.609
75862W        W48177  25.653  26.795  13.872
75863W        W48178  19.766  44.941  13.819
75864W        W48179  38.881  43.760   1.378
75865W        W48180   7.252  17.221  14.088
75866W        W48181  28.003  33.718   0.880
75867W        W48182   3.254   4.921   5.158
75868W        W48183  13.368  19.866   1.937
75869W        W48184   2.220   9.240  10.452
75870W        W48185  32.569   9.019   5.072
75871W        W48186  13.919  12.127  13.862
75872W        W48187  41.375  36.768   2.895
75873W        W48188   7.710  12.108  11.604
75874W        W48189  42.489  15.378  12.207
75875W        W48190   1.436  32.500   2.842
75876W        W48191  17.135  27.781  11.671
75877W        W48192  25.734  24.913  13.996
75878W        W48193  22.234  28.197   4.205
75879W        W48194   9.104   0.695  14.539
75880W        W48195   0.015  12.043  12.482
75881W        W48196  37.370   4.528   2.179
75882W        W48197  12.761  22.453  13.927
75883W        W48198  21.470   3.361  14.908
75884W        W48199  28.340  17.081  14.100
75885W        W48200  26.886  24.421  10.805
75886W        W48201  15.509  19.198  11.122
75887W        W48202  33.489  17.290   3.892
75888W        W48203  15.520   9.460   3.889
75889W        W48204  35.278   9.764   1.736
75890W        W48205   0.451  13.663   3.434
75891W        W48206   1.659  33.131  12.086
75892W        W48207   4.469  39.772   4.012
75893W        W48208  28.963  14.084   1.352
75894W        W48209  29.051   6.406  13.338
75895W        W48210  43.312   9.257   4.561
75896W        W48211  25.749  24.807  12.977
75897W        W48212   2.912  37.211   1.459
75898W        W48213  12.585  25.214  11.297
75899W        W48214  30.937  14.698   2.881
75900W        W48215   7.339  35.665  13.449
75901W        W48216  16.735   1.596  12.324
75902W        W48217  32.539  42.739  10.723
75903W        W48218  32.387  14.708   4.373
75904W        W48219   2.493   8.204   2.732
75905W        W48220  19.542  41.479  12.408
75906W        W48221   9.720  33.901   1.953
75907W        W48222  36.602  43.078   4.027
75908W        W48223   1.390  37.540  11.564
75909W        W48224  25.452  28.149   1.725
75910W        W48225   0.392   7.528   2.359
75911W        W48226   3.293  23.624  14.880
75912W        W48227  33.102  29.462   4.629
75913W        W48228  24.905  23.187   4.864
75914W        W48229  10.842  20.525   2.825
75915W        W48230  40.760  19.029   2.628
75916W        W48231  37.791  38.116  11.846
75917W        W48232   2.270   6.254   3.135
75918W        W48233  32.326  42.967   4.960
75919W        W48234   5.930  33.142   4.166
75920W        W48235  25.583  42.025  13.141
75921W        W48236  44.438  17.540   0.966
75922W        W48237  24.010   5.443   3.078
75923W        W48238  27.121  37.299   1.553
75924W        W48239   4.735  31.922   0.849
75925W        W48240  21.429   5.992   1.422
75926W        W48241  13.324  16.578  14.884
75927W        W48242  42.642  19.701  13.736
75928W        W48243  41.790   8.748  12.771
75929W        W48244  18.590  31.733   4.460
75930W        W48245  15.796  28.987   3.288
75931W        W48246  40.135   7.208  14.957
75932W        W48247  36.916  32.816   0.349
75933W        W48248  21.682  10.356   3.829
75934W        W48249  44.218  32.953   0.383
75935W        W48250   0.116  28.178   3.008
75936W        W48251  33.479  30.447   3.781
75937W        W48252   4.921  15.740   0.244
75938W        W48253  12.711  33.874  13.476
75939W        W48254  23.817  34.157  11.595
75940W        W48255  34.131  15.848   2.314
75941W        W48256  39.151  24.527  13.151
75942W        W48257  30.912  17.777   1.449
75943W        W48258  24.071   3.308  10.396
75944W        W48259  14.106   1.952  13.181
75945W        W48260  26.828  40.211  12.654
75946W        W48261   5.680  18.593  14.953
75947W        W48262   2.769  23.680   2.171
75948W        W48263  34.143  35.039  13.303
75949W        W48264  37.243  33.812   0.400
75950W        W48265  39.297   5.522   0.949
75951W        W48266   7.809  29.974   4.725
75952W        W48267  41.782  25.708   3.523
75953W        W48268  38.365  28.504   4.358
75954W        W48269  44.045  18.562   2.355
75955W        W48270  10.332  33.909   2.663
75956W        W48271  24.711  14.646   1.378
75957W        W48272  41.348  25.077   0.873
75958W        W48273   5.268  28.046   1.131
75959W        W48274   0.735  16.512  10.667
75960W        W48275  22.625  27.826  14.758
75961W        W48276   5.605  18.485   2.353
75962W        W48277  39.534  26.019  11.495
75963W        W48278  33.504  15.265  14.939
75964W        W48279  41.075  11.195  10.770
75965W        W48280  11.213  39.253   0.690
75966W        W48281   0.996  36.818   5.187
75967W        W48282  24.676   3.638   4.669
75968W        W48283   8.175   8.829  12.415
75969W        W48284  23.597   7.398  10.641
75970W        W48285  44.508   3.200  12.771
75971W        W48286   1.810   8.435  11.436
75972W        W48287  37.377   5.201  13.319
75973W        W48288   0.681  17.706   1.949
75974W        W48289   1.225  35.083   0.963
75975W        W48290   9.881  11.743  14.345
75976W        W48291   4.980   0.479   2.775
75977W        W48292  19.819  41.888  14.976
75978W        W48293   5.368  17.760   2.861
75979W        W48294   4.217  38.683   0.816
75980W        W48295   7.745  27.249  12.482
75981W        W48296  37.049  29.557  11.329
75982W        W48297  28.989  37.511  13.199
75983W        W48298  43.019   2.212   3.130
75984W        W48299  36.442  44.518  12.907
75985W        W48300  25.631  36.129  12.012
75986W        W48301  36.534  33.449   1.293
75987W        W48302   7.878  25.772  14.223
75988W        W48303  31.961  41.841   1.881
75989W        W48304   7.168  10.924  13.961
75990W        W48305  23.890   3.836   2.525
75991W        W48306   3.852  41.467   0.630
75992W        W48307  25.707  26.422   1.432
75993W        W48308  25.021   7.441  12.438
75994W        W48309  37.792   0.754  14.742
75995W        W48310  18.774  35.958  10.180
75996W        W48311  43.719  29.027  10.953
75997W        W48312  10.034  40.994  11.498
75998W        W48313  20.182  35.666   2.200
75999W        W48314   3.717  18.686  12.266
76000W        W48315  24.738   4.813   1.854
76001W        W48316  23.230  43.046  12.316
76002W        W48317  38.090  40.056  11.556
76003W        W48318   9.326  40.539  10.758
76004W        W48319  32.540   3.771   1.518
76005W        W48320  13.146   6.132   1.355
76006W        W48321  22.102  12.287  13.049
76007W        W48322  30.597  16.340   0.412
76008W        W48323  14.326   7.641   2.343
76009W        W48324   2.914  43.335  13.588
76010W        W48325  41.334   3.151  13.523
76011W        W48326  12.805  27.006  14.828
76012W        W48327  18.836  30.128   2.814
76013W        W48328   7.174  33.623  12.438
76014W        W48329  12.760  20.051  12.564
76015W        W48330  34.365  44.966  11.616
76016W        W48331  21.485   2.411  14.256
76017W        W48332  33.825  15.670   4.603
76018W        W48333  34.154  38.467  14.768
76019W        W48334  34.573  27.087   1.389
76020W        W48335  29.693  36.634   3.064
76021W        W48336   6.440  11.772   4.173
76022W        W48337  42.880  43.437   1.816
76023W        W48338  19.701  24.770   4.145
76024W        W48339  42.270  17.573  13.101
76025W        W48340  24.680  39.660  10.899
76026W        W48341  16.295  19.650   3.259
76027W        W48342  13.193  29.629   2.966
76028W        W48343  34.558  21.236   2.161
76029W        W48344  14.050  10.481   3.536
76030W        W48345  43.518  37.391   0.441
76031W        W48346  21.674  30.046   3.646
76032W        W48347  27.115  42.290  13.461
76033W        W48348   0.560  33.019   4.075
76034W        W48349  16.859  36.918   1.842
76035W        W48350   6.266  43.898   1.467
76036W        W48351  18.403  19.613  13.864
76037W        W48352  44.809  20.774   3.451
76038W        W48353   5.695  27.088   3.235
76039W        W48354  21.095   7.586   0.848
76040W        W48355  22.860  23.777   3.336
76041W        W48356  38.459  18.345   2.228
76042W        W48357  11.676  11.608  10.470
76043W        W48358  34.965  26.179   3.648
76044W        W48359  20.831  16.463   0.908
76045W        W48360  41.353  31.586   4.637
76046W        W48361  17.566   7.219  12.738
76047W        W48362  33.102  26.606   1.060
76048W        W48363  22.245   9.908  12.230
76049W        W48364  28.398   1.274  11.800
76050W        W48365  13.066  21.932  10.993
76051W        W48366  17.629  23.312  13.752
76052W        W48367  36.566  25.998  10.616
76053W        W48368  43.747  25.107  12.029
76054W        W48369   6.067   5.021  13.793
76055W        W48370  11.332  11.736   0.329
76056W        W48371  28.533  16.697   2.171
76057W        W48372  22.593  42.420   0.959
76058W        W48373   5.792  38.740   0.269
76059W        W48374  10.330  13.456  14.456
76060W        W48375   6.787  16.449  13.601
76061W        W48376  25.450  25.475  13.304
76062W        W48377   2.494  41.993  13.515
76063W        W48378  41.085  17.744   2.918
76064W        W48379   3.192  42.802   2.721
76065W        W48380  39.136  11.365  13.342
76066W        W48381  38.744  24.247  12.434
76067W        W48382  35.905  33.348   1.700
76068W        W48383   6.390  35.878   2.791
76069W        W48384  28.894  16.837   0.889
76070W        W48385  20.516  42.287   1.204
76071W        W48386  27.425  43.934  10.663
76072W        W48387  25.048  16.719   4.511
76073W        W48388  10.040  11.794  11.163
76074W        W48389  34.962  38.885   3.436
76075W        W48390  31.135  17.134   2.161
76076W        W48391  33.964  22.696  11.939
76077W        W48392  32.140  41.595  13.448
76078W        W48393  14.292  15.134   3.690
76079W        W48394  18.959   2.825  11.654
76080W        W48395  15.472  36.143  13.025
76081W        W48396   6.653  29.509   3.808
76082W        W48397   2.926   2.640   4.512
76083W        W48398  27.265  34.140   0.419
76084W        W48399  29.623  24.224   1.387
76085W        W48400  19.836  13.751  11.541
76086W        W48401  26.075   8.848   3.621
76087W        W48402   0.616   4.820   2.132
76088W        W48403  42.800  33.693  14.734
76089W        W48404  35.645   4.003  14.929
76090W        W48405  38.613  31.952   4.617
76091W        W48406  44.392  21.465   4.164
76092W        W48407   5.169  21.722   4.117
76093W        W48408  42.070  25.189   0.428
76094W        W48409  40.549  18.151   0.751
76095W        W48410  35.137  16.187  12.991
76096W        W48411   2.277  13.075  12.681
76097W        W48412  20.458  36.361  14.601
76098W        W48413  33.498  30.393   0.294
76099W        W48414  24.128   3.706  11.655
76100W        W48415  18.503   7.879   3.335
76101W        W48416  18.725  41.478  11.819
76102W        W48417  18.210  12.035  12.093
76103W        W48418  23.220  44.178   3.155
76104W        W48419  20.308  19.176  11.128
76105W        W48420  21.422   0.809   4.153
76106W        W48421  11.156  25.095  12.506
76107W        W48422  22.720  37.785   5.125
76108W        W48423  17.179  33.987  12.004
76109W        W48424  40.990  43.277  13.850
76110W        W48425  29.612  30.957  12.602
76111W        W48426  33.984   6.388   0.800
76112W        W48427   7.863  36.025  10.404
76113W        W48428  18.498  14.896  10.561
76114W        W48429  35.996  31.345   1.731
76115W        W48430  16.089  11.085   4.571
76116W        W48431  16.204  17.507  12.640
76117W        W48432   7.448   5.861  14.307
76118W        W48433  28.217   8.956  13.269
76119W        W48434  25.484  30.948   0.664
76120W        W48435  39.321  42.395   3.433
76121W        W48436  34.631   0.925  11.611
76122W        W48437  43.028   0.515  10.730
76123W        W48438  31.505   2.038  14.782
76124W        W48439  39.287  36.320  11.140
76125W        W48440  14.577  28.931   1.292
76126W        W48441   0.777  35.374  11.089
76127W        W48442  35.369   3.420   2.297
76128W        W48443  17.901  23.690   4.792
76129W        W48444  28.500  34.936   0.300
76130W        W48445  21.460  40.277   4.813
76131W        W48446  24.113  17.646   3.341
76132W        W48447   3.224  33.528  13.906
76133W        W48448  41.736  39.927   3.559
76134W        W48449  23.504  33.595   0.256
76135W        W48450  32.814  41.421   4.615
76136W        W48451  18.805  43.350   1.349
76137W        W48452  26.206  16.343  14.394
76138W        W48453   1.140  39.195   0.340
76139W        W48454  44.980  30.150   2.342
76140W        W48455  21.645   3.885   4.717
76141W        W48456  32.931  16.481   2.259
76142W        W48457  35.480  13.179  11.608
76143W        W48458   2.035  17.818   0.819
76144W        W48459  44.448  20.962  12.027
76145W        W48460  37.559  23.108   2.763
76146W        W48461  31.483  28.536  10.464
76147W        W48462   0.432  26.950   1.583
76148W        W48463  26.419  18.058  12.457
76149W        W48464  40.903  12.078  10.573
76150W        W48465  22.298   4.417  14.559
76151W        W48466   6.712  29.496  13.797
76152W        W48467   0.673   6.302  12.904
76153W        W48468  26.938  42.686  13.980
76154W        W48469  15.191  24.626   4.593
76155W        W48470  28.920  44.226   0.749
76156W        W48471  30.175  39.027   0.594
76157W        W48472  16.499  36.023   5.044
76158W        W48473  19.725   0.265   1.481
76159W        W48474  32.014  34.615  10.316
76160W        W48475  27.194  11.341  14.081
76161W        W48476  20.694  40.715  12.368
76162W        W48477  13.623  19.868  11.558
76163W        W48478  26.124  22.247   1.848
76164W        W48479  39.010  23.015  11.066
76165W        W48480   1.225  31.444   0.337
76166W        W48481   5.324  40.853   1.328
76167W        W48482  13.266  35.162  12.173
76168W        W48483   4.788   3.708   1.598
76169W        W48484   7.796   9.500   0.891
76170W        W48485   6.848   8.199  14.944
76171W        W48486  37.018   1.426  12.677
76172W        W48487  27.219   1.528   4.290
76173W        W48488  42.112  37.988   2.058
76174W        W48489  27.003   3.777   1.088
76175W        W48490  30.970  44.454   1.872
76176W        W48491  29.592  27.011  13.093
76177W        W48492  14.604  23.883  11.891
76178W        W48493  44.977  19.549  14.313
76179W        W48494  32.349  26.233   0.432
76180W        W48495  32.491  39.435   0.129
76181W        W48496   9.777  30.883   4.517
76182W        W48497  31.590  17.782  12.335
76183W        W48498   2.757   4.295   0.324
76184W        W48499   2.442  36.581  13.859
76185W        W48500   7.596  10.245  11.623
76186W        W48501  11.892   9.408   1.010
76187W        W48502  40.103  23.229   1.761
76188W        W48503  19.192  35.528   2.307
76189W        W48504  36.102   9.343  14.832
76190W        W48505  10.584  24.623  13.446
76191W        W48506  25.554  27.775  13.091
76192W        W48507   5.724  18.638  12.898
76193W        W48508  34.519  35.457   0.387
76194W        W48509  27.575  22.526   4.286
76195W        W48510   6.733   1.329   0.984
76196W        W48511  26.115  41.966  12.849
76197W        W48512  32.215  28.447   4.895
76198W        W48513  16.589   9.856   4.557
76199W        W48514  44.351   6.353  12.001
76200W        W48515  17.434   6.217   3.321
76201W        W48516  23.700  12.869  14.748
76202W        W48517   3.295  34.122  14.880
76203W        W48518  33.995  31.473  10.620
76204W        W48519  33.552   7.805   0.771
76205W        W48520  16.177  25.493   0.278
76206W        W48521  25.210   0.472  13.510
76207W        W48522  22.060  26.442   3.282
76208W        W48523  25.200   3.209  12.904
76209W        W48524  29.176  19.099   0.371
76210W        W48525  42.328   1.366  14.885
76211W        W48526  16.068   0.244   3.128
76212W        W48527  17.828  13.623   4.135
76213W        W48528  34.093   3.270  10.690
76214W        W48529  40.586   3.713   3.682
76215W        W48530  31.026  15.569   0.369
76216W        W48531  27.219  32.567  13.453
76217W        W48532  35.189  31.651  12.790
76218W        W48533  16.062   3.659   1.273
76219W        W48534  23.461  14.552  13.332
76220W        W48535  20.897   0.357  12.130
76221W        W48536   5.391   3.289  11.900
76222W        W48537  11.163   5.324  14.518
76223W        W48538   3.714   4.638  14.456
76224W        W48539  22.030  28.490   2.355
76225W        W48540  15.746  25.761   0.487
76226W        W48541  30.530  30.745   4.759
76227W        W48542  12.360  20.742   5.088
76228W        W48543  13.657   3.166   4.619
76229W        W48544  14.874  42.465   0.336
76230W        W48545  23.486  21.074  13.361
76231W        W48546  20.474  26.122   2.837
76232W        W48547  10.305  35.986   1.956
76233W        W48548  15.501  28.637   9.917
76234W        W48549  17.793  41.413   3.155
76235W        W48550  43.010  23.589  10.259
76236W        W48551  44.243  21.235  12.445
76237W        W48552   1.039  14.702  12.831
76238W        W48553  20.099   5.285  14.040
76239W        W48554  28.640  33.496   3.739
76240W        W48555  12.784  14.315  10.870
76241W        W48556  34.917  17.209   4.117
76242W        W48557  20.581  17.706  14.438
76243W        W48558   5.168  34.321  10.645
76244W        W48559  20.985   7.697   4.540
76245W        W48560  33.327  13.512  10.157
76246W        W48561   2.413  25.680   4.128
76247W        W48562  17.080  23.840   0.753
76248W        W48563  43.426  39.438   4.066
76249W        W48564  33.746  36.368   3.214
76250W        W48565  31.912  37.341   2.495
76251W        W48566  38.608  15.134   2.690
76252W        W48567   7.681  37.271   0.965
76253W        W48568  27.536  17.573   4.968
76254W        W48569  19.713   9.425  14.287
76255W        W48570  11.692  42.968  11.733
76256W        W48571   5.835   2.690   3.106
76257W        W48572  40.274  16.198  13.787
76258W        W48573  15.885   0.888   2.650
76259W        W48574  35.588   7.164   2.170
76260W        W48575  38.769  17.535   3.761
76261W        W48576  35.968  24.191   0.716
76262W        W48577  15.139  43.333  13.429
76263W        W48578   7.029  38.443   2.563
76264W        W48579  33.709  33.040  12.954
76265W        W48580   2.793   1.321  11.457
76266W        W48581  10.277  36.386   3.755
76267W        W48582  26.019  11.852  12.190
76268W        W48583  41.266  33.445   0.768
76269W        W48584  21.596   0.201   2.765
76270W        W48585  20.770  10.279   5.149
76271W        W48586  41.415   7.058   4.487
76272W        W48587  25.944  35.051   1.301
76273W        W48588  35.177  21.978   2.263
76274W        W48589  28.536  27.910   0.799
76275W        W48590  22.731  33.134  10.732
76276W        W48591  11.704   3.965   0.204
76277W        W48592  29.660  42.214  11.169
76278W        W48593   3.227   0.525   2.155
76279W        W48594   8.930  31.049   3.669
76280W        W48595  25.487   1.311  10.724
76281W        W48596   3.440  42.997   2.300
76282W        W48597  39.595  11.636   0.904
76283W        W48598  21.503  24.117   2.718
76284W        W48599  34.503  29.482  10.513
76285W        W48600  39.921  29.382   3.494
76286W        W48601  36.862   5.625  13.954
76287W        W48602  12.484  29.166   3.208
76288W        W48603  20.208  22.671  12.082
76289W        W48604  26.369   5.842   4.804
76290W        W48605  40.267  21.570  13.896
76291W        W48606  24.050  29.074  12.431
76292W        W48607  20.556  20.173  10.726
76293W        W48608  32.410  30.156  11.933
76294W        W48609  34.233  22.950   0.070
76295W        W48610  20.706   5.663   4.684
76296W        W48611  18.385  44.993  13.879
76297W        W48612  26.712  15.110   2.227
76298W        W48613  15.631   0.998   4.165
76299W        W48614  24.652  28.988  11.585
76300W        W48615   5.168   1.089  12.495
76301W        W48616  42.335  16.259   3.842
76302W        W48617  18.302  17.183   3.911
76303W        W48618  38.728  40.316   0.771
76304W        W48619  28.603  36.373  12.072
76305W        W48620  25.210  32.319   1.739
76306W        W48621  25.326  30.405  13.937
76307W        W48622  19.012  42.764  10.574
76308W        W48623   3.667  28.198   9.843
76309W        W48624  36.475  24.107   0.797
76310W        W48625  25.108  27.734   4.052
76311W        W48626  25.155  12.795  13.802
76312W        W48627  30.607  31.549  11.457
76313W        W48628  26.611  31.830  14.458
76314W        W48629  40.852   9.433   3.672
76315W        W48630  42.136   5.844   0.121
76316W        W48631  29.426   9.709  13.278
76317W        W48632  41.260  29.981  10.988
76318W        W48633  34.937  29.860  12.315
76319W        W48634  44.468  36.834   3.592
76320W        W48635  17.754  41.117  10.275
76321W        W48636  41.322  32.341   4.063
76322W        W48637  40.329  15.710  13.043
76323W        W48638  33.968  17.365   4.043
76324W        W48639  41.757  22.078  11.148
76325W        W48640   6.480  35.434  13.859
76326W        W48641  19.228  21.141   1.390
76327W        W48642  15.110  13.451   1.559
76328W        W48643  41.355  15.099  13.136
76329W        W48644  30.658   3.390   2.390
76330W        W48645  43.483  24.945  13.778
76331W        W48646   1.841  16.716  11.964
76332W        W48647  25.676   4.399  14.924
76333W        W48648  34.551   5.120   3.708
76334W        W48649   3.506  19.183   4.061
76335W        W48650   1.176  40.741   2.328
76336W        W48651  44.769  32.388  14.530
76337W        W48652   3.749  11.276   3.596
76338W        W48653  38.674  37.656   4.593
76339W        W48654  22.445  32.909  11.100
76340W        W48655  11.479  14.092  10.294
76341W        W48656   1.442  38.095  12.750
76342W        W48657  39.454  30.279  11.516
76343W        W48658  40.576  31.345  12.946
76344W        W48659  24.625  22.293   1.776
76345W        W48660   6.671   2.247  13.365
76346W        W48661   9.632   7.869  14.922
76347W        W48662  27.210   9.825  12.778
76348W        W48663  18.525  16.298  12.933
76349W        W48664  40.044  35.387   1.300
76350W        W48665  29.996  28.961  14.911
76351W        W48666   1.794  18.101   2.887
76352W        W48667   2.240   7.859   4.068
76353W        W48668  41.169  31.847   4.133
76354W        W48669  39.918  18.016   4.793
76355W        W48670  12.832  38.198   2.333
76356W        W48671  41.094  14.347  11.480
76357W        W48672   3.530  21.602   0.929
76358W        W48673  19.753  38.665  10.293
76359W        W48674  12.332  43.063  12.946
76360W        W48675  12.378   0.982   0.862
76361W        W48676  32.474  44.500   1.814
76362W        W48677  20.629  20.699  12.512
76363W        W48678  22.556  41.223  12.427
76364W        W48679  10.169  32.010  14.818
76365W        W48680  32.739  14.267   1.288
76366W        W48681   4.057   5.785  11.596
76367W        W48682  24.445  41.335   4.151
76368W        W48683   3.335   5.573  12.131
76369W        W48684  34.843  17.578   3.747
76370W        W48685   1.035  12.788   4.170
76371W        W48686  16.259  12.751  13.057
76372W        W48687  41.574   0.434  12.444
76373W        W48688  25.622  40.552  14.492
76374W        W48689  20.481  13.096  12.067
76375W        W48690   6.837  44.385  11.504
76376W        W48691   8.626  41.987   2.705
76377W        W48692  44.251   8.899  11.476
76378W        W48693  25.085  34.847   1.347
76379W        W48694  42.238  17.144   4.111
76380W        W48695  20.462   8.200  14.907
76381W        W48696   5.480  24.680  12.035
76382W        W48697   2.217  24.787  11.973
76383W        W48698  43.105  17.918  13.351
76384W        W48699  13.571   6.937   1.626
76385W        W48700  25.260  35.893  12.966
76386W        W48701  23.749  34.803   0.521
76387W        W48702  42.985  17.640  14.251
76388W        W48703  44.846  28.028   4.019
76389W        W48704  43.594   4.830   1.351
76390W        W48705   9.859  10.393  12.174
76391W        W48706  39.938   6.768  10.899
76392W        W48707  32.526  17.686  10.690
76393W        W48708  43.069  19.292  11.557
76394W        W48709  25.238  14.118   3.429
76395W        W48710  16.694  11.137  10.497
76396W        W48711  29.159  25.710   1.299
76397W        W48712  21.051  43.410   0.069
76398W        W48713  33.961   8.145  11.455
76399W        W48714  34.874  33.132  11.365
76400W        W48715  23.200  38.595   1.262
76401W        W48716  27.651   1.526   0.754
76402W        W48717  26.052  44.498   0.779
76403W        W48718  15.539  24.096   3.480
76404W        W48719  22.567  43.861   3.674
76405W        W48720  43.491  36.148  12.148
76406W        W48721  25.784  22.238   3.681
76407W        W48722  14.375  22.503  11.943
76408W        W48723  27.072  42.806  13.484
76409W        W48724  18.105  40.390   4.435
76410W        W48725  15.755   5.422  14.891
76411W        W48726   6.756  28.324  12.592
76412W        W48727  36.520  29.143  12.081
76413W        W48728  16.514   8.972  13.340
76414W        W48729  28.027  28.058   2.104
76415W        W48730  20.155  28.952  12.630
76416W        W48731  16.213  36.327  11.080
76417W        W48732  19.790  38.309  14.023
76418W        W48733  31.300  38.269   4.158
76419W        W48734  36.968   4.915   0.342
76420W        W48735  33.504  44.893  11.637
76421W        W48736  15.647   1.255   4.996
76422W        W48737  44.444   7.162  11.018
76423W        W48738  29.061   4.291   1.977
76424W        W48739  18.062  16.098   4.104
76425W        W48740  30.524  29.792   2.885
76426W        W48741  35.510   8.217   4.037
76427W        W48742  22.810   7.668  12.516
76428W        W48743  34.981  37.040   0.307
76429W        W48744  41.011  24.689   1.800
76430W        W48745  12.294  32.604   0.249
76431W        W48746  37.402  20.712   1.156
76432W        W48747   1.747  26.082   0.452
76433W        W48748  39.377  35.115   3.094
76434W        W48749  40.472   7.228   3.409
76435W        W48750  25.757  23.758   3.607
76436W        W48751  41.027  14.578  13.764
76437W        W48752  13.226  24.745  12.084
76438W        W48753  10.137  36.875   2.758
76439W        W48754  43.739  33.129   2.410
76440W        W48755   2.764  23.738  12.986
76441W        W48756  10.243  38.957   2.237
76442W        W48757  16.366   4.972   2.457
76443W        W48758  16.550  23.656   2.205
76444W        W48759  18.491  22.108  12.433
76445W        W48760  29.775   9.842   4.647
76446W        W48761  22.598   9.112  11.110
76447W        W48762  25.288   4.056  10.276
76448W        W48763  15.873  18.877  11.337
76449W        W48764   0.371  35.531  14.767
76450W        W48765  25.648  10.611   4.487
76451W        W48766  34.458  44.504   2.652
76452W        W48767  18.869   6.116  12.486
76453W        W48768   2.830   0.513  14.880
76454W        W48769  19.849  27.058   2.863
76455W        W48770  36.344   6.716  13.012
76456W        W48771   3.470  19.583  11.503
76457W        W48772  31.862  12.132   0.752
76458W        W48773  31.254  32.192   4.414
76459W        W48774  40.468   5.327  10.605
76460W        W48775   0.918  23.324  14.877
76461W        W48776   0.038   8.199   1.393
76462W        W48777  15.077   3.396  11.957
76463W        W48778  43.723  12.344   0.796
76464W        W48779  11.695  15.789   0.331
76465W        W48780  20.991  24.773   0.340
76466W        W48781  36.635  40.600  12.616
76467W        W48782  27.638  25.535   1.249
76468W        W48783  44.542  24.998  12.374
76469W        W48784  38.342  12.694   4.039
76470W        W48785  19.998  37.830   1.968
76471W        W48786  27.764  37.922  13.349
76472W        W48787  25.488   8.583  11.573
76473W        W48788  19.265  21.917  14.064
76474W        W48789  35.016  33.879   0.769
76475W        W48790  33.079  28.083  11.558
76476W        W48791  44.832  37.535  14.579
76477W        W48792  39.386  28.508   3.173
76478W        W48793  31.124  10.736   0.781
76479W        W48794   8.302  20.111   1.238
76480W        W48795   7.865  26.260  14.421
76481W        W48796   8.688   0.284   0.816
76482W        W48797  23.370  36.950  14.353
76483W        W48798  38.015  42.887   2.429
76484W        W48799   8.561  16.595  11.082
76485W        W48800  10.223  27.073   4.582
76486W        W48801  17.532   0.729   4.623
76487W        W48802  17.107  38.761   2.275
76488W        W48803  30.929  24.485   1.773
76489W        W48804  29.089  37.975   0.063
76490W        W48805  10.103   9.721   2.401
76491W        W48806  23.383  39.337   0.953
76492W        W48807  41.769  31.142   2.317
76493W        W48808  29.819  12.806   0.094
76494W        W48809  14.590  18.545  13.581
76495W        W48810   1.714  20.559  12.681
76496W        W48811  21.593  34.377  10.772
76497W        W48812  19.833  33.480   2.760
76498W        W48813  30.387  33.713  11.160
76499W        W48814   9.851   9.400   4.598
76500W        W48815  35.867   7.116  11.165
76501W        W48816  41.311   1.505   2.185
76502W        W48817   0.493   4.824   0.239
76503W        W48818  42.503  20.764   2.177
76504W        W48819  10.127  19.292  11.999
76505W        W48820   3.430  30.613  11.615
76506W        W48821   1.819  44.392   2.691
76507W        W48822  27.812  20.984  14.491
76508W        W48823  27.606  40.185   0.060
76509W        W48824  22.406  15.234   3.594
76510W        W48825  27.555   6.909   4.065
76511W        W48826  23.102  41.723   1.321
76512W        W48827  29.948  27.401  13.024
76513W        W48828  36.375  37.001   2.857
76514W        W48829  42.762  26.147   2.770
76515W        W48830   7.606   2.369   2.890
76516W        W48831  30.217  24.592   1.408
76517W        W48832  34.823  15.634  13.871
76518W        W48833   3.485  13.174   0.459
76519W        W48834  40.494  28.138  10.608
76520W        W48835   3.649  20.114  13.323
76521W        W48836  41.526  21.993   0.013
76522W        W48837  34.533  19.326  12.132
76523W        W48838  35.924  38.736  12.501
76524W        W48839  21.687   2.335   2.358
76525W        W48840  33.320  20.232  13.790
76526W        W48841  35.924  30.094   4.547
76527W        W48842  28.857  33.997   4.561
76528W        W48843  26.609  22.497   2.714
76529W        W48844  34.049   1.867   1.266
76530W        W48845  28.482  19.856   1.383
76531W        W48846  32.880  17.174   1.302
76532W        W48847  24.709   3.357  12.265
76533W        W48848  17.714  22.690   4.396
76534W        W48849  37.626  40.188   3.123
76535W        W48850  34.305  22.487   1.452
76536W        W48851  42.036  43.583   4.051
76537W        W48852  25.020  33.549  13.149
76538W        W48853   7.238  20.314  14.477
76539W        W48854  38.482  35.059   0.354
76540W        W48855  44.062   3.304   1.252
76541W        W48856  40.771  33.555   0.319
76542W        W48857  27.938  41.325  11.577
76543W        W48858  30.550  29.122  11.607
76544W        W48859  15.670  35.027   2.778
76545W        W48860  44.454  11.886   4.822
76546W        W48861  12.592  44.562  10.873
76547W        W48862   6.731   3.103   2.883
76548W        W48863  23.289  32.129   0.540
76549W        W48864  26.371  44.093   1.194
76550W        W48865  25.765  43.754  13.429
76551W        W48866  21.156  17.119  13.988
76552W        W48867  26.491  14.686  12.845
76553W        W48868   0.484  28.259  12.535
76554W        W48869  43.791  39.504  11.916
76555W        W48870  14.868   3.507  14.889
76556W        W48871   5.237  40.009  14.118
76557W        W48872  23.199  16.716  12.601
76558W        W48873   3.631  25.281   1.205
76559W        W48874  35.947   0.251  14.926
76560W        W48875  30.868  25.215   3.600
76561W        W48876  11.535   5.329   4.547
76562W        W48877  16.787   3.675   2.270
76563W        W48878  40.796  37.316  10.758
76564W        W48879  17.362   0.920  14.398
76565W        W48880  38.743  12.191   0.202
76566W        W48881  15.775  35.291   0.204
76567W        W48882  22.949   7.900  12.093
76568W        W48883  38.491   5.988   1.972
76569W        W48884   1.740  18.371  12.468
76570W        W48885  31.049  25.279   2.179
76571W        W48886  40.810  34.039   1.473
76572W        W48887  16.166  17.544   2.254
76573W        W48888   3.435   9.691   3.876
76574W        W48889  32.112  18.172   1.654
76575W        W48890   6.382  10.598   4.902
76576W        W48891  36.431  29.319   5.006
76577W        W48892  29.615  35.522  12.902
76578W        W48893   6.975  18.749  10.866
76579W        W48894  40.745   6.765  12.451
76580W        W48895  35.480  21.006   2.609
76581W        W48896  27.332  10.984   1.446
76582W        W48897  31.137  31.921   1.970
76583W        W48898  35.476  15.766  13.014
76584W        W48899  21.079  39.390   0.629
76585W        W48900  24.500   8.337  13.175
76586W        W48901  18.541  25.239  13.610
76587W        W48902  36.555  18.385   4.176
76588W        W48903  19.493   2.195  13.793
76589W        W48904  40.365  19.252  14.462
76590W        W48905  29.843  16.120   3.728
76591W        W48906  28.384   2.436   0.126
76592W        W48907  32.376  44.268   3.710
76593W        W48908  10.390  24.111   0.401
76594W        W48909  13.377  35.075   1.770
76595W        W48910  28.146  24.254  13.394
76596W        W48911  10.915  41.945  13.285
76597W        W48912   9.116  28.031  14.051
76598W        W48913  18.202  12.386   0.871
76599W        W48914   9.712   1.789   1.264
76600W        W48915   2.742  42.901   2.451
76601W        W48916  18.257  19.775  11.634
76602W        W48917  39.931  38.829  11.064
76603W        W48918  11.637  39.660   0.863
76604W        W48919  40.397  41.760  11.547
76605W        W48920  13.141  13.830  14.014
76606W        W48921  37.833  15.487  12.375
76607W        W48922  14.616   0.049   0.007
76608W        W48923  13.118  32.924  10.919
76609W        W48924  39.387  30.692   3.327
76610W        W48925  17.248  37.813  13.419
76611W        W48926  44.965   1.738  13.424
76612W        W48927   9.850  24.992   1.613
76613W        W48928   4.000  15.570  11.227
76614W        W48929  18.464   3.280  13.907
76615W        W48930  36.479  14.049  13.523
76616W        W48931  26.939  11.899  14.336
76617W        W48932  30.155   6.048  12.009
76618W        W48933   6.809  16.449   1.403
76619W        W48934  25.681  18.062   2.270
76620W        W48935  10.803  25.951   0.744
76621W        W48936  40.925   5.107  10.447
76622W        W48937  36.844   8.722  12.617
76623W        W48938  39.456   7.903  14.057
76624W        W48939   9.221  31.465  12.646
76625W        W48940  33.988  28.132  14.291
76626W        W48941  35.635  20.167  14.116
76627W        W48942  40.351  21.132  13.661
76628W        W48943   8.358  19.102  14.988
76629W        W48944   4.138  41.740  11.105
76630W        W48945   3.816  39.024   0.855
76631W        W48946  13.304  16.291   0.327
76632W        W48947  40.818  21.533  14.010
76633W        W48948  44.967  40.769   1.315
76634W        W48949   8.636   2.547  13.962
76635W        W48950  36.048  44.712  14.280
76636W        W48951  40.533  33.971   4.775
76637W        W48952  28.987  16.378   1.626
76638W        W48953   4.688  25.581  14.451
76639W        W48954  42.422  15.808   4.067
76640W        W48955  44.856  15.762   0.017
76641W        W48956  17.003  18.877   1.253
76642W        W48957  32.206   1.693   1.818
76643W        W48958  17.430  16.854   4.184
76644W        W48959  44.470  14.619  12.481
76645W        W48960  14.468  34.538  11.426
76646W        W48961   6.847  41.405  11.073
76647W        W48962   8.620  28.157   2.926
76648W        W48963   9.001  23.190  13.722
76649W        W48964  22.289  17.645   3.665
76650W        W48965   5.711  31.735   1.948
76651W        W48966  30.525   9.304   2.169
76652W        W48967  42.547   8.754   3.836
76653W        W48968  11.590  31.194  12.533
76654W        W48969  23.984  36.983  12.392
76655W        W48970  38.077  15.281   3.240
76656W        W48971  23.468  15.537  10.418
76657W        W48972  17.594  28.506   5.299
76658W        W48973   0.231   1.325  11.623
76659W        W48974  20.524  18.292   3.355
76660W        W48975  43.510  24.628  11.723
76661W        W48976  42.858  11.206   3.878
76662W        W48977   9.256   7.763   0.821
76663W        W48978  38.832  26.609  14.044
76664W        W48979  19.598   7.748   1.920
76665W        W48980   5.920  33.569  10.717
76666W        W48981  40.562  14.517   0.262
76667W        W48982  20.200  24.524  12.505
76668W        W48983  20.649  24.497   1.001
76669W        W48984  37.878   1.261   2.821
76670W        W48985   9.151  40.402  14.405
76671W        W48986  25.489  35.914  11.578
76672W        W48987  32.902  21.662  12.038
76673W        W48988  36.038  42.273   3.381
76674W        W48989  10.629   9.842   2.323
76675W        W48990  10.512  11.625  14.877
76676W        W48991  11.269  38.555  12.507
76677W        W48992  21.447  18.791  12.178
76678W        W48993  27.676  21.940  11.636
76679W        W48994  24.310  20.960   1.701
76680W        W48995  25.990  43.085   2.917
76681W        W48996  11.862  13.121   1.807
76682W        W48997  26.351   2.481  14.999
76683W        W48998   1.236  18.638   4.072
76684W        W48999  43.379  33.124  10.539
76685W        W49000  15.346  35.791   2.865
76686W        W49001  33.375   3.104  14.927
76687W        W49002  37.544  32.973  13.381
76688W        W49003  16.043  41.574   0.923
76689W        W49004  22.663  22.800   4.946
76690W        W49005  30.388   7.543   4.495
76691W        W49006   9.931  35.002   2.930
76692W        W49007  21.522   3.319  10.949
76693W        W49008  25.164  42.007  13.842
76694W        W49009   4.987  24.225  13.347
76695W        W49010  13.641  25.142  10.376
76696W        W49011   2.461  26.265  14.787
76697W        W49012   6.622   4.300   0.433
76698W        W49013  31.911  10.793   3.247
76699W        W49014  15.045  25.105   4.441
76700W        W49015   5.204  34.389  13.014
76701W        W49016  34.374  40.360  12.537
76702W        W49017   0.676  15.782   0.319
76703W        W49018   2.395  39.496   4.554
76704W        W49019  10.898  21.046  13.273
76705W        W49020  20.030  33.870   0.267
76706W        W49021   9.455  32.655  13.112
76707W        W49022  24.017  39.888  11.175
76708W        W49023  30.170  12.894  10.645
76709W        W49024  39.604  31.818  12.196
76710W        W49025  42.962  19.663  13.332
76711W        W49026   1.330  18.315  12.145
76712W        W49027  23.215  31.538   1.249
76713W        W49028  26.705  11.508  14.034
76714W        W49029  11.317  28.577  13.069
76715W        W49030  25.301   9.247   4.617
76716W        W49031  14.679  32.567   3.714
76717W        W49032  10.692  25.136   3.269
76718W        W49033  12.890  44.511  14.449
76719W        W49034  22.253  33.595  14.982
76720W        W49035  21.494   2.149  12.507
76721W        W49036  38.493  39.904   4.602
76722W        W49037  40.046   4.526   3.011
76723W        W49038  31.614  16.299  12.713
76724W        W49039  35.149  37.128   2.230
76725W        W49040  34.091  31.678   3.318
76726W        W49041  17.352   5.105  13.206
76727W        W49042  36.806  20.336   3.257
76728W        W49043  28.662  12.142   0.218
76729W        W49044   7.745  20.460   1.788
76730W        W49045  14.231  20.571   3.804
76731W        W49046   7.592  40.819   1.117
76732W        W49047   4.514  40.334  11.165
76733W        W49048  29.653  25.839  11.527
76734W        W49049  29.837  39.447  12.462
76735W        W49050  14.771  21.753  13.729
76736W        W49051  37.819  24.446   3.106
76737W        W49052  44.551  19.210  11.372
76738W        W49053  36.407  12.721   3.781
76739W        W49054  37.340   9.728   3.727
76740W        W49055  30.549  29.205  12.461
76741W        W49056  43.209  11.696  13.140
76742W        W49057  18.244  20.240   2.727
76743W        W49058  27.198  11.209  11.054
76744W        W49059  39.390   8.428  12.496
76745W        W49060  20.915  36.058   1.255
76746W        W49061   4.284  11.606  13.635
76747W        W49062  31.505  35.906  11.552
76748W        W49063  41.978  40.755   3.580
76749W        W49064   5.265  18.732   0.261
76750W        W49065  25.272  34.649  11.947
76751W        W49066  23.830  27.572  12.035
76752W        W49067   8.708   1.902  10.114
76753W        W49068  28.965  11.752   1.349
76754W        W49069   9.303  31.872  11.063
76755W        W49070  23.109  15.449  14.544
76756W        W49071  22.600  31.205   0.505
76757W        W49072  16.664  22.412  13.111
76758W        W49073  29.120  40.366   2.375
76759W        W49074  29.570  16.211  12.822
76760W        W49075  28.044   5.115   3.085
76761W        W49076  42.128  40.521  14.538
76762W        W49077  32.879  26.208   0.397
76763W        W49078  30.835  23.801   3.659
76764W        W49079   1.111  19.476  14.066
76765W        W49080   9.604  17.586  12.055
76766W        W49081   2.226  32.585  12.430
76767W        W49082  41.980  31.790   9.989
76768W        W49083  23.590   4.901  10.668
76769W        W49084  12.637  39.415  13.265
76770W        W49085  11.815  14.163   2.646
76771W        W49086  25.909   8.453   3.970
76772W        W49087  34.990   2.584  14.634
76773W        W49088  34.429  44.870  13.530
76774W        W49089  24.921  20.793   1.709
76775W        W49090  23.147   5.218  13.420
76776W        W49091  14.337   9.888  12.333
76777W        W49092  22.838  17.116  13.019
76778W        W49093  41.961  17.941   2.800
76779W        W49094  39.232  31.965  13.004
76780W        W49095  40.330  39.937   3.752
76781W        W49096  41.505  21.811  13.570
76782W        W49097  24.972   2.282  13.755
76783W        W49098  16.398  36.592  12.027
76784W        W49099  29.484   0.752  14.035
76785W        W49100  23.707  24.634  12.505
76786W        W49101  16.574  30.624   9.635
76787W        W49102   6.196  15.681   0.773
76788W        W49103   3.641  42.929  12.505
76789W        W49104  35.367  11.689  14.358
76790W        W49105  30.115  34.467  10.752
76791W        W49106  31.924  13.200   3.741
76792W        W49107  19.257  31.928  14.885
76793W        W49108   8.634   7.241   0.311
76794W        W49109  26.454  30.418  12.415
76795W        W49110  36.473  14.927  14.778
76796W        W49111   4.791  26.290  14.936
76797W        W49112  39.038  14.491   1.195
76798W        W49113  12.900  43.329  13.881
76799W        W49114  43.243  28.882   2.839
76800W        W49115  27.257  35.465   1.165
76801W        W49116  33.872  11.478  10.980
76802W        W49117  29.586  11.674  11.969
76803W        W49118  13.022  18.008   4.584
76804W        W49119  13.002  43.909   2.152
76805W        W49120  43.300   4.998  13.384
76806W        W49121  38.845  40.866   2.380
76807W        W49122  33.110  31.085  13.472
76808W        W49123  12.385  35.983  12.359
76809W        W49124  43.830  32.347  14.353
76810W        W49125  14.912  10.665   3.259
76811W        W49126  40.964   5.956   2.517
76812W        W49127  32.712  40.387  11.251
76813W        W49128   8.199  25.181  13.958
76814W        W49129  39.829  33.480   4.520
76815W        W49130  31.189  38.537   2.815
76816W        W49131  13.946  37.555   3.587
76817W        W49132  44.483  36.657   1.829
76818W        W49133  21.654  41.814  14.435
76819W        W49134   7.186  16.678  13.355
76820W        W49135  39.887  34.432  12.871
76821W        W49136   7.554  39.669   4.091
76822W        W49137   8.414  31.060   4.949
76823W        W49138   3.688  33.802  12.006
76824W        W49139  14.009  19.553   4.204
76825W        W49140   9.407   7.304   3.572
76826W        W49141  22.937   8.700  13.168
76827W        W49142  26.377  32.452   1.249
76828W        W49143   6.702   3.950  10.653
76829W        W49144  36.997  17.749   1.799
76830W        W49145  29.555  29.861   4.279
76831W        W49146  39.930  19.524   2.385
76832W        W49147  18.026   3.484  14.046
76833W        W49148  29.976  39.462  10.968
76834W        W49149  28.563  21.966   0.748
76835W        W49150  33.413   4.282   1.229
76836W        W49151  41.476   4.224   0.840
76837W        W49152   7.691  29.443  10.962
76838W        W49153  19.726  13.182   4.129
76839W        W49154  10.775   7.891  12.066
76840W        W49155  29.986  16.766  10.743
76841W        W49156  10.247   8.273  11.534
76842W        W49157  34.357   5.310  11.576
76843W        W49158  36.661   4.180   2.858
76844W        W49159  22.383   3.250  10.386
76845W        W49160  27.876  43.877   1.306
76846W        W49161  25.462  13.709   2.313
76847W        W49162  13.571  36.414  11.147
76848W        W49163   6.322  29.334  13.504
76849W        W49164  24.694   0.237   4.080
76850W        W49165  28.226  21.504  13.558
76851W        W49166  26.468  33.575  10.671
76852W        W49167  38.913  41.627   5.031
76853W        W49168   7.803  35.729   0.575
76854W        W49169  10.435  10.584  12.588
76855W        W49170  15.321  17.667  12.916
76856W        W49171  14.690   6.388   2.160
76857W        W49172  34.605  18.780   4.604
76858W        W49173  28.683  40.385   3.277
76859W        W49174  24.101   3.699   1.683
76860W        W49175  40.018   4.999   2.302
76861W        W49176  44.676  13.692  14.847
76862W        W49177  42.784  18.815  13.871
76863W        W49178  16.751  31.538  14.832
76864W        W49179  11.409  25.697   1.791
76865W        W49180   4.465  12.092  12.120
76866W        W49181  39.902   3.120  13.557
76867W        W49182  43.093  10.104   0.497
76868W        W49183  40.539  33.093   2.686
76869W        W49184  24.087  13.115  12.325
76870W        W49185   6.919  17.762  13.052
76871W        W49186  21.529   3.933   4.213
76872W        W49187   7.327  31.082   4.732
76873W        W49188  28.805  20.280  11.922
76874W        W49189  12.009  41.342   0.527
76875W        W49190  31.481  25.360  13.246
76876W        W49191  15.685   9.889   2.215
76877W        W49192   6.126  28.687   4.134
76878W        W49193  20.392  36.913   4.094
76879W        W49194  42.664  15.782  12.769
76880W        W49195  27.280   4.028   4.106
76881W        W49196   7.465  17.862   2.373
76882W        W49197  19.643  15.399  12.834
76883W        W49198   4.750  28.105  11.070
76884W        W49199  38.788  23.210   1.390
76885W        W49200   6.433  23.159   1.435
76886W        W49201   2.772  41.668   3.572
76887W        W49202  19.166  31.065  11.188
76888W        W49203  28.227  27.493  13.337
76889W        W49204  16.041  22.616   1.347
76890W        W49205  16.900  40.393   0.898
76891W        W49206  44.714  12.213  10.252
76892W        W49207  24.433  30.131   3.355
76893W        W49208  44.129   1.106  14.417
76894W        W49209  23.707  23.826   0.481
76895W        W49210  22.733  18.150  12.821
76896W        W49211  26.113  32.458  12.900
76897W        W49212  24.225   6.200  11.619
76898W        W49213  35.036  11.190   0.720
76899W        W49214  34.640  17.792  12.018
76900W        W49215  44.397  38.892   1.189
76901W        W49216  40.195  17.580   4.914
76902W        W49217  35.376  19.352   1.717
76903W        W49218  12.375  24.003   1.848
76904W        W49219  24.115  16.042   4.444
76905W        W49220  41.622   9.909  14.626
76906W        W49221  34.251  27.447   0.382
76907W        W49222   3.818  34.640  11.355
76908W        W49223  22.514  36.515   4.713
76909W        W49224   0.342  36.652   0.863
76910W        W49225  41.499   4.797  10.504
76911W        W49226  21.003  10.062   0.825
76912W        W49227  14.226   4.285  12.472
76913W        W49228  33.682  33.068  11.627
76914W        W49229  19.043  28.661   0.258
76915W        W49230   1.777  21.769   1.503
76916W        W49231  36.812   9.244  10.793
76917W        W49232  17.289  32.316   4.760
76918W        W49233  23.790  22.280   1.298
76919W        W49234  43.916  13.278  14.909
76920W        W49235  14.216   1.672   0.697
76921W        W49236   3.982  38.921   3.082
76922W        W49237  38.918  31.646   3.663
76923W        W49238  37.442  12.543   3.539
76924W        W49239  15.599  29.008   4.137
76925W        W49240  12.661  10.328  10.591
76926W        W49241  19.911  39.656  14.796
76927W        W49242   9.325  41.574   3.620
76928W        W49243  40.754  38.944   0.138
76929W        W49244   5.923  18.112   2.227
76930W        W49245  34.359  31.052   2.627
76931W        W49246  41.466  22.930   1.499
76932W        W49247  40.046  22.538  13.334
76933W        W49248  12.617  39.534   0.881
76934W        W49249  39.338  17.674   3.161
76935W        W49250  39.925  28.459   1.425
76936W        W49251  28.067  12.240  14.884
76937W        W49252  42.961  12.888  10.901
76938W        W49253   8.736  15.379  10.483
76939W        W49254  40.660  37.946   2.898
76940W        W49255  26.027   6.520   0.710
76941W        W49256  28.531   1.031   4.196
76942W        W49257  40.399   0.433   3.460
76943W        W49258  22.662  11.382   1.150
76944W        W49259  13.775  18.805  12.868
76945W        W49260  19.840   1.733  12.844
76946W        W49261  18.737  35.343   4.272
76947W        W49262  15.163  43.489   4.016
76948W        W49263  27.028  13.735   2.752
76949W        W49264  13.348  35.128   3.103
76950W        W49265  29.849  27.558  14.925
76951W        W49266   4.532  15.653   2.835
76952W        W49267  12.260  20.499  14.352
76953W        W49268  11.207  10.856   2.828
76954W        W49269   0.331   2.767  13.451
76955W        W49270  10.593  24.079   1.344
76956W        W49271  31.850  25.293  14.367
76957W        W49272  14.273  31.990   2.896
76958W        W49273  44.556   7.581   4.130
76959W        W49274   3.998  30.449  10.755
76960W        W49275   1.348  38.346   1.351
76961W        W49276   9.197  33.413  14.340
76962W        W49277  21.124  12.324   2.839
76963W        W49278  36.933  26.341   4.330
76964W        W49279  38.436  16.062   2.861
76965W        W49280   8.700  44.771   3.256
76966W        W49281   9.724  26.799  13.138
76967W        W49282  35.755   3.191   3.729
76968W        W49283  18.033  25.051   3.716
76969W        W49284  23.696  44.314  12.140
76970W        W49285  25.023  15.554   2.583
76971W        W49286  31.139  16.131  10.554
76972W        W49287  13.859   8.982   2.776
76973W        W49288  27.420  28.017  10.676
76974W        W49289  41.015  10.701   1.362
76975W        W49290  27.221   7.358  11.961
76976W        W49291  36.261  12.797  12.741
76977W        W49292  23.479  16.190   2.625
76978W        W49293  13.312  39.942  14.820
76979W        W49294  25.624  41.112   3.788
76980W        W49295  28.996  27.732  12.457
76981W        W49296  42.241  18.778   4.146
76982W        W49297  39.684  41.041  10.665
76983W        W49298  20.503  18.739  14.505
76984W        W49299   6.832  17.581  14.853
76985W        W49300  30.566  36.356  13.486
76986W        W49301  22.760   0.742   4.996
76987W        W49302  39.925  12.381   2.276
76988W        W49303  20.170  32.518   3.710
76989W        W49304   7.284   4.729   3.599
76990W        W49305  30.259  41.936  12.958
76991W        W49306  25.999   5.490   3.604
76992W        W49307  37.575  28.077  12.402
76993W        W49308   4.519  31.178   2.687
76994W        W49309  20.796   7.826  10.679
76995W        W49310   8.551  42.497   0.806
76996W        W49311   4.166  36.395  11.173
76997W        W49312  38.844  36.274   2.903
76998W        W49313   1.809  27.585   1.656
76999W        W49314  25.134  26.324   3.734
77000W        W49315   1.365  25.694  14.748
77001W        W49316   5.740  34.686   1.758
77002W        W49317   0.744  37.811   1.153
77003W        W49318  36.056  14.710   3.791
77004W        W49319  20.555  29.031   2.369
77005W        W49320  10.813  26.657  11.199
77006W        W49321   3.970  22.470   2.320
77007W        W49322  18.941   2.256  11.162
77008W        W49323  38.083  15.153   2.682
77009W        W49324   8.224  36.581   3.632
77010W        W49325  42.823  17.026  10.930
77011W        W49326  31.445  20.098   4.669
77012W        W49327  30.986   5.372   4.390
77013W        W49328  25.092  17.749   3.726
77014W        W49329   6.195  12.870  11.200
77015W        W49330  26.925  38.811   9.977
77016W        W49331  36.175   9.128  12.121
77017W        W49332   6.232  32.599   1.331
77018W        W49333  42.066  37.623   1.433
77019W        W49334  20.165  39.543   1.634
77020W        W49335  38.977  40.900   4.726
77021W        W49336  20.241  36.918   0.184
77022W        W49337  19.160  13.827   3.768
77023W        W49338   8.904  21.788  13.095
77024W        W49339  29.622   7.748   1.412
77025W        W49340  23.605   9.235   0.943
77026W        W49341   2.664  22.186   3.130
77027W        W49342  20.012   1.438  13.225
77028W        W49343  29.490  16.061   2.854
77029W        W49344  17.576  16.816  10.743
77030W        W49345  10.871  25.591  14.933
77031W        W49346  25.707  19.591  13.483
77032W        W49347  22.715   4.774   4.035
77033W        W49348  27.062  23.002  12.022
77034W        W49349  43.844  37.370   9.886
77035W        W49350  43.715   4.976  12.397
77036W        W49351   5.005  22.262   1.406
77037W        W49352  10.846   7.454   0.895
77038W        W49353  14.537  18.466   4.410
77039W        W49354  33.942  16.813   2.236
77040W        W49355  23.152  37.566   1.710
77041W        W49356  43.047  28.911   1.147
77042W        W49357  15.555   4.323  11.249
77043W        W49358   6.858  29.971   1.155
77044W        W49359  15.656  20.657  11.095
77045W        W49360  29.951  34.230   3.634
77046W        W49361  16.711  41.808   0.777
77047W        W49362  27.710  36.331   3.104
77048W        W49363  19.324  32.955  12.026
77049W        W49364  32.700  10.319   4.469
77050W        W49365  35.994  38.378  14.574
77051W        W49366   3.710  27.625  11.503
77052W        W49367  18.647  42.336  11.207
77053W        W49368  33.097  40.803  11.972
77054W        W49369  27.121   6.845  14.033
77055W        W49370  35.839  43.767   4.079
77056W        W49371  25.990  16.133  13.981
77057W        W49372  24.407   1.221  11.539
77058W        W49373   0.040  24.008  11.579
77059W        W49374  31.731  24.552   4.569
77060W        W49375  20.073  35.988  11.546
77061W        W49376  16.384  10.195  10.824
77062W        W49377  20.203   3.957  13.378
77063W        W49378  20.227   8.792   9.869
77064W        W49379   8.409  27.133   0.782
77065W        W49380   5.255  20.167   2.293
77066W        W49381  30.922  42.854   1.734
77067W        W49382  41.015  15.801   0.430
77068W        W49383  13.305  27.577   4.234
77069W        W49384   0.495  40.586   1.332
77070W        W49385  30.480  37.968  12.308
77071W        W49386  22.022  16.271   4.940
77072W        W49387  18.123  30.402   4.617
77073W        W49388  36.429  20.802   2.577
77074W        W49389  12.704  33.358   3.690
77075W        W49390   9.242  38.495  14.453
77076W        W49391   1.339  34.528  13.299
77077W        W49392  17.942  20.768  14.935
77078W        W49393   7.223  18.353  10.588
77079W        W49394  41.722  38.505   2.341
77080W        W49395  20.580  11.940   2.423
77081W        W49396  34.018  22.185   3.189
77082W        W49397  22.966   3.968  11.583
77083W        W49398  33.611   2.341  13.810
77084W        W49399  41.060  11.975  14.472
77085W        W49400  34.865   7.893  13.306
77086W        W49401  27.680   2.744  10.654
77087W        W49402  26.977  37.617   0.234
77088W        W49403  17.536  36.269  13.836
77089W        W49404  27.941  14.214  12.098
77090W        W49405  37.006  25.314   0.436
77091W        W49406   9.335  28.636   4.669
77092W        W49407   7.590  36.998   0.529
77093W        W49408  37.276   6.958   4.383
77094W        W49409  29.046  43.491   4.657
77095W        W49410  12.380  36.087   1.736
77096W        W49411   8.140  23.806  10.707
77097W        W49412  42.164  39.713   4.454
77098W        W49413   4.130  15.100  11.009
77099W        W49414   4.361   2.512  12.555
77100W        W49415  14.813   4.277  11.992
77101W        W49416  43.735  14.652   1.458
77102W        W49417  10.459   0.638   2.700
77103W        W49418  26.486   2.880   0.324
77104W        W49419  22.167  42.517   2.682
77105W        W49420  17.820   4.416  13.802
77106W        W49421  36.896  27.895  13.009
77107W        W49422   1.365  43.739   0.842
77108W        W49423  14.665   5.196   3.105
77109W        W49424  23.637  33.892  14.276
77110W        W49425  41.087  26.468  14.576
77111W        W49426   3.246  14.366  11.095
77112W        W49427   5.406  12.115   4.308
77113W        W49428  28.080  26.149   3.239
77114W        W49429  15.869  33.356   2.154
77115W        W49430   8.722  25.029   1.674
77116W        W49431   8.843  32.386  14.443
77117W        W49432  42.565  42.461  12.138
77118W        W49433  36.955  31.599   4.151
77119W        W49434   1.454  42.005   3.746
77120W        W49435  28.997  21.154   0.239
77121W        W49436  29.967  14.293  14.061
77122W        W49437  39.071  27.572  14.163
77123W        W49438  44.203   8.191  12.553
77124W        W49439  14.852   0.987   2.385
77125W        W49440  43.552   7.890   1.804
77126W        W49441  32.958  25.600  12.886
77127W        W49442  32.412  43.849  13.428
77128W        W49443   6.949   3.514   3.122
77129W        W49444  15.937  28.369   0.303
77130W        W49445  14.798  13.876  11.223
77131W        W49446  21.610  16.919   1.928
77132W        W49447  41.790  36.087   1.435
77133W        W49448  16.401  26.487   4.203
77134W        W49449  21.501  34.634   1.749
77135W        W49450  33.321   2.766   1.860
77136W        W49451  40.004  24.073   5.283
77137W        W49452  32.685  15.871   0.696
77138W        W49453  43.000  32.002  11.473
77139W        W49454  14.247  37.174   3.347
77140W        W49455   2.316  24.356  13.788
77141W        W49456   9.581  15.958   4.452
77142W        W49457  35.867  16.712   0.532
77143W        W49458  21.474  28.488  11.107
77144W        W49459  24.750  13.436   1.391
77145W        W49460  23.035  28.027   1.437
77146W        W49461   8.856   5.251   1.329
77147W        W49462  20.252  23.252  13.026
77148W        W49463  39.770  24.667  11.884
77149W        W49464  28.922  35.899  13.008
77150W        W49465  32.094   1.215   3.217
77151W        W49466  17.097  31.932  14.899
77152W        W49467  21.342   4.674   2.300
77153W        W49468   8.764   6.303   0.575
77154W        W49469  40.712  37.056  13.031
77155W        W49470   9.666  37.615   0.737
77156W        W49471  32.066  42.430   2.680
77157W        W49472  25.456  14.206   5.082
77158W        W49473  12.062   8.431   1.742
77159W        W49474  43.026  16.551  10.983
77160W        W49475   4.203   8.572   3.714
77161W        W49476  29.232  23.470   0.981
77162W        W49477  23.614  40.877   0.657
77163W        W49478  36.980   5.959   4.658
77164W        W49479   5.572  40.098  12.433
77165W        W49480   5.689   5.452   3.586
77166W        W49481  32.473   7.775   0.702
77167W        W49482  10.556   7.422  12.051
77168W        W49483  17.168  42.843  13.555
77169W        W49484   3.437  42.042  10.715
77170W        W49485  36.506  17.037   0.632
77171W        W49486   4.382   4.964   1.546
77172W        W49487  10.382  26.952   3.566
77173W        W49488  28.458  29.044   3.992
77174W        W49489  37.309  15.695  10.483
77175W        W49490  33.482  12.647   1.758
77176W        W49491  41.788  22.128  12.057
77177W        W49492   5.308  16.821  14.303
77178W        W49493  11.464  32.260  11.109
77179W        W49494  21.232  16.800  11.237
77180W        W49495   5.478  39.204  11.353
77181W        W49496  44.213  41.500   9.769
77182W        W49497  42.973  15.408  13.579
77183W        W49498  31.460  38.983  11.953
77184W        W49499  29.720  32.822   5.153
77185W        W49500  24.573   6.453  11.961
77186W        W49501  17.535  41.609   5.579
77187W        W49502   6.208  33.155   3.731
77188W        W49503  33.445  39.105  12.831
77189W        W49504   9.069  44.559   2.134
77190W        W49505  42.991   5.848   4.546
77191W        W49506  30.563  42.346   3.776
77192W        W49507  24.030  33.738  13.827
77193W        W49508   6.960   0.670   3.655
77194W        W49509  17.546  10.333   9.565
77195W        W49510  27.991  19.368  13.030
77196W        W49511   3.644   6.789   3.481
77197W        W49512   2.035  14.167  10.619
77198W        W49513  27.812  30.856   0.863
77199W        W49514   8.823  38.084  13.051
77200W        W49515   0.094  17.133   0.475
77201W        W49516  19.098  32.243  12.479
77202W        W49517  11.461  41.809   0.089
77203W        W49518  16.941  37.512   4.131
77204W        W49519  24.124  10.117  14.952
77205W        W49520   0.755  39.889  10.897
77206W        W49521  29.476  36.422   4.189
77207W        W49522  10.190  31.538   0.047
77208W        W49523  39.897   6.635  11.393
77209W        W49524  28.096   6.827   3.743
77210W        W49525  31.077  42.271   2.119
77211W        W49526  28.503  24.010   3.624
77212W        W49527   0.494  30.046  13.868
77213W        W49528   4.671   1.048   5.072
77214W        W49529  31.732  34.086  12.371
77215W        W49530  19.537  23.039  13.029
77216W        W49531  32.756  30.422  12.683
77217W        W49532  25.844   8.339  14.836
77218W        W49533  15.217  38.556  11.067
77219W        W49534  28.883  30.725   4.526
77220W        W49535  38.835  34.831   4.999
77221W        W49536  26.752   9.663  11.678
77222W        W49537  10.375  17.997   4.030
77223W        W49538  42.266  11.832  10.347
77224W        W49539  23.076  28.396   3.178
77225W        W49540  41.510  44.852   4.271
77226W        W49541  20.328  31.510  12.539
77227W        W49542  19.083  30.493  12.929
77228W        W49543  32.244  29.515  12.891
77229W        W49544  31.035  40.685  14.803
77230W        W49545  10.646  10.757  13.023
77231W        W49546  22.722  17.799   2.654
77232W        W49547  15.254  28.386   3.626
77233W        W49548  32.812  15.343  13.127
77234W        W49549  20.554  35.408  10.493
77235W        W49550  33.645  42.339  14.292
77236W        W49551   6.526  27.420  10.865
77237W        W49552  35.657   3.329  12.873
77238W        W49553  23.771  23.002   0.808
77239W        W49554  25.583   1.732   1.568
77240W        W49555  32.624  26.669   0.259
77241W        W49556  14.989  11.743  12.558
77242W        W49557   9.750  22.394  11.112
77243W        W49558  27.555  14.282   1.255
77244W        W49559   1.381  11.023   1.275
77245W        W49560  21.639  16.987   0.731
77246W        W49561  18.234   9.330   3.811
77247W        W49562  22.259  15.520   0.874
77248W        W49563  23.742   4.759   3.263
77249W        W49564  39.317   8.662  13.357
77250W        W49565  18.056  11.057   3.524
77251W        W49566  13.932   8.731   0.766
77252W        W49567   7.448   4.823   2.719
77253W        W49568  43.611  37.131  11.950
77254W        W49569  42.815   7.526  14.291
77255W        W49570  18.315  24.759  13.524
77256W        W49571  27.899  23.009  13.814
77257W        W49572  12.420  36.461  10.788
77258W        W49573   0.824  35.434  10.260
77259W        W49574  25.073  35.557   3.804
77260W        W49575   8.850  10.323   0.369
77261W        W49576  38.090  22.102   0.566
77262W        W49577   6.339  26.220   1.578
77263W        W49578   2.247  29.863   2.455
77264W        W49579   6.774  13.821   0.584
77265W        W49580  20.221  20.547  11.794
77266W        W49581  33.073   0.865  14.084
77267W        W49582   0.528  43.548   3.896
77268W        W49583  17.959  18.675  12.415
77269W        W49584  26.016  43.741   4.757
77270W        W49585  41.286  26.105   1.821
77271W        W49586  26.457  22.607  13.899
77272W        W49587  23.800  42.564   3.720
77273W        W49588  16.180   2.111   4.772
77274W        W49589  35.348  31.669   1.390
77275W        W49590   9.671  35.955  14.265
77276W        W49591  17.832  38.375   9.925
77277W        W49592  33.109  37.544   4.055
77278W        W49593  32.564   1.477   3.943
77279W        W49594  14.761  16.205  14.922
77280W        W49595  43.971   8.898   2.307
77281W        W49596  20.653  14.883  14.040
77282W        W49597  36.000  22.995  12.010
77283W        W49598  12.617  21.620  14.875
77284W        W49599  33.776  29.916  13.601
77285W        W49600  19.435  26.646  13.454
77286W        W49601  25.186  11.372  13.073
77287W        W49602  41.486  11.786   0.367
77288W        W49603  40.244   9.674   1.607
77289W        W49604  21.437   7.285   1.075
77290W        W49605  19.068  28.471   4.839
77291W        W49606  31.054   4.154   3.702
77292W        W49607  27.099  15.253  10.924
77293W        W49608   1.369  29.630   1.803
77294W        W49609   7.386  25.540  11.637
77295W        W49610  34.818   4.831  10.611
77296W        W49611   0.320  28.381   3.941
77297W        W49612  13.156  12.225  12.388
77298W        W49613   8.229  13.172   0.284
77299W        W49614   8.626  40.751  11.509
77300W        W49615  18.411  43.952   2.730
77301W        W49616  31.437  39.477  13.517
77302W        W49617   9.879  41.811   3.691
77303W        W49618  26.444   9.756  13.563
77304W        W49619  35.543   3.188   3.244
77305W        W49620   7.618  37.349   1.847
77306W        W49621  19.331  42.449   3.212
77307W        W49622  22.107  16.035   2.148
77308W        W49623   2.381   1.407   4.912
77309W        W49624  18.058  40.981  14.358
77310W        W49625  42.929  33.465  10.600
77311W        W49626  18.143  11.271   4.471
77312W        W49627  14.114  14.750   0.779
77313W        W49628  31.701  37.609   0.699
77314W        W49629   2.734   3.432  13.649
77315W        W49630  27.011  38.440  13.312
77316W        W49631   0.501   6.781  13.044
77317W        W49632  40.056  39.171  12.860
77318W        W49633  27.864  22.732   1.327
77319W        W49634   9.376   1.857   1.930
77320W        W49635  16.803  25.679  11.517
77321W        W49636   4.916  28.016   3.807
77322W        W49637  21.669  30.285   0.242
77323W        W49638  31.600  25.459   3.331
77324W        W49639  34.527   5.269  10.606
77325W        W49640  15.556  34.431   0.259
77326W        W49641  15.234  23.276  14.809
77327W        W49642  37.422  25.283   3.277
77328W        W49643  26.086  25.199   2.250
77329W        W49644   4.776  23.096   2.365
77330W        W49645  34.356  18.488   4.221
77331W        W49646  12.214  34.129  12.329
77332W        W49647  39.418  21.684   2.366
77333W        W49648   7.757  15.995   3.745
77334W        W49649  15.303   3.798   2.255
77335W        W49650  43.339   4.267   4.663
77336W        W49651  17.622  27.622   4.707
77337W        W49652  15.186  28.835   4.995
77338W        W49653  21.310  31.005  14.309
77339W        W49654  37.469   5.953   4.060
77340W        W49655  15.701  18.880  13.229
77341W        W49656   4.475  43.688  13.002
77342W        W49657   5.721  19.235  12.520
77343W        W49658   4.157  19.673   2.107
77344W        W49659  33.424  34.967  13.839
77345W        W49660   7.854  43.554   1.604
77346W        W49661  31.601  10.102  12.010
77347W        W49662  36.529  14.668   0.247
77348W        W49663  28.627  11.340   4.093
77349W        W49664  14.841  43.947   0.528
77350W        W49665  30.128   2.968   4.709
77351W        W49666  35.836  35.550   4.554
77352W        W49667  25.017  22.592   1.986
77353W        W49668  41.506  24.070  13.943
77354W        W49669  20.078  42.812  12.360
77355W        W49670  39.114  16.380  13.425
77356W        W49671  20.695  32.670   1.244
77357W        W49672  17.179  31.443  11.510
77358W        W49673  32.620   8.218   3.640
77359W        W49674  32.834  11.803  11.647
77360W        W49675  19.027  31.639   0.292
77361W        W49676  39.049   9.522   2.795
77362W        W49677  16.661  21.424   0.769
77363W        W49678  37.305  20.793  13.877
77364W        W49679  33.161  20.758   0.483
77365W        W49680  18.564  22.194   1.516
77366W        W49681  24.651   0.326  10.912
77367W        W49682  11.416   6.808   2.326
77368W        W49683  30.454  31.590   1.350
77369W        W49684   0.266  38.320  12.844
77370W        W49685  20.990  24.874  14.367
77371W        W49686   3.058  40.053   2.715
77372W        W49687  34.317  30.747   4.787
77373W        W49688  25.538  17.907   1.732
77374W        W49689   5.217  23.121   1.455
77375W        W49690  31.755  38.912  13.410
77376W        W49691  11.286  39.049  13.475
77377W        W49692  42.461  30.038  14.478
77378W        W49693   8.796  32.996  10.578
77379W        W49694  15.663  21.751  10.607
77380W        W49695  21.648  20.448  13.807
77381W        W49696  13.640   5.898  12.060
77382W        W49697  24.522   8.667  11.580
77383W        W49698  40.415  26.227   4.537
77384W        W49699  37.916  44.747  11.820
77385W        W49700  30.570  34.925   1.267
77386W        W49701   9.800  19.511   0.478
77387W        W49702   4.089   3.999  13.648
77388W        W49703  37.690  10.955   3.286
77389W        W49704   6.420  29.970  12.031
77390W        W49705  42.557  13.700   2.265
77391W        W49706  12.607  15.167  12.499
77392W        W49707   4.281  44.327  10.133
77393W        W49708   0.889  20.100   2.199
77394W        W49709  27.677  18.220   2.428
77395W        W49710  19.057  10.321  12.974
77396W        W49711   2.094  25.997  11.617
77397W        W49712  14.786  21.128  12.433
77398W        W49713   9.683  24.471   4.184
77399W        W49714   1.395  43.801   0.255
77400W        W49715  31.217  10.694  13.566
77401W        W49716  28.585  12.329  12.793
77402W        W49717  40.443   0.870   0.484
77403W        W49718  17.603  25.299   3.569
77404W        W49719  22.167  33.216  13.037
77405W        W49720  42.487  35.898   4.743
77406W        W49721  20.124   0.503   2.681
77407W        W49722  37.428  11.951  12.604
77408W        W49723   9.718  34.500   3.694
77409W        W49724   3.641  39.014  13.994
77410W        W49725  23.467  37.883  12.486
77411W        W49726  21.296   0.952  11.068
77412W        W49727  31.401  10.154  13.746
77413W        W49728  25.946   7.299  13.720
77414W        W49729  23.279  37.067   1.863
77415W        W49730   0.921  11.898   1.960
77416W        W49731  32.940  32.996   4.234
77417W        W49732  25.093  36.068   3.800
77418W        W49733  20.166  37.381   2.908
77419W        W49734  42.205   8.571   4.799
77420W        W49735  39.772  31.093  11.121
77421W        W49736  36.834  34.125  12.426
77422W        W49737  14.694  38.735   0.394
77423W        W49738   5.287  22.176   3.913
77424W        W49739  17.347  41.008   3.764
77425W        W49740  42.339  20.929  12.583
77426W        W49741   6.276  35.960   2.245
77427W        W49742  42.442  40.516  11.703
77428W        W49743  17.093  14.811  14.819
77429W        W49744  14.088  33.785   1.594
77430W        W49745   1.437  37.792  11.121
77431W        W49746  26.539  17.351   2.027
77432W        W49747  20.521  15.227  14.464
77433W        W49748  34.905   6.428   1.872
77434W        W49749   8.049  10.817  12.281
77435W        W49750  34.231  44.289   0.793
77436W        W49751  32.354  30.527  14.092
77437W        W49752  25.556  22.699  14.903
77438W        W49753  21.989  27.725   4.030
77439W        W49754  18.070  10.766  13.642
77440W        W49755  36.467   3.234   0.745
77441W        W49756  24.521  13.810   4.722
77442W        W49757  39.648  10.876   3.936
77443W        W49758   8.867  24.431   3.259
77444W        W49759  26.657  17.303   4.231
77445W        W49760  43.909  11.355   3.425
77446W        W49761  24.816  30.517  12.157
77447W        W49762  30.898   9.898  12.042
77448W        W49763  38.033  38.896  14.289
77449W        W49764  21.985  28.459  11.917
77450W        W49765  11.180   5.901   4.197
77451W        W49766   7.991  31.176   4.209
77452W        W49767  26.153  23.093   0.411
77453W        W49768   7.397  15.981  13.069
77454W        W49769  25.542   4.488  13.401
77455W        W49770  14.429  12.786  12.866
77456W        W49771  36.641  26.164  12.293
77457W        W49772  30.240  29.373  12.879
77458W        W49773  16.376  26.140   4.607
77459W        W49774  37.271  24.364  10.157
77460W        W49775  18.484  32.035  14.149
77461W        W49776  21.378  42.606  14.047
77462W        W49777  17.187  21.716   4.185
77463W        W49778   6.634   6.172  11.454
77464W        W49779   3.420  21.971  12.481
77465W        W49780  14.190  37.457  14.542
77466W        W49781   8.268   3.489   4.379
77467W        W49782   6.401  11.669   9.887
77468W        W49783   7.691  41.469   4.505
77469W        W49784  10.375   4.849  12.956
77470W        W49785  21.711   3.006   4.158
77471W        W49786  26.943  15.014   0.457
77472W        W49787  19.304  44.758   4.413
77473W        W49788  25.523  25.216  14.953
77474W        W49789   0.998  24.630   1.710
77475W        W49790  38.761  34.911   1.284
77476W        W49791  42.935  39.914  13.800
77477W        W49792  23.067  27.957  14.432
77478W        W49793  28.198   6.201   5.424
77479W        W49794  20.919  33.004   2.677
77480W        W49795  31.149  12.112   0.222
77481W        W49796   4.736  27.911  10.593
77482W        W49797  34.065   9.169   3.595
77483W        W49798  37.792  14.672   1.382
77484W        W49799  14.624  14.174   4.618
77485W        W49800  24.495  26.800  11.220
77486W        W49801   9.789  21.070   4.574
77487W        W49802  20.633  19.910   3.802
77488W        W49803  38.049  14.155  11.930
77489W        W49804  41.026   1.928   3.259
77490W        W49805  36.423  33.390  10.542
77491W        W49806  42.957  23.290   0.930
77492W        W49807  21.745   1.391  13.148
77493W        W49808  30.441   7.913  14.535
77494W        W49809   5.782  21.084   2.798
77495W        W49810  39.787  25.551  11.569
77496W        W49811  32.643  19.016   2.893
77497W        W49812  19.179  29.208   3.146
77498W        W49813  35.916  34.009   3.725
77499W        W49814  37.139   6.868  13.418
77500W        W49815  39.753   4.236  12.874
77501W        W49816  33.984  19.189  12.865
77502W        W49817   2.477  39.436  14.517
77503W        W49818  11.854  42.213   0.897
77504W        W49819  28.377  41.090   4.014
77505W        W49820   5.368  10.724   0.667
77506W        W49821  44.901  24.013   2.745
77507W        W49822  35.435   1.328  13.037
77508W        W49823  25.554   6.256   0.780
77509W        W49824  12.347   8.246   0.344
77510W        W49825  11.198  11.880   1.350
77511W        W49826  14.447  18.014  12.940
77512W        W49827  33.438  12.838  12.953
77513W        W49828   9.682  38.112   3.474
77514W        W49829  29.130   2.838   0.913
77515W        W49830  37.896  25.626  11.870
77516W        W49831  31.123  43.021   0.316
77517W        W49832  30.338  13.814   3.147
77518W        W49833  40.860  38.829  11.380
77519W        W49834  38.273  14.230   3.415
77520W        W49835  33.980  37.886  14.964
77521W        W49836  32.400  25.569  12.728
77522W        W49837  41.454  32.676  10.580
77523W        W49838  42.004  29.583  12.041
77524W        W49839  39.463  20.476  12.496
77525W        W49840  20.529  34.453  11.833
77526W        W49841  20.847  32.304  13.665
77527W        W49842  27.007   8.711  10.707
77528W        W49843   4.681  36.466   0.383
77529W        W49844  28.469   0.857  14.588
77530W        W49845  35.158   6.727  11.668
77531W        W49846   9.856  16.757   4.748
77532W        W49847  13.303   2.437  11.974
77533W        W49848   7.840  42.996   0.884
77534W        W49849  16.585  41.848   3.754
77535W        W49850  41.552   2.035  12.490
77536W        W49851  10.149  36.898  13.348
77537W        W49852  31.180  43.931   1.892
77538W        W49853  32.463  41.595   2.840
77539W        W49854   2.259  39.906  11.576
77540W        W49855  28.222  40.592   3.299
77541W        W49856   2.748  12.171   2.460
77542W        W49857   3.410  38.826  13.241
77543W        W49858  16.475  24.920   4.634
77544W        W49859   7.364  24.250   4.137
77545W        W49860  22.104   0.456   0.239
77546W        W49861  35.416  12.071  14.729
77547W        W49862  15.550  14.310  14.033
77548W        W49863  36.313  21.249  13.759
77549W        W49864   2.658  39.404  12.771
77550W        W49865   3.185  27.721  10.651
77551W        W49866  11.902   5.533   3.698
77552W        W49867  21.665  27.948   2.695
77553W        W49868  38.091  38.065  14.948
77554W        W49869   2.370  43.436  13.301
77555W        W49870   5.660  38.246   0.263
77556W        W49871  18.321  25.667  11.041
77557W        W49872  10.377  11.798   2.461
77558W        W49873  31.884   1.479  13.509
77559W        W49874  36.963  34.174   2.870
77560W        W49875  22.138  34.588  14.896
77561W        W49876  27.834  34.072   4.500
77562W        W49877  13.306  22.383   3.616
77563W        W49878  10.335  25.156   3.654
77564W        W49879   8.189   9.108  14.637
77565W        W49880  37.869  26.154  11.091
77566W        W49881  37.919   3.149  11.738
77567W        W49882  44.725  14.251  10.659
77568W        W49883  26.964   1.846  13.890
77569W        W49884   3.115  14.494   2.613
77570W        W49885  36.302  26.296   0.559
77571W        W49886  12.874  17.411  10.236
77572W        W49887  23.692  34.594  14.418
77573W        W49888  41.359  16.452   3.530
77574W        W49889  32.227  15.657   0.816
77575W        W49890  17.065   9.266  12.796
77576W        W49891  13.442  30.432   2.364
77577W        W49892   6.926  12.338   2.368
77578W        W49893  21.796  23.867   2.350
77579W        W49894  38.359   0.301  11.477
77580W        W49895  44.335   6.341   3.709
77581W        W49896  26.942   0.564   0.372
77582W        W49897  28.083   7.722  14.381
77583W        W49898  32.136  42.845   0.331
77584W        W49899  41.891  33.456   4.465
77585W        W49900  34.446   9.382  13.355
77586W        W49901  28.892  23.530  14.192
77587W        W49902  32.866  35.042  12.009
77588W        W49903  18.093  12.270   4.164
77589W        W49904  24.070  30.630  10.227
77590W        W49905   7.777  11.957  13.130
77591W        W49906  39.627   0.669  11.525
77592W        W49907  43.091  24.913   0.478
77593W        W49908  36.625   6.387  12.722
77594W        W49909  11.288  16.103  11.437
77595W        W49910  25.379  42.002   4.298
77596W        W49911  16.922  31.390  11.982
77597W        W49912  34.144  26.958   1.671
77598W        W49913  11.068  23.717  11.185
77599W        W49914  29.401  25.569   3.483
77600W        W49915   9.404  36.368  12.011
77601W        W49916  36.753  31.543   2.322
77602W        W49917  13.955  28.087  13.154
77603W        W49918  22.066  26.660  11.087
77604W        W49919  44.806  43.303   3.211
77605W        W49920  12.678   1.785  11.991
77606W        W49921  37.344   2.915  14.838
77607W        W49922  11.186   9.718   4.440
77608W        W49923  22.994  33.523   0.265
77609W        W49924  21.413  25.188   5.063
77610W        W49925  26.841  17.368  12.788
77611W        W49926  24.486  24.056   3.785
77612W        W49927   6.765   7.946  12.397
77613W        W49928  33.123  43.449   0.836
77614W        W49929   4.905  42.113  14.937
77615W        W49930   8.440  44.707  14.970
77616W        W49931   3.176  28.663   1.502
77617W        W49932   1.886  18.611  10.662
77618W        W49933   4.794  12.779   2.993
77619W        W49934   3.534  33.098  14.824
77620W        W49935  11.337  42.455   3.875
77621W        W49936  43.272  38.076  13.866
77622W        W49937  44.437  10.759  12.999
77623W        W49938  42.906  27.796   3.197
77624W        W49939  38.541  10.871  13.857
77625W        W49940   5.135  20.639   0.219
77626W        W49941  33.949   5.916   1.864
77627W        W49942  19.846  36.625  13.758
77628W        W49943   6.394  10.551   0.365
77629W        W49944   9.306  33.337   4.477
77630W        W49945  18.758   3.968   4.624
77631W        W49946  28.612   9.652  14.348
77632W        W49947  23.215   0.683  10.969
77633W        W49948  42.339  36.610   4.308
77634W        W49949  44.937  44.479  11.568
77635W        W49950  22.218   5.109   1.489
77636W        W49951  14.848  11.260  10.726
77637W        W49952  19.250  43.506  13.032
77638W        W49953  38.026  24.014   2.906
77639W        W49954  40.528   5.452   4.788
77640W        W49955  25.058  26.022   3.325
77641W        W49956  17.675  38.026  12.572
77642W        W49957  37.800   9.930  11.240
77643W        W49958   0.892  16.046  10.433
77644W        W49959  36.466  36.840  10.735
77645W        W49960  28.885   8.785  14.008
77646W        W49961  18.986   7.381   0.100
77647W        W49962  23.712  44.621  11.101
77648W        W49963  37.276  19.993  13.492
77649W        W49964  17.287  29.022  12.216
77650W        W49965  10.862  43.401   0.758
77651W        W49966  21.761   8.642   4.176
77652W        W49967  20.667  35.868  10.686
77653W        W49968  24.514  43.840  12.994
77654W        W49969  20.520  19.219  14.998
77655W        W49970  27.497  41.345   0.732
77656W        W49971  19.265   9.032   3.137
77657W        W49972  25.886  40.595   3.817
77658W        W49973  10.790  25.724   1.190
77659W        W49974  21.817  18.793  11.790
77660W        W49975   7.611  19.236   4.329
77661W        W49976  18.029  42.977  12.743
77662W        W49977   2.489  12.619  12.836
77663W        W49978  26.291  17.174  11.977
77664W        W49979  36.345  40.034  11.279
77665W        W49980  26.920  10.952  14.288
77666W        W49981  33.456  23.107   1.435
77667W        W49982  30.976  12.880  14.873
77668W        W49983  42.868  38.992   2.785
77669W        W49984  40.437  27.494   0.977
77670W        W49985  19.074  33.543   3.311
77671W        W49986   8.439   6.739   1.375
77672W        W49987  29.938  14.711   3.790
77673W        W49988   7.849   5.219  11.243
77674W        W49989  42.847  14.028   4.489
77675W        W49990  34.525  41.790   0.504
77676W        W49991   0.268   0.816   0.852
77677W        W49992  21.358  24.596   3.853
77678W        W49993   8.814   9.714  13.741
77679W        W49994  30.086  32.326  11.075
77680W        W49995  15.438  17.888   2.625
77681W        W49996  42.250  32.413  13.284
77682W        W49997   5.315  34.373   4.175
77683W        W49998  35.478  35.871   0.736
77684W        W49999   2.424  24.234  13.041
77685W        W50000  13.647  34.981  11.847
77686W        W50001  23.840  17.966  11.332
77687W        W50002  30.677  36.704   4.090
77688W        W50003   5.055  21.783  13.003
77689W        W50004   1.333  19.965  11.206
77690W        W50005  40.970  43.592  10.571
77691W        W50006  11.174  20.204  10.649
77692W        W50007  11.786  17.155  11.027
77693W        W50008  36.012  35.995  12.856
77694W        W50009  13.388  38.986   0.156
77695W        W50010  35.736  33.521   3.686
77696W        W50011   6.429  28.742   1.175
77697W        W50012  12.609  40.113  12.434
77698W        W50013  38.568  32.026   0.269
77699W        W50014  36.550   9.980   0.084
77700W        W50015  20.106  16.175   3.888
77701W        W50016  38.286   2.229  12.965
77702W        W50017  38.860  39.340   2.770
77703W        W50018  25.474  26.243  11.604
77704W        W50019   6.038  14.200  10.501
77705W        W50020   3.751   3.363   5.193
77706W        W50021  34.044  36.596   0.471
77707W        W50022  16.442  31.607  11.831
77708W        W50023  22.144  44.395   4.675
77709W        W50024  33.538  33.946  13.193
77710W        W50025  25.653  37.900   0.987
77711W        W50026  24.493  22.722  11.494
77712W        W50027   7.465   0.706  14.946
77713W        W50028   0.725  15.365  13.266
77714W        W50029  20.749  16.283  13.506
77715W        W50030  19.044  17.308  13.939
77716W        W50031  21.471  26.018  14.811
77717W        W50032  32.084  36.823   2.724
77718W        W50033  19.472   1.876   1.323
77719W        W50034   6.782   4.191  14.953
77720W        W50035  15.050  22.602   1.292
77721W        W50036   9.403   8.353   2.704
77722W        W50037  11.875  41.245   3.963
77723W        W50038   4.322  35.551  12.356
77724W        W50039  12.198  18.722   3.680
77725W        W50040  42.796  32.089  13.187
77726W        W50041  38.929  22.140   2.922
77727W        W50042  28.719  17.880   1.238
77728W        W50043  32.020  10.560  13.838
77729W        W50044  40.304  25.385  10.841
77730W        W50045   9.166  36.531  10.692
77731W        W50046  28.109   6.914   2.369
77732W        W50047  29.392  35.495  10.483
77733W        W50048  41.338   5.334   1.387
77734W        W50049  37.328  26.194  11.046
77735W        W50050  11.868  27.686  13.938
77736W        W50051  34.995   0.319   2.308
77737W        W50052  42.969   2.693   0.965
77738W        W50053  42.496  12.153   2.805
77739W        W50054  31.029  44.440   0.746
77740W        W50055  37.601  30.917  13.968
77741W        W50056   9.001  12.458  13.284
77742W        W50057  44.673  14.804  11.618
77743W        W50058  21.962  17.735  12.043
77744W        W50059  14.605   2.908  10.784
77745W        W50060  19.121  23.715  14.803
77746W        W50061  17.358  21.665  14.317
77747W        W50062   9.142  24.171  14.955
77748W        W50063  17.887  25.009  12.518
77749W        W50064  36.559  14.179  10.594
77750W        W50065   9.370  35.511  13.831
77751W        W50066  32.374   2.626  11.050
77752W        W50067  31.030   2.899   1.663
77753W        W50068  32.036  35.699   0.317
77754W        W50069  16.641  29.337  10.681
77755W        W50070  29.473  16.769  13.472
77756W        W50071  32.029  40.048   0.447
77757W        W50072  20.952  37.830   0.120
77758W        W50073  40.438  35.988  14.341
77759W        W50074  18.700   6.807  12.961
77760W        W50075  44.867   0.515   2.780
77761W        W50076   7.433  27.523  11.125
77762W        W50077  31.367  16.028  14.961
77763W        W50078  25.483   7.172   4.139
77764W        W50079  14.220  44.003  14.135
77765W        W50080  39.701  19.705   1.448
77766W        W50081   9.776  39.892  10.434
77767W        W50082   1.216  22.622  14.471
77768W        W50083  39.041  37.470   1.744
77769W        W50084  15.661   3.733  12.465
77770W        W50085  28.250  20.710  14.393
77771W        W50086  43.201  43.733   2.557
77772W        W50087  22.303  26.776  12.376
77773W        W50088   3.198  29.808   0.749
77774W        W50089  42.256  24.802  10.160
77775W        W50090  30.469  42.561   2.886
77776W        W50091  17.927  22.750   0.935
77777W        W50092  12.319  25.725  11.698
77778W        W50093   6.769  21.896  13.904
77779W        W50094  32.180  43.812  14.011
77780W        W50095  37.025  42.931   2.685
77781W        W50096   5.122  35.585  11.570
77782W        W50097  41.991  35.310  13.381
77783W        W50098   1.363  18.895   0.412
77784W        W50099   7.908  17.542   3.711
77785W        W50100  44.436  31.978  13.418
77786W        W50101  18.978  22.509  12.015
77787W        W50102  24.297   9.681  14.185
77788W        W50103   4.665  36.591  11.139
77789W        W50104  19.077  28.940   4.602
77790W        W50105   5.389  27.770  13.914
77791W        W50106  24.166  27.324  11.731
77792W        W50107  38.520  36.932  13.231
77793W        W50108   4.825  14.662   1.734
77794W        W50109  20.113  22.817   5.100
77795W        W50110  42.841  18.163   4.116
77796W        W50111  25.651  28.083  11.128
77797W        W50112  38.000  16.025   1.228
77798W        W50113  21.404  25.439  11.104
77799W        W50114   0.771  11.427   2.777
77800W        W50115  17.727  14.359  10.962
77801W        W50116  37.622  20.956   4.511
77802W        W50117  31.408  17.060  10.672
77803W        W50118  13.822  42.770   4.107
77804W        W50119  19.042  15.749   1.984
77805W        W50120  35.779  33.015   2.667
77806W        W50121  14.220  35.639   1.872
77807W        W50122  41.006  35.145  14.028
77808W        W50123   2.178  21.297   3.257
77809W        W50124   8.116   3.950   1.713
77810W        W50125   3.737  32.839   4.606
77811W        W50126  25.633   1.330   3.756
77812W        W50127   9.980  14.806   0.273
77813W        W50128  11.817   4.582  11.524
77814W        W50129  27.209  21.655   4.451
77815W        W50130  39.379  21.637   0.360
77816W        W50131  25.185   8.623  10.330
77817W        W50132  29.202  32.175  10.276
77818W        W50133  18.896   8.534   3.742
77819W        W50134  44.726   2.000   3.694
77820W        W50135  15.242  35.825  11.086
77821W        W50136   5.289  28.900   0.766
77822W        W50137  16.592  16.094  14.242
77823W        W50138  24.694  25.653   3.329
77824W        W50139  37.377   2.907  13.784
77825W        W50140  40.774   1.595  14.151
77826W        W50141  26.221   6.705   1.994
77827W        W50142  36.864  35.132   0.919
77828W        W50143  18.179  22.463  10.617
77829W        W50144  38.357  17.324   1.863
77830W        W50145  14.078  35.219  11.507
77831W        W50146  13.158  34.945  11.712
77832W        W50147  34.678  30.598  10.464
77833W        W50148  13.197   5.717  11.768
77834W        W50149  28.906   8.407  13.646
77835W        W50150   9.027   4.484   0.093
77836W        W50151   9.469  12.580  14.000
77837W        W50152  16.512  42.483   1.814
77838W        W50153  43.835  14.074   1.349
77839W        W50154  22.594  10.656  13.504
77840W        W50155  26.480  31.652   1.714
77841W        W50156  43.339  22.023  12.029
77842W        W50157  36.034  38.157   1.956
77843W        W50158   9.632  41.509  14.378
77844W        W50159  29.927  35.628   2.174
77845W        W50160   0.243   2.733   1.897
77846W        W50161   9.134  38.038  13.497
77847W        W50162  30.217  27.577   1.733
77848W        W50163  43.335  35.159   2.701
77849W        W50164   7.776  36.163   2.279
77850W        W50165   1.358   2.293  12.384
77851W        W50166   8.690  28.188  11.819
77852W        W50167   0.903  41.636  12.152
77853W        W50168  13.168  32.662  12.442
77854W        W50169  27.721  24.293   2.674
77855W        W50170  21.317   4.444  12.295
77856W        W50171  36.884  24.045   0.372
77857W        W50172  25.716  38.483   4.267
77858W        W50173  17.885  20.063   3.702
77859W        W50174   7.798  40.643   0.467
77860W        W50175   2.867  44.937   1.324
77861W        W50176  44.859  27.126   4.634
77862W        W50177   4.788  33.284   1.122
77863W        W50178  28.032   3.517   0.856
77864W        W50179  42.947  12.450  11.157
77865W        W50180  24.980  14.724   3.200
77866W        W50181  33.326  42.481   1.672
77867W        W50182   1.017  18.361   3.615
77868W        W50183  23.631  23.605   4.289
77869W        W50184  22.505  28.667  11.998
77870W        W50185   8.619  37.019   4.264
77871W        W50186  19.852  31.815  10.384
77872W        W50187  14.611  37.269   1.333
77873W        W50188  16.236  31.942  13.567
77874W        W50189  28.395  28.420   2.851
77875W        W50190  30.537   2.602  13.992
77876W        W50191   7.670   6.721  11.620
77877W        W50192  41.541  17.998  13.495
77878W        W50193   0.170  18.268   3.241
77879W        W50194  15.255  22.316  12.066
77880W        W50195  32.559   6.141   0.445
77881W        W50196  27.638  14.796  11.057
77882W        W50197  24.521  15.074   1.134
77883W        W50198  16.741  21.882   4.871
77884W        W50199  14.131  41.883   0.207
77885W        W50200  29.312  39.601  14.953
77886W        W50201  10.618   7.783  13.033
77887W        W50202  11.526   9.378  11.577
77888W        W50203  27.604  13.872  11.887
77889W        W50204  40.339  16.234  12.857
77890W        W50205  17.607  39.069   2.249
77891W        W50206  13.927  26.795  12.605
77892W        W50207   3.004  37.470   0.087
77893W        W50208  21.663   7.808   4.829
77894W        W50209  42.603  16.483   2.355
77895W        W50210  37.830  28.877  11.195
77896W        W50211  29.535  19.153   1.200
77897W        W50212   0.753  10.780   0.283
77898W        W50213  18.152  21.982  11.474
77899W        W50214  31.308  28.920   4.116
77900W        W50215   5.131  24.518   2.851
77901W        W50216  42.265  32.522   2.229
77902W        W50217  31.895  11.155  12.399
77903W        W50218  24.678  30.866  10.643
77904W        W50219   3.976  38.840   1.322
77905W        W50220   5.127  37.856   2.850
77906W        W50221  30.488  33.537   3.236
77907W        W50222  34.502  24.314   4.887
77908W        W50223  42.281  24.552  12.400
77909W        W50224   7.745   8.662  11.094
77910W        W50225  43.372   3.004   2.689
77911W        W50226   1.289  31.342  14.422
77912W        W50227  15.379  43.978  13.948
77913W        W50228  22.615  27.170   4.031
77914W        W50229  34.978   2.853   1.106
77915W        W50230  26.947  43.949  14.374
77916W        W50231  19.496  44.773   1.989
77917W        W50232  23.707  14.659   3.746
77918W        W50233   8.148  15.587   4.594
77919W        W50234  39.101  27.669  14.696
77920W        W50235  20.070  26.144  14.759
77921W        W50236   4.292  34.585  11.961
77922W        W50237  26.220  20.219   2.593
77923W        W50238  37.360  40.411   4.067
77924W        W50239  29.489   1.240  10.804
77925W        W50240  37.338  17.831  12.027
77926W        W50241  39.933   1.538   3.814
77927W        W50242  22.761  19.715   0.186
77928W        W50243  36.028   2.891  13.226
77929W        W50244  17.708  31.682  14.188
77930W        W50245  16.432  44.867   1.336
77931W        W50246  30.976  25.302   3.105
77932W        W50247  37.107  25.986  10.613
77933W        W50248  17.300  30.407   5.387
77934W        W50249  41.243  10.138  11.817
77935W        W50250  38.439  42.886  10.959
77936W        W50251  25.079  44.846  11.822
77937W        W50252  25.619  11.188   3.181
77938W        W50253  38.364  22.160  12.530
77939W        W50254  15.125  27.452   0.880
77940W        W50255  41.280  40.458  14.877
77941W        W50256   9.016  18.071  10.212
77942W        W50257  30.702  22.618  13.780
77943W        W50258  21.178  17.024  12.058
77944W        W50259  17.347  41.893  12.040
77945W        W50260  40.558  29.726  12.072
77946W        W50261  36.011  24.954   0.273
77947W        W50262   9.176  29.620   2.689
77948W        W50263   0.085   8.797   2.026
77949W        W50264  38.130   9.223   2.194
77950W        W50265   6.703   2.910  13.961
77951W        W50266  27.495   7.136   0.319
77952W        W50267  27.524  31.686   1.525
77953W        W50268   0.268   2.220  10.624
77954W        W50269   4.318  36.402   4.654
77955W        W50270  26.764   7.243   0.848
77956W        W50271  32.639  35.586   1.490
77957W        W50272  39.285   9.815  10.629
77958W        W50273   4.358  38.748   2.174
77959W        W50274   3.840  16.817   1.770
77960W        W50275  22.001  34.519   2.455
77961W        W50276   6.078  13.726  12.171
77962W        W50277  18.065  35.028  11.602
77963W        W50278  26.292  25.863   1.204
77964W        W50279  34.611  12.218   2.170
77965W        W50280   6.816   5.520   3.551
77966W        W50281  14.565  36.938  14.808
77967W        W50282  44.263   7.276   2.814
77968W        W50283  35.255   1.847   5.125
77969W        W50284  20.747  42.088   0.491
77970W        W50285  17.142   6.126   5.389
77971W        W50286   6.213  40.781   4.337
77972W        W50287  40.319  22.053   2.732
77973W        W50288  13.631  18.749  11.118
77974W        W50289  30.101   9.156   3.968
77975W        W50290  31.040  12.600   0.341
77976W        W50291   5.364  12.217  12.200
77977W        W50292  14.583  42.601  13.015
77978W        W50293  24.984  36.400  13.785
77979W        W50294  22.205   4.689   2.828
77980W        W50295  15.219  13.049   4.231
77981W        W50296  31.499   9.213  13.597
77982W        W50297  17.701   1.974   4.461
77983W        W50298  18.599  42.224   4.101
77984W        W50299   3.147  30.102   2.019
77985W        W50300  22.258  29.050   0.667
77986W        W50301  26.162  33.998  14.933
77987W        W50302   4.119  19.691   1.217
77988W        W50303  25.559  31.644   3.195
77989W        W50304   0.776  25.019   2.700
77990W        W50305  31.887  35.469  12.678
77991W        W50306  24.564   3.816  12.465
77992W        W50307  29.053  12.337   2.753
77993W        W50308  10.100  24.159   1.061
77994W        W50309  31.560  43.051  12.090
77995W        W50310   2.697  30.210  14.200
77996W        W50311  14.667   5.389   3.581
77997W        W50312   1.953  31.746  12.991
77998W        W50313  14.562  28.969   3.479
77999W        W50314   4.846   2.964  10.767
78000W        W50315  29.664  11.735   4.101
78001W        W50316   3.988  44.362   1.322
78002W        W50317   0.932  37.097   4.204
78003W        W50318  36.667  38.986   3.812
78004W        W50319   5.718  26.430   5.067
78005W        W50320  30.514  15.342   1.343
78006W        W50321  14.824  15.144   2.286
78007W        W50322  20.633  32.541   2.648
78008W        W50323  39.284  31.039   1.220
78009W        W50324  22.636  14.753   2.873
78010W        W50325  12.887  16.314  14.939
78011W        W50326  29.824   7.779   3.539
78012W        W50327  26.448  19.245  14.563
78013W        W50328  24.708  26.576   1.296
78014W        W50329  14.353  25.247   3.102
78015W        W50330  17.024   1.064  10.640
78016W        W50331   6.198   2.011   0.490
78017W        W50332  15.389  10.500   3.175
78018W        W50333  40.726   3.294  12.495
78019W        W50334   4.736  30.106  14.252
78020W        W50335  21.011   5.242  12.990
78021W        W50336  10.636  11.216   0.286
78022W        W50337   7.707   8.742   1.903
78023W        W50338  25.110  42.978  14.950
78024W        W50339  23.767  15.539  13.921
78025W        W50340   4.485  37.553   4.183
78026W        W50341  33.373  18.540   0.696
78027W        W50342  11.810  31.939   2.101
78028W        W50343   2.200  38.387  13.017
78029W        W50344  16.131   3.542  12.460
78030W        W50345  43.609  29.684   1.574
78031W        W50346  37.521  12.462  12.633
78032W        W50347  30.534  22.170  13.490
78033W        W50348  35.149  38.377  14.976
78034W        W50349  39.319  26.694  14.271
78035W        W50350   8.232   6.312  14.324
78036W        W50351  11.653  44.199   3.151
78037W        W50352  31.322  33.977  11.481
78038W        W50353  33.106  32.171   3.616
78039W        W50354  30.077   3.853  13.273
78040W        W50355  19.716   6.986   0.779
78041W        W50356  16.539  37.184   3.646
78042W        W50357  38.117  28.858  11.647
78043W        W50358  19.742  14.324  13.871
78044W        W50359  22.039  20.312  13.054
78045W        W50360  44.139  22.780  11.772
78046W        W50361  19.724  12.200  14.034
78047W        W50362  12.589   6.689  14.314
78048W        W50363  35.078  22.972   1.322
78049W        W50364  14.009  14.304  11.086
78050W        W50365   1.990   3.010   4.225
78051W        W50366  26.351  14.782  13.468
78052W        W50367  31.015  24.687  10.594
78053W        W50368   0.839  31.377   0.703
78054W        W50369   2.361  24.462   1.922
78055W        W50370   4.919  11.340  11.578
78056W        W50371  44.095  40.373   1.223
78057W        W50372  40.508  26.748   4.512
78058W        W50373  22.643  35.976  11.845
78059W        W50374  42.564  35.956   1.766
78060W        W50375   6.253  42.350  13.032
78061W        W50376  43.788  11.684  13.787
78062W        W50377  33.437  33.924   2.309
78063W        W50378  11.872  33.951   1.276
78064W        W50379  16.067  36.647   0.484
78065W        W50380  34.886  40.122   3.618
78066W        W50381   2.802  32.665   2.933
78067W        W50382  25.529   3.375   1.935
78068W        W50383   5.746  18.012  12.866
78069W        W50384  16.627  26.324  12.281
78070W        W50385  33.878  15.564  11.598
78071W        W50386  39.488  15.374   1.526
78072W        W50387   3.379  30.068   1.543
78073W        W50388  31.200  10.568   4.248
78074W        W50389  29.696   0.370  12.563
78075W        W50390  20.764  23.598   4.664
78076W        W50391  11.807  30.519  14.806
78077W        W50392  15.754  44.073   0.056
78078W        W50393  14.823   6.804   1.856
78079W        W50394  36.092   5.364   0.539
78080W        W50395   7.249   8.859  14.955
78081W        W50396   5.214  38.930  13.020
78082W        W50397  13.108   4.609  12.917
78083W        W50398   0.138   8.687   0.970
78084W        W50399  40.738   3.216   2.242
78085W        W50400  35.986  10.573   0.447
78086W        W50401  18.236  26.414   2.323
78087W        W50402  41.850   4.907  13.324
78088W        W50403   0.214  29.626  13.963
78089W        W50404   5.352  43.480  14.008
78090W        W50405   6.170  42.048   0.973
78091W        W50406  14.514   7.250   2.657
78092W        W50407  15.912  31.026  10.462
78093W        W50408  12.181  39.339  10.390
78094W        W50409  24.694  27.459   2.256
78095W        W50410  11.780  25.974   1.250
78096W        W50411  44.356  27.610  13.997
78097W        W50412  40.802  19.642  13.630
78098W        W50413  16.018   5.957  14.034
78099W        W50414  24.163  23.154  13.952
78100W        W50415   5.742  42.365  13.001
78101W        W50416   8.614  14.979  12.266
78102W        W50417  19.101   4.836  14.242
78103W        W50418  38.887  32.222  13.425
78104W        W50419  33.953  42.454   4.373
78105W        W50420   0.801  34.828  12.283
78106W        W50421  35.698  23.608   3.888
78107W        W50422  36.612   1.983  11.203
78108W        W50423  33.469  14.071   3.318
78109W        W50424  14.641  31.311   4.223
78110W        W50425  30.987  20.089  14.765
78111W        W50426  25.957  33.836   3.735
78112W        W50427   5.128   6.859   0.913
78113W        W50428  10.884  34.056   1.223
78114W        W50429  38.886  11.864   4.236
78115W        W50430  40.973   0.076  14.820
78116W        W50431  42.490   1.491   4.503
78117W        W50432  42.739  28.488   0.302
78118W        W50433  42.076  38.676   4.141
78119W        W50434  22.091  41.803  12.804
78120W        W50435  33.891  41.132   3.601
78121W        W50436  22.982  32.664  11.601
78122W        W50437  35.926  39.273   4.078
78123W        W50438   1.313  21.740   2.259
78124W        W50439  26.829  37.271   1.107
78125W        W50440  44.028  10.847  14.805
78126W        W50441  26.116  32.005   3.906
78127W        W50442  36.206  23.699   3.780
78128W        W50443  31.916  42.402  10.650
78129W        W50444  32.506  23.164  13.948
78130W        W50445  23.406   2.562   2.790
78131W        W50446  36.516  17.159   2.469
78132W        W50447   5.891   9.234   4.092
78133W        W50448  37.510   4.837  14.009
78134W        W50449   9.289  33.118  10.474
78135W        W50450   7.421  21.978   2.976
78136W        W50451  15.043  30.162   1.061
78137W        W50452  34.993   1.204   2.650
78138W        W50453  11.596  12.114   0.679
78139W        W50454  13.043  17.288   1.771
78140W        W50455  40.598  44.849  10.740
78141W        W50456   8.817   1.445   4.871
78142W        W50457  26.004  13.088  11.216
78143W        W50458  44.802  38.661  12.599
78144W        W50459  34.551  17.083   3.768
78145W        W50460   7.731   8.140  12.816
78146W        W50461  37.338  21.465   3.767
78147W        W50462  37.447  35.104   1.792
78148W        W50463  18.176  33.092  10.695
78149W        W50464  40.728  17.071   1.706
78150W        W50465  40.582  40.491   2.245
78151W        W50466  25.647  16.016   2.922
78152W        W50467  41.557  26.254   2.275
78153W        W50468  12.962   5.161  12.568
78154W        W50469   6.037   3.468   0.903
78155W        W50470  24.525  30.603   2.372
78156W        W50471  36.148  13.639   0.234
78157W        W50472   7.993  27.875  14.510
78158W        W50473  30.374  22.139  13.970
78159W        W50474  12.627  21.635   4.296
78160W        W50475  29.913  44.909   2.224
78161W        W50476   4.748  19.502  14.461
78162W        W50477  24.155  29.734  13.840
78163W        W50478  23.510  41.905   4.471
78164W        W50479  25.840  29.744   3.895
78165W        W50480  30.460  11.899  12.454
78166W        W50481   6.061  44.951   3.129
78167W        W50482  39.328  39.834   0.027
78168W        W50483  43.679  23.578   1.978
78169W        W50484  18.825  29.460   4.210
78170W        W50485  42.905   8.969   3.273
78171W        W50486  34.875   4.487  10.998
78172W        W50487  26.283   6.917   5.423
78173W        W50488  18.794  14.197   2.905
78174W        W50489  41.528   9.449   4.262
78175W        W50490  19.744  12.313  12.320
78176W        W50491  42.524   6.587  12.339
78177W        W50492  31.391  42.431   0.289
78178W        W50493   7.917  41.016  13.486
78179W        W50494  25.052  27.610  13.051
78180W        W50495  39.992  27.098  14.876
78181W        W50496  18.956   8.556  13.412
78182W        W50497  38.295  20.981   4.125
78183W        W50498  21.417   6.440  13.337
78184W        W50499  21.058  37.613   2.852
78185W        W50500  41.450   2.410   0.261
78186W        W50501   2.276  30.432  14.022
78187W        W50502  20.798  44.500  11.131
78188W        W50503  17.732  17.017   2.890
78189W        W50504  44.746  10.149   4.251
78190W        W50505  32.497   2.927  14.740
78191W        W50506  15.226  17.151  14.384
78192W        W50507  20.083  31.800  14.349
78193W        W50508  23.948   4.432   2.235
78194W        W50509  13.850  20.824  12.113
78195W        W50510   7.605  43.138   1.827
78196W        W50511  14.281   2.207   1.975
78197W        W50512   4.718  28.707  14.524
78198W        W50513   3.316   2.860  13.275
78199W        W50514  28.660  23.253  12.753
78200W        W50515  15.190   0.951  13.973
78201W        W50516  13.742  24.734   1.649
78202W        W50517  39.367   3.283  12.878
78203W        W50518  33.271  39.949  12.503
78204W        W50519  27.518  34.751  13.904
78205W        W50520   7.285  21.903  12.475
78206W        W50521  40.406  20.643   2.711
78207W        W50522  42.482   6.692  10.554
78208W        W50523  22.756  40.276  12.384
78209W        W50524  13.162  25.052  13.996
78210W        W50525  31.119  40.108  12.928
78211W        W50526   5.950  41.881  13.010
78212W        W50527  35.366  28.374  11.068
78213W        W50528   5.985   0.346   2.786
78214W        W50529  29.550  10.691   1.733
78215W        W50530  35.412  17.058  13.396
78216W        W50531  41.489  12.490  12.762
78217W        W50532  14.639  19.268   4.760
78218W        W50533  43.002  11.129   0.736
78219W        W50534  22.248   9.295   0.220
78220W        W50535  33.615  13.194   2.862
78221W        W50536   5.408  33.018   2.272
78222W        W50537  39.904   3.620  13.500
78223W        W50538  14.138  20.342  13.433
78224W        W50539  31.162  17.352   1.332
78225W        W50540  30.896  18.838  14.370
78226W        W50541  34.429  21.574   1.266
78227W        W50542  38.543  18.651  10.742
78228W        W50543  43.632  28.228  13.939
78229W        W50544   7.176  43.603   2.734
78230W        W50545  33.439   3.870   0.160
78231W        W50546  37.707  36.559   2.921
78232W        W50547  27.032  40.024   1.292
78233W        W50548  27.622  20.167  11.974
78234W        W50549  36.781   9.767  13.810
78235W        W50550  28.188   1.109  13.895
78236W        W50551  29.448  41.021   4.072
78237W        W50552  40.535  34.061   1.915
78238W        W50553   0.956  15.104   4.615
78239W        W50554  17.284   2.338  12.807
78240W        W50555  44.860  27.118   0.348
78241W        W50556  29.209  24.570  11.033
78242W        W50557  23.686  23.201   3.105
78243W        W50558   0.305  30.833  13.471
78244W        W50559  18.096  14.313   3.181
78245W        W50560  15.647   0.499  11.456
78246W        W50561  33.491   9.471  13.535
78247W        W50562  37.841  12.079  13.403
78248W        W50563  28.869  19.146  13.958
78249W        W50564  36.503  11.183   1.072
78250W        W50565  39.156   0.561   1.376
78251W        W50566  10.388   8.757   1.458
78252W        W50567  33.028  40.859   3.105
78253W        W50568  36.871  29.621  14.786
78254W        W50569   6.468  33.377  11.600
78255W        W50570  29.919  42.322  14.999
78256W        W50571  33.631  12.170   9.974
78257W        W50572  33.335  10.331  11.548
78258W        W50573   3.923  30.910  12.472
78259W        W50574   2.041  15.223   1.322
78260W        W50575  32.618  30.371  10.683
78261W        W50576  32.089  42.099  13.562
78262W        W50577  36.386  37.750  13.029
78263W        W50578  36.062  27.114   3.753
78264W        W50579  20.424  35.907   3.597
78265W        W50580  28.078   7.818  12.378
78266W        W50581  43.403  22.636   3.450
78267W        W50582   2.681  21.820   1.314
78268W        W50583   3.921  12.172   2.684
78269W        W50584  42.464  34.147  14.514
78270W        W50585  25.089  19.124   0.110
78271W        W50586  30.172  16.265   2.255
78272W        W50587  15.600   7.710  10.475
78273W        W50588   9.347  34.885   3.618
78274W        W50589  11.515   5.828  12.403
78275W        W50590  34.648  19.759   2.234
78276W        W50591  30.590  39.843   2.681
78277W        W50592  13.314  33.444  13.003
78278W        W50593  15.110   5.853  12.670
78279W        W50594  43.731   7.386   1.061
78280W        W50595  20.489  41.253   4.285
78281W        W50596  12.520  16.778  10.506
78282W        W50597  39.787   3.483  11.606
78283W        W50598  31.135  10.817  10.546
78284W        W50599  16.128  23.270   4.252
78285W        W50600   2.125   7.166  14.833
78286W        W50601  17.542  25.123   2.664
78287W        W50602  11.243  43.205   3.269
78288W        W50603  35.874   6.713   2.362
78289W        W50604  32.789  24.684   1.745
78290W        W50605  32.882  12.848   1.839
78291W        W50606  16.885  15.728   3.817
78292W        W50607   0.289  17.951  13.476
78293W        W50608  42.078  21.815   3.887
78294W        W50609  23.092  34.577   0.730
78295W        W50610  15.079  19.567   5.116
78296W        W50611  18.349   3.887  13.918
78297W        W50612  25.998   9.451  10.634
78298W        W50613  12.273  19.291   0.708
78299W        W50614  10.374  43.354   3.678
78300W        W50615  21.246   8.090   0.923
78301W        W50616   0.934  12.780   0.388
78302W        W50617  18.632   9.618   2.394
78303W        W50618  32.158  30.183   2.284
78304W        W50619  27.491  13.052  13.984
78305W        W50620  43.047  16.676  11.860
78306W        W50621   1.092  13.818  13.711
78307W        W50622   0.339  20.266   4.308
78308W        W50623  21.211  21.482   5.047
78309W        W50624  42.363  44.547  11.105
78310W        W50625  39.899   7.708  14.251
78311W        W50626   3.906  40.947  10.683
78312W        W50627  34.636   9.821  11.872
78313W        W50628   9.381  25.007  13.463
78314W        W50629  26.028  19.322   3.593
78315W        W50630  24.698  38.411   3.776
78316W        W50631  30.323  11.434   0.838
78317W        W50632  44.508  11.950  12.892
78318W        W50633  22.054   5.344   0.929
78319W        W50634  37.856  24.527  13.318
78320W        W50635  33.495  35.799   1.220
78321W        W50636  11.847  33.081  13.873
78322W        W50637  40.571  12.148   1.309
78323W        W50638   6.408  42.081  12.113
78324W        W50639  30.834  10.357   4.568
78325W        W50640  34.508   6.580  14.476
78326W        W50641  15.813  18.096   3.770
78327W        W50642   2.979  24.069   0.959
78328W        W50643  16.535   3.043   0.876
78329W        W50644  17.597  42.471   3.761
78330W        W50645   2.417  36.996   3.107
78331W        W50646  11.539  19.810   4.019
78332W        W50647  43.892  39.725   1.941
78333W        W50648  42.491  20.784  11.194
78334W        W50649  29.409  41.059   1.495
78335W        W50650  29.605  13.565   2.596
78336W        W50651   2.392  28.268   4.087
78337W        W50652   3.531  34.529   2.651
78338W        W50653  14.105  23.442   0.383
78339W        W50654  16.813   8.701   1.032
78340W        W50655  43.195  35.581  12.951
78341W        W50656   1.449  38.909  12.091
78342W        W50657  15.314   2.350  14.347
78343W        W50658  37.553  37.396  13.922
78344W        W50659  26.351  16.889  13.305
78345W        W50660   4.875   5.431   4.619
78346W        W50661  41.929  16.896   2.803
78347W        W50662   2.743  35.708   4.171
78348W        W50663  26.578  38.844  14.412
78349W        W50664   0.965  18.244   1.781
78350W        W50665  16.935  22.108  12.293
78351W        W50666   0.241  39.785   1.334
78352W        W50667   9.255  17.605   1.257
78353W        W50668  15.543  33.575  13.918
78354W        W50669  42.826  27.410  11.146
78355W        W50670  15.123  34.917   1.406
78356W        W50671  13.861  29.786  11.506
78357W        W50672  44.562  13.241  12.380
78358W        W50673  28.866  43.987  14.814
78359W        W50674   3.709  17.836   0.321
78360W        W50675  35.364  35.854  11.304
78361W        W50676  41.811  36.338   0.933
78362W        W50677  11.251   5.807  14.722
78363W        W50678  43.152  12.594   3.586
78364W        W50679   2.236  11.831   1.313
78365W        W50680  23.451   4.300   0.982
78366W        W50681  16.026   9.169  14.995
78367W        W50682  11.618  18.991   0.351
78368W        W50683  44.345  43.226  11.186
78369W        W50684  38.960   0.909  11.225
78370W        W50685  27.424  12.079  14.144
78371W        W50686   7.770  23.700   2.964
78372W        W50687   0.550  36.032   9.590
78373W        W50688  32.154  13.194   3.256
78374W        W50689  29.078   5.007  13.890
78375W        W50690  23.055  29.946  11.464
78376W        W50691  17.991  31.866   0.421
78377W        W50692   1.222   8.713   2.332
78378W        W50693  16.462  30.988  11.152
78379W        W50694  30.586  19.779  13.954
78380W        W50695  12.297   3.736   2.573
78381W        W50696  10.401   6.989   3.270
78382W        W50697  32.996  11.412  10.938
78383W        W50698  44.886   4.367  13.394
78384W        W50699  28.473  31.489  13.642
78385W        W50700  16.707  24.637  10.602
78386W        W50701  44.507  31.604  13.034
78387W        W50702   2.453  12.142  13.029
78388W        W50703   8.708   3.278  13.521
78389W        W50704  34.055  25.205   4.667
78390W        W50705  41.556  31.129  14.104
78391W        W50706  28.401  26.022  10.700
78392W        W50707  28.943   1.675   0.424
78393W        W50708  10.972  15.329   0.355
78394W        W50709  43.831  14.440   0.983
78395W        W50710  21.695  12.566  11.071
78396W        W50711  20.418  32.581  12.403
78397W        W50712  34.346  24.528  12.536
78398W        W50713  24.642   9.802   3.504
78399W        W50714  15.364  12.739   4.675
78400W        W50715  39.415  33.124   1.434
78401W        W50716  41.387  32.107   4.537
78402W        W50717   4.701  11.764  11.762
78403W        W50718  31.167   0.384   3.311
78404W        W50719  10.768  13.972   4.400
78405W        W50720  36.458  16.145  14.397
78406W        W50721  30.610  15.041   2.641
78407W        W50722  43.764  10.406  10.623
78408W        W50723  25.077  10.407  13.108
78409W        W50724  24.984  23.468  12.429
78410W        W50725  31.537   8.176  11.171
78411W        W50726   6.099  35.347   0.660
78412W        W50727   0.710  36.459   3.056
78413W        W50728  44.793  44.663  14.365
78414W        W50729  34.428  20.536   2.800
78415W        W50730  34.416  15.581   1.427
78416W        W50731   6.933  29.369  11.505
78417W        W50732   3.725   1.876   3.086
78418W        W50733  10.516  26.245  11.099
78419W        W50734  38.966  21.671  11.000
78420W        W50735  29.207  30.456  12.050
78421W        W50736  21.639   6.851  13.569
78422W        W50737  28.014  35.324  10.886
78423W        W50738  18.465  22.433   0.248
78424W        W50739  23.986  24.335  12.945
78425W        W50740  37.905  12.157   4.704
78426W        W50741  28.460  26.426  10.368
78427W        W50742  24.996  16.171  14.550
78428W        W50743  34.897   1.639   1.207
78429W        W50744  23.969   4.961   1.426
78430W        W50745  28.485  30.229  13.520
78431W        W50746  26.017  17.385   0.892
78432W        W50747  13.578   4.461  11.229
78433W        W50748  12.828  36.351   1.935
78434W        W50749   4.894  30.916   4.390
78435W        W50750  38.844  32.174  11.596
78436W        W50751  28.232  37.590   4.568
78437W        W50752  40.257  32.625  14.836
78438W        W50753  44.961   3.840  11.216
78439W        W50754  26.204  27.108  10.735
78440W        W50755  26.981  17.708   4.109
78441W        W50756  34.173   3.971  11.996
78442W        W50757  31.089  39.075   9.985
78443W        W50758  17.079  16.625   2.447
78444W        W50759  39.611  15.752  14.370
78445W        W50760  38.828  10.067  10.737
78446W        W50761  43.195  37.523   3.649
78447W        W50762  15.577  29.627   1.572
78448W        W50763  32.450  30.001  12.833
78449W        W50764  17.135  19.911   1.219
78450W        W50765  26.157  44.188  12.740
78451W        W50766   0.524  20.121   1.126
78452W        W50767  26.909   1.217   3.393
78453W        W50768  36.910  17.409   0.517
78454W        W50769  38.535  39.693  14.734
78455W        W50770  27.702  21.002  12.506
78456W        W50771  41.044  35.485   2.207
78457W        W50772  34.945  31.161  12.839
78458W        W50773  27.735  28.429  11.604
78459W        W50774  16.686  24.949   3.807
78460W        W50775   8.900   0.887  11.831
78461W        W50776   8.644  32.498   2.272
78462W        W50777  13.965  14.186  14.202
78463W        W50778   1.235  10.768  12.936
78464W        W50779  40.358  25.161   4.684
78465W        W50780  24.762   8.860  11.182
78466W        W50781  30.858  33.865   3.104
78467W        W50782  26.114  43.992   2.831
78468W        W50783  28.298  42.386   3.210
78469W        W50784  34.045   8.216  10.397
78470W        W50785  12.980  11.092   0.851
78471W        W50786  31.963  28.396   4.446
78472W        W50787  23.806  42.972  13.773
78473W        W50788  20.113  21.784  13.026
78474W        W50789  34.560  42.606  10.647
78475W        W50790  42.418  16.112  13.485
78476W        W50791  26.836  38.216   3.595
78477W        W50792  35.070   0.783   4.820
78478W        W50793  35.838   5.840  14.974
78479W        W50794   7.135  26.138   0.291
78480W        W50795  16.126  26.705   0.940
78481W        W50796  36.902  11.075  10.458
78482W        W50797  41.406   5.229  10.805
78483W        W50798  29.983  12.810  13.854
78484W        W50799  24.622   4.833  14.766
78485W        W50800  21.740  31.430   2.189
78486W        W50801  34.809  23.711   1.808
78487W        W50802   5.290  25.655  12.991
78488W        W50803  37.042  42.855  12.915
78489W        W50804  12.822  18.777  11.584
78490W        W50805  13.641  19.281  11.062
78491W        W50806  23.384  34.443   2.288
78492W        W50807  32.589  15.708  12.657
78493W        W50808  17.589  39.346  13.860
78494W        W50809  42.448  27.464   1.926
78495W        W50810  27.214  43.562  11.462
78496W        W50811  44.188  36.702   1.358
78497W        W50812  38.906  10.319   4.146
78498W        W50813   4.175   7.675  12.169
78499W        W50814  21.736  29.002   2.616
78500W        W50815  18.039  11.868   0.821
78501W        W50816  17.710  20.136   0.390
78502W        W50817  37.417   8.940   5.104
78503W        W50818  27.084  12.359   0.026
78504W        W50819  21.435  21.503   4.555
78505W        W50820   0.544   5.497  10.776
78506W        W50821   3.702   5.187  12.364
78507W        W50822  24.715  38.038  13.568
78508W        W50823  10.133   3.883  12.390
78509W        W50824  11.227  32.121  13.093
78510W        W50825   4.450  30.424  14.544
78511W        W50826  15.183   8.688   1.240
78512W        W50827  25.542  25.769  12.014
78513W        W50828  37.040   3.740   2.348
78514W        W50829  28.996  15.708   4.119
78515W        W50830   2.405  23.090   1.681
78516W        W50831  10.388  36.563  13.028
78517W        W50832  15.480   5.163   0.280
78518W        W50833  43.505  15.120   3.711
78519W        W50834  27.797  31.059   3.176
78520W        W50835  15.022  21.519   1.699
78521W        W50836  10.188  41.791  13.556
78522W        W50837   7.221  33.658   0.362
78523W        W50838  30.108  14.244   1.918
78524W        W50839  16.211   7.276  11.415
78525W        W50840  40.741  28.117   4.241
78526W        W50841  10.169  20.174  14.988
78527W        W50842  14.607  22.323   1.254
78528W        W50843   8.752  20.765  12.937
78529W        W50844  19.508  41.247   1.823
78530W        W50845  18.713   2.973  11.052
78531W        W50846  25.996  15.386   3.662
78532W        W50847  27.077  38.967  12.983
78533W        W50848  36.161   9.599  11.888
78534W        W50849   0.909  19.112   0.523
78535W        W50850  16.496   3.870  14.613
78536W        W50851  10.880   5.187   1.308
78537W        W50852  36.942  31.987  12.517
78538W        W50853  34.570   7.150  12.168
78539W        W50854  15.112  43.270   3.535
78540W        W50855  41.413  41.751   0.544
78541W        W50856   1.431   0.785   1.843
78542W        W50857  32.087   3.675   4.162
78543W        W50858  42.847  18.609   0.602
78544W        W50859  44.072   0.132  11.589
78545W        W50860  13.202  23.017   0.170
78546W        W50861  35.038  42.073  11.956
78547W        W50862  18.841   3.322  11.664
78548W        W50863  16.365  19.283  12.496
78549W        W50864  42.833   6.321   0.544
78550W        W50865  12.078  21.337  12.906
78551W        W50866   6.191  30.635   4.126
78552W        W50867  36.937   4.797   2.269
78553W        W50868  44.402  34.971   4.013
78554W        W50869   1.989  19.547  13.849
78555W        W50870  29.365   9.311   3.166
78556W        W50871   3.446  14.089   2.703
78557W        W50872  21.161  10.246   2.061
78558W        W50873   1.675  11.235  14.297
78559W        W50874  20.782  28.242   1.846
78560W        W50875   2.993   4.916  11.651
78561W        W50876  18.562  27.193  12.690
78562W        W50877  27.457   5.322  13.086
78563W        W50878  43.189  39.583  12.528
78564W        W50879  42.894  27.704  14.901
78565W        W50880  36.915  27.431  14.383
78566W        W50881  27.880  14.040  10.035
78567W        W50882  12.381  32.747  12.030
78568W        W50883  11.336   6.481  12.354
78569W        W50884  15.236   1.940   4.201
78570W        W50885  43.550  14.283   1.758
78571W        W50886  28.182   2.690  10.784
78572W        W50887   1.467  11.883   2.714
78573W        W50888  14.651  34.774   0.890
78574W        W50889  36.782   0.724   2.472
78575W        W50890  10.434  44.652   2.411
78576W        W50891  39.282  32.911   0.200
78577W        W50892  11.227   6.905   4.348
78578W        W50893  26.755  28.519   4.109
78579W        W50894  20.559  39.049   2.646
78580W        W50895  30.515  21.150   1.000
78581W        W50896   4.447  14.249  13.864
78582W        W50897  29.746  41.139   3.124
78583W        W50898  10.634  36.321   0.104
78584W        W50899   3.473   2.542   1.671
78585W        W50900  33.025   8.429  13.772
78586W        W50901  22.099  17.019   1.803
78587W        W50902  23.217  10.100   0.942
78588W        W50903   1.980  24.225   0.919
78589W        W50904  43.181  24.709  13.425
78590W        W50905  35.460  43.598  13.314
78591W        W50906  12.658  13.543  11.916
78592W        W50907  22.032  39.580   1.911
78593W        W50908  12.550  38.013  10.689
78594W        W50909   4.710  20.641  12.526
78595W        W50910  39.402  24.178   3.199
78596W        W50911  13.920  35.448   4.417
78597W        W50912  22.016  17.773  14.559
78598W        W50913   4.738   6.386  11.462
78599W        W50914  23.402   8.518   0.226
78600W        W50915  26.787  30.835   2.236
78601W        W50916   7.729   5.741  11.114
78602W        W50917  35.938  40.813   3.039
78603W        W50918  14.079  41.837   2.799
78604W        W50919  24.505  32.110   3.939
78605W        W50920  34.032  27.685   0.805
78606W        W50921   9.002  42.882  13.449
78607W        W50922  25.823   6.112  11.968
78608W        W50923  21.688  15.022  14.773
78609W        W50924   3.474  11.906  14.707
78610W        W50925   9.584  22.668  13.330
78611W        W50926   2.393  10.578   2.959
78612W        W50927  34.905   2.734  13.161
78613W        W50928  16.072  11.743   1.314
78614W        W50929  37.866  25.549  14.919
78615W        W50930   7.457   7.368  14.978
78616W        W50931  12.015   9.712   0.374
78617W        W50932   2.498  10.134  10.235
78618W        W50933  24.383   1.329   2.275
78619W        W50934  25.727   3.715   2.306
78620W        W50935  20.319   5.673  11.833
78621W        W50936  25.821   2.543  14.985
78622W        W50937  18.023   7.182  11.097
78623W        W50938   5.733   8.555   4.626
78624W        W50939  11.821  21.866  11.442
78625W        W50940   7.796  26.521   3.534
78626W        W50941   5.140   6.133  13.411
78627W        W50942  27.961  25.096   0.228
78628W        W50943  30.647  24.580   0.538
78629W        W50944  25.652  10.221   3.261
78630W        W50945  19.549   4.208  12.969
78631W        W50946  40.673  19.747  10.843
78632W        W50947  43.229  29.729  12.382
78633W        W50948  34.260  23.375   0.348
78634W        W50949  44.900   4.954  12.047
78635W        W50950  34.625   8.182  14.531
78636W        W50951  11.791   3.965   2.302
78637W        W50952  16.069  40.543  14.910
78638W        W50953  28.681  24.635   0.199
78639W        W50954  28.143  40.134  12.289
78640W        W50955  26.610  39.692  12.609
78641W        W50956   4.728  40.116   3.705
78642W        W50957  35.024  35.150  14.314
78643W        W50958  15.272  37.230  13.010
78644W        W50959  31.336   4.804  12.418
78645W        W50960  21.487  20.219   1.878
78646W        W50961  43.499  41.478  12.553
78647W        W50962  25.047  15.954   3.995
78648W        W50963  35.284   5.064   4.821
78649W        W50964  27.097  42.203  14.010
78650W        W50965   0.962  28.630   2.789
78651W        W50966  38.452  31.211  11.704
78652W        W50967  12.779   1.281  11.906
78653W        W50968  41.322   6.140  14.908
78654W        W50969   7.598   9.896  10.990
78655W        W50970  39.106  31.916  13.790
78656W        W50971   0.959   9.742  14.997
78657W        W50972  31.386   7.656   4.685
78658W        W50973  22.446  35.580  14.416
78659W        W50974  29.537  35.750   2.815
78660W        W50975   1.267  33.610   5.482
78661W        W50976  21.958  10.421  12.877
78662W        W50977  19.746  24.898  11.085
78663W        W50978  28.066   1.698   4.528
78664W        W50979  42.069  32.870  14.296
78665W        W50980   0.568  18.081  11.657
78666W        W50981  20.251   6.003  10.549
78667W        W50982   0.946   0.756   4.333
78668W        W50983  23.937  17.644  13.422
78669W        W50984  44.668  31.807  10.858
78670W        W50985  14.919  34.670  10.023
78671W        W50986  30.464  34.091  11.649
78672W        W50987  16.656   8.421  14.239
78673W        W50988   6.357  36.571   1.326
78674W        W50989  38.045  36.581  13.040
78675W        W50990  39.131  23.003   3.623
78676W        W50991  18.610   8.233   4.153
78677W        W50992  35.567   5.095  12.467
78678W        W50993   6.665  22.638  14.390
78679W        W50994  18.739  16.146  13.443
78680W        W50995  18.082   5.331  11.947
78681W        W50996  17.098  16.074  14.320
78682W        W50997  35.860  39.037   0.899
78683W        W50998  29.368   4.704   4.145
78684W        W50999  21.009  28.889  12.429
78685W        W51000   2.432  26.646  13.522
78686W        W51001  34.476   9.046   4.362
78687W        W51002   9.212   1.199  14.615
78688W        W51003  25.643  40.976   5.022
78689W        W51004  37.883   4.732  12.213
78690W        W51005   0.008  11.903  13.002
78691W        W51006  22.232  26.041   1.228
78692W        W51007  37.100  39.391   1.884
78693W        W51008  26.541   6.730   4.614
78694W        W51009  10.632  37.534   3.102
78695W        W51010  39.167  29.532  12.270
78696W        W51011  18.283  22.091   2.590
78697W        W51012  19.636  23.592   2.613
78698W        W51013  43.474  43.641   4.837
78699W        W51014  38.880  25.683   0.006
78700W        W51015  28.574  43.304   4.440
78701W        W51016   4.900  29.647  14.444
78702W        W51017  41.306  16.828   0.881
78703W        W51018  41.202   6.556  11.584
78704W        W51019  29.541  43.114   0.197
78705W        W51020  43.332  40.228   2.699
78706W        W51021  38.990  13.129  14.464
78707W        W51022  22.634  14.530   1.304
78708W        W51023  43.916  12.854  14.410
78709W        W51024  37.311   1.713   3.134
78710W        W51025  21.034   4.165   4.139
78711W        W51026  42.492  27.695  13.049
78712W        W51027  26.782  39.376   4.218
78713W        W51028  19.613  22.519   0.207
78714W        W51029   9.341   8.763  10.344
78715W        W51030  26.177  26.203  10.691
78716W        W51031  29.924  27.159   0.498
78717W        W51032   8.907  38.860   2.713
78718W        W51033  11.103   1.220   3.130
78719W        W51034   5.756  28.778  11.608
78720W        W51035  18.428   9.386  10.558
78721W        W51036  34.986   1.608  14.337
78722W        W51037  29.195   1.826  10.773
78723W        W51038  10.190  37.851   2.707
78724W        W51039  26.367   9.739   3.530
78725W        W51040  24.969   0.793   4.302
78726W        W51041  16.007   5.506  12.641
78727W        W51042   1.371  15.195   2.304
78728W        W51043  25.164  26.208  12.464
78729W        W51044  13.264  27.073  11.067
78730W        W51045   1.746  17.544   0.357
78731W        W51046   9.136   0.065  11.465
78732W        W51047  25.607  42.974  11.347
78733W        W51048  30.887  33.178  14.364
78734W        W51049   8.413  41.543   1.058
78735W        W51050  31.394  14.057  11.449
78736W        W51051   6.187   2.835   1.387
78737W        W51052  35.470  12.722   2.250
78738W        W51053  16.264  20.469   0.942
78739W        W51054   0.739  23.102  13.368
78740W        W51055   0.843  17.713  12.421
78741W        W51056  18.068   6.284  11.083
78742W        W51057  39.942  38.314   4.895
78743W        W51058  36.411  27.557  11.073
78744W        W51059   8.922  42.990  13.952
78745W        W51060   6.298  21.314   2.736
78746W        W51061   8.779  36.741   2.582
78747W        W51062  37.367   8.787   4.623
78748W        W51063  14.293   3.274  12.585
78749W        W51064   6.395  34.990   3.712
78750W        W51065  19.888  21.784   0.943
78751W        W51066  28.534  35.245  12.996
78752W        W51067  18.035  38.655  10.309
78753W        W51068  10.226  22.753   1.243
78754W        W51069  43.840  15.087  13.749
78755W        W51070  44.787  43.895  10.771
78756W        W51071  30.659  14.882  12.057
78757W        W51072  34.340  29.587   4.002
78758W        W51073   9.366  25.755  12.087
78759W        W51074   3.848  25.237  13.980
78760W        W51075  10.160  34.646  11.796
78761W        W51076  16.305  28.572   1.834
78762W        W51077  32.674  18.112   9.733
78763W        W51078  43.878  21.157   3.173
78764W        W51079  39.522  12.060  14.980
78765W        W51080  32.493  24.724  14.500
78766W        W51081   2.222  17.759   4.015
78767W        W51082  44.562  16.258  13.058
78768W        W51083  38.339  44.765   3.284
78769W        W51084  42.830  29.415  12.540
78770W        W51085  26.520   0.776   4.102
78771W        W51086   7.993  39.900  12.216
78772W        W51087  39.003  10.620  12.406
78773W        W51088  20.970   3.265  14.814
78774W        W51089  13.781  13.454   3.665
78775W        W51090  17.845  41.374  11.592
78776W        W51091   7.551  22.439  14.675
78777W        W51092  13.797  20.568  12.973
78778W        W51093  13.307  22.785  13.446
78779W        W51094   4.701  42.356   2.813
78780W        W51095  34.973   4.995  14.042
78781W        W51096  17.940  40.082  13.371
78782W        W51097   2.868  21.730   1.807
78783W        W51098   8.590  38.436   2.703
78784W        W51099  12.406  34.664   4.690
78785W        W51100   0.872  21.025   4.630
78786W        W51101   9.217  14.068   0.239
78787W        W51102   2.381   1.553   3.817
78788W        W51103  13.205  13.143   3.632
78789W        W51104  15.200  20.286   4.375
78790W        W51105   2.352   2.473  10.859
78791W        W51106  18.270  10.056  11.155
78792W        W51107  10.701  11.183   1.752
78793W        W51108  29.524  10.788   4.223
78794W        W51109  40.569  11.939   0.805
78795W        W51110   3.426  13.262  13.416
78796W        W51111  30.634   0.766   0.527
78797W        W51112  24.006  16.452   1.315
78798W        W51113   6.820  26.740   3.736
78799W        W51114  15.796  44.320   4.923
78800W        W51115  36.267  28.494  13.961
78801W        W51116  16.337  38.077   1.649
78802W        W51117  25.276  33.870  14.966
78803W        W51118   4.893   2.664  12.085
78804W        W51119  41.408  36.955   2.426
78805W        W51120  17.600  20.277  12.190
78806W        W51121  14.556  29.478  10.791
78807W        W51122  16.465  30.412   4.211
78808W        W51123  16.069  25.059  14.278
78809W        W51124  24.224  22.840  14.378
78810W        W51125  22.302  32.031  14.602
78811W        W51126   2.427  28.002  12.095
78812W        W51127  15.698  11.349   0.732
78813W        W51128   1.817  15.542  14.900
78814W        W51129  33.264   3.705  12.402
78815W        W51130  12.090  27.219  11.601
78816W        W51131   3.418  33.900  10.205
78817W        W51132  10.980  17.771   1.561
78818W        W51133  19.707  42.257   2.891
78819W        W51134  18.296  19.229  13.509
78820W        W51135   7.413  17.705  13.967
78821W        W51136  32.656  32.593   2.684
78822W        W51137  20.023  31.175  12.268
78823W        W51138  22.359  21.263  10.974
78824W        W51139  10.670  24.294   2.804
78825W        W51140   5.583   5.253  12.990
78826W        W51141  38.657  19.444   5.134
78827W        W51142   1.420  11.626   9.952
78828W        W51143   6.291  36.953  14.021
78829W        W51144  21.577  31.805   3.299
78830W        W51145   3.363   4.771   2.530
78831W        W51146  36.515  14.741   4.081
78832W        W51147   9.145  34.074  11.955
78833W        W51148  19.742  27.523   1.240
78834W        W51149  42.235  33.337   0.797
78835W        W51150  37.414  23.922   0.192
78836W        W51151  42.244  29.093  11.043
78837W        W51152  19.956  33.660  10.664
78838W        W51153  26.040  16.731  12.135
78839W        W51154  38.363  30.209   4.154
78840W        W51155   2.683  35.951  14.065
78841W        W51156  27.345  22.938  12.483
78842W        W51157  27.425   2.001   0.766
78843W        W51158  42.951   6.460  12.771
78844W        W51159  17.862  27.503   9.582
78845W        W51160  28.063  38.402   4.013
78846W        W51161  20.274  18.979   3.569
78847W        W51162  42.522  14.592   2.301
78848W        W51163  33.914   8.889  13.880
78849W        W51164  32.404  19.176   2.433
78850W        W51165  28.074  35.103  12.528
78851W        W51166  20.523   9.378  14.351
78852W        W51167   3.402   5.429  13.712
78853W        W51168   9.866  16.058   4.017
78854W        W51169   9.030  23.013   2.642
78855W        W51170   1.709  15.616   1.448
78856W        W51171  15.502  31.839  13.009
78857W        W51172   5.603  16.071   0.787
78858W        W51173  31.384  43.538   1.121
78859W        W51174  22.098  41.676  13.330
78860W        W51175  28.272  11.915   2.378
78861W        W51176  36.033   8.088  12.071
78862W        W51177   2.943  41.280  12.799
78863W        W51178   4.258  43.519   3.561
78864W        W51179  28.060  29.474  12.873
78865W        W51180  37.333  29.752  12.147
78866W        W51181   7.440   9.805   3.293
78867W        W51182   0.505  35.229  10.659
78868W        W51183   0.755  34.878   1.156
78869W        W51184  40.923  18.016  11.440
78870W        W51185  22.627   3.909   4.467
78871W        W51186   9.200  23.058  11.466
78872W        W51187   6.176  13.301  11.502
78873W        W51188  41.667  27.981   5.001
78874W        W51189  13.661  17.031  13.394
78875W        W51190  15.661  39.211   2.247
78876W        W51191  16.719  43.522  13.878
78877W        W51192  40.515   0.775  12.383
78878W        W51193  38.551  38.587  11.157
78879W        W51194   4.717   0.044   2.862
78880W        W51195  34.532  21.474  12.307
78881W        W51196  25.701   5.200  11.107
78882W        W51197   2.322  16.194   1.425
78883W        W51198  23.014  42.239  14.492
78884W        W51199  34.868   7.436   0.268
78885W        W51200  24.267  27.160   4.108
78886W        W51201  15.287  32.863  11.150
78887W        W51202  37.888  33.130   0.112
78888W        W51203  36.837  24.958   0.810
78889W        W51204   2.174  29.221   0.289
78890W        W51205  20.637   0.842   4.921
78891W        W51206  33.136  23.720  12.049
78892W        W51207  38.147  33.877  12.988
78893W        W51208  37.498   5.888   3.545
78894W        W51209   1.300  14.993  11.129
78895W        W51210  25.554  41.567  14.556
78896W        W51211  41.511   1.903  11.192
78897W        W51212  17.354  12.555   4.598
78898W        W51213   9.731   7.207   3.192
78899W        W51214  37.477  26.111   3.690
78900W        W51215  17.803  13.618  14.101
78901W        W51216  34.969  24.040   1.337
78902W        W51217  35.598  32.969   1.171
78903W        W51218  17.338  41.377  11.585
78904W        W51219   8.612  35.538   3.224
78905W        W51220  24.000  41.379  14.870
78906W        W51221  15.700   3.224   0.775
78907W        W51222  22.465   4.689   1.290
78908W        W51223  32.949   9.671   0.134
78909W        W51224  19.515  39.313   2.766
78910W        W51225   8.253  27.082  10.797
78911W        W51226  33.883  34.535   4.645
78912W        W51227  23.480  33.442   3.635
78913W        W51228   2.348  40.363  14.542
78914W        W51229  40.409  30.852   4.635
78915W        W51230  23.591  36.573   0.244
78916W        W51231  17.290  19.949  12.951
78917W        W51232  26.860  21.814   0.886
78918W        W51233   6.670  23.149  12.679
78919W        W51234  37.045  14.783   0.362
78920W        W51235  19.264  30.241   0.617
78921W        W51236   7.227  30.983   0.428
78922W        W51237  19.090  41.824  10.619
78923W        W51238  37.757  37.801   2.177
78924W        W51239  12.119  34.274  11.860
78925W        W51240  14.672  37.044   0.764
78926W        W51241  18.596  25.596  14.010
78927W        W51242   0.955  34.460   3.142
78928W        W51243   1.328  39.457  12.803
78929W        W51244  42.362  31.196  12.491
78930W        W51245  30.070  39.447  13.794
78931W        W51246  23.215  43.302   4.620
78932W        W51247  12.424   7.289   2.347
78933W        W51248  20.938  40.002  13.527
78934W        W51249   1.470  23.062  12.857
78935W        W51250  19.799   5.797  12.042
78936W        W51251   8.355  16.254  14.625
78937W        W51252  22.166  11.663   0.446
78938W        W51253  35.058  10.316   0.180
78939W        W51254  37.998   8.229  10.675
78940W        W51255   9.457  23.113  14.715
78941W        W51256  31.661  16.619   4.606
78942W        W51257  16.598  17.289   2.294
78943W        W51258  43.565  11.224   0.686
78944W        W51259  23.991  28.239  12.079
78945W        W51260   8.890  41.320  11.960
78946W        W51261   2.624   4.099  14.438
78947W        W51262   4.188  27.579  12.467
78948W        W51263  24.943   0.353   1.596
78949W        W51264  12.547  12.398  13.754
78950W        W51265  21.991   0.845   1.421
78951W        W51266   6.250   2.211   2.040
78952W        W51267  43.206  31.957   3.510
78953W        W51268  12.047  44.451  14.061
78954W        W51269  20.910   9.381   9.958
78955W        W51270  22.661  27.647  14.257
78956W        W51271  39.406  13.052  12.490
78957W        W51272   9.644  21.953   3.104
78958W        W51273  10.706  30.548  13.866
78959W        W51274  16.779   5.438   1.308
78960W        W51275  10.621  15.120  12.367
78961W        W51276  39.134  44.257   0.515
78962W        W51277  32.428  32.650   4.932
78963W        W51278  19.545  17.034   0.352
78964W        W51279  17.831  25.824  14.302
78965W        W51280  13.880  32.162  14.458
78966W        W51281  44.371  11.761  11.140
78967W        W51282  40.500  18.824  10.058
78968W        W51283  32.683  17.273   4.084
78969W        W51284  28.182  33.663   4.594
78970W        W51285  15.690  23.360   3.671
78971W        W51286   5.722  25.073   2.168
78972W        W51287  14.905   6.505   0.213
78973W        W51288  27.585  44.024   4.799
78974W        W51289  40.879  12.569   0.383
78975W        W51290  37.442  17.386   2.204
78976W        W51291  33.843   8.714  10.782
78977W        W51292  27.820  32.651  12.357
78978W        W51293  36.061  10.347  11.395
78979W        W51294  28.436  17.094   0.930
78980W        W51295  34.049  25.283  10.890
78981W        W51296   2.796  18.808  13.810
78982W        W51297  30.123  13.074  13.428
78983W        W51298  34.846   7.349  10.475
78984W        W51299  12.765  20.145   3.213
78985W        W51300  28.712  28.544   2.358
78986W        W51301  32.991   3.285  12.065
78987W        W51302  31.959  10.306   0.769
78988W        W51303   5.833  23.873   4.046
78989W        W51304  21.039  40.087   1.379
78990W        W51305  11.965  36.564   1.818
78991W        W51306  22.172  20.826  13.124
78992W        W51307  37.629  42.868  11.834
78993W        W51308  18.128  26.396   3.218
78994W        W51309  34.887  19.998   2.637
78995W        W51310  29.225  32.598   4.634
78996W        W51311  19.796  30.415  13.920
78997W        W51312  27.335  19.444   0.390
78998W        W51313  31.647  12.027  10.711
78999W        W51314  29.166  33.090   4.393
79000W        W51315  12.292  15.982  11.268
79001W        W51316  32.901  36.442   2.079
79002W        W51317   1.784  30.462  11.108
79003W        W51318  32.706  33.395   3.317
79004W        W51319  24.292  34.465  12.129
79005W        W51320   0.745  37.627   1.704
79006W        W51321  32.887  31.605  12.389
79007W        W51322  28.462   4.239   1.263
79008W        W51323  44.168  25.885   4.693
79009W        W51324  20.252  19.293   1.766
79010W        W51325  42.738  12.944   0.284
79011W        W51326  27.210  36.916  12.518
79012W        W51327  34.920  37.411   2.708
79013W        W51328   5.760  36.645  12.009
79014W        W51329  32.573  37.519   3.260
79015W        W51330  39.425  35.464  14.894
79016W        W51331  17.442  31.473  11.960
79017W        W51332   0.653   4.192  14.998
79018W        W51333  31.590  20.320  10.741
79019W        W51334  31.193  28.944   9.809
79020W        W51335  39.009  38.422   2.196
79021W        W51336   2.256  43.099  12.452
79022W        W51337   9.344   8.726   4.514
79023W        W51338   1.629  22.965  13.333
79024W        W51339   2.994  32.597   4.034
79025W        W51340  12.888  19.679   1.899
79026W        W51341  21.806   5.494  13.382
79027W        W51342  12.644  26.523  11.514
79028W        W51343  42.927  15.278   0.855
79029W        W51344  17.448  33.015  14.335
79030W        W51345   4.643  12.042  10.901
79031W        W51346  31.241  13.713   1.198
79032W        W51347  42.308   3.237  12.655
79033W        W51348  16.827  44.003   1.986
79034W        W51349  21.294   9.274   3.193
79035W        W51350   5.633  24.287   2.193
79036W        W51351  32.695   2.933  12.310
79037W        W51352  40.575  28.348  11.137
79038W        W51353  36.626  13.602  12.620
79039W        W51354  23.425  15.255  14.179
79040W        W51355   7.952  38.974   4.531
79041W        W51356  39.902  40.259  10.863
79042W        W51357  35.867  38.613   2.212
79043W        W51358  17.555  41.330   1.772
79044W        W51359  26.468  30.843   0.026
79045W        W51360  35.555  43.498   0.199
79046W        W51361   3.861  30.555   4.132
79047W        W51362  13.933  34.184  13.525
79048W        W51363  14.204  35.055   2.740
79049W        W51364  24.982  28.059   4.977
79050W        W51365  10.711  39.391   0.433
79051W        W51366  17.326  29.448   4.199
79052W        W51367   4.290  25.933   3.222
79053W        W51368  32.902   5.301  13.903
79054W        W51369  29.133  13.304   3.992
79055W        W51370  33.006  26.675   2.763
79056W        W51371  25.588  25.914  13.499
79057W        W51372  16.258  31.340  14.882
79058W        W51373  38.219  11.592   2.291
79059W        W51374  34.636  29.564  13.438
79060W        W51375  14.153  10.267  13.189
79061W        W51376  13.659  16.084  11.288
79062W        W51377  29.545  20.781  11.438
79063W        W51378   5.172   8.945   3.659
79064W        W51379  33.988   1.816   0.751
79065W        W51380   8.545  12.318   3.764
79066W        W51381  27.740  42.776   0.764
79067W        W51382   2.510  22.416   2.165
79068W        W51383  32.591  43.297   4.599
79069W        W51384  10.842  18.259   5.107
79070W        W51385  20.775  31.558   3.704
79071W        W51386  36.311   9.932  11.130
79072W        W51387   8.043   7.854   1.471
79073W        W51388  38.481  12.122  13.168
79074W        W51389   3.741   8.178   2.304
79075W        W51390  21.112  43.847  12.951
79076W        W51391  10.876  42.346  11.234
79077W        W51392  16.168  14.984   3.649
79078W        W51393  43.961  36.633  12.657
79079W        W51394  16.892   4.173  13.926
79080W        W51395  41.044  28.146  11.110
79081W        W51396  42.299   3.417   4.647
79082W        W51397  34.509   4.437   0.336
79083W        W51398  22.180   5.761   4.178
79084W        W51399   5.866  27.240  14.374
79085W        W51400  11.220  13.290   2.645
79086W        W51401  10.436  19.389   3.709
79087W        W51402   7.265  37.557   0.859
79088W        W51403  42.774  29.103   0.719
79089W        W51404  15.340  24.111   1.170
79090W        W51405  17.791  36.492  11.976
79091W        W51406  12.913  16.875   5.239
79092W        W51407  17.711  42.129   2.819
79093W        W51408  16.635  22.094  11.414
79094W        W51409  22.310  27.066   1.197
79095W        W51410  13.149  42.802   2.722
79096W        W51411  29.081   5.362   3.084
79097W        W51412  41.787  27.388  11.730
79098W        W51413  30.145  44.592  12.085
79099W        W51414  17.158  19.176   1.708
79100W        W51415  26.153  33.950  11.454
79101W        W51416  26.342   1.959  10.255
79102W        W51417  22.945  16.201  12.438
79103W        W51418   3.972  28.977   4.487
79104W        W51419   0.601  14.168  13.966
79105W        W51420   5.524  29.004   1.254
79106W        W51421  19.336   6.118   0.320
79107W        W51422   4.963  27.178   3.787
79108W        W51423  15.318  17.051   0.286
79109W        W51424  34.375  22.682  11.456
79110W        W51425  21.094  27.513  11.170
79111W        W51426   5.495  24.713   2.477
79112W        W51427   0.396  13.603   2.368
79113W        W51428  11.216  12.462  13.356
79114W        W51429  32.470  42.442   4.961
79115W        W51430  40.319  44.545   3.264
79116W        W51431  39.342  18.620  12.090
79117W        W51432  13.535  37.010   4.714
79118W        W51433  41.212  19.243   4.456
79119W        W51434  28.676  24.112  10.651
79120W        W51435   7.763  21.698   1.303
79121W        W51436  39.587   1.391   1.211
79122W        W51437  15.388   3.329  13.958
79123W        W51438  37.861  19.705   4.540
79124W        W51439  39.149  22.974   2.741
79125W        W51440  29.970  23.562  13.325
79126W        W51441   0.869  20.273   3.117
79127W        W51442  33.217   5.164   4.898
79128W        W51443  20.424  15.357   0.861
79129W        W51444   1.871  30.220  12.863
79130W        W51445  12.221  34.803   1.916
79131W        W51446   4.327  18.193  11.468
79132W        W51447  19.312  39.535  12.854
79133W        W51448  29.587  24.816   4.640
79134W        W51449  13.092  14.611  14.940
79135W        W51450  22.422  30.441  11.595
79136W        W51451  26.453  31.673  12.975
79137W        W51452   0.410  11.457   3.189
79138W        W51453  10.611  16.175   2.141
79139W        W51454  39.577  15.630   0.250
79140W        W51455  42.911  13.097   5.200
79141W        W51456  44.996  26.057   2.358
79142W        W51457  29.612  24.085  12.708
79143W        W51458  29.370  34.451   4.094
79144W        W51459  20.683  38.627  12.124
79145W        W51460   4.386  33.969   4.166
79146W        W51461  39.778  12.789  12.932
79147W        W51462  35.964   1.452  13.037
79148W        W51463  34.471  21.654   1.849
79149W        W51464  22.546  21.030  14.897
79150W        W51465  37.487   3.890  11.345
79151W        W51466  17.935  18.168   3.696
79152W        W51467  42.573   4.012  14.536
79153W        W51468  31.036  33.933  10.369
79154W        W51469  12.442  37.944   4.034
79155W        W51470   6.145  14.568  13.301
79156W        W51471  37.842  35.060  10.644
79157W        W51472  21.596  17.334  12.066
79158W        W51473   4.661   3.668  11.914
79159W        W51474  35.056  17.332  10.456
79160W        W51475  18.323  43.289   2.300
79161W        W51476  34.979  12.311   0.635
79162W        W51477   7.208   0.400  14.615
79163W        W51478  34.430   7.658  13.002
79164W        W51479  44.634  33.652   4.703
79165W        W51480  11.575  25.932   4.602
79166W        W51481  36.020  12.331  14.648
79167W        W51482  13.679  38.774  13.062
79168W        W51483  34.635  31.714   4.667
79169W        W51484  12.292  16.182   0.443
79170W        W51485  13.597  12.577  13.087
79171W        W51486  16.760  28.501  10.098
79172W        W51487  28.216   4.266  10.614
79173W        W51488  41.395  19.833   1.720
79174W        W51489  14.622  39.974  12.862
79175W        W51490  12.402  23.922   4.518
79176W        W51491  18.639  14.432  10.707
79177W        W51492  14.473  18.060  10.444
79178W        W51493  17.099  35.576  14.005
79179W        W51494  18.577  13.813  14.742
79180W        W51495  33.493  11.093   2.948
79181W        W51496  21.719  13.146   3.526
79182W        W51497  20.530   4.223   2.161
79183W        W51498  42.369  38.937   2.877
79184W        W51499   7.426  25.949  14.439
79185W        W51500  44.210  33.456  13.216
79186W        W51501  14.341  13.105  10.635
79187W        W51502  20.145  33.394  11.069
79188W        W51503  43.006  39.009  12.115
79189W        W51504  33.396  41.250  12.080
79190W        W51505   5.252  34.366   1.782
79191W        W51506  41.478   7.826   3.704
79192W        W51507  38.006  17.100   0.316
79193W        W51508  38.115  16.381  12.503
79194W        W51509  41.135  12.041  11.350
79195W        W51510  18.430  14.051   0.200
79196W        W51511  44.441  25.584   2.654
79197W        W51512  20.007  29.018  14.330
79198W        W51513  13.197  34.832  14.074
79199W        W51514   8.385  38.249   1.486
79200W        W51515  19.223  24.060  10.965
79201W        W51516   3.376  28.222   4.657
79202W        W51517   2.328  39.816   1.851
79203W        W51518  44.555   5.239  13.838
79204W        W51519  42.086   4.790  12.881
79205W        W51520   0.403  14.018   2.009
79206W        W51521  41.759   2.029  12.013
79207W        W51522  42.034  34.435  12.608
79208W        W51523  31.354  25.280   3.772
79209W        W51524  43.048   5.393   1.799
79210W        W51525  21.024   0.256   0.313
79211W        W51526  20.643  34.401   3.286
79212W        W51527  15.101  32.079  12.048
79213W        W51528   6.217  14.541   1.332
79214W        W51529  13.771  38.967   2.573
79215W        W51530  32.586  36.817   2.815
79216W        W51531   5.894  16.508  10.704
79217W        W51532  21.483  39.065   0.745
79218W        W51533  10.621  33.445   2.059
79219W        W51534   8.817  37.968   1.684
79220W        W51535  38.500  35.016   3.593
79221W        W51536  41.293  43.350   3.356
79222W        W51537  14.245  31.564   4.689
79223W        W51538  23.971  26.145   4.814
79224W        W51539  17.982  40.098  11.146
79225W        W51540  33.524  42.025  14.990
79226W        W51541   0.026  40.447  11.176
79227W        W51542  24.002  26.268  12.947
79228W        W51543  31.856  21.332   0.724
79229W        W51544   3.802   0.690   2.538
79230W        W51545  12.827  36.433   0.244
79231W        W51546  10.166  38.350   1.768
79232W        W51547  21.583  43.220  12.520
79233W        W51548  14.313  29.403   3.675
79234W        W51549   7.045  35.568  14.731
79235W        W51550  23.977  31.340   0.345
79236W        W51551  15.653  13.030  13.855
79237W        W51552   2.001   1.579  14.721
79238W        W51553  39.341  39.769   0.917
79239W        W51554  35.448  43.994   0.720
79240W        W51555  26.217  40.070  12.122
79241W        W51556   2.025   9.945  13.865
79242W        W51557  43.826   6.709   4.630
79243W        W51558  40.865  31.845  10.743
79244W        W51559  15.652  20.265  13.587
79245W        W51560  31.055   4.185   0.238
79246W        W51561  26.765  14.872  10.988
79247W        W51562  19.720  43.638   0.251
79248W        W51563  15.385  22.404   2.209
79249W        W51564  36.361  33.939  13.630
79250W        W51565  33.325   6.845  11.614
79251W        W51566  20.702  35.041   0.501
79252W        W51567  16.754  29.362  11.559
79253W        W51568  15.778   6.313   4.248
79254W        W51569  16.180  42.096   2.920
79255W        W51570  22.667  16.183  14.603
79256W        W51571   1.927  43.568  12.322
79257W        W51572   2.349   5.310  10.594
79258W        W51573  37.585  25.939   2.731
79259W        W51574   0.921   7.608   1.161
79260W        W51575  11.238  36.612   1.762
79261W        W51576  13.357  15.239   1.788
79262W        W51577  22.045   3.233  12.553
79263W        W51578  38.362  13.707  11.882
79264W        W51579  11.315  16.334   0.729
79265W        W51580  14.402  40.585   1.459
79266W        W51581  38.860  28.416  13.855
79267W        W51582  23.694  33.093  12.105
79268W        W51583   2.286   8.237   0.767
79269W        W51584  37.080  14.884   2.802
79270W        W51585   6.392  28.488   2.128
79271W        W51586  27.539  20.139   1.491
79272W        W51587  26.266  13.345   2.402
79273W        W51588  11.135   3.396   0.962
79274W        W51589  36.391  14.110  12.655
79275W        W51590  12.855  39.048   4.939
79276W        W51591  35.967  38.561  13.022
79277W        W51592  16.584  23.231   4.487
79278W        W51593  29.508   7.224   0.132
79279W        W51594  30.433  32.650   4.412
79280W        W51595   6.715  19.884   0.322
79281W        W51596   7.142  29.053  12.572
79282W        W51597   3.829  21.788  14.960
79283W        W51598   7.611   0.534   2.164
79284W        W51599  32.865   5.707   0.348
79285W        W51600  19.718  44.464   0.973
79286W        W51601   6.375  22.229  13.861
79287W        W51602  30.035  38.799  11.167
79288W        W51603   1.719  18.146  10.528
79289W        W51604   8.295  23.249   4.743
79290W        W51605  16.784   8.246  13.765
79291W        W51606  15.763  24.176   0.848
79292W        W51607  24.191   2.886  10.690
79293W        W51608  14.668  21.280   3.511
79294W        W51609  27.509   6.903   1.162
79295W        W51610  33.184  25.155   5.158
79296W        W51611  13.612  13.120   3.288
79297W        W51612   8.855  17.442   4.667
79298W        W51613  29.589   1.660  11.123
79299W        W51614  44.926  42.728   2.619
79300W        W51615   0.766  25.620   2.288
79301W        W51616   6.160  38.320   0.399
79302W        W51617  32.141  39.907  10.731
79303W        W51618   4.707  27.520   4.079
79304W        W51619  29.250   2.337   2.710
79305W        W51620  16.766  18.780   2.422
79306W        W51621   4.161  25.980   0.533
79307W        W51622   1.231   9.843  14.353
79308W        W51623  27.480  30.070  13.221
79309W        W51624  15.623  38.952   2.827
79310W        W51625  41.049  24.018   1.380
79311W        W51626  16.523  15.231  11.467
79312W        W51627  25.673  43.246  13.647
79313W        W51628  22.137  26.410  13.038
79314W        W51629  33.331  18.768   2.216
79315W        W51630  39.015  34.900   2.760
79316W        W51631  19.929   4.792  13.954
79317W        W51632  27.579  43.565   2.939
79318W        W51633   6.259   4.460   0.820
79319W        W51634  23.717  10.801   0.235
79320W        W51635  28.293  33.008   0.487
79321W        W51636  40.212  19.273  10.130
79322W        W51637  25.198  19.559   4.956
79323W        W51638  37.627   6.785  14.316
79324W        W51639  28.025  36.197  12.985
79325W        W51640  23.631   3.731   3.283
79326W        W51641  31.618  13.085  11.973
79327W        W51642  30.372   6.382  13.062
79328W        W51643  20.265  27.084   4.773
79329W        W51644  10.661  27.208   0.243
79330W        W51645  19.617  22.214  14.367
79331W        W51646  35.979  42.834   0.678
79332W        W51647   6.544  42.512  12.598
79333W        W51648   6.176  19.033   1.656
79334W        W51649  37.033  11.909   0.696
79335W        W51650   1.346  40.364   0.233
79336W        W51651  15.364   8.033   4.026
79337W        W51652  10.316  16.488  13.288
79338W        W51653  43.889  31.714  11.621
79339W        W51654  38.126   0.417   3.227
79340W        W51655  38.676   6.664   0.274
79341W        W51656   6.765  11.130  11.186
79342W        W51657   9.244  26.389   0.006
79343W        W51658   4.707  27.686   2.719
79344W        W51659  25.743  26.220  14.854
79345W        W51660  23.947   7.376   0.898
79346W        W51661  34.405  18.736  11.512
79347W        W51662  22.060  43.566   2.837
79348W        W51663  22.680   1.056   4.479
79349W        W51664  32.828  33.299   2.252
79350W        W51665  37.620  21.675  10.658
79351W        W51666  33.102  34.180  13.356
79352W        W51667  29.946  32.465   0.549
79353W        W51668  26.964  41.946   1.330
79354W        W51669   3.516   3.875   1.524
79355W        W51670   5.213   8.163  14.349
79356W        W51671  37.390  21.291  13.066
79357W        W51672  27.437   4.671  14.910
79358W        W51673  44.945  38.806  14.710
79359W        W51674  27.746  34.952  14.325
79360W        W51675   4.973  38.210   1.812
79361W        W51676   1.689  40.068  11.586
79362W        W51677  37.083  17.797  11.225
79363W        W51678  23.236  21.571   5.037
79364W        W51679  42.554   2.501   3.282
79365W        W51680  29.416   1.615   3.235
79366W        W51681  36.815  36.495   4.129
79367W        W51682  16.363   1.910  14.310
79368W        W51683  13.107  40.587   4.114
79369W        W51684  35.550  17.272  13.869
79370W        W51685  11.951  20.621  13.954
79371W        W51686   5.126  10.075   1.147
79372W        W51687  14.514  44.491  14.144
79373W        W51688  42.529  30.438   2.231
79374W        W51689  43.343  15.989  14.376
79375W        W51690  11.630  12.083   1.604
79376W        W51691  44.472  26.710   3.778
79377W        W51692  10.283  39.834  10.577
79378W        W51693  10.087  43.815   2.590
79379W        W51694   0.768  21.648   0.445
79380W        W51695  43.734  32.638  12.068
79381W        W51696  30.143   8.310   1.876
79382W        W51697  16.316  16.378  13.897
79383W        W51698  32.405  29.221  12.027
79384W        W51699  44.860   8.831   0.053
79385W        W51700   2.465  29.393  14.412
79386W        W51701  10.297  13.594  13.058
79387W        W51702  37.875  26.035   4.017
79388W        W51703  22.918  38.911   2.610
79389W        W51704  16.766  15.029   4.090
79390W        W51705  26.900  28.430  10.996
79391W        W51706  16.176  10.917  13.399
79392W        W51707  24.048   3.940   3.040
79393W        W51708   3.381  14.635   2.212
79394W        W51709  30.576   2.270   4.624
79395W        W51710  33.307  34.530   3.113
79396W        W51711  37.012  42.019   1.708
79397W        W51712  15.673  20.727  12.008
79398W        W51713  32.108  18.822  14.993
79399W        W51714  35.897  18.834  13.558
79400W        W51715  10.227  42.640  10.268
79401W        W51716  30.124  14.339   4.074
79402W        W51717  12.779   8.454   1.337
79403W        W51718  42.417  37.382   3.131
79404W        W51719  26.484  28.389  11.954
79405W        W51720   4.928  13.843  13.088
79406W        W51721  22.560  39.407  12.761
79407W        W51722  41.289  24.245   1.873
79408W        W51723  29.624  32.464   2.728
79409W        W51724  40.346  32.989   4.497
79410W        W51725   3.677   1.403   3.317
79411W        W51726  20.543  32.506   4.099
79412W        W51727  17.980  43.610   3.164
79413W        W51728  14.405   0.221  13.462
79414W        W51729   9.812   8.446  14.306
79415W        W51730  25.381   5.398   3.824
79416W        W51731   0.792  41.463   1.849
79417W        W51732   2.950  31.444   4.225
79418W        W51733  19.516  18.642  14.236
79419W        W51734  27.067  22.199   1.171
79420W        W51735  38.024  35.294   1.336
79421W        W51736  13.180  32.933  10.381
79422W        W51737  14.839  35.109   0.455
79423W        W51738  44.794  30.621  11.409
79424W        W51739   2.395  23.656  10.494
79425W        W51740  37.117  10.228  13.648
79426W        W51741  38.365  27.463  12.198
79427W        W51742  32.673  32.421  12.531
79428W        W51743  18.147  44.506  10.514
79429W        W51744  28.039  22.312   2.781
79430W        W51745   7.836  12.288  13.927
79431W        W51746  27.417   1.208   1.601
79432W        W51747  41.126  34.061  13.516
79433W        W51748  39.337  15.647  13.934
79434W        W51749   1.469   9.898  13.858
79435W        W51750   0.109   4.015   1.817
79436W        W51751  29.663  28.512   2.270
79437W        W51752  29.000   9.594   2.844
79438W        W51753  29.540  40.595   1.278
79439W        W51754  19.247  27.078   1.844
79440W        W51755  19.518  38.447  11.242
79441W        W51756  17.175  20.597  14.816
79442W        W51757  17.282  39.016  12.089
79443W        W51758  36.458  31.127   2.476
79444W        W51759  34.914  24.848  11.354
79445W        W51760  44.723   2.729  12.788
79446W        W51761   1.293   6.048  13.401
79447W        W51762  16.212  34.901  11.143
79448W        W51763  16.110  41.834  10.665
79449W        W51764  37.392  32.550   3.740
79450W        W51765  42.925  30.381   1.328
79451W        W51766  21.832  27.132  11.162
79452W        W51767  16.478  14.928   1.848
79453W        W51768  30.360   9.430  11.202
79454W        W51769  44.901  11.417   0.015
79455W        W51770  40.760  43.490  11.129
79456W        W51771  23.446  43.778  13.826
79457W        W51772   1.655  28.668   2.193
79458W        W51773  28.127  33.878   4.122
79459W        W51774  23.109   6.619   4.235
79460W        W51775  30.886  42.534   0.296
79461W        W51776  16.501  35.859   0.289
79462W        W51777  13.588  12.851   2.343
79463W        W51778  30.660   8.267   3.753
79464W        W51779  43.976  17.773  12.006
79465W        W51780  37.402  33.010   4.061
79466W        W51781   9.193  18.620   1.005
79467W        W51782  35.443  11.003  11.743
79468W        W51783  26.572  10.557  11.669
79469W        W51784  39.968  38.616   0.540
79470W        W51785  36.376  12.285  12.074
79471W        W51786  38.664   4.249   2.808
79472W        W51787   2.729   0.920   1.258
79473W        W51788  13.286  14.455  10.954
79474W        W51789  11.942   8.779   0.372
79475W        W51790   9.687  44.491  13.560
79476W        W51791   8.741  29.443  14.714
79477W        W51792  36.507  36.513   3.620
79478W        W51793  27.137  40.065  13.765
79479W        W51794  17.771  43.304   2.237
79480W        W51795  20.287  24.905   4.958
79481W        W51796  36.004   3.083  11.921
79482W        W51797  22.071  19.596   2.179
79483W        W51798   2.291  16.202   1.924
79484W        W51799  18.792  34.185   2.882
79485W        W51800   3.188  43.839  11.081
79486W        W51801  43.057  11.863   2.278
79487W        W51802  41.340  38.529   3.191
79488W        W51803   3.915   7.905   4.538
79489W        W51804  18.602  39.737   3.239
79490W        W51805  21.830  11.348  13.639
79491W        W51806  39.312  39.817   1.640
79492W        W51807  14.146  15.174  10.573
79493W        W51808  37.594   4.145   4.006
79494W        W51809  43.833   5.414  11.429
79495W        W51810   6.716  39.088  11.232
79496W        W51811  10.714  30.175  14.489
79497W        W51812  17.258   6.210  14.383
79498W        W51813   7.657   1.789   1.608
79499W        W51814  37.934  17.158  12.981
79500W        W51815   6.943  37.978  12.568
79501W        W51816  19.832  38.537  11.617
79502W        W51817  37.019   4.203  13.881
79503W        W51818  36.329  23.555  14.620
79504W        W51819   7.222   5.974   1.952
79505W        W51820  11.781  30.983  14.565
79506W        W51821  30.923  31.349  13.163
79507W        W51822  12.429  19.500   1.735
79508W        W51823  20.198   8.658  12.917
79509W        W51824  25.958  24.782  13.531
79510W        W51825   6.934  36.520   2.170
79511W        W51826  36.808  33.481  14.499
79512W        W51827  18.594  37.392  12.572
79513W        W51828  24.721   6.892  13.828
79514W        W51829  34.030  15.536  14.408
79515W        W51830  40.833  34.024   0.516
79516W        W51831  29.008   1.930  13.299
79517W        W51832  29.367  44.630   3.155
79518W        W51833  32.093  14.251   0.017
79519W        W51834  32.094  33.394   4.635
79520W        W51835  30.057  33.307   3.928
79521W        W51836  25.776   5.859   3.339
79522W        W51837  44.980   0.635   0.452
79523W        W51838  22.279   7.239   1.993
79524W        W51839  25.961  24.646  14.459
79525W        W51840   8.278  20.358  13.677
79526W        W51841  18.358  10.719   0.440
79527W        W51842   9.818  42.216   2.405
79528W        W51843  26.099   9.400  13.398
79529W        W51844  20.509  42.551   0.710
79530W        W51845  44.412  10.264   1.031
79531W        W51846  44.974   7.380  11.148
79532W        W51847  16.563  39.380  12.117
79533W        W51848  14.144   6.320  13.804
79534W        W51849  25.617   4.485  13.977
79535W        W51850  24.512   1.974   3.544
79536W        W51851  38.410  39.386  13.463
79537W        W51852  38.842  36.211  10.717
79538W        W51853   3.707   8.705   3.737
79539W        W51854   7.199  41.753  11.238
79540W        W51855   8.148   7.857  12.549
79541W        W51856  18.322  28.718   1.876
79542W        W51857  32.886  42.015   1.557
79543W        W51858  11.914  43.755  13.953
79544W        W51859  17.293  31.947   3.747
79545W        W51860   0.883  44.394   1.925
79546W        W51861  16.638   4.727   3.796
79547W        W51862  39.020  20.859  10.373
79548W        W51863  31.606   6.683  14.006
79549W        W51864  12.161   5.247  14.324
79550W        W51865  14.716  13.694   1.825
79551W        W51866   1.245   7.808   2.563
79552W        W51867  44.368  33.767  10.993
79553W        W51868   0.936  20.260  11.367
79554W        W51869  33.831   6.621  12.454
79555W        W51870  22.618  26.643   0.403
79556W        W51871  20.069  41.644  11.617
79557W        W51872  38.523  30.683   4.429
79558W        W51873   4.195  15.078   4.526
79559W        W51874  33.089  36.930  13.851
79560W        W51875  34.124  11.542   0.936
79561W        W51876  33.320  11.401   1.327
79562W        W51877  24.546  24.206   0.808
79563W        W51878  28.574  40.005  14.385
79564W        W51879  35.066   4.228  10.605
79565W        W51880  17.624   5.321  13.706
79566W        W51881  39.310  17.853  10.638
79567W        W51882   8.693  18.449  11.488
79568W        W51883   3.284   6.236  11.706
79569W        W51884  42.956  23.925  10.661
79570W        W51885  18.618  28.299  10.724
79571W        W51886  34.309   2.180  14.535
79572W        W51887  29.521  29.581  11.689
79573W        W51888  19.675   4.974   3.300
79574W        W51889   8.190  26.021  11.613
79575W        W51890  32.444  29.851   2.752
79576W        W51891  43.356  18.794   2.250
79577W        W51892  32.048  29.206   1.627
79578W        W51893  29.154  18.680  13.925
79579W        W51894  18.921   8.741   4.190
79580W        W51895  32.427  33.689   1.306
79581W        W51896  13.702  44.864  14.559
79582W        W51897  42.370  20.516   0.680
79583W        W51898  14.152  20.508   0.316
79584W        W51899  10.261  35.115   0.343
79585W        W51900   5.476  25.925  10.539
79586W        W51901   9.770   9.137   1.706
79587W        W51902   2.180  25.131  10.247
79588W        W51903  30.625  30.811  13.417
79589W        W51904  44.984  23.812  12.097
79590W        W51905  22.706   1.553   4.310
79591W        W51906  40.318  40.531   2.703
79592W        W51907  27.185   9.872   4.079
79593W        W51908  28.386  15.803  10.695
79594W        W51909   4.182  10.465  14.478
79595W        W51910  12.838  30.025   4.349
79596W        W51911  44.001  26.505  14.494
79597W        W51912  44.353  10.179  13.757
79598W        W51913  20.156  28.169  12.083
79599W        W51914  16.301  26.550   0.459
79600W        W51915  19.149  27.345   0.888
79601W        W51916  32.851  14.645   3.857
79602W        W51917  10.910  44.427  11.541
79603W        W51918  26.217  30.858   0.500
79604W        W51919  15.402  19.893  14.090
79605W        W51920  38.877  25.733   3.244
79606W        W51921  44.579  41.424   0.207
79607W        W51922  33.425   4.357   3.381
79608W        W51923   3.179  27.617  11.491
79609W        W51924  23.093  43.336  13.687
79610W        W51925  24.053  22.799  14.989
79611W        W51926  24.977  19.574  12.796
79612W        W51927  32.166  23.775   4.140
79613W        W51928  38.162  37.582   2.841
79614W        W51929  23.444  42.820   1.404
79615W        W51930   8.421  28.947   2.401
79616W        W51931  40.566  29.982   0.752
79617W        W51932  15.894   1.535   3.208
79618W        W51933   8.274  32.924  11.930
79619W        W51934  15.497  28.452  13.402
79620W        W51935  42.324  25.586   4.818
79621W        W51936  44.176  18.691   0.306
79622W        W51937  12.041  24.176  12.332
79623W        W51938  42.893   2.855  14.140
79624W        W51939  16.318   3.357  11.661
79625W        W51940  41.815  43.499   2.414
79626W        W51941   7.694  31.924   1.963
79627W        W51942  19.179   7.455   4.898
79628W        W51943  28.176  18.283  11.331
79629W        W51944  30.034  21.511  11.540
79630W        W51945  19.292  28.709  13.453
79631W        W51946  37.436   3.862  13.880
79632W        W51947  39.245  41.523   0.415
79633W        W51948   9.319  42.879   3.149
79634W        W51949  36.924  30.718   1.829
79635W        W51950  11.621  25.534   0.331
79636W        W51951   3.966  39.805   4.092
79637W        W51952  38.959  37.686  14.168
79638W        W51953  43.178  21.645   0.711
79639W        W51954   5.345  16.055   0.288
79640W        W51955  39.809  31.534  14.968
79641W        W51956  39.520  32.792   3.250
79642W        W51957   3.734  16.502   3.321
79643W        W51958  43.618  29.192   0.301
79644W        W51959   9.933   3.606   4.097
79645W        W51960  29.503  15.350   2.222
79646W        W51961   3.772   0.101   4.060
79647W        W51962  38.959  28.599   1.184
79648W        W51963  30.418  32.155  12.870
79649W        W51964  35.230  40.786   0.580
79650W        W51965  12.835  27.022   5.268
79651W        W51966  38.277   4.480   1.339
79652W        W51967  29.437  22.892   2.779
79653W        W51968  37.386   2.079   2.448
79654W        W51969   9.312  25.145   4.689
79655W        W51970  40.233  17.715  10.764
79656W        W51971  23.802   0.032  12.506
79657W        W51972  36.434  23.270  12.053
79658W        W51973  30.670  31.546  14.950
79659W        W51974  42.397  10.746   3.039
79660W        W51975   1.808   2.501   1.017
79661W        W51976  38.369  34.366  14.884
79662W        W51977  40.725   8.176  11.315
79663W        W51978  18.282  11.674   0.369
79664W        W51979  16.072  41.901   3.824
79665W        W51980  41.332  27.892  14.998
79666W        W51981  22.925   2.673   2.684
79667W        W51982  15.517  27.080   0.327
79668W        W51983  24.071  15.807  14.337
79669W        W51984  33.520  34.623  14.878
79670W        W51985   3.047  43.409   3.292
79671W        W51986  27.710   7.392  14.509
79672W        W51987   8.349  22.616   0.360
79673W        W51988  25.790   0.046   3.168
79674W        W51989   1.512  29.430   1.354
79675W        W51990  27.118  14.040  12.017
79676W        W51991   2.733  17.808  13.493
79677W        W51992  21.251  21.681   0.588
79678W        W51993  26.750   1.682   3.168
79679W        W51994  11.144  39.889  12.921
79680W        W51995  17.628   1.668   3.526
79681W        W51996  14.873  29.109   1.739
79682W        W51997  29.876  40.530  13.086
79683W        W51998  11.177   7.795   3.896
79684W        W51999   2.033   1.591  11.894
79685W        W52000  14.603  38.102   4.141
79686W        W52001  38.274  35.218   0.840
79687W        W52002   3.145  41.206  11.685
79688W        W52003  18.444  30.689  11.498
79689W        W52004   5.377  11.085   1.335
79690W        W52005  18.559  15.671  14.835
79691W        W52006   3.250  42.276  12.942
79692W        W52007  27.375   8.061   1.928
79693W        W52008  20.566   7.648   2.814
79694W        W52009  20.243  14.277  14.818
79695W        W52010  28.023  16.033   9.775
79696W        W52011  31.597  21.892  12.499
79697W        W52012   3.453  13.159   5.027
79698W        W52013   1.115  23.012  11.487
79699W        W52014   5.845  31.582  12.989
79700W        W52015  32.986  32.951   0.928
79701W        W52016  44.470  37.327   1.242
79702W        W52017  31.357  14.859   0.090
79703W        W52018  42.316  16.675   4.662
79704W        W52019   0.954  44.782   3.734
79705W        W52020  42.411  35.607  10.961
79706W        W52021  31.008  37.861   3.162
79707W        W52022  30.963  19.899   4.140
79708W        W52023  18.830  11.370   3.212
79709W        W52024  33.452  42.481   2.799
79710W        W52025  13.417  18.818  10.094
79711W        W52026  41.509  11.409   3.203
79712W        W52027  36.633  25.324  11.818
79713W        W52028  33.112   0.531  13.164
79714W        W52029  18.608  22.443  13.017
79715W        W52030  38.083  16.907  12.520
79716W        W52031   7.249  16.750  11.171
79717W        W52032  23.370  33.825  10.776
79718W        W52033  41.005  44.400  11.383
79719W        W52034  30.161  35.864   4.428
79720W        W52035  40.188  11.696   4.059
79721W        W52036  38.379  34.585   4.603
79722W        W52037  29.085  17.082   0.413
79723W        W52038  35.330  10.798   0.909
79724W        W52039  33.960  14.095   3.507
79725W        W52040  39.734  27.685  10.812
79726W        W52041  36.401  27.183   0.905
79727W        W52042  11.794  19.594   1.869
79728W        W52043  44.927   4.961  14.543
79729W        W52044  38.763   0.029  11.729
79730W        W52045   9.063  23.562   2.685
79731W        W52046  30.957  10.982   1.767
79732W        W52047  14.143  16.819  11.296
79733W        W52048  14.138  44.990  10.391
79734W        W52049   8.268  20.318   3.065
79735W        W52050   8.402  31.360   0.263
79736W        W52051  26.600  43.401  12.111
79737W        W52052  40.850  39.917  11.881
79738W        W52053  29.061  13.794   4.136
79739W        W52054  21.559  22.277  11.834
79740W        W52055  39.047   5.977   1.349
79741W        W52056   2.871  36.910   3.421
79742W        W52057  26.956  28.734  13.303
79743W        W52058  34.298  40.984   4.664
79744W        W52059   7.711  29.587   1.188
79745W        W52060  15.432  31.430   0.345
79746W        W52061   0.808  30.202  10.597
79747W        W52062  14.747   4.879  13.275
79748W        W52063  29.719  44.442   4.043
79749W        W52064   4.066  39.953   2.847
79750W        W52065   1.360  34.407  13.940
79751W        W52066  30.884  13.344  13.047
79752W        W52067  30.586  16.373   1.280
79753W        W52068  25.493  35.299   3.614
79754W        W52069  37.086  42.634  14.434
79755W        W52070  12.888  16.959   4.018
79756W        W52071   9.886  42.742   1.735
79757W        W52072  24.976  35.265  11.185
79758W        W52073  40.604  26.551  11.569
79759W        W52074  14.310   3.153  11.138
79760W        W52075   5.156  43.394   2.229
79761W        W52076  20.057  14.091  11.235
79762W        W52077  21.504   2.421  14.773
79763W        W52078  30.453   1.920   4.254
79764W        W52079  20.032   7.530   0.780
79765W        W52080  25.807  29.421   4.301
79766W        W52081  42.831  16.123   1.365
79767W        W52082  26.668  36.548  13.867
79768W        W52083  18.753  36.354   4.227
79769W        W52084  44.838   8.285  10.665
79770W        W52085  29.075   6.263   3.813
79771W        W52086   6.826   9.276   3.391
79772W        W52087   7.007  14.440   1.721
79773W        W52088   5.711  39.551  10.541
79774W        W52089  38.383  21.134   1.657
79775W        W52090   4.732  40.408  14.851
79776W        W52091  18.120  20.042  10.902
79777W        W52092  19.663  27.129  14.498
79778W        W52093  31.718   8.267   2.694
79779W        W52094   7.719   9.152  11.224
79780W        W52095  36.402  32.507  12.549
79781W        W52096   0.237  29.994  14.395
79782W        W52097  24.034  24.616   2.138
79783W        W52098   3.402   0.450  14.376
79784W        W52099   4.800  20.463   2.061
79785W        W52100  44.782  13.313  13.369
79786W        W52101   1.128  19.170  11.572
79787W        W52102  36.856   0.419   0.804
79788W        W52103  36.558  32.086   2.713
79789W        W52104  33.170  17.749  12.885
79790W        W52105   0.175  32.103  14.681
79791W        W52106  38.441  43.967   2.739
79792W        W52107  15.764  16.050  11.989
79793W        W52108  43.812  43.041  14.016
79794W        W52109  12.307  35.167  11.950
79795W        W52110  43.444  39.831   4.407
79796W        W52111   9.273  33.002  11.447
79797W        W52112   4.804  38.288   3.409
79798W        W52113  16.744   2.738   2.551
79799W        W52114   2.113  13.698   4.402
79800W        W52115   4.586  44.736   3.251
79801W        W52116  26.208  29.724   4.283
79802W        W52117  20.138   7.902   1.779
79803W        W52118  31.028  29.586   4.456
79804W        W52119  16.622  26.179  11.418
79805W        W52120  42.961  37.390   1.340
79806W        W52121  11.836  15.529  11.904
79807W        W52122   5.307   5.672   2.267
79808W        W52123  19.025  44.257  10.101
79809W        W52124   9.193   5.200   3.695
79810W        W52125  24.232   6.772  13.664
79811W        W52126   1.504  10.871  13.924
79812W        W52127  20.022  40.603   4.658
79813W        W52128  34.710   7.948  10.994
79814W        W52129  38.903  18.331   0.013
79815W        W52130  11.760  30.595   0.720
79816W        W52131  20.689  21.964  13.862
79817W        W52132  38.006   7.052  12.398
79818W        W52133  29.121  29.092  12.211
79819W        W52134  12.340  42.305  13.403
79820W        W52135   3.331  40.593   1.232
79821W        W52136   7.460  33.164  11.539
79822W        W52137  43.867  16.798   1.683
79823W        W52138  28.815  41.726   2.755
79824W        W52139  20.704  38.328  11.738
79825W        W52140  40.790   1.867   0.451
79826W        W52141  17.248  41.813   0.871
79827W        W52142   1.264   6.655  11.140
79828W        W52143  25.035  27.003  14.233
79829W        W52144  16.574  13.701   2.790
79830W        W52145   9.199  13.560   2.669
79831W        W52146  37.614  18.228  10.601
79832W        W52147  43.593  33.295  10.076
79833W        W52148  35.158   4.952   0.048
79834W        W52149   5.033  18.274   1.693
79835W        W52150  35.456  10.652   1.705
79836W        W52151  40.557  25.090   0.276
79837W        W52152   8.810  40.865   0.027
79838W        W52153   4.141  13.682   2.860
79839W        W52154   1.743  34.089   4.200
79840W        W52155   0.982  43.518   0.459
79841W        W52156  34.443  38.591  14.329
79842W        W52157  42.463  32.842   0.889
79843W        W52158  31.647  11.242   1.519
79844W        W52159   8.505  21.776   1.881
79845W        W52160  28.411   0.039  12.367
79846W        W52161  16.092  13.126   0.476
79847W        W52162  25.396  31.621  14.872
79848W        W52163  41.530  16.211  14.367
79849W        W52164  15.409  36.700  11.214
79850W        W52165  19.011  38.367   5.459
79851W        W52166  30.162   1.507  13.129
79852W        W52167  10.839   7.602  11.662
79853W        W52168  23.375  40.324  11.686
79854W        W52169  14.669  21.589  12.174
79855W        W52170   1.774   1.190   3.183
79856W        W52171   6.156  42.884  10.269
79857W        W52172   2.064  27.632  12.037
79858W        W52173  15.385  40.803   3.649
79859W        W52174  23.293  35.920   2.686
79860W        W52175  31.675  18.609  11.940
79861W        W52176  41.797  29.169  14.866
79862W        W52177  44.700  38.023   3.384
79863W        W52178  14.664  37.576  14.341
79864W        W52179  30.239   0.983  11.998
79865W        W52180  31.362  14.675   2.094
79866W        W52181  34.098  42.898   1.292
79867W        W52182   2.855  35.944  13.594
79868W        W52183  27.292  35.060  14.510
79869W        W52184  37.891  30.064   2.923
79870W        W52185   0.734  24.482  11.963
79871W        W52186  29.046  40.730  13.409
79872W        W52187  36.472  42.379   4.576
79873W        W52188  43.224  43.858  10.754
79874W        W52189  16.097  22.718  10.922
79875W        W52190  10.635  35.596  12.995
79876W        W52191  40.820   8.278   0.234
79877W        W52192  17.259  38.402   3.254
79878W        W52193  28.286  40.028  11.265
79879W        W52194   7.221   4.321  14.732
79880W        W52195  36.329   9.716   3.728
79881W        W52196  34.510   2.503  12.862
79882W        W52197  42.593  30.227   0.020
79883W        W52198   4.160  21.757  11.423
79884W        W52199   5.882  28.263  14.442
79885W        W52200  11.279  11.210  13.948
79886W        W52201   2.406  41.859  10.718
79887W        W52202   0.954  40.472  13.030
79888W        W52203  12.029  21.776  13.929
79889W        W52204  10.351   8.375   4.553
79890W        W52205  23.322  26.991  10.592
79891W        W52206  34.899   7.930   2.792
79892W        W52207  44.865  16.332   1.337
79893W        W52208   8.955  35.395  14.128
79894W        W52209  25.747  44.869   4.909
79895W        W52210  29.466  36.446  11.478
79896W        W52211  22.686  39.153   1.662
79897W        W52212  42.562  10.865  10.690
79898W        W52213  10.070  33.035  14.253
79899W        W52214  33.649  18.616   3.703
79900W        W52215  22.694  18.777   5.076
79901W        W52216  40.286  31.985   1.212
79902W        W52217  17.813  21.268  13.752
79903W        W52218  44.202  31.823   3.552
79904W        W52219  17.448  22.297   2.305
79905W        W52220  26.914  35.388   2.136
79906W        W52221  40.562  34.556   2.273
79907W        W52222  14.630  43.089   3.614
79908W        W52223  13.205  21.590  11.618
79909W        W52224  38.497  35.809   2.139
79910W        W52225  33.586  26.107   2.116
79911W        W52226  27.473   9.547  11.463
79912W        W52227   0.288  10.943  12.780
79913W        W52228  12.646  31.421   4.655
79914W        W52229  38.960  30.640   3.632
79915W        W52230   9.548  25.725   3.453
79916W        W52231  10.350  14.883   1.683
79917W        W52232  11.192  11.117   3.302
79918W        W52233   0.169  44.541   2.665
79919W        W52234  20.783  31.485  12.821
79920W        W52235  21.117  43.565   4.645
79921W        W52236  33.004  15.733  10.737
79922W        W52237  13.217  37.381   1.356
79923W        W52238  18.235  44.082   3.201
79924W        W52239   4.484  12.200   0.900
79925W        W52240   0.875  17.799   3.599
79926W        W52241  11.949  24.018  10.321
79927W        W52242  22.808  36.874   1.867
79928W        W52243  37.829  39.072   4.682
79929W        W52244  28.471  40.442   0.299
79930W        W52245  36.067  33.557  12.544
79931W        W52246  22.502  11.356   3.583
79932W        W52247   0.496  18.005  12.166
79933W        W52248  17.400  32.497   2.458
79934W        W52249  15.269  10.398  13.482
79935W        W52250  38.068  40.573  11.568
79936W        W52251  15.642  42.934   4.666
79937W        W52252  25.868   3.083   5.165
79938W        W52253  28.929  28.385   3.722
79939W        W52254   1.465  15.236  11.560
79940W        W52255  12.217  44.019   0.020
79941W        W52256  17.158  22.505   0.571
79942W        W52257  11.404  44.795  12.820
79943W        W52258  32.537  14.980   3.626
79944W        W52259   9.547   3.843  10.366
79945W        W52260  44.423  35.259  13.489
79946W        W52261  34.939  27.009  13.355
79947W        W52262   2.919  20.980   3.775
79948W        W52263   1.164  21.826   3.670
79949W        W52264  34.825  36.012   0.118
79950W        W52265  10.215  30.143   3.177
79951W        W52266  12.409  22.377   1.059
79952W        W52267  40.966   8.142  13.378
79953W        W52268  24.908  16.173  13.959
79954W        W52269  32.196  17.211  11.610
79955W        W52270  23.105   5.694   0.050
79956W        W52271   8.679  32.037  13.967
79957W        W52272  22.095   1.909  14.964
79958W        W52273  21.567   4.952  12.047
79959W        W52274  25.134   9.755  13.405
79960W        W52275  23.147   6.450  13.741
79961W        W52276  25.689   6.279   0.276
79962W        W52277   6.442  20.019   1.450
79963W        W52278  29.222  38.791   0.232
79964W        W52279   3.711   5.432   1.774
79965W        W52280   9.431  20.746  11.535
79966W        W52281  23.506  28.058  13.239
79967W        W52282  10.560  30.598   0.203
79968W        W52283  14.794  11.379   2.227
79969W        W52284   9.376   6.906   1.506
79970W        W52285  12.031  37.445   0.425
79971W        W52286  25.217  11.775   1.378
79972W        W52287  14.693  32.411   1.479
79973W        W52288  10.728  37.538   4.040
79974W        W52289   2.940   4.056   4.198
79975W        W52290   1.416   9.754   3.699
79976W        W52291  37.913   5.622   3.706
79977W        W52292   9.876   2.054   0.830
79978W        W52293  29.450  30.411  12.518
79979W        W52294  26.691  11.302  11.009
79980W        W52295   3.984  27.721   0.389
79981W        W52296  28.448  36.831  13.641
79982W        W52297   9.611  11.223   4.795
79983W        W52298   4.837   0.326   0.349
79984W        W52299  30.456  37.541  12.764
79985W        W52300  12.890  14.039   4.229
79986W        W52301   2.348  23.723   2.824
79987W        W52302   9.997  23.408  13.694
79988W        W52303   0.436  16.864   4.331
79989W        W52304   1.976  10.162   0.341
79990W        W52305   8.779  14.206   1.611
79991W        W52306  37.540   3.734  13.352
79992W        W52307  24.626   4.482   4.192
79993W        W52308  35.982  12.342  12.418
79994W        W52309  39.541  38.944   4.829
79995W        W52310  25.136  11.294   4.269
79996W        W52311  25.088  29.905  14.536
79997W        W52312  36.979  37.820   3.371
79998W        W52313  41.248  23.567   4.584
79999W        W52314  35.087  36.878  11.140
80000W        W52315  19.213  10.454   0.420
80001W        W52316   9.698  32.686   1.297
80002W        W52317  35.091   4.960  11.024
80003W        W52318  29.892  22.789  11.134
80004W        W52319   1.226  35.585  13.321
80005W        W52320  33.164  42.973  10.583
80006W        W52321  22.097  22.327  12.866
80007W        W52322  20.278   8.200   4.312
80008W        W52323  15.646  25.171   1.845
80009W        W52324  41.588   4.863  14.931
80010W        W52325  41.598  13.769  14.051
80011W        W52326   8.039  23.169   1.126
80012W        W52327  27.367   3.468  14.591
80013W        W52328   8.324  33.044   1.027
80014W        W52329   8.409  23.412  10.483
80015W        W52330   6.531  43.730   0.110
80016W        W52331  16.809  33.151  14.686
80017W        W52332   8.828  41.356  13.879
80018W        W52333  27.717   3.618   3.305
80019W        W52334   8.521  22.703  14.886
80020W        W52335  29.059  36.911   3.568
80021W        W52336  29.680  18.731  13.968
80022W        W52337  28.140  30.856   3.804
80023W        W52338  42.573   0.799  10.968
80024W        W52339  12.180  24.738  14.698
80025W        W52340  39.578  11.593  13.049
80026W        W52341  17.413   6.948  14.850
80027W        W52342  40.851  39.019   3.602
80028W        W52343  28.618  16.041  12.353
80029W        W52344  26.591  29.019  10.945
80030W        W52345  20.225  44.546   3.683
80031W        W52346  26.299  32.109  10.233
80032W        W52347   8.740  34.699   1.202
80033W        W52348   8.735  16.705  10.608
80034W        W52349  25.633   1.803  13.012
80035W        W52350  19.546  12.040  13.108
80036W        W52351   1.945  39.052  11.243
80037W        W52352  35.438  36.721   3.208
80038W        W52353  24.139  31.388  11.193
80039W        W52354  16.981  37.516  11.221
80040W        W52355   8.816   9.662  12.353
80041W        W52356  16.222  40.346   4.683
80042W        W52357  34.176  39.273   4.033
80043W        W52358  37.668  41.536   1.792
80044W        W52359  21.395  24.570  14.437
80045W        W52360  21.230  13.538  13.821
80046W        W52361  21.523  28.748  12.551
80047W        W52362  10.823  12.227  11.432
80048W        W52363   5.333  36.031  12.592
80049W        W52364   5.449  29.172  13.890
80050W        W52365  38.469  13.065   3.708
80051W        W52366  41.753   5.900   4.037
80052W        W52367   1.367  32.716   3.871
80053W        W52368  26.162  23.080  11.056
80054W        W52369  32.509  12.723   4.478
80055W        W52370   4.800  30.903  13.045
80056W        W52371  26.653  16.397  14.831
80057W        W52372  12.223  31.448   4.318
80058W        W52373  43.507   2.107  11.636
80059W        W52374  22.778  43.654  13.346
80060W        W52375   8.196  15.029  12.778
80061W        W52376  25.961   6.359  14.828
80062W        W52377  22.460  12.057  12.510
80063W        W52378  21.952  18.207   2.204
80064W        W52379   1.706  12.645  12.024
80065W        W52380  31.755  31.149   0.320
80066W        W52381  44.356  44.865  14.528
80067W        W52382  12.141  19.667   3.738
80068W        W52383  37.980   8.950  13.666
80069W        W52384   2.195  44.913  14.570
80070W        W52385  30.053  18.523  13.060
80071W        W52386   8.293  11.662   3.164
80072W        W52387   3.412  28.747   3.786
80073W        W52388  22.001  15.620   1.747
80074W        W52389  42.833   3.699   0.795
80075W        W52390  14.282  22.820  14.607
80076W        W52391   6.342  14.345  10.890
80077W        W52392  10.111  24.542  11.536
80078W        W52393   0.244  25.605   2.227
80079W        W52394  42.761  28.680   2.875
80080W        W52395  18.737  24.622  12.113
80081W        W52396  39.150  32.682   2.334
80082W        W52397   1.351  41.473   0.260
80083W        W52398  25.641  18.106   0.342
80084W        W52399  34.890  28.471  13.945
80085W        W52400   0.020  31.637  12.050
80086W        W52401   1.379  12.635   4.552
80087W        W52402  32.318  40.358   5.180
80088W        W52403   6.344  11.199   0.394
80089W        W52404  19.094  41.510   4.324
80090W        W52405  43.503  11.120  12.545
80091W        W52406  38.491  39.287  12.007
80092W        W52407  33.598  10.223   0.685
80093W        W52408  38.777   4.790   3.090
80094W        W52409  33.415  16.674   2.179
80095W        W52410  15.847  31.449  13.054
80096W        W52411  23.847   8.008   4.531
80097W        W52412  16.826  21.983   3.120
80098W        W52413  13.647  25.234   2.697
80099W        W52414  20.565   0.711  10.737
80100W        W52415   9.357  25.686   2.405
80101W        W52416  33.652  10.315  12.571
80102W        W52417  27.124  34.986   3.299
80103W        W52418  36.429  33.471   4.899
80104W        W52419  19.310  10.585  14.912
80105W        W52420  36.859   3.467   1.941
80106W        W52421  33.032   3.863   0.956
80107W        W52422  27.461   6.737   0.692
80108W        W52423  37.816  32.094   2.281
80109W        W52424  11.229  27.946   3.692
80110W        W52425   3.286   5.504  10.533
80111W        W52426  12.803  22.122  14.841
80112W        W52427  32.167   9.870  13.510
80113W        W52428  12.627  38.420   3.780
80114W        W52429  10.810  16.050  13.958
80115W        W52430  22.588   7.700   4.150
80116W        W52431  33.332  44.809  14.862
80117W        W52432  38.738  41.006  13.793
80118W        W52433   3.635  13.607   2.789
80119W        W52434   4.481  15.839  14.059
80120W        W52435   7.200  14.094  12.055
80121W        W52436   2.487  40.354  12.962
80122W        W52437  32.374  33.858  14.728
80123W        W52438  27.663  29.999   3.376
80124W        W52439  19.841  20.273  14.064
80125W        W52440  19.205  25.802  12.319
80126W        W52441  28.032  42.751  13.401
80127W        W52442  35.721  18.174   3.888
80128W        W52443  25.997  27.565   0.004
80129W        W52444  44.939  10.200   4.734
80130W        W52445   4.661  20.578  14.212
80131W        W52446  10.043  22.278   3.262
80132W        W52447  31.851  40.945  10.660
80133W        W52448   0.267  43.490  11.612
80134W        W52449  14.083  18.049   1.008
80135W        W52450  33.557  42.786  13.023
80136W        W52451  23.504   1.785  14.959
80137W        W52452  37.359   7.605  11.117
80138W        W52453  12.651  26.493   4.625
80139W        W52454  42.396  11.708   3.086
80140W        W52455  29.555  43.459  11.950
80141W        W52456   3.402   1.397   3.770
80142W        W52457  10.188   2.476  14.054
80143W        W52458  25.077  24.195   1.300
80144W        W52459  18.771  29.046  10.212
80145W        W52460   9.261  36.012  10.783
80146W        W52461  19.179  40.348  13.693
80147W        W52462   1.621  34.912  12.003
80148W        W52463  13.752  30.555   1.240
80149W        W52464  30.916   2.643  12.396
80150W        W52465   2.208  20.347   0.410
80151W        W52466  38.584  17.172  14.255
80152W        W52467  23.781   9.851  13.536
80153W        W52468  14.498  32.847  11.618
80154W        W52469   9.344  14.811   0.610
80155W        W52470  30.077  36.953  11.503
80156W        W52471  11.725  35.587  11.224
80157W        W52472  40.637   8.887   1.357
80158W        W52473  26.896  33.539   2.281
80159W        W52474   9.371  34.369  13.066
80160W        W52475  31.869  13.270   2.838
80161W        W52476  34.417   7.944  12.571
80162W        W52477  35.069  34.116   4.687
80163W        W52478  33.912  13.202  14.072
80164W        W52479  36.617   0.941   1.677
80165W        W52480  18.594  34.573   2.615
80166W        W52481  20.296  27.974   1.741
80167W        W52482  10.945  37.488  14.392
80168W        W52483  39.746  27.116  12.828
80169W        W52484  33.098  13.753  11.380
80170W        W52485   5.572  24.541  13.220
80171W        W52486   8.881  17.743   3.171
80172W        W52487  33.523  11.969   4.492
80173W        W52488   1.466  33.152  13.287
80174W        W52489   3.532  16.834  11.083
80175W        W52490   3.143   9.350   2.193
80176W        W52491   5.204  36.364   2.344
80177W        W52492  26.156  39.888  10.297
80178W        W52493  29.752  34.401   2.764
80179W        W52494  27.267  32.446  10.072
80180W        W52495  35.839   6.272   3.206
80181W        W52496  33.087  10.386  12.956
80182W        W52497   8.801  44.055   2.602
80183W        W52498  32.138   6.349   1.211
80184W        W52499  32.567  28.506  14.293
80185W        W52500   7.280   3.406   4.392
80186W        W52501  40.971   3.906   0.230
80187W        W52502  11.703  29.064  14.228
80188W        W52503  25.977   4.639   5.084
80189W        W52504  28.998  31.414  10.703
80190W        W52505   7.127   7.017  13.285
80191W        W52506  20.164  14.378   2.847
80192W        W52507  27.804   7.483   0.041
80193W        W52508  36.140  26.059  12.387
80194W        W52509   3.394  15.244  14.317
80195W        W52510  35.429   0.664  11.442
80196W        W52511  23.738  37.189   4.764
80197W        W52512  29.119  31.232   1.346
80198W        W52513  33.989  29.484  13.841
80199W        W52514  15.246  17.142   3.644
80200W        W52515  20.700  23.485  13.107
80201W        W52516  44.254  30.007   0.448
80202W        W52517  19.743  20.993  11.691
80203W        W52518  37.286  23.418  11.741
80204W        W52519  27.236  31.952  14.772
80205W        W52520   1.954   0.083   1.313
80206W        W52521  12.617  21.965   4.689
80207W        W52522   1.484  16.193   0.523
80208W        W52523  24.212  11.597   2.354
80209W        W52524   3.481  39.067   0.447
80210W        W52525   6.403  32.025   3.611
80211W        W52526  12.479  37.564  10.990
80212W        W52527   4.199  31.520  13.371
80213W        W52528  31.507  32.445  12.594
80214W        W52529  44.322  34.003   1.977
80215W        W52530  31.897  35.552   0.868
80216W        W52531  19.217   7.100  13.629
80217W        W52532  18.011  12.138   0.380
80218W        W52533  41.375  22.213   4.296
80219W        W52534  36.563  22.225  13.846
80220W        W52535   5.639  30.487   3.222
80221W        W52536  31.350  21.469   0.248
80222W        W52537  31.790   9.754   2.014
80223W        W52538  38.855   6.838  14.816
80224W        W52539  32.510  10.656  10.420
80225W        W52540   1.079  33.003  13.619
80226W        W52541  27.623  10.994  12.101
80227W        W52542  13.330  41.325   0.731
80228W        W52543   7.725  23.562   3.911
80229W        W52544  10.203  29.945   4.129
80230W        W52545  33.506  39.084   0.906
80231W        W52546   4.695   8.164   3.206
80232W        W52547  27.030  33.388   1.775
80233W        W52548  37.734   9.372  11.218
80234W        W52549  18.580   0.430  11.865
80235W        W52550  27.902  18.685  11.575
80236W        W52551  43.967  38.978  10.098
80237W        W52552  41.854  38.068   1.224
80238W        W52553  25.598  15.152   0.420
80239W        W52554   0.418   2.899   3.643
80240W        W52555  39.038  23.602   9.771
80241W        W52556  36.041   2.384  13.387
80242W        W52557   4.371  38.012  13.971
80243W        W52558   0.062  13.365  12.379
80244W        W52559   1.498   4.667  13.791
80245W        W52560   5.912  19.332  14.289
80246W        W52561  42.404  32.920  11.177
80247W        W52562  28.129  23.746   4.368
80248W        W52563  12.453   9.744   0.088
80249W        W52564  41.327  32.423   1.870
80250W        W52565   8.655  28.589   3.225
80251W        W52566  24.777   1.450  11.064
80252W        W52567  43.909  32.530  11.124
80253W        W52568  16.796  26.730   0.445
80254W        W52569   1.428  28.683  14.867
80255W        W52570  38.435  11.894  14.483
80256W        W52571   0.336  44.032   2.788
80257W        W52572  23.274  16.440   4.151
80258W        W52573  28.655  19.209   0.710
80259W        W52574  38.982  15.180   3.547
80260W        W52575  14.914   4.627  12.357
80261W        W52576  20.073   4.244  13.866
80262W        W52577  33.091   3.878  11.956
80263W        W52578  25.967  22.789   0.844
80264W        W52579  19.747   3.934  11.235
80265W        W52580  39.503  36.811   2.354
80266W        W52581  44.453  15.703   5.099
80267W        W52582  35.470  26.791   3.242
80268W        W52583   7.415  26.090   0.731
80269W        W52584  10.915  21.112  11.590
80270W        W52585  28.385   5.850  14.124
80271W        W52586  18.317  38.618  12.336
80272W        W52587  32.061  43.766   3.376
80273W        W52588  16.313   7.122   4.526
80274W        W52589  35.851  35.075   0.709
80275W        W52590  44.819  42.921  13.208
80276W        W52591  43.271  11.949  12.153
80277W        W52592  25.178  10.409   0.482
80278W        W52593   6.220  35.188  12.563
80279W        W52594   7.383  18.352   2.654
80280W        W52595  23.162  12.204  10.782
80281W        W52596   0.748  44.767  14.796
80282W        W52597  20.176  13.311   1.308
80283W        W52598  12.449   2.918   2.108
80284W        W52599  27.151   8.748   1.374
80285W        W52600  41.509  16.091   2.674
80286W        W52601  34.961  24.159   5.066
80287W        W52602  20.456  43.774  11.043
80288W        W52603  29.945  13.689  11.708
80289W        W52604  41.790  30.027   4.265
80290W        W52605  34.586  10.613   3.720
80291W        W52606  21.233  44.415  12.953
80292W        W52607   0.192  19.106   4.628
80293W        W52608  19.686  33.370  14.364
80294W        W52609  17.114  11.891   2.717
80295W        W52610  32.433   9.225  12.067
80296W        W52611  35.791  30.135  13.422
80297W        W52612   8.299   3.996   4.603
80298W        W52613  33.321   2.134   1.440
80299W        W52614  40.458  33.355  12.472
80300W        W52615   3.864  33.802   2.137
80301W        W52616  33.588  41.261  11.146
80302W        W52617  13.153   8.633   4.463
80303W        W52618  36.516   5.285  14.716
80304W        W52619  37.853  33.972   4.212
80305W        W52620   2.954  10.436  13.828
80306W        W52621  38.075  33.431  12.679
80307W        W52622  17.895  39.055   4.129
80308W        W52623   0.756  31.859   4.239
80309W        W52624  39.484  38.024   4.930
80310W        W52625  25.879  23.723   2.754
80311W        W52626  34.958   8.777   2.909
80312W        W52627  30.008   4.402   3.369
80313W        W52628  38.352  41.861  12.944
80314W        W52629  21.705  41.325   2.316
80315W        W52630  14.703  41.836  13.598
80316W        W52631   7.882  42.391   0.197
80317W        W52632  14.008  20.961  12.622
80318W        W52633  25.065   5.894  11.610
80319W        W52634  21.655  23.577   0.954
80320W        W52635  42.968  35.604   1.832
80321W        W52636   2.347  19.522  14.226
80322W        W52637  44.952  34.915   1.309
80323W        W52638  36.874  39.600  13.872
80324W        W52639  37.893   5.260  10.410
80325W        W52640  44.003  44.888   1.794
80326W        W52641  41.865  41.876  11.194
80327W        W52642  12.834  42.801  12.358
80328W        W52643  25.121  32.130  13.029
80329W        W52644   2.322   3.913   0.183
80330W        W52645  10.313  43.343   4.692
80331W        W52646   2.308  32.560   4.553
80332W        W52647   2.805  38.457  13.792
80333W        W52648  26.011   3.548  10.586
80334W        W52649  44.907  18.304   2.747
80335W        W52650  43.536  28.876   1.308
80336W        W52651  31.542   8.195   4.071
80337W        W52652  43.112  40.150   4.634
80338W        W52653  35.094  29.201  14.045
80339W        W52654  14.319   4.213   0.870
80340W        W52655  20.669  37.966   3.008
80341W        W52656  15.936  25.496   4.079
80342W        W52657   1.434  10.388   2.907
80343W        W52658   3.805  42.996   0.901
80344W        W52659   8.724  37.387   4.627
80345W        W52660   3.323  18.617   3.895
80346W        W52661  21.041  37.821  12.562
80347W        W52662  26.988  31.230   0.812
80348W        W52663  40.506  28.932   2.486
80349W        W52664   2.828  35.874   3.587
80350W        W52665  42.964  24.560  14.504
80351W        W52666  13.443  39.212   2.907
80352W        W52667  16.782  36.290   2.713
80353W        W52668  34.603   6.910   1.321
80354W        W52669  32.114  27.183   1.729
80355W        W52670  34.933  34.009  11.347
80356W        W52671  25.658  13.518   2.776
80357W        W52672  34.234  37.550  10.048
80358W        W52673  20.480  42.284   1.766
80359W        W52674   6.768   4.194   2.784
80360W        W52675  25.428  19.160  13.437
80361W        W52676  11.867  17.752   3.763
80362W        W52677  30.007  26.960  11.932
80363W        W52678  38.793  11.140  14.214
80364W        W52679  33.059   2.006   0.593
80365W        W52680  31.541  18.680   1.601
80366W        W52681  23.217   9.158   3.766
80367W        W52682   9.155   8.490   2.265
80368W        W52683  22.680  29.662  13.420
80369W        W52684  43.447  34.994   2.212
80370W        W52685   1.261  12.159   0.326
80371W        W52686  13.127  19.579  11.167
80372W        W52687  37.892  21.562  14.857
80373W        W52688   9.398  39.950  14.340
80374W        W52689  14.710  30.675  12.589
80375W        W52690  29.545  27.715  14.529
80376W        W52691   2.452   1.342  14.784
80377W        W52692  37.671  40.111  11.222
80378W        W52693   2.847  16.177   4.752
80379W        W52694  35.661  37.077  14.037
80380W        W52695  23.766  37.788  12.064
80381W        W52696  31.980  24.697   0.886
80382W        W52697  11.831  26.477   3.690
80383W        W52698  42.062  15.692  14.359
80384W        W52699  10.058   5.638   1.529
80385W        W52700  39.753  24.562  11.390
80386W        W52701  42.234  18.816   2.255
80387W        W52702  35.332  10.131  13.559
80388W        W52703   8.388  21.273  13.783
80389W        W52704   0.913  30.976   3.398
80390W        W52705  19.735   8.232   1.810
80391W        W52706  32.229  34.466   4.607
80392W        W52707  17.264  18.700   2.643
80393W        W52708  35.868  21.268  13.438
80394W        W52709  14.533  44.740  10.109
80395W        W52710   0.934  44.408  12.597
80396W        W52711  21.634  20.781   5.272
80397W        W52712  34.550   7.423   4.279
80398W        W52713   7.441  32.446  10.764
80399W        W52714  34.585  15.786   3.540
80400W        W52715   8.591  43.819  11.390
80401W        W52716  33.693  36.157   0.806
80402W        W52717   7.512  31.049   0.019
80403W        W52718  27.151  16.782  12.863
80404W        W52719  35.404  29.512   4.092
80405W        W52720  35.576  10.889   4.605
80406W        W52721  16.039   7.306   2.876
80407W        W52722  17.164   1.473   0.459
80408W        W52723  43.320   7.160  11.026
80409W        W52724  22.079  15.040   2.344
80410W        W52725  35.923  18.721   1.832
80411W        W52726  17.313  10.152   3.345
80412W        W52727  25.873  10.695  13.483
80413W        W52728  23.854  38.798  10.446
80414W        W52729  40.771  25.734  14.897
80415W        W52730  22.600  25.048  10.679
80416W        W52731   6.527  10.524   1.496
80417W        W52732  32.040   2.547   2.052
80418W        W52733  11.662  23.449   1.712
80419W        W52734  14.005   4.005   4.382
80420W        W52735  30.379  26.018  11.965
80421W        W52736  21.776  42.826   4.137
80422W        W52737  10.710  40.634  14.744
80423W        W52738  41.396   4.528  14.328
80424W        W52739  23.288   7.380   2.269
80425W        W52740  23.706  44.203   1.648
80426W        W52741  28.420  35.549  10.661
80427W        W52742  28.872  15.834   0.916
80428W        W52743   3.930  20.293  10.542
80429W        W52744  40.958   1.021  12.307
80430W        W52745  34.046  27.584   1.794
80431W        W52746  35.344  31.368   2.307
80432W        W52747  10.671  36.620   2.874
80433W        W52748   0.072  16.146  13.204
80434W        W52749  12.357  13.163   4.569
80435W        W52750   0.494  24.219   0.497
80436W        W52751   4.861  13.910  11.676
80437W        W52752  33.168   9.771   4.600
80438W        W52753   5.326   2.529   4.754
80439W        W52754  21.743   8.234   0.367
80440W        W52755  37.221  21.506  11.568
80441W        W52756  41.892   4.827  12.062
80442W        W52757  38.287  18.701  13.147
80443W        W52758  25.750  25.804  13.004
80444W        W52759  11.784  43.014   1.630
80445W        W52760  29.525  22.195   1.026
80446W        W52761  11.706   1.536   2.773
80447W        W52762  28.967  37.048   2.656
80448W        W52763  23.011  12.262  13.486
80449W        W52764  23.006  41.616  14.708
80450W        W52765  35.269  42.548   0.308
80451W        W52766  29.557  42.333   4.673
80452W        W52767  38.548  21.149   0.656
80453W        W52768  13.605  12.998  12.421
80454W        W52769   5.355  22.985  11.568
80455W        W52770  41.093   0.624   3.623
80456W        W52771  16.588   0.490  13.787
80457W        W52772  29.120  35.404   2.729
80458W        W52773  19.095  36.500   3.388
80459W        W52774  36.924   2.983   4.375
80460W        W52775  34.024   9.244   0.836
80461W        W52776  18.531  44.974   4.108
80462W        W52777  36.111   2.725  12.272
80463W        W52778  31.494  27.647   4.382
80464W        W52779  22.473   0.821   0.288
80465W        W52780  30.422   4.494  11.609
80466W        W52781  14.351  31.403   3.112
80467W        W52782  38.305  42.450  10.667
80468W        W52783   0.490  33.963  10.373
80469W        W52784  29.369  32.407   9.829
80470W        W52785   2.452   2.838   0.747
80471W        W52786  20.711   2.226   2.676
80472W        W52787  34.593  20.057  14.981
80473W        W52788  38.379  39.032   4.002
80474W        W52789  10.727  43.956   3.216
80475W        W52790  40.789   8.175  12.023
80476W        W52791   5.932  13.798   0.308
80477W        W52792  29.309   3.641   4.091
80478W        W52793  20.029   8.875   0.919
80479W        W52794  21.542  18.046  14.587
80480W        W52795  16.117  38.524   4.604
80481W        W52796  14.122  19.143   0.168
80482W        W52797  41.399  32.628   4.565
80483W        W52798  17.501  41.428   5.092
80484W        W52799  42.243  11.357  13.000
80485W        W52800  30.030  38.197   4.881
80486W        W52801   0.225  17.102  10.919
80487W        W52802  28.913  44.816  11.519
80488W        W52803  44.250  36.862   4.058
80489W        W52804  16.743  22.744   0.353
80490W        W52805  28.387  11.605   2.837
80491W        W52806   7.735  30.162   3.118
80492W        W52807   5.845  19.121  11.528
80493W        W52808  19.193  34.864  12.005
80494W        W52809   1.741  37.541   0.736
80495W        W52810  26.563  19.825   1.553
80496W        W52811  24.450  24.691  14.125
80497W        W52812  18.715   2.475  14.327
80498W        W52813  12.952  19.638   0.008
80499W        W52814   8.213  20.250   3.580
80500W        W52815  22.742   5.517   3.723
80501W        W52816  23.499  42.536   0.022
80502W        W52817  31.246  20.613   4.652
80503W        W52818  38.820  27.202  13.258
80504W        W52819   8.050  11.170   3.111
80505W        W52820  34.987  10.815  12.004
80506W        W52821   7.548  42.967  10.760
80507W        W52822   8.250   4.932  11.441
80508W        W52823  20.839   0.465   0.807
80509W        W52824   2.801  26.190   0.907
80510W        W52825  39.589  31.121   0.765
80511W        W52826   0.645   4.070   4.093
80512W        W52827   5.866   2.246  11.976
80513W        W52828  12.852  37.796  11.943
80514W        W52829  20.929  16.035  11.566
80515W        W52830  14.624  16.586   3.661
80516W        W52831  26.079  25.691   2.453
80517W        W52832  17.620  40.608   5.335
80518W        W52833  10.383  11.861  14.391
80519W        W52834  13.291  28.916   0.846
80520W        W52835   4.927  22.480   3.651
80521W        W52836  41.729  17.603  13.167
80522W        W52837  12.536  37.146   2.411
80523W        W52838   0.481  42.017  14.835
80524W        W52839   3.125  22.734  14.706
80525W        W52840  28.344  25.420  12.041
80526W        W52841  21.546  27.681  11.438
80527W        W52842   4.773  21.761   1.440
80528W        W52843  27.311  37.682   4.868
80529W        W52844  38.328  33.038   2.147
80530W        W52845  38.063  26.267   9.841
80531W        W52846  41.861  37.958  13.588
80532W        W52847  25.654  16.140   1.483
80533W        W52848   3.873  34.157   1.667
80534W        W52849  15.312  37.807  11.047
80535W        W52850   0.430   7.749   4.693
80536W        W52851   6.541  12.097   2.065
80537W        W52852  39.555  42.741  12.891
80538W        W52853  14.081  44.489   4.493
80539W        W52854   6.539  27.478  12.406
80540W        W52855  11.280  35.148  12.202
80541W        W52856  39.980  16.278  12.439
80542W        W52857  38.042  14.164   1.922
80543W        W52858   1.827  17.075  14.968
80544W        W52859  39.728  39.493  11.608
80545W        W52860  41.949  32.394  12.849
80546W        W52861  11.761  41.331  12.578
80547W        W52862  16.347  20.990   0.808
80548W        W52863  40.791  17.131   0.902
80549W        W52864  29.153  32.865   2.269
80550W        W52865   9.904   3.031  14.437
80551W        W52866  28.401  19.455   3.346
80552W        W52867  16.601  31.961   5.097
80553W        W52868  38.473  38.545   4.260
80554W        W52869  21.146  38.573   1.269
80555W        W52870   8.380  42.791   1.496
80556W        W52871  29.815  18.176   4.336
80557W        W52872  42.530  13.097   4.825
80558W        W52873  34.374  29.149  12.501
80559W        W52874  25.112  38.306   4.533
80560W        W52875   3.518  31.946   2.303
80561W        W52876  44.207  32.696   4.161
80562W        W52877  37.919  17.955   1.606
80563W        W52878  16.781  30.636  13.882
80564W        W52879  27.588  29.966   3.877
80565W        W52880  38.537  27.251   9.877
80566W        W52881  33.949  26.639  10.681
80567W        W52882  42.557  18.623  11.174
80568W        W52883  21.006  19.547   4.658
80569W        W52884  39.073   9.766   3.605
80570W        W52885  14.942  39.990   0.830
80571W        W52886  18.719   6.184  11.623
80572W        W52887   6.401  22.610   3.261
80573W        W52888  16.219  28.950   2.733
80574W        W52889  17.444  22.573   0.997
80575W        W52890  22.054  40.946  12.567
80576W        W52891  41.349  37.077  13.267
80577W        W52892  40.415   9.183   3.035
80578W        W52893   0.182  37.800  14.870
80579W        W52894  35.622  17.576   2.223
80580W        W52895  37.949   8.903  13.147
80581W        W52896  13.860  27.111   1.931
80582W        W52897   7.368  36.038  13.842
80583W        W52898  14.734  23.445  10.585
80584W        W52899  28.173  12.589  12.410
80585W        W52900  21.768  41.956  14.925
80586W        W52901   8.626   0.912   1.262
80587W        W52902   9.593  32.571  11.402
80588W        W52903  24.637  43.921  11.141
80589W        W52904  16.849   8.821  11.540
80590W        W52905  27.443  39.080   2.399
80591W        W52906  21.799  15.223  11.512
80592W        W52907  16.788  15.045   0.983
80593W        W52908  24.801  29.412   3.996
80594W        W52909  18.803  17.702  10.371
80595W        W52910  26.948  42.490  10.728
80596W        W52911  15.744   8.850  12.924
80597W        W52912  44.181  26.606   1.924
80598W        W52913  13.716  16.302  13.901
80599W        W52914  19.610  39.471  13.319
80600W        W52915  21.613  29.364  11.974
80601W        W52916  43.665  43.920  11.536
80602W        W52917  40.852  18.539  14.384
80603W        W52918  18.521  17.298  13.840
80604W        W52919  24.670  13.644   4.267
80605W        W52920  33.119   5.535   2.781
80606W        W52921   9.508  37.585  14.419
80607W        W52922  34.787  29.379   1.344
80608W        W52923  14.144   0.079  14.782
80609W        W52924  19.471  13.914   3.307
80610W        W52925   9.447   7.648   3.214
80611W        W52926  23.419   6.769   1.186
80612W        W52927  21.156   8.127  10.481
80613W        W52928  31.876  43.520  13.163
80614W        W52929  29.299  12.049  12.154
80615W        W52930  27.992   7.335   2.828
80616W        W52931   0.967  19.259   1.552
80617W        W52932  13.213  21.575  13.640
80618W        W52933  43.334  28.512   4.142
80619W        W52934  25.530  39.542   4.649
80620W        W52935   7.171   0.880   0.334
80621W        W52936  11.810  12.340   3.579
80622W        W52937  23.470  20.062  10.685
80623W        W52938  18.864   8.836  11.650
80624W        W52939   8.933  41.851  10.734
80625W        W52940  24.212  44.284  13.848
80626W        W52941  28.998  13.731  10.705
80627W        W52942  27.048  36.369  14.444
80628W        W52943  37.560  41.031   2.253
80629W        W52944   3.223  44.196  14.905
80630W        W52945   8.767   7.322  13.031
80631W        W52946   3.470  13.230  14.549
80632W        W52947   6.489   6.312   4.636
80633W        W52948   8.683  23.066   3.730
80634W        W52949  36.486   2.727   4.116
80635W        W52950  37.762  11.194   1.927
80636W        W52951  31.708   3.444   0.971
80637W        W52952   5.128   3.296   1.090
80638W        W52953  19.137  25.903  14.815
80639W        W52954  17.775  28.653  13.452
80640W        W52955  11.071  22.101  14.308
80641W        W52956   0.717  21.693   3.424
80642W        W52957  12.959  24.722   2.320
80643W        W52958  17.348  22.942   2.658
80644W        W52959  42.952  15.368  14.942
80645W        W52960   2.826  27.104   0.361
80646W        W52961   4.882  38.072  10.691
80647W        W52962   8.749  12.813  10.701
80648W        W52963  35.588  27.420  14.786
80649W        W52964  35.399  14.018   1.822
80650W        W52965  15.645  34.418   1.794
80651W        W52966  37.966   0.915   3.201
80652W        W52967  15.915  26.212   0.255
80653W        W52968  15.010   1.325  10.545
80654W        W52969  14.946  18.703  13.966
80655W        W52970  30.115  36.913   4.804
80656W        W52971  19.582  33.903  14.321
80657W        W52972   1.252   1.339   0.363
80658W        W52973   0.526  25.551   1.780
80659W        W52974  16.283   8.672  12.932
80660W        W52975   8.576  37.969   0.295
80661W        W52976  40.987  42.841   1.838
80662W        W52977   0.831  11.917  12.959
80663W        W52978  23.568   0.839   4.357
80664W        W52979  44.049   3.904  10.728
80665W        W52980  10.876   5.000  13.822
80666W        W52981  27.700   1.359   4.394
80667W        W52982  20.845  25.129  10.252
80668W        W52983  42.052  24.040  10.654
80669W        W52984  31.089  42.353   3.703
80670W        W52985   0.107  14.321  13.900
80671W        W52986   4.294   4.681  12.842
80672W        W52987  44.668  11.132   4.395
80673W        W52988   3.218   2.861  14.243
80674W        W52989  13.600  26.763   0.421
80675W        W52990  17.806  16.313  14.863
80676W        W52991  21.093  34.467   2.136
80677W        W52992  30.663  34.166   1.824
80678W        W52993  19.197  19.523  13.445
80679W        W52994   8.676  19.920   5.111
80680W        W52995  26.133  33.918   4.203
80681W        W52996  30.102  42.408   1.924
80682W        W52997  25.058  18.742  13.807
80683W        W52998   6.423  11.169  11.969
80684W        W52999   0.943  11.924  10.687
80685W        W53000   4.790  37.243  11.708
80686W        W53001  24.152  24.428   4.096
80687W        W53002  19.716  10.876   5.559
80688W        W53003  26.987  22.023   4.174
80689W        W53004  35.504  22.731   3.786
80690W        W53005  12.853  38.311  11.931
80691W        W53006   8.846  22.982   4.692
80692W        W53007  15.913  34.853   1.836
80693W        W53008  37.744   2.420  14.951
80694W        W53009  22.955   4.908   4.574
80695W        W53010  29.942  35.831   4.902
80696W        W53011  40.456  25.953  14.169
80697W        W53012  34.482  17.990   4.161
80698W        W53013  21.657   2.347  12.066
80699W        W53014   0.671  27.194  11.730
80700W        W53015  29.112   8.796   2.267
80701W        W53016  24.456  43.813  13.858
80702W        W53017  29.225  29.398   2.626
80703W        W53018   5.527   7.670   0.914
80704W        W53019  41.512  39.391  11.209
80705W        W53020  20.577  17.727   0.847
80706W        W53021   8.165  44.641   2.273
80707W        W53022  40.981   2.425   1.200
80708W        W53023  44.213  25.158   0.857
80709W        W53024  28.108  15.033   0.465
80710W        W53025  11.098  20.456   0.913
80711W        W53026  35.404  24.213   0.311
80712W        W53027  37.490  13.888   4.089
80713W        W53028  39.375  17.737   1.325
80714W        W53029  40.423  17.667   4.466
80715W        W53030   9.186  25.690   3.838
80716W        W53031  39.419  15.246  11.612
80717W        W53032  24.286  30.434  12.003
80718W        W53033  31.114   9.813   0.760
80719W        W53034  29.739  37.599  13.616
80720W        W53035  21.173   3.523   0.312
80721W        W53036   8.774   8.369   4.582
80722W        W53037   5.742  28.479   2.713
80723W        W53038   7.627   1.912   3.799
80724W        W53039   4.851  17.051  11.005
80725W        W53040  20.094  16.629  14.249
80726W        W53041  14.318  39.864  12.074
80727W        W53042   6.835  15.529  12.056
80728W        W53043  34.894   1.343  12.969
80729W        W53044  25.630  29.279  12.577
80730W        W53045  33.534  16.661   3.306
80731W        W53046  25.881  31.941   2.898
80732W        W53047   7.916   0.849   1.816
80733W        W53048  31.635   8.863  11.579
80734W        W53049  33.451  28.488  11.615
80735W        W53050  33.900   4.372   4.273
80736W        W53051  16.343  29.838   4.760
80737W        W53052   1.376  36.131   0.886
80738W        W53053  21.198   3.871   2.935
80739W        W53054   2.505  15.592  14.317
80740W        W53055  29.414  14.002  10.586
80741W        W53056  17.347  26.852   2.248
80742W        W53057   1.962   2.328  11.160
80743W        W53058   3.725  42.413  11.990
80744W        W53059  34.129  27.886  10.701
80745W        W53060  20.423  35.050  13.555
80746W        W53061  11.796  44.837  13.185
80747W        W53062  22.612  21.769   3.295
80748W        W53063  25.472   6.658   4.258
80749W        W53064  20.280  43.794  14.890
80750W        W53065  31.033  26.087   4.353
80751W        W53066  38.855   1.457   1.775
80752W        W53067  14.524  29.470  13.823
80753W        W53068   7.627  24.952   0.627
80754W        W53069  11.641  30.498   2.412
80755W        W53070  28.067   7.270   1.861
80756W        W53071  28.033  29.584  13.391
80757W        W53072  12.223   5.286   2.241
80758W        W53073  22.833   2.782  13.426
80759W        W53074   7.370  23.154  12.053
80760W        W53075  11.192   4.976  12.549
80761W        W53076  28.884  44.195   2.525
80762W        W53077  24.181  34.384   1.376
80763W        W53078  43.252   9.426   1.255
80764W        W53079   3.469  23.188   2.656
80765W        W53080   9.609  28.109   0.007
80766W        W53081  18.470  12.575   1.900
80767W        W53082  24.662  13.781   1.008
80768W        W53083  44.899  41.239  11.623
80769W        W53084  44.112  29.519   1.498
80770W        W53085  44.745  35.519  11.091
80771W        W53086  12.086  29.246   2.392
80772W        W53087   4.041   0.708  10.623
80773W        W53088  40.210   2.318  11.804
80774W        W53089  27.863   6.298  11.957
80775W        W53090  40.267  12.651  13.062
80776W        W53091  15.728   4.036   3.008
80777W        W53092  15.650  39.460  11.034
80778W        W53093  16.713  15.504   4.254
80779W        W53094  40.049  35.157   0.253
80780W        W53095  40.904  31.048  12.371
80781W        W53096  19.572   9.139   1.386
80782W        W53097  39.047  21.857   0.717
80783W        W53098  42.752  37.292   0.706
80784W        W53099   5.880  24.782  12.386
80785W        W53100  17.253  17.341   0.696
80786W        W53101  42.920   3.240   2.766
80787W        W53102  15.950  13.662   3.404
80788W        W53103  13.284  22.214   1.505
80789W        W53104  31.376  30.185   1.630
80790W        W53105  16.336  15.979   0.396
80791W        W53106  34.972   8.213   4.241
80792W        W53107  43.397   1.803   0.255
80793W        W53108   6.421   5.302  11.601
80794W        W53109  25.142  43.759   2.470
80795W        W53110   9.702  24.600  13.452
80796W        W53111  23.007  10.947  14.987
80797W        W53112  23.099  33.027   0.886
80798W        W53113  38.013  27.984   0.420
80799W        W53114  29.176  22.135  12.029
80800W        W53115  22.221   7.734  13.364
80801W        W53116  34.454  39.898   4.601
80802W        W53117  43.351   5.225   0.404
80803W        W53118  12.258  10.932   4.152
80804W        W53119  28.039  37.586   1.617
80805W        W53120  25.213  12.783  12.839
80806W        W53121  18.707  22.997  13.154
80807W        W53122  37.424   6.845  11.604
80808W        W53123  33.437  19.849   3.132
80809W        W53124  31.879  35.143   3.224
80810W        W53125  26.681  44.814   1.887
80811W        W53126   7.408   5.038   3.194
80812W        W53127  26.200  43.440  13.504
80813W        W53128   8.794  44.966  14.667
80814W        W53129  43.889  13.131   4.698
80815W        W53130  39.960  24.677  10.592
80816W        W53131  40.724  34.739  12.820
80817W        W53132  15.975  14.028  13.905
80818W        W53133  35.795  43.985  14.782
80819W        W53134  40.977  18.000   2.146
80820W        W53135   2.918  23.523   4.590
80821W        W53136  29.148   7.363   3.959
80822W        W53137  38.276  36.656   4.075
80823W        W53138  29.167  35.984   1.905
80824W        W53139   0.919  35.812  11.641
80825W        W53140  34.910  42.227   2.864
80826W        W53141  28.734  42.370   4.083
80827W        W53142  12.286  40.557  11.641
80828W        W53143  27.344   9.499  13.152
80829W        W53144   4.818  34.577   4.056
80830W        W53145   5.436  20.720   4.210
80831W        W53146  11.710  27.428  11.916
80832W        W53147  32.615  38.060  11.854
80833W        W53148   5.438   6.171  10.901
80834W        W53149  41.748  19.696   4.003
80835W        W53150   7.410  16.149  12.564
80836W        W53151  10.997  30.905  10.862
80837W        W53152  24.010  34.618   3.107
80838W        W53153   4.245   7.846  12.639
80839W        W53154  12.298  32.397   2.829
80840W        W53155  16.648   5.628   0.861
80841W        W53156  32.514   5.380   3.687
80842W        W53157  25.502  33.886   1.015
80843W        W53158  19.331  16.025   2.314
80844W        W53159   1.294  43.377  11.630
80845W        W53160  41.870   4.698  14.208
80846W        W53161  16.716  28.888  11.722
80847W        W53162  37.529  27.451   1.907
80848W        W53163  21.767  27.391   4.844
80849W        W53164  12.234  12.789   1.978
80850W        W53165   8.828  11.661   3.249
80851W        W53166   1.190   9.347  12.084
80852W        W53167  11.634   9.795  11.895
80853W        W53168  29.153  25.020  10.758
80854W        W53169  26.483  38.765   2.415
80855W        W53170  16.769   9.383   4.638
80856W        W53171  23.647  43.410   2.261
80857W        W53172  24.203  33.712  10.361
80858W        W53173  42.798  34.688   3.315
80859W        W53174  35.980  14.299   1.200
80860W        W53175  39.361  34.657  14.127
80861W        W53176  41.808  24.149   1.906
80862W        W53177   9.201  18.575  11.600
80863W        W53178  11.593  41.847   0.632
80864W        W53179  10.864  10.893  12.562
80865W        W53180  31.084   1.929  10.712
80866W        W53181  29.960  28.667   4.616
80867W        W53182  25.854  30.409   1.277
80868W        W53183  43.438  20.693   1.725
80869W        W53184  13.215  19.096  13.834
80870W        W53185  31.655   3.130  12.841
80871W        W53186  24.303  43.924  12.491
80872W        W53187  40.442   6.053  14.813
80873W        W53188   2.860  21.835  11.546
80874W        W53189  36.468   9.321   1.427
80875W        W53190  41.337  28.703  14.445
80876W        W53191   1.325  34.875   4.147
80877W        W53192  12.471   3.334   3.183
80878W        W53193  29.918  19.032  13.059
80879W        W53194   1.684  40.903   0.810
80880W        W53195  20.113  10.913  12.876
80881W        W53196  33.431  41.287  13.026
80882W        W53197  25.728  22.388   2.415
80883W        W53198   9.272  41.560  11.695
80884W        W53199  14.122  10.762  13.819
80885W        W53200  15.194   1.956   1.167
80886W        W53201   7.210  23.438   3.765
80887W        W53202  18.526  33.556   3.263
80888W        W53203  29.027   4.066   3.273
80889W        W53204   7.846  29.586  11.870
80890W        W53205   7.073  28.604  12.307
80891W        W53206  12.225  32.966  13.517
80892W        W53207  40.296  24.443  13.908
80893W        W53208  32.401  26.177  14.321
80894W        W53209  18.849  11.200   2.687
80895W        W53210  41.626   2.778  11.872
80896W        W53211  18.707  25.535  13.147
80897W        W53212   7.448  19.892  14.937
80898W        W53213   7.305  22.666  13.846
80899W        W53214  17.455  23.474   3.644
80900W        W53215  40.523  29.586  10.734
80901W        W53216  39.074  39.510   1.315
80902W        W53217  11.168  11.408  10.613
80903W        W53218  31.741  25.654   1.509
80904W        W53219   7.185  30.404   3.629
80905W        W53220  14.800   2.219   4.236
80906W        W53221  28.527  20.161  11.513
80907W        W53222  10.730  26.795  10.702
80908W        W53223  13.216  18.994   4.532
80909W        W53224  42.464  30.652  14.758
80910W        W53225  19.246  40.081  14.952
80911W        W53226  40.230   3.218   2.315
80912W        W53227  10.260   4.717   4.721
80913W        W53228   1.354  28.170   3.739
80914W        W53229  39.999  25.586   4.147
80915W        W53230  42.499  37.077  10.952
80916W        W53231  27.156  31.981   4.122
80917W        W53232  43.519   5.433  12.226
80918W        W53233   2.210   5.221   1.816
80919W        W53234  37.357  39.361  13.824
80920W        W53235   2.747   8.361  13.724
80921W        W53236  32.202   9.671   2.416
80922W        W53237   0.410  20.529  10.896
80923W        W53238  31.109  30.840   4.169
80924W        W53239  30.077  14.321  11.183
80925W        W53240  16.135  39.617  12.856
80926W        W53241  28.208  44.260   0.246
80927W        W53242  18.553  20.283   1.029
80928W        W53243  17.394  15.697   3.781
80929W        W53244  10.326  13.385   1.658
80930W        W53245  11.792   2.930  10.575
80931W        W53246  17.840  32.943   3.216
80932W        W53247  16.579   8.666   2.854
80933W        W53248  17.952  10.837   4.655
80934W        W53249  14.685  13.082   0.429
80935W        W53250  29.599   3.903   0.285
80936W        W53251  13.119  27.510   1.784
80937W        W53252  27.960  42.534  13.911
80938W        W53253   2.662  40.484   3.929
80939W        W53254  28.525   3.466   0.985
80940W        W53255  30.358   4.998  12.508
80941W        W53256  32.246  30.739  10.642
80942W        W53257   4.347  28.099   4.659
80943W        W53258  35.509  43.326   3.888
80944W        W53259  39.531   1.657   4.632
80945W        W53260  39.492  29.558  13.921
80946W        W53261  24.166  12.291   2.730
80947W        W53262  39.393  28.093  10.698
80948W        W53263  10.076  13.346  14.025
80949W        W53264  10.824  39.367   4.606
80950W        W53265   8.171  20.284   2.179
80951W        W53266  26.001  42.825   2.056
80952W        W53267  39.301  25.564  11.486
80953W        W53268  18.680  25.369  12.651
80954W        W53269  37.077  22.713   4.199
80955W        W53270  23.794  29.489   4.241
80956W        W53271  17.132   4.382  14.356
80957W        W53272   2.922  22.265  14.854
80958W        W53273  39.840  11.297   4.181
80959W        W53274  23.764  34.989  11.665
80960W        W53275  20.182  26.314  13.797
80961W        W53276  11.670  15.708  14.815
80962W        W53277  38.932  11.258  12.863
80963W        W53278   1.310  13.668   2.353
80964W        W53279  26.370  16.773   3.626
80965W        W53280  19.725   0.955  10.377
80966W        W53281  10.159   4.811  13.439
80967W        W53282  38.302   6.724   2.107
80968W        W53283   5.492   6.790  11.631
80969W        W53284   9.605  16.601  13.829
80970W        W53285   5.745   9.205   2.371
80971W        W53286  14.214  30.972   3.575
80972W        W53287  30.141  25.228   2.368
80973W        W53288  29.804  22.114  11.520
80974W        W53289  36.851  24.620   1.749
80975W        W53290  17.923  31.979   1.781
80976W        W53291   0.686  31.424   3.568
80977W        W53292  34.393   9.360  14.396
80978W        W53293  35.913  27.624  14.318
80979W        W53294  43.071  38.513   2.836
80980W        W53295   9.254   9.641  12.684
80981W        W53296  22.711  32.097  14.267
80982W        W53297   1.512   2.514  11.030
80983W        W53298  27.938  30.987  13.180
80984W        W53299   9.951  21.518  11.481
80985W        W53300   3.759  30.441   2.309
80986W        W53301   9.359  38.968  14.241
80987W        W53302  27.674  24.261  12.068
80988W        W53303   8.703  33.865  10.614
80989W        W53304  35.375   2.225   1.891
80990W        W53305  11.186  22.458  10.498
80991W        W53306  28.072   4.124  14.529
80992W        W53307  43.457  36.743   1.699
80993W        W53308  10.672  43.622  11.033
80994W        W53309  44.017  23.016   4.188
80995W        W53310  13.384  35.828   4.518
80996W        W53311  35.418  36.208  13.875
80997W        W53312  29.897  29.477  14.937
80998W        W53313  10.921  40.532  11.589
80999W        W53314  39.018   0.036  11.267
81000W        W53315  35.502  17.728   3.200
81001W        W53316  14.814  40.457  10.684
81002W        W53317   8.647  42.279   1.293
81003W        W53318  29.490  44.846  11.865
81004W        W53319  28.617  28.782  13.383
81005W        W53320  19.709  37.948   0.993
81006W        W53321   7.800  32.387   3.608
81007W        W53322  42.266   6.188  13.060
81008W        W53323   5.912  18.698  10.620
81009W        W53324   6.908  39.659   0.406
81010W        W53325  37.622  33.392   3.231
81011W        W53326  30.045  19.633  10.715
81012W        W53327  43.114  12.046   4.226
81013W        W53328  40.340   3.715   3.162
81014W        W53329  17.071  30.667   2.338
81015W        W53330  39.572  15.160  12.113
81016W        W53331  35.371  37.848   0.181
81017W        W53332   5.026   1.519  11.590
81018W        W53333  36.205   3.498  12.143
81019W        W53334  19.784  24.010  13.087
81020W        W53335   3.152   7.429   3.981
81021W        W53336  14.594  44.990   0.865
81022W        W53337  18.802  18.030  13.383
81023W        W53338   1.426  34.884   1.418
81024W        W53339   4.253  23.335   2.449
81025W        W53340  33.411   3.474  11.825
81026W        W53341  12.721  44.976   0.862
81027W        W53342  42.180   2.098   2.766
81028W        W53343  36.529  13.097  10.345
81029W        W53344  21.226  38.137  13.692
81030W        W53345  26.627  27.591  14.160
81031W        W53346  14.845  38.108   1.868
81032W        W53347   5.935  40.121  12.835
81033W        W53348  29.694  10.162  11.112
81034W        W53349   5.625  20.148   3.609
81035W        W53350   2.422  27.936   4.964
81036W        W53351  37.862   2.801  13.546
81037W        W53352   7.692   5.687  13.887
81038W        W53353  25.104  43.295   2.197
81039W        W53354  20.459  29.033   0.365
81040W        W53355  39.809  30.113   4.608
81041W        W53356   5.000  42.801  12.995
81042W        W53357  27.608   0.584   3.326
81043W        W53358   8.126  29.066  13.574
81044W        W53359   1.784  44.285   1.824
81045W        W53360  44.372  21.636  11.036
81046W        W53361  28.950  29.711  12.890
81047W        W53362  31.558  27.539   0.963
81048W        W53363  15.366  25.629  14.012
81049W        W53364   2.818  30.013   4.178
81050W        W53365  16.739  40.035   2.855
81051W        W53366  22.786  28.953   0.666
81052W        W53367  25.753  22.221  14.838
81053W        W53368  32.602  24.842  11.842
81054W        W53369  13.653  16.055  11.787
81055W        W53370  29.828  43.405   0.512
81056W        W53371  15.712  21.551  11.116
81057W        W53372  40.348  43.218   2.834
81058W        W53373  15.581  44.505  14.018
81059W        W53374   8.307  32.898   2.794
81060W        W53375  40.833  39.398  14.892
81061W        W53376  37.294  30.564   1.418
81062W        W53377  39.525  17.749  11.108
81063W        W53378   2.063   4.840   5.099
81064W        W53379  17.575  10.666  13.357
81065W        W53380  19.091  22.093  13.605
81066W        W53381   8.435  18.524  13.536
81067W        W53382  11.274  13.373  10.728
81068W        W53383  24.692  43.329   4.102
81069W        W53384  26.985  40.448  12.201
81070W        W53385  11.404  34.057   4.085
81071W        W53386  40.289  23.557   0.958
81072W        W53387  25.319   5.008  13.453
81073W        W53388  14.889   9.162  14.640
81074W        W53389   6.083  39.931   4.029
81075W        W53390  25.202  30.593   3.686
81076W        W53391  38.768  32.954  11.140
81077W        W53392   2.158  35.348  10.879
81078W        W53393  27.404  27.740   1.253
81079W        W53394  25.969  11.032   3.658
81080W        W53395   2.045  20.204  14.899
81081W        W53396  23.500  18.977  10.198
81082W        W53397  13.905  15.627  10.660
81083W        W53398  10.259   7.759   4.890
81084W        W53399  14.846  29.428  14.457
81085W        W53400  25.678  25.879  14.014
81086W        W53401  26.605  44.463   1.508
81087W        W53402  44.420  30.110   2.840
81088W        W53403  31.656   0.255  10.356
81089W        W53404   8.154  32.706   4.100
81090W        W53405  35.438  34.590  14.865
81091W        W53406  14.042  33.496  14.819
81092W        W53407  24.607  36.537   1.648
81093W        W53408  26.659   0.547   0.862
81094W        W53409   9.299  36.362  11.173
81095W        W53410   6.445  13.838  10.850
81096W        W53411  12.402  21.135   0.913
81097W        W53412   4.471  14.093   2.765
81098W        W53413   6.806  29.455  13.291
81099W        W53414  25.037   7.458   4.060
81100W        W53415  40.856   2.109   4.626
81101W        W53416  39.460  40.528   0.308
81102W        W53417  37.575  29.808   4.210
81103W        W53418   2.385   3.116   3.453
81104W        W53419  13.528  10.000   4.058
81105W        W53420   2.711  12.124  14.474
81106W        W53421  22.995   5.456  12.988
81107W        W53422  22.837  18.963  12.544
81108W        W53423  15.744   7.989   0.368
81109W        W53424   2.050  20.587   2.383
81110W        W53425   7.888   0.548  14.018
81111W        W53426  23.201  28.777   2.828
81112W        W53427  20.151   7.670   3.802
81113W        W53428  44.768  31.547  13.486
81114W        W53429  42.901  14.543   4.504
81115W        W53430  33.692  29.349   2.257
81116W        W53431  28.001  25.000  14.735
81117W        W53432   8.743  18.455  12.718
81118W        W53433  34.125   5.405   3.645
81119W        W53434  44.530   0.967   2.707
81120W        W53435  43.074  27.117   4.054
81121W        W53436  33.974   3.815  12.451
81122W        W53437  42.584  22.059   4.642
81123W        W53438  39.584  23.622   3.205
81124W        W53439  28.864  18.440  13.523
81125W        W53440   7.461  22.074  11.574
81126W        W53441  21.504  16.330  12.949
81127W        W53442  42.509  31.362  12.041
81128W        W53443   1.772  29.305   3.250
81129W        W53444  28.159  39.098  11.630
81130W        W53445  26.452  42.426  13.886
81131W        W53446  12.418  42.101   2.284
81132W        W53447  31.513  13.258   1.221
81133W        W53448  33.565  16.761   3.808
81134W        W53449  26.455  38.902   1.485
81135W        W53450  18.249  25.966   4.171
81136W        W53451  17.237  21.265   0.944
81137W        W53452  20.187  20.917   0.177
81138W        W53453  36.110  22.678   0.898
81139W        W53454   5.822  43.526  14.279
81140W        W53455  10.212  26.534  11.430
81141W        W53456   4.756  36.540   2.132
81142W        W53457   4.318   1.428   2.778
81143W        W53458  18.697  28.093   3.709
81144W        W53459  30.183  30.598   2.062
81145W        W53460  40.377  23.627   1.487
81146W        W53461  18.066  36.168  12.541
81147W        W53462   2.125  28.181  14.978
81148W        W53463  22.670  37.741  10.811
81149W        W53464   8.737  32.091  14.902
81150W        W53465  28.033  24.058   4.776
81151W        W53466  19.216  16.115  10.374
81152W        W53467  39.987  22.645   4.226
81153W        W53468   8.472  35.920  12.904
81154W        W53469  13.181  34.627   3.275
81155W        W53470  18.668   3.975   4.122
81156W        W53471   0.737  41.512  10.777
81157W        W53472  32.351  27.537  11.737
81158W        W53473  17.962   9.686  14.466
81159W        W53474  11.251  41.532  10.679
81160W        W53475  42.206  40.742  12.667
81161W        W53476  38.421  31.628  12.972
81162W        W53477   4.296  16.658  14.065
81163W        W53478  23.291  11.223  14.625
81164W        W53479  22.041  43.907   4.559
81165W        W53480  27.631  27.275   1.814
81166W        W53481  18.116  11.649  14.461
81167W        W53482  17.713  11.807  12.868
81168W        W53483  37.294   2.473   2.094
81169W        W53484  44.729  20.060  11.130
81170W        W53485  12.259  16.214  14.365
81171W        W53486  24.057  37.977  10.695
81172W        W53487  14.272  26.403   3.549
81173W        W53488  11.382  33.266   0.904
81174W        W53489   8.780  22.050   1.535
81175W        W53490  18.279   1.719  12.194
81176W        W53491  36.218  37.239  12.778
81177W        W53492  18.221  16.183   1.872
81178W        W53493  10.868  22.153   4.163
81179W        W53494  10.226  16.836  12.144
81180W        W53495  14.172  39.285   0.866
81181W        W53496  13.172  10.131  12.985
81182W        W53497  21.054  15.399  13.051
81183W        W53498  35.828  17.015  13.054
81184W        W53499   9.308  32.131  11.507
81185W        W53500  33.925   5.178  10.881
81186W        W53501  16.053  41.845   4.591
81187W        W53502  34.501  32.129  12.865
81188W        W53503  26.586  33.117   5.095
81189W        W53504  34.212  21.053   4.690
81190W        W53505  42.519  28.607  13.124
81191W        W53506  27.454  42.748  13.867
81192W        W53507  30.080   7.671  11.098
81193W        W53508   1.076   4.203   2.310
81194W        W53509  37.568   0.066   3.634
81195W        W53510  23.337  24.024  13.539
81196W        W53511  27.020   0.667  11.108
81197W        W53512   0.784  33.645   5.298
81198W        W53513  41.567  28.110  12.406
81199W        W53514  34.937  26.017   2.796
81200W        W53515  43.382   3.276  11.131
81201W        W53516  32.886  41.824  14.029
81202W        W53517  21.968  17.918  11.072
81203W        W53518  34.989  38.935  11.659
81204W        W53519  44.737  11.890   0.148
81205W        W53520  26.232   6.336   4.735
81206W        W53521  14.816  44.836   0.430
81207W        W53522  37.559  17.067  14.387
81208W        W53523  31.656  17.556  10.644
81209W        W53524   7.763   2.346   2.393
81210W        W53525   5.816  28.133   2.293
81211W        W53526  12.626  32.909  11.070
81212W        W53527  34.823   2.106  14.500
81213W        W53528  17.524  35.537  12.326
81214W        W53529  42.045   2.394   1.968
81215W        W53530  10.285   2.195  11.204
81216W        W53531   3.397  44.917   0.443
81217W        W53532  17.625  12.389   2.760
81218W        W53533  33.440   6.869   9.915
81219W        W53534  28.605  12.770   4.488
81220W        W53535  19.828  23.008  12.166
81221W        W53536   2.446   9.753  14.703
81222W        W53537   3.189  31.099  11.599
81223W        W53538  33.606   6.015   0.858
81224W        W53539  27.711  43.308   4.121
81225W        W53540  10.256  31.962  11.089
81226W        W53541   5.357   5.748   3.843
81227W        W53542  12.958  36.546   1.487
81228W        W53543  35.221  26.320   3.145
81229W        W53544  18.501  10.650  13.402
81230W        W53545   2.529  11.728  10.509
81231W        W53546  11.655  25.033   5.175
81232W        W53547   4.920  11.803  12.776
81233W        W53548   4.733   3.264   3.903
81234W        W53549  35.621  36.434   1.795
81235W        W53550   2.497  37.350  13.270
81236W        W53551  25.620  27.471   2.505
81237W        W53552  19.276   2.971  10.749
81238W        W53553  27.243  23.719  13.357
81239W        W53554  26.926  31.060  11.439
81240W        W53555   6.211   5.039   4.152
81241W        W53556  39.253  20.491   1.684
81242W        W53557  15.680  33.515   4.587
81243W        W53558  41.927  17.902  10.743
81244W        W53559  35.918  32.278   4.504
81245W        W53560  22.591  24.570   2.904
81246W        W53561  19.335  11.892  11.457
81247W        W53562  20.020   7.557  10.722
81248W        W53563  33.398   8.249   0.512
81249W        W53564  18.195  31.671  11.503
81250W        W53565  19.627  21.561   2.782
81251W        W53566  22.224  27.188   1.695
81252W        W53567  16.409   4.925  12.208
81253W        W53568  31.532  13.052  10.620
81254W        W53569  32.272  19.678  11.141
81255W        W53570   7.489   8.752  11.545
81256W        W53571  15.277  19.525   4.649
81257W        W53572  10.112   9.736   3.331
81258W        W53573  14.839   0.877   3.690
81259W        W53574   3.388  25.369   4.579
81260W        W53575  21.670  21.019   4.426
81261W        W53576  34.406  26.146   1.934
81262W        W53577  31.544  22.184   0.886
81263W        W53578  19.296   7.388   1.190
81264W        W53579  14.027  23.944  13.096
81265W        W53580  29.688  16.702   4.537
81266W        W53581  22.821  36.678   3.827
81267W        W53582  39.550   5.878  12.384
81268W        W53583   9.162   2.541   2.676
81269W        W53584   5.689  12.551  11.983
81270W        W53585  18.651  42.880   3.292
81271W        W53586  39.416  34.087  10.850
81272W        W53587  28.036  23.670  10.575
81273W        W53588  20.231  26.688   2.297
81274W        W53589  42.364  22.241   0.867
81275W        W53590  11.788  44.674   2.590
81276W        W53591  32.128   4.456  10.153
81277W        W53592  24.399  15.395   0.693
81278W        W53593  24.985  20.334  12.536
81279W        W53594  35.994  39.996  12.614
81280W        W53595  15.205  12.562   1.766
81281W        W53596  19.366  24.531  14.697
81282W        W53597  29.939  27.919  12.965
81283W        W53598  30.063  36.108  10.308
81284W        W53599  40.781  36.447  11.247
81285W        W53600   0.274   9.912   4.345
81286W        W53601  35.135   0.794   2.181
81287W        W53602  40.988  15.785  13.435
81288W        W53603  10.796  37.354   0.258
81289W        W53604  10.814  34.155   2.571
81290W        W53605  11.351  12.368  10.703
81291W        W53606   7.869  35.986   4.141
81292W        W53607  14.101  30.920   3.056
81293W        W53608  12.943  15.271   3.768
81294W        W53609  20.207  13.761   3.758
81295W        W53610  18.222  16.803   3.542
81296W        W53611  24.024  11.145   3.533
81297W        W53612  31.687  21.293  10.942
81298W        W53613  21.443  25.143  14.074
81299W        W53614  22.733   8.132  11.691
81300W        W53615  41.371  43.539  11.933
81301W        W53616  41.681  22.835   2.338
81302W        W53617  20.944  23.915  13.382
81303W        W53618  19.751   8.844  10.052
81304W        W53619   4.631  13.356   1.344
81305W        W53620  37.451   8.606   1.988
81306W        W53621  40.067  40.450   2.184
81307W        W53622  17.558   6.722   1.279
81308W        W53623  12.170   6.725   0.237
81309W        W53624  15.253  26.143  13.817
81310W        W53625   6.707  36.362  10.488
81311W        W53626  11.315  18.300   4.164
81312W        W53627  30.376  20.178   2.274
81313W        W53628  10.315  42.227  12.541
81314W        W53629  19.579  28.202  11.571
81315W        W53630  39.529   7.881   0.105
81316W        W53631  33.110  42.333  12.860
81317W        W53632  21.332  43.092  13.844
81318W        W53633  34.815   9.243   0.342
81319W        W53634  13.820   8.329   0.442
81320W        W53635  22.178  42.580   1.239
81321W        W53636  25.691  43.395  12.138
81322W        W53637   4.942   7.355  10.614
81323W        W53638  41.428  42.846  12.560
81324W        W53639  43.282   3.441   2.353
81325W        W53640  32.812  27.267  11.985
81326W        W53641  24.130  33.359   2.299
81327W        W53642  31.466  16.059   1.004
81328W        W53643  18.347   7.551  12.535
81329W        W53644   6.389  19.788   4.673
81330W        W53645  33.683   0.839   3.901
81331W        W53646   2.676  28.923  14.286
81332W        W53647   5.174  23.657  13.944
81333W        W53648  38.585   2.735  14.840
81334W        W53649  11.313   3.358   4.387
81335W        W53650  40.296  30.558  11.717
81336W        W53651  19.593  21.952  10.670
81337W        W53652  40.537  14.701  11.944
81338W        W53653  16.699  40.901   1.746
81339W        W53654  31.049  35.099   3.774
81340W        W53655  22.707   8.388  12.849
81341W        W53656  33.660  36.890   3.655
81342W        W53657  18.414  19.687   3.300
81343W        W53658  13.664  23.841   0.371
81344W        W53659  14.189   1.417   0.243
81345W        W53660  13.028  32.400   3.290
81346W        W53661  12.091  37.205   3.628
81347W        W53662  37.518   2.389   0.710
81348W        W53663  16.859  10.391   2.256
81349W        W53664  21.583  40.554  12.981
81350W        W53665  12.617   7.729   3.157
81351W        W53666   3.468  40.498  12.988
81352W        W53667  17.349  23.544   4.148
81353W        W53668   8.622  26.455  11.952
81354W        W53669   0.195   2.716  11.940
81355W        W53670  24.695  15.178   3.301
81356W        W53671  20.564  11.917   0.967
81357W        W53672  40.380  40.346  11.583
81358W        W53673  27.435  31.939   3.289
81359W        W53674  11.729   0.230  12.842
81360W        W53675  23.628   9.401   0.261
81361W        W53676  25.774  34.454   4.733
81362W        W53677  40.908  21.686   1.819
81363W        W53678   6.213  37.784  14.249
81364W        W53679  19.085  44.354   4.149
81365W        W53680  41.443  29.506   0.958
81366W        W53681   3.996   3.962   3.764
81367W        W53682   6.098  37.478   0.813
81368W        W53683  29.665  12.445  12.955
81369W        W53684  40.882  40.762  13.068
81370W        W53685  43.321  13.721  12.369
81371W        W53686  43.360  23.971   1.902
81372W        W53687   3.437  21.451  12.362
81373W        W53688   6.862  24.229  11.430
81374W        W53689  33.601  11.594   4.133
81375W        W53690   8.839  10.422  11.275
81376W        W53691   2.898  18.639   3.031
81377W        W53692  43.953  35.171  13.089
81378W        W53693   7.208  22.606   1.017
81379W        W53694  40.374  25.896  10.913
81380W        W53695  42.500  42.269   4.675
81381W        W53696  26.494   0.656  11.089
81382W        W53697   9.237  28.677   2.466
81383W        W53698   1.422  28.872   2.624
81384W        W53699  24.575  20.594   0.931
81385W        W53700   7.268   9.715   0.907
81386W        W53701   1.774  21.719   2.001
81387W        W53702  20.696  12.848  11.120
81388W        W53703  27.123  44.853  14.792
81389W        W53704  15.522  25.235   4.261
81390W        W53705  24.999   5.859   1.148
81391W        W53706  41.903  25.112   4.245
81392W        W53707  16.776  28.079  14.788
81393W        W53708   8.599   8.051   4.977
81394W        W53709  26.415  23.730   0.912
81395W        W53710  27.985  23.685   1.271
81396W        W53711  25.256  29.967   2.336
81397W        W53712  34.009   7.625  11.541
81398W        W53713   9.397  26.914  10.984
81399W        W53714  16.273  23.422  13.553
81400W        W53715   5.238  15.222   3.845
81401W        W53716  24.837  25.296   4.056
81402W        W53717  34.074   5.969   4.504
81403W        W53718  44.998  11.792  10.328
81404W        W53719  25.150  12.342  11.592
81405W        W53720  22.440  25.432  12.819
81406W        W53721  27.925   2.048   1.373
81407W        W53722  17.047  26.436  11.955
81408W        W53723  33.689  38.809  10.426
81409W        W53724  23.008  20.476   4.773
81410W        W53725  21.540  19.093  13.450
81411W        W53726  23.555  38.967   1.245
81412W        W53727  29.663   6.848   1.495
81413W        W53728   9.879  38.955  13.446
81414W        W53729  24.944  31.463   0.151
81415W        W53730  43.474  12.283  12.499
81416W        W53731  21.120   0.394   2.677
81417W        W53732   7.626  34.457   0.294
81418W        W53733  34.898  29.555   0.858
81419W        W53734   4.563  27.848  12.202
81420W        W53735  19.336   1.016  14.762
81421W        W53736  15.671  31.192  13.481
81422W        W53737  37.818  27.784  14.502
81423W        W53738  19.163   3.873  10.541
81424W        W53739  34.377  33.301  10.540
81425W        W53740  40.914   2.974   0.408
81426W        W53741  43.421  16.850   0.901
81427W        W53742   0.457  44.437   3.071
81428W        W53743  15.223  22.290  12.602
81429W        W53744  44.802  26.697  11.588
81430W        W53745  27.546  24.893  11.543
81431W        W53746  13.215  26.962   0.141
81432W        W53747  35.469   1.342   2.867
81433W        W53748   4.158   7.402   0.025
81434W        W53749  11.891  32.742   2.929
81435W        W53750  14.252   4.942   4.221
81436W        W53751  39.416  35.189   3.604
81437W        W53752   1.264  27.979   4.754
81438W        W53753  43.493  22.215   3.726
81439W        W53754  38.114   2.355   4.328
81440W        W53755   7.514   7.284  11.113
81441W        W53756  22.027  42.767   3.656
81442W        W53757  35.081   7.569   9.975
81443W        W53758  12.587  23.457   3.683
81444W        W53759   0.130  30.451  12.650
81445W        W53760   6.706  32.976  10.728
81446W        W53761  17.656  28.277   2.337
81447W        W53762  12.271   0.497  12.325
81448W        W53763  21.255  44.925  11.630
81449W        W53764  42.309   2.494   4.697
81450W        W53765  31.206   6.969   0.411
81451W        W53766  42.861  33.666   3.259
81452W        W53767  19.703  21.056   3.593
81453W        W53768  30.228  23.066  14.560
81454W        W53769   3.671  44.390  14.773
81455W        W53770  42.418   4.255  13.564
81456W        W53771  25.041  25.216   1.291
81457W        W53772  25.458  29.963   0.425
81458W        W53773  26.487  23.491   0.458
81459W        W53774  41.309  35.505   1.753
81460W        W53775  16.150  23.110   4.781
81461W        W53776   7.203  40.980  12.066
81462W        W53777   1.796  36.549   5.623
81463W        W53778  39.044  43.134  11.407
81464W        W53779  24.828   4.837   9.668
81465W        W53780  15.910   1.319   0.798
81466W        W53781  21.742  20.425   0.765
81467W        W53782  23.596  22.532   0.870
81468W        W53783  20.951   3.420   3.721
81469W        W53784   7.605  35.432  14.509
81470W        W53785  28.136  12.160   0.922
81471W        W53786  36.018  14.630  13.847
81472W        W53787  38.902  35.870   4.607
81473W        W53788   3.898  25.644   3.427
81474W        W53789  19.655  44.484   4.685
81475W        W53790  16.101  12.128   4.148
81476W        W53791  42.496  21.468   3.384
81477W        W53792  38.590  40.282   4.957
81478W        W53793  11.647  30.214   1.966
81479W        W53794   3.436  11.878  14.185
81480W        W53795  41.007  23.433  13.312
81481W        W53796  39.676  32.657  14.758
81482W        W53797  10.403  28.739  10.445
81483W        W53798  23.289  13.808  13.109
81484W        W53799  42.778  10.222  10.667
81485W        W53800   6.122  40.989   4.796
81486W        W53801  26.473   7.208  12.322
81487W        W53802  24.151  29.713   2.735
81488W        W53803   3.281  36.399  11.230
81489W        W53804  17.998  43.090   3.116
81490W        W53805  25.512  27.590  14.804
81491W        W53806  36.684  17.721   1.369
81492W        W53807   6.208   5.341   1.775
81493W        W53808  43.370  10.439  13.036
81494W        W53809  15.724  15.757  12.409
81495W        W53810  40.918  13.637  10.793
81496W        W53811  21.162  17.552  11.696
81497W        W53812  44.257  35.626  11.225
81498W        W53813  11.705  39.408  11.644
81499W        W53814   7.711  30.667   1.521
81500W        W53815  43.320  10.272  14.721
81501W        W53816   7.389  43.052  12.883
81502W        W53817  33.827  28.390  14.739
81503W        W53818  32.569   2.213  10.783
81504W        W53819  43.247  44.598  11.101
81505W        W53820   8.724  39.378   0.982
81506W        W53821   6.827   3.766  11.106
81507W        W53822  38.000  33.221   3.595
81508W        W53823  25.048   0.771   2.436
81509W        W53824  21.993  16.685   0.245
81510W        W53825  39.288  33.048   4.546
81511W        W53826  42.372  38.785  10.007
81512W        W53827  32.902  21.197   0.334
81513W        W53828  42.805  44.641  11.325
81514W        W53829  30.933  43.060   4.191
81515W        W53830  22.699  23.225  11.604
81516W        W53831   2.890  24.182  12.785
81517W        W53832  12.766  21.321  11.576
81518W        W53833  13.702  19.510  13.475
81519W        W53834  20.613  27.060  14.761
81520W        W53835  22.084  12.153   1.969
81521W        W53836   1.832  16.574   0.080
81522W        W53837  23.014  30.028  10.942
81523W        W53838  23.658   6.806  11.491
81524W        W53839   3.967  19.374  10.589
81525W        W53840  36.857  22.533  13.036
81526W        W53841  36.631  42.149  14.573
81527W        W53842  33.127  24.091   0.909
81528W        W53843   0.621  19.896   3.957
81529W        W53844   7.639  25.578   4.543
81530W        W53845  22.209  19.037   4.894
81531W        W53846  19.155  19.829  12.102
81532W        W53847  16.564  24.547  14.850
81533W        W53848  29.984  40.364   1.469
81534W        W53849  15.828  14.919  11.120
81535W        W53850  16.254  11.149   4.093
81536W        W53851  27.970  23.545  11.595
81537W        W53852  24.722   6.909   3.831
81538W        W53853  38.539  44.495   0.326
81539W        W53854  39.624   7.262   2.362
81540W        W53855  38.665  23.210   4.825
81541W        W53856  19.531  44.520  11.500
81542W        W53857  15.338   0.514   3.690
81543W        W53858  34.575  24.351   0.478
81544W        W53859  24.158  23.874  12.045
81545W        W53860  43.486   4.153  13.803
81546W        W53861  21.023  38.965  10.119
81547W        W53862  10.192  33.842   4.729
81548W        W53863   1.863  16.072  14.907
81549W        W53864  37.972  16.038   3.738
81550W        W53865  37.210  40.241   0.504
81551W        W53866  13.697  27.517  14.839
81552W        W53867  23.882   4.864  11.998
81553W        W53868  25.039  24.931  11.464
81554W        W53869   1.815  41.028  13.750
81555W        W53870   8.811   0.568   3.788
81556W        W53871  22.081   3.957   2.284
81557W        W53872  19.095  39.319  10.528
81558W        W53873  26.718  15.085  14.358
81559W        W53874   7.406  40.817   1.846
81560W        W53875  41.847  27.474  10.801
81561W        W53876  23.539  27.141  13.563
81562W        W53877  29.219   6.277   1.506
81563W        W53878  32.174  19.771  12.815
81564W        W53879  26.989  24.250   3.936
81565W        W53880   9.171   5.742  13.519
81566W        W53881  16.619   1.378   1.228
81567W        W53882  37.476  35.572  14.672
81568W        W53883   6.114  38.405   2.545
81569W        W53884   9.755  33.495   0.709
81570W        W53885  34.976  38.588  12.867
81571W        W53886  40.797  10.927  14.398
81572W        W53887   1.954  38.363  11.659
81573W        W53888  39.436   3.639   4.099
81574W        W53889  11.756  18.569  10.677
81575W        W53890   3.098   0.933   3.794
81576W        W53891  34.892  39.617  14.032
81577W        W53892  44.104   8.727   3.806
81578W        W53893  26.441   3.625   3.259
81579W        W53894  37.029   7.492  12.905
81580W        W53895   5.768  22.974   2.710
81581W        W53896  34.393  37.489   4.498
81582W        W53897   7.191  33.590  11.161
81583W        W53898  43.380  42.375  12.853
81584W        W53899  19.754  37.398  11.609
81585W        W53900   3.908  43.553   1.733
81586W        W53901  19.792  36.397  10.664
81587W        W53902  37.377  10.241   3.847
81588W        W53903  16.730  27.037   0.856
81589W        W53904  31.447   0.442   0.209
81590W        W53905  14.733  39.056  13.841
81591W        W53906  23.965  30.452   0.745
81592W        W53907  24.894   3.892  14.414
81593W        W53908   9.265  17.057   0.470
81594W        W53909  43.940  23.014  10.862
81595W        W53910  30.075   6.128  13.415
81596W        W53911  22.063  13.218  12.901
81597W        W53912  16.259  33.863  14.271
81598W        W53913   8.319  17.105   1.210
81599W        W53914  41.912   4.101  11.545
81600W        W53915  14.785  17.631  12.796
81601W        W53916   3.269   5.810  14.427
81602W        W53917   7.029   3.854   0.791
81603W        W53918  20.859  17.245  13.561
81604W        W53919  30.473  27.517  13.183
81605W        W53920  28.900  21.618  14.952
81606W        W53921  25.362  34.314   9.994
81607W        W53922   2.416  33.483  12.408
81608W        W53923   0.464  21.571   2.767
81609W        W53924  40.523  44.356  11.573
81610W        W53925  31.616  37.902  13.268
81611W        W53926  25.222  39.517   4.244
81612W        W53927  31.161  28.738   0.295
81613W        W53928  33.482   0.797   4.770
81614W        W53929  23.277  10.650   3.690
81615W        W53930  30.443  40.570  11.630
81616W        W53931  12.807  24.770  11.157
81617W        W53932  36.512   8.981  14.940
81618W        W53933  29.644  40.636   3.149
81619W        W53934  21.506   0.639  11.442
81620W        W53935  32.023  32.670   4.270
81621W        W53936  31.688   6.754  10.966
81622W        W53937  44.420  31.700   4.426
81623W        W53938  28.385  13.673   0.317
81624W        W53939  26.750  13.573   0.300
81625W        W53940  35.812  34.855   2.212
81626W        W53941  26.556   9.225   5.105
81627W        W53942  41.334  27.141   1.162
81628W        W53943  44.322   2.347   0.313
81629W        W53944  28.952  39.010   4.579
81630W        W53945  19.640   7.732  12.280
81631W        W53946  13.333   9.111  11.696
81632W        W53947  40.471  32.781   4.972
81633W        W53948  22.413   9.766  11.681
81634W        W53949  19.720   8.659   0.250
81635W        W53950   0.583   4.720   1.648
81636W        W53951  43.008  10.210   4.262
81637W        W53952   2.125  39.469  11.022
81638W        W53953  19.379  24.273  12.015
81639W        W53954  28.060  20.053   0.089
81640W        W53955  10.108  19.634  14.270
81641W        W53956  28.789  36.025  12.402
81642W        W53957   3.052  33.676   0.929
81643W        W53958  22.213   8.917   4.063
81644W        W53959  15.050  35.596  11.509
81645W        W53960  40.335  11.834   4.532
81646W        W53961  35.749  17.945   0.688
81647W        W53962  26.672  23.056  11.205
81648W        W53963  34.186   6.485   4.492
81649W        W53964  43.829   5.398   4.432
81650W        W53965  25.983  43.796  11.099
81651W        W53966   4.862  13.622  12.104
81652W        W53967  39.601  20.657   2.429
81653W        W53968  35.073  22.447   3.746
81654W        W53969  38.857  44.032   3.624
81655W        W53970  18.733   7.889   0.860
81656W        W53971  17.629  15.170  14.392
81657W        W53972   5.739   7.371  11.053
81658W        W53973   7.424  11.855  14.817
81659W        W53974   8.791  32.116   2.738
81660W        W53975  10.428  33.260  13.915
81661W        W53976   6.693   3.713  14.797
81662W        W53977  22.714  34.142   4.363
81663W        W53978  16.781   8.844  14.513
81664W        W53979  32.101  15.733   3.694
81665W        W53980  11.897  13.944   1.203
81666W        W53981  44.260  15.120  14.865
81667W        W53982   9.775  42.448  12.803
81668W        W53983  41.255  11.172   3.599
81669W        W53984  30.404  24.298  11.431
81670W        W53985  38.149  39.504   4.631
81671W        W53986   1.679  30.317   4.381
81672W        W53987  39.330  40.821  14.667
81673W        W53988  37.608   6.349   2.297
81674W        W53989  41.447  35.842   3.874
81675W        W53990  20.525  18.234   0.809
81676W        W53991  33.807  18.762   2.421
81677W        W53992  11.738  20.656  14.423
81678W        W53993  31.446  26.149   3.802
81679W        W53994  44.490  35.709  14.424
81680W        W53995  40.083  22.704   1.329
81681W        W53996  36.514  18.465  12.906
81682W        W53997   5.592  31.911  11.017
81683W        W53998  38.788   9.651   4.106
81684W        W53999  20.190   1.472   1.692
81685W        W54000  29.635  17.290   2.391
81686W        W54001  38.150  33.617  14.981
81687W        W54002   2.299   9.129   1.923
81688W        W54003  23.211  20.438  10.309
81689W        W54004  27.558   8.175  11.972
81690W        W54005   6.307  30.426   3.657
81691W        W54006   7.207  23.610  14.779
81692W        W54007  29.201  23.195  14.465
81693W        W54008  26.600   7.850   3.314
81694W        W54009   5.269  44.126   1.807
81695W        W54010  13.850   1.038  11.340
81696W        W54011  36.904  38.942  11.981
81697W        W54012  10.334  42.947   2.832
81698W        W54013   9.359   0.552   1.281
81699W        W54014   3.892  18.297  13.360
81700W        W54015   7.300   8.633  13.407
81701W        W54016  16.533  14.579   0.934
81702W        W54017  16.564  41.979  12.473
81703W        W54018  37.758  22.213   2.859
81704W        W54019   3.699   6.206  12.443
81705W        W54020  15.310  35.452   4.656
81706W        W54021  17.044  44.227  13.366
81707W        W54022  23.956  10.398   2.635
81708W        W54023  21.220   3.115   1.867
81709W        W54024  28.061  21.436   1.872
81710W        W54025  18.156  35.374   3.588
81711W        W54026   7.317  26.766  14.819
81712W        W54027  31.435   6.753  11.437
81713W        W54028  29.023   8.274   4.397
81714W        W54029   9.725  16.086   1.983
81715W        W54030  24.742   4.691  13.796
81716W        W54031  16.006  30.188   4.934
81717W        W54032  32.644  32.609  13.905
81718W        W54033  37.365  13.581   4.493
81719W        W54034   3.881  28.034  11.041
81720W        W54035  24.651  12.561  12.409
81721W        W54036   6.704   0.364  11.918
81722W        W54037   5.864   1.317   4.815
81723W        W54038  18.072   7.931   2.183
81724W        W54039  13.220  17.988   2.339
81725W        W54040  42.329  30.430  12.849
81726W        W54041   8.340  40.361   2.725
81727W        W54042   6.168  33.121  11.956
81728W        W54043  12.107  24.691  12.344
81729W        W54044  40.325  31.560  14.892
81730W        W54045   9.449   2.457   3.637
81731W        W54046   1.659  33.976  12.303
81732W        W54047  38.585  30.700  10.562
81733W        W54048   0.220  43.711   3.188
81734W        W54049  36.311  42.352   2.280
81735W        W54050  29.650  21.979   3.774
81736W        W54051  37.567   5.667   0.330
81737W        W54052  13.562  22.978   4.174
81738W        W54053   4.753  29.012   0.790
81739W        W54054  31.836  43.382   1.348
81740W        W54055  24.567  38.951   4.772
81741W        W54056  11.625  14.875   2.817
81742W        W54057  36.019  20.462  13.890
81743W        W54058  25.527  32.435   5.080
81744W        W54059  20.632   9.743   9.694
81745W        W54060  35.809  22.255  13.313
81746W        W54061  32.664  35.915  11.548
81747W        W54062  36.355  14.285   3.892
81748W        W54063  12.903  44.944   2.225
81749W        W54064  29.533  44.041   0.446
81750W        W54065  39.920  10.402  14.628
81751W        W54066  43.194  24.140   5.121
81752W        W54067  10.728  37.190  14.768
81753W        W54068  23.673  35.585   1.661
81754W        W54069   0.360  13.875  11.942
81755W        W54070  35.450  31.892  12.400
81756W        W54071   5.299   5.279   0.117
81757W        W54072  23.956  37.831   0.367
81758W        W54073  44.006  27.127  12.426
81759W        W54074  10.257   8.328   3.113
81760W        W54075  14.776  14.565  10.745
81761W        W54076  19.110  14.376   1.855
81762W        W54077   1.781  31.505  10.681
81763W        W54078  37.490  28.091  13.743
81764W        W54079  37.538  39.314   1.597
81765W        W54080   9.695   5.834  13.448
81766W        W54081  42.302   9.099  13.893
81767W        W54082  27.366  25.070  13.419
81768W        W54083  26.563  22.472  14.394
81769W        W54084  27.688  37.974   4.653
81770W        W54085   0.046  13.406  12.903
81771W        W54086   5.122   5.321   4.148
81772W        W54087  43.255  26.955  13.592
81773W        W54088   3.380  34.035   0.743
81774W        W54089  38.394  22.770   2.817
81775W        W54090  28.095  10.431   3.271
81776W        W54091   4.087   7.365   2.844
81777W        W54092  23.499  33.655  12.928
81778W        W54093  10.781   9.877   4.104
81779W        W54094  21.254  14.143  11.570
81780W        W54095  34.906  43.795  11.487
81781W        W54096   0.873  34.592   4.128
81782W        W54097  10.390  22.865   3.756
81783W        W54098  28.081  28.642  13.440
81784W        W54099   7.888   2.766  14.489
81785W        W54100  27.739  15.385  12.043
81786W        W54101  34.167   8.942  14.770
81787W        W54102  12.844  20.191   2.696
81788W        W54103  20.756  28.662   3.197
81789W        W54104   5.712  33.716   1.836
81790W        W54105  32.034  31.497  13.081
81791W        W54106  13.205  28.229  10.606
81792W        W54107   5.662  30.076   0.258
81793W        W54108  18.264  28.821  12.619
81794W        W54109  13.510  28.916   4.600
81795W        W54110   8.341  24.736  14.309
81796W        W54111  28.687  34.564  12.034
81797W        W54112  38.562  23.146  12.441
81798W        W54113  18.942   0.368  11.514
81799W        W54114  26.732  39.603   0.796
81800W        W54115  33.432  21.099   4.282
81801W        W54116   7.345  29.531  13.247
81802W        W54117  23.019  43.399   2.988
81803W        W54118  42.339  43.141  12.182
81804W        W54119   8.335  32.476  12.860
81805W        W54120  31.597  34.720  13.952
81806W        W54121  18.204  28.323  10.044
81807W        W54122  11.205  37.530   2.308
81808W        W54123   0.061  19.285   4.167
81809W        W54124  23.944   0.674   0.348
81810W        W54125  32.976  40.852   2.580
81811W        W54126  30.916  36.415   2.778
81812W        W54127  14.681  16.280  11.617
81813W        W54128  39.467   4.589  13.147
81814W        W54129   6.698   5.905  10.540
81815W        W54130   7.236  33.861  12.890
81816W        W54131  32.479  37.843  14.940
81817W        W54132  14.827  33.392   4.915
81818W        W54133  17.528  18.581  11.442
81819W        W54134   7.685  26.034   0.309
81820W        W54135  23.605  31.999  13.781
81821W        W54136   4.338  33.965   0.503
81822W        W54137   9.753  42.238  11.285
81823W        W54138  10.938  16.067   2.931
81824W        W54139   7.397  29.844  12.839
81825W        W54140  40.279  28.887  11.935
81826W        W54141  21.027  19.579   1.330
81827W        W54142   7.356  29.349   0.905
81828W        W54143  38.589   5.058   4.140
81829W        W54144  41.754  17.556   2.339
81830W        W54145  21.814  34.805   3.355
81831W        W54146   6.704  25.474  13.876
81832W        W54147  20.817  42.476   2.710
81833W        W54148  31.601   7.730   0.290
81834W        W54149  28.713  41.473   0.353
81835W        W54150  22.969  25.970   1.880
81836W        W54151  32.023   2.776   0.046
81837W        W54152  25.084  20.192  12.010
81838W        W54153  37.548  12.078   4.165
81839W        W54154  43.105  33.111  10.097
81840W        W54155   0.919   4.648   0.855
81841W        W54156  27.072  26.196  10.455
81842W        W54157  13.254  24.695   4.569
81843W        W54158  36.731  40.208  12.095
81844W        W54159  28.142  17.692   3.651
81845W        W54160  25.593  28.479   3.164
81846W        W54161  32.965  26.040  12.545
81847W        W54162  16.481  40.026  10.200
81848W        W54163  37.340  35.041  11.154
81849W        W54164  29.609  16.321   0.904
81850W        W54165  19.522  12.081   3.677
81851W        W54166  10.569   0.829  12.916
81852W        W54167  19.046   6.254   0.791
81853W        W54168  25.030  44.633  11.379
81854W        W54169  32.995  15.447  12.504
81855W        W54170  39.541  23.727   2.336
81856W        W54171  31.092   5.463  14.457
81857W        W54172  23.802  31.650   3.571
81858W        W54173  30.800   9.304  14.310
81859W        W54174  22.221  37.426   2.271
81860W        W54175  19.492   9.414   3.555
81861W        W54176  37.484  22.247  11.999
81862W        W54177  21.490  18.029  10.843
81863W        W54178  22.136  25.589   0.217
81864W        W54179   7.757  30.648   2.951
81865W        W54180   0.545  36.088  10.105
81866W        W54181  33.188  42.445   0.765
81867W        W54182  32.939  20.332   3.773
81868W        W54183   9.419  36.061  11.593
81869W        W54184  28.708  18.328   1.504
81870W        W54185  41.490  35.063  12.156
81871W        W54186  14.808  15.782   4.141
81872W        W54187  14.040  26.703  10.436
81873W        W54188  42.910  22.800   1.081
81874W        W54189  16.785  25.970  14.894
81875W        W54190  14.548  33.484  14.821
81876W        W54191  22.022  43.094  14.497
81877W        W54192  31.470  24.016   0.963
81878W        W54193   3.203  43.345  14.430
81879W        W54194   1.310   7.220  12.801
81880W        W54195   3.919  16.181   4.118
81881W        W54196  31.560  10.162   3.679
81882W        W54197   5.276  38.865  10.438
81883W        W54198  15.577  10.559  12.488
81884W        W54199  33.621  21.984  14.467
81885W        W54200  35.955  41.171  12.038
81886W        W54201  11.581   4.310  14.416
81887W        W54202  16.581  34.724  11.888
81888W        W54203   3.029  33.042  14.152
81889W        W54204  22.506  24.043  13.938
81890W        W54205  27.484   2.434   4.708
81891W        W54206   6.671  33.521  11.150
81892W        W54207   8.309  35.177   0.860
81893W        W54208  38.420  16.353  12.922
81894W        W54209   1.786  35.912  12.579
81895W        W54210  27.516  10.077  11.595
81896W        W54211  21.757  28.122   3.753
81897W        W54212  39.983  32.586   3.359
81898W        W54213  22.567  33.312  13.891
81899W        W54214   4.628  39.822   0.053
81900W        W54215  44.534  15.407  11.530
81901W        W54216  17.796   1.671  13.837
81902W        W54217  30.508  43.767   4.602
81903W        W54218  33.534  36.089  14.822
81904W        W54219  23.574   3.602  13.979
81905W        W54220  18.811  12.770   3.762
81906W        W54221  11.784  39.478   2.615
81907W        W54222   9.238   8.746  12.235
81908W        W54223  35.379  38.567   3.357
81909W        W54224  21.622   4.303   0.227
81910W        W54225  21.858   8.250  14.047
81911W        W54226  30.439  36.382  14.857
81912W        W54227   0.560   2.982   2.391
81913W        W54228   4.756  38.367   4.906
81914W        W54229   7.325   4.516   3.132
81915W        W54230  11.767  42.056  13.385
81916W        W54231  42.864  25.119   0.902
81917W        W54232  29.814  11.107  14.575
81918W        W54233   5.928  23.173  14.716
81919W        W54234  27.579  29.644   0.367
81920W        W54235  21.616   8.844  10.689
81921W        W54236  19.588  13.662  12.477
81922W        W54237  44.465  30.009   3.404
81923W        W54238  43.699  44.997   0.134
81924W        W54239  42.828  34.074   1.566
81925W        W54240  13.727   1.899  14.009
81926W        W54241  19.995  36.396  12.886
81927W        W54242  13.747  39.643   0.768
81928W        W54243  23.511  20.479  11.567
81929W        W54244  14.769   1.687   4.162
81930W        W54245  35.625   6.420  11.141
81931W        W54246  20.612  39.375  13.626
81932W        W54247   4.626  21.110   4.162
81933W        W54248  42.939  10.853   3.094
81934W        W54249   3.228   9.142  13.816
81935W        W54250   4.008   3.882  10.732
81936W        W54251  35.385  10.384  14.021
81937W        W54252   8.437   2.269  11.597
81938W        W54253  14.426   0.853   2.131
81939W        W54254  43.784   5.234  13.396
81940W        W54255   2.147  15.092   0.819
81941W        W54256  29.376  28.634   0.338
81942W        W54257  14.160  21.040   0.351
81943W        W54258  18.744  39.811   2.720
81944W        W54259   1.781  36.797   1.229
81945W        W54260  20.119  22.787   3.684
81946W        W54261  44.170   6.231  13.146
81947W        W54262  21.861  38.708   4.276
81948W        W54263  37.965  11.134   2.401
81949W        W54264  19.153  40.766   3.706
81950W        W54265  42.903  26.235  13.016
81951W        W54266   1.945   3.667   0.475
81952W        W54267  44.900  20.679   2.949
81953W        W54268  20.317  22.705   0.001
81954W        W54269  14.332  29.453  12.109
81955W        W54270  18.238  32.725   4.284
81956W        W54271  21.249  14.144  10.236
81957W        W54272  27.350  13.566  12.207
81958W        W54273  37.751  19.811   4.046
81959W        W54274  25.487   2.447   1.906
81960W        W54275  28.306   0.683   4.526
81961W        W54276  42.776  42.095   5.083
81962W        W54277  22.742  10.767  10.663
81963W        W54278  24.330  10.676   3.335
81964W        W54279   3.674  25.720  13.995
81965W        W54280  19.154  14.701  13.703
81966W        W54281  22.348   6.831  10.540
81967W        W54282   0.191  13.641  14.766
81968W        W54283   7.825   1.492   2.810
81969W        W54284  19.724  24.512   3.175
81970W        W54285  38.490  20.888  14.809
81971W        W54286  16.867  22.312  10.986
81972W        W54287  19.761  29.732  11.554
81973W        W54288  41.925  28.924  10.651
81974W        W54289  34.895  26.731   3.019
81975W        W54290  39.970  36.395   3.127
81976W        W54291   6.858  28.388  11.578
81977W        W54292   6.162  20.160   1.028
81978W        W54293  13.763  25.294   0.205
81979W        W54294   8.196   1.315   4.156
81980W        W54295  34.258   8.416  14.845
81981W        W54296  17.731  43.789  13.081
81982W        W54297  37.496  10.100  11.605
81983W        W54298   3.748  26.467   4.910
81984W        W54299  31.685  16.598  10.676
81985W        W54300  41.858  35.946  14.970
81986W        W54301  32.671   1.475  12.052
81987W        W54302  35.128  28.326   3.569
81988W        W54303   9.257  31.430   4.416
81989W        W54304   9.896   6.408  13.985
81990W        W54305  31.556  32.940   0.933
81991W        W54306  13.747  41.065   1.267
81992W        W54307  19.014  20.023   0.547
81993W        W54308   3.869  33.537  13.510
81994W        W54309   4.711   1.937   5.428
81995W        W54310   1.667  15.567   4.490
81996W        W54311  29.142  41.856   3.174
81997W        W54312   2.183  19.177   3.897
81998W        W54313  15.586  35.115   1.505
81999W        W54314  27.431   8.329  12.963
82000W        W54315  32.499  19.773  11.590
82001W        W54316  34.281   4.808  10.676
82002W        W54317  22.017   1.334   4.557
82003W        W54318  40.566  41.303  11.716
82004W        W54319  26.045  12.772   0.722
82005W        W54320  18.969  17.149   4.900
82006W        W54321  22.505  42.374  14.462
82007W        W54322  43.432  21.301  11.265
82008W        W54323  29.614  14.544  11.230
82009W        W54324  25.711  10.412  12.059
82010W        W54325  34.861  11.172  14.911
82011W        W54326   3.160  19.736  10.705
82012W        W54327  16.271  38.941  12.059
82013W        W54328   6.847  14.137  13.810
82014W        W54329   3.367  17.730   3.561
82015W        W54330  13.378  43.187  11.550
82016W        W54331  22.787  31.790  14.699
82017W        W54332  14.291  34.525  13.760
82018W        W54333  40.794  30.517  11.570
82019W        W54334   9.368  31.321   0.647
82020W        W54335  37.057   1.622   0.011
82021W        W54336  38.066   4.983  13.303
82022W        W54337  19.046  20.607   1.314
82023W        W54338  33.451  12.832  13.914
82024W        W54339  27.220  22.727   2.346
82025W        W54340  27.971  38.058  12.042
82026W        W54341  43.840  40.633   1.582
82027W        W54342  40.752  20.284   0.351
82028W        W54343  27.043   1.848  13.321
82029W        W54344  16.161  33.377   2.635
82030W        W54345  42.839  10.668   0.953
82031W        W54346  13.447  15.164   3.633
82032W        W54347  37.108  26.736  13.834
82033W        W54348  40.105   0.038  13.841
82034W        W54349  25.938  12.277   1.212
82035W        W54350  40.407   6.702  14.874
82036W        W54351  25.204  15.360  11.957
82037W        W54352  17.889   0.214   0.702
82038W        W54353  33.531  33.504  12.421
82039W        W54354  40.966  25.078  12.439
82040W        W54355  16.378  20.055  14.092
82041W        W54356  15.206  18.295   2.803
82042W        W54357  36.076  28.620   2.732
82043W        W54358  38.178  32.111  12.957
82044W        W54359  38.943  29.458  14.076
82045W        W54360  33.375  20.123   2.703
82046W        W54361  19.266  38.989   1.889
82047W        W54362  28.250  17.704   0.082
82048W        W54363  22.527  24.464  13.628
82049W        W54364  23.160   0.885  14.001
82050W        W54365  17.712  26.105  14.939
82051W        W54366   1.519  35.077   2.326
82052W        W54367  44.950   1.690   0.228
82053W        W54368  34.670  17.229   2.864
82054W        W54369  33.625  29.505   4.569
82055W        W54370   6.987  17.561   4.077
82056W        W54371  36.897   3.058   4.874
82057W        W54372  32.515   3.284  11.836
82058W        W54373  33.579  30.569  12.986
82059W        W54374  24.601  12.421  13.368
82060W        W54375  25.672  42.842   3.253
82061W        W54376  35.150   8.157  14.681
82062W        W54377   1.666  41.773  14.425
82063W        W54378  31.915  38.319  13.893
82064W        W54379  10.508   2.128  12.336
82065W        W54380   7.773  42.349  14.684
82066W        W54381   3.951  34.719  12.399
82067W        W54382  36.088  23.459   4.800
82068W        W54383  38.512  31.388   2.027
82069W        W54384   1.187  23.538   4.272
82070W        W54385  38.958   1.773   0.074
82071W        W54386  35.341   5.842  11.970
82072W        W54387   4.216   7.945   1.379
82073W        W54388   6.204  27.223   3.353
82074W        W54389  39.991  38.623   3.361
82075W        W54390  43.022  41.280   3.938
82076W        W54391  25.117  29.119  12.470
82077W        W54392  13.888  42.284  14.281
82078W        W54393  15.774  26.251  14.720
82079W        W54394  14.024  11.120  13.367
82080W        W54395   5.495  29.502   2.019
82081W        W54396  22.088   7.831   4.050
82082W        W54397  27.621  12.514   0.414
82083W        W54398   2.934  30.591   3.744
82084W        W54399   1.089  15.859  14.416
82085W        W54400  14.476  33.882  11.668
82086W        W54401   3.124  35.999   0.464
82087W        W54402  32.949  16.672   1.305
82088W        W54403  24.643   7.625   0.346
82089W        W54404  16.027  19.729  12.827
82090W        W54405  14.187  41.724   0.690
82091W        W54406   2.961   1.918  12.064
82092W        W54407  22.968  16.051   3.987
82093W        W54408  16.336  20.110  13.125
82094W        W54409  25.637  40.707   1.722
82095W        W54410  22.714   8.331  14.111
82096W        W54411  39.855   3.618   4.519
82097W        W54412  34.144   0.904  11.249
82098W        W54413   5.727  41.748   3.247
82099W        W54414  40.081  21.045  12.691
82100W        W54415  14.566  22.846   1.212
82101W        W54416  27.485  43.682   0.432
82102W        W54417  35.938   9.856  11.484
82103W        W54418  27.374  24.549   1.007
82104W        W54419  33.973  40.738  11.537
82105W        W54420  18.574  38.559   4.505
82106W        W54421   9.178  14.080   2.770
82107W        W54422  12.456  14.422   0.761
82108W        W54423  26.049  25.603  14.910
82109W        W54424  22.420  38.587   4.211
82110W        W54425  18.078  35.142  13.436
82111W        W54426  17.105  35.314  12.554
82112W        W54427  32.963   6.786  14.554
82113W        W54428  33.517  40.278   2.180
82114W        W54429  38.106   0.919  10.764
82115W        W54430  19.123  26.236  14.400
82116W        W54431  25.068   5.745   1.648
82117W        W54432  35.085  14.661   3.868
82118W        W54433   1.926   3.839  11.893
82119W        W54434  35.169  28.432  11.984
82120W        W54435   7.341  39.558   0.684
82121W        W54436  16.253  11.914   2.747
82122W        W54437  43.577   2.105   1.889
82123W        W54438  26.521  10.720   3.124
82124W        W54439  39.892   6.791  14.745
82125W        W54440  38.981  15.754   4.319
82126W        W54441  28.005   1.327   9.920
82127W        W54442  44.379  26.765  13.032
82128W        W54443  19.050   5.788  10.506
82129W        W54444  38.060  30.691   4.201
82130W        W54445  32.498  40.713   4.824
82131W        W54446  43.445  21.798   2.409
82132W        W54447  44.814  44.235   2.890
82133W        W54448  11.126   8.389   0.335
82134W        W54449  24.555  39.424  12.954
82135W        W54450  13.760  34.597   4.378
82136W        W54451  27.106  28.080   0.994
82137W        W54452  36.763  33.425   2.789
82138W        W54453  26.766  43.097   4.519
82139W        W54454  26.616   7.761   0.983
82140W        W54455  37.168   9.335  13.044
82141W        W54456  21.925  41.966   4.667
82142W        W54457  18.995  23.686  14.268
82143W        W54458  16.597  23.136  14.994
82144W        W54459  41.627  17.293  10.697
82145W        W54460  12.981  25.140   4.568
82146W        W54461  28.945  17.016  13.125
82147W        W54462  27.580  38.117   3.311
82148W        W54463  41.842   0.636  10.532
82149W        W54464  41.524   3.785   4.063
82150W        W54465  18.830  25.085  11.749
82151W        W54466   8.950  11.533  10.302
82152W        W54467   8.654  12.868   0.252
82153W        W54468  14.096  18.749  13.635
82154W        W54469   0.830  30.515   3.647
82155W        W54470  19.247  15.154  13.921
82156W        W54471  36.893  31.246   0.723
82157W        W54472  15.608  41.598   2.630
82158W        W54473  23.018  26.460  13.028
82159W        W54474   6.708  33.349   1.961
82160W        W54475  20.844  33.616  12.872
82161W        W54476  36.881  16.520  10.727
82162W        W54477  21.775   5.310   3.327
82163W        W54478  14.144  32.396   2.175
82164W        W54479   2.374  40.827  10.672
82165W        W54480  28.599  14.886  10.514
82166W        W54481  15.744  24.507  12.159
82167W        W54482  12.306  12.777   0.032
82168W        W54483  39.233  38.099  14.363
82169W        W54484  22.056  13.736  14.398
82170W        W54485  33.005  18.652   1.426
82171W        W54486  43.871  17.869  12.486
82172W        W54487  11.510  32.370   1.239
82173W        W54488  44.375  23.061   1.152
82174W        W54489  38.020  11.997  10.270
82175W        W54490  18.591   6.922  13.484
82176W        W54491  26.725  29.030   4.187
82177W        W54492  11.741   8.339  12.059
82178W        W54493  12.720  12.840   1.746
82179W        W54494   3.673  21.827  11.153
82180W        W54495  13.807  12.873  13.488
82181W        W54496  21.795  17.704   2.347
82182W        W54497  10.863  10.795   0.862
82183W        W54498  44.772  32.841  14.809
82184W        W54499  20.288   1.381  11.780
82185W        W54500  38.487  22.317   4.656
82186W        W54501   7.392  15.645   0.369
82187W        W54502   3.929   4.804   2.380
82188W        W54503  33.971  15.729   0.743
82189W        W54504   0.946  12.131  12.111
82190W        W54505   5.127  33.631   0.920
82191W        W54506  24.003   0.777   4.641
82192W        W54507  41.920  13.264  14.549
82193W        W54508   8.161   5.332   3.643
82194W        W54509  17.189  13.879   2.309
82195W        W54510  25.532  10.336  14.793
82196W        W54511  17.541   5.348  14.230
82197W        W54512   4.683  34.229   3.186
82198W        W54513  20.689  15.299   3.089
82199W        W54514  42.760   2.629   3.850
82200W        W54515   1.416  38.458  13.617
82201W        W54516  18.472  26.635  14.785
82202W        W54517  11.179  23.925  10.735
82203W        W54518   9.797  35.595  13.508
82204W        W54519   5.751  33.502  14.159
82205W        W54520  26.895  10.344  14.844
82206W        W54521  14.608  23.298   0.363
82207W        W54522  30.980  19.845   1.314
82208W        W54523  14.746  23.055   2.947
82209W        W54524  39.039  26.899   4.625
82210W        W54525  20.147  23.210   4.664
82211W        W54526  44.551  44.394  13.193
82212W        W54527  21.716  10.367  10.561
82213W        W54528  24.469  14.142  11.666
82214W        W54529   3.056  41.831  11.941
82215W        W54530  32.508  17.146   2.110
82216W        W54531  19.263  34.505   1.217
82217W        W54532  32.753  12.094   0.313
82218W        W54533  26.502  19.149  13.541
82219W        W54534  27.004  21.689   0.402
82220W        W54535   5.601   4.478  12.498
82221W        W54536   9.730   5.975  14.783
82222W        W54537  26.109  33.555   1.779
82223W        W54538  19.710  15.320  13.342
82224W        W54539  41.795  26.651   4.644
82225W        W54540  38.775  40.778  12.322
82226W        W54541  15.133  12.189  11.246
82227W        W54542   9.032  10.671  11.670
82228W        W54543  30.739  12.440   4.578
82229W        W54544  36.257  10.394   2.304
82230W        W54545   9.263   7.397  11.066
82231W        W54546  17.772  29.878  14.033
82232W        W54547  14.759  16.677   4.153
82233W        W54548  20.824  19.791   4.247
82234W        W54549  39.902  11.638  13.660
82235W        W54550  37.150   4.333  12.526
82236W        W54551  37.785   8.828  11.530
82237W        W54552  30.750  34.462  11.922
82238W        W54553  25.967   2.871  12.180
82239W        W54554  11.925  23.962  11.099
82240W        W54555  41.148  12.804  13.998
82241W        W54556   6.932  41.271   4.031
82242W        W54557  17.336  18.958  12.220
82243W        W54558   4.740  43.016   0.076
82244W        W54559  21.268  20.735  11.240
82245W        W54560  29.039  34.506   4.663
82246W        W54561  17.150  18.412  11.110
82247W        W54562  33.369  23.660  10.354
82248W        W54563  10.365  32.491  13.401
82249W        W54564   3.842  41.261   4.728
82250W        W54565  30.717  14.731  13.007
82251W        W54566  20.583  43.381   3.176
82252W        W54567   6.740  14.635  10.686
82253W        W54568  11.222  12.861   4.835
82254W        W54569  31.960  28.377  13.426
82255W        W54570   7.717   4.190   0.504
82256W        W54571   8.405   0.992  11.850
82257W        W54572  38.850  30.877  11.076
82258W        W54573  10.634   7.427   3.688
82259W        W54574  40.793  21.644   4.842
82260W        W54575  21.979  11.678   4.598
82261W        W54576  35.875  18.963   4.034
82262W        W54577  11.809  31.057   0.497
82263W        W54578  39.827  30.575   0.170
82264W        W54579  17.328   3.926   3.763
82265W        W54580  10.704  20.001   0.227
82266W        W54581  38.472  40.736   1.912
82267W        W54582  42.877  39.926   1.858
82268W        W54583  32.402  21.893   2.479
82269W        W54584  41.539  38.725   0.138
82270W        W54585  33.044   5.350  12.397
82271W        W54586  39.989  11.838   0.123
82272W        W54587   6.227   8.419   2.409
82273W        W54588  19.314  42.825  14.815
82274W        W54589   3.574  23.948   5.007
82275W        W54590   9.380  17.606   3.067
82276W        W54591  32.539  24.958   4.450
82277W        W54592  37.782  18.287  13.822
82278W        W54593  21.480  23.144   4.179
82279W        W54594   2.013   2.726  13.850
82280W        W54595   8.348  36.304  12.000
82281W        W54596  14.178  18.402   1.372
82282W        W54597  17.234  31.210   1.307
82283W        W54598  43.940  31.376   1.884
82284W        W54599  16.834  21.537   1.626
82285W        W54600  15.498   0.303  14.468
82286W        W54601  23.649  33.460   1.222
82287W        W54602   4.885   9.812  13.293
82288W        W54603  11.569  41.031   4.844
82289W        W54604  38.823  41.214   0.405
82290W        W54605   6.944  13.418   0.861
82291W        W54606   8.800  27.036  12.641
82292W        W54607  35.256   4.549   4.212
82293W        W54608   1.564  21.956  14.235
82294W        W54609  11.675  34.211   3.678
82295W        W54610  28.036   4.329   4.509
82296W        W54611  37.972   0.005  10.808
82297W        W54612  31.485  31.403  11.933
82298W        W54613   4.714  14.284   2.342
82299W        W54614  29.077  43.500  11.548
82300W        W54615  29.475  14.018   1.256
82301W        W54616  24.703  19.088  10.421
82302W        W54617  28.337  41.420  13.019
82303W        W54618  13.248  10.880  12.546
82304W        W54619  15.804  22.122   2.350
82305W        W54620   9.459  29.226   1.488
82306W        W54621   8.444  28.506  10.555
82307W        W54622  30.862  32.014  11.492
82308W        W54623  39.429   4.893   3.658
82309W        W54624  25.554  43.857  11.940
82310W        W54625   6.984   1.082   2.864
82311W        W54626   4.506   4.020   3.737
82312W        W54627  34.805  38.401  13.820
82313W        W54628  29.912   8.953   1.212
82314W        W54629  29.566  38.984  12.466
82315W        W54630  37.096  24.621   5.681
82316W        W54631  29.823  38.809   4.193
82317W        W54632  31.951  44.908   0.339
82318W        W54633   3.357  19.695   3.844
82319W        W54634  30.258  22.262   1.967
82320W        W54635   5.822  23.552  13.077
82321W        W54636  38.066  19.036  14.762
82322W        W54637  11.441  24.680   4.862
82323W        W54638  43.220  20.196   1.323
82324W        W54639   6.603  37.345   0.776
82325W        W54640  31.514   6.606   1.360
82326W        W54641  43.934  32.858   2.826
82327W        W54642  19.405  43.311   3.273
82328W        W54643  15.855  20.174  11.139
82329W        W54644  33.639  16.110  10.094
82330W        W54645   0.545   5.722  14.328
82331W        W54646  30.365   8.156   1.409
82332W        W54647   5.869  44.350   0.759
82333W        W54648   6.786   8.257   3.789
82334W        W54649   4.782   0.014  14.925
82335W        W54650  17.807  16.757  12.875
82336W        W54651  39.556  43.857  12.001
82337W        W54652  10.905  28.634   2.900
82338W        W54653  40.913   5.616  10.628
82339W        W54654   7.221  12.844  12.245
82340W        W54655  30.670  43.068  13.555
82341W        W54656  38.557  19.005  11.138
82342W        W54657  40.531  42.366  10.433
82343W        W54658  39.496  34.005   3.693
82344W        W54659  38.248  33.908   2.230
82345W        W54660  24.272  16.915  10.372
82346W        W54661   2.174   3.203  14.576
82347W        W54662   1.502  16.281   3.300
82348W        W54663  35.354  13.635   4.568
82349W        W54664  19.016  10.190   4.033
82350W        W54665  36.337  28.872  12.517
82351W        W54666   5.245  21.257  12.085
82352W        W54667   7.646  30.138   2.305
82353W        W54668  44.043   6.884   0.310
82354W        W54669  31.523   9.829   4.890
82355W        W54670   3.832  24.979  13.539
82356W        W54671  26.587  11.660  13.532
82357W        W54672   1.858  15.198   4.135
82358W        W54673   1.332  19.400   0.311
82359W        W54674   7.361   9.802  11.536
82360W        W54675  31.260   0.166   2.450
82361W        W54676   4.196  38.974  14.714
82362W        W54677  33.623  13.171  10.439
82363W        W54678  10.195  35.130   5.123
82364W        W54679  27.671  42.538  12.065
82365W        W54680  42.020  27.074   0.393
82366W        W54681  26.060  23.484   4.528
82367W        W54682  38.035  15.162  10.951
82368W        W54683  37.628  16.704   1.335
82369W        W54684   2.744  11.264   1.728
82370W        W54685  13.912  11.219  12.866
82371W        W54686  27.126  34.343  10.614
82372W        W54687  36.913  34.914  11.460
82373W        W54688  21.566  31.342  13.933
82374W        W54689  14.185  36.310   0.373
82375W        W54690  30.286   1.553  11.305
82376W        W54691  35.600  28.715   1.461
82377W        W54692  14.832  11.099  12.118
82378W        W54693  18.034   7.147  12.556
82379W        W54694  10.594  19.040   5.058
82380W        W54695   1.566   1.420  14.935
82381W        W54696  33.681   3.438   4.175
82382W        W54697   4.174  19.371   1.640
82383W        W54698  31.433  35.479  14.951
82384W        W54699   3.036   5.770  11.725
82385W        W54700  35.134  10.334  14.680
82386W        W54701  15.375  11.712  11.225
82387W        W54702  30.369  34.774  11.068
82388W        W54703  39.259  12.761  12.889
82389W        W54704  19.263  21.967   1.791
82390W        W54705  44.190  32.844   3.332
82391W        W54706   3.694  42.298  13.792
82392W        W54707  27.653  13.147   3.115
82393W        W54708   6.569  34.885   1.757
82394W        W54709  22.686  29.145  13.396
82395W        W54710  20.650  38.782   0.336
82396W        W54711   3.130  41.064  12.220
82397W        W54712   5.979   3.488   0.401
82398W        W54713   9.860  41.903   1.394
82399W        W54714   5.458  19.005  10.772
82400W        W54715   7.045  42.506   0.799
82401W        W54716  10.478  40.132   1.161
82402W        W54717  22.223  34.783   4.253
82403W        W54718  37.464   6.180   4.537
82404W        W54719   4.738  37.516   2.661
82405W        W54720   6.001  27.223   2.456
82406W        W54721  17.838  37.956  10.728
82407W        W54722  27.558  15.312   1.257
82408W        W54723  41.859   7.901   2.536
82409W        W54724   1.347  28.390   1.378
82410W        W54725  16.206  30.745   2.849
82411W        W54726  32.676  35.526  13.737
82412W        W54727  36.539   4.453   4.659
82413W        W54728  39.308  15.563  12.350
82414W        W54729   2.571  41.866  11.751
82415W        W54730   2.154  28.962  14.299
82416W        W54731   5.364  11.078   4.057
82417W        W54732  27.392   1.210   1.083
82418W        W54733  27.234   2.710  14.887
82419W        W54734  18.196  17.663   0.009
82420W        W54735  42.991  18.108  12.861
82421W        W54736  10.852  13.237   1.792
82422W        W54737  21.512  33.253   0.884
82423W        W54738  22.046   2.772  12.847
82424W        W54739  12.389   8.146   3.418
82425W        W54740  31.561  25.951   1.920
82426W        W54741  33.937  17.623   0.933
82427W        W54742  24.778  21.458  13.166
82428W        W54743  33.793  30.254   2.110
82429W        W54744   1.191  15.797   3.607
82430W        W54745  23.159   8.359  11.936
82431W        W54746  32.373  16.531  14.991
82432W        W54747  39.305  31.475  14.818
82433W        W54748  20.665  26.960  12.818
82434W        W54749  40.006  24.452   1.980
82435W        W54750   6.789  27.186   0.849
82436W        W54751  18.647  13.346  13.877
82437W        W54752  31.579  30.320  11.109
82438W        W54753  31.420  36.212  14.021
82439W        W54754  36.593  18.582  14.504
82440W        W54755  34.800  35.013   0.160
82441W        W54756   2.245  36.530  10.411
82442W        W54757   0.783  42.852   1.140
82443W        W54758  24.711   8.738   3.379
82444W        W54759  41.135  39.778  13.308
82445W        W54760  24.693   9.680   1.324
82446W        W54761  20.531  12.851   2.568
82447W        W54762  21.713   2.730  12.465
82448W        W54763   3.266  30.522   1.306
82449W        W54764   0.471   6.053   2.455
82450W        W54765  37.837  29.518  13.847
82451W        W54766  40.480   8.318  10.757
82452W        W54767  21.774  40.500   1.074
82453W        W54768  13.249  15.122  13.751
82454W        W54769  34.132  37.746  14.453
82455W        W54770  42.000   9.641   4.154
82456W        W54771  19.636  18.286  10.325
82457W        W54772  36.101  15.823   0.152
82458W        W54773  10.296   6.158   4.864
82459W        W54774  24.526  30.638  13.581
82460W        W54775  14.044  34.996   4.195
82461W        W54776  31.069  41.813   4.334
82462W        W54777  19.107  11.249   5.065
82463W        W54778  34.867  31.375   3.688
82464W        W54779   2.226   8.573  11.174
82465W        W54780  10.201  42.929   0.016
82466W        W54781  37.079   0.952  12.473
82467W        W54782  24.082   8.128  11.498
82468W        W54783   6.749  17.753   2.184
82469W        W54784  15.519  29.515  13.868
82470W        W54785   3.986   0.575   3.813
82471W        W54786  15.973  17.763  14.858
82472W        W54787  20.985  31.493   1.642
82473W        W54788  26.913   3.768   2.893
82474W        W54789  31.598  36.450  12.496
82475W        W54790  24.999   9.207   5.041
82476W        W54791   7.417  15.772   2.274
82477W        W54792   9.161   8.895  14.946
82478W        W54793  32.737  20.776   3.029
82479W        W54794  42.847  38.781  13.092
82480W        W54795  26.355  38.007   3.544
82481W        W54796  22.536  16.132   4.238
82482W        W54797   2.306   3.763   5.102
82483W        W54798  22.552  34.934   3.811
82484W        W54799   2.546   5.305  14.960
82485W        W54800  32.356  18.542  13.283
82486W        W54801  20.680   2.023  13.397
82487W        W54802  10.081  10.109  10.871
82488W        W54803  20.496  28.663  11.398
82489W        W54804  20.823   3.029  14.317
82490W        W54805  14.578  34.219  14.387
82491W        W54806  36.549  43.387   0.975
82492W        W54807   7.628   5.933  12.540
82493W        W54808  18.509  36.810   2.789
82494W        W54809  35.819  15.825   1.432
82495W        W54810  11.734  38.652   3.743
82496W        W54811  34.473  24.155   2.417
82497W        W54812   0.065   9.280   4.600
82498W        W54813  14.586  21.786  11.181
82499W        W54814  19.038  32.003  11.598
82500W        W54815   6.226  12.254   4.080
82501W        W54816  22.385  18.607   4.695
82502W        W54817  39.378  35.623   3.174
82503W        W54818  32.951  29.577  14.449
82504W        W54819  34.077  27.076   1.178
82505W        W54820   1.450  21.236  14.989
82506W        W54821   8.149  30.061  10.822
82507W        W54822  24.884  38.016  13.012
82508W        W54823  33.491  13.149  14.382
82509W        W54824  42.506  18.782  12.032
82510W        W54825  14.502   8.608   4.647
82511W        W54826  40.498   0.647   0.973
82512W        W54827  31.669  11.509  10.724
82513W        W54828  10.240  32.053  10.374
82514W        W54829   1.949  22.724  11.128
82515W        W54830  23.555  17.800   4.642
82516W        W54831  28.441  13.064   9.696
82517W        W54832  35.344  17.274   1.341
82518W        W54833  11.731  22.575   4.568
82519W        W54834  23.381  26.943   3.297
82520W        W54835  25.614  33.894  11.629
82521W        W54836  35.466  26.106   0.972
82522W        W54837   8.642  43.717   3.331
82523W        W54838  28.503   9.823   4.561
82524W        W54839   4.408  23.619  10.720
82525W        W54840  16.373   3.517  13.310
82526W        W54841  24.172   6.360   4.905
82527W        W54842  26.051  33.414   2.738
82528W        W54843  34.039   4.253   2.796
82529W        W54844   2.498  23.732  12.543
82530W        W54845  23.149  28.719   4.134
82531W        W54846  30.583  16.881   0.567
82532W        W54847  35.197  18.096   2.921
82533W        W54848   9.157   1.065  11.156
82534W        W54849  13.628  30.014   3.261
82535W        W54850  35.149   9.185   2.397
82536W        W54851  44.448   0.484  11.744
82537W        W54852   3.505  23.935   0.956
82538W        W54853  27.150  31.464   9.846
82539W        W54854  26.940  12.201  11.123
82540W        W54855  14.167  11.856  13.002
82541W        W54856  17.212  28.218   5.067
82542W        W54857  14.268  35.538   4.786
82543W        W54858   2.324  10.351  14.019
82544W        W54859  26.152  38.387   3.239
82545W        W54860   4.487  22.199   3.659
82546W        W54861  44.896  22.920   1.817
82547W        W54862  12.299  22.022  14.802
82548W        W54863  16.656  44.977   0.860
82549W        W54864  29.853  17.180   1.826
82550W        W54865  31.190  16.734  12.091
82551W        W54866  40.834  23.679  13.723
82552W        W54867  34.686   3.221   4.735
82553W        W54868   0.875  15.273  11.223
82554W        W54869   6.668  44.120  13.894
82555W        W54870   2.838  34.787  14.492
82556W        W54871  31.882  32.887   2.155
82557W        W54872  22.559  11.403   1.711
82558W        W54873  44.520  10.120  13.256
82559W        W54874  16.888  19.830   4.186
82560W        W54875  40.026  24.889  14.984
82561W        W54876  20.611  32.388  11.067
82562W        W54877  33.343  40.773   3.775
82563W        W54878  20.233  38.210  11.618
82564W        W54879  20.715   7.204   1.795
82565W        W54880   5.187  44.115   0.869
82566W        W54881  14.431   6.753   0.542
82567W        W54882   2.690  30.007  11.120
82568W        W54883  10.489  43.712   0.941
82569W        W54884  17.294  16.675  11.684
82570W        W54885  14.270  36.299  11.616
82571W        W54886  15.564  22.751  10.833
82572W        W54887  32.381   5.296  14.777
82573W        W54888  15.233  29.354   5.033
82574W        W54889  37.098   0.801   2.881
82575W        W54890   1.821  37.431   4.532
82576W        W54891  22.772  44.191  11.142
82577W        W54892  41.448  10.709   0.693
82578W        W54893  28.380  12.469   2.437
82579W        W54894  27.133   3.284   2.751
82580W        W54895   3.913   7.066   1.296
82581W        W54896  33.425   6.949  12.379
82582W        W54897   0.388  30.362   2.949
82583W        W54898  33.589  26.961  11.643
82584W        W54899   6.172  10.747   1.181
82585W        W54900  16.825  12.337   1.287
82586W        W54901  24.458  40.136  11.048
82587W        W54902   7.123  29.854  11.411
82588W        W54903  15.882  30.548   3.610
82589W        W54904  25.594  29.154  13.580
82590W        W54905  25.066   7.312   3.172
82591W        W54906   9.308  13.508  13.834
82592W        W54907   6.392  25.640   2.396
82593W        W54908   1.559  15.780   3.211
82594W        W54909  28.887  41.686   3.592
82595W        W54910  43.736  26.511   3.688
82596W        W54911   7.291   0.960   3.271
82597W        W54912  25.975   4.252  13.719
82598W        W54913  36.073  23.162  13.910
82599W        W54914  11.287   6.801  13.952
82600W        W54915  25.201  16.136   1.750
82601W        W54916   0.617   5.962   4.144
82602W        W54917  40.559  43.034  12.979
82603W        W54918   8.885  11.960  13.285
82604W        W54919  40.243  19.557  10.631
82605W        W54920  39.260  28.961   4.177
82606W        W54921  26.487  38.545  10.141
82607W        W54922  23.121  16.114  14.820
82608W        W54923  18.781   3.519   4.937
82609W        W54924   1.236  28.605  13.233
82610W        W54925  11.918  42.062   3.031
82611W        W54926  32.377  30.815   0.797
82612W        W54927  23.809  42.036  12.882
82613W        W54928  29.113  44.062  13.827
82614W        W54929  39.547  27.904  14.942
82615W        W54930   4.570  36.805   0.761
82616W        W54931  30.991  42.693   2.918
82617W        W54932   7.738  23.173  11.202
82618W        W54933  13.637  27.574   1.820
82619W        W54934  31.119   8.772   0.759
82620W        W54935  13.098  37.123  11.410
82621W        W54936  20.523  14.114  12.624
82622W        W54937  22.588  19.781   2.147
82623W        W54938  16.145  32.807   1.319
82624W        W54939  24.661  41.929  14.063
82625W        W54940  40.534  16.799   3.479
82626W        W54941   5.709  30.812  13.556
82627W        W54942   3.192   8.675   1.816
82628W        W54943  13.534   6.816   4.696
82629W        W54944   9.993  11.666  14.996
82630W        W54945  31.214  41.362   2.175
82631W        W54946  18.168  24.665   3.110
82632W        W54947  34.281  28.694  11.109
82633W        W54948  32.891  30.936  14.859
82634W        W54949  32.070   1.414  10.748
82635W        W54950  20.153  19.114  14.650
82636W        W54951  23.653  16.863  12.798
82637W        W54952  18.042   3.814   2.830
82638W        W54953  25.149  28.461  14.493
82639W        W54954  36.784  38.769  12.441
82640W        W54955  27.778  28.065   1.204
82641W        W54956  42.308   9.066  11.816
82642W        W54957  23.362   2.470   0.555
82643W        W54958  43.774  36.837   3.199
82644W        W54959  24.225  40.000  12.435
82645W        W54960  13.795  23.259   4.528
82646W        W54961  29.111   6.477  12.439
82647W        W54962  38.079  38.571  14.968
82648W        W54963  10.598  28.135  11.981
82649W        W54964  30.196  24.292   2.201
82650W        W54965  34.078  10.881   4.541
82651W        W54966  42.134   5.595   3.789
82652W        W54967  24.283  22.123   1.233
82653W        W54968  18.836   2.052  14.008
82654W        W54969  36.000  10.822   2.402
82655W        W54970   9.352   1.007  13.640
82656W        W54971   2.380  27.213  13.554
82657W        W54972  26.423  10.881   1.258
82658W        W54973   3.981  30.820   0.883
82659W        W54974  42.453  18.344   2.313
82660W        W54975  33.440  27.529   1.638
82661W        W54976  29.501  34.825  14.824
82662W        W54977  34.509   8.237   1.886
82663W        W54978  14.890   2.446  13.976
82664W        W54979  14.601  34.741  13.329
82665W        W54980   2.865   8.213  12.801
82666W        W54981  27.467   0.955   4.140
82667W        W54982  18.606  14.190   2.429
82668W        W54983  33.889  10.370   3.659
82669W        W54984  12.414  33.815  10.974
82670W        W54985  19.180  21.436   1.829
82671W        W54986  14.057  26.141   1.863
82672W        W54987  25.180  35.842  13.529
82673W        W54988  34.934  38.517  11.966
82674W        W54989  35.867  24.579   1.631
82675W        W54990  39.611  38.324  11.955
82676W        W54991   5.618   5.721   4.271
82677W        W54992  24.376   2.856   3.066
82678W        W54993  29.569  10.358  11.551
82679W        W54994  19.334  42.004  11.033
82680W        W54995   1.781  16.630   0.603
82681W        W54996   5.902  34.154   3.840
82682W        W54997   7.324   4.427   1.769
82683W        W54998  32.583  39.092  14.471
82684W        W54999  41.247  32.687   1.430
82685W        W55000   3.839  15.114  14.072
82686W        W55001  17.642   9.891  12.839
82687W        W55002  13.177  41.543   1.737
82688W        W55003   5.718  16.347  11.623
82689W        W55004  40.107  37.308   1.894
82690W        W55005  35.172  27.208   3.258
82691W        W55006   3.766   7.693   2.150
82692W        W55007  34.295  44.295  11.103
82693W        W55008  25.216  33.460   9.999
82694W        W55009   4.784  38.902  13.814
82695W        W55010   8.299  17.003   0.170
82696W        W55011  44.841  14.764  10.730
82697W        W55012  21.662  11.752  10.680
82698W        W55013  34.052  32.622   0.470
82699W        W55014  21.192  21.227   0.922
82700W        W55015  31.649   6.174   0.396
82701W        W55016  31.347  10.103  13.251
82702W        W55017  25.461  20.806   5.403
82703W        W55018  21.564  34.035   4.163
82704W        W55019   6.888  17.209   1.826
82705W        W55020  35.964  19.759   1.526
82706W        W55021  25.248  14.565   0.245
82707W        W55022   9.847  13.603  12.425
82708W        W55023  42.639  39.947   4.481
82709W        W55024  30.676  21.905   2.756
82710W        W55025  22.995  35.943   2.254
82711W        W55026  34.889  44.744   3.857
82712W        W55027  34.538  43.076  12.578
82713W        W55028   0.499  44.871  11.265
82714W        W55029  40.361  38.934   3.721
82715W        W55030  29.969  29.759  11.889
82716W        W55031  18.214  25.186   3.242
82717W        W55032  28.011  17.601  11.481
82718W        W55033  17.219   5.691  14.552
82719W        W55034   4.320   9.153  12.024
82720W        W55035  36.044  35.794  14.453
82721W        W55036  38.037  25.159   5.048
82722W        W55037   6.790  32.922   1.678
82723W        W55038  19.147  35.166   4.572
82724W        W55039   0.314   1.560   4.165
82725W        W55040  41.865  35.039   2.268
82726W        W55041  36.408  36.523   2.208
82727W        W55042  32.146  29.910  11.550
82728W        W55043  37.470  29.982  13.473
82729W        W55044   2.260   4.763   0.222
82730W        W55045   8.754   5.626  11.621
82731W        W55046   6.200   0.787  13.472
82732W        W55047  44.765  43.071  14.081
82733W        W55048  38.724  31.770   2.277
82734W        W55049  32.596  25.941   1.681
82735W        W55050  23.986  18.566   4.695
82736W        W55051  33.944   9.128  14.341
82737W        W55052   1.713  12.236  14.374
82738W        W55053  31.214   9.820   2.789
82739W        W55054  18.964  38.363  14.454
82740W        W55055  43.717   1.335  11.462
82741W        W55056  43.928   6.106   1.499
82742W        W55057  12.101  25.205  14.953
82743W        W55058  30.045  30.074   4.333
82744W        W55059  32.192  44.836   1.204
82745W        W55060  43.564  22.279  11.622
82746W        W55061  14.346  32.442   4.614
82747W        W55062   6.635   4.862   1.222
82748W        W55063   2.771  24.401  13.571
82749W        W55064  19.907   7.415   1.658
82750W        W55065  19.636  14.886  13.002
82751W        W55066   5.434   5.250   3.182
82752W        W55067  42.265  35.618   3.884
82753W        W55068   7.894   8.852   2.868
82754W        W55069  24.636   5.168   2.255
82755W        W55070  43.317  26.207   3.652
82756W        W55071   1.844  25.790   2.390
82757W        W55072   4.846  34.038  14.462
82758W        W55073  43.723  41.799   3.674
82759W        W55074  37.742  38.044   3.705
82760W        W55075  40.352  37.520   3.593
82761W        W55076  17.618  19.326  11.241
82762W        W55077  15.392  29.039   2.569
82763W        W55078   0.195  27.680   0.786
82764W        W55079  24.286  12.686  14.026
82765W        W55080  43.645  42.746   0.727
82766W        W55081  25.666   9.825   0.502
82767W        W55082   9.668  15.470  10.434
82768W        W55083  19.747  32.898   2.131
82769W        W55084  17.491  30.957   4.774
82770W        W55085  44.256  33.491   1.076
82771W        W55086  27.420  43.982  11.658
82772W        W55087   4.321  23.892   3.274
82773W        W55088  39.244   8.940   1.765
82774W        W55089  20.482  28.921   1.387
82775W        W55090   8.102  28.578  13.353
82776W        W55091  42.072  18.660   4.656
82777W        W55092  42.232  28.470  14.477
82778W        W55093  11.652  34.613  14.314
82779W        W55094   0.802  41.570   4.998
82780W        W55095  10.503  26.486   4.991
82781W        W55096  29.044  43.196  11.126
82782W        W55097  11.963  15.739  10.426
82783W        W55098  17.324  38.977  14.876
82784W        W55099   6.825  18.221   2.866
82785W        W55100  36.402  27.621  10.557
82786W        W55101   2.214   4.787  10.689
82787W        W55102  31.472  16.264  14.242
82788W        W55103   4.937  44.697  12.607
82789W        W55104  20.152  28.185   2.665
82790W        W55105  29.927  43.243  11.132
82791W        W55106  23.618  23.128   4.077
82792W        W55107  31.452  22.621  11.649
82793W        W55108  39.046   2.277  10.435
82794W        W55109  10.644   5.113  11.577
82795W        W55110  33.393  15.158  12.398
82796W        W55111  19.120  12.354   3.878
82797W        W55112  28.691  35.975   0.993
82798W        W55113  33.493  44.673   1.175
82799W        W55114  12.263  13.324   2.681
82800W        W55115  19.152  41.119   0.916
82801W        W55116  14.279  13.377   1.307
82802W        W55117   2.371  36.831   3.572
82803W        W55118  23.521  10.023   4.627
82804W        W55119  44.744  16.688   0.619
82805W        W55120  36.536   6.149   3.833
82806W        W55121  22.498   5.966  10.392
82807W        W55122  29.856  33.970   4.672
82808W        W55123  16.326   1.949  12.382
82809W        W55124  27.254  20.339   3.626
82810W        W55125   3.399  22.012   0.167
82811W        W55126   5.855   5.170   1.412
82812W        W55127  34.829  18.662  11.217
82813W        W55128  34.833  22.242  10.839
82814W        W55129   3.698  22.691   2.698
82815W        W55130  19.628  11.151  12.850
82816W        W55131  14.748  24.009   2.323
82817W        W55132  41.019  29.580  12.878
82818W        W55133   3.813  31.191  12.039
82819W        W55134  22.871   1.914   5.109
82820W        W55135   2.912  19.686  13.814
82821W        W55136  44.873  21.579   1.070
82822W        W55137  36.747  16.145   3.689
82823W        W55138   2.456  38.011  12.049
82824W        W55139  39.014  40.611   1.153
82825W        W55140  37.763  12.356   1.753
82826W        W55141  21.145   3.929   4.596
82827W        W55142   9.620   5.463   2.785
82828W        W55143  11.368  25.136   3.794
82829W        W55144  14.742   9.083   1.769
82830W        W55145  41.579  38.197  12.389
82831W        W55146  44.727  31.923   3.705
82832W        W55147  17.396  14.909   2.307
82833W        W55148   8.475  36.877  11.053
82834W        W55149   3.270  30.804  11.171
82835W        W55150  38.038  35.412   4.685
82836W        W55151  11.602  12.244   4.538
82837W        W55152   7.315  13.492   1.284
82838W        W55153  32.600  33.015  12.085
82839W        W55154   0.243  17.610  14.803
82840W        W55155  14.149  16.649  14.985
82841W        W55156  44.616  20.583  14.058
82842W        W55157  41.427  34.912   0.923
82843W        W55158   2.944   5.811   1.543
82844W        W55159  19.047  12.157  13.050
82845W        W55160  23.606  18.290   4.927
82846W        W55161  37.376  26.456  10.578
82847W        W55162  20.665  37.388   3.609
82848W        W55163   8.820  28.458   3.732
82849W        W55164  23.623  23.208   3.593
82850W        W55165  17.278  26.371  14.023
82851W        W55166   8.015   7.766  13.078
82852W        W55167   5.797  34.885  12.495
82853W        W55168  33.424  12.611   1.229
82854W        W55169  43.037  15.654  14.036
82855W        W55170   2.804  35.066  14.065
82856W        W55171  24.502  20.073   1.851
82857W        W55172  14.805  44.930  14.149
82858W        W55173  41.334  18.131   0.334
82859W        W55174  16.615  31.592   1.821
82860W        W55175  42.918  10.080   1.794
82861W        W55176  41.066   4.829   1.499
82862W        W55177  14.329  18.319  11.517
82863W        W55178  29.926  43.274   4.625
82864W        W55179  18.324  25.864  11.514
82865W        W55180  23.620  37.364  13.132
82866W        W55181  29.163  40.063  11.471
82867W        W55182  22.229  19.063  11.571
82868W        W55183   3.251   9.616  14.940
82869W        W55184  33.340  14.293   0.623
82870W        W55185  15.490   5.856  14.014
82871W        W55186  12.104  12.575  12.573
82872W        W55187  29.360  26.617  13.321
82873W        W55188  27.207  21.486  11.497
82874W        W55189   0.479   1.771  13.300
82875W        W55190   2.971  17.340  13.398
82876W        W55191  43.295  31.078   2.937
82877W        W55192   0.340  31.001  11.395
82878W        W55193  31.390  40.141   1.813
82879W        W55194  43.603  43.128   4.972
82880W        W55195  19.683  25.427  14.882
82881W        W55196  41.957  32.023  14.313
82882W        W55197   5.231  42.555   4.235
82883W        W55198  31.135  40.781   1.938
82884W        W55199  13.493  43.939  10.634
82885W        W55200  33.122   0.587  13.658
82886W        W55201  26.995  16.145  13.794
82887W        W55202  33.063  29.069  13.134
82888W        W55203   2.917  16.371   2.151
82889W        W55204  42.524   5.281  12.169
82890W        W55205  31.349  16.378  13.745
82891W        W55206  14.302  39.341  12.498
82892W        W55207  11.102  25.078   0.060
82893W        W55208  40.732  22.943  12.436
82894W        W55209  18.140  30.557   9.834
82895W        W55210  24.826  15.555   1.259
82896W        W55211  25.126  18.007   0.326
82897W        W55212  38.892  44.893   0.343
82898W        W55213  27.478   1.332  10.606
82899W        W55214  13.254  28.095  11.949
82900W        W55215  13.244   5.143   3.239
82901W        W55216  27.292  29.232  14.587
82902W        W55217  22.596  13.125   3.328
82903W        W55218   4.961  29.988  13.780
82904W        W55219   4.065  25.912  14.310
82905W        W55220   5.752  32.909   3.657
82906W        W55221  18.761  40.639   0.880
82907W        W55222  33.298  34.445   1.349
82908W        W55223  36.834  19.266   1.870
82909W        W55224  29.077  30.162  14.787
82910W        W55225  30.507  34.622   3.019
82911W        W55226  33.926  28.612   4.132
82912W        W55227  14.192   2.221   2.519
82913W        W55228  13.287  41.384  11.758
82914W        W55229  18.952   1.695   4.981
82915W        W55230  15.747  33.128  11.107
82916W        W55231  17.588  42.107  10.300
82917W        W55232  34.114  27.609   4.259
82918W        W55233   1.077  22.689  10.694
82919W        W55234  29.172   5.845  13.439
82920W        W55235  41.446   4.903  13.910
82921W        W55236  17.177   6.119  13.305
82922W        W55237   0.699  13.028  11.906
82923W        W55238  23.686   7.818  11.595
82924W        W55239  18.160   2.255   0.808
82925W        W55240   3.216   4.100   0.227
82926W        W55241   2.041  20.082   1.354
82927W        W55242   0.902  36.425  12.493
82928W        W55243  28.648  18.210   2.416
82929W        W55244  32.473  33.394  14.434
82930W        W55245   7.568  36.945   4.230
82931W        W55246  31.417  17.270   0.705
82932W        W55247  13.083  40.291   3.681
82933W        W55248   7.501  32.966   1.439
82934W        W55249  38.723   0.411  11.049
82935W        W55250  19.555  27.691  11.591
82936W        W55251  17.190  37.993  11.156
82937W        W55252  38.461   1.500   3.700
82938W        W55253  28.094  32.725   0.884
82939W        W55254  27.640   3.894   3.740
82940W        W55255  12.208   9.674   1.332
82941W        W55256  21.184  32.465   1.930
82942W        W55257  30.613   1.728   4.701
82943W        W55258  10.818  42.544   3.889
82944W        W55259  22.089  15.061  10.697
82945W        W55260  16.260  25.807   3.656
82946W        W55261  30.921  30.237   1.414
82947W        W55262   0.930   1.030   3.781
82948W        W55263  25.479  43.509   1.283
82949W        W55264   4.359  12.411   3.848
82950W        W55265  27.117  35.555   2.677
82951W        W55266  10.754   0.902   3.321
82952W        W55267  39.997  20.223   3.515
82953W        W55268  22.461  38.114  13.124
82954W        W55269  40.783  15.137   1.569
82955W        W55270  19.830  26.715  14.801
82956W        W55271  25.761  18.837   3.633
82957W        W55272  16.246   2.987   2.408
82958W        W55273   5.249  37.911  12.899
82959W        W55274  29.649  22.053   0.543
82960W        W55275  29.096   9.752  14.223
82961W        W55276  11.327   2.425  14.396
82962W        W55277  38.172  23.051  12.113
82963W        W55278  29.608  42.243   0.835
82964W        W55279  44.934  32.772   3.761
82965W        W55280  35.931  39.784  12.140
82966W        W55281  13.244  37.207  14.975
82967W        W55282  13.307  36.317  14.006
82968W        W55283  30.677  42.745   4.497
82969W        W55284  18.646   8.834  12.107
82970W        W55285  37.902  42.121  13.047
82971W        W55286   0.892  17.492   3.138
82972W        W55287   0.324   0.023   0.636
82973W        W55288   0.949  27.050   3.026
82974W        W55289   5.645  16.109   3.439
82975W        W55290  28.123  42.844  12.087
82976W        W55291  37.417  40.640  14.726
82977W        W55292  32.704   0.805   1.922
82978W        W55293   2.074   5.548  12.093
82979W        W55294  10.785  37.592   2.600
82980W        W55295  14.074  42.691   0.844
82981W        W55296  32.109  23.274   5.020
82982W        W55297  28.637  34.354   3.365
82983W        W55298  28.455   3.937  12.892
82984W        W55299  36.497  26.823   0.457
82985W        W55300  27.111  30.007   1.711
82986W        W55301  20.664  10.714   2.853
82987W        W55302  38.987  29.003  10.614
82988W        W55303  27.981  24.002  13.862
82989W        W55304  29.510  18.283  10.780
82990W        W55305  24.302   7.746  13.560
82991W        W55306  28.914   2.755  13.354
82992W        W55307   5.847  22.146   0.319
82993W        W55308  33.992  12.559   1.830
82994W        W55309  40.175   4.735  11.055
82995W        W55310  16.659   4.013   1.882
82996W        W55311  23.109  43.194   1.290
82997W        W55312  33.213  35.036   2.676
82998W        W55313  20.107  40.104   3.743
82999W        W55314  42.409  19.019   1.781
83000W        W55315   8.471  16.659  13.892
83001W        W55316  43.395  22.644   0.476
83002W        W55317  30.911  13.381  11.597
83003W        W55318   5.845  11.395   0.159
83004W        W55319  14.085  37.120  10.704
83005W        W55320  18.322  20.590   2.137
83006W        W55321  44.781  13.796  13.098
83007W        W55322  36.447  30.863  11.230
83008W        W55323  38.411  21.753   3.737
83009W        W55324  41.817  26.133  11.472
83010W        W55325   0.866   8.774  12.405
83011W        W55326  26.672  35.452   1.609
83012W        W55327  32.138  11.409   2.762
83013W        W55328  21.646  26.443   1.624
83014W        W55329  43.977  17.577  10.692
83015W        W55330  35.477  30.461   3.234
83016W        W55331  16.155  32.367  12.816
83017W        W55332  43.902  26.180   3.281
83018W        W55333  29.988  10.073  10.705
83019W        W55334  38.905  29.671   4.665
83020W        W55335   5.600  37.599   0.887
83021W        W55336   1.188  18.106  13.983
83022W        W55337   9.876   9.832  12.901
83023W        W55338   5.802  38.799  12.428
83024W        W55339  29.022  17.839   0.788
83025W        W55340  29.455   2.376  10.739
83026W        W55341  29.064  38.052  11.075
83027W        W55342   0.787  18.664  12.825
83028W        W55343   2.354   9.575  11.463
83029W        W55344   0.212  26.523  13.989
83030W        W55345  33.881   8.235   0.734
83031W        W55346  23.659  25.905  11.148
83032W        W55347  35.295  41.901  12.523
83033W        W55348  28.926   8.751  14.520
83034W        W55349  29.015  40.172  13.425
83035W        W55350  17.549  31.258   0.888
83036W        W55351  31.958  39.398   2.029
83037W        W55352  34.613   0.637   4.039
83038W        W55353   1.980   8.787   3.206
83039W        W55354  12.303  10.474  10.961
83040W        W55355  31.014  19.527   1.771
83041W        W55356  40.791  31.526   1.821
83042W        W55357   5.471  29.074  14.790
83043W        W55358  11.212  13.289  11.681
83044W        W55359  19.424  28.108   1.120
83045W        W55360  43.092  15.580  11.149
83046W        W55361   8.807   9.857   4.410
83047W        W55362  42.069  28.873   3.615
83048W        W55363  13.782  36.955  12.728
83049W        W55364  28.333  13.565  13.744
83050W        W55365  24.948   9.304  12.120
83051W        W55366   5.299  32.108   2.637
83052W        W55367  12.361  15.610  12.601
83053W        W55368  39.025  36.882   3.558
83054W        W55369  37.812  36.953  14.455
83055W        W55370  15.641   4.920  14.832
83056W        W55371  12.438   0.327  11.510
83057W        W55372   3.761   4.898  10.725
83058W        W55373  19.985  24.599   3.630
83059W        W55374  24.128  13.447   4.674
83060W        W55375  12.768  35.764   2.804
83061W        W55376   1.457  23.062   1.763
83062W        W55377  30.444  37.162   4.176
83063W        W55378   4.485   2.524   1.893
83064W        W55379  16.082  39.390  11.849
83065W        W55380  16.638  19.056   4.593
83066W        W55381  19.921   7.444  11.543
83067W        W55382  26.162  18.664   0.259
83068W        W55383   6.437   9.274  13.988
83069W        W55384  18.209  31.568   1.945
83070W        W55385  18.651  34.138  10.908
83071W        W55386  43.363  21.171  10.271
83072W        W55387   4.405  29.907  11.933
83073W        W55388  38.489   0.834   0.806
83074W        W55389  44.546   4.726   2.428
83075W        W55390  22.591   3.464  14.365
83076W        W55391  20.045  15.658   0.273
83077W        W55392   1.030  12.425  10.673
83078W        W55393  44.078   0.438   3.148
83079W        W55394   5.797  29.010   2.650
83080W        W55395  13.743  10.581   1.236
83081W        W55396  27.907  35.898  13.407
83082W        W55397  18.588  39.477   4.206
83083W        W55398   6.171  41.993  11.218
83084W        W55399  27.378  26.720  11.430
83085W        W55400  20.843  39.888   2.748
83086W        W55401  33.934   1.210  11.603
83087W        W55402  25.055  36.747  13.319
83088W        W55403  29.611  41.432  10.770
83089W        W55404   9.243  16.261  14.585
83090W        W55405  29.854   8.121   4.924
83091W        W55406  36.753  31.875   4.546
83092W        W55407  39.594   5.282  13.849
83093W        W55408  21.852  36.993   3.620
83094W        W55409  28.447  11.304  10.653
83095W        W55410  22.631  24.160  12.896
83096W        W55411  18.975  32.018   1.879
83097W        W55412  38.992  35.267   4.768
83098W        W55413  11.553  12.353   1.157
83099W        W55414  39.876  17.381   1.952
83100W        W55415  16.534  43.382   1.781
83101W        W55416  24.217   7.089  10.474
83102W        W55417   0.489  36.893  11.057
83103W        W55418  37.586  44.928   0.375
83104W        W55419  40.345   7.980  12.617
83105W        W55420  11.779  38.910  13.589
83106W        W55421  31.545  29.984  14.282
83107W        W55422  44.495  35.801  13.458
83108W        W55423   6.827  22.774   1.391
83109W        W55424   0.736  28.665   2.281
83110W        W55425   1.616  41.868   1.906
83111W        W55426  34.092  37.071   4.619
83112W        W55427   3.293  41.600  13.513
83113W        W55428  27.136  28.183   3.275
83114W        W55429  43.066   3.758   0.344
83115W        W55430  37.852  10.128  10.746
83116W        W55431  22.788  41.550  11.270
83117W        W55432  29.448  15.793   3.873
83118W        W55433   9.447   2.357   0.742
83119W        W55434   8.719  29.756   2.937
83120W        W55435  37.553  32.114   1.814
83121W        W55436  44.782  14.045   3.672
83122W        W55437   3.651  29.427  13.491
83123W        W55438  25.473  38.097   4.012
83124W        W55439  30.510  22.275  12.992
83125W        W55440  27.429   9.649  12.355
83126W        W55441  42.286   8.876  10.944
83127W        W55442  28.835  34.605   0.558
83128W        W55443   5.230  13.572  12.441
83129W        W55444  39.762  41.406  13.326
83130W        W55445   7.974  37.775   5.100
83131W        W55446  42.731  16.235  10.665
83132W        W55447   9.498  25.481  10.715
83133W        W55448  24.181  15.112   4.200
83134W        W55449  23.237  26.931  12.956
83135W        W55450  28.071  13.589   0.739
83136W        W55451  35.306  37.130  13.655
83137W        W55452  19.505  14.775   2.921
83138W        W55453  31.665  23.064   0.994
83139W        W55454  13.699   3.525  10.372
83140W        W55455  44.041  24.260   2.485
83141W        W55456  33.761  25.457  13.470
83142W        W55457  39.449   9.208   2.630
83143W        W55458  42.993   7.354   1.436
83144W        W55459  41.085  34.576   2.285
83145W        W55460   1.248   4.302  10.458
83146W        W55461  17.537  26.525  13.563
83147W        W55462  26.994  40.106  10.483
83148W        W55463  40.340   4.159   2.329
83149W        W55464   8.694   5.559  13.769
83150W        W55465   7.432  31.666  11.606
83151W        W55466  36.948  41.368  14.373
83152W        W55467   1.476  15.361   3.826
83153W        W55468   0.991  30.354  11.494
83154W        W55469  19.079  16.211   1.374
83155W        W55470  16.166  37.131   0.737
83156W        W55471  41.993  16.234   1.718
83157W        W55472  40.401  18.832   2.336
83158W        W55473  37.656   7.822  11.505
83159W        W55474  18.879  31.134   1.699
83160W        W55475   8.208  30.910   1.430
83161W        W55476  13.098  36.238  11.132
83162W        W55477   0.841  36.542   5.601
83163W        W55478  12.279  31.637   3.790
83164W        W55479  36.428  42.592   4.096
83165W        W55480  30.513  36.399   2.462
83166W        W55481  32.437  20.418  13.516
83167W        W55482   3.673  20.972  13.364
83168W        W55483  19.273  39.519   2.303
83169W        W55484  36.640  30.435   3.600
83170W        W55485  21.611   3.181   2.202
83171W        W55486  19.541  24.192   1.456
83172W        W55487  43.942  21.995  10.946
83173W        W55488   0.728  23.061  10.598
83174W        W55489  28.450   2.376   3.666
83175W        W55490  41.068  11.115   4.103
83176W        W55491  14.139  38.606   0.232
83177W        W55492  41.436  20.767  14.409
83178W        W55493  18.915  36.140   3.732
83179W        W55494   7.863  15.322  13.086
83180W        W55495  34.442   1.146   3.989
83181W        W55496  30.688  18.845   2.196
83182W        W55497  13.804  32.868   4.123
83183W        W55498   5.878  37.878   1.341
83184W        W55499  30.650  36.838  14.427
83185W        W55500  36.475  35.581  11.071
83186W        W55501   9.601  21.023   5.058
83187W        W55502  37.362  17.802   3.727
83188W        W55503  16.337  30.975   4.323
83189W        W55504   1.558  32.946  14.286
83190W        W55505   0.503  18.633   2.243
83191W        W55506  13.167  24.313   1.507
83192W        W55507   6.557  17.110  12.284
83193W        W55508  19.213   8.329  12.986
83194W        W55509  21.278   9.840  10.835
83195W        W55510  28.897   7.734  11.979
83196W        W55511  14.241  27.599  14.873
83197W        W55512   6.393  23.092  14.879
83198W        W55513  18.063  12.775   4.129
83199W        W55514  15.082  21.174   4.131
83200W        W55515  37.457  41.648   3.485
83201W        W55516  35.390   6.900  11.235
83202W        W55517  24.031  13.938   4.857
83203W        W55518  13.252  29.891  11.534
83204W        W55519  35.936  28.997   4.251
83205W        W55520  28.501  14.301   1.212
83206W        W55521  44.366  37.782  13.614
83207W        W55522  18.973  40.113   3.299
83208W        W55523  13.115  15.788  13.548
83209W        W55524   6.846  26.839   1.210
83210W        W55525  13.061   7.315   2.608
83211W        W55526   6.819  11.339   0.267
83212W        W55527  28.017  44.188  12.907
83213W        W55528  30.671  25.697  13.750
83214W        W55529  30.874  27.030   1.440
83215W        W55530  19.514  39.831   5.117
83216W        W55531  34.513   5.185   4.600
83217W        W55532  18.873   9.582   5.073
83218W        W55533  44.959  33.402   1.768
83219W        W55534   2.550   0.013   0.455
83220W        W55535  40.466   8.661   4.565
83221W        W55536  38.562  32.816  10.671
83222W        W55537   6.689  16.077   1.768
83223W        W55538  44.487  34.435   0.710
83224W        W55539  18.067  17.272   3.387
83225W        W55540  13.636   1.810   2.164
83226W        W55541  34.898  37.152  11.588
83227W        W55542  26.386  41.058   0.931
83228W        W55543  16.613   9.691  12.131
83229W        W55544  26.126  36.626   1.202
83230W        W55545  22.488  44.402   4.279
83231W        W55546  38.349  12.507  12.848
83232W        W55547   4.472  38.516  14.772
83233W        W55548   7.642  39.066   2.295
83234W        W55549  40.144   3.937   3.596
83235W        W55550   3.269  26.486   0.878
83236W        W55551  36.741  17.958   0.504
83237W        W55552  40.556  35.548  10.543
83238W        W55553   8.226  16.899  10.515
83239W        W55554  35.001  27.697   2.736
83240W        W55555  32.954   8.421   0.705
83241W        W55556  42.773  39.799  13.310
83242W        W55557  33.320  41.992  10.724
83243W        W55558  19.538  42.421   0.833
83244W        W55559   2.232   4.073   1.420
83245W        W55560  19.228   4.413  11.962
83246W        W55561  32.969  27.091  10.677
83247W        W55562  12.147   3.840  13.869
83248W        W55563  34.816  37.636  14.426
83249W        W55564   9.908  43.923  11.417
83250W        W55565  41.077  26.729  11.577
83251W        W55566   9.292  19.971  10.701
83252W        W55567   1.974  31.886   4.531
83253W        W55568  10.704  38.622  10.370
83254W        W55569  32.014   1.548  12.570
83255W        W55570  29.435   0.695  11.475
83256W        W55571  23.988   1.305  10.731
83257W        W55572  37.938  33.969  13.990
83258W        W55573  37.046  40.884   3.886
83259W        W55574  10.061  36.534   4.529
83260W        W55575   9.714  32.106  13.941
83261W        W55576  26.155  36.973   4.618
83262W        W55577  12.289  27.236  13.544
83263W        W55578  39.130  42.276   0.890
83264W        W55579  35.815  22.906   2.230
83265W        W55580  23.523  16.753   4.525
83266W        W55581  23.026  32.715   4.310
83267W        W55582  11.415  26.187   3.620
83268W        W55583  11.227  38.517   3.837
83269W        W55584   5.704  36.835  11.526
83270W        W55585   4.659  43.795  11.450
83271W        W55586   2.654  16.611  13.367
83272W        W55587  16.124   0.222   0.391
83273W        W55588  32.556   2.236   0.849
83274W        W55589  43.752  26.074  13.427
83275W        W55590  25.421  29.652  11.671
83276W        W55591  34.414  28.050  11.783
83277W        W55592  27.542  10.375  10.748
83278W        W55593  36.375  23.313  12.872
83279W        W55594  42.808  24.336  12.526
83280W        W55595  33.784  42.748  11.048
83281W        W55596  13.341  43.909   0.424
83282W        W55597  41.512  23.008  12.018
83283W        W55598  18.299  24.995  13.994
83284W        W55599  40.898  32.962  12.806
83285W        W55600   3.889   4.854   3.739
83286W        W55601  39.526  34.906   2.647
83287W        W55602  31.612  12.589   3.405
83288W        W55603  42.974  10.646  10.459
83289W        W55604  33.115  40.420  13.199
83290W        W55605  25.607   0.914   1.705
83291W        W55606  41.912   5.291  12.990
83292W        W55607  21.167  35.325  12.412
83293W        W55608  21.417  37.618  14.862
83294W        W55609  43.305  40.970   2.306
83295W        W55610  17.246  14.760  14.274
83296W        W55611  43.054  24.106   2.282
83297W        W55612   8.976  42.381  10.786
83298W        W55613  20.162  30.960   3.004
83299W        W55614  36.970  39.148   0.426
83300W        W55615  40.279  29.625  11.577
83301W        W55616  11.128  12.335   4.792
83302W        W55617   9.879  19.256   5.509
83303W        W55618  13.546  25.144  12.220
83304W        W55619  14.263  14.888   2.858
83305W        W55620  33.418  31.139   2.930
83306W        W55621  13.396  37.375  13.495
83307W        W55622  29.100  36.770  10.589
83308W        W55623  44.517  41.012  10.707
83309W        W55624  38.997  25.555   5.477
83310W        W55625  11.210   0.269  12.910
83311W        W55626  14.419  12.349   3.605
83312W        W55627   7.941   1.022  13.849
83313W        W55628   5.800   1.802   0.254
83314W        W55629  43.922  28.144  12.928
83315W        W55630  42.325  31.123   2.310
83316W        W55631  42.883  21.728  13.478
83317W        W55632  26.187   5.425  12.493
83318W        W55633  19.838  13.983  12.153
83319W        W55634  13.536  14.671  13.860
83320W        W55635  20.594  27.395  13.779
83321W        W55636  17.364   5.876   1.457
83322W        W55637   1.287  30.074   4.639
83323W        W55638   8.852   8.885  10.528
83324W        W55639  30.495   9.976   3.893
83325W        W55640  11.204  30.946  11.883
83326W        W55641   1.452   9.369  13.663
83327W        W55642  16.632  21.477  13.392
83328W        W55643   1.509  25.260   0.513
83329W        W55644   2.673  38.409  12.822
83330W        W55645   5.954  20.257  10.764
83331W        W55646  20.782  35.919   4.570
83332W        W55647   5.489  41.773  13.931
83333W        W55648  40.999   3.554  11.635
83334W        W55649   9.854  12.773  14.835
83335W        W55650  28.418  30.636   1.309
83336W        W55651  40.084  11.748  10.391
83337W        W55652  16.204   3.789  12.905
83338W        W55653   4.192  31.400  14.416
83339W        W55654  32.848  32.539   0.622
83340W        W55655  15.131   0.257   1.293
83341W        W55656  43.916  29.497   4.899
83342W        W55657  25.469  41.512   1.353
83343W        W55658  38.171  24.524  10.481
83344W        W55659  10.258   0.714  13.323
83345W        W55660  41.446  20.087  11.393
83346W        W55661  16.758   1.282   2.818
83347W        W55662   7.464  26.610  13.533
83348W        W55663   7.675  22.041  13.441
83349W        W55664   6.946  33.627   1.381
83350W        W55665  33.019  28.184   2.777
83351W        W55666   4.175  41.316  13.197
83352W        W55667  17.455  40.779   1.311
83353W        W55668  38.826   2.908   1.511
83354W        W55669  44.626   6.083   0.353
83355W        W55670  14.563  33.489   2.788
83356W        W55671  40.249  27.612  10.793
83357W        W55672  29.907  17.088  13.898
83358W        W55673  17.325  27.708  13.438
83359W        W55674  40.587  14.199  11.426
83360W        W55675   7.931   8.925   4.243
83361W        W55676  20.515  21.651   0.067
83362W        W55677  38.825   0.561  13.162
83363W        W55678  43.253   4.413  10.783
83364W        W55679   9.954  11.193   4.354
83365W        W55680  20.784   2.227  11.620
83366W        W55681  11.699  39.370   0.443
83367W        W55682  34.830  25.593  14.846
83368W        W55683  42.036  27.766   4.643
83369W        W55684  26.175  33.643  14.298
83370W        W55685  12.974  43.805  11.364
83371W        W55686  32.179  35.847   2.841
83372W        W55687   2.861   8.257  12.313
83373W        W55688  27.690  43.228   0.540
83374W        W55689   6.927  12.368   1.847
83375W        W55690  18.279  31.521   2.459
83376W        W55691  28.177  21.509  11.496
83377W        W55692  29.119  35.911  10.616
83378W        W55693  34.906   7.686   2.348
83379W        W55694  11.817   4.771  14.263
83380W        W55695  34.474   7.419   3.769
83381W        W55696  13.190  19.863  14.267
83382W        W55697  43.910  25.433  12.405
83383W        W55698  18.207  17.593  13.491
83384W        W55699  38.379   1.944  11.989
83385W        W55700  27.081  32.398  10.541
83386W        W55701  23.216  42.465   2.261
83387W        W55702  33.551  36.420   0.349
83388W        W55703  44.885  20.231   0.885
83389W        W55704  30.514  43.175   0.867
83390W        W55705   9.287  15.773   1.507
83391W        W55706  29.212  16.432  11.153
83392W        W55707  22.155  22.299  13.956
83393W        W55708  36.383  32.065   3.690
83394W        W55709   0.348   8.850  12.393
83395W        W55710  40.807  43.468   2.588
83396W        W55711  37.057  40.502   4.858
83397W        W55712  25.404  41.896   2.884
83398W        W55713  31.099  24.263  13.610
83399W        W55714  31.612  27.522  12.480
83400W        W55715  14.766  38.469  10.798
83401W        W55716  15.079  44.081  10.836
83402W        W55717  23.950   5.244  11.571
83403W        W55718  36.020   9.252   2.189
83404W        W55719  14.387  14.117   3.736
83405W        W55720  18.942   1.831   1.342
83406W        W55721  28.712   4.968  12.014
83407W        W55722  37.520  20.968   0.665
83408W        W55723   0.893  31.921   0.768
83409W        W55724  16.047  32.972  14.363
83410W        W55725  41.841  35.395   0.828
83411W        W55726  17.715  39.969  12.065
83412W        W55727  10.230  28.494  14.340
83413W        W55728  38.364  30.020   2.647
83414W        W55729  18.922   7.552   2.614
83415W        W55730  44.978  21.490   2.618
83416W        W55731  13.093  19.108   1.287
83417W        W55732  16.798  33.064  12.175
83418W        W55733   7.334  31.388  12.044
83419W        W55734  19.550  26.101   1.763
83420W        W55735  17.179   4.532  11.997
83421W        W55736  22.983  21.682   0.148
83422W        W55737  41.592   6.072  12.437
83423W        W55738  13.307  23.982   2.786
83424W        W55739  12.906  33.363  10.245
83425W        W55740  26.542  38.100   0.834
83426W        W55741  28.326  30.129  12.516
83427W        W55742  43.581  28.692  14.874
83428W        W55743  27.347  16.898   2.674
83429W        W55744   8.198  44.940   1.276
83430W        W55745  37.972  29.168  12.033
83431W        W55746  33.570  26.691   0.819
83432W        W55747   6.450   3.391   3.241
83433W        W55748  17.771  44.705   0.716
83434W        W55749  31.047  41.399   4.033
83435W        W55750  26.151  34.837   0.366
83436W        W55751   3.309  23.413   0.821
83437W        W55752  41.044  22.066  12.827
83438W        W55753  42.741  16.569   3.717
83439W        W55754   6.612  10.133  11.153
83440W        W55755  39.958  40.099  14.496
83441W        W55756  35.897  42.698  14.419
83442W        W55757   4.411  28.909   3.741
83443W        W55758  37.015  25.002  11.949
83444W        W55759  34.266  26.455  12.677
83445W        W55760  24.018  39.063  14.559
83446W        W55761  34.459  20.802  14.311
83447W        W55762  28.487   7.838  10.574
83448W        W55763   7.484  42.124   1.419
83449W        W55764  10.736  29.754  13.011
83450W        W55765  12.229  42.000   3.998
83451W        W55766  41.272  13.867   4.554
83452W        W55767  28.067  31.147  10.948
83453W        W55768   5.747  37.100   0.847
83454W        W55769  35.727  42.062  12.734
83455W        W55770  11.161  31.364  11.098
83456W        W55771  16.213  24.556  14.306
83457W        W55772  43.594  25.029  11.113
83458W        W55773  16.716  22.519   3.778
83459W        W55774   6.161  10.388   1.891
83460W        W55775  15.714  38.013   1.814
83461W        W55776  13.685  18.334  14.677
83462W        W55777  18.182  22.992   1.329
83463W        W55778   0.062  40.841  13.827
83464W        W55779  12.975  37.522   0.479
83465W        W55780  39.584  15.701  13.318
83466W        W55781  13.475  24.632  13.928
83467W        W55782  12.202   6.764   3.441
83468W        W55783  31.044  24.608  12.000
83469W        W55784  38.893  26.636  14.958
83470W        W55785   9.265   8.002   2.272
83471W        W55786  32.917  21.673   2.117
83472W        W55787   1.919   0.641  13.608
83473W        W55788  25.192  13.243   2.105
83474W        W55789   2.368  24.707  13.393
83475W        W55790   1.508   7.909  14.955
83476W        W55791  31.483  15.718  10.589
83477W        W55792  43.949  17.824   0.449
83478W        W55793   6.359  27.140   2.095
83479W        W55794  19.938  34.872   3.591
83480W        W55795  29.474   3.566  14.887
83481W        W55796  42.742  24.583   4.313
83482W        W55797   3.267   6.468   3.247
83483W        W55798  21.240   2.194   4.326
83484W        W55799  26.111   1.211   0.373
83485W        W55800  22.175  16.006   3.417
83486W        W55801  27.854   5.732  10.806
83487W        W55802  26.637  38.204   2.375
83488W        W55803  37.609  12.246  11.612
83489W        W55804   1.492  34.931   0.164
83490W        W55805   1.313  15.322  14.940
83491W        W55806  24.094  37.676  12.840
83492W        W55807  31.432  32.545   2.181
83493W        W55808  29.245   1.244  11.585
83494W        W55809   6.226  42.899  13.472
83495W        W55810  36.805  20.301   0.432
83496W        W55811  19.628   0.908   1.221
83497W        W55812  31.925  42.864  13.999
83498W        W55813   9.217  30.615   3.644
83499W        W55814   2.812  41.264   3.901
83500W        W55815  29.600  28.406  10.287
83501W        W55816  21.773  20.221   1.452
83502W        W55817  30.945  31.725   1.201
83503W        W55818  11.607  15.088   0.937
83504W        W55819  25.240  37.547   0.195
83505W        W55820  23.805  36.922  10.759
83506W        W55821  13.409  17.637   0.859
83507W        W55822  35.494  39.055  13.404
83508W        W55823  29.977  21.089  12.453
83509W        W55824  31.628   1.266   2.416
83510W        W55825  23.502  31.034  12.088
83511W        W55826  39.967  38.376  13.503
83512W        W55827  35.336  20.279  11.603
83513W        W55828  33.288  10.966   2.097
83514W        W55829  29.477  13.667  11.440
83515W        W55830   3.923  40.314   4.119
83516W        W55831  37.093  13.805  11.365
83517W        W55832  43.657  30.834  13.920
83518W        W55833   2.564  10.248  13.557
83519W        W55834  11.553   8.145   3.740
83520W        W55835   6.863  13.286   1.384
83521W        W55836  10.585  21.715   4.467
83522W        W55837  37.070  29.842   4.068
83523W        W55838  37.083  27.512   2.203
83524W        W55839   8.743  42.586  11.946
83525W        W55840  12.166  10.407   4.152
83526W        W55841  32.405  26.137   4.626
83527W        W55842  25.495  40.973   1.309
83528W        W55843  13.404  25.579  11.062
83529W        W55844  32.458  41.450   0.278
83530W        W55845   5.696  28.073   4.269
83531W        W55846  44.285  42.390  14.408
83532W        W55847  38.866   2.227   2.764
83533W        W55848   2.764   3.934   1.971
83534W        W55849   4.976   4.234  13.225
83535W        W55850  15.593   1.708   1.418
83536W        W55851   1.465   3.819   0.673
83537W        W55852  15.115  38.438   4.481
83538W        W55853  28.603  13.739   4.370
83539W        W55854  12.846  12.323   0.567
83540W        W55855  20.530  41.362   4.785
83541W        W55856  29.915  40.864  14.324
83542W        W55857  31.068  12.613  11.223
83543W        W55858  40.335  34.972   3.920
83544W        W55859  23.323  39.414   4.205
83545W        W55860  33.596  35.132  14.834
83546W        W55861  39.254  31.238  11.054
83547W        W55862  34.159  27.712   3.744
83548W        W55863  35.042  17.999  11.756
83549W        W55864  19.058  19.389  11.147
83550W        W55865   8.416   9.340   0.387
83551W        W55866  21.458  15.672   0.424
83552W        W55867  29.484   6.357   2.499
83553W        W55868  13.431  12.439   4.131
83554W        W55869  13.184   3.432   2.515
83555W        W55870  25.661   3.109   4.682
83556W        W55871  30.621  22.867  11.390
83557W        W55872  19.128  40.994   3.186
83558W        W55873  40.256   5.093   0.951
83559W        W55874  19.252   8.424   0.909
83560W        W55875   2.479  13.042  13.516
83561W        W55876  29.890  31.885   3.584
83562W        W55877  17.487  15.383  12.960
83563W        W55878  34.102  26.264   3.811
83564W        W55879   8.461  37.435  13.438
83565W        W55880   6.427  33.034   0.200
83566W        W55881  23.178  14.350   3.465
83567W        W55882  10.737  28.623  13.008
83568W        W55883   2.103  42.419  10.614
83569W        W55884  11.720  43.724   2.911
83570W        W55885  36.043   5.572  14.528
83571W        W55886   5.706  32.150   4.237
83572W        W55887   7.189   7.222  14.552
83573W        W55888   2.413   0.117  14.123
83574W        W55889  39.351  34.211   3.201
83575W        W55890  22.677  22.206  13.973
83576W        W55891  42.366  26.047   1.864
83577W        W55892  16.605   6.841   3.268
83578W        W55893  30.485  36.087  13.933
83579W        W55894   8.974   2.953   2.986
83580W        W55895  21.164  36.938  10.655
83581W        W55896   2.868  17.574  11.075
83582W        W55897  14.776  10.729  13.066
83583W        W55898  10.942  16.175   5.557
83584W        W55899  32.030  31.817   4.374
83585W        W55900  14.683  13.720  12.592
83586W        W55901  18.994  30.546  11.046
83587W        W55902  38.347  12.821   5.020
83588W        W55903   4.539   5.454  11.090
83589W        W55904  10.761  11.675   4.579
83590W        W55905   3.884  21.301  13.046
83591W        W55906  21.499  40.763   1.460
83592W        W55907  44.893  12.127   4.613
83593W        W55908  27.213   5.811   1.261
83594W        W55909  40.535  12.705   1.909
83595W        W55910  18.115  31.434  12.007
83596W        W55911  21.617  23.611   2.797
83597W        W55912  10.553  38.057  12.532
83598W        W55913  16.464  43.305   4.809
83599W        W55914  16.489  44.247   9.989
83600W        W55915  41.230  11.833   4.233
83601W        W55916  15.972  13.586  12.578
83602W        W55917   1.209  37.129  14.792
83603W        W55918   2.959   6.759   4.289
83604W        W55919  30.570  42.275  14.309
83605W        W55920  32.017  14.270   2.744
83606W        W55921   0.315  15.151   1.238
83607W        W55922  22.337  10.169   3.182
83608W        W55923   4.142  11.632   3.659
83609W        W55924  24.180   9.201  14.045
83610W        W55925  17.092   4.840   2.882
83611W        W55926  36.857  21.760  14.707
83612W        W55927  44.611   1.995   4.546
83613W        W55928  11.669  37.049  12.857
83614W        W55929   2.883  25.964   2.329
83615W        W55930  20.717  31.947  10.300
83616W        W55931  18.400   5.803   1.372
83617W        W55932  33.152  37.547   0.190
83618W        W55933   5.198  15.994  13.674
83619W        W55934  16.130  34.976   3.715
83620W        W55935   2.852   4.177  12.852
83621W        W55936   4.068   0.407   0.802
83622W        W55937   0.267  12.504  12.491
83623W        W55938   6.801   4.843   4.900
83624W        W55939  38.293  42.762   4.506
83625W        W55940  31.114  18.541   3.870
83626W        W55941  14.084  40.148  11.303
83627W        W55942  34.119  42.005   0.745
83628W        W55943  24.144   3.752   3.531
83629W        W55944  29.464  12.914   3.180
83630W        W55945   3.957   5.941  12.090
83631W        W55946  15.655  11.362   4.705
83632W        W55947  23.279  25.653  13.384
83633W        W55948  42.884  12.074  10.812
83634W        W55949  33.352  41.491   3.447
83635W        W55950  13.779   6.254  10.701
83636W        W55951  26.760  40.931  12.500
83637W        W55952   3.350  33.084   3.675
83638W        W55953  18.748  28.562  12.116
83639W        W55954  38.109  28.005   3.740
83640W        W55955  26.796  27.129  14.962
83641W        W55956  14.918  15.778  10.760
83642W        W55957  27.179  26.652   1.899
83643W        W55958  25.251  32.144  10.321
83644W        W55959  12.750   8.129   0.003
83645W        W55960  35.920  40.595  13.777
83646W        W55961  19.381  28.432  13.918
83647W        W55962   8.122  18.619  14.014
83648W        W55963  11.088  17.921  10.735
83649W        W55964  24.273  20.962  13.786
83650W        W55965  18.943  36.520  12.774
83651W        W55966  16.273  32.079  14.515
83652W        W55967  30.021  27.086   4.414
83653W        W55968   7.898   0.734   0.833
83654W        W55969  40.465  40.224  14.431
83655W        W55970  44.810  10.340   1.347
83656W        W55971  24.572   7.690  12.510
83657W        W55972   3.907  38.696   1.893
83658W        W55973  10.236  26.152  13.789
83659W        W55974  10.891  13.938   2.274
83660W        W55975  11.203  27.604  10.675
83661W        W55976  12.904  27.001   3.632
83662W        W55977  36.532  23.084   1.827
83663W        W55978   1.680   5.232  11.352
83664W        W55979   7.555   6.427   4.761
83665W        W55980  32.313  31.354  13.506
83666W        W55981   8.425  31.011   4.422
83667W        W55982  19.702   2.924   0.319
83668W        W55983   8.889  26.039   0.843
83669W        W55984   1.137   0.701  13.853
83670W        W55985  26.604  28.343   2.533
83671W        W55986  14.234  24.924   1.438
83672W        W55987  22.050  10.944  11.164
83673W        W55988  20.092  23.314  11.414
83674W        W55989  30.608  20.310  11.186
83675W        W55990  12.746  13.065  14.902
83676W        W55991   8.145  23.684  11.985
83677W        W55992  20.543   5.403   2.914
83678W        W55993  32.431  23.171   3.605
83679W        W55994   0.927  43.896   0.092
83680W        W55995   0.240  36.532  14.385
83681W        W55996   1.889  44.477   0.471
83682W        W55997  12.695  42.489   0.886
83683W        W55998  19.022  35.587  12.723
83684W        W55999  12.851  10.375  14.767
83685W        W56000  32.983   4.375   0.961
83686W        W56001   6.704  29.524  11.991
83687W        W56002  30.431   0.258   1.873
83688W        W56003  42.779  18.144   0.359
83689W        W56004  41.423   8.484  10.718
83690W        W56005  28.168   8.707   3.169
83691W        W56006   0.769  44.206   4.514
83692W        W56007  10.108  16.711  11.099
83693W        W56008  10.774  20.342  10.934
83694W        W56009   5.647  11.190   1.760
83695W        W56010   0.456  10.466  12.588
83696W        W56011  15.851   1.019   3.172
83697W        W56012  35.953   6.378  13.320
83698W        W56013   3.948   1.878  14.504
83699W        W56014  32.875  37.234   4.427
83700W        W56015   2.377   3.833  12.698
83701W        W56016  22.123  23.634   1.159
83702W        W56017   5.285  19.249   3.088
83703W        W56018  41.794  28.132   4.362
83704W        W56019  44.327  37.312  10.665
83705W        W56020   7.374  13.293  12.456
83706W        W56021  11.302  29.736   3.654
83707W        W56022   2.426   9.121   2.727
83708W        W56023  30.369  42.427   1.468
83709W        W56024  32.496  26.229  14.941
83710W        W56025  29.909   9.178  11.229
83711W        W56026  13.454  40.370  11.616
83712W        W56027  42.287   7.146   2.623
83713W        W56028  32.612   2.283  12.519
83714W        W56029  28.802  16.113  11.292
83715W        W56030   1.276  12.756  13.347
83716W        W56031  38.044  15.730   4.174
83717W        W56032  17.554  30.626  12.496
83718W        W56033  31.307  34.093  14.409
83719W        W56034  26.158  27.581  10.968
83720W        W56035  21.414  37.004  11.090
83721W        W56036  16.359  18.633   0.422
83722W        W56037  34.607   2.535  10.751
83723W        W56038  39.380  37.774   2.005
83724W        W56039  10.676   9.741   4.592
83725W        W56040  11.713  20.578  10.928
83726W        W56041  38.591  15.553  13.590
83727W        W56042  27.165   8.194  11.586
83728W        W56043  22.172  25.893  12.917
83729W        W56044  25.449  39.489  13.713
83730W        W56045  39.031  16.871  13.231
83731W        W56046  31.073  27.415  10.713
83732W        W56047  25.622  12.667   4.076
83733W        W56048  33.515  26.534  11.929
83734W        W56049  29.565  39.608  10.216
83735W        W56050  34.465  31.946  10.831
83736W        W56051  11.864  37.408  14.258
83737W        W56052  39.847  20.607  12.911
83738W        W56053  30.029   7.650  14.684
83739W        W56054  42.473  20.607   0.170
83740W        W56055  14.172  39.951  14.583
83741W        W56056  14.737  17.765   3.196
83742W        W56057  28.076  21.057  10.138
83743W        W56058  37.471  14.120   3.614
83744W        W56059  19.240  10.233  11.152
83745W        W56060   8.716  32.134  12.076
83746W        W56061   9.885   1.981  10.974
83747W        W56062   7.830   3.482  13.852
83748W        W56063  37.589   0.844  10.681
83749W        W56064  26.139  36.494  13.914
83750W        W56065  44.045   4.965   4.683
83751W        W56066  39.099  37.784   4.142
83752W        W56067  32.211  25.597   3.815
83753W        W56068  23.971  24.984  14.275
83754W        W56069  43.231  22.469  14.077
83755W        W56070   3.863  30.396  12.517
83756W        W56071  12.195  29.190   3.636
83757W        W56072   2.392   3.280   2.015
83758W        W56073  37.841  27.350  12.824
83759W        W56074  42.375  37.990   3.421
83760W        W56075  22.563   0.488  12.487
83761W        W56076  39.530   8.431  11.685
83762W        W56077  29.463   0.245   3.922
83763W        W56078  44.820   1.475  10.620
83764W        W56079  35.917  26.988  11.590
83765W        W56080  41.923   6.802  11.191
83766W        W56081   1.676  38.300   2.802
83767W        W56082  14.472   9.665   0.927
83768W        W56083  28.595  32.121   1.417
83769W        W56084   3.329  37.471   2.879
83770W        W56085  42.447  33.488   2.591
83771W        W56086  40.283  14.535  12.355
83772W        W56087  30.858   5.589   3.592
83773W        W56088  29.044  38.496   2.783
83774W        W56089  36.249  28.243  11.040
83775W        W56090  41.395  11.812  13.356
83776W        W56091   2.382  22.444  12.584
83777W        W56092  40.223  29.843  14.301
83778W        W56093  44.758  17.972   3.127
83779W        W56094   2.513  20.093  12.440
83780W        W56095  23.806  15.566   1.350
83781W        W56096  41.204  18.859   2.347
83782W        W56097  31.829  38.083  12.406
83783W        W56098  41.731  25.231  13.536
83784W        W56099  35.954  38.799  13.485
83785W        W56100  26.202  37.602  10.495
83786W        W56101   2.598   1.521  13.930
83787W        W56102  12.819   6.266   4.416
83788W        W56103  13.446  12.586  12.162
83789W        W56104  37.425  28.686   2.383
83790W        W56105  11.281  27.952  14.161
83791W        W56106  32.628  28.853  12.951
83792W        W56107  20.460  18.317  10.719
83793W        W56108  12.648  18.291  11.968
83794W        W56109  13.701   3.290  11.991
83795W        W56110  34.012  26.640   5.118
83796W        W56111  21.716  29.023   4.585
83797W        W56112   7.229  27.886   1.918
83798W        W56113  19.149   0.627   2.186
83799W        W56114   2.683  35.566  13.263
83800W        W56115  16.616  44.047   2.470
83801W        W56116  19.972  19.481   0.144
83802W        W56117   8.955   8.634   4.161
83803W        W56118  40.853   5.671   3.540
83804W        W56119  44.286  24.569  14.306
83805W        W56120  42.951  44.264  13.613
83806W        W56121  32.055  13.767   2.670
83807W        W56122   1.410  17.598   1.343
83808W        W56123  28.954  33.661  14.718
83809W        W56124   7.598  39.542  10.747
83810W        W56125  25.887   6.340   5.506
83811W        W56126   0.465   7.882   1.393
83812W        W56127  13.414  43.703  11.609
83813W        W56128  41.870  20.297   0.376
83814W        W56129  11.633  35.602   4.650
83815W        W56130  17.111  40.274  12.350
83816W        W56131  34.974  16.720   3.735
83817W        W56132  34.619   7.885   0.304
83818W        W56133  40.489  33.601  13.879
83819W        W56134  39.653  31.396   4.060
83820W        W56135  36.277  28.653  10.654
83821W        W56136  13.959  34.674  13.362
83822W        W56137   9.910   2.502  14.498
83823W        W56138  37.795  40.425   2.297
83824W        W56139   3.676   3.843   0.215
83825W        W56140  37.961  31.296   1.351
83826W        W56141  42.349  41.823   4.915
83827W        W56142  37.544  10.880  11.148
83828W        W56143  16.639  38.594   4.700
83829W        W56144  16.441  12.198  13.743
83830W        W56145  26.406  14.179  12.990
83831W        W56146   5.430  36.797  13.468
83832W        W56147   4.685  28.367   5.015
83833W        W56148   5.214  14.120  13.440
83834W        W56149   7.433  38.025  11.744
83835W        W56150   0.383  38.654  13.485
83836W        W56151  21.694   0.209   4.549
83837W        W56152  27.444  30.974   5.565
83838W        W56153  33.670   4.838   4.212
83839W        W56154  26.240  12.916   4.702
83840W        W56155   9.932   0.720  14.842
83841W        W56156  25.473  15.547   3.036
83842W        W56157  20.300  44.437  13.100
83843W        W56158  31.061   1.788  14.900
83844W        W56159  11.872  44.446  14.922
83845W        W56160  23.499  19.167   3.525
83846W        W56161  15.702  37.168   3.833
83847W        W56162  24.516  16.406   4.469
83848W        W56163  37.926  12.832   1.597
83849W        W56164  12.997  24.719   0.169
83850W        W56165  30.571  19.601  10.724
83851W        W56166  42.680  13.528   3.589
83852W        W56167  26.092  43.376  12.996
83853W        W56168  26.803  14.707   4.458
83854W        W56169  18.386   4.773  14.765
83855W        W56170   6.329  37.799  11.022
83856W        W56171  27.518  33.680  13.050
83857W        W56172  17.861   8.462   3.692
83858W        W56173   5.789  20.524  13.082
83859W        W56174   0.423   4.831  14.720
83860W        W56175   9.464   1.796  12.230
83861W        W56176   2.437  34.148  13.982
83862W        W56177   4.677  42.476   2.274
83863W        W56178  28.218  37.859  12.483
83864W        W56179  40.016   1.509  14.256
83865W        W56180  39.259  10.240   0.917
83866W        W56181  12.675  19.765   0.479
83867W        W56182   5.987  44.053  12.870
83868W        W56183  21.709   9.425  11.514
83869W        W56184  30.527  37.979  10.801
83870W        W56185  18.408  38.814   3.294
83871W        W56186  43.295  11.786   4.647
83872W        W56187  39.762   5.967   0.180
83873W        W56188  44.304  27.582   4.153
83874W        W56189  25.422   1.277   1.369
83875W        W56190  15.247  37.014  12.531
83876W        W56191  43.832  13.636   2.783
83877W        W56192   4.801  16.047   3.037
83878W        W56193  38.432  17.323  12.876
83879W        W56194   1.935  17.659   1.304
83880W        W56195  31.147  19.636   0.417
83881W        W56196  14.306   5.232  12.627
83882W        W56197  31.635  15.177  11.860
83883W        W56198   3.288  10.389  10.317
83884W        W56199   5.740  26.520  10.433
83885W        W56200  19.074  21.981   4.547
83886W        W56201  35.041  12.030   1.949
83887W        W56202   7.637  23.364  12.999
83888W        W56203  41.977  25.437   1.431
83889W        W56204  20.223  25.124  13.212
83890W        W56205  15.289  42.263  13.530
83891W        W56206  21.605  43.417   0.722
83892W        W56207   2.358  41.788  13.068
83893W        W56208  42.457  38.670  11.989
83894W        W56209   7.489  16.549   2.647
83895W        W56210  13.675  28.975  11.788
83896W        W56211  42.839   0.941  12.527
83897W        W56212  31.262  22.134   2.848
83898W        W56213  40.830  19.817  11.980
83899W        W56214  31.495  12.104   2.666
83900W        W56215  17.098  13.164  12.832
83901W        W56216   8.045  30.271   2.734
83902W        W56217  30.114  44.806   1.758
83903W        W56218  23.068  39.076  10.732
83904W        W56219   6.228  20.699  10.624
83905W        W56220  24.862  40.648  12.652
83906W        W56221  10.347  36.171  10.149
83907W        W56222  43.026  26.221   2.333
83908W        W56223  12.678   3.482   4.628
83909W        W56224  18.095  20.954   0.388
83910W        W56225   7.168  15.538  13.350
83911W        W56226  21.063   2.135  14.900
83912W        W56227   4.403  25.755   1.319
83913W        W56228   6.426  15.705   3.991
83914W        W56229  32.088  22.486  11.127
83915W        W56230   4.934  18.996   4.832
83916W        W56231   2.154  36.837   2.068
83917W        W56232  27.117  20.576  11.524
83918W        W56233  31.151   9.363   3.382
83919W        W56234  30.131  32.000  10.027
83920W        W56235  36.867  25.530  10.661
83921W        W56236  32.896  27.458   4.600
83922W        W56237   2.816  11.773   1.793
83923W        W56238  38.000   0.644   0.779
83924W        W56239  28.065  24.977  11.768
83925W        W56240   4.534   3.585   0.416
83926W        W56241   4.185  16.359  13.280
83927W        W56242  31.919   6.623   3.243
83928W        W56243   3.913   8.898   1.337
83929W        W56244  14.335  11.799  13.781
83930W        W56245  31.699   1.765   1.680
83931W        W56246  43.743   2.473  14.198
83932W        W56247   9.273  23.199   3.554
83933W        W56248   7.936   4.746  14.424
83934W        W56249  37.405  37.668  14.328
83935W        W56250  13.993  15.033   4.673
83936W        W56251  10.841  13.619   3.480
83937W        W56252  18.199   0.806   1.207
83938W        W56253  21.709  20.176  12.276
83939W        W56254  25.934  19.212  14.366
83940W        W56255  33.586   4.306  13.170
83941W        W56256  22.446   7.151   2.520
83942W        W56257  23.235  31.205  14.221
83943W        W56258  38.879   7.008   2.771
83944W        W56259   7.768  10.617   3.931
83945W        W56260  17.381  17.591   4.126
83946W        W56261  40.084  16.888   3.281
83947W        W56262  33.551   3.533  11.335
83948W        W56263  16.872  36.837  14.375
83949W        W56264  33.644   2.419  12.775
83950W        W56265   7.229   3.729  12.876
83951W        W56266  36.965  28.120   1.787
83952W        W56267  43.439  42.697   4.707
83953W        W56268  24.181  44.486  11.883
83954W        W56269  34.004  27.349  12.607
83955W        W56270  35.456   4.975   3.658
83956W        W56271  23.123  42.215   1.241
83957W        W56272   1.267  22.613   1.567
83958W        W56273   6.956  23.056  10.755
83959W        W56274  13.888  14.096   2.682
83960W        W56275  14.655   1.655   4.932
83961W        W56276   6.880  44.303   1.383
83962W        W56277   5.683  41.245   4.649
83963W        W56278  15.166  28.696  14.933
83964W        W56279  41.769   2.450   4.765
83965W        W56280  34.407  26.623   4.200
83966W        W56281  20.684  28.673  13.622
83967W        W56282   4.076  22.408  10.317
83968W        W56283  13.458   2.743   4.063
83969W        W56284  15.245  22.562   1.757
83970W        W56285   1.013  44.966   0.205
83971W        W56286  19.875   0.414   3.955
83972W        W56287   6.246   2.077  11.635
83973W        W56288  30.080  23.277  11.955
83974W        W56289   3.358  37.461  14.273
83975W        W56290  42.660  25.520  14.397
83976W        W56291  42.519  40.108  12.040
83977W        W56292  20.702   5.729   3.641
83978W        W56293  13.268  22.202   0.977
83979W        W56294  20.565  41.560   2.929
83980W        W56295  35.180  44.047   2.234
83981W        W56296  36.346  40.893   0.562
83982W        W56297  15.153  17.491  12.471
83983W        W56298  30.453  13.614  11.476
83984W        W56299   4.387  13.092  13.521
83985W        W56300  38.133  31.508  11.425
83986W        W56301   5.634   6.667   3.230
83987W        W56302   5.622  42.061  12.592
83988W        W56303   4.791  18.846  12.930
83989W        W56304  42.700  17.154   1.718
83990W        W56305  18.857  25.690  13.598
83991W        W56306  14.310   7.950   3.291
83992W        W56307  24.869  38.552   0.665
83993W        W56308  42.571   4.242  13.064
83994W        W56309  28.751  23.542   3.586
83995W        W56310   2.226  18.564  13.658
83996W        W56311  19.043  25.617   4.208
83997W        W56312   5.816  29.138  11.976
83998W        W56313  10.260  14.309  13.967
83999W        W56314  39.832  34.439   4.535
84000W        W56315   9.521  24.370   1.698
84001W        W56316   8.178  32.530   1.128
84002W        W56317  42.845  23.941   1.788
84003W        W56318  35.847  13.616   3.622
84004W        W56319  22.290  20.198   1.452
84005W        W56320  41.168   0.389  13.463
84006W        W56321  44.510  15.151  13.410
84007W        W56322   6.294   2.850  11.186
84008W        W56323  12.731  31.579  10.464
84009W        W56324  37.498  23.043   0.660
84010W        W56325  25.219   4.360  14.302
84011W        W56326   0.486  38.515  13.973
84012W        W56327  33.861   4.915   1.716
84013W        W56328  23.504  28.404  14.768
84014W        W56329  17.826  10.809   5.155
84015W        W56330  11.897  11.088  13.291
84016W        W56331  30.064  17.146   0.433
84017W        W56332  12.428  16.638   9.679
84018W        W56333   2.967   4.457   3.313
84019W        W56334  44.107   3.096   4.997
84020W        W56335  12.067  16.637   0.273
84021W        W56336  23.256  36.373   3.893
84022W        W56337  32.054  20.906   0.482
84023W        W56338   0.004  37.742  11.663
84024W        W56339  34.208  11.659  12.592
84025W        W56340   0.918  19.024  13.189
84026W        W56341  29.002  15.909   2.725
84027W        W56342  41.562  29.003   1.716
84028W        W56343   5.785  35.558  10.798
84029W        W56344  35.930   1.433   3.190
84030W        W56345  13.244  10.227   3.618
84031W        W56346  41.478  15.345   0.843
84032W        W56347  14.702  37.646   9.752
84033W        W56348  10.899  24.166   0.439
84034W        W56349  39.146  25.952  14.576
84035W        W56350  28.620  22.263  12.126
84036W        W56351  19.750  42.353  12.617
84037W        W56352  42.275  22.291  11.199
84038W        W56353  33.455  17.680  14.329
84039W        W56354  24.586   1.783   2.545
84040W        W56355  31.006   2.776   1.161
84041W        W56356  36.454  31.110   3.002
84042W        W56357  33.390  14.066   5.339
84043W        W56358  35.595  25.446  14.501
84044W        W56359   7.163  26.491   0.959
84045W        W56360  26.402  21.662  12.917
84046W        W56361  30.665  28.028   2.860
84047W        W56362   6.459  24.503   3.659
84048W        W56363  39.384  38.772  12.011
84049W        W56364  11.730  31.060   0.995
84050W        W56365  27.738  43.234   3.341
84051W        W56366   2.510  39.440  13.399
84052W        W56367  26.268  25.019  12.016
84053W        W56368  29.514  26.408   3.817
84054W        W56369  33.589  33.423   0.328
84055W        W56370   1.440   6.750   3.162
84056W        W56371   2.840  32.390   4.514
84057W        W56372  23.235  12.668   2.778
84058W        W56373  19.803  11.640   2.268
84059W        W56374   1.905   8.437   3.611
84060W        W56375  36.047   3.886  10.782
84061W        W56376  42.001  32.060  13.789
84062W        W56377   2.050   3.421  10.248
84063W        W56378  15.507   9.835   0.881
84064W        W56379   2.794  18.703  12.331
84065W        W56380  34.528  43.381   3.847
84066W        W56381   4.308  28.628  12.496
84067W        W56382  39.322  22.075  10.997
84068W        W56383  11.656  20.337   4.129
84069W        W56384  27.675  18.550   0.296
84070W        W56385  36.893  24.416   0.781
84071W        W56386  28.220   5.627  13.156
84072W        W56387  37.751  17.557  14.374
84073W        W56388  12.628   1.410   4.776
84074W        W56389  13.791   5.327  13.892
84075W        W56390   6.246  28.834  13.668
84076W        W56391   4.024  26.483  11.063
84077W        W56392  38.858  34.340   4.580
84078W        W56393  23.267  20.997  12.895
84079W        W56394  29.742  17.678   0.316
84080W        W56395  36.204  40.411   1.389
84081W        W56396  19.017  30.977  14.896
84082W        W56397   0.709  30.477   4.136
84083W        W56398  12.221   3.784   3.080
84084W        W56399  41.579  30.428  13.503
84085W        W56400   9.411  36.843   4.839
84086W        W56401   8.825  12.837   4.700
84087W        W56402   4.388  11.391  11.584
84088W        W56403  33.899  43.364  10.840
84089W        W56404  12.844   5.181   2.454
84090W        W56405  44.198  43.605  14.862
84091W        W56406  30.178  32.044   2.251
84092W        W56407  37.131  12.922   4.013
84093W        W56408   3.902   0.677   0.112
84094W        W56409  25.055   3.905  13.914
84095W        W56410  26.516  28.796   3.734
84096W        W56411  19.189  14.273  11.384
84097W        W56412  38.896   8.541   2.716
84098W        W56413  13.647  44.402  11.267
84099W        W56414  29.714  12.689  10.450
84100W        W56415  37.656  34.633   3.609
84101W        W56416   5.790  21.562  14.412
84102W        W56417  24.041  32.362  14.844
84103W        W56418   1.771   3.272   4.645
84104W        W56419  39.617   6.408  12.553
84105W        W56420   6.871  10.569  10.446
84106W        W56421  44.968   3.906  10.691
84107W        W56422  22.985  42.495  14.970
84108W        W56423  38.553  44.380   2.432
84109W        W56424  23.052  36.491  12.530
84110W        W56425  29.002   0.344   0.395
84111W        W56426  28.154  24.500  11.999
84112W        W56427  28.772   1.277  13.316
84113W        W56428  14.230   5.857   0.497
84114W        W56429  10.235  29.528   2.643
84115W        W56430  41.483  40.012  12.033
84116W        W56431  24.695  39.164  10.792
84117W        W56432  27.121   9.301   2.167
84118W        W56433   0.291  32.506   2.430
84119W        W56434   0.294  38.095  11.925
84120W        W56435  14.361   3.762  13.355
84121W        W56436  18.424  41.095  11.105
84122W        W56437  36.094  24.092   1.769
84123W        W56438  17.689  21.309   1.178
84124W        W56439  22.530  41.355   2.820
84125W        W56440  36.443  33.610  12.885
84126W        W56441  13.810   3.470  12.509
84127W        W56442  15.799   2.186  14.476
84128W        W56443   3.132  20.218  13.276
84129W        W56444  36.902  32.566  13.495
84130W        W56445  30.815   9.964   0.330
84131W        W56446  43.014  32.350   2.806
84132W        W56447  27.408  28.741  14.513
84133W        W56448  33.169  18.073  11.166
84134W        W56449  31.512  37.150   2.199
84135W        W56450  25.972   8.246   4.823
84136W        W56451  18.273  39.277   3.832
84137W        W56452  29.041  41.702  13.527
84138W        W56453  38.560   5.871  10.741
84139W        W56454   2.532  41.891   3.160
84140W        W56455  23.848  30.144  13.961
84141W        W56456   6.461   8.615   3.160
84142W        W56457  12.231   4.856  13.893
84143W        W56458  17.720  38.120   1.926
84144W        W56459  13.159  34.119   4.584
84145W        W56460  36.121  10.107   1.871
84146W        W56461  16.473   6.231  12.060
84147W        W56462  44.309  30.551  11.079
84148W        W56463   8.204   4.688   9.694
84149W        W56464  42.054  29.781   1.793
84150W        W56465  12.840  29.629  13.510
84151W        W56466   7.460  21.874   1.709
84152W        W56467   6.917  16.603   4.099
84153W        W56468  42.319  44.251  10.689
84154W        W56469  38.559  28.291   3.858
84155W        W56470  20.457  24.978   3.665
84156W        W56471  30.070  19.120  10.705
84157W        W56472  26.650  33.787  11.580
84158W        W56473  13.237   5.891   0.215
84159W        W56474  24.772  33.707   2.203
84160W        W56475  32.884  40.870   2.080
84161W        W56476  20.519  13.160  14.855
84162W        W56477  12.632  13.837  11.029
84163W        W56478  40.539  29.867   3.580
84164W        W56479  28.815   6.706   3.715
84165W        W56480  37.361   4.583   4.149
84166W        W56481   1.700  26.059   1.497
84167W        W56482  33.773  31.482   3.688
84168W        W56483  21.680  35.867  13.904
84169W        W56484  14.332  17.216  11.055
84170W        W56485  42.790  37.574  10.094
84171W        W56486   2.413   8.200  11.972
84172W        W56487  27.729  11.944   1.157
84173W        W56488  35.839  20.650  14.328
84174W        W56489   0.904  10.223   5.015
84175W        W56490  26.580  36.333  10.766
84176W        W56491  42.572  14.239  11.865
84177W        W56492  37.597   7.643  13.707
84178W        W56493   9.652   6.648  12.413
84179W        W56494  34.795  39.447  10.729
84180W        W56495  22.257   5.275  12.362
84181W        W56496  16.182  25.666   0.783
84182W        W56497  11.236   8.678  14.907
84183W        W56498   3.934  41.482   1.765
84184W        W56499  28.426  24.691  11.516
84185W        W56500   0.929  36.625   1.639
84186W        W56501  14.297  33.171  13.781
84187W        W56502  25.061  23.040  13.910
84188W        W56503   0.472   1.680   1.943
84189W        W56504  32.267  18.758  11.135
84190W        W56505   4.204  31.580  14.955
84191W        W56506  16.786  31.862   3.790
84192W        W56507  31.669   4.712  10.301
84193W        W56508  35.990  27.609   4.284
84194W        W56509   0.626  42.391   1.306
84195W        W56510  20.085  35.906   3.999
84196W        W56511  23.548   1.046   2.845
84197W        W56512  26.687  35.287  12.554
84198W        W56513  23.664  25.705   4.915
84199W        W56514  14.193  34.952  14.107
84200W        W56515  36.393  10.071  12.051
84201W        W56516   3.519   5.044  11.179
84202W        W56517  26.621  24.130   0.649
84203W        W56518  35.467  32.000  10.705
84204W        W56519  34.936  19.526  10.009
84205W        W56520  30.671   7.188   2.274
84206W        W56521   0.394   9.139   0.801
84207W        W56522  20.575   0.773   2.346
84208W        W56523  38.765   7.393  14.682
84209W        W56524   5.447  41.675   4.902
84210W        W56525   0.499   6.689   2.822
84211W        W56526   2.292  35.597   2.307
84212W        W56527  31.326  42.750   0.707
84213W        W56528   1.071  41.962  12.551
84214W        W56529  40.281  24.713  14.353
84215W        W56530   6.654  17.052  14.974
84216W        W56531  19.749   3.214  13.865
84217W        W56532  30.204  26.708   2.658
84218W        W56533   1.855  24.118   4.636
84219W        W56534  38.100  29.445  10.514
84220W        W56535  30.243  34.539  12.023
84221W        W56536   9.640  12.715  11.950
84222W        W56537  33.889   7.159  12.449
84223W        W56538  11.597   8.622   1.650
84224W        W56539  26.232  16.567   2.089
84225W        W56540   6.760  41.470   4.516
84226W        W56541  33.125  44.993   0.941
84227W        W56542  16.121  26.196   0.771
84228W        W56543  13.149  16.468   2.369
84229W        W56544   4.783  32.746  10.064
84230W        W56545  38.412  33.048  12.449
84231W        W56546  38.168   9.576   3.101
84232W        W56547  42.943   5.984   2.442
84233W        W56548  33.471   5.145  12.625
84234W        W56549  38.626  44.489  13.432
84235W        W56550  10.469  21.365  11.454
84236W        W56551   5.374   1.463   4.615
84237W        W56552  14.808  43.980   1.553
84238W        W56553  21.780   9.776   2.475
84239W        W56554   6.860  17.097   0.810
84240W        W56555   7.398   9.448  13.003
84241W        W56556  40.847  39.532   2.659
84242W        W56557  12.746  20.276  14.425
84243W        W56558   3.774   0.840  14.618
84244W        W56559  37.351   3.464   5.020
84245W        W56560  21.740  37.089  13.319
84246W        W56561  18.943  19.082  11.525
84247W        W56562  24.642  43.437  10.982
84248W        W56563  28.604  19.126  11.748
84249W        W56564  44.814  43.772   0.511
84250W        W56565  30.174  36.975  10.722
84251W        W56566  10.324   6.490  11.086
84252W        W56567   4.094   6.853   3.193
84253W        W56568  39.512  23.138   0.941
84254W        W56569  34.155  10.212  12.469
84255W        W56570   4.824   0.193   1.303
84256W        W56571  32.373  42.050   0.888
84257W        W56572  18.686  26.142  13.789
84258W        W56573  19.297  35.498  11.532
84259W        W56574  32.926  28.578  11.606
84260W        W56575  24.606   3.369   1.863
84261W        W56576   4.342  18.458   0.605
84262W        W56577  31.929  42.199   4.494
84263W        W56578  19.305  39.738   4.656
84264W        W56579  13.604   1.806   3.370
84265W        W56580   3.438  10.636   2.693
84266W        W56581  33.100   2.359   1.024
84267W        W56582  31.374   4.500   5.021
84268W        W56583   5.656  30.532  13.994
84269W        W56584  34.882  21.857   4.668
84270W        W56585  27.018  28.899   0.406
84271W        W56586   2.052  10.800  13.900
84272W        W56587  39.409  19.535   1.838
84273W        W56588  37.289  40.609  14.230
84274W        W56589  29.459  29.526  12.205
84275W        W56590  34.755   4.917  13.560
84276W        W56591   1.557  32.077  13.091
84277W        W56592  28.815  25.098   2.729
84278W        W56593   3.815  29.861  12.587
84279W        W56594   3.151  18.856   4.350
84280W        W56595   5.805   8.320  11.274
84281W        W56596  38.619  19.880   2.235
84282W        W56597  41.854  37.508   9.566
84283W        W56598  43.409  31.293  13.911
84284W        W56599   3.761  33.521  13.011
84285W        W56600  24.558   4.746  14.269
84286W        W56601   2.457  16.149   0.493
84287W        W56602  44.464  29.249   3.662
84288W        W56603  36.047  30.094  14.760
84289W        W56604  32.105  35.579   1.393
84290W        W56605  17.573   6.090   2.390
84291W        W56606  30.926  28.268   0.524
84292W        W56607  27.876  37.440   4.185
84293W        W56608  33.422  19.690  12.549
84294W        W56609  13.204  32.370   2.269
84295W        W56610  27.634  30.443  14.948
84296W        W56611  34.127  20.686  14.705
84297W        W56612  31.431  27.483  10.354
84298W        W56613  25.125  19.762   1.747
84299W        W56614  38.371   3.210  11.500
84300W        W56615  27.951   6.676   3.272
84301W        W56616  25.862  31.981   5.122
84302W        W56617  38.168  36.969   2.090
84303W        W56618  27.121   7.714   1.268
84304W        W56619  33.643  37.488   0.054
84305W        W56620  21.972  34.550   4.675
84306W        W56621  41.940  23.230  12.919
84307W        W56622  19.206  16.744   3.969
84308W        W56623  33.577  30.432   4.655
84309W        W56624  26.421   2.917   2.187
84310W        W56625   0.572   2.603  11.634
84311W        W56626  12.748  33.675   3.290
84312W        W56627  12.025   3.468   0.803
84313W        W56628  15.494  12.752   0.689
84314W        W56629  28.928  11.328  14.856
84315W        W56630  27.453  24.526   4.697
84316W        W56631  43.928  20.190  10.753
84317W        W56632  39.504  11.681   1.846
84318W        W56633  34.718   7.439   2.797
84319W        W56634  42.567  26.453   3.136
84320W        W56635  36.896  17.602   4.626
84321W        W56636  26.208  28.863   0.709
84322W        W56637   5.334  31.880   0.441
84323W        W56638  30.452  34.625  13.964
84324W        W56639  28.036  11.854  13.353
84325W        W56640  35.073  22.160  12.100
84326W        W56641  27.651  41.936  12.828
84327W        W56642   0.952  36.648   2.627
84328W        W56643  44.404  36.464   4.349
84329W        W56644  17.435  10.792   4.629
84330W        W56645  22.763  25.539   4.388
84331W        W56646  18.837   0.407   3.213
84332W        W56647  18.101   1.312   2.940
84333W        W56648  30.171  20.086   1.796
84334W        W56649  37.412  15.577   1.819
84335W        W56650  12.351  17.683   1.070
84336W        W56651  35.601  28.844  11.040
84337W        W56652  10.694   6.193  10.359
84338W        W56653   9.310   2.775  12.509
84339W        W56654  22.283  12.628  13.959
84340W        W56655   4.446  15.743  14.538
84341W        W56656   1.307   5.669  14.716
84342W        W56657  42.299  35.500  12.032
84343W        W56658  17.247  39.060   1.888
84344W        W56659  22.194   4.218   4.513
84345W        W56660  32.199   8.451   3.784
84346W        W56661  10.914  17.517  13.835
84347W        W56662  11.632  14.148   0.796
84348W        W56663  20.788   1.459  12.528
84349W        W56664  39.512  35.080   1.766
84350W        W56665  24.194   4.273   2.645
84351W        W56666   8.350   8.939   3.073
84352W        W56667  22.078  19.444  14.354
84353W        W56668  42.530  33.635   1.577
84354W        W56669  43.885  35.149   3.535
84355W        W56670  43.204   0.913  11.998
84356W        W56671  23.421  16.689   3.717
84357W        W56672   5.333  25.901  11.030
84358W        W56673   8.415  31.611  11.517
84359W        W56674  32.063  25.225   3.241
84360W        W56675   8.649   1.846   3.658
84361W        W56676  39.351  10.260  10.858
84362W        W56677  10.841  12.180   2.757
84363W        W56678   2.454  33.959  13.050
84364W        W56679  12.326   2.411   2.031
84365W        W56680  20.499  14.791   1.291
84366W        W56681  30.636  28.630   0.825
84367W        W56682  41.061  28.902   1.762
84368W        W56683  19.321  39.831   1.879
84369W        W56684  40.955  28.956  10.664
84370W        W56685  34.843  20.527   1.756
84371W        W56686   4.765  28.088  13.306
84372W        W56687   7.303  41.790   3.255
84373W        W56688  15.615  17.551  13.863
84374W        W56689  18.269  24.196   0.177
84375W        W56690  42.915  25.797   0.010
84376W        W56691  14.025  22.761   2.388
84377W        W56692  26.714  37.526  13.026
84378W        W56693   4.463  29.086   2.360
84379W        W56694  40.312  36.488  14.526
84380W        W56695   4.243  44.648  12.949
84381W        W56696  31.543   5.186   1.286
84382W        W56697   1.358  33.779  10.355
84383W        W56698  39.001   3.199   3.686
84384W        W56699  21.557  32.827   3.166
84385W        W56700  18.182  28.926   4.826
84386W        W56701  10.217  40.562   1.348
84387W        W56702  39.944  21.632   4.098
84388W        W56703  31.571   2.939  14.741
84389W        W56704  39.684  14.010   2.944
84390W        W56705  21.141  39.479  13.501
84391W        W56706  22.368   8.811  10.716
84392W        W56707  26.044  14.611  12.067
84393W        W56708   7.671  20.618  10.967
84394W        W56709   4.911   3.992  11.620
84395W        W56710  21.659  30.083   0.746
84396W        W56711  41.864  16.042  14.007
84397W        W56712   0.287  24.558   4.780
84398W        W56713  16.793  39.120   4.540
84399W        W56714  21.212  41.838   0.319
84400W        W56715   2.266   4.325   0.472
84401W        W56716  13.605  31.838   4.213
84402W        W56717   4.875  17.188   0.771
84403W        W56718  41.552  22.228  13.258
84404W        W56719  23.930  18.775  13.135
84405W        W56720   2.012   0.929   2.797
84406W        W56721   8.253   8.805   1.134
84407W        W56722  15.819  42.136   4.205
84408W        W56723  27.873  29.510   2.762
84409W        W56724  33.938  20.503  10.782
84410W        W56725  13.741  12.392  11.761
84411W        W56726   3.469  22.072   0.687
84412W        W56727  36.820  30.298   4.062
84413W        W56728  35.047  20.325  14.943
84414W        W56729  18.577   5.683   2.248
84415W        W56730  21.023  41.576  11.802
84416W        W56731   0.044  21.563  14.921
84417W        W56732  42.952  16.389  11.459
84418W        W56733  12.661  11.281   2.135
84419W        W56734  32.340  33.130   2.123
84420W        W56735   4.737  44.252   3.783
84421W        W56736   8.719   2.409  12.049
84422W        W56737  28.142  21.575   2.375
84423W        W56738  39.907  37.405   3.312
84424W        W56739  43.305  28.398  13.521
84425W        W56740   9.458   2.833   3.146
84426W        W56741   4.745  33.784   1.318
84427W        W56742  40.411  14.015   4.377
84428W        W56743  34.907   2.759   4.342
84429W        W56744   9.416   9.606  14.427
84430W        W56745  22.849  18.369   2.699
84431W        W56746   7.059  19.354  14.397
84432W        W56747  38.658  28.976   2.721
84433W        W56748  35.573  24.513  14.275
84434W        W56749   2.421  40.990   3.746
84435W        W56750  34.938   2.246  12.940
84436W        W56751   6.701   4.045  11.524
84437W        W56752  10.926  25.000  13.477
84438W        W56753  18.766  12.970   2.796
84439W        W56754  14.113  39.993  13.159
84440W        W56755  25.871  33.461   4.098
84441W        W56756   4.931  19.127  10.676
84442W        W56757  26.955  43.034   1.843
84443W        W56758  37.419  42.868  10.575
84444W        W56759  37.077  23.562   0.427
84445W        W56760   3.491  16.293  14.304
84446W        W56761  37.878  15.384  13.789
84447W        W56762   9.283  37.345  13.987
84448W        W56763  28.958  26.104   4.513
84449W        W56764  31.353  23.751   3.758
84450W        W56765  16.349  32.502   2.184
84451W        W56766  44.211   2.491   1.222
84452W        W56767   3.085  33.917   0.332
84453W        W56768  32.860  30.864  11.474
84454W        W56769  41.524  14.678  12.875
84455W        W56770  44.428  38.876   2.130
84456W        W56771  13.647  27.578   4.696
84457W        W56772   3.505  31.862   0.445
84458W        W56773   3.644  19.979   2.304
84459W        W56774  19.855  10.879  14.476
84460W        W56775   9.102   5.796  11.274
84461W        W56776  43.627  26.563   4.581
84462W        W56777   0.251  12.807  10.640
84463W        W56778  27.134  34.317  12.935
84464W        W56779  18.273  14.407  12.567
84465W        W56780  38.451   3.000  13.434
84466W        W56781  29.687  26.260   0.279
84467W        W56782  23.014  11.317   3.779
84468W        W56783  13.578   4.832  12.866
84469W        W56784  27.133  29.560  13.378
84470W        W56785  37.066  28.486  11.184
84471W        W56786  36.136   6.318   2.146
84472W        W56787   9.560  31.502   2.342
84473W        W56788  23.829  23.389   1.617
84474W        W56789  11.353  36.086   1.814
84475W        W56790  33.659  27.521  13.110
84476W        W56791  41.024  25.127   3.577
84477W        W56792  44.091  13.402   1.740
84478W        W56793  18.035  18.013  12.044
84479W        W56794  11.059  31.679   4.162
84480W        W56795  37.387  35.540  11.090
84481W        W56796  32.530  42.111  11.157
84482W        W56797  20.201  14.969   4.811
84483W        W56798  39.919  13.850   3.464
84484W        W56799  24.058  22.208   5.414
84485W        W56800  29.235   4.838   1.331
84486W        W56801  22.909   5.232   4.188
84487W        W56802  11.055  27.728   0.958
84488W        W56803  22.940   6.724   1.418
84489W        W56804  30.441  43.418   1.950
84490W        W56805  18.524  34.339   3.640
84491W        W56806  38.147  37.602  14.731
84492W        W56807   6.864  27.091  10.519
84493W        W56808  17.685  16.909   4.658
84494W        W56809  17.645  11.236  10.079
84495W        W56810  13.292  20.393   1.942
84496W        W56811  10.244  38.840   0.786
84497W        W56812   9.786  15.665   1.698
84498W        W56813  42.019  22.080  13.076
84499W        W56814  40.494  12.713  10.752
84500W        W56815  16.241  39.795  14.841
84501W        W56816  32.221  16.725   0.836
84502W        W56817  39.669  13.243   4.586
84503W        W56818  26.425  18.294   0.726
84504W        W56819  22.522  25.188   3.601
84505W        W56820  10.124  15.317   0.351
84506W        W56821  35.458  41.007  14.585
84507W        W56822  14.825  21.621  12.661
84508W        W56823  17.887  25.179   0.730
84509W        W56824  16.574  31.968   1.442
84510W        W56825  26.658  18.656   0.411
84511W        W56826   4.463  31.294  11.571
84512W        W56827  16.181   3.940   0.648
84513W        W56828  11.798   1.195   0.675
84514W        W56829  19.024  15.304   3.640
84515W        W56830   9.307   4.404  10.890
84516W        W56831  42.009   0.239   0.778
84517W        W56832  25.920  14.044  13.951
84518W        W56833  21.634  11.136  14.846
84519W        W56834  16.668  29.097   0.464
84520W        W56835  33.417  18.328   0.095
84521W        W56836  44.524  19.182  12.735
84522W        W56837  29.936  40.385  13.583
84523W        W56838  20.578   7.135   2.903
84524W        W56839  17.350  43.884  10.826
84525W        W56840  28.162  35.983   1.019
84526W        W56841  41.510  15.952   3.685
84527W        W56842  43.875  13.681  14.040
84528W        W56843  38.216   4.488  14.476
84529W        W56844  41.454  20.287   1.918
84530W        W56845   4.981   2.304   3.092
84531W        W56846   9.128  37.624   0.724
84532W        W56847  22.828   1.937   3.191
84533W        W56848   9.214  43.549  14.529
84534W        W56849  27.653  35.156  10.251
84535W        W56850  24.438  21.285   2.729
84536W        W56851  12.677  27.584  10.634
84537W        W56852  22.186   8.345  12.825
84538W        W56853  24.561  31.127   3.104
84539W        W56854  16.867  35.125   1.328
84540W        W56855  15.339  20.200  11.158
84541W        W56856   3.363  29.611  12.482
84542W        W56857   2.406  41.453  13.537
84543W        W56858   8.285  31.421  12.831
84544W        W56859  36.507   0.962  14.722
84545W        W56860  15.734   6.819  14.584
84546W        W56861  10.974  29.921   2.736
84547W        W56862  12.021   7.141  14.967
84548W        W56863  28.007  20.295  10.268
84549W        W56864  40.680  15.682   4.609
84550W        W56865  23.568  32.459   1.915
84551W        W56866   2.699  34.477  12.891
84552W        W56867   4.889  43.246  14.118
84553W        W56868  37.490  23.487  12.493
84554W        W56869  19.525  25.554   3.342
84555W        W56870  16.140  26.186  14.358
84556W        W56871  14.411  12.323  13.881
84557W        W56872  22.169   5.838  14.114
84558W        W56873  30.977  24.754  14.441
84559W        W56874  15.506  13.610   0.745
84560W        W56875  37.872  12.724  11.485
84561W        W56876  28.918  43.841  14.288
84562W        W56877   7.374  34.894   3.800
84563W        W56878   0.931  41.313   2.761
84564W        W56879  18.408   8.694   4.173
84565W        W56880  16.335   7.887   2.734
84566W        W56881   5.799  43.544   3.253
84567W        W56882  28.448  23.723  11.475
84568W        W56883  27.991  26.662  10.231
84569W        W56884  24.147   1.893   0.255
84570W        W56885  11.784  24.446   1.941
84571W        W56886   4.428  12.032   4.328
84572W        W56887  40.885  29.961  10.628
84573W        W56888   2.323  21.123   1.963
84574W        W56889  23.013  13.800   1.636
84575W        W56890  41.729  37.932   1.710
84576W        W56891  17.718  27.766   2.315
84577W        W56892  42.159  38.339  12.777
84578W        W56893  40.005  34.416  14.548
84579W        W56894  38.654  24.183   4.490
84580W        W56895  25.937  36.431   0.744
84581W        W56896  23.693  39.254  12.357
84582W        W56897  34.594  28.048  13.825
84583W        W56898   3.851   7.304   5.211
84584W        W56899  11.393  10.652  11.071
84585W        W56900  28.237   2.378   4.177
84586W        W56901  27.571  26.708  14.795
84587W        W56902   4.286  39.612  12.853
84588W        W56903  11.730  14.091   4.142
84589W        W56904  38.046  44.971  13.069
84590W        W56905   6.963  23.564   0.254
84591W        W56906  12.357  20.243   2.895
84592W        W56907  23.065  26.160  12.503
84593W        W56908  41.235  11.222  14.342
84594W        W56909   6.354  33.442   4.146
84595W        W56910  23.155  36.016   0.827
84596W        W56911  39.787  11.607  12.456
84597W        W56912  30.444   8.890  14.391
84598W        W56913   6.754  35.572   4.547
84599W        W56914  40.586   1.929  14.981
84600W        W56915  43.282  33.592   4.129
84601W        W56916  19.502  33.821   0.245
84602W        W56917  17.795  12.281  13.516
84603W        W56918  18.288  33.572  14.313
84604W        W56919  40.901   9.427   2.138
84605W        W56920  21.691  15.232   3.066
84606W        W56921  12.814  44.711  13.618
84607W        W56922  20.641  33.971   0.760
84608W        W56923   6.641  39.496  13.611
84609W        W56924  31.655  30.654   0.316
84610W        W56925  29.524  38.509   4.530
84611W        W56926  41.095  43.612  14.289
84612W        W56927  25.042  31.368   3.225
84613W        W56928   0.267  39.293   0.387
84614W        W56929  10.395   5.374  11.201
84615W        W56930  35.734  12.302   1.509
84616W        W56931  25.609  43.876  11.438
84617W        W56932  26.676  37.556  12.146
84618W        W56933  34.196  21.621   3.316
84619W        W56934  21.044  44.166   0.825
84620W        W56935  14.937  35.556   4.300
84621W        W56936   0.153  20.687  13.823
84622W        W56937  11.882  44.769  12.640
84623W        W56938  15.167   9.662   3.532
84624W        W56939  31.367  28.986  13.506
84625W        W56940  19.034  23.733   3.304
84626W        W56941  25.183  44.444  14.805
84627W        W56942  22.881  38.497  11.067
84628W        W56943  29.932  27.427   1.326
84629W        W56944  10.853  23.600  11.622
84630W        W56945  28.808  12.257  13.656
84631W        W56946  14.095   8.334   4.502
84632W        W56947  38.233   2.010  14.328
84633W        W56948  25.996  39.612   3.817
84634W        W56949  28.885  21.906   4.373
84635W        W56950  26.129   0.377   0.755
84636W        W56951  38.573  41.424  11.148
84637W        W56952  25.486  31.118  14.907
84638W        W56953  22.036  36.426   4.858
84639W        W56954  10.717   6.298  11.335
84640W        W56955  33.357   2.791   3.054
84641W        W56956  13.293  10.116   1.888
84642W        W56957  27.240  21.526  10.594
84643W        W56958  25.047  28.113  12.323
84644W        W56959  18.066  35.157   4.054
84645W        W56960   8.899  25.304  14.751
84646W        W56961   8.939  41.315  10.693
84647W        W56962  14.139  16.390   3.758
84648W        W56963  41.477  18.091   2.988
84649W        W56964  13.906   9.946   1.144
84650W        W56965  26.994  30.663   3.392
84651W        W56966  41.548  37.635   9.974
84652W        W56967   2.184   7.806   2.732
84653W        W56968  25.492  11.795   3.711
84654W        W56969   9.188  17.712   1.777
84655W        W56970  44.000  24.393  11.707
84656W        W56971   0.070  39.398   2.726
84657W        W56972  31.346  24.494   0.802
84658W        W56973  18.942  24.737   2.731
84659W        W56974  13.269  20.595  13.521
84660W        W56975  23.261  31.404   2.614
84661W        W56976  41.573  33.894   1.932
84662W        W56977  19.270  26.019   1.331
84663W        W56978  34.309  27.647   3.243
84664W        W56979   6.780  15.036  11.106
84665W        W56980  24.534  39.309   1.224
84666W        W56981  38.535  25.060   1.198
84667W        W56982  39.781  25.658   2.375
84668W        W56983   7.728  10.695  13.965
84669W        W56984  32.981   0.913   0.472
84670W        W56985  37.376  43.938   2.706
84671W        W56986   5.516   4.347   4.061
84672W        W56987  16.103  30.734  11.446
84673W        W56988  12.182  40.663   1.837
84674W        W56989  35.811  10.217  13.396
84675W        W56990  29.961  21.789  13.903
84676W        W56991  30.348  44.220   3.602
84677W        W56992   0.999  33.179  11.505
84678W        W56993  13.651  18.797  11.975
84679W        W56994   0.298   1.286   2.267
84680W        W56995  30.020   9.895  12.438
84681W        W56996  18.119  15.926  14.748
84682W        W56997  23.016  15.980   2.597
84683W        W56998  16.329  22.979  13.811
84684W        W56999  26.534   9.157   0.878
84685W        W57000  44.474  38.058  11.054
84686W        W57001  44.292  10.463   2.388
84687W        W57002  35.039  15.958   3.172
84688W        W57003  31.093  10.342  10.905
84689W        W57004  16.274  17.354   1.507
84690W        W57005  39.459  32.152  14.748
84691W        W57006  37.852  15.983   1.741
84692W        W57007  42.542  32.401  14.748
84693W        W57008  28.083  17.173  13.674
84694W        W57009   4.515   5.169  12.850
84695W        W57010  43.911  10.135   9.774
84696W        W57011  20.943  27.433  14.943
84697W        W57012  20.932  10.223  12.083
84698W        W57013  14.032  23.167   3.525
84699W        W57014   2.178  19.609  10.793
84700W        W57015  34.468  16.717   3.031
84701W        W57016  24.987  15.097   0.244
84702W        W57017  42.076   4.292  13.957
84703W        W57018  33.461  33.240   4.222
84704W        W57019  25.580  24.728  14.805
84705W        W57020  21.534  18.671  11.361
84706W        W57021   4.424   1.910   2.587
84707W        W57022  25.005   6.396  11.659
84708W        W57023  15.337  39.366   2.633
84709W        W57024  38.810  19.584  10.948
84710W        W57025  31.324   8.645   4.819
84711W        W57026   2.646  41.128  12.394
84712W        W57027   3.622  28.181   4.183
84713W        W57028  26.001   2.993   4.271
84714W        W57029   1.536  10.087   2.002
84715W        W57030  29.881   8.679  11.211
84716W        W57031  33.047  17.279  11.240
84717W        W57032   0.795  22.836   1.797
84718W        W57033   0.285  14.844   1.676
84719W        W57034  33.644   1.765  11.983
84720W        W57035  27.358  35.003   4.834
84721W        W57036  32.281   9.706   1.897
84722W        W57037  20.253  36.535   0.528
84723W        W57038  20.270   9.212   0.028
84724W        W57039  26.654   4.370   2.964
84725W        W57040   0.057  40.702  14.879
84726W        W57041  13.652  10.360  12.993
84727W        W57042  21.517   5.782  12.468
84728W        W57043  18.842  30.333  12.484
84729W        W57044  19.805  11.268  13.313
84730W        W57045  13.282   5.160  13.856
84731W        W57046  25.565   1.704   4.553
84732W        W57047  17.547  40.303  13.013
84733W        W57048  13.602  25.824  12.727
84734W        W57049  40.741  22.974   2.225
84735W        W57050  24.602  19.378   2.702
84736W        W57051  15.583  21.184   4.351
84737W        W57052  43.455  31.089   0.491
84738W        W57053  30.063  41.562  13.243
84739W        W57054  29.049  41.828  14.328
84740W        W57055  30.217  44.964  13.339
84741W        W57056   2.285  13.770   3.149
84742W        W57057   0.756  24.800  11.535
84743W        W57058   3.217  12.213  10.302
84744W        W57059  25.745   0.414   1.134
84745W        W57060  40.051  27.626  13.966
84746W        W57061  37.138  36.857   1.072
84747W        W57062  40.536  31.030  10.516
84748W        W57063   4.868  25.285   2.698
84749W        W57064  26.553  10.142   2.220
84750W        W57065  33.041   9.404  12.494
84751W        W57066  16.574  29.530   0.202
84752W        W57067  44.928  31.915   4.577
84753W        W57068  35.212  19.595   3.676
84754W        W57069  27.023  33.778  12.844
84755W        W57070  20.691  44.667  10.633
84756W        W57071  24.493  20.368  12.762
84757W        W57072   4.752  38.749   2.482
84758W        W57073  15.040   0.976  14.891
84759W        W57074   2.689  35.392   3.337
84760W        W57075  20.462   1.898  12.504
84761W        W57076  16.811  11.724   1.960
84762W        W57077  22.340  32.500  13.382
84763W        W57078  44.826  25.484  14.751
84764W        W57079  37.514  38.984  14.179
84765W        W57080   4.420   7.958  14.398
84766W        W57081  29.676   5.796  14.922
84767W        W57082  40.603  14.820   2.215
84768W        W57083  31.550  12.713   1.842
84769W        W57084  38.606  11.941   2.362
84770W        W57085  42.989  44.339  13.109
84771W        W57086  11.123  26.610  11.922
84772W        W57087  18.227  36.383   0.068
84773W        W57088  25.989  24.639   2.200
84774W        W57089  29.665   2.441   0.370
84775W        W57090  40.254  44.161   1.778
84776W        W57091  14.651  41.509   0.831
84777W        W57092   5.685  42.075   2.856
84778W        W57093   4.003   2.176   2.723
84779W        W57094   5.311  15.597   2.023
84780W        W57095  39.336  11.095   4.275
84781W        W57096   8.690  27.591  12.794
84782W        W57097  21.910   0.996   4.165
84783W        W57098   7.812  30.640  12.856
84784W        W57099   6.724  44.291   4.488
84785W        W57100  31.027   3.880   1.231
84786W        W57101  37.500  17.464  11.195
84787W        W57102  29.599  36.458  12.484
84788W        W57103  30.273  18.536   2.085
84789W        W57104  35.404  34.634  13.971
84790W        W57105   2.449   4.915  13.249
84791W        W57106  34.146   4.809  12.166
84792W        W57107  36.395  29.761  14.552
84793W        W57108  31.364   8.652  13.418
84794W        W57109  35.427  21.702  10.948
84795W        W57110  22.688   0.659  13.959
84796W        W57111  26.983  44.943   2.271
84797W        W57112  14.886  25.119   3.630
84798W        W57113  13.976  33.219  12.480
84799W        W57114  14.936  25.862   3.103
84800W        W57115   1.721  18.049   0.444
84801W        W57116  41.307   3.850  11.078
84802W        W57117  14.201  21.309   2.174
84803W        W57118  14.779  24.478   4.340
84804W        W57119  34.423  22.529  12.436
84805W        W57120  14.864  36.598  13.515
84806W        W57121  38.812   8.667   0.877
84807W        W57122  41.067  34.891  13.481
84808W        W57123   9.761  18.341   1.446
84809W        W57124   4.026  35.737   4.084
84810W        W57125  11.517  42.321   3.400
84811W        W57126  31.832  24.670  12.627
84812W        W57127  39.526  34.536   2.259
84813W        W57128  35.497  32.383   2.289
84814W        W57129   9.146  36.435   4.624
84815W        W57130  27.046  29.144  12.459
84816W        W57131  30.959  27.486  14.292
84817W        W57132   7.823  10.261  10.680
84818W        W57133  22.177  42.295   1.680
84819W        W57134   4.976  11.886   4.143
84820W        W57135  39.155  11.649   3.864
84821W        W57136  16.736  17.733  13.958
84822W        W57137  24.043  20.568  14.506
84823W        W57138  10.563  30.375   3.501
84824W        W57139   9.673   9.924  11.563
84825W        W57140  25.094  38.769   3.629
84826W        W57141   7.388   2.090   4.212
84827W        W57142  44.251   6.863   1.173
84828W        W57143  12.133  43.520   3.272
84829W        W57144  32.599  40.922  11.701
84830W        W57145   5.716  19.529   3.149
84831W        W57146  42.927  23.026   4.018
84832W        W57147  35.335   9.220   0.371
84833W        W57148  22.605  26.326   1.790
84834W        W57149  17.885   3.355  11.703
84835W        W57150  38.449  28.995  12.020
84836W        W57151  40.017   1.764   3.182
84837W        W57152  12.859  20.277  13.521
84838W        W57153  12.534  16.858  13.918
84839W        W57154  29.475   5.034  10.775
84840W        W57155  15.053  44.376   0.363
84841W        W57156   4.815  22.982   3.226
84842W        W57157  41.021  13.572   2.257
84843W        W57158  20.484  10.355  12.307
84844W        W57159   6.810  42.595  14.366
84845W        W57160  40.928  39.354   0.445
84846W        W57161  15.921  33.389  12.943
84847W        W57162  42.880   8.490   3.498
84848W        W57163  37.074   4.288   4.586
84849W        W57164  24.282  37.195  12.746
84850W        W57165  15.587  20.612   4.537
84851W        W57166   1.842  43.421  14.516
84852W        W57167  19.230  33.983   3.056
84853W        W57168  28.958  13.136   3.113
84854W        W57169  16.886   1.916  14.296
84855W        W57170  18.554  22.921   2.145
84856W        W57171  44.237  44.494  13.576
84857W        W57172  39.896  23.159   4.275
84858W        W57173  38.522  41.782   3.385
84859W        W57174  43.372  20.785   0.586
84860W        W57175   0.815   4.841   2.837
84861W        W57176  33.198  23.293  12.430
84862W        W57177  37.877   4.477   3.135
84863W        W57178   6.101  39.106  14.444
84864W        W57179  19.235  21.283   3.685
84865W        W57180  40.425  22.594   2.390
84866W        W57181   1.944   2.997   3.212
84867W        W57182  10.134  30.115  13.572
84868W        W57183   7.698  31.595   1.072
84869W        W57184  40.143  19.273  14.005
84870W        W57185  20.908   8.674   4.038
84871W        W57186   4.974  34.425   1.340
84872W        W57187  11.500  35.927   2.465
84873W        W57188  22.607   0.185   3.612
84874W        W57189   0.282  13.341  11.914
84875W        W57190  14.553  19.990  14.876
84876W        W57191  40.878  29.182   2.176
84877W        W57192  14.839  16.045  12.098
84878W        W57193  14.101  34.218  11.634
84879W        W57194  29.739  21.232  10.707
84880W        W57195  39.847  21.262  12.272
84881W        W57196  18.286   9.789  13.480
84882W        W57197  37.654  20.296  11.248
84883W        W57198  23.383  40.027  14.371
84884W        W57199  18.116  31.386  14.353
84885W        W57200  38.821  36.352  14.313
84886W        W57201  40.056  22.468   0.825
84887W        W57202  27.438  18.109   1.954
84888W        W57203  27.756  39.950  12.021
84889W        W57204   3.849   5.421   4.840
84890W        W57205  26.219  22.704  11.927
84891W        W57206   9.218  25.491  13.543
84892W        W57207   4.198  10.597  13.466
84893W        W57208  17.999  41.297   5.470
84894W        W57209  13.686  20.770   0.333
84895W        W57210  27.768  37.834   5.135
84896W        W57211  36.553  25.773   0.363
84897W        W57212  17.706   2.198  10.612
84898W        W57213   6.073   3.125  12.522
84899W        W57214   7.227  36.498   4.560
84900W        W57215  14.742  20.710  11.602
84901W        W57216  17.217  44.699   2.485
84902W        W57217   3.834  33.463  10.616
84903W        W57218   8.594  16.122   0.302
84904W        W57219  38.976  44.044   2.778
84905W        W57220  38.917  31.696  13.369
84906W        W57221  36.946  40.851  14.526
84907W        W57222  16.780   2.946   3.018
84908W        W57223  27.986   6.416  14.936
84909W        W57224  18.674  17.544   1.860
84910W        W57225  15.982  14.356   3.137
84911W        W57226  41.020  19.445  14.063
84912W        W57227  16.335   1.482  13.998
84913W        W57228   5.756  40.861   4.126
84914W        W57229   9.642  28.561  14.285
84915W        W57230  30.222  21.088  13.861
84916W        W57231  14.031  37.935   3.228
84917W        W57232   1.190  28.876   2.142
84918W        W57233  34.570   9.441  12.458
84919W        W57234   6.015  20.532   0.416
84920W        W57235  41.552  31.430   4.181
84921W        W57236   7.773   0.855  13.305
84922W        W57237  11.390  22.409   4.205
84923W        W57238  21.279  12.320  14.493
84924W        W57239  38.955  39.785   2.431
84925W        W57240   4.040  41.998  11.942
84926W        W57241  10.620   1.734   3.902
84927W        W57242  27.356  20.648  11.964
84928W        W57243  16.372   3.328   4.974
84929W        W57244  12.059  34.455   0.546
84930W        W57245  31.888  33.331  11.809
84931W        W57246   4.331  17.399   4.232
84932W        W57247  37.822   6.705  10.583
84933W        W57248  42.698  36.407   1.479
84934W        W57249   3.931  24.625  12.263
84935W        W57250  14.882   0.332   1.854
84936W        W57251  19.755   0.376  12.427
84937W        W57252  18.683  31.382   2.158
84938W        W57253  41.066  20.119   2.860
84939W        W57254   9.593   9.679   2.448
84940W        W57255  13.287  23.292  13.485
84941W        W57256  23.431  19.376   2.236
84942W        W57257  35.702  15.671  13.506
84943W        W57258  34.918   0.776  12.111
84944W        W57259  30.325  19.871  11.094
84945W        W57260   8.481  39.643   4.136
84946W        W57261  41.775   8.659  11.210
84947W        W57262  35.591  31.627   1.873
84948W        W57263  26.654  20.870  11.500
84949W        W57264  27.224   0.217   3.245
84950W        W57265  17.510  33.053  11.530
84951W        W57266  44.289  15.781   9.919
84952W        W57267   3.359  18.101  11.495
84953W        W57268  21.325   6.655  12.889
84954W        W57269   7.237  31.453  11.172
84955W        W57270  28.133  31.148   2.162
84956W        W57271  29.945   0.673  11.346
84957W        W57272  33.533  36.314  10.444
84958W        W57273   5.045  16.460  13.496
84959W        W57274  44.202  20.141   0.441
84960W        W57275   2.471  38.542   2.423
84961W        W57276  37.510  14.064   4.606
84962W        W57277   4.834  40.832  12.481
84963W        W57278   2.998   0.206   0.713
84964W        W57279   8.401   2.795  13.589
84965W        W57280  40.521  41.775   1.448
84966W        W57281  14.178  30.842  11.578
84967W        W57282  35.348  10.417   2.142
84968W        W57283   9.154  18.300  13.425
84969W        W57284  14.544  32.325  11.658
84970W        W57285  41.589   3.273  13.087
84971W        W57286  29.401  16.598  14.871
84972W        W57287  13.136  42.441  14.784
84973W        W57288   6.675  16.106   3.186
84974W        W57289  31.569  21.688   1.821
84975W        W57290  26.075  39.486   1.986
84976W        W57291  23.160  41.748  11.685
84977W        W57292   5.213   1.918  11.068
84978W        W57293  32.818  27.595  10.786
84979W        W57294  23.244   3.673   3.626
84980W        W57295  36.582   9.277  11.809
84981W        W57296   1.255  30.017   0.518
84982W        W57297  34.866  10.681   4.160
84983W        W57298  36.020  13.824  13.417
84984W        W57299  28.495  35.980   4.270
84985W        W57300  16.098  31.953  14.057
84986W        W57301  12.107  19.121  14.355
84987W        W57302  17.572   6.696   4.894
84988W        W57303   4.331  33.374  12.408
84989W        W57304   5.745  27.570  11.420
84990W        W57305   5.742   4.708   1.191
84991W        W57306   3.719  39.224  13.222
84992W        W57307  34.070  32.671   2.307
84993W        W57308   7.808   2.446  13.513
84994W        W57309   1.169  39.082  13.933
84995W        W57310  21.405  38.586  11.093
84996W        W57311   3.720  16.846  13.439
84997W        W57312  17.056  44.713  10.232
84998W        W57313  28.642   6.689  11.969
84999W        W57314  10.385  12.680  12.353
85000W        W57315  23.820   5.380  10.819
85001W        W57316  21.678  39.839  11.621
85002W        W57317  30.863  14.595  11.042
85003W        W57318  34.390   4.952  13.109
85004W        W57319  21.766   4.434   4.251
85005W        W57320  12.821  36.300  11.563
85006W        W57321  27.044  36.589  12.124
85007W        W57322  11.104   8.560  11.017
85008W        W57323  37.347  41.102  14.950
85009W        W57324  31.498  21.782  11.750
85010W        W57325  21.052  19.113  12.102
85011W        W57326  40.309   2.883   4.607
85012W        W57327  35.258   8.340   0.167
85013W        W57328  42.482  34.160   4.931
85014W        W57329  18.566  43.991   0.434
85015W        W57330  19.962  30.911   4.869
85016W        W57331  23.635   3.720  11.109
85017W        W57332   5.160  22.236   4.936
85018W        W57333  18.688  25.662  11.821
85019W        W57334  14.098  35.916   0.066
85020W        W57335  43.292   9.113   0.336
85021W        W57336  22.413   2.173  14.087
85022W        W57337  21.559  17.067   1.248
85023W        W57338   9.182  20.534   4.167
85024W        W57339  18.246  18.127   1.221
85025W        W57340  34.498   3.936  12.563
85026W        W57341  27.415  16.778   1.343
85027W        W57342   8.275  44.943  14.477
85028W        W57343   8.592  20.786  13.823
85029W        W57344  17.680  27.471  10.093
85030W        W57345  35.015  21.911  13.763
85031W        W57346  29.447   1.117   3.112
85032W        W57347  19.713  20.462   1.398
85033W        W57348   4.410   5.369  13.775
85034W        W57349   6.913   7.370   2.558
85035W        W57350  20.203   9.811  14.333
85036W        W57351   4.181  33.446   2.377
85037W        W57352  36.417   4.693  14.415
85038W        W57353  10.601   7.353   4.639
85039W        W57354   4.839  40.898   4.066
85040W        W57355  35.988  32.402  14.589
85041W        W57356  18.853  42.345  11.682
85042W        W57357  12.733  12.579   3.242
85043W        W57358   5.331  29.681   4.761
85044W        W57359  39.799   5.206  11.686
85045W        W57360  11.715  18.794   3.802
85046W        W57361  22.670  16.332  10.773
85047W        W57362  16.026  15.978   2.501
85048W        W57363  20.511  15.106   2.239
85049W        W57364   7.291  20.260   3.718
85050W        W57365   0.432  40.946   3.682
85051W        W57366  39.310  19.629  11.067
85052W        W57367   7.298  35.181  14.978
85053W        W57368   4.317   4.418  13.438
85054W        W57369   0.306  28.735  12.279
85055W        W57370  34.740   5.344   1.141
85056W        W57371  42.373  41.051   3.418
85057W        W57372  13.868   0.014  13.376
85058W        W57373  25.631  12.196   2.347
85059W        W57374  17.404   3.416   4.093
85060W        W57375  20.277  31.651  14.811
85061W        W57376  37.974  10.108  14.763
85062W        W57377  28.184  27.621   2.358
85063W        W57378  36.875  37.035  14.949
85064W        W57379   3.075  33.283   3.270
85065W        W57380  41.844  35.054  11.393
85066W        W57381  40.788  15.156  11.986
85067W        W57382  44.575  35.784   1.337
85068W        W57383  24.276  17.855   4.335
85069W        W57384  39.819  19.994  11.668
85070W        W57385  33.051  42.165  11.210
85071W        W57386  38.831  40.382   3.963
85072W        W57387   4.341  27.952   2.377
85073W        W57388  25.447   3.755  12.029
85074W        W57389  33.558  27.446  14.716
85075W        W57390  24.042  32.848   2.404
85076W        W57391  44.819  40.880  13.376
85077W        W57392  44.258  41.333  14.272
85078W        W57393  23.822  32.974   0.322
85079W        W57394  16.791  32.631   2.448
85080W        W57395  31.634  13.106   3.303
85081W        W57396  23.154  27.236   4.606
85082W        W57397  37.769   0.344   1.281
85083W        W57398  22.944  43.366  14.618
85084W        W57399  40.996  23.707   2.665
85085W        W57400  19.792  34.720  11.267
85086W        W57401  19.516  21.195  13.576
85087W        W57402  27.023   9.404   0.339
85088W        W57403  14.799  37.825  12.942
85089W        W57404  31.482  42.847  12.552
85090W        W57405   6.786   2.421  13.834
85091W        W57406  36.196  23.687   2.539
85092W        W57407  33.512  14.345   2.882
85093W        W57408   8.143  36.970   0.688
85094W        W57409  11.254   0.252   4.359
85095W        W57410  16.270   6.701  12.061
85096W        W57411   8.977  26.063   4.140
85097W        W57412   4.964  10.733  14.338
85098W        W57413  40.849  21.997  12.295
85099W        W57414   9.739  27.719   3.211
85100W        W57415  13.286  13.846   2.265
85101W        W57416   9.379  16.751   0.895
85102W        W57417  10.477   4.121  12.697
85103W        W57418   1.822  12.394   3.322
85104W        W57419   6.849  22.586   0.408
85105W        W57420   4.440   7.236   3.199
85106W        W57421  10.766  37.281   2.156
85107W        W57422   3.319   4.925  13.859
85108W        W57423   8.807  27.939   3.733
85109W        W57424  22.315  23.125  13.474
85110W        W57425   3.992  39.351  14.234
85111W        W57426  32.081  26.625   4.040
85112W        W57427   2.718  11.423   2.665
85113W        W57428  38.512  35.920  12.510
85114W        W57429  17.720  42.349   4.648
85115W        W57430   9.395  34.094   2.774
85116W        W57431  18.490  42.655  13.414
85117W        W57432  35.707  15.231  11.602
85118W        W57433  44.753  30.514   3.661
85119W        W57434  15.514   6.155  10.995
85120W        W57435  31.193  26.319  12.134
85121W        W57436  22.749  17.759  10.687
85122W        W57437   4.948  41.476   3.245
85123W        W57438  29.547  29.409  13.473
85124W        W57439  10.432   3.953  10.214
85125W        W57440   1.363  22.495   1.058
85126W        W57441  36.163   8.420   2.369
85127W        W57442  40.327  10.746  14.593
85128W        W57443  36.565   1.929   2.598
85129W        W57444  35.042   9.538  10.737
85130W        W57445   1.719  15.739  10.637
85131W        W57446   6.287  39.471   4.228
85132W        W57447  10.145  34.839  10.788
85133W        W57448  44.018  40.569  12.624
85134W        W57449   0.203  26.625   0.769
85135W        W57450   6.399  38.576   0.804
85136W        W57451   5.715  12.134   1.713
85137W        W57452  30.412  27.684  11.497
85138W        W57453  14.211  37.995  10.806
85139W        W57454  12.186  15.161  13.427
85140W        W57455  22.784  13.348   1.890
85141W        W57456  20.475  25.943  12.946
85142W        W57457  18.540  21.319   4.198
85143W        W57458  31.433   0.779   2.695
85144W        W57459  32.867   7.272  11.103
85145W        W57460  27.025  38.328   0.829
85146W        W57461  30.506   8.815   2.912
85147W        W57462   6.961  26.680   0.193
85148W        W57463  42.455  10.606  11.620
85149W        W57464  15.592  30.029  11.176
85150W        W57465  32.191   3.215  11.148
85151W        W57466  29.302  38.942   2.771
85152W        W57467   0.474  16.720  13.897
85153W        W57468   7.740   3.876  12.925
85154W        W57469  26.699  15.951   1.212
85155W        W57470  38.021  10.525   2.565
85156W        W57471   3.493   6.776  10.598
85157W        W57472   8.457  44.824   0.832
85158W        W57473  29.293  24.870   2.760
85159W        W57474  29.809  11.937  13.035
85160W        W57475  27.667  41.478  11.151
85161W        W57476   2.056  17.124   0.446
85162W        W57477  39.456  38.281   1.002
85163W        W57478  40.520  35.846   2.939
85164W        W57479  27.028   7.919   0.324
85165W        W57480  20.124  35.614   1.280
85166W        W57481   3.286  38.681   2.212
85167W        W57482  11.498  20.018  10.312
85168W        W57483  12.736   7.444   4.826
85169W        W57484  26.628   3.210   1.813
85170W        W57485  25.588   9.150   1.304
85171W        W57486  24.718  18.877   2.737
85172W        W57487  29.710  24.504   2.686
85173W        W57488   5.262  30.221  11.569
85174W        W57489  21.678   4.823  10.659
85175W        W57490  33.222   8.850   2.256
85176W        W57491  37.813  20.996  13.042
85177W        W57492  25.356   0.345  11.612
85178W        W57493  21.846  16.493   0.711
85179W        W57494   2.833  14.804   4.486
85180W        W57495  21.076   5.077  11.556
85181W        W57496  34.379  30.318   4.055
85182W        W57497  43.399  22.297  13.345
85183W        W57498  44.497  21.586   4.663
85184W        W57499  41.388   9.755   0.525
85185W        W57500  31.371   3.724  14.265
85186W        W57501  40.644   5.208   3.407
85187W        W57502  16.035  38.371  11.068
85188W        W57503  13.884  38.468  10.899
85189W        W57504  14.565  15.121   1.406
85190W        W57505  13.327  17.022  11.077
85191W        W57506   1.135  10.675   3.206
85192W        W57507  15.715   7.202  14.972
85193W        W57508  34.185  43.024  12.223
85194W        W57509  35.492  28.121  14.111
85195W        W57510  39.628   9.446  10.717
85196W        W57511  19.752  27.915   2.856
85197W        W57512  11.233  28.454  13.564
85198W        W57513  27.161   0.381   0.814
85199W        W57514  21.616  28.698  13.497
85200W        W57515  39.874  33.976  10.630
85201W        W57516  31.612   2.333  11.510
85202W        W57517   4.804  15.267  12.406
85203W        W57518  29.287  15.085   2.870
85204W        W57519  15.747  30.631   4.950
85205W        W57520   2.001  19.705  13.004
85206W        W57521  34.935  32.922   1.785
85207W        W57522   0.469  44.972   2.939
85208W        W57523  11.841  40.429  12.557
85209W        W57524  26.436  14.746   1.974
85210W        W57525   2.521  14.063  10.721
85211W        W57526  25.580  44.841  12.506
85212W        W57527  11.293   3.860  13.417
85213W        W57528   6.199   8.554  10.058
85214W        W57529  43.993   6.683  13.324
85215W        W57530   5.865   7.262   0.930
85216W        W57531  13.421  11.600   0.210
85217W        W57532  28.029  22.591   1.842
85218W        W57533  12.244   3.281   4.410
85219W        W57534  29.095  30.915   2.655
85220W        W57535   7.130  27.254   4.412
85221W        W57536  25.142   1.458   0.316
85222W        W57537  40.394   2.993   1.857
85223W        W57538  24.892  20.120  14.007
85224W        W57539  42.474  43.709  10.704
85225W        W57540  22.171  22.981  12.092
85226W        W57541   9.813  32.148   0.828
85227W        W57542  16.617   7.530   1.015
85228W        W57543  35.875  33.180   0.776
85229W        W57544  12.700  16.036  11.600
85230W        W57545  24.990  35.589   1.947
85231W        W57546   1.642  22.174   2.226
85232W        W57547  19.133  30.004  13.941
85233W        W57548  11.793  44.733  14.444
85234W        W57549  44.781   1.733   3.247
85235W        W57550  39.301  15.061   2.338
85236W        W57551   7.474  37.793   4.172
85237W        W57552  38.689  15.842  11.632
85238W        W57553  41.060  27.612   0.778
85239W        W57554  11.806  41.789  13.854
85240W        W57555  20.337  10.591   9.747
85241W        W57556   2.326  26.907  13.979
85242W        W57557  13.810  43.727   3.938
85243W        W57558  15.786   8.133  13.477
85244W        W57559  13.206   0.881  14.522
85245W        W57560  30.439  22.396   2.449
85246W        W57561   5.623  22.869  14.974
85247W        W57562   5.681  37.817   4.562
85248W        W57563  22.970  14.736   4.190
85249W        W57564   3.178  13.122  13.861
85250W        W57565  30.348   2.518  11.069
85251W        W57566   3.908  38.773  13.041
85252W        W57567   8.965  39.884   4.904
85253W        W57568  30.124  27.567   0.830
85254W        W57569  16.996  11.170   3.725
85255W        W57570  12.538  25.588   3.196
85256W        W57571   1.424  19.559   2.869
85257W        W57572   4.185   7.348  12.805
85258W        W57573  13.146   3.878  11.726
85259W        W57574  18.011  29.633  14.520
85260W        W57575  10.767  16.228  13.439
85261W        W57576  31.152   2.935  10.591
85262W        W57577   6.888  14.786  14.544
85263W        W57578  34.054  19.567  14.777
85264W        W57579  26.487  37.067  14.799
85265W        W57580  43.270  35.919   4.284
85266W        W57581   0.728  10.743  14.356
85267W        W57582  26.957  18.350  11.198
85268W        W57583  21.587   6.502  12.016
85269W        W57584  37.754   5.158   3.830
85270W        W57585  15.648  24.808  11.022
85271W        W57586  13.821  33.404  12.009
85272W        W57587  20.722   8.349  10.657
85273W        W57588  35.828  38.771   4.145
85274W        W57589  42.623  15.255  12.666
85275W        W57590  34.067  24.052   2.105
85276W        W57591   9.074  23.606   0.440
85277W        W57592  44.247  43.251   1.798
85278W        W57593  27.031  39.572   3.828
85279W        W57594   2.448  38.335  11.593
85280W        W57595  19.310  11.371   2.995
85281W        W57596  13.695  44.226   4.124
85282W        W57597   2.708  38.053  13.449
85283W        W57598  22.162  31.320   0.898
85284W        W57599  23.211   6.427   3.767
85285W        W57600  44.635   4.266   1.747
85286W        W57601  13.691  23.796  11.172
85287W        W57602  17.126  31.485  13.420
85288W        W57603  38.504  24.017  12.844
85289W        W57604   1.664   5.382   3.798
85290W        W57605  23.644  17.215   4.860
85291W        W57606  34.474  29.588   2.668
85292W        W57607  39.543  40.248  13.330
85293W        W57608  25.356  29.152   2.865
85294W        W57609   7.248  36.080   2.212
85295W        W57610  16.225   8.743  14.717
85296W        W57611   1.414   0.520   4.241
85297W        W57612  21.741  21.549  11.435
85298W        W57613  27.412  12.607  13.459
85299W        W57614  20.921  39.511   0.119
85300W        W57615  10.371   3.782  13.165
85301W        W57616   1.379  36.504   1.933
85302W        W57617   4.985  11.726   0.932
85303W        W57618   6.634   5.885   3.246
85304W        W57619  36.416  41.415   4.077
85305W        W57620  12.859   9.297   2.283
85306W        W57621   6.960  35.910  10.366
85307W        W57622  39.571  14.076  11.541
85308W        W57623   0.315  22.226  13.179
85309W        W57624   1.889  26.722  11.074
85310W        W57625  26.505   2.853  13.305
85311W        W57626  38.823   6.186   0.390
85312W        W57627  38.771  17.553   0.496
85313W        W57628  29.778  13.166   0.495
85314W        W57629  42.797  11.606  11.982
85315W        W57630  38.324  21.374  14.658
85316W        W57631   0.333   5.755  13.851
85317W        W57632  35.420  24.620  12.359
85318W        W57633   4.154   4.982   0.585
85319W        W57634  29.931  23.498  14.901
85320W        W57635  29.338   1.812   0.762
85321W        W57636  44.961  28.456  12.554
85322W        W57637  22.224  43.944   1.259
85323W        W57638  15.539   1.232   1.194
85324W        W57639  43.285  40.662   4.658
85325W        W57640  11.883  44.341   4.540
85326W        W57641  43.338  14.898  11.614
85327W        W57642  32.650  23.916   0.780
85328W        W57643  26.506  33.172   1.764
85329W        W57644   4.840  39.067   1.526
85330W        W57645  31.316  17.752   1.772
85331W        W57646  16.352   1.326   1.680
85332W        W57647  11.786  11.855   9.955
85333W        W57648   9.019   4.647   9.923
85334W        W57649  10.117  19.610   2.885
85335W        W57650   7.122  29.107  14.460
85336W        W57651  42.241  12.161   3.280
85337W        W57652  24.254  12.015   4.124
85338W        W57653  31.147  35.108  13.427
85339W        W57654  35.091  10.301  12.466
85340W        W57655  39.295  39.321  10.704
85341W        W57656  23.196  24.844   4.075
85342W        W57657  18.775  11.764   1.905
85343W        W57658  36.987  44.254  10.443
85344W        W57659  18.255  21.472  10.572
85345W        W57660   7.540  38.549  14.934
85346W        W57661  41.800  20.307   3.405
85347W        W57662  20.783   7.593  11.156
85348W        W57663  23.944  19.797  13.023
85349W        W57664  10.857  21.332  11.090
85350W        W57665  24.018  25.118  11.702
85351W        W57666   0.101   8.119  14.352
85352W        W57667  33.847   0.945   2.815
85353W        W57668   4.758  35.964  10.872
85354W        W57669  19.805  21.489  13.926
85355W        W57670   3.847  16.599  11.949
85356W        W57671  16.675  15.100   2.824
85357W        W57672   3.134  36.055  12.614
85358W        W57673  38.066   1.762  10.715
85359W        W57674  29.687  33.688  12.013
85360W        W57675   0.198  31.007   3.644
85361W        W57676  12.869  33.891   1.422
85362W        W57677   3.538  18.937   5.028
85363W        W57678  10.434  32.945  12.055
85364W        W57679  14.581  19.807  11.606
85365W        W57680  12.332  25.610  12.593
85366W        W57681   3.367   2.889   1.240
85367W        W57682  17.887  16.658  11.560
85368W        W57683  26.957  14.907   2.671
85369W        W57684  44.368  27.486   2.019
85370W        W57685  44.937  43.439   1.318
85371W        W57686  32.582  15.148  11.877
85372W        W57687  38.373  23.122  11.610
85373W        W57688  34.646   0.028   0.357
85374W        W57689  12.709  23.987  12.649
85375W        W57690   2.511  20.261   1.422
85376W        W57691  43.343  34.063  12.481
85377W        W57692  19.231  36.143   4.294
85378W        W57693   2.888  44.206   2.288
85379W        W57694   3.970  27.752   1.390
85380W        W57695  17.781  36.963   4.073
85381W        W57696  18.852  18.062  11.588
85382W        W57697  32.443  24.676   1.297
85383W        W57698  30.720  35.140  11.000
85384W        W57699  40.259  27.219  13.509
85385W        W57700  34.942  15.810   0.266
85386W        W57701  23.497   0.407   1.946
85387W        W57702   7.219  44.734  11.405
85388W        W57703   4.614  16.711  12.636
85389W        W57704  11.662  10.295   1.925
85390W        W57705  36.489  37.358  10.729
85391W        W57706  23.290  20.051   3.997
85392W        W57707  26.730  37.532  14.797
85393W        W57708  12.419  36.271  13.454
85394W        W57709   3.870  14.672   3.163
85395W        W57710  26.732   5.418   4.966
85396W        W57711  35.878  13.122  12.945
85397W        W57712  34.052  32.625   1.391
85398W        W57713   7.367   5.390   2.813
85399W        W57714   5.816   8.624   1.706
85400W        W57715  36.240  10.749  11.656
85401W        W57716  31.815   0.025   0.826
85402W        W57717   1.810  19.166   4.846
85403W        W57718  12.297  33.910  12.779
85404W        W57719   9.627  36.917   1.283
85405W        W57720   6.855  10.332   0.521
85406W        W57721  27.143  37.102  11.549
85407W        W57722  19.724   3.177  12.913
85408W        W57723  34.890  38.423   2.651
85409W        W57724  17.486  33.468  13.579
85410W        W57725   8.247  18.508   0.490
85411W        W57726   2.723  10.287   3.685
85412W        W57727   3.691   8.685   5.281
85413W        W57728   3.896   8.170  10.360
85414W        W57729  43.336  11.119   5.300
85415W        W57730  43.684  13.587  11.411
85416W        W57731  24.273  17.213   2.712
85417W        W57732  16.864  25.436   2.223
85418W        W57733  10.937  36.483   4.274
85419W        W57734  38.389  35.525   2.867
85420W        W57735  38.560  43.778   4.498
85421W        W57736  25.906  43.978  10.621
85422W        W57737  14.704  24.933   0.257
85423W        W57738  15.122  17.628  11.988
85424W        W57739  34.376   8.767  10.929
85425W        W57740  12.260  42.908  14.486
85426W        W57741  27.619  29.193  13.589
85427W        W57742  36.499  16.039   0.782
85428W        W57743   0.864  39.481  14.062
85429W        W57744  42.118  30.118   2.371
85430W        W57745  27.037  42.513   2.518
85431W        W57746  20.474   3.898   1.725
85432W        W57747  30.939  32.277  11.985
85433W        W57748  17.252  26.096   1.880
85434W        W57749   4.885  34.945   0.832
85435W        W57750  32.237  41.705  11.299
85436W        W57751  15.991  41.115   4.192
85437W        W57752  12.803  21.246  13.594
85438W        W57753  42.473   7.707   0.921
85439W        W57754  23.456   8.861   1.287
85440W        W57755  12.085  16.691  14.470
85441W        W57756  17.615  30.886  13.874
85442W        W57757  11.822   9.264   4.519
85443W        W57758   3.390  15.774  14.280
85444W        W57759   5.840   2.504   4.723
85445W        W57760  30.067  18.002  13.059
85446W        W57761   6.442  38.976  12.519
85447W        W57762  19.321  33.086   3.508
85448W        W57763  35.151  19.152  12.392
85449W        W57764  27.872  37.643  13.786
85450W        W57765  28.697  18.694   2.761
85451W        W57766  14.600  44.563   2.475
85452W        W57767  43.867  38.535  10.361
85453W        W57768  28.745   2.307  13.577
85454W        W57769  14.623  32.543  14.862
85455W        W57770  40.765  28.328   3.180
85456W        W57771  15.999   5.862  14.904
85457W        W57772   1.253  37.729   3.395
85458W        W57773  40.604  19.533   2.739
85459W        W57774  36.392  33.911  10.607
85460W        W57775  38.320  41.009  13.478
85461W        W57776  26.525  10.617  14.360
85462W        W57777  18.998  44.672  14.464
85463W        W57778   6.893  28.135   4.320
85464W        W57779  43.579  13.382   1.901
85465W        W57780  28.678  33.126   2.211
85466W        W57781  41.246  21.179  13.955
85467W        W57782  40.795  41.741  11.988
85468W        W57783  14.174  28.593  10.764
85469W        W57784  29.429  44.279   4.462
85470W        W57785  32.949  41.290   1.677
85471W        W57786  20.503  14.737  10.636
85472W        W57787   5.648  38.342   4.626
85473W        W57788  29.689  11.393  11.508
85474W        W57789  38.575  18.845   2.184
85475W        W57790  35.366  33.849   3.834
85476W        W57791  32.282  40.044   1.895
85477W        W57792   7.690  34.324  10.464
85478W        W57793  32.882   9.889   0.590
85479W        W57794  34.704  37.038   0.822
85480W        W57795   4.666  40.584   2.212
85481W        W57796  15.509  34.065  12.593
85482W        W57797  24.862   0.284  11.664
85483W        W57798  41.590  37.999   2.209
85484W        W57799  17.498   2.537  13.767
85485W        W57800   9.720  43.513   4.796
85486W        W57801  28.746  25.488   0.215
85487W        W57802  42.713  25.933  11.716
85488W        W57803  43.986  22.948   0.775
85489W        W57804  39.056  19.772  14.957
85490W        W57805   8.948   2.527  12.792
85491W        W57806  24.949  31.926   2.525
85492W        W57807   7.447  17.269   2.215
85493W        W57808  39.002   4.442  13.299
85494W        W57809  35.596  31.410  13.015
85495W        W57810  12.783  23.599   3.241
85496W        W57811   8.208  44.677  11.548
85497W        W57812  21.624  21.036  11.447
85498W        W57813  32.663  13.023   4.094
85499W        W57814   6.425  25.932   1.150
85500W        W57815   7.902  38.135  11.988
85501W        W57816  29.176  17.537   2.221
85502W        W57817   4.666  38.398   0.684
85503W        W57818   5.348  22.428   2.117
85504W        W57819   9.583  35.579  10.657
85505W        W57820  37.238   9.254   3.908
85506W        W57821  23.145  23.551  10.990
85507W        W57822  10.794  14.216   0.335
85508W        W57823  23.323   8.909   3.343
85509W        W57824  16.472  25.026  12.052
85510W        W57825  25.419  17.362  14.438
85511W        W57826  26.700  22.309   0.788
85512W        W57827  41.485  14.854   0.388
85513W        W57828   7.848  30.088  12.039
85514W        W57829  42.728   8.770  11.180
85515W        W57830  33.427   6.637  12.797
85516W        W57831  32.676  42.782   4.626
85517W        W57832   8.168  37.125   2.296
85518W        W57833  20.142  22.086  11.338
85519W        W57834   8.219   6.268   3.918
85520W        W57835  13.160  15.348   1.304
85521W        W57836  41.920  33.647  13.302
85522W        W57837  38.117  39.753   2.426
85523W        W57838  42.428   3.960  11.567
85524W        W57839  21.638  39.554  12.887
85525W        W57840   9.820  25.513   4.355
85526W        W57841   2.378  10.229  10.739
85527W        W57842  27.426  41.043  14.414
85528W        W57843   8.127  27.112   4.113
85529W        W57844  35.015  18.818   5.026
85530W        W57845  39.889  20.011   2.633
85531W        W57846  11.117   2.917   4.577
85532W        W57847   7.666   0.466  12.952
85533W        W57848  19.777  31.535   3.752
85534W        W57849  19.460  27.642   0.259
85535W        W57850  12.832  37.019   1.313
85536W        W57851  37.509  38.040   0.809
85537W        W57852   9.380  30.843   0.892
85538W        W57853  22.316  33.922   4.131
85539W        W57854   0.453  23.663   1.834
85540W        W57855  21.268  18.296   2.787
85541W        W57856  24.947  44.741  13.915
85542W        W57857  37.834  29.682  12.026
85543W        W57858  42.515  27.545   4.634
85544W        W57859  28.625  11.841   3.232
85545W        W57860  18.981   5.348   4.665
85546W        W57861  29.410  31.141  13.914
85547W        W57862  27.437  42.830   4.110
85548W        W57863  17.666  20.156  11.144
85549W        W57864  11.759  12.117   2.538
85550W        W57865  40.428  43.661   1.791
85551W        W57866  26.462  12.580  13.900
85552W        W57867  12.919  23.077  12.852
85553W        W57868  44.490  12.656  11.088
85554W        W57869  30.662  19.520   0.264
85555W        W57870  42.793  30.891   1.380
85556W        W57871   0.936  29.771  13.810
85557W        W57872  41.975  37.409  10.414
85558W        W57873  22.210  44.484   2.722
85559W        W57874  33.737  37.912   2.750
85560W        W57875   3.784  10.112  12.594
85561W        W57876  27.099  34.899  11.220
85562W        W57877  10.775  27.652  11.060
85563W        W57878   1.413  41.474   0.783
85564W        W57879  39.218  10.271  10.358
85565W        W57880  20.550  34.987   4.052
85566W        W57881  15.517  16.264  11.592
85567W        W57882   5.285  30.864  13.861
85568W        W57883  29.107  20.187  13.526
85569W        W57884  42.264  10.157   3.747
85570W        W57885  31.024  42.840  13.866
85571W        W57886  21.244  10.791  14.405
85572W        W57887  34.118   7.185  14.290
85573W        W57888  43.526  23.158   2.196
85574W        W57889  44.780  35.404  11.599
85575W        W57890  11.621  21.148  14.556
85576W        W57891   1.029  42.785  11.107
85577W        W57892  39.124  35.852  11.015
85578W        W57893   5.833  38.023   2.374
85579W        W57894  32.123  11.165  11.446
85580W        W57895  10.459  41.768  13.106
85581W        W57896  27.088  33.397  13.830
85582W        W57897   8.336  13.687   3.140
85583W        W57898  15.791  14.671   4.528
85584W        W57899  10.394  16.441   1.756
85585W        W57900   3.448  14.821   4.074
85586W        W57901   7.032  39.942  11.227
85587W        W57902  25.798  34.506  14.466
85588W        W57903  31.924   4.000  10.591
85589W        W57904   1.342  43.867  14.738
85590W        W57905  21.008   8.206   1.380
85591W        W57906   4.148   5.091   2.007
85592W        W57907  34.810  24.958  14.409
85593W        W57908   3.738  29.158   4.060
85594W        W57909   8.937   1.836  14.934
85595W        W57910  42.511  37.400  10.540
85596W        W57911   6.903  25.101   2.910
85597W        W57912  26.123   2.497  12.555
85598W        W57913  44.785   0.686  13.493
85599W        W57914  18.571  31.477  11.040
85600W        W57915  32.182  42.972   2.163
85601W        W57916   9.427   3.990  11.621
85602W        W57917  35.680   8.337  13.031
85603W        W57918  19.496  35.852   0.344
85604W        W57919  27.182  41.014   0.485
85605W        W57920  29.095  30.582   0.731
85606W        W57921  41.836  30.476   5.070
85607W        W57922  44.640   3.703   0.468
85608W        W57923  43.465  34.496   0.173
85609W        W57924  36.324  36.971  14.847
85610W        W57925   4.776  41.733  12.259
85611W        W57926  38.445   2.283  13.911
85612W        W57927  11.095  10.743  14.697
85613W        W57928  38.334  35.375  11.089
85614W        W57929  27.154  36.615   0.357
85615W        W57930   9.170  26.548  10.685
85616W        W57931   3.744  23.096   4.892
85617W        W57932  38.466  12.565   1.802
85618W        W57933  26.386  38.434  11.525
85619W        W57934  22.602  28.106  13.019
85620W        W57935  38.814   8.752   2.241
85621W        W57936  34.049  13.690   4.355
85622W        W57937   7.109  15.854   0.800
85623W        W57938  42.011  44.318   1.113
85624W        W57939  29.758   3.463  14.462
85625W        W57940  16.560  42.464  11.997
85626W        W57941  20.672  11.330  12.795
85627W        W57942  30.928  17.703   3.349
85628W        W57943  30.618  10.269   2.336
85629W        W57944  37.034   8.742   0.080
85630W        W57945  10.708  30.960   2.438
85631W        W57946  13.163  29.276   3.750
85632W        W57947  35.741  38.455  10.799
85633W        W57948  38.789   1.356   1.277
85634W        W57949  40.998  23.156  11.432
85635W        W57950   1.993  21.606  14.562
85636W        W57951  12.980  37.438  11.025
85637W        W57952  37.876  31.102  13.509
85638W        W57953  25.955  19.535  12.060
85639W        W57954  38.748  22.650  12.763
85640W        W57955  24.023   3.021   4.399
85641W        W57956  39.551   0.926  11.091
85642W        W57957  35.415   0.383   0.304
85643W        W57958  43.070  15.571   2.340
85644W        W57959   1.046  29.467  10.471
85645W        W57960  37.903   0.494  13.059
85646W        W57961   3.054  19.363   4.262
85647W        W57962  38.576  29.251  11.579
85648W        W57963  40.203  24.457   3.233
85649W        W57964   8.916  24.227   5.060
85650W        W57965  42.855  41.009   2.611
85651W        W57966  19.480   8.667   1.751
85652W        W57967  17.949  26.159   4.537
85653W        W57968  39.710  43.593  12.463
85654W        W57969  35.374   2.886  12.940
85655W        W57970  12.237  11.366  13.598
85656W        W57971   3.338   0.915   2.472
85657W        W57972  19.073  29.984   4.612
85658W        W57973  37.573   1.235  11.016
85659W        W57974  17.078  40.420  13.861
85660W        W57975  20.689   9.742  14.030
85661W        W57976  24.011   6.717  12.267
85662W        W57977  20.965  35.508  14.304
85663W        W57978  27.552  19.732  11.057
85664W        W57979  32.189  25.035  12.079
85665W        W57980   0.073  34.095   5.431
85666W        W57981  16.497  43.785  11.981
85667W        W57982   0.715  10.892   4.476
85668W        W57983  25.745   4.972  13.146
85669W        W57984  35.564  31.108   1.932
85670W        W57985  16.152  36.519   4.358
85671W        W57986  36.083   6.950  11.605
85672W        W57987   4.688   5.356  13.320
85673W        W57988  13.826   2.532  11.167
85674W        W57989  38.329  29.526  11.949
85675W        W57990   0.838  14.570   4.675
85676W        W57991  44.692  19.687  11.472
85677W        W57992  27.169  27.198  10.663
85678W        W57993  41.990   4.975   0.293
85679W        W57994  35.929   3.229  14.943
85680W        W57995  31.546  13.153   0.717
85681W        W57996  35.878  16.109   2.580
85682W        W57997  16.987  18.163  12.828
85683W        W57998  40.175  19.550  13.023
85684W        W57999  33.456   5.849  14.400
85685W        W58000  31.043  30.598   2.849
85686W        W58001  29.814  28.840   3.138
85687W        W58002  32.571   5.306  10.622
85688W        W58003  24.920  25.779   2.872
85689W        W58004  18.548  32.282   0.994
85690W        W58005  11.276  24.001  13.352
85691W        W58006  41.550  14.661   0.873
85692W        W58007  10.155  41.500   4.054
85693W        W58008  42.429  29.223  13.941
85694W        W58009   7.774  13.062  10.655
85695W        W58010  28.674  34.840   3.517
85696W        W58011  23.118  15.217  12.163
85697W        W58012  13.362   9.837  11.999
85698W        W58013   1.531  38.425  11.932
85699W        W58014  30.897  38.568   0.401
85700W        W58015  41.711  18.086  12.950
85701W        W58016  25.630  42.455   4.255
85702W        W58017  34.886  44.848   2.425
85703W        W58018  24.558  36.440   4.504
85704W        W58019  39.265  38.988  13.108
85705W        W58020   8.440   1.716   0.903
85706W        W58021  36.590  19.638  10.689
85707W        W58022  17.980  23.490   3.569
85708W        W58023  24.628   3.639   3.711
85709W        W58024  11.729  19.356   5.736
85710W        W58025  34.174  33.553   0.319
85711W        W58026  15.843  36.516  13.772
85712W        W58027   4.131   4.872   3.285
85713W        W58028  42.054   4.887   1.223
85714W        W58029   8.978  10.604   1.802
85715W        W58030   0.968  36.283  14.793
85716W        W58031  17.287   3.850   1.340
85717W        W58032  16.225  44.303  14.281
85718W        W58033   5.100  38.320   2.615
85719W        W58034  39.064  43.943   4.539
85720W        W58035  40.276  13.710   1.150
85721W        W58036  11.654  26.454  11.999
85722W        W58037  23.711  23.258   2.613
85723W        W58038  32.477  32.078   2.772
85724W        W58039  18.337  11.983   2.109
85725W        W58040   3.945  14.605   0.955
85726W        W58041   6.354   7.618  14.068
85727W        W58042  37.097  37.532  12.858
85728W        W58043  42.262  44.998  12.851
85729W        W58044  19.005  10.498   3.026
85730W        W58045  44.541   0.787  14.348
85731W        W58046  17.313   5.425  12.490
85732W        W58047  26.735  41.979  10.757
85733W        W58048   4.287  40.473   1.385
85734W        W58049  23.743   8.971  14.297
85735W        W58050  12.096   6.833   4.971
85736W        W58051  10.341   6.824   1.439
85737W        W58052  37.083  39.947   1.874
85738W        W58053  35.502  40.085  13.409
85739W        W58054  26.697  26.958   4.121
85740W        W58055   5.032  22.506   3.136
85741W        W58056  21.228  30.557   0.085
85742W        W58057  21.290  39.215  13.063
85743W        W58058   9.136  18.688  14.962
85744W        W58059  11.466  29.980   1.329
85745W        W58060  35.731  44.353   1.559
85746W        W58061  43.382  41.356  14.613
85747W        W58062  23.134  40.757  11.609
85748W        W58063  26.471  39.907  11.642
85749W        W58064  41.906  35.941  12.728
85750W        W58065  32.391  21.654  11.965
85751W        W58066   7.090  15.058   1.698
85752W        W58067  25.692  34.161   4.293
85753W        W58068  44.463  30.177   3.987
85754W        W58069  21.254  24.660  13.960
85755W        W58070  20.556  17.134  13.962
85756W        W58071  36.118  30.070  10.826
85757W        W58072   8.219  16.000   1.915
85758W        W58073  40.946  21.340   0.503
85759W        W58074   1.281  14.035  12.396
85760W        W58075   4.302  34.965   4.509
85761W        W58076  22.243  23.694   2.627
85762W        W58077  19.631   7.657   2.872
85763W        W58078  21.853  30.497   2.222
85764W        W58079  35.535  29.099   3.810
85765W        W58080   0.833   9.281   5.045
85766W        W58081  11.893  39.463   3.858
85767W        W58082  36.941  11.868  14.796
85768W        W58083  10.173   6.672   3.617
85769W        W58084  18.130   0.988  14.186
85770W        W58085  18.253  23.592   3.992
85771W        W58086  20.049  29.931  14.704
85772W        W58087  39.610  17.480   0.927
85773W        W58088  32.405  36.425   0.787
85774W        W58089  34.162  22.122  11.336
85775W        W58090  14.294  21.959  12.002
85776W        W58091  32.013  24.443  13.059
85777W        W58092  18.167   8.277   3.182
85778W        W58093  40.916  15.101   3.750
85779W        W58094  35.500  22.649  13.397
85780W        W58095  30.039  20.922  14.360
85781W        W58096  43.354  44.673   2.504
85782W        W58097   8.704  13.331  10.677
85783W        W58098  28.903  43.991  11.542
85784W        W58099  15.056  19.204   2.430
85785W        W58100  42.772   4.336  11.633
85786W        W58101  15.464  20.199  14.503
85787W        W58102   0.952  36.973  13.307
85788W        W58103  30.163  35.609  14.960
85789W        W58104   8.558  43.527   0.329
85790W        W58105   7.191  24.939   0.283
85791W        W58106  19.739   6.854   1.701
85792W        W58107  24.507   9.377   3.225
85793W        W58108  14.317  42.006   4.166
85794W        W58109  35.274  41.134  11.210
85795W        W58110  11.150  40.545   0.024
85796W        W58111  24.176  14.681   1.180
85797W        W58112   3.403  43.500  10.711
85798W        W58113   6.416   7.937   0.033
85799W        W58114   3.773  13.559   0.750
85800W        W58115  19.974  29.946  14.195
85801W        W58116   8.188  23.803  13.194
85802W        W58117  40.326  44.044   3.107
85803W        W58118  15.177  18.649   1.807
85804W        W58119  10.362  24.063  14.388
85805W        W58120  40.557  22.651  10.328
85806W        W58121  20.001  10.938   5.138
85807W        W58122  22.439   5.876   4.608
85808W        W58123   2.432  44.066  14.471
85809W        W58124  44.970  13.245  10.610
85810W        W58125  17.964  39.028  14.036
85811W        W58126  23.464  37.114  11.089
85812W        W58127  28.171   5.869   0.755
85813W        W58128  36.973  34.011   1.640
85814W        W58129  27.609  28.104   0.320
85815W        W58130  42.498  38.807   3.839
85816W        W58131  20.433  42.773   2.479
85817W        W58132  15.709  15.402  12.812
85818W        W58133  27.038  10.932  13.803
85819W        W58134  19.688  41.417   1.347
85820W        W58135  40.162  25.518  11.910
85821W        W58136  36.646  16.945   2.002
85822W        W58137  41.697   1.904  13.842
85823W        W58138  27.612  44.208  14.449
85824W        W58139  18.711  16.962   3.246
85825W        W58140  32.389  20.084   2.253
85826W        W58141   0.183  44.386   3.857
85827W        W58142  36.400  40.560  11.399
85828W        W58143  43.329   7.960  13.619
85829W        W58144   8.775   8.785   3.312
85830W        W58145  29.555  26.552  14.846
85831W        W58146  39.320  42.165  10.679
85832W        W58147  16.045  41.979  12.451
85833W        W58148  29.064  41.974  12.563
85834W        W58149  41.995  29.660  14.866
85835W        W58150   6.147  20.231  14.484
85836W        W58151   2.310  42.547   3.673
85837W        W58152  15.099  23.455   0.702
85838W        W58153  43.092  18.512  14.837
85839W        W58154   4.400  35.913  13.625
85840W        W58155  13.868  30.340  14.846
85841W        W58156   6.010  34.516   2.251
85842W        W58157   2.276  12.618  10.469
85843W        W58158  21.638  43.540   1.930
85844W        W58159   2.779  26.712   0.793
85845W        W58160  43.307  41.202  11.738
85846W        W58161  17.053  15.093  12.844
85847W        W58162  37.087  31.961  10.722
85848W        W58163  17.286   7.247  12.331
85849W        W58164  12.428  17.186   4.542
85850W        W58165   1.645  29.220   0.916
85851W        W58166  24.630  10.190   2.202
85852W        W58167  17.832  18.697  11.035
85853W        W58168  15.863   8.783  10.395
85854W        W58169  39.443  39.774  10.918
85855W        W58170  40.764  20.496   3.074
85856W        W58171  31.005  38.067   1.026
85857W        W58172  34.540   3.028   1.324
85858W        W58173  20.493   5.510   2.428
85859W        W58174  36.148  36.305  11.118
85860W        W58175   9.756  17.218   0.343
85861W        W58176   7.691   2.841   2.668
85862W        W58177  33.261  10.366   9.853
85863W        W58178  10.079  30.393   3.790
85864W        W58179   8.000  31.363  13.375
85865W        W58180  27.162  40.933  12.106
85866W        W58181  16.399  44.727   0.431
85867W        W58182  43.290  39.829   0.226
85868W        W58183  29.468  18.692   2.257
85869W        W58184  35.054  34.854  11.891
85870W        W58185  16.227  42.614  13.847
85871W        W58186  24.432  34.175   0.311
85872W        W58187  11.689  25.481  11.090
85873W        W58188   0.049   2.018  12.384
85874W        W58189  24.300  12.922  12.969
85875W        W58190  27.921   7.895   0.394
85876W        W58191   5.955  14.585   0.301
85877W        W58192   1.325  40.845   4.580
85878W        W58193  15.318  44.970  11.867
85879W        W58194  19.801   2.686   4.484
85880W        W58195  13.795   3.042  11.067
85881W        W58196  29.969  21.056  13.368
85882W        W58197   7.681  37.182  11.259
85883W        W58198  35.901  40.765  12.441
85884W        W58199  32.005  11.266  14.530
85885W        W58200   0.031  15.093   3.756
85886W        W58201  31.133  13.414   1.928
85887W        W58202  28.088  14.564   2.310
85888W        W58203  32.670   2.774   3.695
85889W        W58204   0.271  29.679  11.496
85890W        W58205   5.184  43.044  12.578
85891W        W58206  31.971  44.304  12.603
85892W        W58207   6.363  42.856   0.299
85893W        W58208  29.889  34.509   4.066
85894W        W58209  34.294  35.094   0.974
85895W        W58210  33.919  30.534  11.084
85896W        W58211  23.989   7.861  13.945
85897W        W58212   3.244   7.811  11.636
85898W        W58213  23.794  40.386   4.093
85899W        W58214  10.792  19.007   0.891
85900W        W58215  21.541  31.088   3.762
85901W        W58216  30.966   2.267  13.366
85902W        W58217  31.849  14.305  11.454
85903W        W58218  23.854  36.546   3.293
85904W        W58219   8.362  37.060  11.542
85905W        W58220  29.077  16.131   3.205
85906W        W58221  29.033  36.884   1.021
85907W        W58222  12.730  32.900  12.390
85908W        W58223  36.661  29.517   4.118
85909W        W58224  27.118  28.217  12.326
85910W        W58225  33.988  44.532  14.025
85911W        W58226   4.277  15.540  10.769
85912W        W58227  23.611  14.794  14.303
85913W        W58228  19.127  42.903  11.097
85914W        W58229  18.703  14.127  12.564
85915W        W58230  21.635  35.877  11.462
85916W        W58231  14.961   6.014  14.971
85917W        W58232   7.968  37.593  13.372
85918W        W58233  26.468  12.240   1.241
85919W        W58234   2.915  41.135   1.854
85920W        W58235  16.587  15.644  14.906
85921W        W58236   5.363   7.647  13.422
85922W        W58237  28.845  31.036  14.992
85923W        W58238   2.667  35.488  13.785
85924W        W58239   5.670  33.477   1.381
85925W        W58240  40.932  19.270   2.190
85926W        W58241  21.260  20.660  10.734
85927W        W58242  37.898  21.865   1.866
85928W        W58243  44.335  23.715  14.900
85929W        W58244  19.886  42.347  14.472
85930W        W58245   9.902  39.487   4.456
85931W        W58246  34.872   6.800  11.209
85932W        W58247   4.795  29.529   2.587
85933W        W58248   9.398  10.874  14.071
85934W        W58249  38.185  32.574  12.452
85935W        W58250  17.133   1.234   2.258
85936W        W58251  34.435   7.442  10.819
85937W        W58252   2.454  41.841   1.471
85938W        W58253  43.293  21.632   0.195
85939W        W58254  40.589  30.977  11.684
85940W        W58255  15.652  42.876  11.580
85941W        W58256   8.241   9.923   3.754
85942W        W58257  31.974  13.266  10.471
85943W        W58258  14.555  43.036   1.770
85944W        W58259  14.984  25.793  11.621
85945W        W58260   2.727  14.731  11.700
85946W        W58261  16.830  27.209   3.789
85947W        W58262   8.812  36.071  14.869
85948W        W58263  29.839  44.991   0.249
85949W        W58264   5.778  28.855  13.483
85950W        W58265  29.595   8.974   2.399
85951W        W58266  23.155  44.471   0.680
85952W        W58267  28.552  13.194   3.616
85953W        W58268   5.491   4.844   4.638
85954W        W58269  17.741   7.810   0.315
85955W        W58270  20.706  30.590   3.701
85956W        W58271  40.106  13.512  12.005
85957W        W58272  44.118  12.207  10.324
85958W        W58273  19.346  28.817   5.067
85959W        W58274  27.984  41.978   3.876
85960W        W58275  42.042  37.508  12.868
85961W        W58276  39.549  40.008   0.480
85962W        W58277  35.913  13.828   3.133
85963W        W58278  23.590  33.198  14.890
85964W        W58279  27.203  26.481  14.469
85965W        W58280   5.436  18.580   0.747
85966W        W58281  28.602  32.155   3.767
85967W        W58282  11.376  44.258  11.647
85968W        W58283   2.224  23.700  13.059
85969W        W58284  18.632   5.316   4.248
85970W        W58285   1.866  38.463   0.312
85971W        W58286   1.601  11.176   9.765
85972W        W58287  43.197   9.928  13.044
85973W        W58288  12.015  22.563  11.895
85974W        W58289   4.950  12.184   0.672
85975W        W58290  13.581  26.247  11.688
85976W        W58291   4.918   2.800   2.845
85977W        W58292  26.556  28.077   3.303
85978W        W58293  43.202  30.089  13.947
85979W        W58294   7.762  39.482  12.919
85980W        W58295   8.458   6.480   2.925
85981W        W58296  29.588  34.917   4.071
85982W        W58297  43.762   9.556  13.838
85983W        W58298  40.242  11.284   0.175
85984W        W58299  12.147   1.962  13.857
85985W        W58300  24.533  20.103   3.250
85986W        W58301  15.342  19.527   2.781
85987W        W58302  14.376   8.621  11.987
85988W        W58303  13.076   4.644   3.568
85989W        W58304  44.795  38.120  12.601
85990W        W58305  31.135  14.356   5.082
85991W        W58306  41.004  41.283  12.033
85992W        W58307  10.154   2.091   1.300
85993W        W58308  20.257  39.092   4.544
85994W        W58309  43.130  16.504   2.383
85995W        W58310   2.454  26.616   2.466
85996W        W58311   6.367  25.702   1.707
85997W        W58312  25.964  40.982  10.788
85998W        W58313  10.340  29.012  12.154
85999W        W58314  26.453  41.216   4.138
86000W        W58315   7.667   1.096   4.047
86001W        W58316  18.620  41.903  11.550
86002W        W58317   7.091  38.359  11.553
86003W        W58318  23.146   0.529   0.962
86004W        W58319  10.096  29.529   1.227
86005W        W58320   8.032  34.758   0.186
86006W        W58321  27.509  16.140   2.649
86007W        W58322  20.827  22.024  14.855
86008W        W58323  39.978  10.473   1.220
86009W        W58324   5.164   8.526  11.880
86010W        W58325  22.525   2.347   3.172
86011W        W58326   9.422   3.791   2.621
86012W        W58327   6.918  41.713  12.913
86013W        W58328  18.410   8.193  11.027
86014W        W58329  15.707  40.208   1.354
86015W        W58330  40.827  36.591  11.734
86016W        W58331  13.705   1.232   0.394
86017W        W58332  14.870  22.942  14.443
86018W        W58333   9.395  29.081  11.731
86019W        W58334  42.773  44.033   2.671
86020W        W58335  21.225  39.590  14.395
86021W        W58336   7.795  26.761  14.566
86022W        W58337  19.826  30.331  14.938
86023W        W58338  27.184  32.950   1.237
86024W        W58339  39.034  19.194  11.182
86025W        W58340  44.321  27.984  10.418
86026W        W58341  23.884   2.353  13.022
86027W        W58342  42.750  30.480  12.453
86028W        W58343   6.308   7.758   1.484
86029W        W58344  16.716  28.177   5.493
86030W        W58345  26.904  42.552  11.594
86031W        W58346  38.585  40.529  11.173
86032W        W58347  41.726   6.672  14.565
86033W        W58348  11.573  43.916   4.703
86034W        W58349  18.509  16.609   1.784
86035W        W58350   2.875   4.641   2.664
86036W        W58351  42.171  10.217   0.695
86037W        W58352  37.728  22.059  12.738
86038W        W58353  15.673  28.848   0.036
86039W        W58354  37.332  37.009  11.448
86040W        W58355  21.472  29.455  12.922
86041W        W58356  37.116  20.619   0.723
86042W        W58357  26.379  25.086   0.494
86043W        W58358  33.463  30.311  13.447
86044W        W58359  22.551  19.665  14.283
86045W        W58360  35.405  10.268  10.752
86046W        W58361  36.562  36.035   2.083
86047W        W58362  22.069  34.162  10.725
86048W        W58363  20.273   1.234   2.335
86049W        W58364  39.013  38.054  11.486
86050W        W58365  33.462  17.034   2.944
86051W        W58366  38.499  18.269   3.607
86052W        W58367  42.675  10.173   0.809
86053W        W58368  30.648  22.736  14.766
86054W        W58369   6.226   0.845  14.349
86055W        W58370  40.253  23.063  10.451
86056W        W58371  32.023   2.418   2.564
86057W        W58372  33.333  30.677  13.942
86058W        W58373  29.601  33.963   5.212
86059W        W58374   5.979  20.470   2.227
86060W        W58375  20.633   2.062  14.411
86061W        W58376  44.866  41.575  10.741
86062W        W58377  29.909   7.632  10.614
86063W        W58378  41.889   0.919  14.797
86064W        W58379  33.478  39.572  12.126
86065W        W58380  16.823  12.818  13.132
86066W        W58381   0.255  26.064  13.734
86067W        W58382  32.494   1.875  14.882
86068W        W58383  17.283  36.293  13.362
86069W        W58384  15.711   8.427   3.320
86070W        W58385  13.175  18.664   1.008
86071W        W58386  31.911  28.594  12.532
86072W        W58387  34.345  42.897   3.748
86073W        W58388  18.135  16.543  12.051
86074W        W58389  26.694  43.899  12.882
86075W        W58390   5.542  19.622   3.630
86076W        W58391  13.669  11.065   1.389
86077W        W58392  15.711  10.246  12.076
86078W        W58393  39.515  17.228  11.550
86079W        W58394  19.523   4.072  11.684
86080W        W58395  30.401  14.421   4.517
86081W        W58396   1.478  20.965  12.929
86082W        W58397  27.970  28.934  13.889
86083W        W58398  27.694  30.423  12.879
86084W        W58399  36.443  30.162   4.425
86085W        W58400  42.229   5.266  13.426
86086W        W58401  39.141  43.055  12.871
86087W        W58402  43.801   2.113   1.419
86088W        W58403  26.703  35.794  12.479
86089W        W58404  40.472  26.341   3.211
86090W        W58405   3.853  10.875  13.724
86091W        W58406  10.663   2.631   1.900
86092W        W58407  37.968  24.234  11.648
86093W        W58408  35.780   0.396  11.690
86094W        W58409  41.056   1.973  11.388
86095W        W58410  35.518   1.786  12.643
86096W        W58411   2.939  38.563   1.739
86097W        W58412  18.216   6.792  13.161
86098W        W58413  27.896  33.210   3.259
86099W        W58414  23.320  16.850  10.684
86100W        W58415  21.029   8.769   0.459
86101W        W58416   9.296  16.516   3.344
86102W        W58417   0.936  18.102   3.168
86103W        W58418  32.113  33.501   2.790
86104W        W58419   0.893  25.721  14.964
86105W        W58420  14.668   3.939   1.545
86106W        W58421  18.579  21.675   2.412
86107W        W58422   6.855  39.636  11.959
86108W        W58423  28.982  35.944  13.595
86109W        W58424  12.102  22.224   3.160
86110W        W58425  35.111   7.723  10.739
86111W        W58426  38.973  26.159  12.186
86112W        W58427  32.315  31.596   4.011
86113W        W58428  28.536  36.328  14.528
86114W        W58429  34.117  16.639  11.791
86115W        W58430  30.719  22.966   4.508
86116W        W58431  28.231  33.546   0.437
86117W        W58432  38.588  42.567   1.853
86118W        W58433   0.235  22.945  10.532
86119W        W58434  24.034  36.944  11.552
86120W        W58435  22.990   0.226  11.117
86121W        W58436   8.923   3.853   4.033
86122W        W58437  35.357  34.585   2.118
86123W        W58438   0.890  21.986   4.954
86124W        W58439   9.239  29.475  14.538
86125W        W58440  36.886   1.234   0.594
86126W        W58441  13.049  33.444  12.458
86127W        W58442   2.593  12.839   1.293
86128W        W58443  26.068  15.361   0.378
86129W        W58444  28.589  37.235  14.448
86130W        W58445  19.143   4.354  14.460
86131W        W58446  11.738   4.820   1.209
86132W        W58447  12.649  21.900   3.836
86133W        W58448  21.673  28.197   4.262
86134W        W58449  29.497  16.770   3.653
86135W        W58450  30.940  32.879   2.811
86136W        W58451  31.001   9.785  11.555
86137W        W58452   5.438  24.161  12.004
86138W        W58453  22.276  28.919  11.158
86139W        W58454  17.436  40.033   0.498
86140W        W58455   5.528  14.497  13.997
86141W        W58456  22.208  44.467  14.216
86142W        W58457  43.262  19.637   2.626
86143W        W58458  27.668  19.199   0.074
86144W        W58459  35.844   2.273  12.389
86145W        W58460  19.976  35.047   1.807
86146W        W58461   1.850  24.150   3.008
86147W        W58462   4.420  11.392  10.179
86148W        W58463  18.158  36.898  13.825
86149W        W58464   4.532  20.040   2.091
86150W        W58465   6.431  14.032   4.598
86151W        W58466  36.564  36.083  12.042
86152W        W58467  28.640   7.883  14.682
86153W        W58468  20.527  33.554   1.057
86154W        W58469   4.619   0.308   0.832
86155W        W58470   7.180  23.679   2.445
86156W        W58471  30.463  15.090  14.781
86157W        W58472  21.007   5.410   2.689
86158W        W58473  13.802  44.365  14.759
86159W        W58474  30.177  23.974   4.361
86160W        W58475  18.179  14.772   1.901
86161W        W58476  30.400  23.577   0.279
86162W        W58477  22.271   6.536  14.257
86163W        W58478  21.998  13.723   0.293
86164W        W58479  18.155   5.284  13.844
86165W        W58480  28.121  32.190  11.120
86166W        W58481   9.591   2.802   4.501
86167W        W58482  26.264  22.157  12.997
86168W        W58483  38.019  37.781   3.301
86169W        W58484  31.117  28.871   0.854
86170W        W58485  20.761  39.946  11.605
86171W        W58486  11.328  14.628  12.539
86172W        W58487   9.840  25.309   3.443
86173W        W58488  20.722  27.900   1.433
86174W        W58489  15.145  15.648  14.015
86175W        W58490   0.503  32.932  14.432
86176W        W58491  30.951  40.474   0.950
86177W        W58492   1.057  31.546   4.600
86178W        W58493  42.416  31.958  14.525
86179W        W58494   5.610  26.312  10.874
86180W        W58495  17.772  40.960   2.288
86181W        W58496  16.549  28.058  12.523
86182W        W58497  14.316  35.565   2.826
86183W        W58498  19.375  11.323   2.455
86184W        W58499   0.472  28.967  13.505
86185W        W58500   1.325  35.492  10.988
86186W        W58501  19.492  21.057  10.766
86187W        W58502   9.048  25.542   3.334
86188W        W58503  33.666  32.552  11.644
86189W        W58504  15.533  31.854   0.055
86190W        W58505  43.991  13.125   1.281
86191W        W58506  18.665   5.778   0.934
86192W        W58507  24.303  38.399  12.254
86193W        W58508   8.100  21.750  13.575
86194W        W58509  35.366  19.770   3.223
86195W        W58510   4.752  39.883  13.958
86196W        W58511  16.791  34.982  12.292
86197W        W58512   7.909  39.057  14.150
86198W        W58513  23.158  33.454  14.763
86199W        W58514  34.466  43.648  11.907
86200W        W58515  40.424   9.975   5.171
86201W        W58516  41.109  33.162  13.234
86202W        W58517   5.203  13.109  11.730
86203W        W58518  43.803  44.256  13.456
86204W        W58519  32.123  15.328  11.713
86205W        W58520  20.503  23.512  14.500
86206W        W58521   5.757   6.114   2.743
86207W        W58522  41.964  34.269   3.255
86208W        W58523  14.146  34.086  14.041
86209W        W58524  34.623  15.632  13.396
86210W        W58525  19.731  19.289   1.895
86211W        W58526  22.119  39.414  13.074
86212W        W58527  38.615  35.734  11.995
86213W        W58528  12.190  43.613   1.042
86214W        W58529   5.894  44.929  12.318
86215W        W58530  37.405  43.307  13.837
86216W        W58531   0.098  17.585  11.146
86217W        W58532  26.904  25.054   0.420
86218W        W58533  25.534  43.456  11.154
86219W        W58534  26.054   6.411   2.437
86220W        W58535  20.077  37.648   4.742
86221W        W58536  10.858  24.445   3.257
86222W        W58537  24.039   1.440   0.864
86223W        W58538   1.943  30.523   1.722
86224W        W58539   7.915   2.372   4.632
86225W        W58540  23.016  30.795  13.976
86226W        W58541   4.888  30.076  14.777
86227W        W58542   1.683  41.993  11.280
86228W        W58543   7.423   0.957   1.940
86229W        W58544  10.459  27.949   3.268
86230W        W58545  32.033  11.864   4.155
86231W        W58546  37.780   8.377  13.894
86232W        W58547  43.459  27.479  13.042
86233W        W58548   7.027  19.534  14.901
86234W        W58549  27.017   2.061  14.371
86235W        W58550  17.270  44.174   3.187
86236W        W58551  23.869  10.481  12.119
86237W        W58552  41.023  24.648   3.383
86238W        W58553  34.623  18.238   3.735
86239W        W58554  24.442  12.730   2.208
86240W        W58555   9.740  12.366   1.854
86241W        W58556   2.312   5.280   4.542
86242W        W58557  11.604  25.172   2.436
86243W        W58558  37.542  22.738   3.129
86244W        W58559  17.671  30.936   1.279
86245W        W58560  36.217   6.107  12.031
86246W        W58561  25.392  28.846   5.193
86247W        W58562  12.311  33.147   1.775
86248W        W58563  12.078  35.359   3.060
86249W        W58564  28.188  15.646  12.108
86250W        W58565  44.917  37.099   5.049
86251W        W58566   0.258  31.921  11.444
86252W        W58567  18.334  15.197   3.113
86253W        W58568  33.074  26.679   0.554
86254W        W58569  22.593  12.322  12.924
86255W        W58570  22.635  37.057   0.505
86256W        W58571  34.020   5.717  11.549
86257W        W58572  21.602   2.973  13.004
86258W        W58573  36.886   1.214   2.632
86259W        W58574  24.052  14.562   0.206
86260W        W58575  27.580  13.584   3.378
86261W        W58576  22.141  27.775  12.618
86262W        W58577  41.031  28.144   3.820
86263W        W58578  42.526   9.197  12.677
86264W        W58579  40.503  20.690  14.428
86265W        W58580  29.155   7.274  14.436
86266W        W58581  14.621  10.828  11.480
86267W        W58582   1.984   6.837   4.939
86268W        W58583  42.013  20.273   0.979
86269W        W58584  35.652  41.960   3.844
86270W        W58585  11.813  40.998   9.654
86271W        W58586   0.900  41.138   4.567
86272W        W58587  25.030  38.962  12.581
86273W        W58588  15.189  27.967   2.655
86274W        W58589  30.591  13.576   2.672
86275W        W58590  15.802  21.856  11.522
86276W        W58591  20.062  44.241  13.551
86277W        W58592  21.162  38.608  13.865
86278W        W58593  20.987  33.366  11.527
86279W        W58594  31.679  39.986   0.860
86280W        W58595  43.931  10.452   3.604
86281W        W58596  26.363  10.174  14.075
86282W        W58597  44.951  38.280  14.809
86283W        W58598  21.233  40.471  11.143
86284W        W58599   3.650   2.664  11.994
86285W        W58600  28.731  18.594   0.288
86286W        W58601  31.470  30.578   1.267
86287W        W58602  21.113   9.833  14.850
86288W        W58603   8.696  14.647   2.280
86289W        W58604  32.873  10.323  13.929
86290W        W58605  33.032   6.947   2.728
86291W        W58606  42.534   4.197   1.768
86292W        W58607  42.829  19.814   4.831
86293W        W58608   1.437  26.057  12.493
86294W        W58609  41.354  22.130  12.402
86295W        W58610  34.477   6.006   0.497
86296W        W58611  11.690  16.951   4.100
86297W        W58612  41.077  14.133  10.768
86298W        W58613  20.707  11.692   0.530
86299W        W58614   6.242  44.683   3.609
86300W        W58615  27.436  42.385   3.750
86301W        W58616  41.764  42.071  10.717
86302W        W58617  38.951  13.819   3.128
86303W        W58618   7.439  34.366  14.824
86304W        W58619   0.293  33.426   2.462
86305W        W58620   4.975  30.860   3.824
86306W        W58621  43.403  37.827  10.762
86307W        W58622   1.352  11.201  10.236
86308W        W58623  29.665  15.378   5.226
86309W        W58624  11.262  30.869   3.729
86310W        W58625  29.633  12.546   2.832
86311W        W58626  10.818  11.765   9.842
86312W        W58627  15.578  15.815  14.940
86313W        W58628  17.589  39.940   2.295
86314W        W58629   7.739  37.785   0.913
86315W        W58630  20.010   9.791   3.250
86316W        W58631  11.937   3.708  12.389
86317W        W58632   5.498  35.565  11.954
86318W        W58633  18.496  27.895  14.042
86319W        W58634  41.380   1.397   4.573
86320W        W58635   1.980  34.904  10.725
86321W        W58636  30.104  23.806   1.676
86322W        W58637  15.349   4.763   1.336
86323W        W58638  37.800  23.858  10.979
86324W        W58639  29.450   0.350  12.045
86325W        W58640   7.803  33.806   1.495
86326W        W58641  42.570   3.451   3.239
86327W        W58642  22.107  20.775   3.104
86328W        W58643  15.667   3.503  14.901
86329W        W58644   5.280  16.689  10.848
86330W        W58645  35.362  17.997  14.519
86331W        W58646  12.014  13.499  12.536
86332W        W58647  44.660  42.909  14.557
86333W        W58648   4.185  41.416  10.716
86334W        W58649  43.948  27.177  12.969
86335W        W58650  43.805  36.176  12.835
86336W        W58651  44.721  43.750  13.294
86337W        W58652  19.627  34.620   3.259
86338W        W58653  15.354  33.551   2.107
86339W        W58654   3.507  26.548  11.067
86340W        W58655   3.283  11.033  11.608
86341W        W58656  33.021  35.942   3.954
86342W        W58657   9.631  14.108   2.516
86343W        W58658   0.491   0.774   3.701
86344W        W58659   5.636  39.937   2.969
86345W        W58660  35.627  27.349   2.472
86346W        W58661   7.975   3.332  10.815
86347W        W58662  20.611  19.037  13.716
86348W        W58663   4.890  30.490   0.259
86349W        W58664  33.988  40.620   3.573
86350W        W58665  13.722   4.359  10.763
86351W        W58666  37.023   1.407   1.788
86352W        W58667  33.445  28.168  11.193
86353W        W58668   4.422   1.421   1.743
86354W        W58669  17.768  16.686   1.221
86355W        W58670  25.938  20.276   0.909
86356W        W58671  13.818  28.583   2.467
86357W        W58672  26.466  18.813   1.476
86358W        W58673  27.663  23.211   4.185
86359W        W58674  34.195  33.198   2.263
86360W        W58675   3.403  41.477   4.559
86361W        W58676  29.149  37.991  11.578
86362W        W58677  11.060  10.280  14.426
86363W        W58678  23.716  17.867   2.176
86364W        W58679   1.589  16.895   0.994
86365W        W58680  44.100  19.267  11.639
86366W        W58681  39.908  38.492   1.912
86367W        W58682  32.484  41.040   1.790
86368W        W58683  11.113  22.599   0.842
86369W        W58684  33.397  11.162  12.656
86370W        W58685  17.644  43.881   3.425
86371W        W58686  35.926  29.908   0.226
86372W        W58687  44.886  17.275   0.913
86373W        W58688  30.106   5.278  10.762
86374W        W58689  41.038  13.866  14.895
86375W        W58690  19.585   8.402  11.010
86376W        W58691  30.135   0.956   0.446
86377W        W58692   4.173  12.492   3.007
86378W        W58693  37.577  13.110  14.318
86379W        W58694  20.318  27.530  13.369
86380W        W58695   4.926  43.424   3.186
86381W        W58696  15.612  21.238  10.696
86382W        W58697  16.060   3.815  11.569
86383W        W58698   7.189  33.331   1.741
86384W        W58699  28.602   7.074  14.747
86385W        W58700  40.494  38.344   4.766
86386W        W58701  10.366   3.787  14.377
86387W        W58702  24.233  28.166  11.626
86388W        W58703   1.187   9.895  12.002
86389W        W58704  42.810  39.313   1.004
86390W        W58705  37.022  14.691  11.132
86391W        W58706  24.519  13.361  14.757
86392W        W58707  12.747  35.346  11.266
86393W        W58708  22.730  19.058  14.870
86394W        W58709  16.618  15.592   1.700
86395W        W58710  40.125   6.184   2.877
86396W        W58711  25.261  27.608  11.987
86397W        W58712   5.225  18.476  12.075
86398W        W58713  37.350  33.562  14.497
86399W        W58714  26.852  31.567   4.266
86400W        W58715  35.294  14.641  11.618
86401W        W58716  36.726  11.096  13.578
86402W        W58717  43.283  27.519  11.367
86403W        W58718  40.126  22.683  14.202
86404W        W58719  12.378  33.042  14.011
86405W        W58720  14.139  31.976  10.939
86406W        W58721  28.560  11.800  13.508
86407W        W58722  26.864  42.883   0.378
86408W        W58723  22.544  32.799  14.997
86409W        W58724  10.948   7.202   2.720
86410W        W58725  19.513  28.917   0.304
86411W        W58726   4.578  29.624   4.855
86412W        W58727  42.435  25.972  14.915
86413W        W58728  10.832   8.656   2.780
86414W        W58729  17.129  44.849   1.982
86415W        W58730   9.828  10.681   1.037
86416W        W58731  18.652  28.315  11.538
86417W        W58732  21.286   4.965  11.094
86418W        W58733  30.172  26.011  11.472
86419W        W58734  29.749   2.421  13.349
86420W        W58735  19.727  41.008  12.595
86421W        W58736  25.861  39.283   0.681
86422W        W58737  22.091  30.146  10.733
86423W        W58738  16.207  23.560  12.018
86424W        W58739  36.558  30.677   0.268
86425W        W58740   6.048  28.579   3.123
86426W        W58741  28.081   2.285   3.294
86427W        W58742  12.323   6.436   3.056
86428W        W58743  11.775   2.908   3.788
86429W        W58744  26.994   3.760  14.320
86430W        W58745  44.844   8.732  12.411
86431W        W58746  12.893  15.263  14.086
86432W        W58747   9.176  44.011  12.094
86433W        W58748  14.587   4.186   4.559
86434W        W58749  32.386  43.473   2.121
86435W        W58750  26.416  41.304   1.380
86436W        W58751  10.682  13.769  11.171
86437W        W58752   4.679  33.334   9.958
86438W        W58753  13.203  44.270   2.912
86439W        W58754  39.708  42.905  14.293
86440W        W58755  29.172  33.601   0.408
86441W        W58756   6.814  33.914   0.956
86442W        W58757  11.605  27.446   4.656
86443W        W58758  29.363  19.248  12.911
86444W        W58759  19.016  19.618  14.723
86445W        W58760  16.783  38.750   0.519
86446W        W58761   7.243   3.677  12.065
86447W        W58762  21.306  32.165  12.053
86448W        W58763   8.870  37.018  11.644
86449W        W58764  21.735  28.325  12.335
86450W        W58765   5.624   9.100  13.353
86451W        W58766  19.424  30.944  13.861
86452W        W58767   4.332  22.911  13.345
86453W        W58768  20.665   9.378  10.542
86454W        W58769  25.054   8.257  12.766
86455W        W58770  40.855  31.090   2.915
86456W        W58771  43.936  14.801  11.020
86457W        W58772  21.329  26.711   5.240
86458W        W58773  31.326   2.566  13.569
86459W        W58774  19.414   8.193  12.187
86460W        W58775  16.608   1.961  13.307
86461W        W58776   4.349   3.524  13.531
86462W        W58777  11.558  43.478  12.971
86463W        W58778  37.171  27.754  14.028
86464W        W58779  19.266  28.225  12.162
86465W        W58780  20.532  23.508   0.010
86466W        W58781  32.868  26.900  12.481
86467W        W58782  12.728   3.945  11.451
86468W        W58783  35.998  11.981   0.452
86469W        W58784  32.981  34.129   0.329
86470W        W58785  43.861   2.499  12.326
86471W        W58786  13.205  14.832  11.937
86472W        W58787  16.868   9.167   4.192
86473W        W58788  33.126  12.090  13.827
86474W        W58789  10.127  37.139   2.305
86475W        W58790  22.111   1.868  10.684
86476W        W58791  20.182  26.369   1.883
86477W        W58792  19.472   1.432   0.037
86478W        W58793  16.699  14.572   2.700
86479W        W58794  25.947   1.771   0.835
86480W        W58795  27.051  11.351   3.162
86481W        W58796  15.824  41.607   4.178
86482W        W58797  27.485  43.369   0.006
86483W        W58798  20.304  37.962   3.805
86484W        W58799  11.143  23.781  12.025
86485W        W58800  24.064  33.792   0.484
86486W        W58801  26.538  19.337   3.704
86487W        W58802   5.472  34.516  12.065
86488W        W58803  21.166  29.409   4.169
86489W        W58804  39.329  23.770   4.027
86490W        W58805  10.472  23.942   1.881
86491W        W58806  37.715  44.162  14.347
86492W        W58807  26.000  34.973  10.717
86493W        W58808  22.607  30.084   2.623
86494W        W58809  33.972  39.135   4.508
86495W        W58810   2.316  43.900  13.585
86496W        W58811   0.850  11.411   5.688
86497W        W58812  11.355  10.364  11.583
86498W        W58813   6.360   2.691  12.521
86499W        W58814  33.535  10.297   1.909
86500W        W58815  40.268   6.678   2.733
86501W        W58816  30.096  29.261  11.863
86502W        W58817   8.246  44.989   4.580
86503W        W58818  23.550  19.335   0.453
86504W        W58819  44.674  39.907  14.761
86505W        W58820   0.517   9.197   3.719
86506W        W58821   4.650   8.883   3.717
86507W        W58822   3.392  18.517   1.444
86508W        W58823  36.369  40.995   0.061
86509W        W58824  32.876  28.245  12.007
86510W        W58825  39.712  29.843   3.311
86511W        W58826  29.200  38.285   0.911
86512W        W58827  42.916  35.176   3.343
86513W        W58828  25.925  33.087  13.434
86514W        W58829  34.552  29.497   0.024
86515W        W58830  31.484  44.958   4.534
86516W        W58831   0.912  19.374   2.770
86517W        W58832  25.640   4.177   4.603
86518W        W58833  33.015  44.367  11.532
86519W        W58834  19.124  37.840  14.514
86520W        W58835   1.898  16.308   4.057
86521W        W58836  26.274  14.689  11.058
86522W        W58837  28.215  27.711  12.003
86523W        W58838  41.920   2.229   3.937
86524W        W58839  27.625  22.598  13.930
86525W        W58840  17.283   6.402  11.556
86526W        W58841  28.357  44.741   0.323
86527W        W58842  18.100  13.743   1.374
86528W        W58843   3.023   9.799   3.559
86529W        W58844  24.800  43.792  12.564
86530W        W58845  30.582  32.218  12.366
86531W        W58846  40.406  12.333  13.471
86532W        W58847  44.784  28.081  14.391
86533W        W58848   0.183  10.280   4.008
86534W        W58849  42.027  33.947  10.521
86535W        W58850  22.630   0.462   1.155
86536W        W58851   1.874  38.948   0.512
86537W        W58852   6.735   9.711  13.328
86538W        W58853  36.887  19.175  13.529
86539W        W58854  36.927  13.071   3.095
86540W        W58855   7.176  12.455   0.835
86541W        W58856  30.420  24.411   0.022
86542W        W58857  22.409  22.036   1.959
86543W        W58858  28.736   9.903  11.859
86544W        W58859  42.470  14.342   1.808
86545W        W58860  43.527   6.238  11.139
86546W        W58861  27.595  30.152  14.511
86547W        W58862  19.801  33.491  12.097
86548W        W58863  27.491  38.588   0.903
86549W        W58864  40.879  18.701   3.886
86550W        W58865   7.391  24.625   2.401
86551W        W58866  35.159  40.836  11.813
86552W        W58867  44.331  16.287   5.097
86553W        W58868  12.612  43.714  14.818
86554W        W58869  16.940  43.865  11.142
86555W        W58870  42.762  37.997  11.292
86556W        W58871  17.561  19.581  14.486
86557W        W58872  17.722  15.658   5.179
86558W        W58873  21.579  44.904  11.221
86559W        W58874  16.650   0.503   2.470
86560W        W58875  34.188  29.016  13.999
86561W        W58876   3.368  16.690  13.995
86562W        W58877  21.292  22.566  10.513
86563W        W58878   9.687   5.980   2.811
86564W        W58879   8.439  11.011  12.001
86565W        W58880  27.474  42.369   2.196
86566W        W58881  14.710  33.964  14.888
86567W        W58882  41.312  38.779   3.667
86568W        W58883  25.968   7.434  10.947
86569W        W58884  11.249  42.888  14.405
86570W        W58885  44.969  37.344   1.353
86571W        W58886  29.375  36.426   1.729
86572W        W58887  40.339  15.643   5.020
86573W        W58888  13.663  27.099   0.804
86574W        W58889  13.411   0.185  11.495
86575W        W58890  20.243  17.610  13.989
86576W        W58891  30.180   6.135  11.002
86577W        W58892  25.229  44.205   3.735
86578W        W58893  22.362  30.996   2.134
86579W        W58894  31.592  18.075   3.855
86580W        W58895   8.698   8.887  11.020
86581W        W58896   7.940   3.305  12.179
86582W        W58897  37.142  13.335  11.677
86583W        W58898  36.264  35.819  11.491
86584W        W58899  24.517   9.222   0.683
86585W        W58900  23.739  27.043  11.972
86586W        W58901  39.315  31.452  11.967
86587W        W58902   2.142  18.778   2.321
86588W        W58903  27.143  31.553   1.199
86589W        W58904  16.763  31.800  11.444
86590W        W58905  38.293   6.148  11.078
86591W        W58906  36.844  31.021  12.560
86592W        W58907  44.880   4.338   3.618
86593W        W58908  27.606  14.639  13.295
86594W        W58909   0.567  34.448  10.150
86595W        W58910  16.439  31.925  10.453
86596W        W58911  39.950   7.728   1.727
86597W        W58912  27.839  19.548  12.572
86598W        W58913  40.373  43.381   2.279
86599W        W58914  25.939  34.401  13.783
86600W        W58915  10.224   2.829   2.096
86601W        W58916  17.184  18.415   2.184
86602W        W58917  30.123  29.870  12.732
86603W        W58918  38.600  37.056   4.409
86604W        W58919  42.983   6.775   3.491
86605W        W58920  42.537   7.438   3.548
86606W        W58921  43.255  16.217   4.098
86607W        W58922  41.881  39.045  13.480
86608W        W58923  14.116   6.834  10.484
86609W        W58924  29.354  29.642  11.200
86610W        W58925  20.787  17.224   4.165
86611W        W58926   3.233  32.374   3.114
86612W        W58927  36.579  44.435  10.170
86613W        W58928  37.559  22.924   1.429
86614W        W58929  35.766  21.514   4.488
86615W        W58930  43.332  19.145  11.150
86616W        W58931   3.395  15.627   2.254
86617W        W58932   0.279  20.661   2.543
86618W        W58933  15.861  11.584   2.767
86619W        W58934  17.247  42.886  14.056
86620W        W58935  15.076  26.469   4.691
86621W        W58936   6.661   5.430  14.441
86622W        W58937  41.905  16.157   0.315
86623W        W58938  31.305  13.404  14.005
86624W        W58939  12.671  18.170   2.730
86625W        W58940  16.101  20.639   4.674
86626W        W58941   6.279   4.285  11.356
86627W        W58942  42.258  26.543  10.241
86628W        W58943  26.684  12.710  10.772
86629W        W58944  38.556  14.242   1.245
86630W        W58945  43.560  31.035   1.888
86631W        W58946  13.027  25.221   3.292
86632W        W58947  22.177  17.617  12.476
86633W        W58948  25.449  18.663  11.093
86634W        W58949  37.594   4.431   2.654
86635W        W58950  40.635   9.839  11.193
86636W        W58951  21.719  10.079  11.019
86637W        W58952  26.531  28.483  14.221
86638W        W58953  33.583   3.478  14.051
86639W        W58954  26.587  13.117   0.671
86640W        W58955  42.023   8.279  11.521
86641W        W58956  10.568  18.495  10.736
86642W        W58957  12.632  10.269   0.233
86643W        W58958  30.019  41.400  12.228
86644W        W58959  37.950  23.064   0.409
86645W        W58960  18.318  19.562   1.809
86646W        W58961  41.044   1.066   2.364
86647W        W58962  33.188  36.518  13.054
86648W        W58963  32.194  17.763  12.040
86649W        W58964  17.444   7.484  13.155
86650W        W58965  11.307   1.905  13.480
86651W        W58966   1.446   5.511  12.051
86652W        W58967  13.601  35.061   4.556
86653W        W58968  17.414  37.941   5.088
86654W        W58969   8.322  28.147   4.401
86655W        W58970   8.894  37.183  13.649
86656W        W58971   9.984  20.148   3.115
86657W        W58972  20.667  22.156   4.486
86658W        W58973   9.817  18.182   0.946
86659W        W58974   6.846  26.073   4.907
86660W        W58975  37.875  30.631  11.954
86661W        W58976  20.155  19.803   1.465
86662W        W58977  11.329  16.153  13.170
86663W        W58978   4.650  38.045   2.674
86664W        W58979  38.991  34.967   3.428
86665W        W58980   7.710  19.634   0.305
86666W        W58981  44.311   2.948   0.965
86667W        W58982  20.200  27.434  11.647
86668W        W58983   0.269  11.316  12.424
86669W        W58984   3.291  13.334  12.501
86670W        W58985  18.529  10.362   1.750
86671W        W58986   6.209  41.002   3.359
86672W        W58987  40.525  35.467   2.204
86673W        W58988  35.305  20.747  11.378
86674W        W58989  29.837   4.017  11.902
86675W        W58990  42.073  41.792  14.395
86676W        W58991  33.440  37.930  14.908
86677W        W58992  36.110  28.756  11.133
86678W        W58993  17.040  28.600  10.530
86679W        W58994  41.703  27.244  14.397
86680W        W58995  35.437   8.647  14.424
86681W        W58996  21.132  22.689   3.954
86682W        W58997   0.678  38.957   0.474
86683W        W58998   1.981  43.515   1.443
86684W        W58999  21.689  15.123  12.506
86685W        W59000  24.664  35.555   4.170
86686W        W59001  13.641  31.689  13.048
86687W        W59002   8.183  24.186  11.456
86688W        W59003   9.419  23.965  14.549
86689W        W59004  11.328  44.568  10.722
86690W        W59005  16.137   9.905  12.005
86691W        W59006   9.633   7.857   2.608
86692W        W59007  29.360   2.806  12.109
86693W        W59008  26.486  14.343  14.812
86694W        W59009  30.885  24.239   4.634
86695W        W59010  41.486  19.249  11.657
86696W        W59011  37.423  41.473  13.623
86697W        W59012  42.100  29.915  10.731
86698W        W59013  17.823  44.777  13.119
86699W        W59014  44.752  39.540   1.924
86700W        W59015  29.434  13.569  12.990
86701W        W59016   9.281  38.118  10.963
86702W        W59017  23.670  17.978   0.871
86703W        W59018  22.306  15.612   2.356
86704W        W59019  34.927  43.402  14.044
86705W        W59020  39.499  35.565  12.560
86706W        W59021  33.636   3.805   2.590
86707W        W59022  20.909  41.012  11.965
86708W        W59023  31.133  35.444  10.943
86709W        W59024  15.308  42.510  11.536
86710W        W59025  32.289  28.949   4.039
86711W        W59026  38.655   8.853   5.084
86712W        W59027  40.054   8.634  10.757
86713W        W59028   5.701   9.277  11.643
86714W        W59029  18.290  26.801   1.690
86715W        W59030  36.442   8.702   4.645
86716W        W59031  31.688  30.608   3.620
86717W        W59032   3.063  25.021  11.724
86718W        W59033   7.544   6.459  13.330
86719W        W59034   6.113   7.917   2.877
86720W        W59035  27.067  39.757   2.938
86721W        W59036  17.708  42.726   0.874
86722W        W59037  13.831  28.012   3.697
86723W        W59038  39.209   1.848   9.880
86724W        W59039   8.027  22.482  14.951
86725W        W59040  26.500  44.865  11.530
86726W        W59041   5.888  28.746  12.708
86727W        W59042  16.171  21.703  13.439
86728W        W59043   0.288  37.392   4.865
86729W        W59044  42.440  11.342  10.498
86730W        W59045  36.839  35.595  12.062
86731W        W59046   0.399  34.653   0.859
86732W        W59047  39.652   4.089   4.176
86733W        W59048  25.061   6.112  14.781
86734W        W59049  42.968  27.265   3.155
86735W        W59050   0.433  23.169   2.586
86736W        W59051   7.105  17.238  13.593
86737W        W59052  26.454  20.733   2.728
86738W        W59053  44.967  10.616   3.121
86739W        W59054  32.470  19.625   4.042
86740W        W59055  43.536  32.627  11.446
86741W        W59056  38.739  14.279   3.181
86742W        W59057  17.273   2.205   3.251
86743W        W59058   1.103  31.977  10.843
86744W        W59059  40.279   7.859  10.584
86745W        W59060  10.663  40.201  10.669
86746W        W59061  22.581   3.027   3.806
86747W        W59062  39.883  42.367  13.032
86748W        W59063  42.905  25.120   4.167
86749W        W59064  10.458  12.154  10.703
86750W        W59065  33.969  28.823  12.626
86751W        W59066  29.257   1.875  14.297
86752W        W59067  35.077   8.212   3.224
86753W        W59068  39.856   3.305  13.052
86754W        W59069   7.182  42.153   4.135
86755W        W59070  33.936   2.358  14.845
86756W        W59071  21.094  27.536  13.785
86757W        W59072  16.157   5.906  12.900
86758W        W59073  35.404  11.383   1.028
86759W        W59074  27.939  19.632  11.711
86760W        W59075  17.851  10.686   3.788
86761W        W59076  38.296  44.439   0.828
86762W        W59077  10.387  34.330   2.333
86763W        W59078  39.844   5.002  12.529
86764W        W59079  44.732   1.313  11.507
86765W        W59080  20.138  14.300  14.316
86766W        W59081  33.179  35.995  11.218
86767W        W59082  39.060  30.986  11.883
86768W        W59083   8.154   6.433  11.922
86769W        W59084  44.305  32.884  12.582
86770W        W59085   7.738   7.830   0.059
86771W        W59086  26.228  44.925   4.103
86772W        W59087  15.854  38.787   9.960
86773W        W59088  33.502  44.178   1.846
86774W        W59089   5.953  11.779  14.813
86775W        W59090  32.631   3.364  13.820
86776W        W59091  21.709  27.335   4.266
86777W        W59092  25.491  12.896   4.509
86778W        W59093  31.682  38.318   2.840
86779W        W59094  18.074  27.036  14.562
86780W        W59095  11.578  27.069  11.566
86781W        W59096  12.067  31.858  14.848
86782W        W59097  41.065  32.918  14.958
86783W        W59098  34.000  25.030   0.900
86784W        W59099  19.506  18.202   2.321
86785W        W59100  18.658  15.150   2.699
86786W        W59101  18.656  32.688   3.081
86787W        W59102  40.534  23.805   2.411
86788W        W59103  29.381  26.067  14.917
86789W        W59104   1.780  23.730  14.709
86790W        W59105  29.141  42.976   4.544
86791W        W59106  17.190  34.598  10.683
86792W        W59107  36.517  14.379  13.912
86793W        W59108  37.045  34.033   4.617
86794W        W59109  16.780  41.041   3.166
86795W        W59110   9.293  43.201  11.419
86796W        W59111  43.102  37.725   1.721
86797W        W59112   9.591   1.249   0.530
86798W        W59113  39.895  15.356   3.192
86799W        W59114  10.181  29.195   0.830
86800W        W59115  30.133  23.007  11.522
86801W        W59116  15.820  14.298  14.884
86802W        W59117  43.851  17.652  12.941
86803W        W59118  42.801  21.632  12.603
86804W        W59119   4.834   3.407   2.391
86805W        W59120   1.936  37.372  13.433
86806W        W59121  19.030  20.397  11.372
86807W        W59122  20.019  43.994  11.160
86808W        W59123  29.350  16.693  11.572
86809W        W59124  28.661  21.164  14.838
86810W        W59125  21.357  19.647  14.824
86811W        W59126  13.711  37.716   4.026
86812W        W59127  30.656  38.024  12.852
86813W        W59128   8.215  11.577   2.280
86814W        W59129  17.158   2.863   2.221
86815W        W59130  13.616  42.287  14.751
86816W        W59131  27.860  19.004  13.972
86817W        W59132  25.485  35.414  12.879
86818W        W59133   1.874  16.633   2.606
86819W        W59134  28.201   4.264   3.551
86820W        W59135  24.481  14.813  11.074
86821W        W59136  15.127  16.663   3.797
86822W        W59137  26.115   8.948   0.586
86823W        W59138   3.280   9.770   4.916
86824W        W59139  19.438  41.401  14.467
86825W        W59140  10.048  40.075  14.765
86826W        W59141  24.088  15.783  11.188
86827W        W59142  29.355  32.895   2.869
86828W        W59143   6.188  27.225  12.120
86829W        W59144  21.596  32.951  10.901
86830W        W59145  37.166  41.469   2.664
86831W        W59146  34.949  34.159   3.757
86832W        W59147   3.254  21.483   2.267
86833W        W59148  15.203  18.645  13.050
86834W        W59149  36.166  43.880  13.896
86835W        W59150  11.774  16.723   1.668
86836W        W59151  12.708  42.669   3.843
86837W        W59152  15.729   4.660  12.107
86838W        W59153  13.035  11.149   1.747
86839W        W59154  34.010  25.486   3.359
86840W        W59155  31.653  18.156  11.584
86841W        W59156   4.659  19.194   2.941
86842W        W59157  13.114  25.447  12.833
86843W        W59158  43.042  33.393   3.676
86844W        W59159  10.226  16.328  12.006
86845W        W59160  17.862  30.519  14.941
86846W        W59161   4.271  20.557  13.846
86847W        W59162  12.356  26.281  13.140
86848W        W59163  23.006  40.066  14.726
86849W        W59164   7.766   3.940  14.123
86850W        W59165   6.353  40.369   2.666
86851W        W59166  11.265  29.097  11.415
86852W        W59167   9.913   9.606   2.861
86853W        W59168  20.560  11.255  12.291
86854W        W59169  21.382  26.910   4.211
86855W        W59170  10.452  30.152  14.949
86856W        W59171  27.535  14.124   1.767
86857W        W59172  21.307  44.474  11.146
86858W        W59173  37.918   9.688  10.458
86859W        W59174   8.626  32.194   1.836
86860W        W59175  12.112  36.336   1.310
86861W        W59176  33.469   4.883   3.286
86862W        W59177  10.299  40.527  10.920
86863W        W59178  32.935  12.063  12.517
86864W        W59179  20.662  39.870   4.603
86865W        W59180  17.159  16.533  10.562
86866W        W59181   5.678  27.532  12.931
86867W        W59182  11.219   5.989   3.056
86868W        W59183  11.638  13.326   3.893
86869W        W59184  31.896  35.039   0.821
86870W        W59185  27.763  31.633   3.963
86871W        W59186  33.503   6.444  10.712
86872W        W59187  32.076  17.840  14.933
86873W        W59188   4.941  41.929  10.727
86874W        W59189   2.441   6.953  10.607
86875W        W59190  28.396  17.686  12.845
86876W        W59191  19.297   6.394   3.605
86877W        W59192  22.234  22.973  11.582
86878W        W59193  29.432  12.308  11.222
86879W        W59194   9.981  28.192   3.279
86880W        W59195  25.505  19.007   4.118
86881W        W59196  21.662  33.181   4.643
86882W        W59197  18.134  39.853  10.653
86883W        W59198  11.955  10.734   1.760
86884W        W59199  24.475   2.423   4.251
86885W        W59200  41.580  33.933   4.878
86886W        W59201  18.645  12.527  11.688
86887W        W59202  32.181  10.826   2.817
86888W        W59203  14.064  20.028   0.058
86889W        W59204   0.890  38.695  13.746
86890W        W59205  34.845  38.886  14.497
86891W        W59206   5.426  16.343  11.182
86892W        W59207   7.762  13.424   0.358
86893W        W59208   9.364  12.029   1.739
86894W        W59209  27.953  22.931  11.666
86895W        W59210  21.759   1.455   0.070
86896W        W59211  19.339  36.968  14.488
86897W        W59212  33.072  42.995  11.894
86898W        W59213  30.173  25.596   0.686
86899W        W59214  23.543  18.781  11.151
86900W        W59215  16.563  18.424  14.483
86901W        W59216  27.588  37.303   2.880
86902W        W59217  10.679   2.935   2.377
86903W        W59218   8.609   7.369   3.216
86904W        W59219  39.352  34.558  11.068
86905W        W59220  32.736  31.960   0.814
86906W        W59221  37.499  26.093  13.157
86907W        W59222  38.320   2.875   2.724
86908W        W59223  44.937  12.330  14.974
86909W        W59224  43.729  26.833  13.758
86910W        W59225  24.636  21.637  11.442
86911W        W59226  25.991  14.211   2.311
86912W        W59227  33.118  35.126  13.441
86913W        W59228  40.834  26.219   0.900
86914W        W59229  35.867   9.188   0.302
86915W        W59230   0.289   4.284  11.419
86916W        W59231   7.494  22.722  11.150
86917W        W59232  29.459  12.048   2.867
86918W        W59233  38.045  41.097  12.965
86919W        W59234  31.230  29.488  13.841
86920W        W59235  38.118  20.115  13.047
86921W        W59236   9.773  38.508  12.675
86922W        W59237   6.783  37.628   0.370
86923W        W59238  18.229  16.085   3.131
86924W        W59239  33.557  33.651  14.857
86925W        W59240  19.767  34.004  14.809
86926W        W59241  29.126  38.890  11.585
86927W        W59242  28.192  35.958  14.386
86928W        W59243  36.567  28.101   4.630
86929W        W59244  32.005  32.499  14.444
86930W        W59245  10.070  23.737   0.255
86931W        W59246  19.833  10.188   1.433
86932W        W59247   9.819  12.261  14.965
86933W        W59248  15.367  11.708   2.874
86934W        W59249   9.817  20.574   2.779
86935W        W59250  31.459  22.859  12.570
86936W        W59251  32.508  19.218  10.908
86937W        W59252   3.699  10.637  12.685
86938W        W59253  44.215   6.668  11.128
86939W        W59254  41.485  19.346  13.108
86940W        W59255  14.743  10.560   3.733
86941W        W59256   4.786  23.612  12.342
86942W        W59257  43.441  16.120   2.196
86943W        W59258   8.178  25.162  11.457
86944W        W59259  19.038  23.470  11.214
86945W        W59260  35.470  41.801   4.335
86946W        W59261  38.313  27.137  11.563
86947W        W59262   9.653  18.628   0.699
86948W        W59263  26.941  10.885   3.414
86949W        W59264  24.679  40.857   1.336
86950W        W59265  14.690  31.011   1.387
86951W        W59266   1.259  23.786  13.035
86952W        W59267  34.493   2.762   0.879
86953W        W59268  27.157  22.555   1.856
86954W        W59269  32.288   5.907  10.253
86955W        W59270   6.843  41.076   0.255
86956W        W59271  13.870  15.474  12.601
86957W        W59272  23.915  15.728  11.968
86958W        W59273  31.947  20.816   2.679
86959W        W59274  22.131  20.461   3.522
86960W        W59275  27.390  36.013  13.505
86961W        W59276  11.185   3.806  10.453
86962W        W59277   6.124  17.319  11.582
86963W        W59278  36.463  42.408   0.628
86964W        W59279  11.848  16.339  14.041
86965W        W59280  31.144  23.290  13.332
86966W        W59281   7.923  17.738   4.222
86967W        W59282  20.813  35.111   4.465
86968W        W59283  22.984   8.810   0.380
86969W        W59284  15.740   4.311   2.397
86970W        W59285  42.811  28.817   1.591
86971W        W59286  29.644  24.546   0.573
86972W        W59287   5.630   9.670  12.668
86973W        W59288   6.486  32.416  14.478
86974W        W59289  13.190  12.702   4.556
86975W        W59290  32.386  10.272  12.213
86976W        W59291  19.013  33.904  13.008
86977W        W59292  16.048  24.560  11.212
86978W        W59293  24.621  14.244   0.750
86979W        W59294  15.124  11.246  12.501
86980W        W59295  39.004  27.505   1.173
86981W        W59296  18.110  20.021   4.632
86982W        W59297   9.614  40.447  13.520
86983W        W59298   0.237  23.834  12.603
86984W        W59299  31.885  23.940  13.960
86985W        W59300  29.042  37.066   4.594
86986W        W59301  36.544  35.135   2.660
86987W        W59302  16.063  32.522  13.291
86988W        W59303  11.654  14.470   1.233
86989W        W59304  24.679  42.436  11.276
86990W        W59305  40.896  19.667   0.915
86991W        W59306  38.675  35.375  12.352
86992W        W59307   1.489  29.917   3.637
86993W        W59308  11.376  42.354  11.058
86994W        W59309  27.088  24.083   3.461
86995W        W59310  36.291   2.399   4.627
86996W        W59311   5.263  40.386   1.531
86997W        W59312  35.464   9.866  13.996
86998W        W59313  13.114  15.244  10.616
86999W        W59314  43.991   9.723  10.476
87000W        W59315  12.694  44.821   3.654
87001W        W59316  29.902   6.268  14.912
87002W        W59317  15.629  43.885   5.132
87003W        W59318  38.865  19.739  12.431
87004W        W59319  13.518   0.258   0.279
87005W        W59320  44.904  33.930  12.986
87006W        W59321   0.258  22.238   0.402
87007W        W59322  38.681  14.415   4.320
87008W        W59323  25.965  12.081   4.496
87009W        W59324   8.964  23.232  13.076
87010W        W59325  33.972   9.458   3.170
87011W        W59326  19.550  22.518  12.984
87012W        W59327  13.179  26.435  12.907
87013W        W59328  21.047   6.709   3.443
87014W        W59329  16.763  18.172  14.882
87015W        W59330  29.735  29.527  12.641
87016W        W59331  17.676  10.305  14.262
87017W        W59332  37.708  26.130  14.119
87018W        W59333   3.315  17.706   4.076
87019W        W59334  16.631   7.692   4.561
87020W        W59335   8.220  19.550   0.249
87021W        W59336  18.559  24.217   1.848
87022W        W59337  43.588  20.041   2.582
87023W        W59338   1.558  14.466   0.863
87024W        W59339  12.737  21.452   1.186
87025W        W59340  21.759   5.488   1.694
87026W        W59341  19.604  13.853  12.948
87027W        W59342  26.953   6.928   4.152
87028W        W59343   2.209   6.569   1.231
87029W        W59344  33.963   6.879  11.085
87030W        W59345   0.485  13.795  11.390
87031W        W59346  27.383  30.973  13.946
87032W        W59347  35.093  12.422   3.630
87033W        W59348   4.744  27.395  10.577
87034W        W59349   6.156  41.938   3.035
87035W        W59350  26.439  28.369   2.046
87036W        W59351  42.512  15.322  14.648
87037W        W59352  42.572   3.298   1.696
87038W        W59353  25.428  13.841  13.055
87039W        W59354  38.720  12.543  11.171
87040W        W59355   2.760  36.225   1.657
87041W        W59356  35.865  21.294   2.805
87042W        W59357  31.306  42.908  11.147
87043W        W59358  13.233  12.345   3.248
87044W        W59359  21.272  24.619  14.929
87045W        W59360  38.810  12.863   4.141
87046W        W59361  37.775  23.605   2.711
87047W        W59362   0.340  37.787   4.557
87048W        W59363  26.093  40.461  14.787
87049W        W59364  16.719  13.340  10.996
87050W        W59365  39.933  16.004   2.058
87051W        W59366  24.578  41.044   4.571
87052W        W59367  29.028  41.447   4.404
87053W        W59368  27.927   4.816  12.447
87054W        W59369  11.394   2.638   0.402
87055W        W59370  43.074  21.567   2.131
87056W        W59371  34.717  39.436   1.428
87057W        W59372  15.745   4.181   1.743
87058W        W59373  36.090  31.533  14.493
87059W        W59374  33.347  30.135  13.932
87060W        W59375  38.118  34.344  11.013
87061W        W59376  43.777   4.311  14.895
87062W        W59377   4.230  12.118  13.617
87063W        W59378  10.321   3.938   4.202
87064W        W59379  36.588  40.360  13.078
87065W        W59380  41.761   2.894   2.737
87066W        W59381  37.567  34.612  10.411
87067W        W59382  21.420  32.393  11.579
87068W        W59383  38.419  17.718   3.416
87069W        W59384  12.287  29.046   1.070
87070W        W59385  12.566  18.183  10.629
87071W        W59386  21.476  31.104  11.159
87072W        W59387   3.819  17.631  12.994
87073W        W59388  20.742  32.275   2.220
87074W        W59389  21.276  20.844   2.265
87075W        W59390  31.077  41.135  10.850
87076W        W59391  22.051  15.689  11.597
87077W        W59392  18.275   7.796   0.557
87078W        W59393  20.008  39.011  11.783
87079W        W59394  17.284  24.465  11.424
87080W        W59395   8.582   8.865   2.121
87081W        W59396   9.438  31.140   3.678
87082W        W59397   8.722   6.848   2.662
87083W        W59398   7.311  14.946   4.613
87084W        W59399  32.651  32.924   3.088
87085W        W59400  35.420  31.876   4.850
87086W        W59401   8.476  35.122  13.372
87087W        W59402  43.209  23.025  11.921
87088W        W59403  36.559  20.655  14.897
87089W        W59404   4.125  15.910  12.514
87090W        W59405   7.035  26.678  12.100
87091W        W59406  19.607  25.705  10.636
87092W        W59407  41.200   5.276   3.584
87093W        W59408  11.208  36.380  12.632
87094W        W59409  42.562  40.047   1.426
87095W        W59410   0.470  11.875   4.127
87096W        W59411  21.214  32.445  14.408
87097W        W59412  10.739  35.959  14.254
87098W        W59413  10.177   3.728  10.622
87099W        W59414  31.246  34.390  11.806
87100W        W59415  10.940   0.488   3.562
87101W        W59416  10.914  34.976   2.553
87102W        W59417   5.908  35.048   3.453
87103W        W59418  39.078  22.265  10.419
87104W        W59419  28.499  36.905  11.996
87105W        W59420   6.227  28.939  13.154
87106W        W59421  43.221   1.280  12.365
87107W        W59422  10.224  31.195   4.484
87108W        W59423  44.321   2.270   3.872
87109W        W59424  21.184   1.295  13.307
87110W        W59425  24.847  24.384  14.030
87111W        W59426  24.197   7.446   2.165
87112W        W59427  24.060  28.151   3.339
87113W        W59428  16.369  20.117  11.183
87114W        W59429  41.354  17.726  12.814
87115W        W59430  35.977   8.814  14.402
87116W        W59431  15.163   6.755  10.633
87117W        W59432  18.720  31.590  11.530
87118W        W59433   8.803  28.965   3.607
87119W        W59434  15.071  37.816  13.812
87120W        W59435  22.484  20.632  11.832
87121W        W59436  31.129  32.609   0.797
87122W        W59437  26.768  29.639  11.713
87123W        W59438  37.526  36.449  14.884
87124W        W59439  30.130  24.093   1.252
87125W        W59440   8.786  32.465  13.429
87126W        W59441   9.634   6.902  10.642
87127W        W59442  25.647  13.845   4.791
87128W        W59443  37.267   1.153   4.752
87129W        W59444  10.666  32.478  12.091
87130W        W59445  24.556  36.557  10.833
87131W        W59446  39.045  19.925   4.435
87132W        W59447  40.033  38.559  14.556
87133W        W59448   1.282  37.873  11.930
87134W        W59449  44.873  19.216  13.540
87135W        W59450   6.308  27.993   2.832
87136W        W59451   7.728  21.761  12.104
87137W        W59452  27.088  16.079  10.775
87138W        W59453  19.119  44.486   1.780
87139W        W59454  17.196  21.595  11.002
87140W        W59455   9.352  42.277  12.594
87141W        W59456  15.889  28.449  12.977
87142W        W59457  40.186   8.605   1.761
87143W        W59458  38.510   7.612   3.725
87144W        W59459  37.806   7.891  11.015
87145W        W59460   7.486   1.889   2.723
87146W        W59461   1.715  26.436   3.201
87147W        W59462  26.998  22.718  13.550
87148W        W59463  31.986   0.479   2.878
87149W        W59464  10.923  43.353  14.838
87150W        W59465   9.224  15.188   4.262
87151W        W59466  29.942  25.477  10.727
87152W        W59467  25.018  11.700   2.831
87153W        W59468  18.723  10.664  13.873
87154W        W59469  21.186  34.977  11.859
87155W        W59470  28.687   6.881   1.515
87156W        W59471  21.595  27.137  13.216
87157W        W59472   9.910  20.199  13.102
87158W        W59473  17.582   7.329   1.911
87159W        W59474  27.674  27.688   2.215
87160W        W59475  42.218  31.007  12.951
87161W        W59476  36.515  28.225   1.405
87162W        W59477  17.797  32.631  10.683
87163W        W59478   1.652   4.558  14.289
87164W        W59479  43.457  11.401  14.952
87165W        W59480  17.778  15.006  13.819
87166W        W59481  19.880  42.986  11.459
87167W        W59482  34.102   1.434   2.807
87168W        W59483  31.573  16.780  12.533
87169W        W59484  15.878  43.807   2.034
87170W        W59485   4.296  33.437  14.763
87171W        W59486  20.805  27.982  10.695
87172W        W59487  35.634  25.987   4.114
87173W        W59488  43.752  35.637  11.293
87174W        W59489  41.976  19.190  12.424
87175W        W59490  21.547  18.715   2.835
87176W        W59491   6.772  11.105  12.754
87177W        W59492  18.610  29.949   2.393
87178W        W59493  32.305  33.035  11.102
87179W        W59494  16.359  38.049   4.756
87180W        W59495  15.552  34.478   0.771
87181W        W59496   4.712   1.264   3.310
87182W        W59497   6.839  14.228  11.663
87183W        W59498  31.516  40.494   3.390
87184W        W59499  22.985   9.366   3.355
87185W        W59500  17.682  19.549   2.720
87186W        W59501  23.750  43.813  14.723
87187W        W59502   1.798   5.396  10.516
87188W        W59503  24.544  35.050   4.196
87189W        W59504  28.485  32.334   5.108
87190W        W59505  14.303  37.353  14.028
87191W        W59506  25.775  20.170  12.740
87192W        W59507  11.368  17.394  10.800
87193W        W59508  34.284  32.902  13.373
87194W        W59509  35.084  42.838   2.233
87195W        W59510   9.183   6.724   2.877
87196W        W59511  19.472  20.021   1.408
87197W        W59512  20.021  21.196  14.715
87198W        W59513  33.288  28.651  11.123
87199W        W59514  14.344  22.695  12.428
87200W        W59515  38.529   3.466  14.405
87201W        W59516  34.399  26.675   3.205
87202W        W59517   8.661  15.843  14.854
87203W        W59518  23.067   2.180   2.722
87204W        W59519   3.502   6.818  13.049
87205W        W59520  30.239  26.005  10.669
87206W        W59521   3.407  25.911   1.747
87207W        W59522  43.875  22.150  14.558
87208W        W59523  26.247  39.272   2.840
87209W        W59524  25.586  31.992  14.020
87210W        W59525  11.803  22.104   4.363
87211W        W59526  31.505   6.199  13.097
87212W        W59527  28.899  10.644  11.141
87213W        W59528   6.314  16.427   1.778
87214W        W59529  24.482  29.608  11.208
87215W        W59530  25.076  28.230   4.034
87216W        W59531  26.030  17.045  14.891
87217W        W59532   4.862  22.157  14.085
87218W        W59533  22.726  19.494  11.905
87219W        W59534  24.435   5.114  13.178
87220W        W59535  40.846  23.928  14.193
87221W        W59536  25.499  31.504  12.868
87222W        W59537  43.804  19.650  11.956
87223W        W59538  34.087  28.156  13.773
87224W        W59539  40.213  16.002   3.954
87225W        W59540  22.782   1.975  14.413
87226W        W59541  16.646  10.143  10.185
87227W        W59542   3.307  36.928  14.305
87228W        W59543  30.570   3.204  14.003
87229W        W59544   9.261  27.208   0.356
87230W        W59545   8.258  13.537   1.209
87231W        W59546  26.126  11.214  11.634
87232W        W59547   7.948   9.782   3.199
87233W        W59548   4.620  32.130  11.302
87234W        W59549  41.063   7.327  13.311
87235W        W59550   7.789   4.987  12.210
87236W        W59551   2.911  28.831  12.538
87237W        W59552   5.160   1.294  14.163
87238W        W59553   5.941  38.932   2.634
87239W        W59554  11.837  18.019   0.282
87240W        W59555  11.637  12.778   5.177
87241W        W59556   5.969  27.885  11.072
87242W        W59557  18.947  31.125  13.814
87243W        W59558  13.579  39.851  10.642
87244W        W59559  12.318   6.309   4.260
87245W        W59560   0.158  12.170  14.490
87246W        W59561  44.573   8.716  11.941
87247W        W59562  35.975  16.526  13.057
87248W        W59563  24.288  11.077   2.270
87249W        W59564   3.897  42.702  11.145
87250W        W59565  27.217  16.619  11.992
87251W        W59566  42.529  17.301  14.980
87252W        W59567  28.426  11.740  13.019
87253W        W59568  23.514  31.512   4.530
87254W        W59569  13.676  43.907  14.121
87255W        W59570  21.625  40.220  10.321
87256W        W59571  40.541   4.719  14.282
87257W        W59572  13.723   8.887  11.430
87258W        W59573  42.136  30.441  11.613
87259W        W59574  17.896  40.361  10.697
87260W        W59575  25.605  11.142  11.537
87261W        W59576  21.161   2.816  10.300
87262W        W59577  14.675   6.244  11.949
87263W        W59578  14.259  43.400  14.398
87264W        W59579  10.909   3.874   2.713
87265W        W59580  33.518  42.980  13.505
87266W        W59581  32.542  18.735  10.684
87267W        W59582  29.735  13.099   1.921
87268W        W59583  20.183  15.171   0.445
87269W        W59584  40.313  13.786   2.611
87270W        W59585   7.806  15.264  14.997
87271W        W59586  37.009  21.045  12.820
87272W        W59587  12.101  44.325  13.227
87273W        W59588  31.592  19.775  10.750
87274W        W59589  16.268  28.683  14.347
87275W        W59590  16.185   0.264   4.036
87276W        W59591  22.200  42.970  11.558
87277W        W59592  30.366  44.899   3.211
87278W        W59593  18.087  20.128  12.328
87279W        W59594   8.142   6.234  10.451
87280W        W59595  20.572  16.827   0.672
87281W        W59596  29.888  37.290   4.403
87282W        W59597  44.927  30.595   4.153
87283W        W59598   6.767  18.040  11.766
87284W        W59599  42.515  41.460   0.277
87285W        W59600  38.037   6.509  14.536
87286W        W59601  27.555  12.460   4.922
87287W        W59602   7.252  32.837   1.897
87288W        W59603  31.717  31.391   0.788
87289W        W59604  18.611  28.736   9.799
87290W        W59605  14.263   5.583  13.027
87291W        W59606  24.304  13.727   1.390
87292W        W59607  40.854  25.343   1.509
87293W        W59608  36.926  39.500  11.473
87294W        W59609   0.442  11.382  11.111
87295W        W59610  31.151  27.966   2.705
87296W        W59611   1.556  13.165  14.737
87297W        W59612   4.446  39.824  11.116
87298W        W59613  18.704  41.898   2.173
87299W        W59614  30.894  37.302   2.766
87300W        W59615   6.912  11.566  10.674
87301W        W59616  18.188  35.395  12.993
87302W        W59617  34.613  27.642   1.745
87303W        W59618  44.909  44.431   1.741
87304W        W59619  44.821  43.535  11.892
87305W        W59620   6.759   3.064  12.481
87306W        W59621  30.655  20.258  14.220
87307W        W59622  29.434  31.862  10.613
87308W        W59623   0.211  41.922   2.791
87309W        W59624  19.314  43.075   4.582
87310W        W59625  38.081  28.214  12.442
87311W        W59626  17.253  30.313  14.230
87312W        W59627  36.001  33.363  13.021
87313W        W59628   1.543   1.481  12.013
87314W        W59629  17.760  13.254   1.026
87315W        W59630  24.128  37.400  11.335
87316W        W59631  27.188  20.281  12.958
87317W        W59632  32.301  29.794   0.963
87318W        W59633  35.848  34.205   0.721
87319W        W59634  39.542  27.491   4.178
87320W        W59635  21.239  29.010  11.986
87321W        W59636  36.777  41.553   1.371
87322W        W59637  30.553  44.711   2.737
87323W        W59638  25.074   8.216   3.398
87324W        W59639  15.030  11.231   1.795
87325W        W59640  31.845   3.599  13.489
87326W        W59641  35.341  26.073  13.299
87327W        W59642   0.529   6.178  12.032
87328W        W59643  29.665   6.407   0.715
87329W        W59644   9.358  32.704  14.843
87330W        W59645  28.052  20.676  13.478
87331W        W59646  34.863   5.884   1.866
87332W        W59647   8.988  37.675  11.573
87333W        W59648  37.512  23.059  11.464
87334W        W59649   0.253  21.310  12.963
87335W        W59650  12.193   2.814  10.915
87336W        W59651  22.612  10.895   2.734
87337W        W59652   2.108   4.789  11.201
87338W        W59653   5.707  10.791   4.476
87339W        W59654  39.309  13.312   0.822
87340W        W59655  17.483   0.019  14.437
87341W        W59656  24.144  29.662   4.566
87342W        W59657  39.878  34.933   3.628
87343W        W59658  33.004  17.660  11.609
87344W        W59659  36.832  33.465   4.560
87345W        W59660  14.140  13.692  13.377
87346W        W59661  38.928  37.507   2.260
87347W        W59662  35.381  40.541   1.316
87348W        W59663  30.894  28.741   1.308
87349W        W59664  10.332   9.741  12.061
87350W        W59665  13.671  23.529   3.321
87351W        W59666  10.183  40.453  14.427
87352W        W59667  13.558  16.224   1.655
87353W        W59668  22.595  39.321  10.651
87354W        W59669  44.345  42.944  12.952
87355W        W59670   2.537  35.075  14.813
87356W        W59671   4.768   9.777   0.137
87357W        W59672  31.165  29.829   4.014
87358W        W59673  10.437  37.340  14.356
87359W        W59674   0.376  31.391   3.978
87360W        W59675   4.762   2.389   1.138
87361W        W59676  39.098  26.493   3.376
87362W        W59677  27.617  11.601  14.884
87363W        W59678  38.526  21.502   2.577
87364W        W59679  23.996  20.693  11.554
87365W        W59680  43.041   9.655   3.598
87366W        W59681   6.350   4.212  10.351
87367W        W59682  35.460  44.468   0.414
87368W        W59683   8.117  26.414   4.340
87369W        W59684  16.105  16.150  12.411
87370W        W59685  33.045   0.537  14.484
87371W        W59686   9.742  18.339  12.566
87372W        W59687   7.786  38.964  11.533
87373W        W59688   0.949   8.419  14.350
87374W        W59689   7.618  33.976   4.369
87375W        W59690  17.665  44.195   1.670
87376W        W59691   0.961  38.857  11.232
87377W        W59692   7.694  39.152   0.552
87378W        W59693  39.444  39.917  12.518
87379W        W59694   7.311  12.639   4.350
87380W        W59695   7.233  11.134  11.498
87381W        W59696  19.577  39.013  10.629
87382W        W59697   5.980  21.283  13.788
87383W        W59698  40.997  16.933  12.907
87384W        W59699  34.416  30.004   3.641
87385W        W59700  38.486  43.065   4.118
87386W        W59701  18.417  18.665   3.305
87387W        W59702  43.370  15.285  13.890
87388W        W59703  17.757  36.836   3.220
87389W        W59704  25.455  40.175   0.760
87390W        W59705  44.847  43.251   2.645
87391W        W59706  20.812  36.204  13.862
87392W        W59707   8.259  35.825  11.085
87393W        W59708   8.989  13.104  11.063
87394W        W59709  12.817  10.361   4.533
87395W        W59710  11.730  27.754  10.921
87396W        W59711  32.772  44.092   3.435
87397W        W59712  35.465   1.541  14.544
87398W        W59713  37.018  23.917  11.814
87399W        W59714   8.478   8.359   1.684
87400W        W59715   5.800  30.417   1.261
87401W        W59716   1.062   5.150  13.952
87402W        W59717   2.161  28.634   2.269
87403W        W59718  28.195  43.470  10.654
87404W        W59719  20.668   4.431   3.320
87405W        W59720  21.104  43.477  14.088
87406W        W59721  41.212   6.439  14.500
87407W        W59722  20.064  18.406  11.124
87408W        W59723  11.611  16.592  12.129
87409W        W59724   2.257  35.389  14.519
87410W        W59725   8.804  42.104   0.504
87411W        W59726  11.554  25.693  10.633
87412W        W59727  10.183  13.329   1.171
87413W        W59728  11.221   1.663   2.876
87414W        W59729  18.437  15.990  11.584
87415W        W59730  16.048   8.686  13.367
87416W        W59731  37.063  22.086   0.435
87417W        W59732   8.086   8.645   3.850
87418W        W59733  33.096  33.143  12.134
87419W        W59734   0.624  44.402   3.543
87420W        W59735  42.676  16.584  12.220
87421W        W59736  36.049  11.341   1.346
87422W        W59737   9.387   1.998  13.611
87423W        W59738   3.822   4.712   1.356
87424W        W59739  13.489  44.797  13.008
87425W        W59740  25.240  12.095   0.001
87426W        W59741  12.583   3.934   3.419
87427W        W59742  12.179  10.178   1.254
87428W        W59743   3.963  37.030   3.655
87429W        W59744  12.724  35.948   3.312
87430W        W59745  13.049  23.005   1.579
87431W        W59746  14.846  13.282  13.731
87432W        W59747  24.637  41.869   1.074
87433W        W59748  27.159   6.442  14.355
87434W        W59749  29.215  17.636  14.791
87435W        W59750  12.100   6.263  14.988
87436W        W59751  29.911  36.521   3.871
87437W        W59752   0.371  14.112   1.135
87438W        W59753  41.439  40.863  13.876
87439W        W59754  28.483  33.558  14.965
87440W        W59755  43.932   4.707  12.001
87441W        W59756  24.969  29.296   0.673
87442W        W59757  32.036   8.647  13.981
87443W        W59758   5.344  29.694  10.711
87444W        W59759  38.600   5.361  12.527
87445W        W59760  41.301  42.894  10.731
87446W        W59761  27.245   2.463   0.526
87447W        W59762  24.621  28.354   4.673
87448W        W59763  18.085  18.261   3.209
87449W        W59764  37.474  34.768   5.015
87450W        W59765  35.057  14.407  14.947
87451W        W59766  40.348  34.486  13.082
87452W        W59767  31.809  35.405   1.786
87453W        W59768   1.442  13.518  11.564
87454W        W59769   0.270  33.420   3.919
87455W        W59770   6.314  24.428  12.572
87456W        W59771  21.090  30.471  11.580
87457W        W59772  44.818  36.798  14.584
87458W        W59773   5.729  10.744   3.965
87459W        W59774  35.346  23.613  13.079
87460W        W59775  26.959   1.099   4.180
87461W        W59776  28.139   3.760   3.572
87462W        W59777  15.339  16.324  12.919
87463W        W59778  15.841  20.509  12.452
87464W        W59779  34.234   3.425   4.161
87465W        W59780  18.118  19.085   1.627
87466W        W59781   7.849  18.673  14.453
87467W        W59782   0.119  22.954  13.872
87468W        W59783   2.423  18.610   1.294
87469W        W59784  17.272  32.636  10.635
87470W        W59785  40.387  40.156   3.270
87471W        W59786  13.743  24.020   0.899
87472W        W59787  24.298  37.448  14.773
87473W        W59788  39.608   0.681  13.546
87474W        W59789  19.161  15.063  12.923
87475W        W59790   7.185   8.725   1.956
87476W        W59791  24.554  23.528  12.903
87477W        W59792   4.348  14.905   0.867
87478W        W59793   9.137  21.576  10.962
87479W        W59794   6.348   9.067  14.493
87480W        W59795   3.482  14.389   0.904
87481W        W59796  28.493  36.787  14.182
87482W        W59797   8.000  20.327  10.684
87483W        W59798  14.347  33.477  12.878
87484W        W59799  22.112  11.899  14.997
87485W        W59800   4.156  43.821  10.664
87486W        W59801  40.826  44.299  13.112
87487W        W59802  35.064  22.904   3.999
87488W        W59803   6.136   5.885  13.880
87489W        W59804  20.743   4.794  12.961
87490W        W59805  43.698  12.709  13.963
87491W        W59806  38.419   8.822  12.842
87492W        W59807  26.900  18.185  14.438
87493W        W59808  18.826  27.167   3.642
87494W        W59809  38.110  25.696   5.124
87495W        W59810  19.819  42.456   2.408
87496W        W59811  35.062  36.875  12.838
87497W        W59812  28.113  38.487   4.540
87498W        W59813   4.277  15.327  14.234
87499W        W59814   0.530  39.538  11.974
87500W        W59815  39.953  13.445  13.591
87501W        W59816  17.651  18.390  10.673
87502W        W59817  15.064  10.479  10.657
87503W        W59818  29.260   8.106   2.805
87504W        W59819  40.848   0.008  13.357
87505W        W59820   2.558  33.257   4.177
87506W        W59821   4.051  33.854  13.892
87507W        W59822  26.272  16.941   0.743
87508W        W59823  16.697  31.654   2.328
87509W        W59824  39.383  35.546  10.637
87510W        W59825  33.659   5.770  13.403
87511W        W59826  15.034  21.399   2.714
87512W        W59827  10.138   1.466   0.389
87513W        W59828  34.502  12.663  13.334
87514W        W59829  34.998  30.609  14.340
87515W        W59830  37.381  24.001  12.516
87516W        W59831  20.669  24.753  11.149
87517W        W59832  43.276  35.987  12.613
87518W        W59833  23.101  29.101  13.755
87519W        W59834  39.517  40.347   3.279
87520W        W59835  15.416  23.219   3.178
87521W        W59836  34.324  32.554  11.939
87522W        W59837  13.767  18.021   1.834
87523W        W59838   3.508  27.461   3.686
87524W        W59839   9.857  39.099  14.520
87525W        W59840  18.565   0.776  12.712
87526W        W59841   0.343  31.210   0.449
87527W        W59842   5.208  40.952  11.224
87528W        W59843  40.137  25.681   2.916
87529W        W59844  27.619  29.635  14.476
87530W        W59845  18.347  29.628   3.337
87531W        W59846  30.990  34.002   4.491
87532W        W59847  36.007  34.588  10.683
87533W        W59848   6.211  12.641  12.011
87534W        W59849  44.356   5.588  12.582
87535W        W59850  11.409  16.015   2.107
87536W        W59851   2.767   2.203   1.399
87537W        W59852   8.387   6.054   5.046
87538W        W59853   5.516  14.142   2.849
87539W        W59854   3.854   4.892   4.649
87540W        W59855  21.497  19.769  13.093
87541W        W59856  25.127  16.327   2.241
87542W        W59857   3.870  17.095  12.103
87543W        W59858   7.815   8.979   0.891
87544W        W59859  21.751   6.897  13.074
87545W        W59860  18.520  29.700   2.839
87546W        W59861  43.860  37.597  10.614
87547W        W59862  40.877   6.677   4.028
87548W        W59863   9.680   7.956  12.332
87549W        W59864  28.438  28.802   2.019
87550W        W59865  22.936  35.740  13.563
87551W        W59866  38.033  28.793  14.371
87552W        W59867  11.448  15.934   3.611
87553W        W59868  42.811  39.877   0.068
87554W        W59869  10.663  41.519   4.047
87555W        W59870  24.453  26.039   4.627
87556W        W59871  35.827   3.337  13.428
87557W        W59872   5.870   8.838  12.993
87558W        W59873  13.161  35.461   0.856
87559W        W59874  44.907  20.762  12.187
87560W        W59875  19.548  26.221  10.719
87561W        W59876  23.523  15.144  14.689
87562W        W59877  29.055  32.438  12.795
87563W        W59878  11.269  43.493   3.726
87564W        W59879  14.153  36.074  13.640
87565W        W59880  25.829  32.548  10.614
87566W        W59881  21.984  37.798  11.464
87567W        W59882  35.694  44.790   3.598
87568W        W59883  40.329  33.583   2.659
87569W        W59884  42.845  25.723   2.486
87570W        W59885  22.567  35.651   2.263
87571W        W59886   3.355  34.220   1.774
87572W        W59887  19.666  23.940  11.193
87573W        W59888  31.368  34.606  14.386
87574W        W59889   7.884  29.493  13.161
87575W        W59890  40.295  36.959  13.374
87576W        W59891   5.026   5.976   1.970
87577W        W59892  32.919  11.106   3.280
87578W        W59893  43.287  23.572  12.676
87579W        W59894  32.097  40.427  12.030
87580W        W59895  40.492  24.623   2.772
87581W        W59896   7.940  17.758   3.158
87582W        W59897  10.793  36.082  10.998
87583W        W59898   9.644  15.094   0.963
87584W        W59899  39.467   8.128  12.093
87585W        W59900  33.870  23.404  11.195
87586W        W59901  33.949   5.444   0.777
87587W        W59902   5.133  25.025  11.130
87588W        W59903   4.271  37.338  13.331
87589W        W59904  23.008  18.702  10.551
87590W        W59905  27.038   9.962   2.333
87591W        W59906  30.650  14.524   5.011
87592W        W59907   7.926  28.660  11.420
87593W        W59908  42.613   1.457   0.305
87594W        W59909   6.696   6.794   3.299
87595W        W59910  19.207  23.276   1.340
87596W        W59911   9.780   2.185  13.921
87597W        W59912  33.490  19.315   3.151
87598W        W59913  28.542   9.796  14.878
87599W        W59914   1.720  16.156   2.798
87600W        W59915  14.052  27.012   0.385
87601W        W59916  23.588  35.019  14.082
87602W        W59917  11.891  43.651  14.841
87603W        W59918  33.794  22.632   3.262
87604W        W59919   6.894  42.819   0.260
87605W        W59920  31.301  35.452   1.781
87606W        W59921  21.751  31.845   4.655
87607W        W59922  23.425  16.088   0.772
87608W        W59923  33.494  34.421  11.949
87609W        W59924  17.968  11.957   5.090
87610W        W59925   2.221  17.401   4.821
87611W        W59926  10.272  36.394   2.659
87612W        W59927  44.942  21.414   1.561
87613W        W59928  20.763  13.374   0.649
87614W        W59929   1.945   5.774  14.897
87615W        W59930  23.736  23.716   2.413
87616W        W59931  22.019   2.862   2.233
87617W        W59932  15.756  10.893   0.485
87618W        W59933  30.977  16.777   1.373
87619W        W59934  18.466  17.233   4.964
87620W        W59935   1.439  29.043   3.553
87621W        W59936  39.621   8.370  14.432
87622W        W59937   6.898  11.171   3.875
87623W        W59938  12.863   8.186   3.214
87624W        W59939  19.207  23.481  13.842
87625W        W59940  40.216  27.564  11.702
87626W        W59941  39.617  13.152  10.740
87627W        W59942  33.545  17.549  13.416
87628W        W59943  18.323  34.549  10.708
87629W        W59944  39.270   1.850   0.489
87630W        W59945  29.216  30.238   1.223
87631W        W59946  37.910  32.421  14.613
87632W        W59947  33.296  29.619  14.847
87633W        W59948  34.081  31.358  14.921
87634W        W59949  37.615   9.552   3.306
87635W        W59950  21.782  33.876  13.282
87636W        W59951   1.170  21.805   1.721
87637W        W59952   7.732  24.969  13.812
87638W        W59953  15.655  15.123   3.665
87639W        W59954  20.744   1.250   2.497
87640W        W59955  17.967  35.645   2.835
87641W        W59956  44.223  42.178   4.547
87642W        W59957  13.627  37.672   1.402
87643W        W59958  39.312  43.397   4.429
87644W        W59959  32.965  26.035  14.903
87645W        W59960   2.653   5.363  13.492
87646W        W59961   2.804  40.108   3.622
87647W        W59962  42.746  38.368   3.670
87648W        W59963  34.797  14.530  12.492
87649W        W59964   6.612  23.610   1.788
87650W        W59965   6.256  42.182   5.055
87651W        W59966  40.285  12.912  14.378
87652W        W59967  21.241  15.338  14.763
87653W        W59968   1.452  28.397   2.851
87654W        W59969  38.099  44.206   0.262
87655W        W59970  44.245   9.710  13.958
87656W        W59971  13.672  35.919   3.604
87657W        W59972  36.051  39.018  11.465
87658W        W59973  13.700  37.951  14.883
87659W        W59974  11.862  28.580  11.458
87660W        W59975   2.851  10.833  11.390
87661W        W59976  16.282   2.756  12.872
87662W        W59977  31.683  32.509   1.741
87663W        W59978  29.057  29.514  13.356
87664W        W59979  11.348  21.265   0.343
87665W        W59980  34.924  40.913  12.802
87666W        W59981  18.561  25.541   3.147
87667W        W59982  16.587  26.226   3.802
87668W        W59983  43.345   2.762  14.397
87669W        W59984  13.491  21.784   4.813
87670W        W59985  28.503  41.354  12.198
87671W        W59986  42.842  41.820   3.333
87672W        W59987  27.768  36.052   0.680
87673W        W59988  33.761  25.906   0.363
87674W        W59989  31.133   5.223   0.278
87675W        W59990  23.669  38.574  11.616
87676W        W59991  32.049  18.185   2.197
87677W        W59992  28.360  11.113   3.688
87678W        W59993  15.565  43.725  11.071
87679W        W59994   7.314   5.910   4.718
87680W        W59995  44.257  38.124  13.140
87681W        W59996  42.057  23.150  14.854
87682W        W59997  39.066  26.505   4.266
87683W        W59998  44.282  14.686  11.978
87684W        W59999   1.173  40.391  12.556
87685W        W60000   9.902  39.280   1.407
87686W        W60001   2.278  18.314   4.618
87687W        W60002  36.016   1.670  11.816
87688W        W60003   3.675  21.278  14.987
87689W        W60004   6.265  36.082   0.020
87690W        W60005  30.573  13.035   2.667
87691W        W60006  18.808  23.364   0.011
87692W        W60007  42.190  20.588  12.244
87693W        W60008  10.668  21.350  14.656
87694W        W60009  10.471  21.401   2.408
87695W        W60010  23.622  34.003   1.218
87696W        W60011  19.424  23.228   0.747
87697W        W60012   3.925  37.036  10.709
87698W        W60013  30.114  21.772   0.527
87699W        W60014   0.401  39.689   0.736
87700W        W60015  21.250  27.624  14.265
87701W        W60016   3.318  38.074   2.245
87702W        W60017  39.348   3.732  13.733
87703W        W60018   6.685  32.915  14.391
87704W        W60019   5.826  15.591  10.966
87705W        W60020  16.234  41.896  13.383
87706W        W60021  26.492  34.960  11.982
87707W        W60022  40.659  30.205  13.815
87708W        W60023  37.561  35.481  10.612
87709W        W60024   6.689  42.877   0.743
87710W        W60025  41.940  20.712   3.852
87711W        W60026  21.498  39.204   9.856
87712W        W60027  15.368   9.594   1.338
87713W        W60028  10.344  32.191  11.676
87714W        W60029  11.289  30.344   4.780
87715W        W60030  44.769  41.515   1.802
87716W        W60031  39.116  28.124  11.140
87717W        W60032  15.056  13.106   2.347
87718W        W60033   5.309  40.768   3.895
87719W        W60034   3.644   2.498   4.214
87720W        W60035  40.333  30.672  10.829
87721W        W60036  11.896  31.532   0.284
87722W        W60037  12.174   1.279  13.561
87723W        W60038  25.692  19.691  14.481
87724W        W60039  20.547  25.486   0.749
87725W        W60040   3.539  14.574  13.863
87726W        W60041  21.370  26.395  13.379
87727W        W60042   5.351  42.929  12.109
87728W        W60043  35.550  23.563   4.763
87729W        W60044   7.504  20.242   4.191
87730W        W60045  22.712  30.435  10.774
87731W        W60046  36.759  44.759  13.273
87732W        W60047  24.938  13.727   3.218
87733W        W60048   4.232  35.637  14.595
87734W        W60049   6.936  26.208  12.296
87735W        W60050  10.305  17.161  12.702
87736W        W60051  25.390  20.009   5.136
87737W        W60052  40.788  35.394   2.684
87738W        W60053   4.209  15.460  12.816
87739W        W60054  22.958  22.629  14.130
87740W        W60055  14.024   6.875   4.793
87741W        W60056   6.383  26.015   0.623
87742W        W60057   9.423  11.712  12.895
87743W        W60058  13.173  19.426  13.445
87744W        W60059  16.208  25.286   3.674
87745W        W60060   9.169  20.022   4.072
87746W        W60061   5.647  13.263  11.573
87747W        W60062   1.931   9.886  11.482
87748W        W60063  21.947  13.352   1.237
87749W        W60064  40.017  24.531  13.100
87750W        W60065  43.228  23.486  14.040
87751W        W60066  33.514  42.508   1.166
87752W        W60067   6.743  29.748   2.910
87753W        W60068  40.469  21.493  10.575
87754W        W60069  31.669  12.808  14.469
87755W        W60070  35.496  36.855   0.478
87756W        W60071  40.727   1.762  12.854
87757W        W60072  11.739   8.614  14.896
87758W        W60073  26.093  16.602   3.197
87759W        W60074   8.164  30.191   2.229
87760W        W60075  25.963  19.740   2.667
87761W        W60076  29.658  19.345  11.597
87762W        W60077  29.227  29.145   1.580
87763W        W60078  37.786  28.640  14.821
87764W        W60079  15.361  14.151  11.533
87765W        W60080  32.635  36.030  12.473
87766W        W60081  28.272  31.457   5.212
87767W        W60082  43.476  42.159   4.638
87768W        W60083   9.688  39.873   4.162
87769W        W60084  18.939   6.841   4.200
87770W        W60085   4.053  43.746   0.322
87771W        W60086  42.703  26.018  11.200
87772W        W60087  29.222  44.824  13.460
87773W        W60088  17.744  36.596   0.787
87774W        W60089  29.710   3.279   2.262
87775W        W60090  23.636  12.356   1.103
87776W        W60091  40.236  11.088  11.149
87777W        W60092   2.543  32.134   0.422
87778W        W60093  39.946  33.042   3.095
87779W        W60094  11.910  39.014   2.813
87780W        W60095  37.530  40.285  12.800
87781W        W60096   7.333  29.651   5.128
87782W        W60097  23.791  24.258  12.086
87783W        W60098  37.456  22.173   4.276
87784W        W60099  24.586  29.209  12.999
87785W        W60100  38.652   8.758   3.584
87786W        W60101   4.118   9.370   1.311
87787W        W60102  38.394  32.530  14.516
87788W        W60103  19.536  35.576  12.794
87789W        W60104  42.381   9.402  12.224
87790W        W60105   4.824  35.994   1.167
87791W        W60106  22.435   0.929  10.627
87792W        W60107  16.367   3.280  13.770
87793W        W60108  37.846  39.620  11.517
87794W        W60109  22.999  20.785  10.690
87795W        W60110  21.053  25.872  14.521
87796W        W60111  19.623   2.903  12.454
87797W        W60112  39.053  42.329   2.726
87798W        W60113  24.590   8.894   4.897
87799W        W60114   6.344  23.235  13.964
87800W        W60115  42.233  10.198  13.959
87801W        W60116  43.461  39.816   1.226
87802W        W60117  33.443  41.016   2.812
87803W        W60118   2.797  27.478   1.957
87804W        W60119  38.030  42.990  12.152
87805W        W60120  21.649  14.597   4.702
87806W        W60121  22.220  28.367   0.379
87807W        W60122  17.647  21.054  14.652
87808W        W60123  32.597  43.583   1.635
87809W        W60124  31.914  20.779   4.019
87810W        W60125  15.811  27.814   1.433
87811W        W60126   8.796  17.393   1.932
87812W        W60127  30.666  24.013   4.228
87813W        W60128  40.918  43.798  12.006
87814W        W60129  14.781  40.253   0.180
87815W        W60130  20.748  42.876   4.223
87816W        W60131  40.453  20.339   3.744
87817W        W60132  17.361  27.504   4.283
87818W        W60133  25.700  28.975  12.158
87819W        W60134  26.509  26.783  12.990
87820W        W60135  43.318  13.147   1.326
87821W        W60136  35.110  21.003   5.084
87822W        W60137  35.558  14.863   3.740
87823W        W60138   2.826  37.414   9.974
87824W        W60139   2.603   7.096  13.994
87825W        W60140  16.464  25.504   3.212
87826W        W60141   0.823  14.757   1.856
87827W        W60142   3.432  17.734  12.536
87828W        W60143  39.467  16.377  12.595
87829W        W60144  37.885  23.808  12.418
87830W        W60145  20.733  38.328   4.280
87831W        W60146   9.188  32.569  11.715
87832W        W60147  33.791  40.842   4.007
87833W        W60148  44.973  35.897  14.383
87834W        W60149  11.261  26.897   4.327
87835W        W60150   7.506  19.630  10.361
87836W        W60151  30.452  34.998  13.591
87837W        W60152  37.571  14.076  11.677
87838W        W60153  28.145  10.633  11.887
87839W        W60154  31.044  27.818   0.270
87840W        W60155  10.696  29.928   0.912
87841W        W60156   5.651  23.569  10.451
87842W        W60157  41.498  22.720  13.415
87843W        W60158   8.512  15.164   3.699
87844W        W60159  25.178  29.594   1.758
87845W        W60160  39.933  15.507  14.033
87846W        W60161  28.455  22.642   3.807
87847W        W60162   7.275  24.453  14.346
87848W        W60163  38.010  39.460  11.976
87849W        W60164  27.715  12.155   4.522
87850W        W60165   5.730   7.658   2.686
87851W        W60166  17.198  42.452   2.357
87852W        W60167  27.250   0.154  13.451
87853W        W60168  36.910  15.019   4.756
87854W        W60169   4.702  42.041  13.633
87855W        W60170  34.979   9.132   4.254
87856W        W60171  37.376  27.082   3.771
87857W        W60172  21.577  42.177  11.504
87858W        W60173  25.161  21.979  11.475
87859W        W60174  19.577  36.604  11.081
87860W        W60175  13.805  35.334   3.874
87861W        W60176   7.275  15.276   3.186
87862W        W60177   5.149  17.334  14.403
87863W        W60178  40.508  33.986  12.969
87864W        W60179  39.474  18.177   0.413
87865W        W60180  27.081  26.094   0.736
87866W        W60181  33.381  41.993   2.678
87867W        W60182  12.835   1.420  12.927
87868W        W60183   1.002  12.606  14.473
87869W        W60184  42.599   1.301  14.455
87870W        W60185  36.868  44.420   2.733
87871W        W60186   6.738  24.418   1.330
87872W        W60187  39.423   2.904  13.603
87873W        W60188  38.714  24.810   3.357
87874W        W60189   1.739  27.756  11.249
87875W        W60190  23.715  25.140   0.466
87876W        W60191  36.917  38.593  14.073
87877W        W60192   6.536  37.005  12.485
87878W        W60193  21.574   7.680   3.810
87879W        W60194  26.563   3.128   3.430
87880W        W60195  22.233   3.433   3.640
87881W        W60196  21.954   0.341   3.103
87882W        W60197  39.866   2.565  11.533
87883W        W60198  14.765  31.372  10.677
87884W        W60199   2.319  43.944  13.076
87885W        W60200  41.290  19.682   2.222
87886W        W60201  38.476  23.126  13.410
87887W        W60202  38.842   4.200  11.926
87888W        W60203   5.840  16.701   1.874
87889W        W60204  40.877  17.776   4.226
87890W        W60205  14.257  31.650   1.597
87891W        W60206  38.429   2.075   4.617
87892W        W60207  19.769  40.580   2.380
87893W        W60208   1.989  21.091   5.127
87894W        W60209  18.683  31.241   0.284
87895W        W60210  20.748  37.943   4.607
87896W        W60211  20.664   4.268  13.892
87897W        W60212  41.658  44.926  14.024
87898W        W60213  39.793  41.483   3.662
87899W        W60214  14.562   4.426   1.325
87900W        W60215   3.668  22.180   3.295
87901W        W60216  21.234  14.973   4.703
87902W        W60217   9.684  37.588   3.405
87903W        W60218  26.466  33.904  13.489
87904W        W60219  25.953   0.528   1.602
87905W        W60220  35.359  29.959   3.276
87906W        W60221  21.639   1.683  10.890
87907W        W60222  14.753  28.264   2.762
87908W        W60223  22.689  33.472   2.243
87909W        W60224  27.067  29.889  11.001
87910W        W60225  40.341  36.080  12.540
87911W        W60226  44.797  18.383  12.382
87912W        W60227  23.017   4.564  14.970
87913W        W60228  33.908  15.017  14.395
87914W        W60229  13.368  44.016   3.771
87915W        W60230  34.263  12.710   3.530
87916W        W60231  12.399   7.729  11.962
87917W        W60232  18.462  26.015   3.298
87918W        W60233   2.216   8.487  10.670
87919W        W60234  34.863  14.757   2.335
87920W        W60235   4.496  35.576   2.834
87921W        W60236  25.338  22.755   3.224
87922W        W60237   6.983  22.720  11.159
87923W        W60238  44.274  10.422   1.496
87924W        W60239  34.679  40.320  11.150
87925W        W60240  32.972   7.751   2.910
87926W        W60241  33.205  24.585   0.453
87927W        W60242  23.238  32.552   2.745
87928W        W60243  19.130  10.966   3.285
87929W        W60244   6.154   3.389   9.768
87930W        W60245  19.594   7.348  11.934
87931W        W60246  13.265  31.623  11.714
87932W        W60247   9.481  40.715   3.250
87933W        W60248  26.469  11.059   4.301
87934W        W60249  17.793  31.700  10.683
87935W        W60250   1.262  17.188   2.326
87936W        W60251  25.060  11.614  14.974
87937W        W60252   4.223  29.350  10.019
87938W        W60253  12.837  25.179  10.827
87939W        W60254  28.126  11.351   3.254
87940W        W60255  26.281  42.929   4.556
87941W        W60256  41.464   4.924  12.960
87942W        W60257   7.517   1.913   2.181
87943W        W60258  11.701  13.395  14.401
87944W        W60259  16.763  41.061  12.099
87945W        W60260  15.097   6.879   3.337
87946W        W60261   7.881   1.643  10.605
87947W        W60262  34.513  41.251  10.674
87948W        W60263  36.078  36.961   0.491
87949W        W60264  18.823  28.926   4.154
87950W        W60265  43.515  37.963   2.120
87951W        W60266  34.238  23.301  12.532
87952W        W60267  25.053   8.137   4.714
87953W        W60268  32.259   8.460  13.548
87954W        W60269  37.719  13.903  10.702
87955W        W60270  28.119  34.043  13.167
87956W        W60271  18.524  31.648   4.953
87957W        W60272   9.315  42.330   3.104
87958W        W60273  12.756  37.272   5.226
87959W        W60274  32.203   0.815   1.737
87960W        W60275  22.255  14.051  12.184
87961W        W60276  16.173   3.763   3.079
87962W        W60277  23.159  23.198  12.432
87963W        W60278  40.508  44.745   4.644
87964W        W60279  30.775  33.194   4.225
87965W        W60280  10.463   8.185  13.906
87966W        W60281  22.196   9.895  12.750
87967W        W60282  20.111  43.481  13.977
87968W        W60283  17.181  23.985   1.241
87969W        W60284  15.713  10.165   3.964
87970W        W60285   5.934  18.623   2.762
87971W        W60286  32.297   4.900   2.474
87972W        W60287  43.057  31.439  12.074
87973W        W60288  13.899   0.895  13.595
87974W        W60289  11.756  33.187   4.652
87975W        W60290  39.826  33.578  13.359
87976W        W60291  13.805   3.031   1.745
87977W        W60292  33.253  36.655   1.181
87978W        W60293   6.653  17.300  10.681
87979W        W60294  29.501  11.160  11.965
87980W        W60295  36.504  32.989   3.443
87981W        W60296  38.911  28.147   2.519
87982W        W60297  11.733  20.266  12.282
87983W        W60298   3.491  27.757   0.552
87984W        W60299   3.226  10.775   0.422
87985W        W60300  15.137  21.954  14.557
87986W        W60301  22.933   4.018  10.875
87987W        W60302  38.400  23.717  12.426
87988W        W60303  30.038  38.781  12.580
87989W        W60304  40.161  18.233  13.391
87990W        W60305   4.238  26.419  14.319
87991W        W60306  26.461   0.820   5.284
87992W        W60307  42.074  39.964   1.248
87993W        W60308  33.811  44.398  12.823
87994W        W60309  35.251  31.617   3.978
87995W        W60310  41.942  33.461  10.698
87996W        W60311  31.365   4.280   1.164
87997W        W60312  34.858  43.810   1.914
87998W        W60313   6.367  38.247  11.270
87999W        W60314  38.280  38.224  11.428
88000W        W60315  14.665  15.849  12.593
88001W        W60316  11.107  33.642   4.268
88002W        W60317   7.669   5.843   0.874
88003W        W60318   6.381  39.500  12.579
88004W        W60319  19.601  10.638   4.648
88005W        W60320  31.172   2.898   2.173
88006W        W60321  33.475   5.158  13.127
88007W        W60322   8.843  10.754  14.927
88008W        W60323   8.420   0.735   0.822
88009W        W60324  15.250   8.151   0.363
88010W        W60325  43.949  41.851   3.207
88011W        W60326  25.045  25.883  10.692
88012W        W60327  12.562   1.866  12.871
88013W        W60328  20.147  13.388   2.804
88014W        W60329  42.090  20.999  11.933
88015W        W60330   1.140  44.908  12.566
88016W        W60331  30.566   1.770  10.864
88017W        W60332  11.125   2.671   2.277
88018W        W60333  37.195  37.353   4.071
88019W        W60334  12.712  14.238  12.895
88020W        W60335   3.601  11.082   4.892
88021W        W60336   7.650  19.759   4.320
88022W        W60337  42.263  25.971  11.927
88023W        W60338   1.547  31.878  12.615
88024W        W60339  44.021   5.696   2.710
88025W        W60340   5.131   4.938  10.687
88026W        W60341  41.769  13.355   3.208
88027W        W60342  11.796  32.444   2.531
88028W        W60343  41.057  10.727   3.720
88029W        W60344  16.622  43.352   3.860
88030W        W60345   5.254  33.348  13.878
88031W        W60346   5.852  31.846   0.311
88032W        W60347  24.717  12.048  13.714
88033W        W60348  43.818  32.627   2.301
88034W        W60349   5.605  39.151   1.074
88035W        W60350  32.620  11.704  10.339
88036W        W60351  42.626  24.832  12.656
88037W        W60352  38.544  15.654   3.997
88038W        W60353  22.054   5.832   3.674
88039W        W60354  30.522  30.380   0.218
88040W        W60355  35.141  31.644  12.017
88041W        W60356   8.231  42.716  11.182
88042W        W60357   4.703  33.307   1.672
88043W        W60358   2.042  32.546   0.840
88044W        W60359  34.566  32.195   3.089
88045W        W60360  14.147  39.569   3.184
88046W        W60361   1.039  15.728  12.108
88047W        W60362  27.543  27.585  11.621
88048W        W60363  33.152  11.864   0.675
88049W        W60364  14.624  35.868  12.395
88050W        W60365  30.977  20.558   0.018
88051W        W60366  29.596  28.769   5.011
88052W        W60367   1.782  39.931   2.504
88053W        W60368  18.355  32.221  13.288
88054W        W60369  38.452  29.506  11.111
88055W        W60370   5.703  31.897  10.154
88056W        W60371  13.268  28.470  13.807
88057W        W60372   4.341  21.683   3.177
88058W        W60373   5.406  37.762   2.434
88059W        W60374  32.061  23.184  13.357
88060W        W60375   6.398  43.037   4.672
88061W        W60376  40.055  21.776   1.235
88062W        W60377  20.506   9.218   9.673
88063W        W60378  24.933   1.228  12.889
88064W        W60379  12.107  11.197   1.974
88065W        W60380  29.654  41.955   1.708
88066W        W60381  11.829  26.385   4.598
88067W        W60382  44.008  37.865   2.401
88068W        W60383  39.909   1.065   4.124
88069W        W60384   5.646  35.006  14.939
88070W        W60385  34.387  44.863  14.056
88071W        W60386  27.257  30.910   4.617
88072W        W60387  23.116  36.085  13.967
88073W        W60388  27.765  21.015   1.303
88074W        W60389   4.812  15.795   4.332
88075W        W60390  22.162  32.580  12.534
88076W        W60391  42.936  11.781  14.016
88077W        W60392  25.278  24.611   1.824
88078W        W60393  40.921  10.749   2.802
88079W        W60394  13.663  17.754   2.245
88080W        W60395   3.921   3.436  11.577
88081W        W60396  18.964   3.739   3.235
88082W        W60397   5.352  30.176   4.015
88083W        W60398   0.564  35.093  14.538
88084W        W60399  14.770  35.779  10.512
88085W        W60400   7.961  33.376   1.258
88086W        W60401  43.048   3.250   3.262
88087W        W60402  27.042  37.519  10.663
88088W        W60403  21.046  14.671   1.746
88089W        W60404   8.291   4.465   0.670
88090W        W60405   1.022  14.375   3.221
88091W        W60406   9.198  34.767   9.964
88092W        W60407  23.108  39.861   3.624
88093W        W60408  22.059  29.070   3.803
88094W        W60409  25.921  24.475  11.614
88095W        W60410  13.658   1.279   2.202
88096W        W60411  17.336  29.409   3.289
88097W        W60412  29.627  43.979  12.058
88098W        W60413  13.814  36.151   1.202
88099W        W60414  36.544  13.545  13.499
88100W        W60415  35.477  32.405  12.400
88101W        W60416  22.727  19.585  13.746
88102W        W60417  20.506   6.897  12.526
88103W        W60418  30.959  39.592  11.111
88104W        W60419  40.543  11.650   3.686
88105W        W60420  34.965  34.876  13.886
88106W        W60421  40.325   8.235   2.805
88107W        W60422   0.986   3.362  12.922
88108W        W60423   8.555  43.698   1.425
88109W        W60424   0.342  20.002  11.983
88110W        W60425  34.448  36.896  11.564
88111W        W60426  28.699  28.122  12.664
88112W        W60427  14.688   1.282  11.902
88113W        W60428  11.083  16.759  14.168
88114W        W60429  44.034  20.057  14.147
88115W        W60430  14.264  27.454  12.154
88116W        W60431  27.000  24.581  13.998
88117W        W60432  44.137  12.105  13.236
88118W        W60433  18.234  41.785  12.486
88119W        W60434  32.543  29.659   3.726
88120W        W60435  37.072  25.873   4.473
88121W        W60436  25.535   2.159   4.179
88122W        W60437  24.672   7.563  14.761
88123W        W60438  19.425  38.916   4.946
88124W        W60439   5.933  14.657  11.970
88125W        W60440  34.762   0.196  11.067
88126W        W60441   3.353  22.686  11.909
88127W        W60442  32.155   8.208   1.899
88128W        W60443  38.891  42.049  13.070
88129W        W60444  26.605   1.945   0.217
88130W        W60445  16.749   7.915   2.371
88131W        W60446  36.439  11.835   1.836
88132W        W60447   9.146   0.231  14.323
88133W        W60448  25.722  16.944   1.586
88134W        W60449  29.413  31.290   4.659
88135W        W60450  24.426  17.191   3.858
88136W        W60451  23.928  19.967   2.671
88137W        W60452  28.581  20.388   2.435
88138W        W60453  31.277  33.687  11.038
88139W        W60454  40.598  16.730  11.150
88140W        W60455  31.664  38.260   1.470
88141W        W60456  18.975  20.266  10.301
88142W        W60457  12.593  15.219   4.270
88143W        W60458   9.787  30.396   2.971
88144W        W60459   6.311   5.501  12.455
88145W        W60460  31.060   1.229  13.517
88146W        W60461  38.295  12.435   0.127
88147W        W60462   7.198  29.624   1.861
88148W        W60463   3.511  31.282   1.818
88149W        W60464  40.446  14.304  12.798
88150W        W60465  44.533  14.243   4.077
88151W        W60466  20.980  26.975   1.287
88152W        W60467  12.681   3.390  12.686
88153W        W60468  13.756   9.837  14.841
88154W        W60469   0.699  31.397  14.284
88155W        W60470  44.202  19.641  13.868
88156W        W60471   3.590  22.245  12.924
88157W        W60472   7.814  35.621  13.169
88158W        W60473  29.048  21.568  13.207
88159W        W60474  36.407  11.194  13.993
88160W        W60475  35.871   9.152  11.215
88161W        W60476  10.033  25.984  11.996
88162W        W60477  38.097  14.700  13.917
88163W        W60478  43.508  27.982  11.249
88164W        W60479  25.360  34.483   4.057
88165W        W60480   8.066   5.664  13.457
88166W        W60481   6.836  32.125   3.313
88167W        W60482  24.679  32.889   2.750
88168W        W60483  12.164  28.114  11.440
88169W        W60484  37.086  11.112   2.783
88170W        W60485  29.407   5.917   5.032
88171W        W60486  31.864  30.092  11.967
88172W        W60487   3.950   0.741  11.153
88173W        W60488  15.178   5.806   4.603
88174W        W60489  30.188  26.137   0.170
88175W        W60490  12.722  35.851  11.956
88176W        W60491  32.828  21.060  11.571
88177W        W60492  17.318  12.081   4.001
88178W        W60493  41.415   0.725  11.111
88179W        W60494   7.870  16.304   4.216
88180W        W60495   9.826  24.561   1.318
88181W        W60496  31.951  31.470  12.129
88182W        W60497   1.258   4.821  10.676
88183W        W60498  39.525  29.642  14.846
88184W        W60499  12.646  14.170   1.593
88185W        W60500  30.190  23.053   4.768
88186W        W60501  17.476  29.507   1.910
88187W        W60502  26.806  25.518   4.082
88188W        W60503   4.747  10.769   4.545
88189W        W60504   7.349  27.030  11.315
88190W        W60505  19.784  43.423   1.475
88191W        W60506  31.973  27.077  13.179
88192W        W60507  10.325  17.597   3.701
88193W        W60508  36.323  31.948   1.292
88194W        W60509   8.274  42.169  13.801
88195W        W60510  38.519  25.045   4.882
88196W        W60511  13.804  22.162   4.251
88197W        W60512  37.401  37.329  10.656
88198W        W60513  42.778  13.791  13.530
88199W        W60514  23.578  18.630   9.785
88200W        W60515  17.251  14.406   2.332
88201W        W60516  10.751  37.541  11.658
88202W        W60517  27.239   1.820  10.604
88203W        W60518  24.453  38.745  14.798
88204W        W60519  11.260  15.137   3.144
88205W        W60520  41.837  30.097   3.198
88206W        W60521  12.382  25.003   3.700
88207W        W60522  34.511  25.226   4.394
88208W        W60523   1.426  19.783   2.399
88209W        W60524  38.468  34.358   0.883
88210W        W60525   1.159  33.161   1.976
88211W        W60526  36.092  22.801   1.812
88212W        W60527  10.815  32.399  14.926
88213W        W60528   0.394   7.703   1.876
88214W        W60529   2.031   3.496   3.267
88215W        W60530  24.507  11.368   3.595
88216W        W60531  35.596  16.981  11.080
88217W        W60532  37.868  30.491  13.817
88218W        W60533  24.144  36.055  12.096
88219W        W60534  16.135  10.163   2.307
88220W        W60535   7.256  16.283   3.053
88221W        W60536  29.615  29.927   1.324
88222W        W60537   9.688   0.600   1.682
88223W        W60538  21.685  38.171   4.268
88224W        W60539  14.081   4.313   2.227
88225W        W60540  39.157   4.907  13.521
88226W        W60541  18.167  21.462   0.295
88227W        W60542  40.863  33.926  11.146
88228W        W60543  35.680  39.443   1.157
88229W        W60544  29.592  40.082  10.483
88230W        W60545  38.381  22.687   0.369
88231W        W60546  12.783  10.224   2.732
88232W        W60547  40.901   0.841   0.734
88233W        W60548  22.112  31.175  10.794
88234W        W60549  30.117  15.229   4.174
88235W        W60550   4.859  41.998   1.507
88236W        W60551  27.616  18.719   3.276
88237W        W60552   9.243  33.522   0.888
88238W        W60553  14.198   0.732  14.013
88239W        W60554  30.064  38.331   1.334
88240W        W60555  32.563  37.010  10.677
88241W        W60556  12.651  36.662   0.654
88242W        W60557  35.143  15.762   2.262
88243W        W60558  44.368  35.145  11.183
88244W        W60559   8.334  41.085  14.797
88245W        W60560  14.891   9.662  14.441
88246W        W60561  19.855  33.687   1.766
88247W        W60562  43.244   2.719   3.818
88248W        W60563  33.503   9.619  14.946
88249W        W60564  22.833  38.102   2.430
88250W        W60565  25.556  39.255   1.107
88251W        W60566  41.394  34.559  12.068
88252W        W60567  22.195  29.712   2.984
88253W        W60568   8.317  12.591  11.073
88254W        W60569  33.520  23.030   0.915
88255W        W60570  32.206  27.986   4.090
88256W        W60571   0.528  31.345   2.677
88257W        W60572   8.208  41.371   4.590
88258W        W60573  28.440  25.597  14.238
88259W        W60574  17.112  31.857   2.599
88260W        W60575   6.906  42.884  12.441
88261W        W60576  26.164  38.730  14.104
88262W        W60577  14.273  38.777   0.713
88263W        W60578   1.870   7.222   1.671
88264W        W60579  28.017  17.140   4.455
88265W        W60580  35.655  43.457   1.882
88266W        W60581  44.624  39.545   2.439
88267W        W60582  20.110   4.449  10.695
88268W        W60583  18.051  35.510   1.527
88269W        W60584  25.263   6.045  13.463
88270W        W60585   6.903  41.426  12.386
88271W        W60586  10.790  21.855  12.873
88272W        W60587  24.656  39.786  14.744
88273W        W60588  27.124  26.140   4.230
88274W        W60589  26.089  29.048  10.727
88275W        W60590   8.206  35.573  10.629
88276W        W60591  41.957  23.480   0.713
88277W        W60592  13.011   3.730   4.262
88278W        W60593  23.603  25.595   0.250
88279W        W60594  42.623  28.200   2.762
88280W        W60595  16.136   1.211   4.790
88281W        W60596  36.807  17.079   1.469
88282W        W60597  42.332  35.928   2.379
88283W        W60598  19.429  40.465  12.648
88284W        W60599  31.622  37.362  12.448
88285W        W60600  33.134  24.425   1.330
88286W        W60601  34.919  21.600   0.405
88287W        W60602  16.804  26.246  10.493
88288W        W60603  22.539  18.271   4.348
88289W        W60604  37.822  33.726   0.984
88290W        W60605  12.203  29.011  11.443
88291W        W60606  18.335  22.243  11.058
88292W        W60607   9.865   1.974  13.462
88293W        W60608   5.374  31.353  12.915
88294W        W60609  11.815  13.648   1.881
88295W        W60610  20.102  28.245   2.143
88296W        W60611  29.964   4.811  14.704
88297W        W60612  13.618  22.448  10.697
88298W        W60613  23.148  18.093   0.707
88299W        W60614  27.024  37.260   3.592
88300W        W60615   5.980  39.790  12.409
88301W        W60616  43.759  35.341   3.039
88302W        W60617  38.053   7.539   4.921
88303W        W60618   2.586  15.143  14.559
88304W        W60619   1.492   1.531   0.792
88305W        W60620  16.783  12.235  13.339
88306W        W60621  10.370  28.104   1.831
88307W        W60622   6.274  10.090  14.352
88308W        W60623  10.198   6.309  11.546
88309W        W60624   9.367   2.325   4.618
88310W        W60625  42.814  18.704   1.654
88311W        W60626  11.444  42.778  13.909
88312W        W60627  17.814   7.635  11.018
88313W        W60628  24.846   0.499   2.838
88314W        W60629   0.726  12.109  13.445
88315W        W60630  37.897   2.189  12.106
88316W        W60631  26.472  19.973   0.215
88317W        W60632  32.347  35.768  11.143
88318W        W60633  32.523  14.454   0.429
88319W        W60634   7.041  14.169  14.472
88320W        W60635  24.407  42.026   3.382
88321W        W60636  42.795  40.320   0.956
88322W        W60637  24.582  35.720  14.719
88323W        W60638  25.570  16.632  11.581
88324W        W60639   1.153   4.978   4.165
88325W        W60640  30.340   0.178   3.670
88326W        W60641  18.974  36.638  11.037
88327W        W60642  32.772  42.613  12.556
88328W        W60643  21.476  35.623   0.307
88329W        W60644  28.450  23.640  13.030
88330W        W60645   5.710  29.671  11.694
88331W        W60646  44.719  26.380   0.799
88332W        W60647  26.005  24.689  10.747
88333W        W60648  16.346   2.013  11.503
88334W        W60649   2.238  30.971   1.757
88335W        W60650   7.296   0.045   4.239
88336W        W60651  15.082   0.939   0.778
88337W        W60652  31.697  39.476  14.844
88338W        W60653  10.401  30.717  10.687
88339W        W60654   4.534  11.002  12.840
88340W        W60655  22.692  36.814  12.841
88341W        W60656  26.789  35.160  14.548
88342W        W60657  41.835  19.956  11.082
88343W        W60658  23.131  22.743  10.163
88344W        W60659  31.873  41.905   0.870
88345W        W60660  11.900  33.923   0.389
88346W        W60661   8.474   6.744  12.517
88347W        W60662  38.089  38.752   2.324
88348W        W60663  44.160  23.328   2.885
88349W        W60664  37.058  39.110   1.424
88350W        W60665  14.507  21.275  11.437
88351W        W60666  18.506  38.520   2.436
88352W        W60667  28.104  39.136  12.132
88353W        W60668   7.446   0.673  12.021
88354W        W60669  14.423  42.754  12.282
88355W        W60670  15.765  23.661   3.264
88356W        W60671  41.104  14.609   1.135
88357W        W60672  13.522   1.750  11.695
88358W        W60673  33.325  18.326   3.361
88359W        W60674  27.117  26.884  13.453
88360W        W60675  28.682   4.341   0.794
88361W        W60676   9.924  19.152  14.441
88362W        W60677  29.018  38.806   2.370
88363W        W60678   5.942  24.336  14.008
88364W        W60679   2.305  31.241  14.477
88365W        W60680   3.418  39.322  11.544
88366W        W60681  19.243   8.180  10.701
88367W        W60682  37.730  13.780   1.308
88368W        W60683  15.571  10.652   2.719
88369W        W60684  35.233   8.667   4.206
88370W        W60685   7.724  16.605   1.694
88371W        W60686   9.105  16.129   0.237
88372W        W60687  27.038  43.678   3.578
88373W        W60688  37.007   1.836  11.535
88374W        W60689   9.960   0.749  11.332
88375W        W60690  19.627  39.172   0.141
88376W        W60691  34.735  22.075   3.859
88377W        W60692  36.529  20.573  10.672
88378W        W60693  42.441  34.361   0.738
88379W        W60694  21.035  22.037  13.485
88380W        W60695  37.025  29.667  13.468
88381W        W60696  12.221  38.150  12.502
88382W        W60697  10.687  13.332  12.874
88383W        W60698  21.507   0.690   1.504
88384W        W60699   2.276  36.363   1.844
88385W        W60700  26.490  11.263   3.840
88386W        W60701   8.917  31.136   5.061
88387W        W60702  19.486  30.253  13.532
88388W        W60703  18.851   8.680   5.028
88389W        W60704  26.116  14.175   1.242
88390W        W60705  27.189   8.973   0.045
88391W        W60706  37.413  24.133   4.057
88392W        W60707  20.129  20.982   4.216
88393W        W60708  26.236  38.909   3.229
88394W        W60709  28.532   2.184  11.480
88395W        W60710  26.841   4.222   9.676
88396W        W60711  35.511  12.202   3.809
88397W        W60712  30.930  40.911   3.814
88398W        W60713   9.891   2.955  13.073
88399W        W60714  33.485  31.421  13.459
88400W        W60715  36.391   7.362   5.287
88401W        W60716  43.033   8.329  11.508
88402W        W60717  44.213  41.073   2.861
88403W        W60718  21.564  19.449   2.093
88404W        W60719  26.238  29.229   4.091
88405W        W60720  43.548  20.925  12.222
88406W        W60721  27.858  20.977   0.270
88407W        W60722  32.913  39.091   1.338
88408W        W60723  18.302  43.443  10.770
88409W        W60724  22.173  39.940   3.696
88410W        W60725  20.892   6.790   2.642
88411W        W60726  23.523   3.848   1.562
88412W        W60727  21.987  41.507  14.799
88413W        W60728   6.606  20.518   1.528
88414W        W60729   4.403  42.906   2.383
88415W        W60730  38.943  40.983  13.293
88416W        W60731   5.320  24.720   1.972
88417W        W60732  29.974  12.154   0.409
88418W        W60733  32.194   1.923   2.682
88419W        W60734  29.556  40.741  12.394
88420W        W60735  10.586  40.780  12.942
88421W        W60736   7.246   6.110   4.230
88422W        W60737  10.244  20.992  10.587
88423W        W60738  16.158  25.665   4.535
88424W        W60739  35.852  36.899   2.964
88425W        W60740  12.755  42.429   0.165
88426W        W60741  11.602  30.900   3.347
88427W        W60742  36.543   0.372  13.890
88428W        W60743  13.851   7.699  13.840
88429W        W60744  17.591  21.777   4.993
88430W        W60745  32.421   7.406   4.564
88431W        W60746   4.970  22.569  11.134
88432W        W60747  35.359  43.428  10.848
88433W        W60748   4.812  19.497  11.459
88434W        W60749  31.963  22.719  12.475
88435W        W60750  15.754  21.562   0.432
88436W        W60751  39.017  21.120   9.890
88437W        W60752  32.174  26.276   0.933
88438W        W60753  27.051  38.782   1.100
88439W        W60754  39.176   0.820  11.714
88440W        W60755  19.263   5.802  13.713
88441W        W60756   3.674  19.994   1.159
88442W        W60757  18.744  26.509   1.647
88443W        W60758  16.151  25.626   2.778
88444W        W60759   5.720  13.764  14.266
88445W        W60760  23.934  21.481  14.751
88446W        W60761  39.022  18.517   4.075
88447W        W60762  19.076  37.422   0.297
88448W        W60763  43.828  33.360  10.557
88449W        W60764   2.935  15.854   2.212
88450W        W60765  14.262  36.078  11.143
88451W        W60766  40.852  11.498   2.075
88452W        W60767  41.799  29.500  11.527
88453W        W60768   8.013  41.564   0.759
88454W        W60769  39.480  28.458   1.869
88455W        W60770   1.918  35.299  12.209
88456W        W60771  27.982  16.755   1.267
88457W        W60772  11.139   4.471  12.591
88458W        W60773   6.291  19.047   2.164
88459W        W60774  26.231  14.119  12.064
88460W        W60775   6.833  21.583  12.590
88461W        W60776   9.132  14.753  12.045
88462W        W60777   0.656  26.515   1.809
88463W        W60778   2.455  39.369   0.030
88464W        W60779  19.145  39.876   3.763
88465W        W60780  33.607  40.832   1.298
88466W        W60781   5.925  14.605  14.775
88467W        W60782  12.330  26.066  10.593
88468W        W60783  13.401  38.848   0.674
88469W        W60784  26.523  18.818  13.930
88470W        W60785  17.960  21.459   4.788
88471W        W60786   5.260  17.371  12.514
88472W        W60787  24.520  18.903  13.766
88473W        W60788   1.508  41.313   4.420
88474W        W60789  31.570  10.420  11.617
88475W        W60790  22.753   8.824   2.440
88476W        W60791  39.321  33.358  12.088
88477W        W60792  35.893   3.981   3.306
88478W        W60793  27.805  10.308   2.849
88479W        W60794   8.473  15.825  12.105
88480W        W60795  32.118  39.829  14.649
88481W        W60796  18.087  33.374  11.114
88482W        W60797  16.598  11.748  14.962
88483W        W60798  30.462  40.391   4.561
88484W        W60799   7.353   7.425  13.615
88485W        W60800  24.714   0.286   0.174
88486W        W60801  22.535  22.284   2.399
88487W        W60802   6.465  11.393  10.852
88488W        W60803  35.637   7.784   0.495
88489W        W60804  13.902  31.367  10.712
88490W        W60805  24.737   7.359   3.581
88491W        W60806  29.208  41.647  10.506
88492W        W60807   8.293   9.255   4.417
88493W        W60808  10.127  44.412   3.238
88494W        W60809  23.699  15.909   4.140
88495W        W60810  27.206  13.126   3.375
88496W        W60811  41.351  34.375   1.877
88497W        W60812  43.389   5.224   4.102
88498W        W60813  14.075  26.172  13.430
88499W        W60814  16.082  42.220   1.704
88500W        W60815  39.252   2.478  13.352
88501W        W60816  29.036  41.490  12.381
88502W        W60817  39.331  39.029   4.252
88503W        W60818   9.392   5.310   3.225
88504W        W60819   8.701   2.686  14.973
88505W        W60820  31.590  43.936  13.031
88506W        W60821  22.704  44.270  13.924
88507W        W60822  42.737  35.800  13.995
88508W        W60823  16.066   9.245   3.789
88509W        W60824  32.315  35.409   1.850
88510W        W60825  26.966  28.572   1.211
88511W        W60826  27.755  42.829  14.294
88512W        W60827  15.263  43.818  12.802
88513W        W60828  23.738  31.510  12.121
88514W        W60829  41.047  34.872   0.481
88515W        W60830  23.018  13.631  12.107
88516W        W60831  26.221  34.341   4.497
88517W        W60832  20.596  22.583  11.678
88518W        W60833  43.584  18.266  12.117
88519W        W60834  15.032  16.275   1.325
88520W        W60835  32.002   9.285   2.739
88521W        W60836  39.392   3.301  12.372
88522W        W60837  28.197   5.798   3.361
88523W        W60838   5.236  29.714   2.865
88524W        W60839   8.788  24.071  13.478
88525W        W60840   9.010  15.793  10.627
88526W        W60841  16.338   9.585  13.005
88527W        W60842  22.526   3.385  13.529
88528W        W60843  26.069  36.995  13.941
88529W        W60844  37.902  14.672  11.818
88530W        W60845  30.127  43.857   1.866
88531W        W60846   8.776   0.003  12.397
88532W        W60847  38.214   4.875  10.048
88533W        W60848  33.047  21.555  13.050
88534W        W60849  34.008  14.699  12.838
88535W        W60850  31.331  34.629   0.291
88536W        W60851  41.405  26.333  11.726
88537W        W60852  29.510  37.080   0.182
88538W        W60853   5.183  39.121   3.654
88539W        W60854  26.633  22.152  13.784
88540W        W60855   4.950   4.018  10.772
88541W        W60856  11.764   9.899  12.909
88542W        W60857  20.177  36.429   4.749
88543W        W60858  20.283  20.632   1.629
88544W        W60859  39.610   2.732   4.148
88545W        W60860  41.456   6.907  10.678
88546W        W60861   2.195  19.976   1.829
88547W        W60862  16.076   8.311  14.967
88548W        W60863  26.732   8.455   1.397
88549W        W60864  16.681  32.033  12.106
88550W        W60865  24.604  18.610   1.766
88551W        W60866  13.701  25.564   4.741
88552W        W60867  10.350  29.937   3.625
88553W        W60868  27.278  42.890   2.258
88554W        W60869  18.262  32.589   3.408
88555W        W60870   9.608   3.703   4.500
88556W        W60871  38.462   8.162   1.389
88557W        W60872   7.320  18.555   4.126
88558W        W60873   9.530  20.845  14.881
88559W        W60874  22.244  26.870  10.542
88560W        W60875  14.794  28.610   1.659
88561W        W60876  18.756   2.376   1.207
88562W        W60877  43.982  11.247   2.905
88563W        W60878  26.677  43.972   4.557
88564W        W60879   7.374  24.977  10.781
88565W        W60880  40.423  14.192   1.217
88566W        W60881   2.846  33.488  12.658
88567W        W60882  19.747  29.014  14.819
88568W        W60883  37.810  27.189  13.456
88569W        W60884   1.257   1.933  11.989
88570W        W60885  14.810  41.889   2.322
88571W        W60886   0.342  10.391  11.084
88572W        W60887  11.880  31.214   1.887
88573W        W60888  28.141   1.577   1.437
88574W        W60889  40.527   8.479  11.680
88575W        W60890  26.540  22.239   4.344
88576W        W60891  22.260  43.241  11.136
88577W        W60892  16.589  29.635   3.601
88578W        W60893   6.764   1.387  14.462
88579W        W60894   2.840   2.417   3.113
88580W        W60895  24.840  11.644   5.146
88581W        W60896  12.148  17.605   2.821
88582W        W60897  40.742  42.888   2.800
88583W        W60898  30.971  26.304   0.460
88584W        W60899  19.714  42.195   3.425
88585W        W60900  19.578  41.754  11.870
88586W        W60901  23.248  31.157  13.673
88587W        W60902  10.705  18.500   0.972
88588W        W60903  16.475  26.995   1.327
88589W        W60904  29.899   0.372  10.783
88590W        W60905  25.227  15.949   1.258
88591W        W60906  21.689  11.428   0.313
88592W        W60907  22.980  10.468  11.044
88593W        W60908  24.283  19.275  10.630
88594W        W60909  37.103  33.161  12.043
88595W        W60910  25.059  35.851  14.568
88596W        W60911  39.632   3.887   3.673
88597W        W60912  11.257   8.249   2.248
88598W        W60913  42.831  35.721  14.771
88599W        W60914  11.727   5.229  13.507
88600W        W60915  36.591  36.205   4.527
88601W        W60916  34.024  12.274   0.446
88602W        W60917  20.777  39.528   3.634
88603W        W60918  13.498  28.973  10.797
88604W        W60919  28.095  19.172  13.489
88605W        W60920  29.725  17.708  14.781
88606W        W60921  18.762  33.308  14.302
88607W        W60922  11.108  35.637   1.693
88608W        W60923  16.319  23.854  14.217
88609W        W60924  32.874  38.896   4.209
88610W        W60925  23.648  41.287   3.894
88611W        W60926   7.616   7.379   3.185
88612W        W60927  44.882  15.750   2.877
88613W        W60928  23.573  41.770  12.503
88614W        W60929  39.396  28.055   0.432
88615W        W60930  43.735  41.270   0.867
88616W        W60931  32.444  30.854  12.637
88617W        W60932  19.129  15.668  11.101
88618W        W60933   0.571  43.934  14.747
88619W        W60934  20.035  21.864   2.878
88620W        W60935   9.643  12.184  12.718
88621W        W60936   6.638  44.290   0.856
88622W        W60937  24.726  31.067  11.529
88623W        W60938  14.693  22.084   4.211
88624W        W60939  15.701  34.409   4.837
88625W        W60940  43.455  37.970   4.576
88626W        W60941  19.696  14.041  14.340
88627W        W60942   1.824   4.700   2.775
88628W        W60943   9.735  16.522   3.781
88629W        W60944  11.412  25.630   2.329
88630W        W60945  24.924  20.992   2.303
88631W        W60946  26.863  23.011   1.871
88632W        W60947   7.197  42.871   1.665
88633W        W60948  41.426  43.526  11.431
88634W        W60949  34.577  25.972   2.415
88635W        W60950   4.226   8.785   1.835
88636W        W60951  14.663  39.552  13.985
88637W        W60952   0.924  30.497   5.079
88638W        W60953  24.631  42.527   0.021
88639W        W60954  36.658  17.975  12.839
88640W        W60955  38.392  18.007  11.253
88641W        W60956  13.042  16.095   4.531
88642W        W60957   9.497  42.821  13.477
88643W        W60958  36.489  36.818  12.930
88644W        W60959  35.089   0.434   3.273
88645W        W60960   4.377   7.159   0.423
88646W        W60961  33.033  11.429  12.901
88647W        W60962  39.910  22.303  12.477
88648W        W60963  40.780  42.554  13.343
88649W        W60964  19.943  26.102   2.888
88650W        W60965   8.788  37.947  11.168
88651W        W60966   9.581  37.472  12.243
88652W        W60967  37.889  39.977  14.966
88653W        W60968  39.850  15.540  12.900
88654W        W60969  28.316  30.663  13.326
88655W        W60970  11.941   8.229   4.429
88656W        W60971  42.995  44.942  13.888
88657W        W60972  39.076  36.656  13.913
88658W        W60973  37.500  15.382   0.911
88659W        W60974  13.704   6.217  13.489
88660W        W60975  35.129  34.982  14.776
88661W        W60976  39.093  19.183  11.680
88662W        W60977  41.875  11.157  12.287
88663W        W60978   5.341  40.884   2.751
88664W        W60979  12.453  11.775   4.790
88665W        W60980  36.792   3.714   3.213
88666W        W60981  43.807  44.602   2.841
88667W        W60982  37.087  21.329   3.309
88668W        W60983  27.996   3.397  14.931
88669W        W60984  30.858  29.546  11.577
88670W        W60985  21.594   3.794   0.505
88671W        W60986  40.367  34.014  10.962
88672W        W60987  23.519  21.384   1.310
88673W        W60988   7.127  44.285  12.144
88674W        W60989  43.812   5.183  11.899
88675W        W60990  18.040  32.620   1.163
88676W        W60991  18.374  24.540  13.057
88677W        W60992  19.678  10.919   0.917
88678W        W60993  40.485   2.685  11.575
88679W        W60994  31.619   4.227   1.623
88680W        W60995  36.026  13.186  12.454
88681W        W60996  17.273  43.960   4.822
88682W        W60997  27.189  18.337  12.956
88683W        W60998  40.520  10.688   1.486
88684W        W60999  38.746   5.872   2.390
88685W        W61000  42.789  18.236   3.228
88686W        W61001  14.035  10.933   0.863
88687W        W61002  12.653  37.310   2.925
88688W        W61003  19.896  34.362   3.681
88689W        W61004  33.606  41.496  12.534
88690W        W61005  44.371  15.878  11.654
88691W        W61006  20.804  34.539   4.143
88692W        W61007  42.569   5.177   1.822
88693W        W61008  39.544  20.185  12.929
88694W        W61009  27.464  27.842  12.995
88695W        W61010  18.047  36.828  11.424
88696W        W61011  12.274  24.148   2.796
88697W        W61012  44.263  28.242   5.027
88698W        W61013   6.834  31.275   4.798
88699W        W61014   0.913   4.805  14.943
88700W        W61015  22.492  24.642  11.253
88701W        W61016   1.763   9.771   1.663
88702W        W61017  13.819  24.773  12.020
88703W        W61018   1.348  10.771   1.746
88704W        W61019  22.733  17.768   0.807
88705W        W61020  19.346  40.377   0.373
88706W        W61021  41.973  11.713   1.249
88707W        W61022  13.756   2.726  12.004
88708W        W61023  40.715   5.685  14.543
88709W        W61024   2.273   1.406  13.531
88710W        W61025  10.394  30.155   4.606
88711W        W61026  38.542  10.135   0.373
88712W        W61027  37.917  28.260   1.978
88713W        W61028  36.350   4.171  11.136
88714W        W61029  41.991  10.728   0.785
88715W        W61030  32.129  30.859  13.462
88716W        W61031  22.935  22.483  14.931
88717W        W61032  10.441  22.605  12.232
88718W        W61033   4.177  21.171  11.698
88719W        W61034  37.386  20.104  10.857
88720W        W61035   1.459   4.644   4.442
88721W        W61036  29.171  13.410   1.309
88722W        W61037   1.541   8.630   0.461
88723W        W61038  29.826  26.834   2.294
88724W        W61039  36.589  34.939  12.902
88725W        W61040   8.376   1.760  11.484
88726W        W61041  16.928  44.443  12.913
88727W        W61042  33.326  31.375   3.935
88728W        W61043   4.199  14.311   2.393
88729W        W61044  13.684  38.297  12.362
88730W        W61045  19.356  43.725   0.713
88731W        W61046  23.299  34.562  12.045
88732W        W61047  19.641  34.091  13.840
88733W        W61048  18.216  22.528   5.034
88734W        W61049  23.478  25.130  10.675
88735W        W61050  27.683  19.533   3.161
88736W        W61051  13.152  37.491  14.045
88737W        W61052  42.397   0.906   4.491
88738W        W61053   2.867  19.291   0.846
88739W        W61054  43.110  11.359  12.762
88740W        W61055   6.710   9.237   0.063
88741W        W61056  20.517   2.588  14.328
88742W        W61057  20.737  38.501   2.782
88743W        W61058   2.384  39.568   0.902
88744W        W61059  41.409   3.250  11.720
88745W        W61060  29.614  14.383   3.144
88746W        W61061  15.259   0.320   2.222
88747W        W61062  22.643   3.407   1.803
88748W        W61063  42.279   1.792   4.127
88749W        W61064  16.428   0.457   0.746
88750W        W61065  42.447   6.435   4.182
88751W        W61066  19.578  33.618   3.228
88752W        W61067   9.463  11.751  12.003
88753W        W61068  12.370  31.610  14.507
88754W        W61069  28.069  26.594  13.175
88755W        W61070  41.785  37.044  13.748
88756W        W61071  44.368  27.194   0.155
88757W        W61072  12.229  33.913  14.869
88758W        W61073  25.324  16.570  14.407
88759W        W61074  37.460  10.931  12.547
88760W        W61075  22.707   1.451  14.429
88761W        W61076  18.046  22.810  14.222
88762W        W61077  21.705   9.572  11.026
88763W        W61078  33.587  25.565   3.686
88764W        W61079   3.088  11.483  14.009
88765W        W61080  22.151   5.909  11.246
88766W        W61081  13.834   2.827   3.699
88767W        W61082  38.708  36.531   4.343
88768W        W61083   5.444   2.363   3.306
88769W        W61084  19.052  29.084  12.903
88770W        W61085  42.406  41.076   2.901
88771W        W61086  34.155   7.377   3.336
88772W        W61087  21.673  14.817   3.842
88773W        W61088  15.751  29.514   4.162
88774W        W61089  34.543  24.141   1.896
88775W        W61090  27.040  16.156   2.144
88776W        W61091   3.228  37.417  10.944
88777W        W61092  20.779  44.219  13.121
88778W        W61093  27.025  29.066   2.932
88779W        W61094   7.697  38.727  10.339
88780W        W61095  39.020  42.555  12.684
88781W        W61096   5.478  19.059  14.451
88782W        W61097  16.231  36.646  14.074
88783W        W61098  39.245  40.854  13.713
88784W        W61099  44.406   6.669   1.954
88785W        W61100   4.434  22.776   0.477
88786W        W61101   5.949  42.475  11.230
88787W        W61102  13.991  32.892   2.199
88788W        W61103  12.200   1.715   4.839
88789W        W61104  13.199  26.429   0.469
88790W        W61105  14.764  38.453  12.574
88791W        W61106   1.383  28.673  11.642
88792W        W61107  36.920  24.794  10.201
88793W        W61108  36.785  38.934  14.464
88794W        W61109  28.203  31.926  12.941
88795W        W61110  21.656  10.288   1.869
88796W        W61111  27.480  29.878   0.814
88797W        W61112   6.747  18.281  10.801
88798W        W61113  32.659  21.717   4.305
88799W        W61114  34.138  38.391   4.172
88800W        W61115   9.467  34.106  10.673
88801W        W61116  30.602  30.660   4.236
88802W        W61117  10.723  16.886   4.505
88803W        W61118   8.952   5.811  14.506
88804W        W61119  12.384  25.684   2.635
88805W        W61120   0.956  12.849   1.425
88806W        W61121   9.371  10.148   0.303
88807W        W61122  21.710  21.746  10.932
88808W        W61123  18.071   9.653  13.005
88809W        W61124  12.641  39.651  11.612
88810W        W61125  40.453  38.169  10.708
88811W        W61126  35.184  24.790   4.287
88812W        W61127  32.800  33.889  11.108
88813W        W61128  36.142  16.630   1.317
88814W        W61129  38.696  26.156   2.115
88815W        W61130  19.900  17.015   4.099
88816W        W61131   4.095  30.394  13.009
88817W        W61132  16.735  38.782   9.612
88818W        W61133  18.087   3.392   1.261
88819W        W61134  16.647  43.272  14.866
88820W        W61135  44.896   4.569   3.166
88821W        W61136  31.366  30.154  13.417
88822W        W61137  41.271  14.733  12.440
88823W        W61138  34.156  20.345  12.513
88824W        W61139  34.053  23.186  12.064
88825W        W61140  22.451   9.723  14.399
88826W        W61141  17.923  13.547   2.822
88827W        W61142  26.609  32.249  10.688
88828W        W61143   9.211  40.859   1.908
88829W        W61144  40.618   5.190  14.040
88830W        W61145  39.253   1.103  12.124
88831W        W61146  11.877   1.781  10.630
88832W        W61147  30.053  15.076   0.716
88833W        W61148  39.819  15.787   4.179
88834W        W61149  43.429  24.098  10.791
88835W        W61150   6.936  23.583  12.566
88836W        W61151  34.458  12.252   0.722
88837W        W61152   5.777   2.189   2.940
88838W        W61153  26.176  23.267   2.779
88839W        W61154  24.237  42.977  11.992
88840W        W61155  29.540  22.289  12.624
88841W        W61156  37.342  37.834  13.331
88842W        W61157  14.016  39.163  13.005
88843W        W61158  32.073  44.396   0.276
88844W        W61159  43.477  24.455   3.171
88845W        W61160  26.156  35.128  12.356
88846W        W61161   8.898  20.069  11.087
88847W        W61162   6.078  19.683   5.097
88848W        W61163   3.793  39.738  10.661
88849W        W61164  29.377  41.403   4.797
88850W        W61165  16.732  35.858   3.100
88851W        W61166  16.219  42.989   3.380
88852W        W61167   0.805  28.432  12.958
88853W        W61168  36.685  35.086  14.953
88854W        W61169  22.644  24.711  11.722
88855W        W61170   0.173  35.082   1.985
88856W        W61171  26.623  11.198   2.834
88857W        W61172  29.064   6.834   4.666
88858W        W61173  20.795  22.602  10.660
88859W        W61174  15.875  36.510  11.942
88860W        W61175  43.123  20.188   4.579
88861W        W61176  15.798   2.707  14.404
88862W        W61177  26.892  42.787  11.129
88863W        W61178  32.579  22.597  11.103
88864W        W61179  26.982  34.424   9.917
88865W        W61180  14.791  10.182  14.501
88866W        W61181  24.537  40.431  13.502
88867W        W61182  32.449  15.806   3.310
88868W        W61183  13.183  16.347  14.449
88869W        W61184  20.755  43.056  12.933
88870W        W61185  33.734  24.777   4.587
88871W        W61186  26.235   5.414   0.064
88872W        W61187   5.634  11.694   2.983
88873W        W61188   8.254  31.370  11.962
88874W        W61189  10.338  33.410  10.800
88875W        W61190   2.243   6.246  10.622
88876W        W61191  44.271  33.628  10.515
88877W        W61192  25.894   2.020   9.983
88878W        W61193  32.451   9.264   2.158
88879W        W61194  15.707   6.839   4.165
88880W        W61195  36.847  19.504   3.587
88881W        W61196  43.044  17.601  11.055
88882W        W61197  37.804  41.443   0.455
88883W        W61198  14.194  36.134  13.130
88884W        W61199   3.022  24.536  12.139
88885W        W61200  30.201  27.833  14.308
88886W        W61201  33.938  36.605   4.802
88887W        W61202  23.486  11.703   1.944
88888W        W61203  23.165   5.125  10.872
88889W        W61204  44.741  40.008  13.299
88890W        W61205   2.823   0.151  13.322
88891W        W61206   4.797  20.584  14.770
88892W        W61207  41.660  33.659   2.418
88893W        W61208   5.172  35.095   4.666
88894W        W61209  27.095  29.646  14.357
88895W        W61210  38.392   5.142  11.155
88896W        W61211  39.328  21.915  11.712
88897W        W61212  15.603  26.631   4.026
88898W        W61213  33.768  41.377   3.154
88899W        W61214  32.225  12.513  13.615
88900W        W61215  44.740  10.411   3.774
88901W        W61216  39.026  23.748  14.906
88902W        W61217  38.458  35.652  14.347
88903W        W61218  29.058  43.137   0.355
88904W        W61219  28.149  18.802   2.875
88905W        W61220  14.341  37.324   4.705
88906W        W61221   6.966  38.858  12.721
88907W        W61222  16.521   0.295  11.888
88908W        W61223  22.703  14.569  14.382
88909W        W61224  31.420  16.534  14.894
88910W        W61225  21.589  13.870  11.861
88911W        W61226   1.036  39.961  14.029
88912W        W61227  39.466  19.187   3.185
88913W        W61228   0.719  19.165  14.094
88914W        W61229   2.010  29.085  13.468
88915W        W61230  21.028  36.830   0.871
88916W        W61231  42.009  13.642  12.259
88917W        W61232  29.539  27.645  11.395
88918W        W61233  31.179  15.304  10.562
88919W        W61234  11.062  12.276   0.988
88920W        W61235  27.655  14.762   0.309
88921W        W61236  28.094  35.385  11.379
88922W        W61237  22.712  39.680   2.829
88923W        W61238  24.459  19.940   4.958
88924W        W61239  17.226  24.464   4.449
88925W        W61240   3.751  42.510  12.867
88926W        W61241   3.927  34.195   4.207
88927W        W61242  25.261  20.449  13.843
88928W        W61243  44.407  22.766   2.005
88929W        W61244  12.104  41.959   1.352
88930W        W61245  41.072  39.419  12.040
88931W        W61246  42.761   7.859  13.328
88932W        W61247  13.928  23.033  12.913
88933W        W61248  16.420  20.618  10.597
88934W        W61249  31.483   1.707   2.676
88935W        W61250  38.862  24.887  12.431
88936W        W61251  37.700  26.436  12.790
88937W        W61252  20.944  38.863   1.663
88938W        W61253   9.407   6.772  13.391
88939W        W61254  37.861   3.797   4.360
88940W        W61255  44.603  28.494   0.846
88941W        W61256  41.602  32.923  14.531
88942W        W61257   7.209  34.262   2.698
88943W        W61258  40.353  31.917   4.631
88944W        W61259  37.702  29.194   2.404
88945W        W61260  11.368  38.373  14.733
88946W        W61261  40.494   4.254  12.517
88947W        W61262   5.914  15.274  12.489
88948W        W61263  31.148  39.997   0.803
88949W        W61264   0.232  19.590  13.576
88950W        W61265  11.147  39.499   1.680
88951W        W61266  36.065  15.164   0.889
88952W        W61267  38.864  14.341  11.595
88953W        W61268  28.554   5.974   2.185
88954W        W61269  14.209  21.700  11.552
88955W        W61270  28.071   6.155   4.930
88956W        W61271  36.345  39.612  12.591
88957W        W61272  13.213  22.049  13.101
88958W        W61273  34.956  17.440  13.444
88959W        W61274  32.600  31.921   1.838
88960W        W61275  31.083  35.049   0.018
88961W        W61276  10.277   7.655  14.408
88962W        W61277  27.183  12.098   1.875
88963W        W61278  38.436  39.501   4.192
88964W        W61279  34.004  27.979   1.252
88965W        W61280   3.302  27.405  12.699
88966W        W61281  34.591  31.490   0.038
88967W        W61282  13.124   0.441  13.315
88968W        W61283  13.797  22.696  13.289
88969W        W61284  23.067  43.930   3.752
88970W        W61285  10.129  14.096  11.630
88971W        W61286  17.751   8.605  13.878
88972W        W61287  39.431  30.867   4.670
88973W        W61288  12.782  37.626   4.264
88974W        W61289  21.085  32.474  14.909
88975W        W61290   1.697   3.464   4.159
88976W        W61291  33.583  39.745  10.739
88977W        W61292  18.819  42.477  14.364
88978W        W61293   0.248  43.124   3.976
88979W        W61294   7.243  44.537   1.925
88980W        W61295  10.200  21.278   3.269
88981W        W61296  18.964  31.972   2.708
88982W        W61297  14.209   3.174   3.748
88983W        W61298  26.009  28.555  14.748
88984W        W61299   8.740  23.087  11.191
88985W        W61300  14.175  37.027   2.229
88986W        W61301  27.753  12.258   1.918
88987W        W61302  33.527  35.404   0.304
88988W        W61303  17.616  30.422   1.219
88989W        W61304  27.513  11.624   2.733
88990W        W61305   6.708   9.172  11.656
88991W        W61306   7.369  38.824  13.548
88992W        W61307  34.928  24.003   0.321
88993W        W61308  17.473  38.570  10.241
88994W        W61309  30.768  43.016  11.022
88995W        W61310  23.739  44.902   4.875
88996W        W61311  15.727   6.571   5.073
88997W        W61312  20.745  32.378   3.117
88998W        W61313  32.170  27.910   3.185
88999W        W61314  19.536  36.917   4.036
89000W        W61315  32.218  26.526  10.150
89001W        W61316  33.520  16.034   4.412
89002W        W61317  28.684  27.570   2.319
89003W        W61318  29.346  16.257   3.679
89004W        W61319  21.600  32.124   3.702
89005W        W61320  28.622  17.714   4.322
89006W        W61321  26.612  23.423  14.435
89007W        W61322  19.503  31.890   0.931
89008W        W61323  36.830  44.264  13.168
89009W        W61324   3.370  11.363   1.328
89010W        W61325  39.780  18.181   3.312
89011W        W61326  31.424  40.296   1.216
89012W        W61327  32.000  42.331  13.110
89013W        W61328  12.231  36.520  14.442
89014W        W61329   4.892  42.314  14.440
89015W        W61330  17.715  20.407   0.894
89016W        W61331   9.587  10.363  10.194
89017W        W61332  13.496  42.715   0.228
89018W        W61333  25.917  29.880  11.669
89019W        W61334  18.283  21.140   5.342
89020W        W61335   1.372  43.580  14.289
89021W        W61336  44.765  34.116  14.011
89022W        W61337  22.984   2.741  12.923
89023W        W61338  25.297  42.100  10.514
89024W        W61339  24.686   8.274  14.088
89025W        W61340  21.779  32.047  11.808
89026W        W61341   0.506  24.667  12.394
89027W        W61342  20.537  21.474   3.590
89028W        W61343  34.020  35.045  12.808
89029W        W61344  37.903   2.489  11.142
89030W        W61345  23.321  20.321   2.839
89031W        W61346  22.736  30.662   2.395
89032W        W61347  43.986  33.706   0.576
89033W        W61348   4.233  37.044   3.198
89034W        W61349   1.210  36.651  10.572
89035W        W61350  43.187  35.460   0.431
89036W        W61351  33.074  32.109  14.283
89037W        W61352  42.213  20.201   4.946
89038W        W61353  15.378   9.121  14.004
89039W        W61354  26.683  14.852  14.828
89040W        W61355   0.291  44.484   0.703
89041W        W61356  17.657  12.063   4.389
89042W        W61357  29.615  41.526   1.422
89043W        W61358   4.639   4.824   3.369
89044W        W61359  32.064  16.147  10.778
89045W        W61360   6.098  39.734   0.201
89046W        W61361  20.169   8.919   3.655
89047W        W61362   7.786  14.151   5.085
89048W        W61363  17.635  24.449  14.440
89049W        W61364   4.282  25.624  10.553
89050W        W61365   0.707  11.421   3.618
89051W        W61366  30.959  28.217  13.287
89052W        W61367  17.302  20.166  11.522
89053W        W61368  26.027  20.125   0.411
89054W        W61369  13.584  17.199   1.401
89055W        W61370  39.384  41.315   3.346
89056W        W61371   7.201   4.147  10.699
89057W        W61372  22.223   6.760   4.129
89058W        W61373  39.955   9.087   0.912
89059W        W61374  14.704  39.007  10.703
89060W        W61375  33.154  14.008  10.173
89061W        W61376  11.446  23.106   4.618
89062W        W61377  40.297  42.360  13.336
89063W        W61378  32.328   5.873   3.259
89064W        W61379  26.913  34.092   3.679
89065W        W61380  18.239  34.969   3.278
89066W        W61381  21.187   4.006  10.905
89067W        W61382   2.842  30.957   4.557
89068W        W61383  27.728  14.580   4.174
89069W        W61384   6.754  28.704   1.786
89070W        W61385  33.301   4.934  10.841
89071W        W61386  44.384  24.696   4.044
89072W        W61387  15.624  30.607  12.588
89073W        W61388  16.255  33.740  13.211
89074W        W61389  28.181  22.594   3.191
89075W        W61390  24.137  39.786  14.003
89076W        W61391  43.030   7.015  13.380
89077W        W61392  30.110   9.602  12.857
89078W        W61393  13.215  28.498   1.814
89079W        W61394  11.337  15.642  12.944
89080W        W61395  40.217  17.379  12.384
89081W        W61396  29.577  37.036  12.290
89082W        W61397   7.162   9.664  10.702
89083W        W61398  44.762  39.617   0.233
89084W        W61399  19.540  18.451  11.188
89085W        W61400   2.380  35.096  10.463
89086W        W61401  35.029  35.634   4.275
89087W        W61402  22.451  37.548  13.861
89088W        W61403  23.558  20.701  14.491
89089W        W61404  38.490  28.651  12.392
89090W        W61405   3.719   3.985   2.498
89091W        W61406   4.521  41.215   3.137
89092W        W61407  35.513  21.708   2.762
89093W        W61408  11.801  36.999  13.928
89094W        W61409  22.748  33.977   2.662
89095W        W61410  20.780  32.924  12.218
89096W        W61411  41.282  11.728  14.879
89097W        W61412  36.338  22.151  11.567
89098W        W61413  10.128  24.192   4.241
89099W        W61414  11.176  39.480   0.211
89100W        W61415  26.894  26.065   4.861
89101W        W61416  22.635  10.086  10.933
89102W        W61417  21.358   6.470  14.299
89103W        W61418  18.337  23.231   1.771
89104W        W61419  39.098   4.833  14.509
89105W        W61420  26.847  24.546   0.952
89106W        W61421  31.508  36.052  14.862
89107W        W61422  35.460  39.559   4.546
89108W        W61423  11.853  25.679  14.069
89109W        W61424   8.335  32.659  11.453
89110W        W61425   5.731  20.565  11.653
89111W        W61426  44.900  35.131  13.715
89112W        W61427  16.397   7.591   1.701
89113W        W61428  29.106  25.781  13.412
89114W        W61429  30.175  32.913  13.784
89115W        W61430  26.590  44.240   2.874
89116W        W61431  40.906  20.089   3.873
89117W        W61432  28.235   1.851   1.856
89118W        W61433  17.364  40.500  11.511
89119W        W61434  25.547  20.483   0.634
89120W        W61435   4.340  26.873  10.949
89121W        W61436  20.284  24.225   0.146
89122W        W61437   5.606   4.731  11.999
89123W        W61438   6.326  33.078  12.430
89124W        W61439  12.148  41.635   1.780
89125W        W61440  11.004   9.393  10.718
89126W        W61441  23.779  41.925  10.699
89127W        W61442  10.958  25.423   5.166
89128W        W61443  22.197   7.978  14.323
89129W        W61444  34.035  25.169  12.351
89130W        W61445  42.706  36.959  11.768
89131W        W61446  17.758   7.198  12.105
89132W        W61447  22.993  11.204  11.617
89133W        W61448  20.308   3.960  14.891
89134W        W61449  31.568  11.771  11.153
89135W        W61450  25.608   9.605  13.564
89136W        W61451   6.962   1.433   4.864
89137W        W61452  11.473  26.346  12.590
89138W        W61453  15.574  44.073   2.415
89139W        W61454  30.010  23.114  13.043
89140W        W61455   4.715  28.068  12.791
89141W        W61456  35.050  27.431  13.620
89142W        W61457  13.813   5.300   1.675
89143W        W61458  39.230  38.993  14.130
89144W        W61459  23.185   5.778  14.488
89145W        W61460  17.549   7.758  13.845
89146W        W61461  36.162  42.261  14.392
89147W        W61462  31.530  25.492   2.170
89148W        W61463   2.525  44.462  10.989
89149W        W61464  42.943   9.752   0.931
89150W        W61465  23.513  37.566   0.377
89151W        W61466  31.653  33.361  14.723
89152W        W61467  31.032  23.680   3.206
89153W        W61468   8.186  14.386   0.881
89154W        W61469  10.999  27.142  14.260
89155W        W61470  24.286  27.472   4.558
89156W        W61471  40.078  25.039   1.298
89157W        W61472  10.983  44.759  14.267
89158W        W61473  35.971   3.789   1.319
89159W        W61474  26.455  23.496  10.986
89160W        W61475  17.429   9.864  14.430
89161W        W61476  28.177  44.598  13.965
89162W        W61477  28.178  13.714   3.594
89163W        W61478  33.373  21.496  11.986
89164W        W61479  40.264  39.581   4.218
89165W        W61480   8.467  28.086   0.857
89166W        W61481   7.753  19.554   1.196
89167W        W61482  44.328  39.553  14.912
89168W        W61483  32.862  16.969  10.875
89169W        W61484  16.495  10.817   4.795
89170W        W61485  18.070  42.200   3.728
89171W        W61486  42.414   1.710  11.448
89172W        W61487  11.232  12.385   3.833
89173W        W61488  30.154   4.915   3.581
89174W        W61489  33.916  37.332   1.728
89175W        W61490  28.007  19.495  11.202
89176W        W61491   8.896   9.281   0.192
89177W        W61492  20.091  19.302   3.210
89178W        W61493   9.270  32.887   2.807
89179W        W61494   6.652  34.907   2.738
89180W        W61495  33.089   1.706   1.586
89181W        W61496   9.404   2.840  10.964
89182W        W61497   9.419  12.240  10.695
89183W        W61498  40.000   9.175  12.581
89184W        W61499  21.507  29.017  14.352
89185W        W61500  15.391  19.041  12.760
89186W        W61501  24.682   7.173   1.332
89187W        W61502  26.224  15.191   2.362
89188W        W61503  38.817  11.392   5.191
89189W        W61504  43.916  42.503   0.381
89190W        W61505  32.508  21.134   0.759
89191W        W61506   5.734  44.927   4.516
89192W        W61507  26.710  12.949  11.787
89193W        W61508  19.974  19.199  11.576
89194W        W61509   2.730  29.615  13.552
89195W        W61510   5.377  37.128  14.462
89196W        W61511  30.040  27.084   3.398
89197W        W61512  35.887  33.696   0.753
89198W        W61513  39.918  35.085  11.626
89199W        W61514   9.043  33.698   4.111
89200W        W61515   5.138   0.687  13.380
89201W        W61516  44.938  21.479  13.883
89202W        W61517   6.697  18.588   2.331
89203W        W61518   5.387   6.326  11.888
89204W        W61519  10.876  12.094  11.926
89205W        W61520  27.831  40.357  12.630
89206W        W61521  41.313  29.496  11.687
89207W        W61522  22.577  18.718   1.758
89208W        W61523   4.662  39.204   1.978
89209W        W61524  23.287   3.231  12.120
89210W        W61525  12.138  43.865  11.898
89211W        W61526  22.187   8.048   1.057
89212W        W61527  14.608  21.717   0.974
89213W        W61528   3.978  13.184  14.453
89214W        W61529   9.063  25.989   2.702
89215W        W61530   7.542   3.585  12.487
89216W        W61531   3.484  22.145   4.616
89217W        W61532   0.425  33.562   3.422
89218W        W61533  43.750   2.668   2.701
89219W        W61534  19.752  32.453   2.412
89220W        W61535  14.304  42.537   4.293
89221W        W61536  37.007  18.245  14.544
89222W        W61537  10.632  25.229   0.202
89223W        W61538   7.243  12.447  11.919
89224W        W61539   3.807   2.800  13.399
89225W        W61540  42.854  41.564   5.026
89226W        W61541   3.507  44.196  10.863
89227W        W61542  21.109   6.244  12.013
89228W        W61543  15.806   1.614  12.457
89229W        W61544  43.316   1.702   5.072
89230W        W61545  11.096  22.096   1.307
89231W        W61546  42.453  42.158   3.391
89232W        W61547  16.664  44.269  11.957
89233W        W61548  22.406  34.383  13.285
89234W        W61549  27.688  21.430  11.564
89235W        W61550  33.524  37.149  13.677
89236W        W61551  14.179  13.608   4.397
89237W        W61552  34.147  44.094  13.143
89238W        W61553  15.369   4.815   3.630
89239W        W61554  21.284  10.334  14.904
89240W        W61555  11.668   9.380  12.321
89241W        W61556  37.982  25.133  12.125
89242W        W61557  31.660  16.699  14.482
89243W        W61558  32.145  18.267  13.868
89244W        W61559  21.511  15.598  11.760
89245W        W61560   1.721   9.707   0.291
89246W        W61561  39.916  24.910   4.731
89247W        W61562  35.970  42.453  10.489
89248W        W61563  13.788  41.775   2.379
89249W        W61564  28.452  13.913  10.617
89250W        W61565  25.045  42.967  10.538
89251W        W61566  18.331  42.162  13.465
89252W        W61567  19.581  36.479  12.455
89253W        W61568  19.003  18.342   1.722
89254W        W61569  41.528  23.780   4.964
89255W        W61570  44.035  35.102   1.225
89256W        W61571  13.282  38.558  12.121
89257W        W61572   6.632  20.073  13.634
89258W        W61573   5.220   2.779  14.089
89259W        W61574  11.087  11.366  12.542
89260W        W61575  15.289  20.913   2.830
89261W        W61576  23.954  17.598  12.093
89262W        W61577  25.685   3.411  11.176
89263W        W61578  38.167  43.107  13.612
89264W        W61579  27.702  41.693  13.750
89265W        W61580   9.547  30.398  13.459
89266W        W61581  43.383  41.287  13.036
89267W        W61582  14.769  27.128   1.939
89268W        W61583  26.244  40.949  12.359
89269W        W61584   2.895  38.484   4.903
89270W        W61585  35.599   3.227   1.863
89271W        W61586  15.932  27.273  10.254
89272W        W61587  22.466  44.030  11.558
89273W        W61588   3.691  14.680  14.367
89274W        W61589  13.964  19.554  13.937
89275W        W61590  33.070   9.853  14.220
89276W        W61591  22.796  35.929  11.367
89277W        W61592  31.757  16.724   3.625
89278W        W61593   8.229  16.667   4.083
89279W        W61594  30.991  32.455  11.235
89280W        W61595  33.534  36.793  14.055
89281W        W61596  12.766  40.324  14.325
89282W        W61597  12.111  12.180   4.660
89283W        W61598  24.761   0.259  14.656
89284W        W61599  20.834   5.380  13.483
89285W        W61600   2.349   4.896  14.237
89286W        W61601  44.040  37.157   3.652
89287W        W61602   9.226  40.080   3.662
89288W        W61603   1.285  17.333   0.853
89289W        W61604  13.055   1.335  14.285
89290W        W61605   1.478   3.370  14.349
89291W        W61606   3.371  28.551  14.010
89292W        W61607  30.404  24.773  11.653
89293W        W61608  27.097   5.176  12.298
89294W        W61609  15.255   2.981  12.951
89295W        W61610   4.798  35.005  13.964
89296W        W61611  41.316  13.142   2.344
89297W        W61612  40.951   7.647   1.455
89298W        W61613   7.655  31.489   2.410
89299W        W61614  17.517  34.355  11.085
89300W        W61615  27.920  18.579   2.137
89301W        W61616  43.903   1.342  14.866
89302W        W61617   3.426  37.415  11.985
89303W        W61618  16.251  13.384   3.718
89304W        W61619  40.907  32.613  11.471
89305W        W61620  44.226  16.566   0.831
89306W        W61621   0.819  41.927   1.447
89307W        W61622  18.491  18.157  13.824
89308W        W61623  38.560  35.429   3.873
89309W        W61624  10.329  43.010  11.464
89310W        W61625  16.113  28.138   4.102
89311W        W61626   9.457  28.990  13.870
89312W        W61627   3.687  43.676   2.789
89313W        W61628   8.638  40.342  14.453
89314W        W61629  33.045  35.984  14.931
89315W        W61630  33.535   2.018  12.480
89316W        W61631   8.705  33.186  11.975
89317W        W61632  21.003  29.641   0.583
89318W        W61633   7.192  19.038   4.040
89319W        W61634  24.204  24.468  13.520
89320W        W61635  10.610  44.413  10.209
89321W        W61636  41.044  36.029   0.714
89322W        W61637  15.014  25.056  12.573
89323W        W61638  16.125  26.180  11.267
89324W        W61639  20.122  19.346   2.693
89325W        W61640   3.463  28.628   0.505
89326W        W61641   9.347  42.998  11.902
89327W        W61642   6.008  23.317   4.175
89328W        W61643  12.580   2.665   1.679
89329W        W61644  30.066   5.427   4.073
89330W        W61645  21.765   8.311   0.880
89331W        W61646   5.280  16.994  14.788
89332W        W61647  43.984  42.781   3.117
89333W        W61648  13.745  37.170   1.334
89334W        W61649  31.712  27.996   4.047
89335W        W61650   4.258  12.724   1.683
89336W        W61651  43.127   1.830   1.923
89337W        W61652   3.361  30.919  12.038
89338W        W61653  32.523   0.207  12.486
89339W        W61654  32.541  30.757   3.666
89340W        W61655   0.785  15.684   3.927
89341W        W61656  24.994  18.537   2.476
89342W        W61657  44.197  44.970   0.012
89343W        W61658  26.259  16.599  11.014
89344W        W61659  30.189  19.962  11.932
89345W        W61660  38.360  11.915   0.999
89346W        W61661  12.990  39.065  14.827
89347W        W61662  17.463  30.640   4.015
89348W        W61663  31.596  26.356   0.283
89349W        W61664  39.059  40.351   3.521
89350W        W61665  36.830  19.367   0.389
89351W        W61666  33.526  12.197  11.849
89352W        W61667  36.168  15.329  14.908
89353W        W61668  22.579  24.963  13.508
89354W        W61669   9.309  24.090  13.320
89355W        W61670   8.305   5.107  14.783
89356W        W61671  32.127  25.999   1.383
89357W        W61672   1.033  29.039  13.519
89358W        W61673  39.318  42.701  10.713
89359W        W61674  18.293  31.056   2.044
89360W        W61675  33.045  44.147   2.103
89361W        W61676  18.581  17.518  12.445
89362W        W61677  12.720  26.805  11.084
89363W        W61678  43.976  24.536  10.796
89364W        W61679  35.948  39.464   1.633
89365W        W61680  44.896  19.318   1.039
89366W        W61681  20.663   6.851   4.689
89367W        W61682  25.476  19.348   0.467
89368W        W61683  26.631  17.668  11.521
89369W        W61684  18.698   1.758  11.902
89370W        W61685  25.700  18.688   0.509
89371W        W61686   6.173   5.909   2.469
89372W        W61687  44.533   5.774   2.808
89373W        W61688  37.941   2.391   1.402
89374W        W61689  43.594  38.983   1.117
89375W        W61690  10.408  15.764  12.868
89376W        W61691  14.830  40.908   2.326
89377W        W61692  35.192  26.574  11.071
89378W        W61693  19.275  27.828   2.088
89379W        W61694  43.897   3.990  14.467
89380W        W61695  30.064  12.606  11.054
89381W        W61696   2.489   3.784   4.088
89382W        W61697  41.014  17.764   3.431
89383W        W61698  42.526  36.782   1.860
89384W        W61699   6.807  21.628  14.378
89385W        W61700  43.607  35.425  10.441
89386W        W61701  36.127   6.344   4.696
89387W        W61702  11.648  13.530   1.384
89388W        W61703   6.072  33.498   2.581
89389W        W61704  12.314  41.575   3.163
89390W        W61705  38.983  34.551   3.144
89391W        W61706  26.148  28.734   1.832
89392W        W61707   1.004  33.708  14.897
89393W        W61708  37.343   4.602  12.928
89394W        W61709  41.359  21.500  11.118
89395W        W61710   3.964  32.650   0.333
89396W        W61711  43.694   6.491  11.543
89397W        W61712  20.553   5.605   1.746
89398W        W61713   5.708   6.237   4.152
89399W        W61714   5.493   8.382   2.923
89400W        W61715  29.012  29.555   0.439
89401W        W61716  30.220  18.981  14.943
89402W        W61717  36.837  23.506  14.482
89403W        W61718  43.505   8.725   1.980
89404W        W61719   6.134  28.876  14.413
89405W        W61720  34.063  26.041   2.313
89406W        W61721  12.050  36.675  14.947
89407W        W61722  38.462  20.095   3.202
89408W        W61723  12.118   8.623  12.921
89409W        W61724  26.149  25.397   4.672
89410W        W61725  22.073  29.873  11.161
89411W        W61726   5.129   2.316  13.503
89412W        W61727  16.851  26.672  14.059
89413W        W61728   6.053  14.226   2.794
89414W        W61729   7.437  29.816  12.101
89415W        W61730  16.393  34.846   4.312
89416W        W61731  16.235   4.033  13.352
89417W        W61732  17.411  23.612  11.168
89418W        W61733  43.409  11.535  10.345
89419W        W61734  19.594  44.968   1.072
89420W        W61735  32.620  39.962   4.140
89421W        W61736  33.886  32.513  13.051
89422W        W61737   7.354  36.535   0.822
89423W        W61738  27.648  23.725  12.086
89424W        W61739  39.810  22.255   1.275
89425W        W61740   4.837  41.064   1.324
89426W        W61741  20.995   5.855  11.274
89427W        W61742  38.864  20.564   0.276
89428W        W61743  27.176  22.167   0.649
89429W        W61744  29.496  14.422  14.238
89430W        W61745  33.140  24.573  11.046
89431W        W61746  35.020  22.318   4.857
89432W        W61747  36.482  38.636  11.194
89433W        W61748   0.883  31.412   3.083
89434W        W61749  30.122   2.346   4.303
89435W        W61750  36.820  23.725   1.822
89436W        W61751  30.054   3.853  13.782
89437W        W61752  38.857  14.256   2.643
89438W        W61753  27.167  22.213   3.695
89439W        W61754  32.677  41.133  12.151
89440W        W61755  22.435  41.406   4.480
89441W        W61756  28.596  21.728  11.321
89442W        W61757  28.531  26.824   3.231
89443W        W61758  16.141  24.578   2.402
89444W        W61759  37.980  21.367   1.978
89445W        W61760  19.381   4.675  11.108
89446W        W61761  22.189  30.662  14.320
89447W        W61762  41.840  10.326  14.961
89448W        W61763  19.798  35.970  13.135
89449W        W61764  22.619  21.509  11.353
89450W        W61765  28.978  39.213  11.937
89451W        W61766  41.063  42.899   3.229
89452W        W61767   9.340  18.620   2.778
89453W        W61768   2.863  10.308   1.283
89454W        W61769  28.138  37.869  11.609
89455W        W61770   8.291  29.763   3.699
89456W        W61771  29.184   1.962   4.609
89457W        W61772  21.772   9.278   0.981
89458W        W61773   7.268  39.088  13.073
89459W        W61774  10.733   7.436  14.441
89460W        W61775  17.851   4.024  14.864
89461W        W61776  42.976  31.571  13.023
89462W        W61777   3.735  27.723  10.641
89463W        W61778  26.494  14.560  12.318
89464W        W61779  37.988   3.157   0.352
89465W        W61780  34.622   7.433  13.416
89466W        W61781  40.697  14.672   2.796
89467W        W61782  30.325  37.446   0.001
89468W        W61783  11.919  39.381   1.233
89469W        W61784  10.592  22.070   1.173
89470W        W61785   0.352   7.268   2.815
89471W        W61786  22.882  19.589  14.685
89472W        W61787  44.532   9.274   4.527
89473W        W61788  17.747   5.838  11.395
89474W        W61789  21.545  18.620   4.226
89475W        W61790   7.155  26.817   4.776
89476W        W61791  34.316  22.583   3.274
89477W        W61792  34.479  25.148   0.732
89478W        W61793  23.601  29.374   1.439
89479W        W61794  19.639  10.807   4.172
89480W        W61795  35.652  28.113   4.842
89481W        W61796  14.073  34.282   2.342
89482W        W61797  40.446  28.692   2.954
89483W        W61798  37.434   0.219  13.839
89484W        W61799   8.388  24.145   4.996
89485W        W61800  15.611   4.738   0.884
89486W        W61801  37.987  10.914  11.407
89487W        W61802  44.311   3.293   1.876
89488W        W61803   2.105  40.711   9.773
89489W        W61804   4.708  15.270   0.970
89490W        W61805   7.201  44.151  13.926
89491W        W61806  27.859  10.699  13.790
89492W        W61807  28.608  14.807   1.200
89493W        W61808  33.196   6.365  14.319
89494W        W61809  16.601  40.027   5.304
89495W        W61810  10.422  31.443  13.431
89496W        W61811  23.517  44.770  10.615
89497W        W61812  19.110  38.802  10.591
89498W        W61813  28.495  30.247   0.471
89499W        W61814  23.087  36.401   4.403
89500W        W61815  11.720  42.913  11.232
89501W        W61816   6.332  32.871   0.886
89502W        W61817  31.956  14.885   1.457
89503W        W61818   5.956  28.228   4.843
89504W        W61819   6.338  18.600   0.232
89505W        W61820  28.760  29.603   2.818
89506W        W61821   0.542  14.131   4.434
89507W        W61822  44.699  26.747  10.655
89508W        W61823   2.190  31.596   3.236
89509W        W61824  18.859   4.560   4.915
89510W        W61825   5.369  36.297   1.315
89511W        W61826  14.552  15.309   2.726
89512W        W61827  35.898  36.546  11.498
89513W        W61828   7.977  37.338  10.298
89514W        W61829  12.552  21.968  13.883
89515W        W61830  25.557  21.519  12.021
89516W        W61831   5.089  43.807  11.147
89517W        W61832  12.409   2.011   2.334
89518W        W61833   5.627  43.862  10.901
89519W        W61834  15.705   8.880   5.047
89520W        W61835  15.713   2.911   2.350
89521W        W61836   1.316  39.690  11.554
89522W        W61837  41.402  24.831  12.607
89523W        W61838   5.284  22.648   1.205
89524W        W61839  13.207  13.763   1.049
89525W        W61840   6.823  28.987   2.208
89526W        W61841  21.262  10.829   1.376
89527W        W61842  43.837  14.222   2.194
89528W        W61843  42.288   1.593   2.858
89529W        W61844  11.670  37.447   0.806
89530W        W61845  12.139  44.316   2.249
89531W        W61846  36.901  38.611   0.415
89532W        W61847   3.269  33.588   2.333
89533W        W61848  42.651  12.406  11.582
89534W        W61849  44.499  44.731   1.876
89535W        W61850  23.728   8.377  10.709
89536W        W61851  37.263  20.275  12.103
89537W        W61852   2.473  21.670  14.806
89538W        W61853  25.563  23.798   2.358
89539W        W61854  40.312  22.552   3.776
89540W        W61855  31.124   1.970  12.946
89541W        W61856  27.218  24.018  12.034
89542W        W61857  24.229  19.584   4.632
89543W        W61858  17.361  11.468   2.878
89544W        W61859  18.232  42.407   1.354
89545W        W61860  26.012   7.692   4.769
89546W        W61861  37.098   5.177  14.042
89547W        W61862  39.008  18.335   2.723
89548W        W61863  39.421  40.000  14.511
89549W        W61864  17.297  32.940  11.060
89550W        W61865  44.395   2.460   2.755
89551W        W61866  18.616  37.524  13.593
89552W        W61867  26.394   7.732   3.773
89553W        W61868  34.054  35.601  11.636
89554W        W61869   6.872   3.257   3.568
89555W        W61870  14.024   0.036   3.245
89556W        W61871  40.066  24.769  13.580
89557W        W61872  42.315  32.344   3.142
89558W        W61873  38.248  22.970   4.088
89559W        W61874  22.576  34.323  14.834
89560W        W61875   4.013  35.980  11.472
89561W        W61876  25.754   7.135   3.697
89562W        W61877  14.399  18.080  11.020
89563W        W61878  24.361  12.171  14.063
89564W        W61879  28.267   3.269  14.503
89565W        W61880  24.207  39.032   3.253
89566W        W61881  32.684   6.901   4.459
89567W        W61882   7.278   9.557  11.976
89568W        W61883  41.052  38.567  14.967
89569W        W61884  20.462  11.817   4.249
89570W        W61885  19.223  29.720  12.154
89571W        W61886  13.110  16.218   1.894
89572W        W61887  19.834  35.169  11.022
89573W        W61888  18.455  18.720   5.030
89574W        W61889   7.184  20.570  10.697
89575W        W61890  21.628  20.954  13.875
89576W        W61891  13.388  32.499  10.167
89577W        W61892  22.504  31.946  13.341
89578W        W61893  26.737   2.993  10.532
89579W        W61894  14.861  14.119   2.798
89580W        W61895   1.725   6.940  11.140
89581W        W61896  11.068  36.506  14.947
89582W        W61897  43.022  17.046   3.688
89583W        W61898  39.821  24.075  11.174
89584W        W61899  44.293  35.402   4.278
89585W        W61900   7.071  32.298   4.133
89586W        W61901   1.955   9.533   2.845
89587W        W61902  22.728  25.766  12.572
89588W        W61903  15.342   5.280   1.191
89589W        W61904  33.335  15.794  14.039
89590W        W61905   7.392  44.784   0.856
89591W        W61906  43.848   5.938  11.423
89592W        W61907  16.232  40.427   2.230
89593W        W61908  24.955  34.395  10.984
89594W        W61909  10.410   0.638   4.173
89595W        W61910   5.128   9.784  13.752
89596W        W61911  10.037  22.624  10.751
89597W        W61912   9.350   2.839   1.694
89598W        W61913  12.747   1.391   0.926
89599W        W61914  12.053   8.820   2.122
89600W        W61915  18.738  12.210   1.146
89601W        W61916  14.346  21.332   5.037
89602W        W61917   3.730  24.059   2.446
89603W        W61918  12.583  21.607   0.704
89604W        W61919   6.996  42.449  13.519
89605W        W61920  22.000  37.760   4.082
89606W        W61921  21.581  40.302   2.423
89607W        W61922  41.563   8.482  11.652
89608W        W61923  39.801  36.436  11.195
89609W        W61924  24.268  25.159  13.885
89610W        W61925  42.564  20.786  13.012
89611W        W61926  16.275  15.207   4.141
89612W        W61927  38.623  28.632  13.435
89613W        W61928   3.027   0.390  12.891
89614W        W61929  40.437   5.791   3.792
89615W        W61930   2.467  15.632   3.977
89616W        W61931   7.339  28.204   0.199
89617W        W61932  43.690  37.868   3.247
89618W        W61933   8.197  40.992   3.728
89619W        W61934  35.405   1.433   4.113
89620W        W61935  38.393   2.647  11.150
89621W        W61936   3.521  16.708   2.843
89622W        W61937  21.074  38.110   2.703
89623W        W61938  25.639  25.913  11.220
89624W        W61939  17.139  21.676   0.668
89625W        W61940  28.187  38.052  14.553
89626W        W61941  22.131  14.137  10.498
89627W        W61942  23.007  31.334   0.810
89628W        W61943  30.550  26.664  10.782
89629W        W61944  34.830  35.409  14.789
89630W        W61945  41.368  13.268  13.845
89631W        W61946   9.421   9.142   4.805
89632W        W61947  34.456  43.977  13.557
89633W        W61948  14.373  42.156   2.405
89634W        W61949   5.084   2.198   5.063
89635W        W61950   3.593  14.346  10.230
89636W        W61951   6.801   5.322   4.009
89637W        W61952  40.923  24.721  10.709
89638W        W61953  40.636  31.735   4.237
89639W        W61954  44.543  30.979   1.526
89640W        W61955   4.631  18.176  11.070
89641W        W61956  11.175  42.777   2.924
89642W        W61957   5.175  36.351  10.394
89643W        W61958  23.493  18.184  10.520
89644W        W61959  12.705  21.160   1.644
89645W        W61960  27.033  22.449  10.659
89646W        W61961  30.532  35.266   3.684
89647W        W61962  31.963  15.532   3.243
89648W        W61963  32.072  36.884   3.785
89649W        W61964  32.472  34.588   2.417
89650W        W61965   7.912  11.119   3.952
89651W        W61966   4.737  14.321  13.391
89652W        W61967  13.092  12.725   0.786
89653W        W61968  10.322   5.344   1.890
89654W        W61969  10.176  27.397   0.345
89655W        W61970  24.992   8.697  12.451
89656W        W61971  28.898   8.801  12.867
89657W        W61972  37.345  28.185   1.460
89658W        W61973  18.524   8.850  13.288
89659W        W61974  35.697   0.297   3.753
89660W        W61975   8.194   3.875  14.938
89661W        W61976   3.242  32.440   2.086
89662W        W61977  44.952  22.125   2.678
89663W        W61978  17.160  17.112  11.934
89664W        W61979  14.370   4.352  11.589
89665W        W61980  28.660  19.426  12.173
89666W        W61981  16.046  31.373  12.091
89667W        W61982  34.863   1.353   2.184
89668W        W61983  16.340   2.370   3.227
89669W        W61984  35.113  23.151  10.943
89670W        W61985  34.772   5.802  14.975
89671W        W61986  43.484   2.771   0.297
89672W        W61987  41.464  44.497  14.395
89673W        W61988  11.877  29.479  13.027
89674W        W61989  21.981  44.205  12.540
89675W        W61990  22.034  40.335  11.695
89676W        W61991  15.577   5.280   3.572
89677W        W61992  16.676  31.131   0.725
89678W        W61993   7.630  32.101   3.232
89679W        W61994  36.796  34.076   4.158
89680W        W61995  15.250  11.862   0.679
89681W        W61996  13.258  11.804  11.453
89682W        W61997  22.570  17.578  13.261
89683W        W61998   5.190   3.322  13.472
89684W        W61999  15.797  42.787   1.292
89685W        W62000  27.438  18.954  10.497
89686W        W62001  40.042  32.937  13.972
89687W        W62002  26.960   3.403  10.880
89688W        W62003  27.733  21.043  10.693
89689W        W62004  40.334  18.701   0.081
89690W        W62005   8.804  16.050  14.397
89691W        W62006  37.049  43.710  10.584
89692W        W62007   7.585  18.726   1.294
89693W        W62008  19.339  24.275  12.878
89694W        W62009  28.704  11.199   2.714
89695W        W62010  24.161  15.282  12.075
89696W        W62011  12.635   9.782  13.297
89697W        W62012   8.698  29.458   3.405
89698W        W62013  13.110   4.775   1.475
89699W        W62014  37.300   9.780  13.875
89700W        W62015  11.805  13.821  13.097
89701W        W62016  38.363   3.655  13.963
89702W        W62017  31.694  41.299  13.406
89703W        W62018  43.866  31.581  13.922
89704W        W62019   5.403  19.331  13.317
89705W        W62020   0.971  39.586  13.565
89706W        W62021   8.549   7.847   1.539
89707W        W62022  17.343  10.688   0.371
89708W        W62023  11.640  32.118   1.668
89709W        W62024  18.241  16.796  11.197
89710W        W62025   8.272  37.579  12.564
89711W        W62026  33.895  23.747   0.261
89712W        W62027  15.698  30.824   2.158
89713W        W62028  28.891  35.958   0.516
89714W        W62029  44.993  38.250   1.446
89715W        W62030  12.250  39.439  12.373
89716W        W62031  39.087  34.107  13.354
89717W        W62032  12.692   2.181  10.671
89718W        W62033  27.692   0.808   1.245
89719W        W62034  17.283   3.202  13.797
89720W        W62035  10.907  16.631   3.028
89721W        W62036  38.147  21.176  11.200
89722W        W62037   9.837  41.151   4.234
89723W        W62038  28.022  26.181  12.000
89724W        W62039  41.750  14.634   2.818
89725W        W62040  16.867  14.528   4.117
89726W        W62041   5.327   4.794   2.853
89727W        W62042   8.314   0.557   3.673
89728W        W62043   8.168  28.075  10.720
89729W        W62044  36.109  40.747   1.006
89730W        W62045  27.844   6.888  12.576
89731W        W62046  28.434   1.569   0.283
89732W        W62047  12.573  38.061   0.988
89733W        W62048  31.656  10.073   2.854
89734W        W62049  16.838  42.840   4.603
89735W        W62050   4.199  17.093   3.676
89736W        W62051  35.180  42.107   3.688
89737W        W62052   0.517  12.664  10.230
89738W        W62053  40.992   9.740   0.875
89739W        W62054   8.932  33.876   2.121
89740W        W62055  29.676   1.895   3.613
89741W        W62056  23.128  21.765  11.633
89742W        W62057  28.764   2.519   0.500
89743W        W62058  44.458  20.468  12.953
89744W        W62059  16.194  18.783   1.882
89745W        W62060   3.464   1.716  14.856
89746W        W62061  28.982  21.247  12.367
89747W        W62062  25.561  11.873  11.054
89748W        W62063  22.231  35.514   2.962
89749W        W62064  13.571  15.157  12.304
89750W        W62065  25.476   6.096  10.611
89751W        W62066  29.480  28.406   3.729
89752W        W62067  44.251   8.217   0.993
89753W        W62068   9.906  28.043   4.172
89754W        W62069  38.349  41.423  13.804
89755W        W62070  11.463  25.085  13.359
89756W        W62071  15.735  13.648   0.263
89757W        W62072  32.942  31.394   1.234
89758W        W62073  22.571  26.686  13.121
89759W        W62074  34.537   6.065  14.579
89760W        W62075   4.396  39.748   2.348
89761W        W62076  21.069   8.404  13.647
89762W        W62077  11.139  16.693   4.830
89763W        W62078  32.571   4.891  13.574
89764W        W62079   5.972  39.617  12.909
89765W        W62080   2.376  44.368  11.908
89766W        W62081  30.246  40.927  10.639
89767W        W62082  25.731  15.797   3.431
89768W        W62083  23.538   9.760  12.633
89769W        W62084  17.857  21.166   2.594
89770W        W62085  15.377  42.343   2.649
89771W        W62086  39.512   0.899   1.005
89772W        W62087  43.483  27.950  12.698
89773W        W62088   5.740  30.116  11.441
89774W        W62089   4.886  36.069   4.226
89775W        W62090  23.816  21.438   3.610
89776W        W62091  18.107  36.097   1.657
89777W        W62092  18.648  26.139  14.800
89778W        W62093  43.658   5.972   2.950
89779W        W62094  23.468  36.958  12.460
89780W        W62095   5.791  29.174   1.683
89781W        W62096   9.344  40.868  13.371
89782W        W62097   1.382  42.686   3.307
89783W        W62098  17.107  44.922  12.985
89784W        W62099  18.231  32.585   1.808
89785W        W62100   0.353   4.340   4.720
89786W        W62101  15.073  32.935  10.695
89787W        W62102  21.785  23.071   3.256
89788W        W62103   5.254  25.571   0.046
89789W        W62104  19.531   7.884   5.006
89790W        W62105  14.541  39.073  12.933
89791W        W62106   5.472   0.777  11.990
89792W        W62107  20.312  41.106  13.979
89793W        W62108  18.767  26.048   4.260
89794W        W62109  22.736  23.536  14.180
89795W        W62110   9.643  14.278   4.560
89796W        W62111   3.328  42.811   0.021
89797W        W62112  15.790  43.871   0.544
89798W        W62113  28.497  16.782  10.700
89799W        W62114  38.379  36.911  11.429
89800W        W62115  36.049  35.368  12.715
89801W        W62116  29.056  28.126   0.189
89802W        W62117  17.455  33.610  10.732
89803W        W62118  15.418   1.202  10.888
89804W        W62119  29.403  29.153  11.423
89805W        W62120  42.004  23.493  10.597
89806W        W62121   1.655  27.792   0.819
89807W        W62122  40.403  38.086  13.896
89808W        W62123  44.672  36.897  14.078
89809W        W62124  21.163  17.726   1.698
89810W        W62125  18.002   8.397   4.234
89811W        W62126   6.421   0.984  13.035
89812W        W62127  42.439  17.509   2.442
89813W        W62128   6.891  24.957  11.009
89814W        W62129  26.998   6.912   0.482
89815W        W62130  41.702  35.619  12.023
89816W        W62131  41.846  12.497   0.233
89817W        W62132   0.480   3.551   4.125
89818W        W62133  26.542  25.991   2.457
89819W        W62134  13.298  44.047  12.641
89820W        W62135  25.593  32.428  13.095
89821W        W62136   0.759   5.381   0.467
89822W        W62137   5.334   0.828   2.363
89823W        W62138  23.183  43.754   1.279
89824W        W62139   1.053  29.652   1.291
89825W        W62140  43.637  12.760  11.546
89826W        W62141   3.408   7.018  13.949
89827W        W62142  15.998  30.905  10.951
89828W        W62143  28.138   0.766   0.879
89829W        W62144  37.473  11.867   1.001
89830W        W62145  13.690  11.623   1.464
89831W        W62146  30.995   2.232   1.280
89832W        W62147  38.094  32.070   1.847
89833W        W62148   1.838   5.167  11.854
89834W        W62149  30.381  10.658  11.591
89835W        W62150  17.263  20.540  13.896
89836W        W62151  15.570  32.126  10.811
89837W        W62152  36.499  24.588   2.347
89838W        W62153   3.293  20.847  14.969
89839W        W62154  32.182  32.163   0.280
89840W        W62155  26.119  33.034  12.107
89841W        W62156  38.073  37.502   1.425
89842W        W62157  21.461   7.284   2.331
89843W        W62158   1.772  31.899   1.662
89844W        W62159  29.211  36.002  11.574
89845W        W62160  30.198   9.859  11.430
89846W        W62161  35.211  31.250  11.137
89847W        W62162  32.903  26.950   1.383
89848W        W62163   3.026  18.156   4.030
89849W        W62164   9.180  20.624   3.263
89850W        W62165  22.591  14.047   1.482
89851W        W62166  40.980  15.876   1.349
89852W        W62167  34.334  40.928  13.941
89853W        W62168  11.508   0.264   1.352
89854W        W62169  28.080  32.078   1.288
89855W        W62170  29.144  24.916  11.772
89856W        W62171   0.994  27.196   2.189
89857W        W62172  16.846   7.788   0.618
89858W        W62173   2.365  43.168  11.080
89859W        W62174   1.933  30.450   0.186
89860W        W62175  30.472  13.307   2.256
89861W        W62176  34.889  28.206   0.727
89862W        W62177  26.269  31.242  12.789
89863W        W62178   0.986  10.308   0.233
89864W        W62179  33.639   7.505   4.119
89865W        W62180  29.824  31.525  12.114
89866W        W62181  37.376  41.804   3.006
89867W        W62182  10.615   2.613  12.468
89868W        W62183  35.990   6.866   3.869
89869W        W62184  33.082  17.162  13.980
89870W        W62185  21.666  41.554  10.721
89871W        W62186  40.788  27.533   1.806
89872W        W62187  25.044  39.876  11.198
89873W        W62188  11.392  30.325   3.656
89874W        W62189  11.527  26.340  10.239
89875W        W62190   6.969  19.873   3.803
89876W        W62191  22.344  13.472  11.521
89877W        W62192  18.286  29.047  14.876
89878W        W62193  36.133  37.861  11.305
89879W        W62194  10.659  25.560   1.666
89880W        W62195  44.468  14.123  13.332
89881W        W62196  17.557  32.000   2.304
89882W        W62197  10.180  32.542   2.356
89883W        W62198  40.892   1.088  11.511
89884W        W62199  24.388   8.785  10.828
89885W        W62200  19.089   1.887   4.526
89886W        W62201  42.513   8.337   2.171
89887W        W62202  27.980  43.346  12.841
89888W        W62203  34.899  26.674   4.000
89889W        W62204  34.055  24.435  14.562
89890W        W62205   7.905  10.707   0.441
89891W        W62206  41.834   5.377   1.171
89892W        W62207  42.087  31.955   1.912
89893W        W62208   9.464  42.955   0.876
89894W        W62209  39.508  38.554  14.602
89895W        W62210  39.564   7.895  14.594
89896W        W62211  43.017  32.429   4.558
89897W        W62212  42.790  19.100  11.158
89898W        W62213  23.251  43.415  10.905
89899W        W62214  40.840  12.813   4.153
89900W        W62215  35.091  30.438  11.507
89901W        W62216   1.921  26.928   3.259
89902W        W62217  17.362  33.665  12.394
89903W        W62218  40.048  43.507   1.436
89904W        W62219  18.684  35.604   2.203
89905W        W62220  33.899  32.537  11.143
89906W        W62221   7.086  42.048   3.642
89907W        W62222   2.217  35.559  13.567
89908W        W62223  11.293  39.837  11.978
89909W        W62224  23.238   7.021  13.756
89910W        W62225  35.304  22.965  14.566
89911W        W62226  22.156  25.253  14.745
89912W        W62227  27.710  34.419   0.332
89913W        W62228  24.665  38.999  14.401
89914W        W62229  31.965   6.456   4.629
89915W        W62230   6.344  26.130  14.674
89916W        W62231  36.955  10.981  14.312
89917W        W62232  40.780  31.337   1.000
89918W        W62233  15.209  20.842  12.680
89919W        W62234   8.735  35.034   4.244
89920W        W62235  39.346  19.018  10.770
89921W        W62236  30.232  37.599  12.018
89922W        W62237  44.412  19.741   1.556
89923W        W62238  27.680   9.423  12.751
89924W        W62239  22.308   7.602   0.847
89925W        W62240  11.767  16.985   2.151
89926W        W62241  27.622   8.952   1.306
89927W        W62242  35.061  31.098  13.740
89928W        W62243  32.108   9.146  14.875
89929W        W62244   0.639  24.167  12.384
89930W        W62245  40.526   7.110  13.132
89931W        W62246   7.419  22.160  12.943
89932W        W62247  31.728  35.902   3.649
89933W        W62248  30.034  29.827   3.145
89934W        W62249  14.111  27.376   0.773
89935W        W62250  26.453   7.290  13.739
89936W        W62251   3.247   0.013  11.429
89937W        W62252   0.891  42.508   3.263
89938W        W62253  10.312   5.400  12.216
89939W        W62254  11.768   3.419  12.965
89940W        W62255  36.067  18.704  14.443
89941W        W62256  27.464   0.137   2.351
89942W        W62257  15.989  13.270  12.196
89943W        W62258   3.434   1.773  11.868
89944W        W62259  38.556   5.453   3.277
89945W        W62260  14.801   7.857   2.304
89946W        W62261  19.932  23.542  10.980
89947W        W62262  21.884   8.193   4.436
89948W        W62263  16.279  35.576  11.692
89949W        W62264  35.599  19.201   0.716
89950W        W62265  39.681  28.982   3.151
89951W        W62266  38.944   9.049   2.647
89952W        W62267   7.634   3.732  10.809
89953W        W62268  28.845  18.790  11.148
89954W        W62269  13.669  34.183   4.648
89955W        W62270  17.104  30.752  12.732
89956W        W62271   0.482   3.620  13.724
89957W        W62272   1.855   6.604   2.474
89958W        W62273  16.097  33.444  11.669
89959W        W62274  22.055  20.845  14.862
89960W        W62275  15.608  17.058  11.736
89961W        W62276   1.022  44.017   0.573
89962W        W62277  34.912  10.616   3.307
89963W        W62278  39.044  27.156  14.946
89964W        W62279  22.715  24.137  10.626
89965W        W62280  19.622  18.422  12.477
89966W        W62281  39.123  17.262  13.556
89967W        W62282  29.627  17.787  10.857
89968W        W62283   5.173  18.779   2.308
89969W        W62284  31.408  15.734  13.833
89970W        W62285  28.641  37.734  14.401
89971W        W62286  36.879  11.176  10.958
89972W        W62287  29.036   7.369   4.471
89973W        W62288  20.217  21.111   3.342
89974W        W62289  22.227  36.669  12.001
89975W        W62290   9.099  34.306   0.309
89976W        W62291  14.100  25.959  12.583
89977W        W62292  41.443   3.654  13.484
89978W        W62293  26.941   6.187  11.482
89979W        W62294  33.906  35.878   0.356
89980W        W62295  21.396  23.425   3.274
89981W        W62296  11.235  33.272  11.097
89982W        W62297  16.201  29.702  10.575
89983W        W62298   8.432  16.185   0.920
89984W        W62299  28.106  37.634   2.208
89985W        W62300  36.562  41.408   0.882
89986W        W62301  29.185  18.107   1.283
89987W        W62302  25.102  21.268   3.313
89988W        W62303  32.066  22.528  14.817
89989W        W62304   1.615  16.832  11.529
89990W        W62305  44.861  17.871  13.874
89991W        W62306   8.651   6.437  12.127
89992W        W62307  14.600  19.011  12.068
89993W        W62308  41.661  20.748   2.875
89994W        W62309  15.818  42.341   0.447
89995W        W62310  26.501  25.746  11.954
89996W        W62311  38.856  22.230  13.503
89997W        W62312  15.812   9.328  13.806
89998W        W62313  10.668  19.528   9.748
89999W        W62314  41.580  35.809  14.560
90000W        W62315  39.006  32.989  11.689
90001W        W62316  20.990  30.962   1.360
90002W        W62317  10.574  40.096  12.465
90003W        W62318   4.172  33.833   1.384
90004W        W62319  22.558  42.697   5.117
90005W        W62320  26.256  42.997   2.469
90006W        W62321  27.443  26.947   2.219
90007W        W62322   1.400  39.604   0.864
90008W        W62323  13.737  21.106  10.888
90009W        W62324  41.974  18.650   0.675
90010W        W62325  13.724  30.863   3.382
90011W        W62326  38.539  33.827   3.097
90012W        W62327  29.048  23.819   3.233
90013W        W62328  35.569  18.080   2.543
90014W        W62329  43.349   6.738  12.976
90015W        W62330  41.814  27.630  12.587
90016W        W62331   1.834   2.940  11.423
90017W        W62332  37.905  13.682  14.404
90018W        W62333  27.446   5.305  11.604
90019W        W62334   2.832   3.867  12.422
90020W        W62335  24.084   2.857  12.885
90021W        W62336  40.326  20.638   3.346
90022W        W62337  23.320   5.955   2.178
90023W        W62338  22.629   5.461   0.195
90024W        W62339   5.851  28.045  10.584
90025W        W62340  33.118  21.360   3.788
90026W        W62341  35.993  33.856   1.932
90027W        W62342  25.277  21.454   2.307
90028W        W62343   5.198  39.430   2.783
90029W        W62344  38.532  10.128  11.439
90030W        W62345   1.365  24.060   4.281
90031W        W62346   4.937   1.756   2.413
90032W        W62347  22.895  23.699  11.444
90033W        W62348  21.718  44.913   4.119
90034W        W62349  29.496  41.101  14.945
90035W        W62350  28.197   3.844  13.789
90036W        W62351  30.457  14.100  12.062
90037W        W62352  29.476  12.358   3.303
90038W        W62353  16.660  35.986  12.491
90039W        W62354  26.897  13.184  13.484
90040W        W62355  44.947  12.930  12.008
90041W        W62356  20.279  38.730  11.463
90042W        W62357  13.084  18.054  13.299
90043W        W62358  29.860  40.986  10.971
90044W        W62359  22.203  10.608  13.910
90045W        W62360  40.465  42.876  12.482
90046W        W62361  40.530  26.147  14.699
90047W        W62362  43.980  15.839   2.810
90048W        W62363  23.517  27.989   1.242
90049W        W62364  11.232  13.119  13.996
90050W        W62365  34.057  22.386  12.834
90051W        W62366  41.145  44.459   2.475
90052W        W62367   9.744  35.020  14.979
90053W        W62368  15.673  18.598  12.808
90054W        W62369   1.662  16.821  12.430
90055W        W62370  29.803  42.482   4.246
90056W        W62371  32.121  31.917   1.291
90057W        W62372  35.379  26.649   1.351
90058W        W62373  25.942  24.172  11.143
90059W        W62374  12.347  36.084   2.647
90060W        W62375  27.659  34.097   0.771
90061W        W62376   1.946  26.515   1.255
90062W        W62377  12.251  13.162  13.237
90063W        W62378  33.889  31.090  12.807
90064W        W62379  23.947  14.257  11.503
90065W        W62380   8.332  28.521  13.804
90066W        W62381  31.028  10.824  11.110
90067W        W62382  12.225  28.571  13.352
90068W        W62383  15.596  30.595   0.277
90069W        W62384  43.688   2.683  14.782
90070W        W62385  14.046   7.902   2.004
90071W        W62386  42.419  20.023  12.563
90072W        W62387   0.361  13.605   5.083
90073W        W62388  23.902  43.171  10.248
90074W        W62389  17.665   5.040  12.614
90075W        W62390   1.472  18.669  14.972
90076W        W62391  26.862  31.617  14.859
90077W        W62392  22.946  25.438   0.731
90078W        W62393  11.080  41.531  14.470
90079W        W62394  31.530   6.308  11.729
90080W        W62395   9.175  28.401  11.063
90081W        W62396  26.098  13.624  11.293
90082W        W62397  21.385  41.069  12.120
90083W        W62398  38.057  43.054  12.660
90084W        W62399  12.647  19.291  12.953
90085W        W62400  44.391  38.612   1.631
90086W        W62401  31.341  19.943   2.359
90087W        W62402  35.058   3.933  12.518
90088W        W62403  44.999  44.705  11.103
90089W        W62404  17.776  10.713   5.669
90090W        W62405  40.639   9.905  12.579
90091W        W62406  44.721  12.400   4.173
90092W        W62407  43.751  11.758  11.092
90093W        W62408  25.446  18.572  12.076
90094W        W62409  32.387  40.445  11.624
90095W        W62410  29.169   7.601  11.020
90096W        W62411  22.599  32.580   1.906
90097W        W62412  40.829   7.258  12.318
90098W        W62413  13.044  39.073   3.196
90099W        W62414   9.912  17.797   2.268
90100W        W62415  34.392  44.934  13.008
90101W        W62416  18.628  16.915  10.795
90102W        W62417  30.813  10.207  12.445
90103W        W62418  21.498  22.215  14.454
90104W        W62419  31.366   7.318   3.314
90105W        W62420   3.866  37.940   3.087
90106W        W62421  43.826  29.550  13.733
90107W        W62422  41.095   1.105  11.016
90108W        W62423  23.097  29.933   3.438
90109W        W62424   8.099   5.746  12.525
90110W        W62425  39.485  34.064   4.663
90111W        W62426  38.541  21.312  11.523
90112W        W62427  36.570   7.864  12.891
90113W        W62428  17.214   3.343  14.314
90114W        W62429  12.295   0.988  12.502
90115W        W62430   9.332   7.692   1.853
90116W        W62431  35.189  43.202   2.599
90117W        W62432  36.279  30.595   1.262
90118W        W62433  39.262  23.291   9.338
90119W        W62434  10.805  34.506   3.276
90120W        W62435  17.260   2.059   4.110
90121W        W62436   0.952   2.336   3.118
90122W        W62437  32.593  34.407   0.517
90123W        W62438  20.184   7.224  14.188
90124W        W62439  27.330  27.114   0.001
90125W        W62440  17.361  26.224  11.569
90126W        W62441  38.089  41.697  14.323
90127W        W62442  39.236   1.070   0.048
90128W        W62443  12.247  35.637   0.693
90129W        W62444  41.751  28.992  11.958
90130W        W62445  38.115   1.119   0.552
90131W        W62446  44.695  23.751   4.566
90132W        W62447  11.315  31.009  14.310
90133W        W62448   6.175   1.013   0.282
90134W        W62449  13.607  36.487  12.836
90135W        W62450  42.754   1.241   4.113
90136W        W62451  30.384  30.363  13.525
90137W        W62452   9.538  36.015  13.765
90138W        W62453   2.940  31.664   2.670
90139W        W62454   0.904  36.433  10.222
90140W        W62455  28.078  13.735  14.898
90141W        W62456  12.171  39.484   0.225
90142W        W62457  11.286   0.802  12.006
90143W        W62458   7.208  11.388  11.054
90144W        W62459   8.432  22.565  12.586
90145W        W62460  26.600   5.163   0.318
90146W        W62461   4.176  42.068  13.722
90147W        W62462  37.284  40.760   0.355
90148W        W62463  13.760  22.030  12.946
90149W        W62464   2.205  23.061   1.209
90150W        W62465  11.553  16.673   0.332
90151W        W62466  12.177   2.997   3.434
90152W        W62467  32.441  33.480  10.325
90153W        W62468   2.012   7.165  12.645
90154W        W62469  12.101  34.021   3.477
90155W        W62470  38.563  21.793   2.979
90156W        W62471  36.878  40.305   0.911
90157W        W62472  41.253  42.042  11.990
90158W        W62473   6.248  44.354  10.680
90159W        W62474   1.034  40.694  10.394
90160W        W62475   0.655   7.227   0.904
90161W        W62476  30.097  20.956   1.292
90162W        W62477  41.282  32.065  11.002
90163W        W62478  40.246  24.719   3.688
90164W        W62479   9.435  29.074   2.167
90165W        W62480  37.870  37.953  13.990
90166W        W62481  18.567  19.859  14.576
90167W        W62482  26.056   3.125   0.117
90168W        W62483  41.450   2.454   3.788
90169W        W62484  44.875  29.686   3.311
90170W        W62485  44.762   1.830  12.965
90171W        W62486  30.516  25.630  12.887
90172W        W62487  15.901  21.550   4.145
90173W        W62488   6.904  18.818   1.885
90174W        W62489   1.792   8.375   0.875
90175W        W62490   1.109  19.088   2.017
90176W        W62491  20.254  27.715  11.222
90177W        W62492  42.002  22.211   1.245
90178W        W62493   0.841  18.381   2.724
90179W        W62494  19.102   7.942   4.676
90180W        W62495  33.880  29.305  12.542
90181W        W62496  39.433  31.526   1.304
90182W        W62497  41.381  42.327  13.873
90183W        W62498   9.920  34.941  13.315
90184W        W62499  41.085  13.274   4.242
90185W        W62500  27.627  12.642  11.174
90186W        W62501  11.143  21.196  12.439
90187W        W62502  22.927   9.184  12.968
90188W        W62503  17.657   5.963  14.952
90189W        W62504  35.287  41.870   2.834
90190W        W62505  37.138  34.864   3.164
90191W        W62506  32.859  13.198  13.367
90192W        W62507  13.248   1.445   0.546
90193W        W62508  35.180  17.183   3.643
90194W        W62509  20.141  32.755   0.924
90195W        W62510   4.130  40.828   3.321
90196W        W62511  25.500  35.607   2.628
90197W        W62512   3.835   8.364  13.171
90198W        W62513  41.262  14.047   2.285
90199W        W62514   5.693  20.293   4.092
90200W        W62515  30.028  12.082  14.484
90201W        W62516  19.580  19.223  12.849
90202W        W62517  19.462   0.446  11.622
90203W        W62518  17.668  25.006   2.144
90204W        W62519  38.533  42.700   1.156
90205W        W62520  17.604   5.824   4.695
90206W        W62521  20.070   5.900   9.966
90207W        W62522  31.171  29.079   4.584
90208W        W62523  39.871  18.729   1.866
90209W        W62524   3.801  20.032   4.473
90210W        W62525  23.710  37.590   4.039
90211W        W62526  37.005  44.925  13.972
90212W        W62527   6.854   6.251   0.948
90213W        W62528  25.462   3.829   3.302
90214W        W62529  22.379  33.542   1.825
90215W        W62530  22.993   3.479   3.211
90216W        W62531   2.967  24.789   3.243
90217W        W62532  18.983  11.244  10.221
90218W        W62533  44.345  28.724   4.327
90219W        W62534  17.089  25.928  11.918
90220W        W62535  17.320  37.928   0.829
90221W        W62536   4.963  27.216  11.143
90222W        W62537  17.299  19.102   4.338
90223W        W62538   5.378   8.258  11.003
90224W        W62539   9.167  15.999  13.106
90225W        W62540  11.569  37.089   4.876
90226W        W62541   1.470  32.387  12.613
90227W        W62542  29.192  41.446   3.921
90228W        W62543   0.346  41.299   4.083
90229W        W62544  20.691   2.007   3.158
90230W        W62545  36.870  18.805  12.756
90231W        W62546   7.453   3.224  10.784
90232W        W62547  32.078  11.706  14.259
90233W        W62548  27.700  20.271  12.933
90234W        W62549  15.757  14.604   1.480
90235W        W62550   2.814  31.862   1.811
90236W        W62551   9.484  12.954   1.953
90237W        W62552  27.467  13.296   4.651
90238W        W62553  28.450  25.155  14.954
90239W        W62554  14.486  14.089  14.121
90240W        W62555  34.310  32.641   3.134
90241W        W62556  44.759  11.148   0.453
90242W        W62557   9.047  22.235  13.335
90243W        W62558  35.479  41.252  13.777
90244W        W62559   2.527  34.698  10.105
90245W        W62560   7.308  13.171   3.334
90246W        W62561   3.917  19.240  12.112
90247W        W62562  21.290  41.372   3.655
90248W        W62563  41.756  14.070   2.386
90249W        W62564   9.452   2.794  14.500
90250W        W62565   1.836   2.506  12.229
90251W        W62566  23.967  17.508  11.152
90252W        W62567  35.605  16.243  12.816
90253W        W62568  17.427  30.192  13.362
90254W        W62569   5.866   7.360  12.297
90255W        W62570   4.969  42.861   1.533
90256W        W62571  10.078   5.398  14.016
90257W        W62572  32.416   5.097  14.033
90258W        W62573  36.359  34.688  14.027
90259W        W62574  38.028  23.615   4.144
90260W        W62575  28.648  12.836  12.979
90261W        W62576  16.751  18.634  14.047
90262W        W62577   6.539  44.978   3.292
90263W        W62578   2.784  40.874   4.229
90264W        W62579  29.439  41.254   1.016
90265W        W62580  10.139  24.687   4.373
90266W        W62581  12.089  21.596   0.785
90267W        W62582  31.759   1.365  11.148
90268W        W62583  38.952  11.628   2.589
90269W        W62584  34.394  39.433  11.056
90270W        W62585   7.204  34.158  12.441
90271W        W62586   7.300   1.255  11.240
90272W        W62587  16.965  40.883   0.368
90273W        W62588  17.752  33.358   3.849
90274W        W62589   7.132  18.696  13.126
90275W        W62590  17.740  25.787   3.610
90276W        W62591  14.093  11.019   2.658
90277W        W62592  28.542  17.316   2.916
90278W        W62593  22.514  25.495   4.860
90279W        W62594   4.266   6.185  14.743
90280W        W62595  18.116  42.980  13.246
90281W        W62596   2.824  12.129  10.661
90282W        W62597  15.753  34.905  12.396
90283W        W62598  39.521  14.438   3.440
90284W        W62599  26.895   0.818   3.736
90285W        W62600  30.939  30.859  11.585
90286W        W62601  29.015  35.916   3.801
90287W        W62602   6.724  19.240   4.225
90288W        W62603  33.165  24.155   3.123
90289W        W62604  13.078   3.477  10.781
90290W        W62605  34.953  41.796  14.697
90291W        W62606   2.695  32.894   1.931
90292W        W62607   3.571  11.431  14.878
90293W        W62608  41.859  37.031   1.718
90294W        W62609  31.975  25.196  13.416
90295W        W62610   1.720  28.052  12.882
90296W        W62611  16.213   6.649  14.419
90297W        W62612  14.068  42.404  12.124
90298W        W62613  39.802  43.331   1.012
90299W        W62614  31.679  18.009  13.776
90300W        W62615  26.547  27.325   4.497
90301W        W62616  29.204  43.811   0.846
90302W        W62617   2.548  11.680  14.268
90303W        W62618  39.445  33.595   0.040
90304W        W62619   0.813  39.008   4.498
90305W        W62620   6.328   3.730  10.136
90306W        W62621   3.996  31.150   1.657
90307W        W62622  30.928  22.250   0.306
90308W        W62623  34.892   8.164  12.386
90309W        W62624  38.452   4.359   2.340
90310W        W62625  26.707  24.723  12.035
90311W        W62626   8.815  31.049   0.030
90312W        W62627   3.254  27.309   4.141
90313W        W62628  16.606  38.619   5.215
90314W        W62629  20.182  17.138  10.644
90315W        W62630  42.617   6.404   1.438
90316W        W62631  36.519  29.488   2.743
90317W        W62632  20.059  25.659   0.599
90318W        W62633   4.690  31.214  14.465
90319W        W62634  24.134   4.281  13.101
90320W        W62635   9.899  10.702  13.931
90321W        W62636  36.879  43.912   4.874
90322W        W62637  14.269  41.582   1.189
90323W        W62638  31.103   5.444  11.097
90324W        W62639   2.942  37.194  12.097
90325W        W62640  24.190  10.833  11.399
90326W        W62641   0.805  44.102   5.030
90327W        W62642   8.724  30.584  11.942
90328W        W62643  33.239  35.045   3.195
90329W        W62644  30.872  15.359   2.352
90330W        W62645  41.403   3.210  14.808
90331W        W62646   8.210   2.995  12.739
90332W        W62647   6.832  19.199  11.062
90333W        W62648  28.965  37.224   1.874
90334W        W62649   1.340  40.897  13.073
90335W        W62650  26.377  35.016   2.330
90336W        W62651  32.597  43.866  12.120
90337W        W62652  33.752  38.726   3.469
90338W        W62653  29.520   7.982  14.376
90339W        W62654  25.671  30.953   4.301
90340W        W62655  10.704   0.419   4.564
90341W        W62656  30.505  15.205  11.143
90342W        W62657  12.633   2.908   3.668
90343W        W62658  44.242   5.051  12.418
90344W        W62659  40.484  35.567  12.555
90345W        W62660  10.253  11.091  10.664
90346W        W62661  17.144   9.776  12.650
90347W        W62662  22.639   2.039   4.160
90348W        W62663  20.040  28.438  11.655
90349W        W62664  12.122  39.854  11.508
90350W        W62665  44.002   3.371   9.994
90351W        W62666  12.877   0.306  13.781
90352W        W62667   9.080  24.125   0.797
90353W        W62668  40.743  39.825   3.417
90354W        W62669   4.039  31.997   3.170
90355W        W62670  25.579  18.206  14.840
90356W        W62671  30.890  27.137   1.942
90357W        W62672  24.698  43.509   1.566
90358W        W62673  27.123  38.374   3.138
90359W        W62674  13.665  23.525  13.887
90360W        W62675   0.617  16.609   0.851
90361W        W62676  22.168  43.041  13.336
90362W        W62677   2.388  13.583  12.617
90363W        W62678  12.009  18.693  11.679
90364W        W62679  10.991  44.755  13.761
90365W        W62680  26.012  12.632  13.268
90366W        W62681  16.896  36.835   0.313
90367W        W62682   8.314   2.653   1.810
90368W        W62683  19.933  15.742   2.895
90369W        W62684  20.525   8.349  14.263
90370W        W62685  27.719   1.024  10.955
90371W        W62686   4.906   4.028  13.948
90372W        W62687  44.909   7.336   1.617
90373W        W62688   7.348  21.210   3.894
90374W        W62689  29.384  39.924  13.698
90375W        W62690  33.136  35.040  11.540
90376W        W62691  20.807   9.091   5.453
90377W        W62692  20.652   9.793   5.218
90378W        W62693   0.006  31.498  13.006
90379W        W62694  32.068  44.760  12.350
90380W        W62695  34.808  44.238  11.213
90381W        W62696  24.310  34.452   4.128
90382W        W62697  35.832  43.926   2.706
90383W        W62698  16.173  28.418  12.548
90384W        W62699  40.268  10.106  12.880
90385W        W62700  11.579  23.788  12.558
90386W        W62701   7.592   5.494   3.382
90387W        W62702  18.043  33.739   4.076
90388W        W62703  20.135  27.209   2.234
90389W        W62704  32.520   9.444  13.562
90390W        W62705   4.725  11.614   2.810
90391W        W62706  10.861  22.859  12.664
90392W        W62707  39.435  13.533   0.340
90393W        W62708  33.107  37.439   3.236
90394W        W62709  24.941  34.883  14.979
90395W        W62710  31.114   3.167   0.359
90396W        W62711  10.306  13.275   2.181
90397W        W62712  26.526  16.183   2.897
90398W        W62713  28.291   7.516  14.828
90399W        W62714  14.190  39.110   4.097
90400W        W62715  39.090   6.151  12.428
90401W        W62716  17.735  36.781  12.958
90402W        W62717  38.220  19.449   1.416
90403W        W62718  20.663   3.903   0.689
90404W        W62719   4.249  14.364  12.511
90405W        W62720  29.172  14.737   0.027
90406W        W62721  31.886  40.560   1.276
90407W        W62722  21.403  29.221  12.438
90408W        W62723  26.621  39.318   1.239
90409W        W62724  44.761  23.408  13.413
90410W        W62725  18.147  20.455  13.809
90411W        W62726  15.164  34.448   1.622
90412W        W62727  22.127  14.241   0.253
90413W        W62728  31.003  23.791   1.216
90414W        W62729  35.945  15.402  14.439
90415W        W62730  31.001   0.812  13.848
90416W        W62731  27.209  24.711   4.118
90417W        W62732   4.342  29.908  13.053
90418W        W62733  41.746  31.166   1.393
90419W        W62734  31.407  10.920   3.233
90420W        W62735  30.880  24.599   1.016
90421W        W62736   3.429  29.616   1.807
90422W        W62737  16.201   2.937   0.080
90423W        W62738   7.758  33.818   2.015
90424W        W62739  25.432  18.185   0.855
90425W        W62740  25.414  19.247  11.609
90426W        W62741  24.210   3.887  14.897
90427W        W62742  42.284  36.737   2.506
90428W        W62743  18.592  17.983  10.778
90429W        W62744   0.997   7.298  12.389
90430W        W62745   7.661  20.939  13.412
90431W        W62746  43.775   7.748   0.327
90432W        W62747  34.047  10.749   0.531
90433W        W62748  35.607  10.164   1.753
90434W        W62749  29.947  28.075  14.694
90435W        W62750   8.417  11.237   4.073
90436W        W62751  39.217  35.461  12.123
90437W        W62752  33.689   0.545   2.152
90438W        W62753  35.184  35.398  12.979
90439W        W62754  38.781  25.423  12.745
90440W        W62755  40.312  10.901   3.173
90441W        W62756  33.538  22.392   4.739
90442W        W62757   6.673  14.758   1.502
90443W        W62758  34.970  43.332   2.127
90444W        W62759   0.021  32.073  12.317
90445W        W62760  28.067  34.020   4.964
90446W        W62761  26.025  17.351   3.781
90447W        W62762   1.067  43.760  13.858
90448W        W62763  39.533  22.675   1.376
90449W        W62764  39.324  18.059  11.725
90450W        W62765  34.494  21.717   2.888
90451W        W62766   4.365  29.379   2.871
90452W        W62767  18.292  39.647  11.114
90453W        W62768  26.716  22.565  11.940
90454W        W62769   4.709  21.608  10.741
90455W        W62770  17.131   2.985   4.253
90456W        W62771   4.668   5.378  14.256
90457W        W62772  10.738  22.472  11.781
90458W        W62773   7.051  25.717  13.565
90459W        W62774  24.523  24.200  14.417
90460W        W62775  31.687  28.665   0.269
90461W        W62776  39.684  19.623   4.835
90462W        W62777  39.077  10.425   3.297
90463W        W62778  22.377  30.483   2.099
90464W        W62779  36.387  12.460  11.117
90465W        W62780  35.103  23.930   3.138
90466W        W62781  38.242  44.988   4.099
90467W        W62782   2.203  42.517  12.300
90468W        W62783  40.021  41.536   4.195
90469W        W62784  43.421  42.074  11.980
90470W        W62785   7.859  24.811  10.676
90471W        W62786  39.991  40.476   3.114
90472W        W62787  16.423  44.430  10.458
90473W        W62788   9.183   5.181   2.763
90474W        W62789  24.659  10.331   0.613
90475W        W62790  38.337  41.670   2.418
90476W        W62791  12.641   3.531  13.698
90477W        W62792  18.292  15.604   0.285
90478W        W62793  36.137  37.465  14.842
90479W        W62794   8.608  10.163  12.429
90480W        W62795  34.476  23.515   4.510
90481W        W62796  31.705  37.358   2.972
90482W        W62797  37.512  42.989   1.696
90483W        W62798  21.399  12.935   0.137
90484W        W62799   9.846   7.932   3.110
90485W        W62800   5.487  24.251   0.401
90486W        W62801  43.589   5.842   3.662
90487W        W62802  33.718  43.974  10.096
90488W        W62803  32.836  20.258  13.957
90489W        W62804   6.663  41.086   3.631
90490W        W62805   1.146  38.969  11.690
90491W        W62806   7.304  40.541   0.802
90492W        W62807  15.606   2.124  11.138
90493W        W62808  30.893  21.489  14.831
90494W        W62809  29.799  17.630  11.456
90495W        W62810  23.417   3.792   0.392
90496W        W62811  30.666  12.834  10.473
90497W        W62812  41.769  11.173   3.571
90498W        W62813   3.962   3.166  14.795
90499W        W62814   3.974  33.098   4.173
90500W        W62815  33.658  24.989   3.138
90501W        W62816  19.671  12.454  10.876
90502W        W62817  43.387  19.362  13.374
90503W        W62818  20.822   9.610   2.313
90504W        W62819  23.507  29.568   0.971
90505W        W62820  21.332  12.017   3.220
90506W        W62821  44.862  22.144  10.521
90507W        W62822  26.192   4.933  12.879
90508W        W62823  10.383  33.917   1.207
90509W        W62824  35.046  38.714   4.908
90510W        W62825  32.573  44.472   4.152
90511W        W62826  22.167   2.915  11.538
90512W        W62827  42.698  43.874   0.036
90513W        W62828  19.296  27.915  13.851
90514W        W62829  25.309  42.737   3.992
90515W        W62830  44.416   5.061   5.052
90516W        W62831  25.647   2.190  11.188
90517W        W62832  36.808  14.100  14.782
90518W        W62833  29.918  13.375   3.995
90519W        W62834  33.677  13.867   1.304
90520W        W62835  26.678   7.971  10.729
90521W        W62836   0.427   4.424   3.779
90522W        W62837  38.838  36.567  13.468
90523W        W62838  23.753  33.860   4.262
90524W        W62839  17.877   5.541  12.469
90525W        W62840  34.973  12.635  13.057
90526W        W62841   9.766  12.093   1.396
90527W        W62842  21.139  29.047   4.571
90528W        W62843  32.668   9.861  11.055
90529W        W62844   5.246  20.590  12.499
90530W        W62845  37.542  15.725  14.686
90531W        W62846  11.125  37.982   5.222
90532W        W62847  23.773  14.106   1.954
90533W        W62848  30.560   0.752   4.481
90534W        W62849  26.204  33.422   1.300
90535W        W62850  29.698  26.035   3.272
90536W        W62851   5.043  44.997  11.651
90537W        W62852   5.213   0.570  12.522
90538W        W62853   9.918  29.889  11.160
90539W        W62854  30.992  23.970   1.709
90540W        W62855   6.442  19.968   3.108
90541W        W62856   3.674   2.195  14.874
90542W        W62857  26.614  15.384  11.038
90543W        W62858  28.087   3.408  13.231
90544W        W62859  15.311  18.251   1.507
90545W        W62860  41.049  32.931   1.836
90546W        W62861  31.558  29.524  14.550
90547W        W62862  37.588  20.998  13.500
90548W        W62863  20.079   8.442   2.774
90549W        W62864  14.161   5.258  10.704
90550W        W62865  34.583   7.540  11.306
90551W        W62866   3.749  35.961   5.155
90552W        W62867  39.755  13.333  14.941
90553W        W62868  29.584  33.592   1.224
90554W        W62869  23.249  41.044  12.046
90555W        W62870  24.771  27.712   0.358
90556W        W62871  44.426  17.040   0.842
90557W        W62872   3.978  23.386  11.582
90558W        W62873  18.548  22.319  10.135
90559W        W62874   2.439   4.907  13.747
90560W        W62875   7.504  30.027  13.771
90561W        W62876  19.525  30.002   1.428
90562W        W62877  19.751   6.298   2.855
90563W        W62878  38.514   7.925   3.149
90564W        W62879  39.928   0.609   1.805
90565W        W62880  12.454   0.049   4.130
90566W        W62881  43.027  39.483  11.189
90567W        W62882  41.460  19.080  12.157
90568W        W62883   2.498   4.869  11.523
90569W        W62884  20.630  14.327   4.470
90570W        W62885  41.777  40.117  11.627
90571W        W62886  35.005   1.853   2.075
90572W        W62887  23.676  14.439   2.405
90573W        W62888  33.991  44.737   3.377
90574W        W62889   7.094  19.219   1.618
90575W        W62890  10.736   5.365  14.185
90576W        W62891  40.123  37.149   0.150
90577W        W62892  12.183  33.364   0.073
90578W        W62893  15.196  12.411  13.518
90579W        W62894  15.621  43.983  11.579
90580W        W62895   4.441  32.637  12.067
90581W        W62896  29.511  31.385   4.164
90582W        W62897  14.470  44.248   2.945
90583W        W62898   5.406   6.380  13.848
90584W        W62899  38.894   2.366  11.360
90585W        W62900  43.587  30.899   0.980
90586W        W62901  40.014  10.024  14.979
90587W        W62902  12.382  20.356  13.827
90588W        W62903  29.541  30.055  11.435
90589W        W62904  29.491   0.707   2.219
90590W        W62905  14.449   6.736  11.866
90591W        W62906  23.186  29.038   1.392
90592W        W62907  17.779   5.482   2.677
90593W        W62908  12.219   6.001  13.130
90594W        W62909  39.726  17.206   3.795
90595W        W62910  32.877  12.398  11.059
90596W        W62911  36.418  17.533   0.541
90597W        W62912  35.965  20.513  12.101
90598W        W62913  11.135  19.112  14.274
90599W        W62914  37.652  44.413  12.556
90600W        W62915   6.475  28.099   3.766
90601W        W62916  22.808   1.742   2.697
90602W        W62917   7.318  40.425   3.693
90603W        W62918  17.059  18.260   3.294
90604W        W62919  38.230  30.180   5.087
90605W        W62920   8.659   4.868   0.943
90606W        W62921  36.011  11.360   0.816
90607W        W62922   0.436  36.873   0.200
90608W        W62923  36.507   3.946  13.827
90609W        W62924  23.192  36.655   1.568
90610W        W62925  20.799  38.275   0.361
90611W        W62926  27.283  17.201  12.590
90612W        W62927   7.971   2.175  12.884
90613W        W62928  24.457  36.956   1.367
90614W        W62929  22.431  37.130  11.013
90615W        W62930  11.640  27.921   2.386
90616W        W62931  32.988  39.122  11.070
90617W        W62932  44.395   1.417  14.755
90618W        W62933  22.471  22.201  11.060
90619W        W62934  27.951   2.168  12.977
90620W        W62935  35.909  29.374   0.688
90621W        W62936   7.158  36.584  14.765
90622W        W62937  11.310  25.950   0.239
90623W        W62938   8.908   6.352   3.192
90624W        W62939  25.689  25.561  10.849
90625W        W62940  41.459  39.761   0.285
90626W        W62941   9.344  27.585  11.596
90627W        W62942  13.630   3.449  13.420
90628W        W62943  22.357  33.038  14.254
90629W        W62944  36.354  15.595   0.532
90630W        W62945  42.466   2.169  11.677
90631W        W62946  17.672  32.121  13.577
90632W        W62947  32.717  42.945  11.542
90633W        W62948   2.992   2.931  14.832
90634W        W62949  37.111  19.158   3.886
90635W        W62950  29.913  14.346  12.915
90636W        W62951  25.101  22.909  11.613
90637W        W62952  31.486  24.437  12.953
90638W        W62953  39.026   9.985   1.324
90639W        W62954  44.181  44.352   3.705
90640W        W62955  13.385  28.080  11.078
90641W        W62956  41.596  10.679   2.146
90642W        W62957  32.886  24.556   0.872
90643W        W62958  34.415  29.275  14.406
90644W        W62959  13.600  17.775  11.980
90645W        W62960  42.479  30.128   1.542
90646W        W62961   1.343  11.250  11.697
90647W        W62962  12.158  20.980  14.529
90648W        W62963  28.607   8.660   2.259
90649W        W62964  41.962  40.087  10.941
90650W        W62965  29.554   8.811   2.907
90651W        W62966  21.183  27.877  12.438
90652W        W62967   2.497  31.998   2.380
90653W        W62968  29.310  32.940  11.431
90654W        W62969  19.806  35.547  11.684
90655W        W62970  20.173  41.897   1.134
90656W        W62971  23.048  34.436  14.661
90657W        W62972  22.183  15.003   3.050
90658W        W62973  27.741  31.877  14.803
90659W        W62974  25.731  24.199   2.087
90660W        W62975  33.648  31.910   0.502
90661W        W62976  20.368  19.553   4.257
90662W        W62977  40.636   9.327  11.729
90663W        W62978  29.143  35.966   3.300
90664W        W62979  40.780   7.838   3.846
90665W        W62980  38.063  25.147  11.609
90666W        W62981  34.121  20.712   2.401
90667W        W62982  34.305   9.597   3.747
90668W        W62983  30.171   1.826   1.971
90669W        W62984  12.789  29.016   1.816
90670W        W62985   9.397   5.860   4.503
90671W        W62986  36.789  41.982  13.643
90672W        W62987  14.772  15.374   1.829
90673W        W62988  42.790  12.237   1.319
90674W        W62989  17.199   7.432   2.269
90675W        W62990   0.333  39.777   4.351
90676W        W62991  33.459  15.066  11.579
90677W        W62992  41.340  23.774  13.529
90678W        W62993  31.444  12.304   4.062
90679W        W62994  11.397   4.861   0.818
90680W        W62995  22.545  45.000   1.420
90681W        W62996  35.460   1.363   0.016
90682W        W62997  39.610   3.768   2.776
90683W        W62998  10.382  21.847  11.599
90684W        W62999  44.026  26.948   4.572
90685W        W63000  36.815   1.878  14.601
90686W        W63001  23.302  21.144  14.408
90687W        W63002  15.350  12.809  11.954
90688W        W63003  31.493  37.313   1.685
90689W        W63004  39.135  41.957   4.683
90690W        W63005  10.702  17.080   0.278
90691W        W63006  35.330  40.608   3.301
90692W        W63007  28.378   8.594  12.891
90693W        W63008  32.993  29.433  13.497
90694W        W63009  41.429  24.034  13.068
90695W        W63010  29.685  10.864  12.383
90696W        W63011   6.691  39.730  14.509
90697W        W63012  13.037   9.646  12.974
90698W        W63013   1.905  44.771  13.023
90699W        W63014  31.098  19.002  13.463
90700W        W63015  23.108  13.371   4.487
90701W        W63016  41.287  16.158   2.203
90702W        W63017  17.241  30.185   4.518
90703W        W63018  33.813  39.375   1.821
90704W        W63019  41.800   2.227  14.841
90705W        W63020   2.256  44.055  10.060
90706W        W63021  31.965  41.256  13.862
90707W        W63022  43.383   2.381   0.830
90708W        W63023   9.373   7.115  13.967
90709W        W63024  16.324  41.518  12.478
90710W        W63025  29.473  44.339  10.428
90711W        W63026  10.634  10.348  13.516
90712W        W63027  11.211  24.177   0.035
90713W        W63028   5.833  21.586   2.630
90714W        W63029  43.912  21.516  10.803
90715W        W63030   3.594  18.210  12.408
90716W        W63031  12.685  33.915   2.832
90717W        W63032  44.712  20.307   3.663
90718W        W63033  43.418   1.310  11.059
90719W        W63034  22.872   0.295   1.789
90720W        W63035  23.153  16.702   3.239
90721W        W63036   5.075  40.639   0.217
90722W        W63037  19.319  30.730   4.133
90723W        W63038  13.640  28.753   2.976
90724W        W63039  28.667  15.526  13.491
90725W        W63040   4.119  26.698  13.899
90726W        W63041   4.331   0.394   1.282
90727W        W63042  32.970   3.174  11.575
90728W        W63043   8.513  10.844   1.780
90729W        W63044  24.115   5.870  14.887
90730W        W63045  42.273  37.781  14.886
90731W        W63046  11.302  19.347   4.101
90732W        W63047  35.568  41.319   4.633
90733W        W63048  33.760   4.988  14.960
90734W        W63049  15.094  36.951   4.475
90735W        W63050  10.746   5.332   3.394
90736W        W63051   9.926  20.255  12.578
90737W        W63052  39.249  40.331   0.775
90738W        W63053  17.968  35.612  11.995
90739W        W63054  43.804  43.278   0.860
90740W        W63055  29.026  13.767   0.907
90741W        W63056  36.517   0.495   3.247
90742W        W63057  33.715  23.268  12.498
90743W        W63058   1.284   6.316   1.828
90744W        W63059  25.497  28.686   4.701
90745W        W63060  34.351  19.503   1.880
90746W        W63061  27.072  22.671   3.428
90747W        W63062  41.782  34.490  13.745
90748W        W63063   6.837  32.324  12.442
90749W        W63064  44.317  36.224  10.648
90750W        W63065  23.448  16.130   3.764
90751W        W63066  13.667  35.418   3.389
90752W        W63067  18.037  25.029   2.771
90753W        W63068  29.891   6.708  11.569
90754W        W63069   3.715  37.960  12.382
90755W        W63070  20.642  11.295   0.890
90756W        W63071  14.067  35.846   3.259
90757W        W63072  13.860   6.198  11.568
90758W        W63073  29.993  24.026   3.162
90759W        W63074  23.192   5.238   1.357
90760W        W63075  40.030  30.363   2.139
90761W        W63076  11.933   9.082  11.485
90762W        W63077  14.463  23.238  14.293
90763W        W63078  18.796  18.834  11.954
90764W        W63079  39.851  28.607  11.710
90765W        W63080   3.400  29.268  11.208
90766W        W63081  40.413   2.328  13.543
90767W        W63082  34.988  13.340  11.445
90768W        W63083  22.419  39.781  13.986
90769W        W63084  26.644  16.163   0.475
90770W        W63085  35.937   5.817   3.833
90771W        W63086  19.628  28.448   1.471
90772W        W63087   8.875  18.088  13.043
90773W        W63088  32.481  39.027   1.818
90774W        W63089  32.035  12.687   4.652
90775W        W63090  44.707  28.983  14.313
90776W        W63091  25.369  39.581  11.879
90777W        W63092  25.276  26.704   1.868
90778W        W63093   3.300  34.894   2.967
90779W        W63094  44.522  29.592   2.787
90780W        W63095   6.255  16.590   0.460
90781W        W63096  30.886  18.258   9.877
90782W        W63097  21.098  18.324   1.165
90783W        W63098   2.762  37.883   2.215
90784W        W63099   6.953  29.672   0.204
90785W        W63100   8.893  34.206   4.587
90786W        W63101  42.780  38.082   0.513
90787W        W63102  43.647  19.511   4.278
90788W        W63103  41.984  31.915  10.533
90789W        W63104  25.145  32.489  11.705
90790W        W63105  35.244  26.272  14.041
90791W        W63106  31.182  13.773  12.943
90792W        W63107  29.111  13.357   2.674
90793W        W63108  14.298  38.321   1.052
90794W        W63109  38.570  34.666  13.087
90795W        W63110  10.277  38.610  13.530
90796W        W63111  12.604  14.663  14.867
90797W        W63112  24.759  31.349  11.975
90798W        W63113  10.255  38.638   1.304
90799W        W63114  14.822  17.570  14.319
90800W        W63115  31.756  42.875   4.884
90801W        W63116  21.127  44.047   2.354
90802W        W63117   0.675   2.672  12.151
90803W        W63118  34.947   2.307   3.986
90804W        W63119  17.575  26.775  14.008
90805W        W63120  32.666  13.217   3.225
90806W        W63121  42.894  24.015  12.957
90807W        W63122  10.645  11.275  11.823
90808W        W63123  24.162   8.121  12.796
90809W        W63124  44.364   2.743  10.656
90810W        W63125  42.739  34.774   0.812
90811W        W63126   5.979  26.005  10.671
90812W        W63127  37.054  35.344   0.485
90813W        W63128   2.400  26.529   4.690
90814W        W63129  33.959   5.684   4.074
90815W        W63130  42.584  23.173   2.677
90816W        W63131  36.793  16.517   3.262
90817W        W63132   1.991  17.660  12.959
90818W        W63133   9.265  35.880   1.513
90819W        W63134  25.755  36.360  12.925
90820W        W63135  14.860  24.142  13.737
90821W        W63136  33.440   7.233  11.946
90822W        W63137  34.074   0.665   3.641
90823W        W63138  29.910  41.334  11.733
90824W        W63139  20.215  27.126  13.041
90825W        W63140  34.572  34.638   3.377
90826W        W63141   3.387   2.737   0.725
90827W        W63142  43.346  20.553   0.083
90828W        W63143  20.293  31.449   1.930
90829W        W63144  17.278   3.287  12.771
90830W        W63145  43.690  27.286  11.133
90831W        W63146  15.700  43.534  13.868
90832W        W63147  18.054  24.992   4.609
90833W        W63148  27.535  29.393  11.137
90834W        W63149  37.540  25.746  11.175
90835W        W63150  26.180  23.896   4.824
90836W        W63151  41.780  27.268   0.810
90837W        W63152   5.236   3.216  14.360
90838W        W63153  13.844  29.463  11.934
90839W        W63154  16.999  33.659   0.528
90840W        W63155  13.768  10.197  13.524
90841W        W63156  19.191  41.266   1.421
90842W        W63157  24.991  30.057   4.581
90843W        W63158  17.526  30.368  10.523
90844W        W63159  30.995  16.129  11.056
90845W        W63160  32.091  32.967  12.125
90846W        W63161   0.991   2.344   4.050
90847W        W63162  11.871   0.185  12.357
90848W        W63163   8.554  38.395  14.958
90849W        W63164  36.525  14.012  11.451
90850W        W63165  12.076   0.276  13.379
90851W        W63166  10.757  12.213   1.809
90852W        W63167  23.537  41.972  13.311
90853W        W63168  26.701   8.594   2.290
90854W        W63169  22.293  21.549   2.869
90855W        W63170  32.108  39.756   2.939
90856W        W63171  30.073  21.072   0.763
90857W        W63172  29.372  21.024  11.032
90858W        W63173  21.134  38.482   4.560
90859W        W63174  33.504  17.878   0.430
90860W        W63175  39.502  13.723   4.749
90861W        W63176  34.611  18.277  13.321
90862W        W63177   7.596  40.409   3.220
90863W        W63178  27.160  38.621   3.646
90864W        W63179  30.186   2.672   2.098
90865W        W63180  21.125  37.526   3.360
90866W        W63181  40.382   3.653   4.703
90867W        W63182   0.564  33.499   4.322
90868W        W63183  21.513  20.620   1.226
90869W        W63184  29.609  37.410   1.981
90870W        W63185   2.282  13.610  10.708
90871W        W63186  29.050  19.701   1.152
90872W        W63187   2.139  35.519   4.228
90873W        W63188  26.040  28.876  13.478
90874W        W63189  43.500   3.452  13.148
90875W        W63190   9.292  44.120   0.357
90876W        W63191  15.231  17.888  13.860
90877W        W63192  36.118  11.415   4.712
90878W        W63193   3.261  27.053   3.201
90879W        W63194  17.890   2.785  14.539
90880W        W63195  25.569  23.220  13.006
90881W        W63196  24.078  30.392  13.418
90882W        W63197  25.090  17.718   1.871
90883W        W63198  17.534  10.334   0.753
90884W        W63199  44.706  19.478  10.954
90885W        W63200  24.999  22.426  12.366
90886W        W63201  35.132  44.737  11.151
90887W        W63202  27.374  13.606   4.226
90888W        W63203  13.799  41.285  14.997
90889W        W63204  36.535   3.022  13.035
90890W        W63205  11.793  11.582  13.416
90891W        W63206  11.121  36.414   4.826
90892W        W63207   7.320   5.436  14.912
90893W        W63208  11.200  17.171   4.637
90894W        W63209  24.796  21.811   5.058
90895W        W63210   9.909  12.733   3.626
90896W        W63211   8.872  30.676  11.054
90897W        W63212  12.787  27.732   4.283
90898W        W63213   1.143  32.365  13.004
90899W        W63214  17.247  25.597  13.489
90900W        W63215   2.897   9.983  14.847
90901W        W63216   9.690  33.910  12.631
90902W        W63217  15.797  15.196   4.644
90903W        W63218  24.742   3.849   0.784
90904W        W63219  36.094   0.795   1.702
90905W        W63220  42.869  34.418   3.753
90906W        W63221   4.837  37.019   0.332
90907W        W63222  18.751  27.465  14.196
90908W        W63223  25.536  42.007  11.246
90909W        W63224   5.747   1.075  14.298
90910W        W63225   7.432   7.428   0.801
90911W        W63226  25.689  32.519   3.645
90912W        W63227   5.305   1.433  11.171
90913W        W63228  13.187  41.541   3.173
90914W        W63229  33.442  13.199   3.822
90915W        W63230  35.929  19.720  12.503
90916W        W63231  27.557  17.112   4.725
90917W        W63232   1.254   1.262  14.089
90918W        W63233  40.041  17.223   0.063
90919W        W63234   0.774  34.578  10.605
90920W        W63235  34.079  28.112   4.146
90921W        W63236   3.301   9.980  10.663
90922W        W63237   7.153  18.491  14.823
90923W        W63238  25.571  39.965   3.755
90924W        W63239  22.245  41.361   3.476
90925W        W63240  32.482  19.343  12.603
90926W        W63241  31.168   4.040  11.229
90927W        W63242  21.937  22.484   1.389
90928W        W63243   0.364  34.686   2.842
90929W        W63244   7.390  13.156   4.366
90930W        W63245  37.073  17.665  12.885
90931W        W63246  19.046  36.850  11.499
90932W        W63247  38.067  36.267  12.262
90933W        W63248   9.599  35.321   2.690
90934W        W63249  16.896  44.864   2.884
90935W        W63250  20.727  35.868  12.977
90936W        W63251  27.245   6.436  10.246
90937W        W63252  24.458   9.292  11.198
90938W        W63253  20.989  38.823   0.754
90939W        W63254   1.827  37.526  10.897
90940W        W63255  32.583  40.605  12.090
90941W        W63256  30.440  36.816   1.649
90942W        W63257  40.023  24.237  13.523
90943W        W63258   3.321  20.161   0.794
90944W        W63259   9.157  28.643   3.365
90945W        W63260  43.319  43.247  13.996
90946W        W63261  33.037  39.960  12.975
90947W        W63262   2.737  19.443   5.135
90948W        W63263  21.209   2.366   1.169
90949W        W63264  21.775   9.668   4.236
90950W        W63265  40.838   6.458  13.604
90951W        W63266  39.285  19.273   1.378
90952W        W63267  11.830  17.368   2.495
90953W        W63268  11.199  10.611   3.299
90954W        W63269  24.704  42.021   0.579
90955W        W63270  13.815  20.693  11.201
90956W        W63271  36.450  16.350  10.504
90957W        W63272  15.043  15.827   3.215
90958W        W63273  25.916  33.620   5.113
90959W        W63274  38.818  35.252  11.878
90960W        W63275  41.539  29.913   1.706
90961W        W63276  19.032  39.606   0.021
90962W        W63277  28.926  27.302  14.738
90963W        W63278  13.285  33.847  14.263
90964W        W63279  10.931  26.763   1.168
90965W        W63280  14.593  43.305  11.113
90966W        W63281  14.712  38.130  11.764
90967W        W63282  22.125  32.145   9.942
90968W        W63283  12.331  30.116   1.785
90969W        W63284  21.437   7.289   0.038
90970W        W63285  22.821  13.229  14.472
90971W        W63286   7.902  43.500  13.472
90972W        W63287  11.942  31.695   1.681
90973W        W63288  36.364  38.779  14.820
90974W        W63289  30.642  13.322  14.323
90975W        W63290  32.425  15.345  10.491
90976W        W63291   0.317   4.282   3.311
90977W        W63292  38.587  16.209  10.653
90978W        W63293  29.672   7.696   3.023
90979W        W63294   4.589  35.958   4.633
90980W        W63295   0.682  34.943  10.267
90981W        W63296  43.562  40.330   1.294
90982W        W63297  43.255  17.818   2.407
90983W        W63298  29.425  19.616  12.563
90984W        W63299   4.764  11.237   3.168
90985W        W63300  30.001   5.914   3.897
90986W        W63301  31.997  10.078   3.919
90987W        W63302   5.019  40.479  11.133
90988W        W63303  25.718  28.496  12.360
90989W        W63304  31.955  16.564  11.106
90990W        W63305  35.631   6.248   2.323
90991W        W63306   9.726   1.460  13.517
90992W        W63307   0.613  35.112  11.872
90993W        W63308  17.703   3.475   0.426
90994W        W63309  37.713   3.282  13.489
90995W        W63310  33.101  38.967   2.913
90996W        W63311  20.694  20.611   3.739
90997W        W63312   0.845  28.996  14.916
90998W        W63313  41.409  44.503  13.842
90999W        W63314  25.024  19.693  13.726
91000W        W63315  10.426  16.094  14.819
91001W        W63316  39.544  44.427  13.440
91002W        W63317  31.466  32.479   1.258
91003W        W63318  36.977  12.695  14.329
91004W        W63319   8.671   0.390  11.573
91005W        W63320   5.926  34.186  13.001
91006W        W63321  43.902  35.971  14.755
91007W        W63322  19.712   7.348  11.081
91008W        W63323  25.226  27.808  11.094
91009W        W63324   6.426  43.606   1.878
91010W        W63325   1.057  17.771  11.000
91011W        W63326  19.831   0.994   2.640
91012W        W63327  27.186  34.011   2.380
91013W        W63328  41.542  40.022  14.820
91014W        W63329  29.595  16.049  10.440
91015W        W63330  33.756  37.438   1.242
91016W        W63331  36.959  41.485  10.370
91017W        W63332   8.343  29.616  13.381
91018W        W63333   8.724   5.939  12.009
91019W        W63334  27.962  21.624   3.322
91020W        W63335  37.056  43.758   3.616
91021W        W63336  13.201  27.836  14.453
91022W        W63337  17.186  15.886   4.227
91023W        W63338  28.342  27.095   2.321
91024W        W63339  27.264  10.329  11.185
91025W        W63340  17.487  25.668   3.159
91026W        W63341  10.538  42.501  11.589
91027W        W63342  34.881  44.793  13.845
91028W        W63343  35.097  21.088   0.358
91029W        W63344   5.426   9.977  11.635
91030W        W63345  21.528  17.876   0.910
91031W        W63346  11.512   1.409   3.683
91032W        W63347   1.271  14.787  13.980
91033W        W63348  27.499  44.466   0.931
91034W        W63349  25.814  13.450  13.024
91035W        W63350   6.707  31.043   0.347
91036W        W63351  17.608  21.763   4.480
91037W        W63352  24.097  25.630   4.641
91038W        W63353  32.424  25.429  11.128
91039W        W63354  22.513  41.643  13.954
91040W        W63355   0.793   5.372   2.725
91041W        W63356   1.482  16.270  13.923
91042W        W63357  11.399  30.228  14.962
91043W        W63358  11.285  28.168   0.825
91044W        W63359  35.416  39.085   3.267
91045W        W63360  43.422  41.155   4.778
91046W        W63361  12.793  25.191   0.012
91047W        W63362  20.235  42.970  13.783
91048W        W63363   9.213  17.398   3.496
91049W        W63364   7.857  14.268  12.929
91050W        W63365   4.176  25.693  13.835
91051W        W63366  26.575  25.026  10.353
91052W        W63367   9.408   8.239  14.052
91053W        W63368   4.600  24.534  14.068
91054W        W63369  35.536  11.682   3.650
91055W        W63370  12.572   9.589   4.106
91056W        W63371  26.604  25.805  12.757
91057W        W63372  37.720  23.251   5.209
91058W        W63373  25.707  40.814  14.072
91059W        W63374   3.387  40.139   5.047
91060W        W63375   7.840  14.286  10.415
91061W        W63376  11.699  12.343   2.047
91062W        W63377   7.249  13.608   1.790
91063W        W63378  24.110  38.919  12.387
91064W        W63379  37.872  11.144  10.550
91065W        W63380  21.654  20.729   3.373
91066W        W63381  39.584  43.786  10.629
91067W        W63382  38.440   6.886  10.760
91068W        W63383  13.128  28.421  14.855
91069W        W63384  27.883  26.605  11.222
91070W        W63385  20.501  31.183  14.723
91071W        W63386  24.587  32.049   2.174
91072W        W63387  10.444  35.517  11.788
91073W        W63388  37.070  23.799  10.594
91074W        W63389  21.186  33.103   0.242
91075W        W63390  13.991  32.381  12.223
91076W        W63391  23.176  33.678   2.320
91077W        W63392  25.159  35.549  11.561
91078W        W63393  15.820  34.503  13.841
91079W        W63394  30.012  39.494  14.329
91080W        W63395   7.721   8.300   2.178
91081W        W63396  26.471  39.550  12.090
91082W        W63397  16.416  30.716  10.620
91083W        W63398  41.607  34.586   2.290
91084W        W63399   3.096  39.324   2.164
91085W        W63400   9.486   8.342  12.025
91086W        W63401   9.106  11.744   2.117
91087W        W63402  16.582  30.752   0.339
91088W        W63403  33.139  20.043  12.915
91089W        W63404  39.930  18.963  14.382
91090W        W63405  21.097  35.513   4.604
91091W        W63406  10.645  44.914  13.379
91092W        W63407   4.893   5.153   1.444
91093W        W63408  15.999  27.032   0.121
91094W        W63409  44.307  25.194  11.532
91095W        W63410  18.592  24.323   3.654
91096W        W63411  37.258  24.692   1.011
91097W        W63412   5.257  44.069   3.674
91098W        W63413  44.573  14.338   1.769
91099W        W63414   1.811   6.741   1.492
91100W        W63415  31.083  32.190  13.485
91101W        W63416  41.364  36.520  13.422
91102W        W63417  21.515  14.901   1.849
91103W        W63418  16.007  18.637  14.997
91104W        W63419  43.891  30.883  11.089
91105W        W63420   7.281  42.581  11.606
91106W        W63421   9.823  25.891   2.317
91107W        W63422   2.576  30.187  11.620
91108W        W63423   2.275  31.218   1.300
91109W        W63424   3.507  42.049   3.355
91110W        W63425  11.298   1.849   0.770
91111W        W63426   0.743  32.545   2.153
91112W        W63427   4.288  25.397   3.161
91113W        W63428  20.060  12.048  11.998
91114W        W63429  39.084  13.307  12.829
91115W        W63430  28.744  22.250  14.331
91116W        W63431   1.269  34.701   2.626
91117W        W63432   2.604   0.512   0.916
91118W        W63433   1.955  29.112   2.798
91119W        W63434  31.895  29.463  11.605
91120W        W63435  29.906  36.520  10.638
91121W        W63436  13.241  29.838  13.814
91122W        W63437  27.983  37.399  12.487
91123W        W63438  25.892  26.593   2.372
91124W        W63439   6.644  15.572   3.171
91125W        W63440  12.649  16.734   1.205
91126W        W63441  11.406  26.771   0.893
91127W        W63442  17.279  23.473   1.326
91128W        W63443   5.265  25.682  13.946
91129W        W63444  44.827  10.055  14.582
91130W        W63445   4.420  38.005  12.651
91131W        W63446   0.920  18.545  13.525
91132W        W63447  30.455  20.816   5.106
91133W        W63448   5.191   0.458   4.429
91134W        W63449  18.579  11.240   0.458
91135W        W63450  15.091   3.355   3.777
91136W        W63451  39.524  18.019  12.944
91137W        W63452  12.524  23.086   1.735
91138W        W63453  29.006  31.380   2.882
91139W        W63454   0.625  29.311  11.552
91140W        W63455   8.367  37.297   0.250
91141W        W63456  16.653  18.209  13.246
91142W        W63457  30.998  30.148  10.463
91143W        W63458  36.622   5.692   3.253
91144W        W63459  27.545  35.868   3.304
91145W        W63460  31.939  42.552  14.425
91146W        W63461   1.062  15.337  14.477
91147W        W63462   8.633  35.018   2.467
91148W        W63463  36.851  41.027  13.967
91149W        W63464   1.834  30.412   1.236
91150W        W63465   4.474   8.635   3.293
91151W        W63466   9.499  33.676  13.967
91152W        W63467  11.108   5.266   4.842
91153W        W63468  18.023   1.801   1.143
91154W        W63469  39.811  40.368   2.624
91155W        W63470  40.059  40.767  11.535
91156W        W63471  37.947  25.910  14.528
91157W        W63472  24.273   3.417   4.075
91158W        W63473  36.412  11.946  11.174
91159W        W63474  36.317  43.012   3.262
91160W        W63475  14.649   6.626   4.162
91161W        W63476   4.708  22.347  14.906
91162W        W63477  21.041   6.266  14.677
91163W        W63478  10.386  25.033  11.179
91164W        W63479  23.775  36.956   1.877
91165W        W63480  26.129   4.675  10.678
91166W        W63481  42.538  26.965  12.631
91167W        W63482   8.844   0.424  14.940
91168W        W63483  36.367   9.616  14.063
91169W        W63484  14.033   0.026  10.904
91170W        W63485   0.188  17.203   4.640
91171W        W63486  15.510  29.761   9.958
91172W        W63487  43.423  30.904  14.439
91173W        W63488  12.905  12.214   3.653
91174W        W63489  33.930  23.094   3.534
91175W        W63490  38.798  44.577   0.759
91176W        W63491   7.876   4.947   1.280
91177W        W63492   5.791  26.696   0.210
91178W        W63493  42.331  11.115   0.436
91179W        W63494  12.194   2.134   0.500
91180W        W63495   0.233  38.505  14.411
91181W        W63496   2.445  34.423  14.458
91182W        W63497  33.508  14.795  10.772
91183W        W63498  44.806  11.561  12.457
91184W        W63499  41.488  13.776   3.241
91185W        W63500  24.140  33.321   1.439
91186W        W63501  36.639  37.300  13.105
91187W        W63502  37.251  21.488   2.212
91188W        W63503  29.766  11.080  11.070
91189W        W63504   7.442  20.358  12.609
91190W        W63505   6.715  39.605   3.632
91191W        W63506   5.708   7.714   3.182
91192W        W63507  11.594  42.805   3.203
91193W        W63508  26.120   0.026  14.928
91194W        W63509  11.530  38.442   1.970
91195W        W63510  28.131  30.396   1.800
91196W        W63511  41.013  41.785  11.128
91197W        W63512   2.329  36.750  11.274
91198W        W63513  14.152   1.334  13.450
91199W        W63514  37.000  11.143  12.573
91200W        W63515   0.066   1.388  13.022
91201W        W63516  30.464  12.043  13.417
91202W        W63517  20.392  26.738  11.064
91203W        W63518   5.748   3.826  11.900
91204W        W63519  40.301  27.034  12.846
91205W        W63520  40.318   9.314   0.633
91206W        W63521  26.033  10.331   2.228
91207W        W63522   2.779  13.384   3.643
91208W        W63523   5.265   7.657   1.382
91209W        W63524  36.357  22.781   3.671
91210W        W63525  36.524  10.837   4.624
91211W        W63526   5.662  20.044   3.094
91212W        W63527   1.748  33.298  12.590
91213W        W63528  30.872   4.171  12.395
91214W        W63529  42.601   9.773   3.343
91215W        W63530  42.533  29.022  11.477
91216W        W63531  23.383  36.389   3.402
91217W        W63532   0.707  32.072   2.846
91218W        W63533  34.777  33.675  14.396
91219W        W63534  16.692  35.069  12.781
91220W        W63535  34.632   6.223   4.486
91221W        W63536  37.893   2.133  13.351
91222W        W63537  20.781  38.387   5.149
91223W        W63538   2.406  18.910  12.021
91224W        W63539   6.587  19.644  11.160
91225W        W63540  18.238   1.189   3.467
91226W        W63541  44.067  41.295  10.735
91227W        W63542  13.095  19.607  12.972
91228W        W63543  34.471   0.394   2.265
91229W        W63544  16.135  20.071  13.607
91230W        W63545   9.048  16.755  10.204
91231W        W63546  28.108   6.080  10.511
91232W        W63547  44.885  24.631   1.899
91233W        W63548  15.756  21.185   1.341
91234W        W63549  17.279  35.117   3.189
91235W        W63550  44.884  30.440   2.787
91236W        W63551  41.189  44.535   3.063
91237W        W63552  12.560  36.350  12.013
91238W        W63553  36.161  13.574  11.089
91239W        W63554  39.910  20.691  12.370
91240W        W63555   9.077  29.566   1.356
91241W        W63556  18.280  30.021   5.546
91242W        W63557   4.017  38.914   2.558
91243W        W63558   8.798  14.133   4.238
91244W        W63559  37.276  32.542   0.971
91245W        W63560   1.793  26.974  12.505
91246W        W63561  37.642  30.167  12.048
91247W        W63562  23.963  33.684  11.234
91248W        W63563  25.683  30.841  14.513
91249W        W63564   8.236  16.184   3.836
91250W        W63565  11.562  18.869   5.002
91251W        W63566  41.934  35.421  11.048
91252W        W63567  40.853  26.689  12.496
91253W        W63568  43.356  43.571   1.576
91254W        W63569  28.980  14.262  10.698
91255W        W63570  12.774  43.863  13.769
91256W        W63571  34.877  18.979  11.622
91257W        W63572   2.376  44.772   1.352
91258W        W63573   8.471   2.335   3.660
91259W        W63574   7.837  17.886  11.570
91260W        W63575  16.316   6.717   1.932
91261W        W63576  26.708  25.006   1.736
91262W        W63577  19.478   0.211   4.229
91263W        W63578  26.041  14.725   1.653
91264W        W63579  15.134  42.379  11.083
91265W        W63580   6.430  17.796   3.361
91266W        W63581  43.985   5.195   1.915
91267W        W63582  19.291   3.912  14.841
91268W        W63583  17.156  32.233  14.318
91269W        W63584  27.167  31.884  11.988
91270W        W63585  15.088   4.452  11.090
91271W        W63586  25.454   9.748   4.544
91272W        W63587  24.594  44.390   3.363
91273W        W63588   7.195  44.407  10.624
91274W        W63589  38.462  44.929   0.633
91275W        W63590  11.918  25.128   0.443
91276W        W63591  39.328  20.665  12.975
91277W        W63592   8.210  14.954   4.064
91278W        W63593  43.387   5.409   2.189
91279W        W63594  36.488  41.914   3.328
91280W        W63595  16.142   5.784   4.213
91281W        W63596   6.402  16.708  10.787
91282W        W63597  23.652  20.550   1.730
91283W        W63598  24.666   0.910  13.306
91284W        W63599  44.512  39.141   0.760
91285W        W63600  31.129   4.534  11.079
91286W        W63601  24.641   4.501   3.370
91287W        W63602  25.710   6.748   1.975
91288W        W63603  32.463  42.335   2.315
91289W        W63604  36.853  43.948   4.336
91290W        W63605   2.158  38.974  13.862
91291W        W63606  22.195  19.978   3.398
91292W        W63607  17.020  41.359   4.960
91293W        W63608   0.804  22.523   4.070
91294W        W63609  16.710   3.965  12.155
91295W        W63610  34.112  41.838   4.006
91296W        W63611  39.238  38.516  12.918
91297W        W63612  16.147  19.124   1.249
91298W        W63613   8.076  26.576   1.382
91299W        W63614  25.884  25.752  11.644
91300W        W63615  28.169  32.072   4.494
91301W        W63616  22.777  41.561   1.876
91302W        W63617  24.643  16.713   0.330
91303W        W63618   0.575  41.982   0.979
91304W        W63619  10.121  44.223   2.270
91305W        W63620  10.730  26.469  13.066
91306W        W63621  23.732  28.438   1.456
91307W        W63622  31.004  42.077  10.437
91308W        W63623  24.485  40.528   1.693
91309W        W63624   7.066  32.126   4.633
91310W        W63625   6.295  37.009   3.189
91311W        W63626  34.023  28.969   4.637
91312W        W63627   6.235   1.644   5.033
91313W        W63628  32.772  17.215   0.422
91314W        W63629  44.024  38.948   0.789
91315W        W63630  38.497  40.188  13.894
91316W        W63631  22.257  28.270  12.684
91317W        W63632  16.227  10.255   1.055
91318W        W63633  24.229  20.451  11.932
91319W        W63634  40.009   7.338   4.602
91320W        W63635  27.645  19.652   4.521
91321W        W63636  35.051  24.192   3.581
91322W        W63637  43.697  28.071  11.944
91323W        W63638  14.563  36.789  12.024
91324W        W63639  42.962   9.712   4.108
91325W        W63640  33.471   3.665   3.086
91326W        W63641  14.231  17.438   4.301
91327W        W63642   4.429   9.720   2.807
91328W        W63643  30.714  17.907  14.401
91329W        W63644  26.352  25.434   0.887
91330W        W63645  39.101   6.883   3.218
91331W        W63646  26.389  35.122  14.912
91332W        W63647  10.638  19.650  12.512
91333W        W63648   1.400  18.527  10.366
91334W        W63649  12.171   7.425   0.888
91335W        W63650  44.326  41.470  13.311
91336W        W63651  26.654  12.683   3.905
91337W        W63652  29.473   2.941   0.449
91338W        W63653  37.863  17.171   4.521
91339W        W63654  37.948  40.119   0.450
91340W        W63655  31.224  10.580  14.423
91341W        W63656  30.656   2.956   0.334
91342W        W63657  35.630  34.417   1.155
91343W        W63658  17.757  29.054  12.539
91344W        W63659  13.557  30.885  14.141
91345W        W63660  25.750  31.991   0.106
91346W        W63661  37.972  19.561  10.505
91347W        W63662   1.049   8.860   5.302
91348W        W63663  10.609  15.966   1.199
91349W        W63664  29.429  27.271   1.775
91350W        W63665   6.329  44.170   2.775
91351W        W63666   5.645  15.763  13.416
91352W        W63667  38.412   7.461  14.299
91353W        W63668  17.274  40.897  13.843
91354W        W63669  37.993  34.233   4.732
91355W        W63670  28.525  44.298  11.389
91356W        W63671  19.607   3.585   1.979
91357W        W63672   4.471  28.861  12.001
91358W        W63673  34.964  22.017   2.795
91359W        W63674   9.830  21.794  14.880
91360W        W63675  38.973  34.776  12.780
91361W        W63676  38.501   7.842  12.578
91362W        W63677   5.900  25.925   1.782
91363W        W63678  11.949  21.216   4.633
91364W        W63679  19.505  18.311   0.938
91365W        W63680  32.156  25.501  14.961
91366W        W63681   4.606  11.626   0.064
91367W        W63682  18.283   5.213  12.420
91368W        W63683  35.039   8.922   3.752
91369W        W63684  24.562  29.070  12.457
91370W        W63685  27.018  17.555  10.751
91371W        W63686  42.796  20.287   0.494
91372W        W63687  26.990  18.047   4.907
91373W        W63688  22.326  40.251  13.379
91374W        W63689   2.395  20.204   2.255
91375W        W63690  43.869   5.442  12.583
91376W        W63691  22.029   6.765  11.441
91377W        W63692  19.361  31.107  11.687
91378W        W63693  28.029  35.987   2.461
91379W        W63694   9.370  14.847   3.862
91380W        W63695   2.535  31.609  12.329
91381W        W63696  20.620   0.628   0.349
91382W        W63697  37.106  44.837   3.681
91383W        W63698  39.260   9.909   2.536
91384W        W63699  31.028  35.952   2.447
91385W        W63700  33.064  37.896  13.685
91386W        W63701  36.193  43.399   4.059
91387W        W63702  36.117  35.939   4.794
91388W        W63703  21.028   9.101  14.371
91389W        W63704  39.860  16.062   4.639
91390W        W63705  41.909  22.675  11.997
91391W        W63706  29.346  30.641   4.714
91392W        W63707   3.883  17.853   3.705
91393W        W63708  32.646  36.828  14.072
91394W        W63709  28.048   6.713  14.545
91395W        W63710  37.733  15.982  12.484
91396W        W63711  32.578   6.772   0.388
91397W        W63712  43.752  17.495   0.114
91398W        W63713   8.149  17.565  13.435
91399W        W63714  20.132  25.568  10.583
91400W        W63715   3.258  23.152  14.086
91401W        W63716  32.144  29.043  13.076
91402W        W63717  17.284  35.237   4.604
91403W        W63718  44.306  20.416   2.274
91404W        W63719  11.837  20.159  14.278
91405W        W63720  16.444  24.575   0.923
91406W        W63721   8.609   5.254  10.702
91407W        W63722  28.337  34.476   0.480
91408W        W63723  43.342   3.739   4.689
91409W        W63724  10.594  26.217   4.173
91410W        W63725  25.657  10.635  10.597
91411W        W63726  10.266  29.163  14.910
91412W        W63727   0.323  27.177  14.329
91413W        W63728  13.717  25.791  11.506
91414W        W63729  39.815  24.649  14.567
91415W        W63730  18.455  21.708   0.775
91416W        W63731  38.993  29.618   1.984
91417W        W63732   0.317  16.005   2.729
91418W        W63733  42.430   5.531  14.240
91419W        W63734   2.880  11.317   0.366
91420W        W63735  11.727   4.941  12.826
91421W        W63736   0.774  28.281  13.878
91422W        W63737  28.568  26.609  14.437
91423W        W63738  44.590  40.329   1.318
91424W        W63739  36.354  27.135  11.865
91425W        W63740   8.591  19.801   2.881
91426W        W63741  32.199  33.862   3.795
91427W        W63742  43.557  28.576  12.009
91428W        W63743  36.883  25.035   3.893
91429W        W63744  12.141  42.954   4.406
91430W        W63745  26.989   8.741  11.590
91431W        W63746  22.685  24.197   1.381
91432W        W63747  35.416  22.223   2.659
91433W        W63748  43.680   4.809  14.748
91434W        W63749  38.387  12.691  11.550
91435W        W63750  33.572  16.260  10.589
91436W        W63751  42.074   5.745  14.618
91437W        W63752  39.720  26.100   9.783
91438W        W63753  27.566  41.696  12.379
91439W        W63754  13.257   0.248   2.644
91440W        W63755   3.364  41.938  11.534
91441W        W63756  24.165  19.590  10.171
91442W        W63757   4.303  44.030   3.554
91443W        W63758  34.256   7.176  11.687
91444W        W63759  25.656  26.691   5.006
91445W        W63760  43.781   3.334   3.769
91446W        W63761  18.732  12.836  14.765
91447W        W63762   0.653   4.189   0.845
91448W        W63763  21.761  17.288  13.855
91449W        W63764  39.387  41.496   1.265
91450W        W63765   8.508  30.297  11.136
91451W        W63766  26.899  17.004   1.843
91452W        W63767  22.474  38.586   3.228
91453W        W63768   2.257   1.288   1.431
91454W        W63769   4.515  19.209   3.696
91455W        W63770  28.362  29.000  12.975
91456W        W63771  43.784  34.148   1.233
91457W        W63772   4.275  19.548  13.134
91458W        W63773   7.908  22.564  12.706
91459W        W63774  34.304  15.065   2.864
91460W        W63775  36.462  28.150  11.896
91461W        W63776  19.013  25.211  13.441
91462W        W63777  44.993   9.813  13.399
91463W        W63778  38.382  13.816  14.259
91464W        W63779  32.496  38.562   4.797
91465W        W63780  35.763  15.596   4.824
91466W        W63781   9.994  21.471  10.668
91467W        W63782  28.473  39.508   1.234
91468W        W63783  27.379  28.937   0.001
91469W        W63784  32.088   7.416  11.926
91470W        W63785  28.616  10.893   1.225
91471W        W63786  10.297  36.878   3.651
91472W        W63787   9.699   4.332  14.313
91473W        W63788  40.572  20.793   2.156
91474W        W63789   6.590  13.099   2.323
91475W        W63790  37.658  26.723   0.939
91476W        W63791  29.189  22.752   3.206
91477W        W63792  12.533  40.327   3.494
91478W        W63793  12.891   8.366  11.794
91479W        W63794  20.676   4.331   0.269
91480W        W63795  20.370  34.525  13.157
91481W        W63796   3.326   9.085   0.875
91482W        W63797  16.223   6.255   4.003
91483W        W63798  14.193  36.018   4.230
91484W        W63799   8.316  14.143   2.890
91485W        W63800  33.046  20.276   1.848
91486W        W63801  16.915  15.812   5.097
91487W        W63802  38.104  33.468   1.350
91488W        W63803  40.414  23.479   3.852
91489W        W63804  39.896  31.094   0.261
91490W        W63805   3.815  44.364  12.808
91491W        W63806  14.609  24.915   4.622
91492W        W63807  10.057  41.455  14.875
91493W        W63808  26.125  37.862   3.123
91494W        W63809  29.084  36.331  13.264
91495W        W63810  28.806  11.227  11.911
91496W        W63811  44.726  20.052   0.410
91497W        W63812  38.350  15.465   2.304
91498W        W63813  17.783  22.669   1.450
91499W        W63814  41.223  39.268   2.884
91500W        W63815   8.679  30.391   1.281
91501W        W63816   1.527  36.850  11.177
91502W        W63817   4.001   8.189  14.229
91503W        W63818  41.266  25.859  14.752
91504W        W63819  33.156  43.502  11.126
91505W        W63820  22.125  16.111   1.639
91506W        W63821  24.486  25.630   3.809
91507W        W63822  28.101  17.298  12.628
91508W        W63823  32.852  10.671  11.072
91509W        W63824   6.230  36.012  12.116
91510W        W63825  21.107  24.079  14.796
91511W        W63826  11.741  42.734   3.680
91512W        W63827  22.456  16.042   4.749
91513W        W63828  39.639  21.887  14.946
91514W        W63829   6.293   7.327   4.853
91515W        W63830   3.800  17.255   2.843
91516W        W63831  19.286  18.710   0.182
91517W        W63832   4.677  44.425  12.272
91518W        W63833  20.137  19.332   1.254
91519W        W63834  26.539  36.046   0.423
91520W        W63835  40.138   8.775  13.860
91521W        W63836  13.593  33.667   2.473
91522W        W63837  26.461  22.698   1.058
91523W        W63838  33.838  12.582  10.831
91524W        W63839  10.256   7.878  11.211
91525W        W63840  39.446  41.823  11.811
91526W        W63841  37.535   1.445   3.894
91527W        W63842  17.793  27.267   0.891
91528W        W63843  27.979  15.207  11.078
91529W        W63844  21.683  30.682   5.046
91530W        W63845  31.288   7.797  14.877
91531W        W63846  40.790  15.185   0.560
91532W        W63847  44.448  30.421  12.080
91533W        W63848  30.144  28.034   2.902
91534W        W63849   5.670  17.864   3.807
91535W        W63850  42.262  40.998  14.383
91536W        W63851  30.893  39.054  11.037
91537W        W63852  41.520  33.653  12.360
91538W        W63853  10.363  10.735   3.354
91539W        W63854  41.717   9.887   0.158
91540W        W63855  29.378  10.235   3.556
91541W        W63856  13.770  28.599   0.553
91542W        W63857  22.716  27.464   1.950
91543W        W63858  14.640  27.246   2.877
91544W        W63859  34.066  11.671   2.361
91545W        W63860  18.251   6.277   1.189
91546W        W63861   7.253   7.835   1.893
91547W        W63862  32.908   4.220   3.366
91548W        W63863  36.914  22.224  13.460
91549W        W63864  36.037  35.178   5.013
91550W        W63865  21.044  21.616   0.124
91551W        W63866  14.331   7.873  10.395
91552W        W63867   4.158  25.284   1.256
91553W        W63868  29.204   1.756   3.750
91554W        W63869  33.296  44.251  11.039
91555W        W63870  12.641  30.481   3.665
91556W        W63871  12.332  43.952  12.944
91557W        W63872  18.258  12.838  14.551
91558W        W63873  44.764   7.946   2.277
91559W        W63874  41.500   3.959   1.322
91560W        W63875  42.410  39.037   0.430
91561W        W63876  12.181  20.382  12.922
91562W        W63877   1.883   6.843  11.988
91563W        W63878  37.118  10.612  10.659
91564W        W63879  41.950  42.131   4.552
91565W        W63880  32.126  34.248   0.756
91566W        W63881   4.734  33.195   4.639
91567W        W63882  19.600  23.129  10.707
91568W        W63883   3.019  31.868   3.174
91569W        W63884   5.893  17.219   1.730
91570W        W63885  22.990  38.949   3.483
91571W        W63886  10.144  35.096   4.212
91572W        W63887  30.176  20.540   4.770
91573W        W63888  27.052  16.676  14.676
91574W        W63889  31.630   0.651  11.515
91575W        W63890   8.844   7.734   1.103
91576W        W63891  30.886  13.403   1.433
91577W        W63892  11.657  41.867   2.654
91578W        W63893  12.920  27.363   2.251
91579W        W63894  37.948  24.720   4.207
91580W        W63895  33.324  27.167  12.030
91581W        W63896   1.818  21.180   2.160
91582W        W63897  43.891  32.874  14.366
91583W        W63898  39.644   4.291   2.796
91584W        W63899  23.521  25.273   2.789
91585W        W63900  40.373  36.394  14.015
91586W        W63901  37.397   1.306   1.424
91587W        W63902  35.615  32.504   1.408
91588W        W63903  26.911  12.655  13.286
91589W        W63904   6.190  16.713  12.388
91590W        W63905  15.798  42.459  12.439
91591W        W63906   9.751  16.680   2.255
91592W        W63907  38.563  12.380  10.470
91593W        W63908  15.888  14.226   4.061
91594W        W63909  31.012  21.310   3.818
91595W        W63910  17.202  33.805  12.871
91596W        W63911   5.850  41.257   0.644
91597W        W63912  18.829   8.886   3.370
91598W        W63913  31.719  14.877   0.497
91599W        W63914  26.420   1.441   1.342
91600W        W63915  39.393  41.215  13.011
91601W        W63916  13.253  40.938  14.811
91602W        W63917  24.029  16.706   0.444
91603W        W63918   9.541  22.738   3.541
91604W        W63919   9.212  19.021   1.372
91605W        W63920  31.882  26.138  13.398
91606W        W63921   3.830  44.202   4.243
91607W        W63922  37.964   0.546   2.274
91608W        W63923   3.858  16.448   0.294
91609W        W63924  22.021  22.267   2.876
91610W        W63925  18.301  38.304  11.518
91611W        W63926   0.421  10.626   2.813
91612W        W63927  13.668  43.738   3.431
91613W        W63928  35.534  13.973  11.204
91614W        W63929   6.656  23.539  14.852
91615W        W63930  13.322   5.605   3.552
91616W        W63931  29.121   7.764   2.194
91617W        W63932   5.476  22.662  11.171
91618W        W63933  35.853   6.625  13.788
91619W        W63934  38.281  24.893  11.165
91620W        W63935   9.914  13.614   3.893
91621W        W63936  23.268  19.779   0.403
91622W        W63937  16.124  16.780   4.123
91623W        W63938  41.197  34.942   3.293
91624W        W63939   5.818  18.220   0.720
91625W        W63940  17.342  27.910  12.131
91626W        W63941   0.399  27.579  13.336
91627W        W63942  42.176  11.857   0.784
91628W        W63943  17.500  39.777   4.682
91629W        W63944  18.275  25.659   3.603
91630W        W63945   5.751  39.520   4.046
91631W        W63946  26.472  25.499   1.698
91632W        W63947  39.288  13.043   3.243
91633W        W63948  30.745  25.072  10.798
91634W        W63949  37.042   4.426   0.471
91635W        W63950   6.034  13.694   4.614
91636W        W63951   0.900  22.693   3.209
91637W        W63952  13.823  29.255   4.836
91638W        W63953  23.940  25.303   5.124
91639W        W63954  15.880  36.618  13.254
91640W        W63955  15.087  27.174   4.547
91641W        W63956  39.832  43.941   1.212
91642W        W63957  38.710  41.349   2.635
91643W        W63958  32.489  33.853  11.539
91644W        W63959  29.287  25.899   1.807
91645W        W63960  39.112  15.977  12.616
91646W        W63961  32.026  20.471  11.454
91647W        W63962  37.907  10.453  11.156
91648W        W63963  18.053   7.360   2.164
91649W        W63964  26.516  10.883  12.084
91650W        W63965  14.336  39.100  13.414
91651W        W63966  31.888  16.045   0.687
91652W        W63967  40.815  13.536  12.950
91653W        W63968  39.729  12.383  11.116
91654W        W63969   3.551  34.836   3.421
91655W        W63970  13.817  16.566   0.792
91656W        W63971  16.348  10.594  11.138
91657W        W63972  32.843   5.765   1.293
91658W        W63973   3.915   0.447  14.308
91659W        W63974  19.248   2.937  12.950
91660W        W63975   2.947  35.323   2.793
91661W        W63976   4.878  34.043  11.691
91662W        W63977  29.468  40.948   3.538
91663W        W63978   5.866  24.969  11.376
91664W        W63979  25.477  31.105   3.331
91665W        W63980  34.809  39.302  14.833
91666W        W63981  39.494  30.204   0.927
91667W        W63982  16.705  43.439   3.360
91668W        W63983  20.656   4.798   4.170
91669W        W63984   6.347  43.853   3.240
91670W        W63985   3.481   0.295  13.146
91671W        W63986  20.032  16.119  14.372
91672W        W63987  40.327  22.287   1.731
91673W        W63988  24.729  23.613  14.463
91674W        W63989  15.669   8.430   3.853
91675W        W63990  12.079  14.587   2.752
91676W        W63991  24.911  25.422  11.467
91677W        W63992   3.883  13.457   4.338
91678W        W63993  18.824  31.664  10.582
91679W        W63994   1.862   3.869  13.790
91680W        W63995  17.210   2.973   2.724
91681W        W63996  10.153  22.285  11.456
91682W        W63997  11.674  11.328   0.273
91683W        W63998  31.338  36.543   0.023
91684W        W63999  12.789  11.336  14.950
91685W        W64000  16.854  21.086  11.481
91686W        W64001  12.161  10.618  10.473
91687W        W64002  36.441   1.368   4.339
91688W        W64003   1.741  26.311  13.800
91689W        W64004   0.302   3.376   0.459
91690W        W64005   9.911  38.088   4.804
91691W        W64006  39.489  26.012   2.666
91692W        W64007  28.939   2.738   2.871
91693W        W64008   6.948  27.339  11.202
91694W        W64009   6.187  28.555   0.226
91695W        W64010  17.494  10.400   5.083
91696W        W64011  29.663  19.486   4.156
91697W        W64012  13.656   9.272   1.446
91698W        W64013  15.385   0.375   1.723
91699W        W64014  12.658   2.332   0.684
91700W        W64015  43.694  30.447  11.250
91701W        W64016  11.701  15.506   4.418
91702W        W64017  41.973   1.388  11.276
91703W        W64018   4.701  11.659   4.566
91704W        W64019  14.185  24.932   4.345
91705W        W64020   6.837  13.923   1.721
91706W        W64021  38.522  43.850  12.160
91707W        W64022  36.373  11.882  12.966
91708W        W64023  36.401  13.806   0.653
91709W        W64024  38.037  43.949   2.404
91710W        W64025  25.802  16.580  14.154
91711W        W64026  26.581   3.161  11.207
91712W        W64027   1.552  16.374   1.001
91713W        W64028  29.925   3.228  10.906
91714W        W64029  32.563  39.932   0.335
91715W        W64030  30.528  30.521   1.230
91716W        W64031  20.631  19.277   3.314
91717W        W64032   0.728  20.835  12.468
91718W        W64033   9.607  23.541  12.879
91719W        W64034  27.132  10.377   1.350
91720W        W64035  19.683   4.460   3.197
91721W        W64036  18.963  26.182  12.565
91722W        W64037  14.909  42.863   3.222
91723W        W64038  36.364  23.603  10.800
91724W        W64039  25.044  34.401  12.498
91725W        W64040  44.811  11.224   3.902
91726W        W64041  10.499  38.738   1.766
91727W        W64042  39.964  40.433   1.202
91728W        W64043  35.970   8.638  12.001
91729W        W64044  16.238  23.627  12.551
91730W        W64045   2.900  13.126  14.853
91731W        W64046   7.893  36.141   0.232
91732W        W64047  28.329   1.790  11.707
91733W        W64048  21.313   4.059  12.608
91734W        W64049  10.604  44.326   1.545
91735W        W64050   5.026   5.164   5.255
91736W        W64051  10.681  41.855   0.844
91737W        W64052  39.393   4.252   2.229
91738W        W64053  18.140  26.003  13.084
91739W        W64054  38.389  32.075  12.451
91740W        W64055  23.883  26.837   3.166
91741W        W64056  37.902  20.840   2.740
91742W        W64057  38.411   5.487  14.321
91743W        W64058  28.696  38.332  14.898
91744W        W64059  24.055  18.607  10.706
91745W        W64060   6.309   3.796  11.140
91746W        W64061  24.084  44.208   4.609
91747W        W64062   7.090  15.681  14.965
91748W        W64063   8.575   4.216   0.027
91749W        W64064   2.284  28.430  11.801
91750W        W64065  24.138  24.133  12.484
91751W        W64066  39.596  40.474  14.372
91752W        W64067  32.010  18.163   0.357
91753W        W64068   3.720  10.739  11.589
91754W        W64069  28.473   9.762  11.392
91755W        W64070   5.142  28.245   4.249
91756W        W64071  10.824  35.295  12.034
91757W        W64072   8.958   2.505   0.891
91758W        W64073  35.556  38.078  13.763
91759W        W64074  31.077  25.004  14.924
91760W        W64075   5.164   4.824   3.345
91761W        W64076  42.901  37.834  12.902
91762W        W64077  20.025  22.712   4.626
91763W        W64078  35.803  34.439  13.037
91764W        W64079   0.524  16.223  13.484
91765W        W64080   0.688  32.849   3.312
91766W        W64081  43.528  31.913   0.851
91767W        W64082  25.730  23.336  10.953
91768W        W64083  37.983  20.174  11.643
91769W        W64084  29.025   1.114   1.250
91770W        W64085  20.687   4.264  11.159
91771W        W64086   8.232  20.608  11.907
91772W        W64087  44.666  24.011  12.450
91773W        W64088  35.498   3.613  12.454
91774W        W64089  36.476  11.429  13.228
91775W        W64090  33.180  16.848   1.743
91776W        W64091   9.719  42.007  13.520
91777W        W64092   9.081  37.103   0.486
91778W        W64093  16.699  16.595   0.781
91779W        W64094   8.961  37.853   4.426
91780W        W64095  41.369  40.450   3.718
91781W        W64096  32.881  18.036   3.352
91782W        W64097  44.412  42.709  10.311
91783W        W64098  21.813  32.128  12.907
91784W        W64099  36.999  14.499   3.317
91785W        W64100  29.377  21.767  11.546
91786W        W64101  44.280  16.372  11.040
91787W        W64102  23.557  38.999   2.695
91788W        W64103  23.341  12.126   0.194
91789W        W64104   4.846   9.604   2.247
91790W        W64105  22.529   2.443  13.662
91791W        W64106   9.171  20.939   0.685
91792W        W64107   0.211  26.966   2.760
91793W        W64108  18.375  24.920  12.652
91794W        W64109  38.227  28.917  14.999
91795W        W64110  16.502  31.018  12.665
91796W        W64111  23.943   7.818  10.750
91797W        W64112   8.665  30.094   2.174
91798W        W64113  20.764  35.459  13.379
91799W        W64114  17.445  40.153  13.522
91800W        W64115  44.947  14.345  13.408
91801W        W64116  33.306  34.919  10.461
91802W        W64117  11.273  34.820   2.217
91803W        W64118   8.432   5.532   2.011
91804W        W64119  12.202  15.311  10.714
91805W        W64120  37.629  13.090  11.756
91806W        W64121   5.798  16.300   1.507
91807W        W64122  32.088  25.010  14.788
91808W        W64123  43.295  34.026   1.806
91809W        W64124   9.443  12.550  13.042
91810W        W64125  11.350   4.658  13.046
91811W        W64126  26.220   7.171  10.556
91812W        W64127  35.940  43.794   0.882
91813W        W64128   9.756  31.208  11.403
91814W        W64129  14.577  25.840  14.380
91815W        W64130  42.971  43.433   0.843
91816W        W64131   4.878   9.916  11.639
91817W        W64132  28.593   7.536   3.246
91818W        W64133  26.602   4.873  10.739
91819W        W64134  16.532  28.332   3.236
91820W        W64135  34.005  13.390  11.143
91821W        W64136   5.865  14.512   4.225
91822W        W64137   7.313   0.393  13.318
91823W        W64138  34.558  22.533   3.713
91824W        W64139   3.984   6.554   1.186
91825W        W64140  33.112  40.998  10.507
91826W        W64141  25.889   9.779   4.228
91827W        W64142   4.698  19.995  14.285
91828W        W64143   4.905  24.497  11.066
91829W        W64144   3.233  24.714   0.620
91830W        W64145  10.207  27.035  11.946
91831W        W64146   9.240  11.204  13.445
91832W        W64147  29.002   2.399  12.467
91833W        W64148  14.262  26.742   3.097
91834W        W64149  43.994   2.759   0.394
91835W        W64150  13.806   3.464   0.866
91836W        W64151  43.627  44.433   3.797
91837W        W64152  34.931  38.368  14.407
91838W        W64153  14.452  25.833   0.644
91839W        W64154   4.322   2.800   5.112
91840W        W64155  12.705   4.718   4.412
91841W        W64156  15.377  24.323   1.659
91842W        W64157  10.640  36.862   0.174
91843W        W64158  24.452  28.977  13.503
91844W        W64159  37.629   7.528   2.854
91845W        W64160  38.631  23.137  14.059
91846W        W64161  44.984  41.812  14.888
91847W        W64162  44.797  33.716   0.379
91848W        W64163  15.054  27.739  14.541
91849W        W64164  32.085   1.939  10.778
91850W        W64165  27.419  12.238   4.105
91851W        W64166  30.844  43.429  13.142
91852W        W64167  26.597  24.063   3.637
91853W        W64168  22.562  32.820  13.738
91854W        W64169  12.332  28.505  12.195
91855W        W64170  16.019  13.183   3.222
91856W        W64171   8.438  12.408  11.526
91857W        W64172  17.652  34.862   4.665
91858W        W64173  30.043  16.705   2.514
91859W        W64174  19.057  38.502  12.815
91860W        W64175  21.070  17.027  10.816
91861W        W64176  40.858   6.252   4.332
91862W        W64177  31.514  22.163  10.410
91863W        W64178  24.966  39.589  13.514
91864W        W64179  13.589  36.372  14.530
91865W        W64180  41.956  26.495  13.367
91866W        W64181  29.159  17.589   1.277
91867W        W64182  30.057  31.675  14.275
91868W        W64183  23.230  15.464   2.513
91869W        W64184  40.968   1.003  13.321
91870W        W64185   1.752   4.194   2.840
91871W        W64186  39.070   5.721   0.521
91872W        W64187   8.425  27.161  12.963
91873W        W64188  36.240  19.521  12.868
91874W        W64189   9.906  41.962  14.981
91875W        W64190  31.066  44.420  10.968
91876W        W64191   6.821  32.065  12.943
91877W        W64192  34.936  37.081  13.289
91878W        W64193   0.307   2.929   1.411
91879W        W64194  18.091  13.688   4.595
91880W        W64195  31.982  34.962   5.113
91881W        W64196  31.981  33.612  14.395
91882W        W64197   3.537  24.942  11.537
91883W        W64198  41.243  42.567  12.030
91884W        W64199   8.673  44.693  13.223
91885W        W64200  29.429  13.471  13.964
91886W        W64201  34.147  24.998   3.280
91887W        W64202  33.836  24.526   0.923
91888W        W64203  24.922  23.508  11.157
91889W        W64204  40.199  17.135   1.498
91890W        W64205   5.045  20.600   2.522
91891W        W64206  34.587  14.812   3.721
91892W        W64207  30.547  33.920   1.360
91893W        W64208   2.983  17.946   3.042
91894W        W64209   9.382  14.703  14.384
91895W        W64210  23.219   9.010  14.462
91896W        W64211  36.653   8.221   4.563
91897W        W64212   3.494  13.210  12.039
91898W        W64213  31.078  41.506  14.308
91899W        W64214   3.381  38.368  10.637
91900W        W64215  17.839  17.816   4.080
91901W        W64216  10.632   8.798   3.238
91902W        W64217   4.709  24.149   4.768
91903W        W64218   4.178   9.090   3.814
91904W        W64219  13.825  24.776  13.544
91905W        W64220  37.942  39.845  12.289
91906W        W64221  39.439  26.519   2.487
91907W        W64222  13.762   4.514  12.487
91908W        W64223  16.295  23.818   3.159
91909W        W64224  16.650  15.466  12.805
91910W        W64225  36.598  25.161  12.298
91911W        W64226   1.652  28.035   4.396
91912W        W64227  23.777  26.395  13.469
91913W        W64228  15.810  19.150  14.460
91914W        W64229   8.502  14.703   1.716
91915W        W64230  39.929  21.527  12.879
91916W        W64231  22.473  28.915  13.853
91917W        W64232  13.203   4.008   0.545
91918W        W64233  11.198   1.657   3.376
91919W        W64234  24.225   5.580  13.009
91920W        W64235  23.104  14.523   0.208
91921W        W64236  17.612   8.157  12.073
91922W        W64237  13.170  29.128  11.930
91923W        W64238  19.134  41.792  11.553
91924W        W64239   5.970  11.416   0.671
91925W        W64240  38.896  16.626  10.608
91926W        W64241  41.540   4.756   0.429
91927W        W64242  24.474  34.370  11.647
91928W        W64243  41.400  12.237  12.313
91929W        W64244  27.879  27.560   1.376
91930W        W64245   9.657  30.165  10.790
91931W        W64246  41.048  33.941   1.920
91932W        W64247  33.046  24.389   2.672
91933W        W64248  11.885   2.485   1.744
91934W        W64249   2.020  15.482   3.721
91935W        W64250  21.203  12.123  13.081
91936W        W64251  11.778  42.885   2.157
91937W        W64252  39.099  19.272  14.035
91938W        W64253   8.206  16.471   4.583
91939W        W64254  16.829  29.969   1.958
91940W        W64255  10.101  40.894  12.796
91941W        W64256   2.379  19.245   1.034
91942W        W64257  36.027  32.503  12.184
91943W        W64258  18.615   5.588  14.743
91944W        W64259  27.662   6.311   2.496
91945W        W64260  29.404   4.195  13.124
91946W        W64261  25.350  28.239  14.017
91947W        W64262  33.916  22.767  12.477
91948W        W64263  21.234  32.806   1.205
91949W        W64264   7.880  10.715   3.443
91950W        W64265   6.946   8.733  11.514
91951W        W64266  26.764  27.465  12.168
91952W        W64267   6.153   6.241   0.411
91953W        W64268  40.728   2.396  12.595
91954W        W64269  33.713  15.035   4.175
91955W        W64270  26.891  38.341  11.494
91956W        W64271   9.639   5.112  13.921
91957W        W64272  39.636  36.363  12.042
91958W        W64273  29.441  34.073  12.878
91959W        W64274  12.245  15.362   3.255
91960W        W64275  22.657  42.327   1.473
91961W        W64276   8.664  16.242   4.710
91962W        W64277  41.281  28.193  14.536
91963W        W64278  34.384  12.128   2.645
91964W        W64279   2.827   2.720  13.382
91965W        W64280  33.560  19.766  13.836
91966W        W64281  32.518   1.154  10.712
91967W        W64282  39.347  39.052   2.734
91968W        W64283  12.320  20.010  14.202
91969W        W64284   7.193  15.579   1.283
91970W        W64285  24.055  19.406   2.879
91971W        W64286  42.048   9.799  12.306
91972W        W64287  15.245  29.010  12.828
91973W        W64288  23.054   7.101   1.880
91974W        W64289  14.279  30.587  12.009
91975W        W64290  41.992  14.370  13.324
91976W        W64291  13.217   5.654   1.198
91977W        W64292   0.774   5.940  13.522
91978W        W64293  11.827  28.589   0.356
91979W        W64294  37.903  12.899   1.087
91980W        W64295   4.357   5.377  12.417
91981W        W64296  34.576  28.014   3.923
91982W        W64297  43.365  40.597   1.788
91983W        W64298  33.641  13.006   0.948
91984W        W64299   0.891  21.637   1.079
91985W        W64300  21.187  19.781   2.321
91986W        W64301  16.773  23.549  14.670
91987W        W64302   2.960  25.677  11.021
91988W        W64303  40.515  22.578   4.243
91989W        W64304  42.264  32.002  12.863
91990W        W64305   6.797  10.794   4.655
91991W        W64306  35.852   3.756  13.811
91992W        W64307  13.874  28.489  11.708
91993W        W64308  37.993  44.741   3.675
91994W        W64309  44.142  32.536  13.008
91995W        W64310  38.476  30.406  13.376
91996W        W64311  20.441  26.679  11.932
91997W        W64312  38.850   4.597  12.283
91998W        W64313  34.692  17.513   5.103
91999W        W64314   5.746  34.607   2.694
92000W        W64315   7.425  35.564  12.129
92001W        W64316  14.921  40.528   4.894
92002W        W64317  37.328  29.094   0.633
92003W        W64318  20.522   8.895   3.237
92004W        W64319  33.424  26.070  11.685
92005W        W64320  28.511  19.573   2.846
92006W        W64321  11.788  40.877   0.388
92007W        W64322  44.506  30.906   3.409
92008W        W64323   8.801  28.144  11.292
92009W        W64324  28.124  44.834   2.835
92010W        W64325   2.566   0.722  10.688
92011W        W64326  43.512   8.707  11.992
92012W        W64327  24.481  17.810  12.896
92013W        W64328  31.525  14.694  11.611
92014W        W64329  31.084  42.415  11.722
92015W        W64330  25.034  30.933  13.363
92016W        W64331  17.684  10.924  12.921
92017W        W64332  13.034   2.191  13.798
92018W        W64333   4.471  37.684  11.126
92019W        W64334  24.671   5.562  13.306
92020W        W64335  18.997  37.548  12.283
92021W        W64336  10.851  17.971   2.612
92022W        W64337  29.891  34.558  14.084
92023W        W64338  24.945  36.651   0.685
92024W        W64339  20.600  21.103   3.947
92025W        W64340   5.452  40.958  10.767
92026W        W64341  26.936  19.987  14.499
92027W        W64342   1.952  33.410  11.693
92028W        W64343  33.055   1.796  11.599
92029W        W64344  19.696  16.262  13.440
92030W        W64345  23.241  37.534  14.310
92031W        W64346  42.733  12.611   2.714
92032W        W64347  41.815  14.769  14.807
92033W        W64348  36.628  24.266   4.761
92034W        W64349  40.024  27.096  13.967
92035W        W64350  20.918  21.680   0.966
92036W        W64351  12.725  42.922   1.819
92037W        W64352  18.292  20.526  14.298
92038W        W64353  27.939  32.441   4.111
92039W        W64354  37.866   8.232  14.967
92040W        W64355   6.195  23.307   2.854
92041W        W64356  42.819  41.976  13.026
92042W        W64357  20.724  11.182   4.662
92043W        W64358   0.759  42.115   0.456
92044W        W64359  21.003  12.709   2.444
92045W        W64360  28.641  32.794   1.361
92046W        W64361  17.314  25.171   3.136
92047W        W64362  36.350  30.137  14.231
92048W        W64363  14.402  25.256   2.302
92049W        W64364  34.606  21.019   3.679
92050W        W64365  42.944  23.011  14.749
92051W        W64366  31.641  32.140   3.412
92052W        W64367  25.462  35.302   2.196
92053W        W64368  22.937  10.969  11.168
92054W        W64369  37.599   0.906   5.047
92055W        W64370   9.647  44.930  11.492
92056W        W64371  16.236  29.015  13.387
92057W        W64372  24.308  15.963   0.462
92058W        W64373  43.687  20.052  11.199
92059W        W64374  38.734   4.895   9.915
92060W        W64375  40.523   2.731   2.311
92061W        W64376  22.120  12.979   4.301
92062W        W64377  30.627  40.147  14.302
92063W        W64378  20.790  15.829  14.259
92064W        W64379  21.498   6.689   0.366
92065W        W64380  16.261  27.163  14.283
92066W        W64381  12.729  41.280  14.441
92067W        W64382  38.047  11.772   0.434
92068W        W64383  21.583  26.496   0.719
92069W        W64384  25.765  12.294   3.206
92070W        W64385  22.609  21.051  11.563
92071W        W64386  41.780  10.583   1.674
92072W        W64387  15.939  32.648  11.137
92073W        W64388  39.913  34.856  10.598
92074W        W64389   2.860  19.158  12.066
92075W        W64390   5.807   3.421  11.602
92076W        W64391  26.226  24.225  14.343
92077W        W64392  33.988  39.764   3.167
92078W        W64393  33.765   3.261   5.102
92079W        W64394  27.420  10.155   1.942
92080W        W64395  39.154  34.779  10.188
92081W        W64396  35.450  38.812  12.947
92082W        W64397  23.142  39.850   2.593
92083W        W64398  17.521  31.640   1.758
92084W        W64399   5.166  27.673  10.417
92085W        W64400  40.726  44.964  14.377
92086W        W64401   8.861  25.024   0.192
92087W        W64402   6.305  11.677  11.911
92088W        W64403  29.605  39.178  14.375
92089W        W64404  39.083  23.953   4.706
92090W        W64405  38.101  29.516  12.429
92091W        W64406  27.403  14.244   4.889
92092W        W64407  26.933   9.718   1.404
92093W        W64408  17.581   9.096  14.825
92094W        W64409   9.324   3.945   1.291
92095W        W64410  16.648  14.567  14.982
92096W        W64411  28.513  23.671  10.388
92097W        W64412  27.975  39.334   1.283
92098W        W64413  41.978  33.916   3.672
92099W        W64414  38.678  14.721  13.062
92100W        W64415  28.504   3.985   3.180
92101W        W64416  40.791   1.286   3.894
92102W        W64417  32.442  29.169   1.041
92103W        W64418  39.121  17.718  13.979
92104W        W64419  44.051   3.414  14.332
92105W        W64420  40.976  38.303  10.694
92106W        W64421  24.951  15.265   3.753
92107W        W64422  19.619  22.468   1.243
92108W        W64423  17.611  41.791  14.459
92109W        W64424  35.837  10.849  11.342
92110W        W64425  25.739  17.824  12.577
92111W        W64426  20.141  33.552   4.395
92112W        W64427  44.326  16.741  13.059
92113W        W64428  17.203  16.194   3.791
92114W        W64429  11.017  25.720  12.034
92115W        W64430  17.080  23.345   0.860
92116W        W64431  10.316  41.072   1.215
92117W        W64432  28.649  44.000  13.146
92118W        W64433  11.863  20.170   2.748
92119W        W64434  33.418  12.118   1.045
92120W        W64435  23.003   9.146   1.627
92121W        W64436  40.134  19.261   4.533
92122W        W64437  29.037  22.617   2.099
92123W        W64438  41.537  33.636   3.581
92124W        W64439  27.597  13.933  11.102
92125W        W64440  24.040   6.726   3.395
92126W        W64441  40.418  19.965  12.603
92127W        W64442  25.148  10.791  12.787
92128W        W64443  33.970  39.145  13.504
92129W        W64444  24.238   4.746   0.929
92130W        W64445  34.887  10.214  13.832
92131W        W64446  27.159  18.240   2.909
92132W        W64447  33.543  24.008   2.161
92133W        W64448  29.232  21.786   4.021
92134W        W64449  26.997   4.864  10.112
92135W        W64450  41.226  10.384  10.765
92136W        W64451  39.799  25.175  11.968
92137W        W64452  10.637  17.276   2.342
92138W        W64453  40.411  10.334  14.881
92139W        W64454  22.671   0.899  11.119
92140W        W64455   1.181   7.168  10.512
92141W        W64456  23.115   7.467   0.974
92142W        W64457   9.322  13.648   4.800
92143W        W64458  15.168  20.653   1.122
92144W        W64459  20.477  34.914   1.905
92145W        W64460   0.184  18.230   2.316
92146W        W64461  32.649  42.832   0.384
92147W        W64462  35.543  21.055   0.042
92148W        W64463   0.174  18.156   4.586
92149W        W64464  30.017  43.750   4.810
92150W        W64465  21.568  17.703   3.258
92151W        W64466   3.193  14.726  13.477
92152W        W64467  37.482   2.407  13.990
92153W        W64468  17.590  42.217   0.904
92154W        W64469  25.898  29.022   1.113
92155W        W64470  29.374  22.989   3.647
92156W        W64471  41.697  14.160  12.958
92157W        W64472  14.317   4.850  10.417
92158W        W64473  21.856  12.287   1.482
92159W        W64474  23.096  38.324  11.507
92160W        W64475  34.399  31.887  11.328
92161W        W64476  30.212  44.313  11.578
92162W        W64477  30.159  20.679   3.818
92163W        W64478  10.923  20.662  11.282
92164W        W64479  24.931  16.758   3.662
92165W        W64480  10.226   4.188   4.745
92166W        W64481  14.830  39.146  11.619
92167W        W64482  21.824   2.504   4.877
92168W        W64483  27.691  20.963   4.071
92169W        W64484  29.149  14.192  12.479
92170W        W64485   9.769  31.923  10.193
92171W        W64486  10.082  14.114  10.745
92172W        W64487  21.104  13.743  11.949
92173W        W64488   5.817  33.029   0.871
92174W        W64489  12.893  32.494  10.427
92175W        W64490  13.348   5.666  13.069
92176W        W64491  33.190   1.606  13.280
92177W        W64492  35.129   1.161   4.452
92178W        W64493  25.977   9.308   3.320
92179W        W64494  12.832  30.508  13.222
92180W        W64495  14.702   8.842   2.228
92181W        W64496  20.140  26.567  11.486
92182W        W64497  19.153  36.467  14.602
92183W        W64498  32.866  31.889  10.686
92184W        W64499  21.207   0.421   4.579
92185W        W64500  35.401   0.920   1.568
92186W        W64501  14.166   5.969   4.503
92187W        W64502  25.796   0.360  11.860
92188W        W64503   0.669  23.695   4.181
92189W        W64504  12.931  22.621  14.776
92190W        W64505  15.796   6.742   1.846
92191W        W64506   9.871  14.384  14.933
92192W        W64507  34.646  37.482   4.058
92193W        W64508  44.028  34.902   3.105
92194W        W64509  32.239   7.570   4.089
92195W        W64510  39.856  12.906   2.259
92196W        W64511  13.217   1.356  13.747
92197W        W64512  30.644  38.564   1.256
92198W        W64513  11.625  19.114   2.161
92199W        W64514  20.012  24.027   3.360
92200W        W64515   7.852   5.280  13.181
92201W        W64516   7.734  22.837  10.449
92202W        W64517   7.450  31.553   4.208
92203W        W64518  25.619  26.440  11.160
92204W        W64519   7.143  25.189   0.730
92205W        W64520  39.453   2.744  11.202
92206W        W64521  33.104  33.437  11.141
92207W        W64522  34.668  38.361   4.144
92208W        W64523  30.545   9.631  11.732
92209W        W64524   6.061  44.954   4.115
92210W        W64525   1.112  39.825   4.497
92211W        W64526  40.836  27.386  14.454
92212W        W64527   4.312  16.150   0.353
92213W        W64528  25.759  19.663  11.599
92214W        W64529  43.385   3.783   1.913
92215W        W64530   9.202  26.012   3.192
92216W        W64531  40.345  39.588   2.467
92217W        W64532  40.968   2.308   0.687
92218W        W64533  12.694  43.561   2.882
92219W        W64534  28.995  25.220   1.314
92220W        W64535  17.968  29.576  10.303
92221W        W64536  27.633  11.878  12.532
92222W        W64537  27.172   0.743   1.182
92223W        W64538  32.407  29.630   4.256
92224W        W64539   0.927  38.139   2.818
92225W        W64540   5.403  23.966   3.719
92226W        W64541  26.724   6.752   5.658
92227W        W64542  14.851  38.473  14.585
92228W        W64543  27.159   9.328   4.054
92229W        W64544  35.645  42.253  14.422
92230W        W64545   2.185   8.617   1.866
92231W        W64546  39.237  14.276   3.011
92232W        W64547  10.082  30.330   1.280
92233W        W64548  16.190   7.755   1.257
92234W        W64549  15.626  11.317   0.213
92235W        W64550   3.212  43.821  12.038
92236W        W64551  39.596  21.480   1.765
92237W        W64552  32.688  23.299  12.605
92238W        W64553  10.233  15.731  14.460
92239W        W64554   9.700  17.779   4.850
92240W        W64555  44.504   9.447   2.396
92241W        W64556  24.695   0.534   4.666
92242W        W64557  29.486  23.704   1.387
92243W        W64558   2.803  26.160   4.738
92244W        W64559  11.170   0.252   1.758
92245W        W64560  17.990  11.132  14.450
92246W        W64561  19.560  32.178  10.168
92247W        W64562  35.652  19.173  13.955
92248W        W64563  30.608  28.941   2.512
92249W        W64564  42.470  22.670  14.953
92250W        W64565   7.723  42.280  13.849
92251W        W64566  37.346  29.627   2.428
92252W        W64567  35.507  41.488   2.589
92253W        W64568  14.175  30.706  13.500
92254W        W64569  28.433   5.228  14.889
92255W        W64570  17.258  11.608   0.412
92256W        W64571   0.441  23.160  14.747
92257W        W64572  35.355   7.548  12.667
92258W        W64573  16.157  18.719   5.006
92259W        W64574  27.457  28.376  12.877
92260W        W64575  15.464  25.680   3.158
92261W        W64576  39.077  31.968   0.516
92262W        W64577  16.069  38.065   1.198
92263W        W64578   5.299  21.323  14.250
92264W        W64579   3.326  43.313  12.110
92265W        W64580  43.949   5.012  12.856
92266W        W64581  26.590   8.968  12.929
92267W        W64582   7.869  16.166   1.152
92268W        W64583  25.956  21.118   2.742
92269W        W64584   1.508  37.650  13.311
92270W        W64585  27.093  43.657  14.780
92271W        W64586  27.006  21.583  11.046
92272W        W64587   3.282   7.886   2.251
92273W        W64588  32.408   9.382   1.284
92274W        W64589   2.209  40.423  13.421
92275W        W64590   7.727  44.986   3.971
92276W        W64591  11.501  25.181  10.150
92277W        W64592   4.357   8.410  10.456
92278W        W64593  22.381  37.990   2.176
92279W        W64594  18.391   2.719   0.473
92280W        W64595  24.406  21.110   2.224
92281W        W64596  15.359   8.449  11.080
92282W        W64597   6.313  27.615  14.150
92283W        W64598  23.176  17.028  11.142
92284W        W64599   7.942  27.249  12.019
92285W        W64600  20.554  14.126   2.295
92286W        W64601  13.860  29.516   2.408
92287W        W64602   0.224  16.694  14.789
92288W        W64603  33.625  37.932  10.448
92289W        W64604  32.550  25.748  14.755
92290W        W64605  43.367  29.907  14.408
92291W        W64606  21.725   9.957  12.920
92292W        W64607   1.250  42.499  10.734
92293W        W64608  18.203   6.893   0.563
92294W        W64609  14.547  24.583  12.449
92295W        W64610  29.733  38.519  14.971
92296W        W64611  15.486  24.603   1.167
92297W        W64612  42.775  33.819  11.945
92298W        W64613  12.598  10.677   3.269
92299W        W64614  39.120  37.565  11.631
92300W        W64615   4.314  18.590  11.131
92301W        W64616  13.343  33.804  10.966
92302W        W64617  21.707  20.225   5.112
92303W        W64618  40.054  41.245  12.396
92304W        W64619  22.131   5.612   3.098
92305W        W64620  17.184  34.321  12.873
92306W        W64621  33.010  11.368  11.859
92307W        W64622  37.874   0.258  13.510
92308W        W64623  11.444  42.846   0.835
92309W        W64624  33.901  14.762   0.399
92310W        W64625  39.923   6.109   1.887
92311W        W64626  37.410  36.556  11.221
92312W        W64627   7.204  32.627  12.642
92313W        W64628   9.337   0.979   4.980
92314W        W64629   8.921   5.312   0.816
92315W        W64630  20.301   7.439   1.972
92316W        W64631  35.421   7.740  14.095
92317W        W64632   0.529  32.573   2.892
92318W        W64633  37.843  16.685  12.088
92319W        W64634  41.023  23.194  13.825
92320W        W64635   5.505  30.722  11.573
92321W        W64636  37.825   1.175   0.104
92322W        W64637  31.134  43.933  10.838
92323W        W64638  36.164  19.763   3.016
92324W        W64639  42.243  42.244  10.681
92325W        W64640  28.448  38.060   2.300
92326W        W64641  28.001   2.264   2.324
92327W        W64642   4.665  27.558  12.686
92328W        W64643  23.488   6.692  14.313
92329W        W64644   6.262  15.762  11.301
92330W        W64645  12.669  33.489   5.352
92331W        W64646  32.631   0.533  13.830
92332W        W64647   7.845  10.196   0.344
92333W        W64648  21.272   7.245  14.024
92334W        W64649  43.752  41.028  12.547
92335W        W64650  39.631  14.346  13.556
92336W        W64651   5.472   0.801   4.125
92337W        W64652  19.386  33.043  12.923
92338W        W64653   2.260   6.701   2.170
92339W        W64654  32.063  37.882  11.681
92340W        W64655   3.336  30.973  14.479
92341W        W64656  37.881  11.643   4.620
92342W        W64657  16.491  38.252   4.318
92343W        W64658  13.535   2.451   0.901
92344W        W64659  10.159  25.250  10.185
92345W        W64660  20.292   8.228  13.141
92346W        W64661  31.347  27.334   2.146
92347W        W64662  26.540  12.505  11.580
92348W        W64663  39.172  27.259   5.003
92349W        W64664  12.072  31.875  11.923
92350W        W64665  15.206  25.059   0.275
92351W        W64666  11.872  15.641   1.750
92352W        W64667  34.425  24.100  10.680
92353W        W64668  35.714   3.061   0.682
92354W        W64669  23.239  29.452  11.580
92355W        W64670  15.850   1.730   3.694
92356W        W64671  40.003  21.492   0.806
92357W        W64672  36.900   7.228  14.688
92358W        W64673  38.837  37.660  10.266
92359W        W64674   8.666  17.553  13.456
92360W        W64675  29.931  11.687   4.579
92361W        W64676  32.698  12.348  12.982
92362W        W64677  13.505   8.825  14.288
92363W        W64678  44.638  37.550   1.705
92364W        W64679  20.116  19.073  12.052
92365W        W64680  15.560  28.101   3.347
92366W        W64681   0.700   1.812  11.079
92367W        W64682  29.159  27.715  11.982
92368W        W64683   1.253  35.523   2.408
92369W        W64684  31.232  36.074  12.569
92370W        W64685  40.864   1.899   1.375
92371W        W64686  28.207  20.906  14.867
92372W        W64687  28.916  25.551   1.743
92373W        W64688  13.056   2.662  14.894
92374W        W64689  29.498   8.380   0.177
92375W        W64690   5.984  39.877   2.606
92376W        W64691  37.028  23.392   0.931
92377W        W64692  25.127   0.868   1.927
92378W        W64693  31.110  43.297  14.837
92379W        W64694  33.693  21.008  11.986
92380W        W64695  23.513  16.364   3.318
92381W        W64696   4.914  13.596  11.244
92382W        W64697   6.216  44.005   0.940
92383W        W64698   8.140  39.516   1.897
92384W        W64699  25.834  34.067   9.982
92385W        W64700  36.778   9.096   4.624
92386W        W64701   1.791  10.672   0.293
92387W        W64702  22.446  40.206  11.438
92388W        W64703   8.245  25.066  10.422
92389W        W64704  39.407  30.664  14.223
92390W        W64705  15.103  17.389  13.922
92391W        W64706  14.177  44.373  13.762
92392W        W64707  26.044  11.296   4.092
92393W        W64708  14.935  13.483   4.221
92394W        W64709  10.106  19.006   3.731
92395W        W64710  38.423  44.842   2.262
92396W        W64711  44.253   5.872  11.779
92397W        W64712  10.148   3.903   1.507
92398W        W64713  41.445  10.897   4.505
92399W        W64714  36.994   8.117  14.763
92400W        W64715  28.750  20.756  14.527
92401W        W64716  37.001  42.343  13.976
92402W        W64717  20.940  11.634   4.604
92403W        W64718  39.026  14.197   2.128
92404W        W64719  31.645  15.990   2.359
92405W        W64720  40.917  21.506  14.520
92406W        W64721  14.697  19.756  10.713
92407W        W64722  15.621  20.955  11.550
92408W        W64723  39.321  23.630   1.327
92409W        W64724  14.625   3.275  14.495
92410W        W64725  24.903   1.093   3.280
92411W        W64726  14.773   0.006   2.679
92412W        W64727   1.385  33.500   4.589
92413W        W64728  10.441  41.242   3.654
92414W        W64729  16.015   8.395   0.927
92415W        W64730   5.662  31.316  13.427
92416W        W64731  34.809  16.205  11.169
92417W        W64732  15.057  35.854  13.147
92418W        W64733  41.527  42.567  12.974
92419W        W64734  21.716  36.687  11.890
92420W        W64735  11.199  34.186   3.093
92421W        W64736  22.595   1.376  10.368
92422W        W64737  26.765   5.791   0.972
92423W        W64738  43.913   9.628  11.008
92424W        W64739  10.891   2.871  13.547
92425W        W64740  39.448   1.807   2.288
92426W        W64741  18.699  39.443  10.864
92427W        W64742  29.385  18.463   4.103
92428W        W64743  15.186  12.328  11.755
92429W        W64744   1.300   3.264  10.646
92430W        W64745   1.930   9.194  14.402
92431W        W64746  44.356  36.384   3.823
92432W        W64747  14.783   0.699  14.527
92433W        W64748   2.483  36.520   2.864
92434W        W64749   4.430   8.752  14.988
92435W        W64750  17.049  27.517  13.992
92436W        W64751  11.885   5.697  13.905
92437W        W64752  43.792  16.135  10.907
92438W        W64753  38.130   6.456  12.732
92439W        W64754  12.730  19.200   0.449
92440W        W64755  16.623  37.970  14.990
92441W        W64756  42.732  41.911  11.242
92442W        W64757  21.114  28.501  14.790
92443W        W64758  29.653  21.917  11.968
92444W        W64759  44.039  28.987   3.244
92445W        W64760   5.736  10.740   1.487
92446W        W64761   1.877  17.094  11.169
92447W        W64762   4.286   5.992   1.517
92448W        W64763  34.622  39.942  10.340
92449W        W64764  12.164  12.367   2.355
92450W        W64765  14.532  25.609  12.837
92451W        W64766  24.240  21.725   2.950
92452W        W64767   9.613   9.842   0.741
92453W        W64768  30.001  43.406  14.005
92454W        W64769   7.443  10.346   4.227
92455W        W64770  23.508  29.645  12.096
92456W        W64771   9.845  28.511   0.309
92457W        W64772   0.732  22.070   3.815
92458W        W64773  18.177  32.657  14.706
92459W        W64774  44.266   8.646  12.334
92460W        W64775  13.260  18.254  10.311
92461W        W64776  13.083  34.451   0.875
92462W        W64777  22.138  23.352  12.989
92463W        W64778  44.849   6.801   0.845
92464W        W64779  41.232   3.350   4.664
92465W        W64780  28.289  25.954  11.417
92466W        W64781  30.852   6.919  14.445
92467W        W64782  22.785  13.950   5.154
92468W        W64783  28.896   7.506  10.610
92469W        W64784  37.980   9.310  11.645
92470W        W64785   3.595  38.088   2.676
92471W        W64786  18.149   3.885   4.301
92472W        W64787  27.247  15.567  12.114
92473W        W64788  16.801  43.167   0.741
92474W        W64789  27.266   5.724   1.773
92475W        W64790  27.362  43.792   1.200
92476W        W64791  43.256   6.458   3.777
92477W        W64792  40.803  15.095   1.066
92478W        W64793  24.655  26.580   3.790
92479W        W64794  40.555  26.444   4.097
92480W        W64795  32.864  30.380  13.970
92481W        W64796   0.107   3.836   0.220
92482W        W64797  26.120  38.801  13.017
92483W        W64798  32.077  12.359  10.729
92484W        W64799   3.300   2.591  12.532
92485W        W64800  16.684   6.613  12.382
92486W        W64801  13.712  37.901   1.862
92487W        W64802  28.107  20.695  12.400
92488W        W64803  28.566   0.822  14.092
92489W        W64804  40.022  27.116  12.388
92490W        W64805  22.498  20.267  12.803
92491W        W64806   6.317  42.777  14.354
92492W        W64807  30.202  25.615   1.196
92493W        W64808  13.564  33.627  12.475
92494W        W64809  12.787  43.229  14.723
92495W        W64810  28.981  11.036  11.482
92496W        W64811  31.463  40.770  11.487
92497W        W64812  38.017  35.234  13.477
92498W        W64813  13.806  33.040  13.927
92499W        W64814  37.807  17.477  11.647
92500W        W64815  21.156  39.614   5.321
92501W        W64816  12.612  15.881  14.977
92502W        W64817   4.934  12.195  11.882
92503W        W64818  29.166  30.536   4.159
92504W        W64819  34.484   2.473   4.148
92505W        W64820   4.990  10.764  12.822
92506W        W64821   6.335  23.725  11.903
92507W        W64822   9.237  40.579   3.815
92508W        W64823  18.499   9.149   2.557
92509W        W64824  31.715   0.099  14.916
92510W        W64825  19.337  40.445  13.201
92511W        W64826  31.637   5.266   0.272
92512W        W64827  41.506   1.805  13.376
92513W        W64828  38.138  31.183  13.069
92514W        W64829  13.172  32.470  14.641
92515W        W64830  18.555   4.748  12.508
92516W        W64831   5.339   0.885   0.914
92517W        W64832  30.936  36.891   1.061
92518W        W64833   2.630  21.603   3.675
92519W        W64834   0.508  33.875   2.319
92520W        W64835   5.684  24.517  11.563
92521W        W64836  42.339   6.248  14.861
92522W        W64837  30.513  42.235   0.686
92523W        W64838  19.193  12.023   1.710
92524W        W64839  26.661  44.009  10.990
92525W        W64840  18.807   9.842   2.815
92526W        W64841  15.856   1.802   2.759
92527W        W64842  32.645   7.973  12.478
92528W        W64843   0.695   4.738  13.362
92529W        W64844  30.506  31.973  13.825
92530W        W64845  37.332  32.551   2.804
92531W        W64846  31.211  24.035  13.175
92532W        W64847  13.530   0.156   1.413
92533W        W64848   5.659  18.475   1.447
92534W        W64849  21.252  27.780   5.361
92535W        W64850  41.970  41.191  12.985
92536W        W64851  33.009  32.044   2.129
92537W        W64852  41.360   8.933  11.000
92538W        W64853  24.758  27.034  13.132
92539W        W64854  18.385   6.245  12.351
92540W        W64855  22.701   4.428   1.807
92541W        W64856  28.411  20.594   3.720
92542W        W64857  13.568   8.945   3.233
92543W        W64858  14.668  34.442   3.899
92544W        W64859  44.740  38.172  11.482
92545W        W64860  20.742   5.890  10.824
92546W        W64861   2.333  30.290  10.344
92547W        W64862  10.791  15.017   4.320
92548W        W64863  15.172  32.621  14.863
92549W        W64864  29.346  33.037   4.871
92550W        W64865  19.821  20.201   2.726
92551W        W64866  17.156  39.853   0.900
92552W        W64867   4.283  17.146   1.253
92553W        W64868  39.354   3.718  14.270
92554W        W64869  40.975  43.309  12.931
92555W        W64870  38.477  21.042   4.902
92556W        W64871  38.156  20.062   3.788
92557W        W64872  11.971  16.652  10.551
92558W        W64873  41.024  35.390   0.439
92559W        W64874  10.576  30.462   1.406
92560W        W64875   2.229  28.257   1.394
92561W        W64876  36.775  38.381  10.726
92562W        W64877  42.363  34.995  12.133
92563W        W64878  21.541  19.623   4.666
92564W        W64879  29.391  22.696   1.728
92565W        W64880   6.940   5.882   0.213
92566W        W64881   0.013  40.270  14.556
92567W        W64882  34.549  13.718  13.380
92568W        W64883   5.189   1.560  12.987
92569W        W64884  33.174  21.551   4.277
92570W        W64885  29.491  33.040  11.966
92571W        W64886  39.833  41.507  14.322
92572W        W64887  10.377  37.597   2.278
92573W        W64888   6.467  23.918  12.583
92574W        W64889  16.729  32.577  14.934
92575W        W64890  43.312  34.986  14.622
92576W        W64891  45.000   5.883   3.595
92577W        W64892  42.222  11.742   2.583
92578W        W64893  20.282  28.036  10.790
92579W        W64894  22.816   9.146  14.749
92580W        W64895  13.698  27.998  11.545
92581W        W64896  28.055  16.462  10.066
92582W        W64897  20.936   4.408   4.590
92583W        W64898  25.484  10.250  11.615
92584W        W64899  27.494  30.102  12.303
92585W        W64900  23.779   2.924  14.754
92586W        W64901   4.352  19.588  14.929
92587W        W64902  22.088  22.804  13.931
92588W        W64903  38.343   0.779  13.088
92589W        W64904  17.214  13.866   1.442
92590W        W64905   1.163  21.437   3.310
92591W        W64906  28.636  13.634   3.860
92592W        W64907  12.897   3.016   2.766
92593W        W64908  42.769  34.426  12.901
92594W        W64909  14.930  35.733  14.501
92595W        W64910   8.156  42.862   3.080
92596W        W64911  39.889  19.722  13.972
92597W        W64912  24.243   9.857   4.136
92598W        W64913  30.988   2.444   4.377
92599W        W64914  18.490  22.412  11.778
92600W        W64915  13.292   5.742  11.258
92601W        W64916   9.707  10.277  11.189
92602W        W64917  18.019  22.822  11.911
92603W        W64918  29.708  20.262  12.997
92604W        W64919   2.977  38.287   1.278
92605W        W64920  43.550   3.475   3.329
92606W        W64921   1.402  36.858  13.896
92607W        W64922   3.322   9.912  14.492
92608W        W64923  14.436  40.110   4.218
92609W        W64924  18.965  38.338   2.271
92610W        W64925  20.226  44.271   2.116
92611W        W64926  42.982   7.318  14.729
92612W        W64927   7.842  42.274  12.948
92613W        W64928  31.138   2.061  11.600
92614W        W64929  25.563  24.750   3.793
92615W        W64930  28.556  23.252   3.218
92616W        W64931  40.960  26.043   3.136
92617W        W64932  24.358  42.506  12.159
92618W        W64933  42.345  39.003   3.382
92619W        W64934  25.431  38.790   1.283
92620W        W64935  15.645  26.632   1.634
92621W        W64936  12.177  32.118  10.533
92622W        W64937   5.450  35.411  14.712
92623W        W64938  41.328  34.535   3.596
92624W        W64939  41.396  42.854  14.808
92625W        W64940  33.331  20.192  11.445
92626W        W64941  34.670  28.935  13.825
92627W        W64942  35.085  28.217   2.721
92628W        W64943   7.251   3.991   3.172
92629W        W64944  42.070   1.521   3.713
92630W        W64945  11.966  40.030  12.908
92631W        W64946  25.561  17.019  10.744
92632W        W64947  30.487  13.120  11.669
92633W        W64948  29.904   7.849   4.034
92634W        W64949  40.263   3.229  12.271
92635W        W64950  27.347  22.671   0.598
92636W        W64951  16.314  25.405  11.552
92637W        W64952  29.261  30.121   3.266
92638W        W64953  29.408  15.196  13.813
92639W        W64954  44.333  42.954  10.755
92640W        W64955  18.570  31.265  10.383
92641W        W64956  21.647   1.897  10.417
92642W        W64957  12.809  11.395  12.866
92643W        W64958   1.760  34.918   1.013
92644W        W64959  17.290  26.034   2.816
92645W        W64960  42.302  20.158   3.592
92646W        W64961  13.139   1.257   2.372
92647W        W64962  11.926  35.725   3.801
92648W        W64963   3.884  25.037  10.708
92649W        W64964  19.058  41.972  13.062
92650W        W64965   4.613  32.684   1.732
92651W        W64966  41.265  36.446  11.121
92652W        W64967  27.103  16.859  14.196
92653W        W64968  37.572  20.654  14.763
92654W        W64969  40.217  30.327   0.502
92655W        W64970  35.831  28.428  10.828
92656W        W64971  22.695  38.114   1.392
92657W        W64972  30.436  30.684   3.189
92658W        W64973   5.892  34.081  10.714
92659W        W64974   7.963  32.467  10.584
92660W        W64975  32.904   8.838  11.121
92661W        W64976  23.495   8.236   2.154
92662W        W64977   9.289  24.875   2.735
92663W        W64978  34.753  35.530   2.665
92664W        W64979  30.892   1.442   1.902
92665W        W64980   2.730  26.724  11.727
92666W        W64981  13.326  22.948  11.173
92667W        W64982  39.679  39.788  13.515
92668W        W64983  34.476  37.522  14.036
92669W        W64984  32.893   3.828  13.972
92670W        W64985  35.383  23.879  10.511
92671W        W64986  18.937  42.906  13.384
92672W        W64987   9.415  24.975   1.853
92673W        W64988  26.638  27.830   4.546
92674W        W64989  15.684  23.680   1.403
92675W        W64990   8.124  37.795  14.340
92676W        W64991  33.114  12.342  14.287
92677W        W64992  10.792  35.989  12.030
92678W        W64993  38.835  37.218   4.858
92679W        W64994  40.312  40.051  11.147
92680W        W64995  16.546  39.392  12.622
92681W        W64996   7.688   9.409  11.671
92682W        W64997  21.985   8.216  13.343
92683W        W64998  37.855   1.252  14.587
92684W        W64999  34.261  22.729  13.793
92685W        W65000  16.230  33.846   0.481
92686W        W65001  20.851  11.274   0.273
92687W        W65002  14.092  18.367  12.817
92688W        W65003  39.902   5.333   2.712
92689W        W65004   7.323  14.240   4.155
92690W        W65005  32.627  28.061  13.990
92691W        W65006  27.073  23.866   4.776
92692W        W65007  19.661  10.185   2.461
92693W        W65008  41.035  32.969   0.834
92694W        W65009  43.864  42.418   4.823
92695W        W65010  30.501  35.874   2.475
92696W        W65011  23.467  44.935   3.804
92697W        W65012  25.119   6.456   2.289
92698W        W65013  39.842  26.536  14.691
92699W        W65014  20.107   9.304  10.014
92700W        W65015  27.935  24.470  14.196
92701W        W65016  40.402   1.266  11.534
92702W        W65017  26.444  10.768   3.655
92703W        W65018  26.653  32.879   3.589
92704W        W65019  44.362  14.200   2.226
92705W        W65020  24.926  42.015   3.362
92706W        W65021   7.289  22.082   4.672
92707W        W65022  32.865  41.408   3.172
92708W        W65023   4.432   7.731   3.318
92709W        W65024  43.228  31.029  14.975
92710W        W65025  26.280   4.617   1.759
92711W        W65026  39.904   5.498   1.164
92712W        W65027  38.461  21.324  12.027
92713W        W65028  27.631  31.468   3.477
92714W        W65029   4.451  31.653   2.940
92715W        W65030   8.738   7.585  13.510
92716W        W65031  38.082  31.530   1.790
92717W        W65032  38.110  26.879  11.983
92718W        W65033   5.776  36.441  12.511
92719W        W65034  31.817   1.774   4.310
92720W        W65035  35.431  31.392   0.417
92721W        W65036  41.914  13.403   0.049
92722W        W65037  24.183  43.780   3.633
92723W        W65038  13.836  22.004  14.768
92724W        W65039  34.345  36.176   4.876
92725W        W65040  19.819   5.990  12.553
92726W        W65041  43.797  17.035  11.599
92727W        W65042  30.685  40.774  13.684
92728W        W65043  13.564  20.616  10.766
92729W        W65044  38.441  25.168  10.198
92730W        W65045  27.537  34.313   4.113
92731W        W65046  40.901  12.013   2.232
92732W        W65047  27.669  43.512   2.055
92733W        W65048   4.646  18.296  13.822
92734W        W65049  44.205  38.399   4.568
92735W        W65050  17.569  17.348   3.253
92736W        W65051  31.480  42.574  13.892
92737W        W65052  40.058  22.638   3.344
92738W        W65053  36.006  39.076   2.427
92739W        W65054  10.844  40.514  12.576
92740W        W65055  32.524  29.849  14.374
92741W        W65056  19.594  43.818  12.813
92742W        W65057   0.790   3.899   3.304
92743W        W65058   0.721  23.570  11.885
92744W        W65059  37.329   0.387   0.393
92745W        W65060   9.159   7.509   2.308
92746W        W65061  33.952  33.499   3.656
92747W        W65062  37.307  31.599   3.712
92748W        W65063  44.739  17.181  11.015
92749W        W65064  28.049   3.119  11.808
92750W        W65065  44.818   7.725  11.486
92751W        W65066   7.237  11.549   1.493
92752W        W65067   9.266  31.176  14.755
92753W        W65068  44.803  11.757   2.752
92754W        W65069  22.511  10.352  10.455
92755W        W65070  27.444  36.800   2.904
92756W        W65071  27.090  25.959  13.594
92757W        W65072  18.073  31.955   2.277
92758W        W65073  11.778  44.810  10.627
92759W        W65074  44.149  15.186   4.213
92760W        W65075  17.719   5.336   0.715
92761W        W65076  12.937  35.315  14.426
92762W        W65077  14.960  29.645   9.835
92763W        W65078   8.685  21.803  11.850
92764W        W65079   4.487  27.067  13.956
92765W        W65080   8.904  18.643   4.963
92766W        W65081  37.363   7.910  13.350
92767W        W65082  37.029  28.872  10.788
92768W        W65083  43.479  42.039   1.791
92769W        W65084   7.107  35.659   4.924
92770W        W65085  44.498  31.948  12.251
92771W        W65086  18.496  42.468   0.898
92772W        W65087  37.316  18.174   0.971
92773W        W65088  23.003  23.502   3.766
92774W        W65089   4.610   6.647  11.870
92775W        W65090  44.905  43.853   3.935
92776W        W65091   4.414   7.721   1.840
92777W        W65092  22.818  11.870  12.948
92778W        W65093  39.942  40.899  12.033
92779W        W65094   2.724   9.345   0.355
92780W        W65095   0.405  43.885   4.721
92781W        W65096  24.948  14.048   5.046
92782W        W65097  27.082  18.083  10.762
92783W        W65098  42.214  25.107   4.684
92784W        W65099  15.056   7.831  12.094
92785W        W65100  17.599  34.450   4.329
92786W        W65101  36.549  28.379   1.917
92787W        W65102  16.233  12.143   3.215
92788W        W65103  19.774  39.446   2.313
92789W        W65104  38.403   1.289   2.572
92790W        W65105   5.266  18.604  14.644
92791W        W65106  37.409   7.237   3.208
92792W        W65107  29.422   7.319   2.185
92793W        W65108  20.960  14.679  12.050
92794W        W65109  11.642  38.142  11.004
92795W        W65110  33.472  41.279   0.134
92796W        W65111  42.009  17.339  11.921
92797W        W65112   0.452   6.863   4.095
92798W        W65113  17.427   5.854   2.870
92799W        W65114   5.344  20.537  10.580
92800W        W65115  24.583  19.404  13.727
92801W        W65116   8.833  36.352   0.370
92802W        W65117  15.188  32.064   4.583
92803W        W65118  17.762  14.133  13.398
92804W        W65119  44.685  23.522  14.506
92805W        W65120   0.848  29.127   2.497
92806W        W65121  14.243  27.067  14.893
92807W        W65122  28.000  26.506   3.827
92808W        W65123  16.870  12.685  14.548
92809W        W65124   2.864  39.522   3.656
92810W        W65125  27.320  39.242   4.164
92811W        W65126  12.165   4.311  13.536
92812W        W65127  33.428  20.478   1.413
92813W        W65128  32.265  24.058  11.412
92814W        W65129  24.527  17.188   0.454
92815W        W65130  44.588   8.873   3.770
92816W        W65131   5.874  13.735   2.160
92817W        W65132  40.365  39.926   1.927
92818W        W65133  30.578  37.818   0.773
92819W        W65134   5.408  10.367   2.391
92820W        W65135  38.396  32.531  11.092
92821W        W65136  43.876  24.670   5.016
92822W        W65137  31.070  12.780   2.055
92823W        W65138   3.541  30.962   4.300
92824W        W65139  10.941  17.170  11.004
92825W        W65140   0.439   1.151   1.802
92826W        W65141   7.306  43.826  11.940
92827W        W65142   2.240   8.183   4.481
92828W        W65143  19.129  34.136  14.377
92829W        W65144  40.201  22.356   4.591
92830W        W65145   4.185   3.244   0.644
92831W        W65146  13.580   2.560   1.814
92832W        W65147  20.219  42.383   2.753
92833W        W65148   2.863  43.028  11.184
92834W        W65149  41.553   5.477   3.210
92835W        W65150   0.238  22.469  14.060
92836W        W65151   5.740   0.164  10.939
92837W        W65152  24.264  31.481   1.294
92838W        W65153  16.064  39.310  13.420
92839W        W65154  29.898  34.397   0.677
92840W        W65155  41.387  33.964  11.132
92841W        W65156  20.601  41.775   4.177
92842W        W65157  19.491  30.048   5.290
92843W        W65158  27.595  16.214  13.143
92844W        W65159  27.892  41.570   4.626
92845W        W65160  42.283  27.865  13.481
92846W        W65161  32.142  11.709   3.242
92847W        W65162  31.534  35.599   2.236
92848W        W65163  41.381  33.314  14.773
92849W        W65164   8.406  38.112  10.710
92850W        W65165  16.275  37.037   4.523
92851W        W65166  27.693  18.154   0.653
92852W        W65167  31.863  21.695  12.084
92853W        W65168  43.412  16.500  14.397
92854W        W65169   4.307  26.734   4.207
92855W        W65170  42.811  22.274  11.190
92856W        W65171  27.665  28.544   2.307
92857W        W65172  13.469   0.026   4.562
92858W        W65173  37.055  17.079   3.742
92859W        W65174  35.645  43.849  13.832
92860W        W65175   2.030  18.203   4.184
92861W        W65176  40.437  43.939   2.222
92862W        W65177   4.361  26.449   3.244
92863W        W65178   2.521  25.220   0.304
92864W        W65179  42.748  23.668  13.997
92865W        W65180   0.623  36.767  11.532
92866W        W65181  15.814  31.628   3.293
92867W        W65182   9.108  24.092  10.084
92868W        W65183  15.066  27.221  12.668
92869W        W65184  21.717   3.231  14.475
92870W        W65185  19.583  13.786  13.878
92871W        W65186  26.113  11.678  11.281
92872W        W65187   3.134  29.007  12.974
92873W        W65188  11.157  41.932  14.142
92874W        W65189  24.958  24.100   4.792
92875W        W65190  20.265  28.193   1.263
92876W        W65191   3.897   2.528  13.843
92877W        W65192  26.180  32.910   1.428
92878W        W65193   8.319   0.487  13.529
92879W        W65194  41.601  23.171   2.731
92880W        W65195  42.547   1.592   1.551
92881W        W65196  25.702  43.391   1.737
92882W        W65197  39.913  16.107   1.138
92883W        W65198   0.999  29.130  12.359
92884W        W65199   0.674  14.225   0.726
92885W        W65200   6.450  37.602   5.346
92886W        W65201  25.706  15.177   2.353
92887W        W65202  36.555   9.903  13.354
92888W        W65203  21.523  34.073  11.189
92889W        W65204  10.963   0.716  13.820
92890W        W65205   8.376   0.314  12.442
92891W        W65206   9.835  38.594   3.322
92892W        W65207  42.426   3.379   2.712
92893W        W65208  36.961  13.118  11.260
92894W        W65209   4.273  20.698  10.464
92895W        W65210  37.297   1.284  10.586
92896W        W65211   4.626  21.089  13.468
92897W        W65212  12.680  17.299  12.857
92898W        W65213   0.553  27.908   1.750
92899W        W65214  21.290  15.723   4.119
92900W        W65215  19.084  26.237  10.937
92901W        W65216   7.790  38.228  12.974
92902W        W65217   8.045  12.251  13.460
92903W        W65218  43.822   4.949  14.237
92904W        W65219  14.664  24.551  10.613
92905W        W65220  25.127  43.442   4.320
92906W        W65221  16.709  42.796   1.112
92907W        W65222   0.258  28.498  13.278
92908W        W65223  21.617  14.056   1.476
92909W        W65224  44.086   2.349  13.252
92910W        W65225  43.480  15.760   4.845
92911W        W65226  37.770  20.513  12.839
92912W        W65227  34.605  34.443   1.307
92913W        W65228  19.736   6.652  13.174
92914W        W65229  21.002  14.558  13.813
92915W        W65230  38.460  16.460   4.609
92916W        W65231  11.270  16.256  12.309
92917W        W65232  35.497  39.823  11.861
92918W        W65233  22.351  39.677  11.078
92919W        W65234  23.661  35.042   2.954
92920W        W65235  24.208  24.223   0.390
92921W        W65236  15.551   1.001  14.890
92922W        W65237   0.224   8.779   0.458
92923W        W65238  42.281   0.296   1.348
92924W        W65239  24.726  28.353   2.048
92925W        W65240  38.518  29.203  10.692
92926W        W65241  21.191  41.545  12.748
92927W        W65242  39.493  10.190   1.444
92928W        W65243  28.489  10.532  12.643
92929W        W65244   7.280  35.539   2.955
92930W        W65245  27.909  33.506   4.988
92931W        W65246  26.154   2.632   1.688
92932W        W65247  15.015  36.354  13.095
92933W        W65248  11.640  13.237   2.259
92934W        W65249  14.338  29.302   5.232
92935W        W65250  11.879  27.139  14.761
92936W        W65251  26.996  43.538   4.708
92937W        W65252  43.326  31.421   4.616
92938W        W65253  13.238  31.691  12.213
92939W        W65254  14.820  29.215  12.070
92940W        W65255  31.382  33.853   1.206
92941W        W65256  44.402   9.669  10.769
92942W        W65257  27.395  39.517   1.895
92943W        W65258   0.518   3.397   1.366
92944W        W65259  13.834  21.997   2.365
92945W        W65260  14.372  42.854   9.783
92946W        W65261   7.642   1.198   0.806
92947W        W65262   9.224  44.752  13.478
92948W        W65263  19.883   4.660  10.216
92949W        W65264  28.104  12.731  14.663
92950W        W65265   2.614  27.124  11.081
92951W        W65266  42.371   3.737  14.931
92952W        W65267   2.275   6.802   0.770
92953W        W65268  27.604   8.389  11.011
92954W        W65269  33.559  25.276   4.549
92955W        W65270  19.186  25.309  12.465
92956W        W65271   2.627  25.061   1.134
92957W        W65272  30.876  11.655  12.276
92958W        W65273  38.984  20.196  13.810
92959W        W65274  38.579  40.379  14.373
92960W        W65275   5.211  20.447   3.837
92961W        W65276   4.287  39.610  13.779
92962W        W65277   3.287  22.967  11.012
92963W        W65278  15.739  34.395  11.538
92964W        W65279  41.806  41.723   2.785
92965W        W65280  20.832  10.986   5.628
92966W        W65281  43.392  30.418  11.664
92967W        W65282  25.492  34.413   5.154
92968W        W65283  23.424   3.964  10.688
92969W        W65284  13.293   8.698   3.648
92970W        W65285   2.204   2.004   1.896
92971W        W65286  17.595   1.512   2.238
92972W        W65287  43.897  39.573  14.141
92973W        W65288  42.036  14.373   4.135
92974W        W65289  34.992  15.260   2.225
92975W        W65290  39.149  35.222   5.279
92976W        W65291   6.104  27.906  11.589
92977W        W65292  14.279  29.056   4.770
92978W        W65293  44.763  34.081  12.006
92979W        W65294  25.648  39.169  14.564
92980W        W65295  18.118  16.693   3.057
92981W        W65296  20.272   7.693  11.156
92982W        W65297  24.020  16.757   2.844
92983W        W65298  12.273  24.269   0.785
92984W        W65299   5.212  26.035  12.338
92985W        W65300  37.687  16.067  13.386
92986W        W65301   7.331  41.291  10.936
92987W        W65302  36.184  22.672  11.635
92988W        W65303   1.238  15.812   4.662
92989W        W65304  38.588  34.828   0.794
92990W        W65305  44.891  37.784  11.172
92991W        W65306   5.329   8.659  13.310
92992W        W65307  12.160  35.685  11.998
92993W        W65308  32.403  20.638  10.574
92994W        W65309  26.776  17.358  11.978
92995W        W65310  31.717  15.651  14.939
92996W        W65311  31.153  44.490   3.155
92997W        W65312   3.279  17.630  14.417
92998W        W65313   1.899  37.592   1.678
92999W        W65314  12.164  35.614   1.742
93000W        W65315   0.875  21.378   1.715
93001W        W65316   1.150  28.891   4.316
93002W        W65317  36.156   8.329   4.371
93003W        W65318  36.621  28.982   4.129
93004W        W65319  17.235  24.029   0.303
93005W        W65320  20.398   3.221  14.562
93006W        W65321   1.154  10.180  14.747
93007W        W65322  18.276  39.483   0.342
93008W        W65323  24.764   0.735  12.831
93009W        W65324   3.557  15.878   2.681
93010W        W65325   4.659  42.387  10.732
93011W        W65326  12.929   2.532   4.221
93012W        W65327  32.513   7.291  10.708
93013W        W65328  23.727  41.877  14.279
93014W        W65329  10.940  43.336  11.358
93015W        W65330   3.041  11.609  13.402
93016W        W65331   6.843  23.191  13.502
93017W        W65332  12.132   7.944   0.904
93018W        W65333  11.771  19.239  14.900
93019W        W65334  23.911  43.011   4.011
93020W        W65335   9.664  27.554   4.178
93021W        W65336   1.755   9.944  10.479
93022W        W65337  21.034  22.494   5.244
93023W        W65338   3.746  10.566  11.070
93024W        W65339  42.768  32.884   4.348
93025W        W65340  26.165  12.416  14.607
93026W        W65341  38.816  11.337  10.975
93027W        W65342  24.667  19.587   1.866
93028W        W65343  14.842   4.392  13.031
93029W        W65344  41.292   1.385  11.402
93030W        W65345  17.180  14.222  13.086
93031W        W65346  16.828   3.313  13.545
93032W        W65347   8.414  24.706  12.885
93033W        W65348  28.007  41.003  10.173
93034W        W65349  19.362   4.897  11.966
93035W        W65350   8.721  13.684   0.955
93036W        W65351  28.538  30.569   0.000
93037W        W65352  12.834   6.735  14.773
93038W        W65353   9.794  31.226  12.023
93039W        W65354   7.774  17.491   2.682
93040W        W65355  17.069  14.372  12.260
93041W        W65356  38.406  36.143   4.144
93042W        W65357   0.207  20.225   2.232
93043W        W65358  42.065  38.556   2.724
93044W        W65359  13.796  18.034  12.406
93045W        W65360  14.790   6.925   3.772
93046W        W65361   8.847  40.446   4.146
93047W        W65362  44.496  31.349   2.588
93048W        W65363  12.665   8.912  13.166
93049W        W65364  21.264  14.644   2.735
93050W        W65365  44.418  39.944   1.988
93051W        W65366  11.409  19.859  12.110
93052W        W65367   6.353   1.172  10.602
93053W        W65368  13.602  44.225   1.259
93054W        W65369  19.132  43.459   1.939
93055W        W65370   5.670   9.123  14.621
93056W        W65371  36.502  22.609  14.418
93057W        W65372  42.985   9.713  10.694
93058W        W65373  12.140  34.965   0.810
93059W        W65374  35.352   8.381   1.510
93060W        W65375  38.764  35.560   1.709
93061W        W65376  35.663  33.426   0.349
93062W        W65377  30.381   5.126  14.848
93063W        W65378  42.902  10.590  11.007
93064W        W65379   4.064   9.629   0.757
93065W        W65380  38.893  43.292   1.138
93066W        W65381  42.761  35.604  11.782
93067W        W65382  44.544  11.854   0.640
93068W        W65383  32.435  11.795   1.811
93069W        W65384   2.897  38.579  14.309
93070W        W65385  19.341  39.010  10.179
93071W        W65386  11.666   2.675   0.847
93072W        W65387  11.635   5.789  13.352
93073W        W65388  17.688  41.528  13.491
93074W        W65389  14.704   7.707  10.779
93075W        W65390   1.375  38.247   0.383
93076W        W65391  12.821  43.046  12.826
93077W        W65392  17.988  34.024   4.905
93078W        W65393   1.181  39.876   1.283
93079W        W65394   2.360  34.662  13.305
93080W        W65395   9.318  29.577   0.528
93081W        W65396  34.600   5.073   2.660
93082W        W65397  43.499  44.021   4.100
93083W        W65398  21.722  22.649  13.075
93084W        W65399  38.083  17.157  14.345
93085W        W65400  27.588  44.523   1.855
93086W        W65401  28.509  12.687   3.684
93087W        W65402  29.321  14.702  10.818
93088W        W65403   8.472  11.298  10.788
93089W        W65404   5.228  39.656  14.889
93090W        W65405  43.047  25.531  10.677
93091W        W65406  39.081  25.521   2.838
93092W        W65407   4.281   6.674  14.088
93093W        W65408  23.643   2.189   2.198
93094W        W65409  11.570  42.023   4.244
93095W        W65410  43.782  21.513   3.549
93096W        W65411  25.983   0.041   1.376
93097W        W65412   2.399  34.097  14.894
93098W        W65413   5.758  26.440  13.885
93099W        W65414   1.078  28.248  12.510
93100W        W65415  36.554  18.414   2.889
93101W        W65416   7.756  43.343  11.060
93102W        W65417  28.593  33.442  14.391
93103W        W65418  27.433  23.747  11.198
93104W        W65419  33.491  13.664   4.101
93105W        W65420  39.177  37.433  14.594
93106W        W65421  25.284  39.977   3.338
93107W        W65422  15.694  33.994   0.482
93108W        W65423  35.011   0.257  14.517
93109W        W65424  44.990  26.619  10.235
93110W        W65425  35.545  30.425   2.360
93111W        W65426  19.696  30.864   3.211
93112W        W65427  16.790  31.306   5.236
93113W        W65428  23.169  18.589   5.006
93114W        W65429  26.037  31.163   3.977
93115W        W65430  32.008  14.202  14.520
93116W        W65431  17.169  22.285   3.830
93117W        W65432  30.834  21.331  11.108
93118W        W65433  38.555   6.469  14.487
93119W        W65434  16.680   9.572  12.635
93120W        W65435  15.705   9.573  12.446
93121W        W65436  14.813  28.253   3.859
93122W        W65437  19.196   7.728   3.791
93123W        W65438   0.306  26.721  11.579
93124W        W65439  25.709  32.170   4.188
93125W        W65440  34.474  30.757   0.546
93126W        W65441  36.958  10.609   2.872
93127W        W65442  43.596  27.569  11.771
93128W        W65443  19.480   7.905  13.076
93129W        W65444  27.030  29.578   1.411
93130W        W65445  29.375   0.108   3.359
93131W        W65446  34.924  12.891   2.362
93132W        W65447  12.749   9.730  14.247
93133W        W65448  43.445  17.888   0.309
93134W        W65449  32.837  44.464  11.045
93135W        W65450  40.084  19.030  11.702
93136W        W65451  22.470   2.722   0.490
93137W        W65452   0.781  19.713   1.775
93138W        W65453  43.157   1.761  13.843
93139W        W65454  41.216  27.087  14.319
93140W        W65455  43.060  36.054   1.596
93141W        W65456  33.295  40.430  13.660
93142W        W65457  29.463  35.880   2.331
93143W        W65458  26.066  22.224   2.767
93144W        W65459  33.408  20.161  14.820
93145W        W65460  41.679  33.707   4.061
93146W        W65461  23.230  34.998   3.705
93147W        W65462  31.327  27.109  14.391
93148W        W65463  37.791   4.363   1.208
93149W        W65464  38.284   6.199   0.372
93150W        W65465  43.598   8.168   1.312
93151W        W65466  17.473   3.010   0.447
93152W        W65467   8.302  44.576  10.946
93153W        W65468  16.552   4.698   1.058
93154W        W65469  28.936  29.042   4.162
93155W        W65470   5.226  23.477  12.553
93156W        W65471  39.001  40.785   0.667
93157W        W65472   6.536  30.492   0.965
93158W        W65473  20.528  28.035  11.672
93159W        W65474  17.615  28.785   2.331
93160W        W65475   9.782  44.215   1.189
93161W        W65476  37.034  43.805   2.262
93162W        W65477  30.087  17.226  11.605
93163W        W65478  34.029   9.433  14.825
93164W        W65479  38.435  28.644   3.473
93165W        W65480  21.829   6.223  14.276
93166W        W65481   3.175   4.528   4.274
93167W        W65482   5.835  16.563  13.061
93168W        W65483   0.058  40.089   4.645
93169W        W65484  43.687   8.345   3.261
93170W        W65485  41.578  16.590   2.238
93171W        W65486   6.443  38.314  10.777
93172W        W65487  28.295   7.816   4.607
93173W        W65488  22.869  31.442   3.834
93174W        W65489   4.234  29.073   3.267
93175W        W65490  44.515  23.211   1.626
93176W        W65491  27.155  11.878   2.394
93177W        W65492   9.321  27.760   0.339
93178W        W65493  21.582  26.744   3.762
93179W        W65494  12.059   3.860  14.807
93180W        W65495   7.098  28.021   1.450
93181W        W65496  32.079  26.602  13.320
93182W        W65497  35.333  12.585  11.711
93183W        W65498  13.215   3.329  10.301
93184W        W65499  36.117  34.288  14.372
93185W        W65500  32.932  43.955  10.801
93186W        W65501  16.228  10.184   4.101
93187W        W65502  30.838  13.689   3.103
93188W        W65503  19.740  38.887   1.126
93189W        W65504   9.311  17.352   4.888
93190W        W65505  44.900  14.576   3.806
93191W        W65506  13.572  44.867  11.124
93192W        W65507  43.484  19.309   1.366
93193W        W65508  25.200  42.966  13.054
93194W        W65509   2.794   7.700   1.230
93195W        W65510   5.551  18.796  11.240
93196W        W65511   4.181   4.893  13.623
93197W        W65512   4.706  42.889   0.558
93198W        W65513  43.878  23.602  10.778
93199W        W65514  18.566   3.352  14.822
93200W        W65515  19.599   2.791   3.876
93201W        W65516  44.398   3.859  11.486
93202W        W65517  33.939  11.914  13.062
93203W        W65518  23.034  21.620  14.493
93204W        W65519  39.874  32.455  13.868
93205W        W65520  39.253  40.991   4.266
93206W        W65521   3.051   7.249   2.784
93207W        W65522   7.540  32.492   4.020
93208W        W65523  28.459  12.179  11.140
93209W        W65524  31.059  34.578  13.341
93210W        W65525   3.986  41.856   2.140
93211W        W65526  34.808  40.851   4.669
93212W        W65527  31.466   9.364  11.590
93213W        W65528  23.087  19.216  13.537
93214W        W65529  15.050  36.273  14.483
93215W        W65530  43.919  16.996   0.780
93216W        W65531  11.891  23.982   1.679
93217W        W65532  34.020  42.964  13.157
93218W        W65533  26.108  38.314  11.046
93219W        W65534  16.623  36.571   4.139
93220W        W65535  13.121   1.135  13.266
93221W        W65536  11.243  42.050  10.654
93222W        W65537  26.762   6.442   4.256
93223W        W65538   2.780   0.242  11.515
93224W        W65539  29.111  31.337  11.440
93225W        W65540  37.458  24.015   2.605
93226W        W65541  21.057  29.936  12.403
93227W        W65542  19.784  19.830   0.499
93228W        W65543  34.102  29.859   1.750
93229W        W65544  27.010   8.822   4.069
93230W        W65545   6.299  25.548   0.830
93231W        W65546   4.275  17.386  13.066
93232W        W65547   1.502  25.157   4.115
93233W        W65548  13.190   5.147  13.028
93234W        W65549  17.263  15.019   0.294
93235W        W65550  10.718  27.266   3.317
93236W        W65551  14.230  18.782   1.859
93237W        W65552   6.717  42.310  13.938
93238W        W65553  40.902   4.824   1.033
93239W        W65554   7.391   2.404   4.623
93240W        W65555   9.839  37.036  11.606
93241W        W65556  17.166  16.770  13.692
93242W        W65557  42.743  25.197  13.465
93243W        W65558  37.587  30.138  10.719
93244W        W65559   3.317  13.742  13.531
93245W        W65560   7.349  42.014  12.959
93246W        W65561  42.864  29.479  13.871
93247W        W65562  28.497  18.087  10.446
93248W        W65563  42.503  33.794   0.830
93249W        W65564  26.398  11.852   4.689
93250W        W65565   0.986  26.543   2.776
93251W        W65566  38.362   2.680   3.209
93252W        W65567  27.062  25.668  10.515
93253W        W65568  22.706  44.811   1.889
93254W        W65569  10.724  15.872  14.447
93255W        W65570   0.450  44.505  11.616
93256W        W65571  13.660  34.576   1.420
93257W        W65572  38.400  12.396   2.288
93258W        W65573  25.951  37.022   2.662
93259W        W65574  40.317  38.604   2.222
93260W        W65575  25.219   3.179   3.521
93261W        W65576  43.529   8.253   0.346
93262W        W65577   7.128  36.405   2.624
93263W        W65578  41.589  16.499  11.060
93264W        W65579   0.515  40.355   2.218
93265W        W65580  27.226  37.834   1.760
93266W        W65581  16.551   4.452  11.144
93267W        W65582  31.102  30.545  14.156
93268W        W65583   4.073  19.131  14.978
93269W        W65584  32.873  32.913  12.546
93270W        W65585  34.948  23.503   1.319
93271W        W65586  22.605  16.826   1.807
93272W        W65587  26.293  23.320  10.077
93273W        W65588  23.778  19.043   1.696
93274W        W65589  12.153  12.592  11.194
93275W        W65590  40.986  19.120  12.459
93276W        W65591  42.255  18.719  12.505
93277W        W65592  20.352  27.400  12.514
93278W        W65593  12.735  15.194  13.443
93279W        W65594  38.846  28.022  14.255
93280W        W65595  23.610  27.727   3.120
93281W        W65596  36.461  22.714   2.741
93282W        W65597   0.310   6.371   4.215
93283W        W65598  17.485  40.301   4.025
93284W        W65599   4.128   9.654   1.951
93285W        W65600   1.739   5.239  12.345
93286W        W65601  23.260  20.470   4.301
93287W        W65602   9.918  10.916   3.186
93288W        W65603  17.467  16.704  14.629
93289W        W65604  37.000  36.523  14.960
93290W        W65605  29.181  26.711   4.051
93291W        W65606   9.466   4.828  14.317
93292W        W65607  37.483   2.249   1.678
93293W        W65608  37.025   2.714  11.902
93294W        W65609  26.729  35.381  13.548
93295W        W65610  31.442  20.254   1.080
93296W        W65611  16.450  13.552   3.271
93297W        W65612  25.589   7.182  12.771
93298W        W65613  14.720  17.623   4.575
93299W        W65614  20.807  27.677  13.386
93300W        W65615   2.341  13.496   2.690
93301W        W65616   0.916  37.089  13.886
93302W        W65617   1.454  14.233  10.682
93303W        W65618  33.830   9.815  12.547
93304W        W65619   5.782  20.542   4.559
93305W        W65620  44.555   8.149   0.520
93306W        W65621  17.554   5.374   3.137
93307W        W65622  17.183  11.964   1.199
93308W        W65623  22.176  36.015  13.851
93309W        W65624  40.002   7.677   0.220
93310W        W65625  19.265   1.731  13.808
93311W        W65626  14.079  41.959   1.493
93312W        W65627  40.490  13.150   3.867
93313W        W65628  40.440  27.111   2.462
93314W        W65629  42.713  28.148  13.260
93315W        W65630   2.810  26.672  11.234
93316W        W65631   7.522  38.357  10.651
93317W        W65632  41.304   7.180  11.107
93318W        W65633  21.537  24.072  13.779
93319W        W65634   6.916  35.612   2.173
93320W        W65635  30.880   4.973  11.165
93321W        W65636  11.385   9.121  12.668
93322W        W65637   7.800  31.197   1.625
93323W        W65638  12.648  40.470   2.016
93324W        W65639  12.447   3.775  12.433
93325W        W65640   6.834  40.425   0.958
93326W        W65641  34.949   5.445   4.713
93327W        W65642   0.451  11.571   5.017
93328W        W65643   7.961  10.855  13.506
93329W        W65644  28.961  25.592  14.277
93330W        W65645   0.386  12.958  12.299
93331W        W65646   4.036   2.389  14.370
93332W        W65647  35.041   9.037  14.405
93333W        W65648  24.472  17.626  12.098
93334W        W65649  43.986   6.381  12.378
93335W        W65650   8.914   1.719   1.756
93336W        W65651  41.341  17.230   4.170
93337W        W65652  12.300  23.424  14.936
93338W        W65653  21.457   9.745   3.408
93339W        W65654  18.354  16.090  12.496
93340W        W65655   6.875   5.034  11.683
93341W        W65656  15.549  43.396   1.809
93342W        W65657  19.573  20.671  13.503
93343W        W65658   1.086   8.876  12.870
93344W        W65659  22.256  27.129  13.860
93345W        W65660   1.310   0.481  11.321
93346W        W65661  36.802  26.534  13.479
93347W        W65662  30.065  33.759  11.637
93348W        W65663  14.643  28.672   0.831
93349W        W65664  38.010  15.063   3.861
93350W        W65665  26.426  24.411  11.696
93351W        W65666  23.668   2.310  11.184
93352W        W65667  42.402  13.767   0.313
93353W        W65668  25.593  42.491  11.096
93354W        W65669  35.358   3.759  13.935
93355W        W65670  14.257  23.516  12.836
93356W        W65671  10.639  40.124  14.814
93357W        W65672  40.061  22.027  13.987
93358W        W65673   9.943  27.564  12.258
93359W        W65674   7.867  39.916  13.193
93360W        W65675  10.166  24.067  11.379
93361W        W65676  11.381  43.347   0.795
93362W        W65677  41.209  20.793  12.133
93363W        W65678  32.707  29.642  11.994
93364W        W65679  18.106   9.862   5.018
93365W        W65680  20.455  33.017  14.067
93366W        W65681  31.678  11.776  14.557
93367W        W65682   6.084  28.596  11.079
93368W        W65683  38.948  42.464  14.070
93369W        W65684  15.901  22.712  14.540
93370W        W65685  44.710   6.299   2.770
93371W        W65686  34.649  29.005   0.966
93372W        W65687  25.743   7.209   4.577
93373W        W65688  41.234   3.405   2.248
93374W        W65689  38.396  28.150   3.321
93375W        W65690   4.533  41.037   3.639
93376W        W65691   3.999  10.848   2.802
93377W        W65692  12.742  26.599   2.704
93378W        W65693  33.009  39.126  13.081
93379W        W65694  35.541  42.532   0.750
93380W        W65695  10.794  13.429   2.289
93381W        W65696  20.118   0.990   4.589
93382W        W65697  19.832  20.681  11.005
93383W        W65698   2.899   4.899  13.540
93384W        W65699  13.196   8.310  14.787
93385W        W65700  13.995  21.218  11.558
93386W        W65701  33.265  17.411   0.377
93387W        W65702  43.194  25.456   2.204
93388W        W65703   2.987  20.502  13.745
93389W        W65704  22.243  24.386  14.246
93390W        W65705  23.666  44.719   1.547
93391W        W65706  31.198  23.290  14.300
93392W        W65707  34.282  30.353   0.802
93393W        W65708   4.241  28.439   3.733
93394W        W65709  22.076   2.062  11.989
93395W        W65710  11.062  38.084  12.471
93396W        W65711  34.139  37.383  13.626
93397W        W65712   0.261  11.667   3.699
93398W        W65713  40.877   2.850   3.404
93399W        W65714   5.502  30.021   1.905
93400W        W65715   2.644  13.348   2.236
93401W        W65716  40.393  30.042   2.777
93402W        W65717  24.180  11.671   0.069
93403W        W65718  32.146   8.809  11.547
93404W        W65719  16.131  15.734  13.606
93405W        W65720  44.377  38.401  12.721
93406W        W65721  17.153  37.749   3.719
93407W        W65722  40.950   8.756   4.410
93408W        W65723   2.424  17.711  10.826
93409W        W65724   0.580  29.136   4.910
93410W        W65725   4.861  33.079  14.213
93411W        W65726  11.450  27.201   1.848
93412W        W65727  33.825  13.806  12.909
93413W        W65728  16.597  16.566   4.183
93414W        W65729  30.379   8.761  12.005
93415W        W65730   8.469  38.531  11.005
93416W        W65731   1.832  32.369   2.410
93417W        W65732   3.530   7.642   3.681
93418W        W65733   3.427  10.654  13.970
93419W        W65734  12.548  36.951   3.746
93420W        W65735  23.653  27.953  12.347
93421W        W65736  44.413  27.594  11.836
93422W        W65737  33.464  21.458  11.099
93423W        W65738  44.886   6.189  13.765
93424W        W65739   0.755  21.848   2.053
93425W        W65740  15.037  11.571  14.358
93426W        W65741  13.658  27.597  12.328
93427W        W65742  39.997  14.533  12.795
93428W        W65743  34.429  35.712  14.951
93429W        W65744  33.728  15.371  14.041
93430W        W65745  13.546  29.442  13.926
93431W        W65746   8.918  31.116  13.925
93432W        W65747  16.105  40.614  13.966
93433W        W65748  37.137  40.774   2.363
93434W        W65749  25.536  22.017  10.612
93435W        W65750  34.070  40.662   1.166
93436W        W65751  19.436  15.767  10.700
93437W        W65752  31.585  34.092   1.634
93438W        W65753  16.733  26.041   1.932
93439W        W65754  30.601  29.481   2.462
93440W        W65755  14.384  39.121   3.234
93441W        W65756  12.087  40.414  12.110
93442W        W65757  20.053   4.839  12.480
93443W        W65758  16.758   8.356   3.811
93444W        W65759  14.867  30.014  11.548
93445W        W65760   0.762  29.721  14.807
93446W        W65761  25.625   3.410  10.229
93447W        W65762  27.637  43.884  13.972
93448W        W65763  32.435  17.597   1.323
93449W        W65764  22.022  18.474  11.448
93450W        W65765  31.414  32.586   3.613
93451W        W65766   2.165  15.627  11.550
93452W        W65767   6.143  17.661   3.749
93453W        W65768  15.085   2.784  10.616
93454W        W65769  34.018  27.156   3.968
93455W        W65770  32.015  27.294  12.156
93456W        W65771  38.004   2.197   0.335
93457W        W65772  44.468  16.651  13.983
93458W        W65773   3.481  22.598   1.374
93459W        W65774  17.846  29.978   1.856
93460W        W65775  19.158   9.925   4.798
93461W        W65776  30.989  20.869   5.060
93462W        W65777  28.026  14.638   3.185
93463W        W65778  35.528  18.530  12.806
93464W        W65779  30.419  16.588   3.849
93465W        W65780  28.856   7.219  12.841
93466W        W65781  25.060  26.237   1.656
93467W        W65782   7.564   5.130   0.285
93468W        W65783   1.328  17.483  12.531
93469W        W65784   4.774  17.465  13.342
93470W        W65785  13.183  33.379  10.695
93471W        W65786  36.619  31.482   4.887
93472W        W65787  25.536  43.261  14.175
93473W        W65788  42.232  28.188  14.912
93474W        W65789  36.561  42.654  14.722
93475W        W65790   1.035  23.919   2.866
93476W        W65791  30.382   5.680  10.955
93477W        W65792  13.234   7.860   4.009
93478W        W65793  19.954  35.149  13.419
93479W        W65794   5.219   4.374   4.566
93480W        W65795  14.062  26.765  13.442
93481W        W65796  29.983  26.450  14.431
93482W        W65797   3.938   8.970  11.664
93483W        W65798   9.457   8.386  12.540
93484W        W65799  29.031  14.372   1.778
93485W        W65800   8.726   3.029  13.993
93486W        W65801  16.481  21.088   2.193
93487W        W65802   6.511  25.552  13.424
93488W        W65803   7.620  39.795  12.561
93489W        W65804   0.000  41.279  11.135
93490W        W65805  24.427  37.884  13.156
93491W        W65806  43.935  25.483   2.775
93492W        W65807   7.435  25.474  13.352
93493W        W65808  18.739  41.344   0.425
93494W        W65809   0.305   2.430   0.322
93495W        W65810  23.022  18.506   3.160
93496W        W65811  18.377   6.184   2.167
93497W        W65812   8.944  32.595  12.951
93498W        W65813  29.996  15.036  13.395
93499W        W65814  28.430  43.963  14.498
93500W        W65815  40.446  34.338  12.585
93501W        W65816  13.256  20.157   3.408
93502W        W65817  28.422  29.075   1.216
93503W        W65818   0.869  20.523  12.862
93504W        W65819  24.656   7.914  12.961
93505W        W65820  24.098   6.377  14.715
93506W        W65821  26.954  30.101  11.519
93507W        W65822  18.986  17.743   4.349
93508W        W65823  15.225  18.152   4.540
93509W        W65824  25.138  42.066  12.811
93510W        W65825  41.291  40.405   2.795
93511W        W65826  28.896  44.077  12.372
93512W        W65827   1.913  16.614   1.298
93513W        W65828  24.510  42.956   4.615
93514W        W65829  34.477  37.597   0.350
93515W        W65830  40.480  20.300   4.634
93516W        W65831  44.759  32.021  11.307
93517W        W65832  10.740   2.600   0.724
93518W        W65833   8.768  32.620   2.785
93519W        W65834   4.186  12.552   0.020
93520W        W65835  15.711  23.016  12.961
93521W        W65836  42.843  33.699   2.351
93522W        W65837  28.604   2.029   4.546
93523W        W65838  25.191   3.369   4.572
93524W        W65839  24.757  13.503   2.780
93525W        W65840  35.727  33.819   2.380
93526W        W65841  14.538  32.326   4.145
93527W        W65842  26.643  27.751  13.173
93528W        W65843   9.248  41.787  12.536
93529W        W65844  38.577  39.591  11.022
93530W        W65845  22.697  23.480   1.806
93531W        W65846   4.409   1.238  13.660
93532W        W65847  15.090   2.365  11.914
93533W        W65848  18.637  21.178   0.005
93534W        W65849  29.711   6.880  12.024
93535W        W65850   7.716  41.699   1.623
93536W        W65851  21.081   9.019   4.682
93537W        W65852   3.162  13.174  12.990
93538W        W65853  16.150  35.164  12.611
93539W        W65854   0.026  34.574   0.534
93540W        W65855  15.745  31.332   2.359
93541W        W65856   9.314  40.229   4.216
93542W        W65857  28.187  13.115   1.919
93543W        W65858  33.892  41.894  14.433
93544W        W65859  23.584   4.653  12.397
93545W        W65860  43.728  10.784   2.797
93546W        W65861  44.970  20.802  13.333
93547W        W65862   8.413  43.035   0.485
93548W        W65863  29.935   1.281   3.208
93549W        W65864  39.946  18.757   2.827
93550W        W65865   0.901  26.917  14.365
93551W        W65866  10.588  16.107   0.337
93552W        W65867  15.052  32.765   2.024
93553W        W65868  43.269  36.035   1.126
93554W        W65869  43.482  35.001   4.354
93555W        W65870  11.700  35.065  14.003
93556W        W65871   8.117  17.761  14.900
93557W        W65872  39.339  30.342   0.457
93558W        W65873   4.369  18.321  11.969
93559W        W65874  23.462  13.847  10.938
93560W        W65875  41.560  28.912   3.707
93561W        W65876  37.148  18.582   1.304
93562W        W65877  22.325  19.730  12.098
93563W        W65878  26.532  36.375  14.351
93564W        W65879  12.169  34.447   0.026
93565W        W65880  12.332  40.934   0.549
93566W        W65881   9.706   8.862   0.275
93567W        W65882  13.863  39.065   3.594
93568W        W65883  37.853  11.788  11.677
93569W        W65884  42.374  27.606   2.435
93570W        W65885  18.152   1.955  10.612
93571W        W65886  25.810   5.764   9.829
93572W        W65887  44.844  16.567  10.355
93573W        W65888  31.233  44.798  13.531
93574W        W65889  33.957  26.607  10.110
93575W        W65890   5.276  39.335   1.509
93576W        W65891   9.435  44.870   2.342
93577W        W65892   0.307  11.857   9.907
93578W        W65893  15.582  16.194   0.315
93579W        W65894  23.701  11.771   1.486
93580W        W65895  41.792  24.211   1.119
93581W        W65896  24.483  33.042   3.211
93582W        W65897  20.810  43.315  14.486
93583W        W65898  18.262  37.061  11.009
93584W        W65899   4.222  35.838  14.115
93585W        W65900  28.527  19.580   4.705
93586W        W65901  39.063  37.294   1.235
93587W        W65902   8.217  10.700   2.202
93588W        W65903  10.141  17.492   2.602
93589W        W65904  31.700   5.648   3.214
93590W        W65905   1.971  44.740  13.565
93591W        W65906  41.408  34.383  11.558
93592W        W65907  13.195  24.952   4.114
93593W        W65908   6.710   3.957   3.262
93594W        W65909  19.187  19.004   3.547
93595W        W65910  19.910  28.748   4.868
93596W        W65911  22.575  32.867  12.382
93597W        W65912  28.951  11.838   3.674
93598W        W65913  20.630   1.270   1.507
93599W        W65914   1.213  29.779  14.555
93600W        W65915  16.681  17.046   2.727
93601W        W65916  23.299  39.839  13.778
93602W        W65917  40.329  10.202  10.792
93603W        W65918  34.499  34.516   3.889
93604W        W65919   4.440  41.928  14.149
93605W        W65920   9.825   4.396  13.274
93606W        W65921  34.464  26.149  10.755
93607W        W65922  10.795  41.014  11.072
93608W        W65923   5.412  33.442   4.270
93609W        W65924  31.191  28.046   4.116
93610W        W65925  20.753   0.361  13.882
93611W        W65926  26.138  42.994  10.670
93612W        W65927  12.768  24.447  12.019
93613W        W65928  10.779  32.990  12.427
93614W        W65929  13.052   5.430  13.448
93615W        W65930  16.669  26.646  11.678
93616W        W65931  23.645  36.462   1.362
93617W        W65932   0.938  21.589  13.510
93618W        W65933  27.382   8.455   0.925
93619W        W65934   7.862  33.925   3.904
93620W        W65935  26.242  13.687  12.865
93621W        W65936  23.897  28.041   1.788
93622W        W65937   1.297   3.202   1.171
93623W        W65938  17.150  25.167   3.769
93624W        W65939  43.895  44.558  14.954
93625W        W65940   4.863   7.252   1.182
93626W        W65941  41.359  41.827   2.021
93627W        W65942  26.048  34.890   4.677
93628W        W65943  43.689  35.458   0.448
93629W        W65944   2.928  20.139  14.091
93630W        W65945   3.657  22.604   3.592
93631W        W65946  11.415  40.389  11.521
93632W        W65947  17.360  13.799   2.805
93633W        W65948  36.764  25.018   4.389
93634W        W65949   8.032  23.243  14.311
93635W        W65950   3.975   2.436  10.643
93636W        W65951   3.998  19.012  12.564
93637W        W65952  35.370  32.623   1.849
93638W        W65953  20.265   8.214  12.607
93639W        W65954  39.478  44.851   2.515
93640W        W65955  21.677  24.980  10.716
93641W        W65956  38.820  10.806   2.832
93642W        W65957  19.749   6.192  11.700
93643W        W65958  17.132   7.719  13.509
93644W        W65959  19.812  28.487  11.189
93645W        W65960  38.737   2.105   2.285
93646W        W65961  39.882  30.813   3.196
93647W        W65962  17.709  30.165   0.784
93648W        W65963  30.621   6.330   0.215
93649W        W65964  25.595   1.765  11.465
93650W        W65965   8.784  28.745   2.719
93651W        W65966  35.988  20.292  13.414
93652W        W65967  24.281  38.078   3.607
93653W        W65968  29.043  23.405   1.450
93654W        W65969  22.440   9.792   1.394
93655W        W65970  16.200  33.523   4.665
93656W        W65971  14.121  23.175  12.467
93657W        W65972   9.424  34.543   3.251
93658W        W65973   6.786  15.021  12.119
93659W        W65974  10.831  18.254  14.291
93660W        W65975  29.834  44.428  14.030
93661W        W65976  27.078  14.054   1.411
93662W        W65977  41.996  31.607  13.043
93663W        W65978  31.697  43.861   1.954
93664W        W65979  44.761  38.003  13.927
93665W        W65980  25.454  37.168   0.496
93666W        W65981  31.509  34.905   3.544
93667W        W65982   3.453  19.317  10.553
93668W        W65983  13.060  21.774   1.759
93669W        W65984   3.244  11.473   4.860
93670W        W65985  36.509  11.613  13.703
93671W        W65986  41.521  37.512  13.019
93672W        W65987  18.703  16.135  14.990
93673W        W65988  41.093  18.301  13.621
93674W        W65989  17.917  38.915   3.176
93675W        W65990  16.584   8.913   2.385
93676W        W65991  21.063  25.197   1.430
93677W        W65992  41.591  28.579   2.241
93678W        W65993  29.678   7.967  14.904
93679W        W65994  15.064  28.050   0.362
93680W        W65995  40.858  18.874   0.242
93681W        W65996  39.310  10.200  12.320
93682W        W65997  10.960  30.717  13.372
93683W        W65998  24.327   6.903   4.788
93684W        W65999   3.483  32.412   0.328
93685W        W66000  43.364  40.574   3.299
93686W        W66001  26.815   4.831   3.139
93687W        W66002  35.391  20.124   0.498
93688W        W66003   9.713  19.690  10.563
93689W        W66004   2.070  36.358   5.201
93690W        W66005  28.777  16.904   5.316
93691W        W66006   7.689  12.471  13.036
93692W        W66007  17.281  37.493   4.513
93693W        W66008  23.200  41.048  10.545
93694W        W66009  30.873  24.122  14.038
93695W        W66010  16.876  18.045   1.933
93696W        W66011  30.998  32.523  12.500
93697W        W66012   8.746  10.871   0.433
93698W        W66013  37.446  31.448  12.909
93699W        W66014  26.121   8.114  12.111
93700W        W66015   4.230  16.682   3.356
93701W        W66016  41.355  40.005  12.908
93702W        W66017  25.080  28.427   3.368
93703W        W66018  26.396   9.615  12.037
93704W        W66019  39.852  12.664  14.282
93705W        W66020  42.536  12.108  11.169
93706W        W66021  14.344  10.885   0.444
93707W        W66022  28.909   9.817   2.351
93708W        W66023  19.989  25.533  12.915
93709W        W66024  39.028  28.564   2.804
93710W        W66025   8.076  12.804  12.952
93711W        W66026   3.529  23.478   1.278
93712W        W66027  15.198  17.598  11.091
93713W        W66028  21.560  38.529  11.610
93714W        W66029  20.795   2.824   1.799
93715W        W66030  28.762  36.936  12.425
93716W        W66031  35.944  11.406   3.820
93717W        W66032  26.081  42.457  13.446
93718W        W66033   3.938  21.681   2.852
93719W        W66034  35.755  29.631  12.464
93720W        W66035  10.517   6.136  12.457
93721W        W66036  38.084  27.079  11.106
93722W        W66037   3.894   7.228  13.928
93723W        W66038  31.115  41.906   1.402
93724W        W66039  41.438  10.580  13.836
93725W        W66040   1.521   8.666  12.023
93726W        W66041  29.484  12.722   3.655
93727W        W66042  39.140  38.953  10.383
93728W        W66043   1.207  18.986   3.683
93729W        W66044  13.135  14.444   2.418
93730W        W66045  21.663  32.314   3.207
93731W        W66046  23.468  16.569  11.374
93732W        W66047   1.808   2.530   4.129
93733W        W66048  36.103  28.907   0.911
93734W        W66049   9.437  31.090  13.933
93735W        W66050  41.278  21.623   2.754
93736W        W66051  25.230  16.260  13.503
93737W        W66052  10.782   5.816   3.631
93738W        W66053  28.425  18.966  12.211
93739W        W66054   0.558  31.191  14.774
93740W        W66055  25.001   9.657   4.787
93741W        W66056  35.837   5.470   4.205
93742W        W66057   1.825  10.949   4.944
93743W        W66058  13.883  42.001   1.013
93744W        W66059  31.655  44.087   0.292
93745W        W66060   9.064   3.529  10.387
93746W        W66061  27.275  31.529   3.874
93747W        W66062  10.368  26.265  12.299
93748W        W66063  44.658  37.199  13.343
93749W        W66064   7.770   2.914  13.092
93750W        W66065   2.362  25.802   2.260
93751W        W66066  29.654  34.056   0.990
93752W        W66067  13.281  21.713  12.114
93753W        W66068  13.899  14.352   3.557
93754W        W66069  13.651   4.800  13.774
93755W        W66070  35.976   9.357   3.582
93756W        W66071  44.373  43.606  13.640
93757W        W66072  24.304  33.592   3.131
93758W        W66073  40.260  17.362   1.033
93759W        W66074  35.723  43.351   4.342
93760W        W66075  23.077  18.298   3.644
93761W        W66076  20.469  15.818  13.315
93762W        W66077  13.247  35.381  11.420
93763W        W66078   9.109  35.858  11.251
93764W        W66079  18.568   6.370  10.896
93765W        W66080  29.565  44.924   0.878
93766W        W66081  34.946  41.319  10.376
93767W        W66082  41.789  13.739   4.632
93768W        W66083   3.743  40.230  11.419
93769W        W66084  21.887  34.467  11.574
93770W        W66085  43.952  12.651  13.005
93771W        W66086   5.816  38.118  14.382
93772W        W66087  42.250  42.748  10.644
93773W        W66088  10.694   8.654   4.167
93774W        W66089  14.275  43.092  13.949
93775W        W66090  24.557  30.643   3.371
93776W        W66091  41.459  12.684   2.176
93777W        W66092  43.128  40.575   0.315
93778W        W66093  40.598  38.850   5.018
93779W        W66094   9.755  12.092   3.259
93780W        W66095  12.535   2.351  11.118
93781W        W66096  31.480  20.961   2.403
93782W        W66097   1.355  41.837  12.969
93783W        W66098  44.410  33.411  11.388
93784W        W66099  32.911  22.482   1.182
93785W        W66100  26.366  42.220  11.555
93786W        W66101   2.019  37.053  13.059
93787W        W66102  38.499   6.151  14.071
93788W        W66103  10.357  42.302  14.318
93789W        W66104  27.167  30.438   0.534
93790W        W66105  37.428  39.356   0.215
93791W        W66106  16.484  29.901   4.257
93792W        W66107   6.688  29.938   4.187
93793W        W66108  17.737  32.318   0.400
93794W        W66109   9.190  13.565  10.940
93795W        W66110  34.372  14.796  14.281
93796W        W66111  32.428  39.547   1.846
93797W        W66112  36.477  40.550  14.445
93798W        W66113  17.588  24.176   2.981
93799W        W66114  33.366   0.536   4.174
93800W        W66115  22.189  21.773   0.848
93801W        W66116  17.134  17.758   4.566
93802W        W66117   9.285  35.562   0.380
93803W        W66118  11.772   5.837  14.947
93804W        W66119  27.978  11.517   2.519
93805W        W66120  20.221  31.040  13.494
93806W        W66121  38.425  26.240  10.218
93807W        W66122  20.799  30.129  13.955
93808W        W66123  26.744   1.366  13.983
93809W        W66124  15.332   3.373   4.231
93810W        W66125  25.696  40.544   2.607
93811W        W66126   0.205  15.697   0.512
93812W        W66127  13.496  28.104  13.514
93813W        W66128   2.530  23.283  12.963
93814W        W66129  29.350   3.440  13.420
93815W        W66130   3.211   1.994   3.776
93816W        W66131  31.543  35.734  11.073
93817W        W66132   4.705  17.173   3.931
93818W        W66133  25.650  36.164   4.970
93819W        W66134  28.832   6.448  14.052
93820W        W66135  26.964  34.789   4.523
93821W        W66136   6.551  43.306   0.410
93822W        W66137  27.990  32.710  11.250
93823W        W66138  15.383   6.690   3.734
93824W        W66139  41.939   7.686   3.972
93825W        W66140  16.675  34.545   4.654
93826W        W66141  23.269  22.585  14.561
93827W        W66142   0.921  41.323   0.007
93828W        W66143  10.354  31.535  14.531
93829W        W66144  34.803  14.240   3.066
93830W        W66145   8.605  44.308  11.262
93831W        W66146  25.881  32.205  11.125
93832W        W66147  18.402  35.065  13.915
93833W        W66148  38.306  16.747   4.203
93834W        W66149  41.689  12.762   2.633
93835W        W66150   6.513  39.885   2.687
93836W        W66151  31.310   6.116  14.892
93837W        W66152  19.029   0.854  12.524
93838W        W66153  19.034  11.510  10.638
93839W        W66154  28.045  14.543   1.364
93840W        W66155  27.519   5.644  12.595
93841W        W66156  42.884   9.531  11.985
93842W        W66157  16.077  18.629  13.456
93843W        W66158  20.015  18.831   2.704
93844W        W66159  10.994  17.652   2.234
93845W        W66160  16.616   5.280  14.529
93846W        W66161   3.128   8.665  11.149
93847W        W66162   1.321  17.767   3.193
93848W        W66163  16.632  39.859  10.650
93849W        W66164  23.580  40.783   3.811
93850W        W66165  21.817  16.745  13.779
93851W        W66166  32.627  20.540  13.042
93852W        W66167  39.466  12.953  14.419
93853W        W66168  19.796   5.180   1.334
93854W        W66169   9.189  19.668  12.152
93855W        W66170  37.809  20.422   3.046
93856W        W66171  28.205  14.218  14.010
93857W        W66172  18.106   1.902  11.198
93858W        W66173   0.461  12.289  13.894
93859W        W66174  36.012  29.380   1.709
93860W        W66175  24.577  10.130   1.656
93861W        W66176  14.533  30.111   1.013
93862W        W66177   3.286   4.139   3.566
93863W        W66178  16.517   4.310   0.353
93864W        W66179   0.588  16.703  14.403
93865W        W66180  13.109  20.042  10.917
93866W        W66181  26.203  41.856   0.918
93867W        W66182   0.967  15.077  13.646
93868W        W66183  10.032  25.150   4.060
93869W        W66184  17.859  44.195  14.018
93870W        W66185  14.859  16.522   1.763
93871W        W66186   8.642   8.938  14.849
93872W        W66187   7.741  25.547  12.925
93873W        W66188  16.665  17.182  12.112
93874W        W66189  30.918  15.606   1.882
93875W        W66190  20.039  42.915   3.995
93876W        W66191  44.979   4.660   4.559
93877W        W66192  38.374  22.470   2.340
93878W        W66193  32.473   0.352  11.371
93879W        W66194  23.122  17.973  12.027
93880W        W66195  35.559  15.982   0.290
93881W        W66196   3.780  32.441  14.908
93882W        W66197  19.410  43.049  13.517
93883W        W66198  43.403  10.599   3.176
93884W        W66199  44.996  15.395  11.329
93885W        W66200  17.251   9.961  10.922
93886W        W66201  19.344  31.985  11.169
93887W        W66202  16.167   6.959  10.533
93888W        W66203   0.645  43.980   3.235
93889W        W66204   4.430  29.456   1.959
93890W        W66205  41.822  11.634  13.097
93891W        W66206   6.752  33.622  13.008
93892W        W66207  31.049  18.666  13.858
93893W        W66208   9.442  27.584  13.449
93894W        W66209  41.927  32.921  10.767
93895W        W66210  18.175  16.182  14.308
93896W        W66211  33.677   2.183  14.419
93897W        W66212  41.794  17.665   4.662
93898W        W66213  28.579  21.089   4.819
93899W        W66214  11.059  19.239  10.280
93900W        W66215   4.890  25.662   4.584
93901W        W66216  17.642  13.857  12.072
93902W        W66217  17.604  38.827   0.625
93903W        W66218  18.078   1.662  13.409
93904W        W66219  30.216  20.182   0.968
93905W        W66220  15.294  16.655   2.007
93906W        W66221  19.727  41.099   2.307
93907W        W66222   6.817  36.577  13.398
93908W        W66223  41.318  26.705   2.461
93909W        W66224   6.222  32.947  11.481
93910W        W66225   8.175   0.911   0.398
93911W        W66226  28.479  18.284  14.964
93912W        W66227  11.068  42.563   1.596
93913W        W66228  16.262   9.118  11.189
93914W        W66229  43.741  15.635  12.008
93915W        W66230   3.155  14.746  14.195
93916W        W66231   0.199  13.605  10.323
93917W        W66232  38.291  29.569   2.371
93918W        W66233  34.810   0.198   4.180
93919W        W66234  26.056  13.295   0.790
93920W        W66235  41.568  13.286   1.351
93921W        W66236  40.569  28.067   3.598
93922W        W66237   4.963  14.124   1.917
93923W        W66238  42.240  25.546  14.720
93924W        W66239  20.967  31.043  12.602
93925W        W66240   0.586  41.568   4.508
93926W        W66241  32.580   2.183   0.317
93927W        W66242  26.210  18.282   2.599
93928W        W66243   7.257   4.300   2.669
93929W        W66244  32.684   6.376  14.555
93930W        W66245  19.213  37.848   3.700
93931W        W66246  16.994  12.245  12.474
93932W        W66247   0.837  14.362   1.209
93933W        W66248  38.280  14.626  12.141
93934W        W66249  31.183  11.773  10.812
93935W        W66250   8.650  11.776   0.057
93936W        W66251  38.542  35.287   2.079
93937W        W66252   9.245  23.204   2.168
93938W        W66253  38.974  15.139   1.875
93939W        W66254  40.317  15.052  12.240
93940W        W66255  31.153   8.821  12.926
93941W        W66256  29.384  24.606   2.312
93942W        W66257  13.719  21.493  10.544
93943W        W66258  14.095   1.410   3.738
93944W        W66259  24.571  34.567   3.092
93945W        W66260  34.090   0.185  12.520
93946W        W66261   2.038   0.241  12.899
93947W        W66262  38.513  36.631   2.751
93948W        W66263  33.080  41.142  14.830
93949W        W66264  20.711  16.201   3.203
93950W        W66265  18.917  15.772  10.635
93951W        W66266   6.409  34.901  12.964
93952W        W66267  15.314  26.037   2.775
93953W        W66268  21.630  12.403   1.928
93954W        W66269   4.157  15.175   3.668
93955W        W66270  37.412  38.152   2.773
93956W        W66271   1.751   5.789  12.438
93957W        W66272  15.197  10.819  12.772
93958W        W66273  32.544  18.801   0.296
93959W        W66274  44.923  38.426  11.888
93960W        W66275  17.534  34.656   0.950
93961W        W66276   2.242  20.023  11.099
93962W        W66277  26.695  39.031   0.822
93963W        W66278  40.900  30.200   2.695
93964W        W66279   2.811  22.362  11.513
93965W        W66280  28.716   8.368  14.842
93966W        W66281  33.009  39.328   0.917
93967W        W66282  15.886  14.121  14.412
93968W        W66283  17.966  20.162   2.307
93969W        W66284  23.722   7.490  11.985
93970W        W66285   4.354  22.006   2.762
93971W        W66286  13.365  26.302  12.147
93972W        W66287  27.664  21.172  13.053
93973W        W66288   5.894  35.490   3.146
93974W        W66289   7.275  21.548   1.182
93975W        W66290  22.367   6.716   2.254
93976W        W66291  39.584  16.731   1.385
93977W        W66292  19.223  35.891   0.789
93978W        W66293  20.989  19.535  11.817
93979W        W66294  38.923  38.860  10.851
93980W        W66295   8.216  30.433  13.654
93981W        W66296  19.348  18.077   4.567
93982W        W66297  11.222  30.364   2.783
93983W        W66298  21.243  28.085   3.689
93984W        W66299  19.507   8.189   2.745
93985W        W66300  42.016  39.228  11.066
93986W        W66301  15.303  12.340   0.967
93987W        W66302  15.576  43.407   3.687
93988W        W66303  24.957  13.672  12.953
93989W        W66304  16.749  23.212  13.595
93990W        W66305  16.495  29.378   2.605
93991W        W66306   0.285  30.886  12.422
93992W        W66307   3.712  10.204   2.896
93993W        W66308  16.026  15.078   0.334
93994W        W66309   7.582  14.885  13.914
93995W        W66310  27.042  20.532   3.206
93996W        W66311  12.063   7.899  14.489
93997W        W66312   7.786  14.741   3.877
93998W        W66313  19.124  37.838   2.315
93999W        W66314  43.884  21.165   2.269
94000W        W66315  27.553  28.689  13.314
94001W        W66316   6.365  12.164   1.037
94002W        W66317  11.093  41.749   0.493
94003W        W66318   1.221  32.477   0.202
94004W        W66319  43.820  18.527  11.436
94005W        W66320  39.694  41.988   2.393
94006W        W66321  13.823  29.034  13.737
94007W        W66322  32.005  19.581  14.231
94008W        W66323  18.391  38.135   4.092
94009W        W66324  12.007  23.036   1.771
94010W        W66325   3.801   2.808   0.389
94011W        W66326   8.130  38.055   4.636
94012W        W66327   0.493  27.459   4.071
94013W        W66328  17.274  24.159  14.207
94014W        W66329  26.478   6.213   3.866
94015W        W66330  42.178  17.397  14.066
94016W        W66331   8.675  27.733   3.269
94017W        W66332  10.400  10.524  13.943
94018W        W66333  28.702  31.564  14.115
94019W        W66334   2.391  26.227  12.316
94020W        W66335  42.905  13.830   0.403
94021W        W66336  10.818   5.678  11.071
94022W        W66337  43.489  43.412  11.549
94023W        W66338  29.226  28.107   3.400
94024W        W66339  38.508  10.210  13.402
94025W        W66340  24.243  40.865   4.195
94026W        W66341   4.495  16.729   1.006
94027W        W66342  40.521  26.123   3.696
94028W        W66343  31.618  24.614   1.230
94029W        W66344  33.699  26.025   3.199
94030W        W66345  41.754  43.792   2.844
94031W        W66346  15.289  25.920  12.430
94032W        W66347  20.755  23.484  10.686
94033W        W66348  17.334   1.738  14.045
94034W        W66349  36.029  28.035  14.854
94035W        W66350  42.639  32.908   1.928
94036W        W66351  22.794  33.623   4.139
94037W        W66352   7.510   6.855  12.339
94038W        W66353  34.897  17.003  11.710
94039W        W66354  27.499   2.756  13.458
94040W        W66355   0.302  22.439  12.070
94041W        W66356  36.355  36.507   3.113
94042W        W66357   6.311  40.519   3.594
94043W        W66358  17.040  33.575  13.855
94044W        W66359  36.423  25.515  10.412
94045W        W66360  42.931  27.257   1.813
94046W        W66361  17.357  34.325  14.966
94047W        W66362  20.004  42.897   2.172
94048W        W66363  21.161   1.809  13.403
94049W        W66364  20.108  11.426   2.636
94050W        W66365  44.555  25.625  13.380
94051W        W66366  23.051   6.759  11.141
94052W        W66367  32.177  18.251   1.119
94053W        W66368  39.480  23.640   4.876
94054W        W66369  36.049  20.789  13.412
94055W        W66370  37.935  41.998   3.394
94056W        W66371  12.872   5.536  12.898
94057W        W66372  37.878  35.926  14.523
94058W        W66373  42.444  19.485   0.871
94059W        W66374  26.977  12.227   1.391
94060W        W66375  11.987  17.872   2.419
94061W        W66376  28.910  14.295  14.967
94062W        W66377   8.246  13.510  14.848
94063W        W66378  32.149  39.708   3.636
94064W        W66379  26.051  28.683  14.241
94065W        W66380   3.698  12.816   3.162
94066W        W66381   1.515   3.354   0.220
94067W        W66382  23.242   7.644  13.504
94068W        W66383  33.136  38.883  11.519
94069W        W66384  22.748  40.017  11.088
94070W        W66385  26.639  16.869  12.837
94071W        W66386  44.025  11.796   3.197
94072W        W66387   0.188  39.768  14.701
94073W        W66388  16.357  36.648   1.955
94074W        W66389  34.437  29.914   4.399
94075W        W66390  36.592  36.344  10.722
94076W        W66391  36.794  41.602  11.594
94077W        W66392   0.964  19.213  12.097
94078W        W66393  28.236  28.340  12.529
94079W        W66394  25.644  17.323   3.075
94080W        W66395  21.683  16.055  10.514
94081W        W66396  44.437  29.133  10.641
94082W        W66397  19.204   5.308  14.453
94083W        W66398  24.140  21.498  12.060
94084W        W66399   0.411  37.327   0.429
94085W        W66400  27.889   7.331  13.965
94086W        W66401  15.137  25.603   4.502
94087W        W66402  42.434   1.533   3.330
94088W        W66403  18.355   3.248  11.515
94089W        W66404  27.471  16.143   1.668
94090W        W66405  21.722   0.234   3.705
94091W        W66406  28.717   8.918   0.876
94092W        W66407  38.752  20.042  14.366
94093W        W66408   0.742  30.510  11.063
94094W        W66409  39.379  41.822   0.852
94095W        W66410   4.188   4.473   4.515
94096W        W66411  27.594   7.983   3.248
94097W        W66412  43.723  41.385   3.303
94098W        W66413  33.149  27.756  11.158
94099W        W66414  22.682   3.008  11.502
94100W        W66415   5.376  36.149   0.140
94101W        W66416   9.842  39.443  11.177
94102W        W66417  39.312  42.888   4.614
94103W        W66418  43.697  15.636   3.593
94104W        W66419  28.746  33.501  12.861
94105W        W66420   8.439  12.983  13.966
94106W        W66421  28.329  32.702  12.452
94107W        W66422  37.342  37.402   1.259
94108W        W66423  11.895  34.591   4.638
94109W        W66424  31.479  43.383   2.152
94110W        W66425  36.929   7.254   0.698
94111W        W66426  21.658  35.515   4.564
94112W        W66427  12.238  30.142   0.297
94113W        W66428  12.698  37.115  13.126
94114W        W66429  16.090  29.612   1.585
94115W        W66430  33.796  11.841   3.734
94116W        W66431   3.819   4.927  14.023
94117W        W66432  11.830  32.444   0.030
94118W        W66433  32.193  13.037  12.014
94119W        W66434  15.528  26.643   4.523
94120W        W66435   0.545  32.086  12.431
94121W        W66436  32.978  36.920  14.781
94122W        W66437  14.116  28.186   3.270
94123W        W66438  41.865   9.149   2.214
94124W        W66439  11.563  28.355  14.972
94125W        W66440   9.532  10.383  12.566
94126W        W66441  41.843  31.873   4.697
94127W        W66442   7.979  36.989  14.259
94128W        W66443  16.279   7.002   0.830
94129W        W66444   6.483  18.199   1.133
94130W        W66445  28.107  35.466   1.211
94131W        W66446  36.843   9.899  14.615
94132W        W66447  40.104  41.099  11.023
94133W        W66448  43.691   3.786  13.505
94134W        W66449  24.510   6.723   0.176
94135W        W66450  39.530   6.018   0.951
94136W        W66451   3.049   9.521   0.738
94137W        W66452  15.272  29.263  14.252
94138W        W66453  14.884  38.629   3.576
94139W        W66454   2.730  30.696  12.787
94140W        W66455  14.355  23.124   2.601
94141W        W66456  39.878  42.510  12.091
94142W        W66457  17.574  12.036  14.483
94143W        W66458  40.845  27.141   0.907
94144W        W66459  32.409  27.044  13.967
94145W        W66460  27.784   6.448   1.120
94146W        W66461  30.464   8.280  13.474
94147W        W66462  31.617  26.630   3.850
94148W        W66463  33.759  41.715  12.972
94149W        W66464  15.878  15.872   4.093
94150W        W66465  39.083  18.766  14.780
94151W        W66466   4.152   6.238   3.931
94152W        W66467  10.127  33.406   1.922
94153W        W66468  16.346  14.104  13.359
94154W        W66469   7.202   2.883   4.547
94155W        W66470   4.223  11.914  11.594
94156W        W66471  27.828  20.654   4.979
94157W        W66472  29.630   4.986   3.738
94158W        W66473  34.026  44.225   1.742
94159W        W66474  15.173   0.330   3.212
94160W        W66475  41.188  14.518   2.809
94161W        W66476  16.843  38.862   2.962
94162W        W66477  32.504  16.919  14.611
94163W        W66478  40.669  11.839  11.220
94164W        W66479  17.204  28.468   0.998
94165W        W66480  34.155  37.014  11.962
94166W        W66481  39.789  31.868   1.135
94167W        W66482  33.126  43.875  14.499
94168W        W66483  12.242   0.789   3.688
94169W        W66484  13.211  19.604  10.645
94170W        W66485  42.537  38.528   0.349
94171W        W66486  33.678   5.499   0.346
94172W        W66487  21.464  21.766  10.059
94173W        W66488  26.260  18.082   2.115
94174W        W66489  27.158  13.389  13.081
94175W        W66490  35.968   4.191   1.659
94176W        W66491  42.371  14.358   4.537
94177W        W66492   6.880  24.183  13.302
94178W        W66493  38.404   4.671  13.072
94179W        W66494  25.272  42.700   4.636
94180W        W66495  28.121  33.515   3.744
94181W        W66496  41.123  43.022  14.281
94182W        W66497  35.160  25.773   4.203
94183W        W66498  40.398  13.207   1.863
94184W        W66499  22.546  19.310   2.370
94185W        W66500  22.082  11.884  14.493
94186W        W66501  35.471   7.449   3.443
94187W        W66502  37.626  17.623  13.032
94188W        W66503  19.870  44.330   3.332
94189W        W66504  20.023   7.767   4.869
94190W        W66505  17.091  36.855  11.662
94191W        W66506  19.526   5.377   2.315
94192W        W66507  42.547   3.504  14.480
94193W        W66508   1.099  31.761   5.076
94194W        W66509  43.528   9.495   0.108
94195W        W66510  31.935  40.991   2.259
94196W        W66511  29.579  12.074  14.766
94197W        W66512  42.732  19.490   1.747
94198W        W66513   4.672  38.151  11.165
94199W        W66514  15.153  24.547  11.422
94200W        W66515  42.949  29.634   3.589
94201W        W66516   8.280   9.857   2.786
94202W        W66517  38.371  27.970  10.179
94203W        W66518  37.511  35.821  12.464
94204W        W66519  15.746   6.277  14.725
94205W        W66520  18.895  24.568  12.921
94206W        W66521  38.684  39.358  12.500
94207W        W66522  10.351   3.947  11.922
94208W        W66523  43.950  23.026  11.367
94209W        W66524   0.866   0.734  11.096
94210W        W66525  26.495   1.516  10.690
94211W        W66526  15.651   9.750  11.929
94212W        W66527  35.157  30.420   1.464
94213W        W66528  22.089  33.070   3.608
94214W        W66529  22.653  36.695  14.480
94215W        W66530  18.058  13.133   0.168
94216W        W66531  25.503  11.257   3.711
94217W        W66532   0.022  27.608  14.464
94218W        W66533  18.010  29.159  12.989
94219W        W66534  10.207  31.341  12.947
94220W        W66535   3.664  14.934  12.156
94221W        W66536  43.578  41.564  10.306
94222W        W66537  36.480   4.161  10.642
94223W        W66538   7.803  18.929  11.626
94224W        W66539  11.246  34.383   1.922
94225W        W66540  39.871   7.221  14.432
94226W        W66541  27.750  13.422  10.931
94227W        W66542  22.583  18.649  11.375
94228W        W66543  34.512   1.687  14.498
94229W        W66544   2.447  16.039  11.662
94230W        W66545  40.786   4.346   2.194
94231W        W66546   8.799  16.537  13.452
94232W        W66547  31.628  18.229   1.861
94233W        W66548  15.779   0.479  10.566
94234W        W66549  31.192  27.794  11.037
94235W        W66550  20.638  37.865  11.955
94236W        W66551  31.361   6.894  14.416
94237W        W66552  28.567  29.218   0.408
94238W        W66553   5.705  31.163  14.488
94239W        W66554  44.813  38.985  11.207
94240W        W66555  11.761  13.922   3.219
94241W        W66556  34.877   2.271  11.430
94242W        W66557  31.142  41.782   3.432
94243W        W66558  37.945  15.499   1.948
94244W        W66559  31.106   1.289  12.061
94245W        W66560  20.185   4.821   3.923
94246W        W66561  27.100  35.276  10.853
94247W        W66562   8.961  36.996   3.857
94248W        W66563  31.653  44.244  11.716
94249W        W66564  36.847  43.981  14.831
94250W        W66565   7.166  33.865  10.713
94251W        W66566  23.977  33.276  14.042
94252W        W66567  33.532   8.697   0.276
94253W        W66568  28.395  43.793  11.620
94254W        W66569  19.655  25.648  13.969
94255W        W66570  32.586   1.954  12.932
94256W        W66571   9.664  24.956  13.050
94257W        W66572  37.408  18.972  13.495
94258W        W66573   2.372  22.086  11.577
94259W        W66574  21.100   8.282  11.012
94260W        W66575  25.326  37.459   2.008
94261W        W66576  20.718   0.323   4.721
94262W        W66577  41.331  38.255   3.629
94263W        W66578   5.163  13.181  13.144
94264W        W66579  12.803  37.577  11.477
94265W        W66580   7.769  22.303   1.713
94266W        W66581  17.307  27.047   0.243
94267W        W66582  38.615  20.269   3.674
94268W        W66583  13.544  29.918   0.783
94269W        W66584  40.460  28.548   2.144
94270W        W66585  31.508  39.303   1.251
94271W        W66586  42.758  42.498  14.260
94272W        W66587  31.045  37.757   3.644
94273W        W66588   1.717  19.241  11.551
94274W        W66589  21.848  18.299   2.712
94275W        W66590  15.285  30.398   4.797
94276W        W66591  43.970  18.595  12.293
94277W        W66592  28.054  29.458   0.420
94278W        W66593  24.446  28.555   0.025
94279W        W66594  37.343  36.343   4.131
94280W        W66595   0.433  13.144   2.598
94281W        W66596  42.685  12.275  14.521
94282W        W66597  33.443  37.086  13.174
94283W        W66598  32.563  41.563   0.788
94284W        W66599  26.573   1.443   0.439
94285W        W66600  35.095   0.222   4.639
94286W        W66601   5.192   2.369   0.733
94287W        W66602  31.558  20.213   1.966
94288W        W66603   6.450  30.322  11.606
94289W        W66604   7.815  42.246  12.080
94290W        W66605  19.658   9.434   4.077
94291W        W66606  37.096   3.713  12.068
94292W        W66607   5.946  15.610  12.095
94293W        W66608  38.957  37.587  13.652
94294W        W66609   3.723   2.275  13.334
94295W        W66610  33.315  20.700   2.768
94296W        W66611  12.262  34.456   1.550
94297W        W66612  40.567  32.871  12.420
94298W        W66613  32.146   6.997   2.326
94299W        W66614   3.207   8.815   3.822
94300W        W66615  11.308  10.119   0.988
94301W        W66616  40.428  28.302   2.641
94302W        W66617  41.267  44.753   0.955
94303W        W66618   7.699  30.700  10.740
94304W        W66619   1.350  32.826  12.914
94305W        W66620  30.403   7.017   4.551
94306W        W66621   5.836   8.375  10.747
94307W        W66622   3.228  23.016   1.166
94308W        W66623   5.929  26.880   3.643
94309W        W66624  29.279  10.184   2.213
94310W        W66625  10.367  41.261   1.796
94311W        W66626  22.582  22.678  13.776
94312W        W66627   3.977  41.380   1.146
94313W        W66628   3.428  35.014   0.295
94314W        W66629  11.681  27.059   2.745
94315W        W66630  17.169  35.320  14.965
94316W        W66631  31.775   0.426  13.730
94317W        W66632  22.671  21.481   4.230
94318W        W66633  27.030   4.815   1.242
94319W        W66634  23.341  14.654  14.756
94320W        W66635  40.363  15.148  14.019
94321W        W66636  26.535  21.169  11.910
94322W        W66637  32.958  42.209   2.434
94323W        W66638  23.099   6.436  11.957
94324W        W66639  39.559   6.340   2.195
94325W        W66640  18.579  32.885   2.091
94326W        W66641  15.170  43.846  11.815
94327W        W66642  38.934   4.981   1.391
94328W        W66643  21.512  25.964   4.595
94329W        W66644   4.913  17.807   3.136
94330W        W66645  42.834  23.509  12.973
94331W        W66646  40.480   8.864   2.107
94332W        W66647  42.377  44.822   0.670
94333W        W66648  33.968  37.579   0.462
94334W        W66649  31.067   0.821  14.778
94335W        W66650  13.493   8.886   4.086
94336W        W66651  33.705  15.807   3.226
94337W        W66652  14.631  39.307  10.265
94338W        W66653  24.708  31.991   0.243
94339W        W66654  20.308   4.785  11.062
94340W        W66655  20.947  29.439   2.446
94341W        W66656   2.955  35.408   3.779
94342W        W66657   3.188  30.972   2.105
94343W        W66658  36.416  17.221  11.172
94344W        W66659  28.573  21.268   1.787
94345W        W66660  42.847  22.764  13.392
94346W        W66661  29.412  32.867  14.868
94347W        W66662   8.200  15.196   0.376
94348W        W66663  35.007  41.905   3.267
94349W        W66664   2.397   4.405  13.047
94350W        W66665   4.301   7.876   2.842
94351W        W66666   2.296  26.002  11.131
94352W        W66667  20.638  24.140  10.321
94353W        W66668  21.558  24.812  12.152
94354W        W66669   0.361  22.116  10.706
94355W        W66670  14.184  20.005   2.874
94356W        W66671  10.628  17.196  14.743
94357W        W66672  32.952  37.349  10.774
94358W        W66673   6.754  40.069  10.486
94359W        W66674  35.027   4.889   2.363
94360W        W66675  27.573  35.148  11.134
94361W        W66676   6.926  31.959   2.402
94362W        W66677  41.365  28.798   2.666
94363W        W66678  42.744   0.199  12.018
94364W        W66679  33.530  12.128   0.444
94365W        W66680  41.449  39.333   1.210
94366W        W66681   0.786  43.280   2.872
94367W        W66682   4.485  34.561   4.874
94368W        W66683   3.693  17.352   3.724
94369W        W66684  39.513   0.375   2.754
94370W        W66685  13.856  28.073   1.868
94371W        W66686   0.220   2.415   3.601
94372W        W66687  29.229  10.314   0.338
94373W        W66688  35.037  27.058  11.140
94374W        W66689  11.600  39.959  12.525
94375W        W66690  23.415  11.665   2.856
94376W        W66691  33.367  24.731   0.962
94377W        W66692  26.070  12.076   3.603
94378W        W66693   3.316  12.741  14.533
94379W        W66694   4.469   2.349   2.909
94380W        W66695  11.977  38.359  12.887
94381W        W66696   2.425   3.761   0.679
94382W        W66697  13.198  15.983   4.056
94383W        W66698  33.819  44.158  12.380
94384W        W66699  11.805  44.576   4.077
94385W        W66700   2.484  12.795  14.785
94386W        W66701  22.170  41.629  14.343
94387W        W66702   8.845  13.109  14.324
94388W        W66703  16.849  17.737  13.070
94389W        W66704  33.328  11.818  11.526
94390W        W66705  40.243  21.150   3.522
94391W        W66706  32.598  41.351  11.403
94392W        W66707  33.019  18.497  11.415
94393W        W66708  38.860  15.604  13.136
94394W        W66709   3.404  29.459  12.981
94395W        W66710  10.913  14.559  11.652
94396W        W66711  14.935  17.691  11.531
94397W        W66712  25.016   4.266   0.903
94398W        W66713   7.335   4.356   4.703
94399W        W66714  43.878  20.031  14.639
94400W        W66715  39.782   0.251  13.311
94401W        W66716  20.483  27.401   2.950
94402W        W66717  17.775   6.336   0.307
94403W        W66718   9.807  22.700  11.533
94404W        W66719  39.579  19.084   0.771
94405W        W66720  44.347   2.733   1.988
94406W        W66721  13.095  35.575   3.171
94407W        W66722   9.191   6.494  11.515
94408W        W66723  14.232   4.463  10.751
94409W        W66724  29.719  35.432  14.040
94410W        W66725  22.160  23.961   4.925
94411W        W66726  14.877   8.828   4.342
94412W        W66727  44.758  22.469  10.086
94413W        W66728   3.903  41.305  11.989
94414W        W66729  31.520  16.410  11.357
94415W        W66730   5.832  31.212   1.947
94416W        W66731   2.625  37.846  13.952
94417W        W66732  25.423  22.598  11.345
94418W        W66733  20.833   3.817  10.390
94419W        W66734  12.834   0.238  10.582
94420W        W66735  28.104  21.794   1.470
94421W        W66736  22.736  40.942  11.986
94422W        W66737  37.666  34.013  13.036
94423W        W66738  31.187  15.158   2.018
94424W        W66739   0.427   6.308   0.733
94425W        W66740  24.467  25.163   1.770
94426W        W66741  34.580  16.743  12.042
94427W        W66742   4.377  40.519   3.655
94428W        W66743  30.967  26.461  14.940
94429W        W66744  36.270   7.664   3.669
94430W        W66745  14.655  32.028   4.572
94431W        W66746   6.955  22.156   0.161
94432W        W66747  15.366   8.175  13.050
94433W        W66748   0.334  15.707  13.447
94434W        W66749  18.837  36.605  13.678
94435W        W66750  30.082  44.922   2.721
94436W        W66751   2.372  42.250   4.112
94437W        W66752  17.630  27.722   3.674
94438W        W66753   8.218  31.141   2.425
94439W        W66754  18.917  30.353  11.531
94440W        W66755  28.534   2.531   3.165
94441W        W66756  44.458  43.752  11.161
94442W        W66757   0.921  40.110   0.357
94443W        W66758  26.206  14.136   3.312
94444W        W66759   7.223  34.195  11.593
94445W        W66760  42.475  20.248  10.669
94446W        W66761  36.785   5.301  10.327
94447W        W66762  24.971  10.734  11.874
94448W        W66763   9.203  10.633  14.508
94449W        W66764  19.557  11.642   1.399
94450W        W66765  12.156  11.895   3.269
94451W        W66766   6.335  37.351  10.749
94452W        W66767  37.670  16.074  11.658
94453W        W66768  22.733   9.227   0.739
94454W        W66769   3.278  20.453   1.803
94455W        W66770   0.967  35.316  11.553
94456W        W66771  36.008   6.772   3.370
94457W        W66772  29.130  35.985   4.711
94458W        W66773  34.414  20.157  13.118
94459W        W66774  16.026  27.363  14.694
94460W        W66775  26.388   0.941  12.580
94461W        W66776  43.980  42.792  13.558
94462W        W66777  29.876  10.271   3.437
94463W        W66778  35.746   8.574   4.843
94464W        W66779  15.253  42.181   4.172
94465W        W66780  39.860  22.516   0.212
94466W        W66781  21.112   9.630  14.358
94467W        W66782  26.923  35.437   0.768
94468W        W66783  37.770  36.638   1.716
94469W        W66784  12.865  41.769   2.270
94470W        W66785   5.223  42.920  14.337
94471W        W66786   0.432  28.446  10.589
94472W        W66787   1.596  13.187   4.486
94473W        W66788   5.426  16.939  10.130
94474W        W66789  21.850  32.821  14.959
94475W        W66790   1.480  20.259  13.976
94476W        W66791  37.564  33.885   4.627
94477W        W66792  16.777  36.405   1.772
94478W        W66793  31.573  42.537   3.938
94479W        W66794  22.652  31.265  12.612
94480W        W66795  27.002   7.481  14.388
94481W        W66796  12.821   5.462   3.464
94482W        W66797  43.971   3.109   3.277
94483W        W66798  40.172  24.369   9.795
94484W        W66799   4.745  13.163  13.929
94485W        W66800  35.130   6.378  11.094
94486W        W66801   3.538   7.694   0.776
94487W        W66802  36.913  25.544   1.500
94488W        W66803  25.893  15.717  13.424
94489W        W66804  34.129  29.237   3.600
94490W        W66805  13.076  11.851   3.254
94491W        W66806  44.762  15.740  11.996
94492W        W66807  31.588  18.154   2.837
94493W        W66808   4.659   8.400   0.299
94494W        W66809  16.537  35.438   0.702
94495W        W66810  18.556  19.722   0.545
94496W        W66811   7.723   7.927  12.222
94497W        W66812  25.662  42.466  12.058
94498W        W66813   2.002  35.410   1.888
94499W        W66814  19.272  32.704   2.380
94500W        W66815  24.642  28.637  14.547
94501W        W66816  12.024   2.368  11.184
94502W        W66817  34.495  28.282  10.799
94503W        W66818  17.757   1.697   2.685
94504W        W66819  29.514   3.944   4.885
94505W        W66820  24.184   3.188   1.610
94506W        W66821  43.585  26.904  12.583
94507W        W66822  21.187  10.438  10.706
94508W        W66823  25.012  44.063   0.813
94509W        W66824   4.100  44.056   4.676
94510W        W66825  25.492   4.211  10.740
94511W        W66826  29.082  35.080   2.282
94512W        W66827  44.707  38.466  14.372
94513W        W66828  31.701   3.681  14.660
94514W        W66829  39.140  14.238   4.175
94515W        W66830  35.344   3.941   2.727
94516W        W66831  12.305  18.893  13.384
94517W        W66832  11.221  21.631  12.686
94518W        W66833  29.882  36.488   1.791
94519W        W66834  25.514  13.115  12.512
94520W        W66835  12.855  12.128  11.537
94521W        W66836  39.291  29.015   1.218
94522W        W66837  19.642  21.214   1.856
94523W        W66838   0.168  41.907  14.411
94524W        W66839  14.020  30.337  11.629
94525W        W66840  20.192  39.369  11.104
94526W        W66841  10.278  24.547  14.662
94527W        W66842  15.591  11.219  11.202
94528W        W66843  43.651   9.635   4.644
94529W        W66844  19.723  42.461   4.778
94530W        W66845  32.297  24.736  14.002
94531W        W66846  44.756   8.832  11.462
94532W        W66847  20.768  21.089  10.167
94533W        W66848  20.078  33.097   4.108
94534W        W66849  16.297  43.399   3.058
94535W        W66850   5.055  12.692   4.613
94536W        W66851  42.785  15.101   0.366
94537W        W66852   4.254  10.182   1.901
94538W        W66853  34.664  24.487  11.666
94539W        W66854  18.034  30.650   0.999
94540W        W66855  14.148  17.906   2.237
94541W        W66856  29.424  25.582   4.084
94542W        W66857   5.699  24.400  14.936
94543W        W66858  16.448  43.863  10.959
94544W        W66859  23.501   5.974   3.717
94545W        W66860  38.972  10.940   3.339
94546W        W66861  32.990  23.669   3.220
94547W        W66862   5.653  34.031  14.919
94548W        W66863  44.042   0.660  11.529
94549W        W66864  11.803   6.685  14.846
94550W        W66865  23.141  13.446   3.976
94551W        W66866  29.033   5.302  14.748
94552W        W66867  18.123   3.644  10.635
94553W        W66868   7.731   9.763   2.743
94554W        W66869  33.634  26.454   3.586
94555W        W66870  40.996   9.380  13.398
94556W        W66871  19.757  16.742  12.812
94557W        W66872  31.137  13.773   4.580
94558W        W66873  30.661  41.046   2.837
94559W        W66874  15.590  29.793   2.957
94560W        W66875   6.053  13.190   3.727
94561W        W66876  11.346  24.246  12.908
94562W        W66877   9.407  21.979  13.054
94563W        W66878  19.515   1.947  10.720
94564W        W66879  20.537  40.381   4.353
94565W        W66880   4.453  42.565   4.593
94566W        W66881  23.465  18.480   0.871
94567W        W66882   2.390   8.914  12.884
94568W        W66883  36.433   1.821   3.577
94569W        W66884  21.475  21.114   1.877
94570W        W66885  37.456  43.242   4.270
94571W        W66886  12.080   9.382   3.237
94572W        W66887  24.067  11.906   4.631
94573W        W66888  19.590  21.497  13.105
94574W        W66889  42.389   1.349  12.676
94575W        W66890  42.507  34.523  12.384
94576W        W66891  11.127   1.651   1.277
94577W        W66892   9.180  43.444  14.021
94578W        W66893  10.420  35.368  14.345
94579W        W66894  12.779   8.292  11.301
94580W        W66895  12.036  23.510  10.219
94581W        W66896   1.258  43.494   2.914
94582W        W66897   8.933   1.243  13.411
94583W        W66898  27.604  27.513  14.127
94584W        W66899  30.362   9.682   3.033
94585W        W66900  24.109  21.279   4.839
94586W        W66901  33.747  29.465  12.093
94587W        W66902  37.376  37.917  13.846
94588W        W66903  11.827  29.148  13.727
94589W        W66904   9.602  33.965   0.796
94590W        W66905  30.461  11.594  11.997
94591W        W66906  39.840  30.492   2.645
94592W        W66907  41.841  28.417   3.478
94593W        W66908   2.106  14.812  13.784
94594W        W66909  35.369  37.991  13.295
94595W        W66910  11.843  10.124   2.850
94596W        W66911  33.920  36.861  11.098
94597W        W66912   1.880  16.018   3.591
94598W        W66913  39.117  36.533  12.088
94599W        W66914  42.475  23.228   3.176
94600W        W66915  10.353  27.437   4.251
94601W        W66916  38.939   2.290  13.750
94602W        W66917  24.724  19.941   1.407
94603W        W66918   5.011  28.680  12.839
94604W        W66919   8.622  29.242  13.598
94605W        W66920  43.979  42.292  11.187
94606W        W66921  24.278  42.972   0.717
94607W        W66922  13.669   4.359   3.525
94608W        W66923  34.489  15.754   4.049
94609W        W66924  32.917   9.286   2.954
94610W        W66925  15.288   0.445  12.114
94611W        W66926  29.373  23.804  13.320
94612W        W66927   9.798  13.729  13.804
94613W        W66928   9.078   0.879  12.591
94614W        W66929  24.459  40.423  14.993
94615W        W66930  42.571   2.029   4.575
94616W        W66931  40.758  44.352   2.797
94617W        W66932  25.482   9.613   0.935
94618W        W66933  39.322  20.529   0.998
94619W        W66934   8.437  11.731  14.295
94620W        W66935  44.792   9.166  14.430
94621W        W66936  14.849  28.130  10.207
94622W        W66937  18.156  27.949  13.673
94623W        W66938  40.314  18.052  12.938
94624W        W66939  11.428  17.670   1.864
94625W        W66940  14.607   8.818  14.946
94626W        W66941  29.661  31.074  13.469
94627W        W66942  42.475   2.693   0.818
94628W        W66943  41.051  16.814   1.369
94629W        W66944  28.945  34.044   1.374
94630W        W66945  37.988  26.707  13.490
94631W        W66946   2.354  27.238   4.127
94632W        W66947  19.365   2.237  12.051
94633W        W66948   3.503   1.918   4.618
94634W        W66949  19.591  11.419  12.421
94635W        W66950  21.194   4.931  12.447
94636W        W66951   2.240  18.099   0.445
94637W        W66952  19.887  32.515  10.465
94638W        W66953  13.988   2.077   4.363
94639W        W66954  21.080  40.454   1.803
94640W        W66955  20.268  28.862   3.278
94641W        W66956  14.837  36.178  10.829
94642W        W66957  21.881  42.959  12.000
94643W        W66958  35.480  33.305  11.399
94644W        W66959  20.658  33.034   0.378
94645W        W66960   0.851  37.574   0.428
94646W        W66961   5.722  13.039   3.353
94647W        W66962  12.887   8.854  11.518
94648W        W66963  26.156  39.408   3.346
94649W        W66964  20.972  29.138   0.400
94650W        W66965  30.474  26.946   2.226
94651W        W66966  17.772   8.579   1.398
94652W        W66967  26.791   4.773   1.802
94653W        W66968  35.743  40.274   1.595
94654W        W66969  20.720  25.548   4.410
94655W        W66970   9.340  23.280  11.015
94656W        W66971   3.259  31.349   0.410
94657W        W66972  41.980  37.526  11.373
94658W        W66973  41.520  16.185  11.620
94659W        W66974  39.460  19.989  14.729
94660W        W66975   4.838   2.246   3.591
94661W        W66976  11.762  25.214  10.657
94662W        W66977  22.242  21.640  11.713
94663W        W66978  44.831  43.016  12.708
94664W        W66979   7.532  42.217  12.523
94665W        W66980  26.149  39.338  12.885
94666W        W66981  21.514  29.411   2.372
94667W        W66982  23.906   5.302   1.835
94668W        W66983  29.026  18.387  11.956
94669W        W66984   1.402   2.682  11.495
94670W        W66985  40.233  20.679  11.990
94671W        W66986  15.079  38.874   0.758
94672W        W66987  42.586  30.658  11.576
94673W        W66988  23.702   2.668  14.314
94674W        W66989  42.022   4.574   3.980
94675W        W66990   2.283  37.631   4.652
94676W        W66991  16.764  28.425  13.472
94677W        W66992  30.953   3.149  12.416
94678W        W66993   9.092  20.703  13.870
94679W        W66994   1.500   3.361  13.105
94680W        W66995  29.358  42.808   1.654
94681W        W66996  24.991   1.270  10.635
94682W        W66997  17.282  27.198   4.711
94683W        W66998   1.267  42.993  12.470
94684W        W66999  41.436  29.221  14.494
94685W        W67000  23.403  12.625   3.667
94686W        W67001  44.887   0.137   0.416
94687W        W67002  41.296   2.661  13.363
94688W        W67003  39.910  12.742   4.644
94689W        W67004  43.078  35.680  13.486
94690W        W67005   2.921  26.136   1.819
94691W        W67006   9.304  37.023  10.409
94692W        W67007   2.041  28.425  12.777
94693W        W67008  39.958  15.630   3.701
94694W        W67009   3.444   3.844   2.892
94695W        W67010  21.989  25.307   4.880
94696W        W67011   8.147   3.438   2.842
94697W        W67012  22.051   4.733  12.025
94698W        W67013  22.984  32.409   4.734
94699W        W67014   1.039  32.085  12.579
94700W        W67015  19.671  29.690   0.781
94701W        W67016  29.505  28.714  11.168
94702W        W67017   5.073  13.375   2.585
94703W        W67018  24.608   8.290   3.591
94704W        W67019   2.345  33.428   1.779
94705W        W67020  14.827  10.123  13.541
94706W        W67021  28.286  22.069   2.337
94707W        W67022  16.028  37.026  13.768
94708W        W67023  19.574  33.353  10.845
94709W        W67024  34.857   6.394  10.662
94710W        W67025   1.444  33.697  10.909
94711W        W67026  29.364  31.733   1.688
94712W        W67027   1.397  21.195   0.510
94713W        W67028  22.511  20.707  12.330
94714W        W67029  30.076  43.011  14.426
94715W        W67030  20.819  28.160   0.962
94716W        W67031  16.509  40.273  14.943
94717W        W67032  32.557  18.112   2.413
94718W        W67033   6.962  30.546   0.408
94719W        W67034  22.845  38.497  11.897
94720W        W67035  20.313  10.266  10.903
94721W        W67036  16.698  16.871   0.348
94722W        W67037   9.932   6.212   3.206
94723W        W67038   8.471  13.725  14.414
94724W        W67039  42.023  22.736  11.438
94725W        W67040  31.525  12.602   2.877
94726W        W67041  39.590  20.772   1.372
94727W        W67042  11.635  40.411  13.492
94728W        W67043  42.363  19.417  12.731
94729W        W67044  36.842  25.587  14.925
94730W        W67045   8.818   3.316  11.570
94731W        W67046   9.947  43.658  13.834
94732W        W67047  44.288  18.076   4.574
94733W        W67048   0.936  33.232  10.621
94734W        W67049  18.555  20.565  11.503
94735W        W67050  38.903  38.497   0.275
94736W        W67051   5.933  23.898   3.533
94737W        W67052  37.368  39.916  13.140
94738W        W67053   2.559  27.044   4.590
94739W        W67054  27.020  22.933  12.899
94740W        W67055  13.241  36.075  12.143
94741W        W67056  28.198  44.895  13.545
94742W        W67057  42.590  15.453  14.157
94743W        W67058  21.323  13.731  10.587
94744W        W67059  35.770   0.306   1.807
94745W        W67060   2.437  14.693   3.700
94746W        W67061  28.252  44.458   5.136
94747W        W67062  44.385  20.959   3.180
94748W        W67063  44.541  26.734  12.008
94749W        W67064   0.833  37.838  11.084
94750W        W67065  25.397  33.175   4.004
94751W        W67066   3.980  30.519   1.805
94752W        W67067  21.772  43.410  13.347
94753W        W67068  24.985   3.200  11.526
94754W        W67069  36.458   0.438   1.534
94755W        W67070  15.846  27.617  12.044
94756W        W67071   1.935  42.217  14.342
94757W        W67072  25.996  21.489  14.851
94758W        W67073  12.737  26.094  14.887
94759W        W67074  36.298  34.948  12.460
94760W        W67075  16.608  27.619  10.954
94761W        W67076  30.446  12.115  14.813
94762W        W67077  22.455  27.467   2.393
94763W        W67078  12.369  12.660  10.714
94764W        W67079  39.608   0.781  12.645
94765W        W67080  32.896  27.454   1.450
94766W        W67081  30.060  16.102   1.157
94767W        W67082  40.797  28.205   2.295
94768W        W67083  36.518  24.241   3.006
94769W        W67084  29.033  17.667   3.573
94770W        W67085  19.177   3.942   2.232
94771W        W67086  21.118  25.230   3.196
94772W        W67087  19.800   2.343   4.087
94773W        W67088   2.056  28.138  11.406
94774W        W67089  38.303  27.259  12.647
94775W        W67090  38.255  17.383   3.757
94776W        W67091  25.533  38.990   2.924
94777W        W67092   3.021   2.029  12.598
94778W        W67093   6.615  40.982   4.613
94779W        W67094   2.655  41.339   1.379
94780W        W67095  31.080  14.130  11.052
94781W        W67096  21.475  11.521  12.202
94782W        W67097  41.063  30.364  13.501
94783W        W67098  39.470   7.430   0.366
94784W        W67099  30.118  19.082  11.603
94785W        W67100  23.184  36.640  12.039
94786W        W67101  35.608  25.039   4.163
94787W        W67102  31.291  36.525   4.077
94788W        W67103  29.705  44.554   0.485
94789W        W67104  43.046   5.330  10.726
94790W        W67105  39.872   8.199  12.447
94791W        W67106  11.751  31.493   2.370
94792W        W67107  20.108  15.836   0.752
94793W        W67108   8.418  24.677   2.591
94794W        W67109   4.265  27.232   4.214
94795W        W67110  39.326  20.290   2.199
94796W        W67111  26.371  17.161   0.264
94797W        W67112  22.256  16.519  13.962
94798W        W67113  19.130  14.889   3.924
94799W        W67114  27.448  13.497  11.352
94800W        W67115  28.590  14.547  13.794
94801W        W67116  17.333  41.272   2.294
94802W        W67117  15.797   7.114   1.426
94803W        W67118  25.751  22.306  11.029
94804W        W67119  20.253  38.137   4.697
94805W        W67120  27.595  31.629  11.647
94806W        W67121  31.642  29.639  12.016
94807W        W67122  19.122   3.915   0.839
94808W        W67123  39.871  25.132   0.841
94809W        W67124  34.969   9.129  12.494
94810W        W67125  43.435  31.154  11.112
94811W        W67126  31.002  34.735   2.871
94812W        W67127  21.780  33.250   4.127
94813W        W67128  15.413  24.005  14.361
94814W        W67129  39.924  34.436  13.391
94815W        W67130  13.607  15.221   4.379
94816W        W67131  11.831  15.847   2.930
94817W        W67132   7.363   9.138   2.241
94818W        W67133  31.719  23.997  13.109
94819W        W67134   6.350  37.023  12.015
94820W        W67135  18.556  20.384   1.547
94821W        W67136  35.032  11.686  12.147
94822W        W67137  32.630  31.582  11.062
94823W        W67138   4.012  35.363  10.815
94824W        W67139  19.812  26.154   4.275
94825W        W67140  31.619  26.177  10.654
94826W        W67141  29.101  33.553   1.358
94827W        W67142  40.279  29.349  11.134
94828W        W67143  36.115   1.877  13.324
94829W        W67144   9.691  13.153   1.248
94830W        W67145   3.217  15.093  10.746
94831W        W67146  44.260  24.525   0.264
94832W        W67147   5.878  13.302  14.005
94833W        W67148   2.146  23.707  10.948
94834W        W67149  41.111  23.424   5.064
94835W        W67150   2.870  17.082  12.951
94836W        W67151  12.139   4.376   2.331
94837W        W67152  26.604  36.810   1.102
94838W        W67153   8.499  31.181   0.868
94839W        W67154  28.900  24.303   4.632
94840W        W67155   3.786  28.316  12.446
94841W        W67156  39.140  26.202  14.108
94842W        W67157   2.609   7.178   4.714
94843W        W67158  42.359  23.888  14.263
94844W        W67159  12.652  22.347   0.279
94845W        W67160   8.589  10.303  14.899
94846W        W67161  16.587  28.135  13.948
94847W        W67162  14.330  20.997  12.199
94848W        W67163   1.504  21.110  13.862
94849W        W67164   8.216  25.062  10.947
94850W        W67165  39.041   7.135   0.987
94851W        W67166  16.059   1.339   4.069
94852W        W67167  24.115  10.247   3.561
94853W        W67168   0.975  23.809   1.790
94854W        W67169  25.883  40.317  14.135
94855W        W67170   9.462  20.055  12.882
94856W        W67171  16.613  15.163  10.611
94857W        W67172  10.544   3.431  10.882
94858W        W67173  37.567  18.275   3.671
94859W        W67174  21.173  31.462   4.640
94860W        W67175  30.491  34.296   3.765
94861W        W67176  34.316  20.782   0.996
94862W        W67177  21.679  38.846   3.360
94863W        W67178   4.616  33.421  11.062
94864W        W67179   9.293  22.779   1.288
94865W        W67180  28.329  30.923   0.874
94866W        W67181  37.713  21.674   2.352
94867W        W67182  43.288  23.622   2.338
94868W        W67183   2.130   5.765   3.145
94869W        W67184  17.538  43.405  11.134
94870W        W67185   7.907  20.527  14.478
94871W        W67186  28.697  25.200  14.457
94872W        W67187  41.403  43.622   1.950
94873W        W67188  27.782  31.303  13.827
94874W        W67189   1.742   7.894  11.525
94875W        W67190  38.564   3.093   2.268
94876W        W67191   1.059  17.100   0.403
94877W        W67192   8.642  34.670  12.612
94878W        W67193  40.385  33.591  10.680
94879W        W67194   9.177  38.080   2.247
94880W        W67195  27.461  28.682   1.307
94881W        W67196  27.470   2.367  13.018
94882W        W67197  35.818  28.277  11.325
94883W        W67198  24.336  33.115  14.387
94884W        W67199  43.765  40.237  13.448
94885W        W67200   0.500   9.584   4.656
94886W        W67201   7.696   9.863  13.197
94887W        W67202   2.706  35.494  14.312
94888W        W67203   0.006   3.382   4.146
94889W        W67204  35.452  17.894   4.236
94890W        W67205   3.263   7.722   2.732
94891W        W67206   7.654  42.615   1.602
94892W        W67207  11.076  21.418  11.982
94893W        W67208  24.198  20.748  10.665
94894W        W67209  28.516   4.955  10.718
94895W        W67210  43.821  34.162   2.340
94896W        W67211  35.874   4.990   3.296
94897W        W67212   1.047   5.533  10.649
94898W        W67213  35.097  23.170  12.384
94899W        W67214  41.504  25.454  11.447
94900W        W67215  20.285  34.014   3.689
94901W        W67216  14.146  12.218   0.684
94902W        W67217  35.019  12.560   1.962
94903W        W67218  43.495   2.456   4.169
94904W        W67219  13.928  41.616   4.026
94905W        W67220   1.776  27.986  10.429
94906W        W67221  40.914  21.245   4.553
94907W        W67222  40.162  17.814   0.794
94908W        W67223  23.144   9.420   1.123
94909W        W67224  18.620  11.001  12.678
94910W        W67225  37.469  32.365  14.342
94911W        W67226  40.062  26.218   0.515
94912W        W67227   1.687  12.541   9.526
94913W        W67228  19.559  14.174   1.713
94914W        W67229  21.597   7.714  11.586
94915W        W67230   5.086  36.908   4.498
94916W        W67231  40.425  25.342   3.327
94917W        W67232  41.560  16.668   3.108
94918W        W67233  20.498  10.271  14.384
94919W        W67234  33.923  39.111  12.642
94920W        W67235  33.418  43.883  13.409
94921W        W67236  27.645  22.724  11.254
94922W        W67237  26.086  17.104   3.325
94923W        W67238  17.339  32.921  12.858
94924W        W67239  25.720   8.439  12.023
94925W        W67240  28.667  15.066   0.672
94926W        W67241  10.805  39.316  14.413
94927W        W67242  33.340  24.171   1.727
94928W        W67243  25.726  16.634  12.547
94929W        W67244  13.867  19.649  14.778
94930W        W67245   5.266  19.461  14.204
94931W        W67246  10.693  18.107  12.094
94932W        W67247  12.142  17.023  11.785
94933W        W67248  31.089  18.109   2.588
94934W        W67249   0.324  33.573   0.461
94935W        W67250  33.359  22.029  14.907
94936W        W67251   5.974  44.967   2.073
94937W        W67252   8.730  20.867  12.066
94938W        W67253   9.825   5.158   1.070
94939W        W67254  34.370  15.547   2.687
94940W        W67255  24.151  43.697   4.669
94941W        W67256  18.674  29.435  13.341
94942W        W67257  36.418  31.327  10.979
94943W        W67258  41.832  10.371   4.662
94944W        W67259   5.809   0.937   0.682
94945W        W67260  41.467  16.567  11.974
94946W        W67261  11.521  23.404  13.070
94947W        W67262  29.553  33.384  14.790
94948W        W67263   4.493  24.542   3.712
94949W        W67264  30.972  21.228   1.198
94950W        W67265  33.227  18.620   4.549
94951W        W67266  29.664  36.927  12.839
94952W        W67267  31.593  24.932  14.964
94953W        W67268  12.303  10.608  12.691
94954W        W67269  25.528   4.113   3.739
94955W        W67270  10.607  33.817   1.660
94956W        W67271  22.052  33.616   2.436
94957W        W67272  17.061  44.750  14.563
94958W        W67273  14.060  12.719   4.750
94959W        W67274  24.986   9.315  11.058
94960W        W67275  43.500  21.535  12.008
94961W        W67276  35.715  13.132  14.779
94962W        W67277   6.705   1.250  14.957
94963W        W67278   6.412  12.783  13.922
94964W        W67279  13.617  30.710  11.623
94965W        W67280  12.121  36.290  11.212
94966W        W67281  38.738  41.405  13.481
94967W        W67282  31.542  44.847  13.076
94968W        W67283  33.680  11.945   3.206
94969W        W67284  39.075  41.572  12.081
94970W        W67285   8.700  23.740  12.062
94971W        W67286   8.180  40.794  12.286
94972W        W67287   6.903  28.442   2.261
94973W        W67288   7.711   5.978   3.260
94974W        W67289  15.776   7.324  13.138
94975W        W67290  18.884   6.426  14.273
94976W        W67291   7.322  12.506   2.810
94977W        W67292  23.758   3.954   2.018
94978W        W67293  41.789  21.282  11.546
94979W        W67294   2.784   4.831   4.461
94980W        W67295  34.380  11.959  14.340
94981W        W67296  10.670  25.836   4.515
94982W        W67297  26.191  43.323   1.654
94983W        W67298   3.760  26.560  12.900
94984W        W67299  13.819  31.855  14.944
94985W        W67300   4.467  18.933   4.141
94986W        W67301  25.718   6.174  10.147
94987W        W67302   1.349   2.464   4.855
94988W        W67303   6.626  37.003   1.424
94989W        W67304  35.062  13.156  12.324
94990W        W67305  26.203  43.926  13.676
94991W        W67306   6.916  12.074  10.752
94992W        W67307  38.707  23.914  12.036
94993W        W67308   1.963  35.745   1.395
94994W        W67309   5.016  28.712   1.628
94995W        W67310  41.734   7.637  12.465
94996W        W67311  37.867  33.517  11.684
94997W        W67312   9.623  41.777   0.385
94998W        W67313  18.400  23.757   0.425
94999W        W67314  39.292  18.264  10.254
95000W        W67315  20.705  25.286  11.086
95001W        W67316   6.821  37.381   2.200
95002W        W67317  10.765  43.039   3.126
95003W        W67318  13.331  30.834  13.036
95004W        W67319  11.135  43.941  14.475
95005W        W67320  41.849  42.332   3.976
95006W        W67321   1.997  40.642  14.869
95007W        W67322  24.110  25.492  11.379
95008W        W67323  33.372  15.379  10.760
95009W        W67324  23.530  18.358  11.433
95010W        W67325  20.148  11.861  14.289
95011W        W67326  37.950  22.994  14.886
95012W        W67327  41.503   3.737  11.553
95013W        W67328   9.330  33.525   1.920
95014W        W67329  21.247  22.164   0.770
95015W        W67330  17.262  27.150  12.458
95016W        W67331  21.987  18.638   0.293
95017W        W67332  16.712  42.485   3.329
95018W        W67333  41.323   2.784   3.105
95019W        W67334  37.128  24.764  13.206
95020W        W67335  17.221   3.885  14.908
95021W        W67336   0.223  42.975  11.830
95022W        W67337  40.361  33.065  12.909
95023W        W67338  29.982   8.762   1.675
95024W        W67339  12.376  16.289  12.174
95025W        W67340  25.477   5.454   3.298
95026W        W67341  14.935  33.920   4.180
95027W        W67342  32.011  35.836  14.818
95028W        W67343  19.685  32.137  10.741
95029W        W67344  12.701  28.641   4.200
95030W        W67345  19.476   8.271  14.893
95031W        W67346  21.877  26.262  13.476
95032W        W67347  39.000  15.654   3.754
95033W        W67348  44.418  21.233  14.818
95034W        W67349  35.412  33.452   0.831
95035W        W67350  39.526  44.705  10.648
95036W        W67351  23.512   4.736   1.281
95037W        W67352   4.844  12.904   4.166
95038W        W67353  21.022   0.814  13.913
95039W        W67354   0.604   4.038   5.058
95040W        W67355  42.947  15.050  11.957
95041W        W67356  14.672  34.526   1.431
95042W        W67357  10.830  15.025   1.497
95043W        W67358  40.012  15.536   1.210
95044W        W67359  22.645   2.409   4.513
95045W        W67360  14.624   3.424  11.690
95046W        W67361  40.794  19.773   2.314
95047W        W67362  17.738  42.935  11.200
95048W        W67363   3.101  13.602   2.095
95049W        W67364  34.323  14.048   3.147
95050W        W67365  26.252  43.710  12.627
95051W        W67366  35.073  18.105  13.673
95052W        W67367  31.607  44.735  12.589
95053W        W67368  31.124  29.225   1.282
95054W        W67369   1.906  19.652   2.592
95055W        W67370  22.191  33.199   2.161
95056W        W67371  44.222  29.181   2.793
95057W        W67372   8.161  23.587  14.695
95058W        W67373  44.194  27.264  11.046
95059W        W67374  28.588  23.534   1.247
95060W        W67375  44.947  26.112   1.441
95061W        W67376  42.081  14.801  11.279
95062W        W67377  18.679  42.730   4.992
95063W        W67378   7.998  19.579   0.738
95064W        W67379  19.947   0.529  11.963
95065W        W67380  26.174  43.527  10.696
95066W        W67381  19.756  25.675  13.413
95067W        W67382  37.887   5.764   0.744
95068W        W67383  26.869  11.833   4.503
95069W        W67384  21.243  40.937   1.880
95070W        W67385  13.888   9.915  12.026
95071W        W67386  42.294  19.566   2.799
95072W        W67387  10.760  39.443  11.242
95073W        W67388  12.769  41.007   4.849
95074W        W67389   9.807  40.310  12.156
95075W        W67390  18.882   7.916  10.201
95076W        W67391  41.354  20.486   4.635
95077W        W67392  18.665  24.624  13.906
95078W        W67393  34.413  16.939   2.036
95079W        W67394  10.654  41.500   0.315
95080W        W67395  23.262  37.414  12.347
95081W        W67396  37.531   1.288   1.915
95082W        W67397  23.767  33.608  11.973
95083W        W67398  40.042   4.521  12.474
95084W        W67399   4.422  36.530   1.717
95085W        W67400   5.858  29.620   2.421
95086W        W67401  43.385  17.314   2.575
95087W        W67402   3.378  28.431   2.805
95088W        W67403   0.294  34.507   3.338
95089W        W67404  42.559   2.865   2.588
95090W        W67405   0.199  33.584  11.524
95091W        W67406  43.298  42.844  14.303
95092W        W67407   7.166   5.412  14.365
95093W        W67408  16.729  41.065  10.355
95094W        W67409  23.241  36.632  11.139
95095W        W67410  41.454  44.416  11.925
95096W        W67411   9.275  16.701   5.392
95097W        W67412  24.557   7.641  11.582
95098W        W67413   0.467  21.688  11.599
95099W        W67414  24.680  41.543   1.796
95100W        W67415   6.718  21.749  11.192
95101W        W67416  27.662  28.838   4.087
95102W        W67417   9.341  26.195  12.403
95103W        W67418  34.457  22.083   3.429
95104W        W67419  38.909  16.765  14.270
95105W        W67420  14.922  24.080   1.778
95106W        W67421  12.073  32.010   2.519
95107W        W67422  25.110  29.972   1.355
95108W        W67423  38.023   7.911  13.730
95109W        W67424  24.695  17.642  11.633
95110W        W67425  42.131  37.024  12.695
95111W        W67426   9.937  21.201  13.612
95112W        W67427  18.485   3.244  10.661
95113W        W67428  26.934  26.344   1.585
95114W        W67429  24.424   8.935   2.953
95115W        W67430  40.020  34.074  14.148
95116W        W67431  18.475   1.748   4.653
95117W        W67432   9.892  33.604  14.838
95118W        W67433   4.390  29.662   4.359
95119W        W67434  23.164  30.036  11.970
95120W        W67435  26.024  13.206   1.424
95121W        W67436  32.719  29.604   1.207
95122W        W67437  43.500   3.461  14.483
95123W        W67438  24.603  14.048  12.936
95124W        W67439  25.694   7.257  14.770
95125W        W67440  32.385  15.053  13.400
95126W        W67441  10.669   3.104  12.563
95127W        W67442  20.245   9.965  14.836
95128W        W67443  26.537   0.428  12.766
95129W        W67444  11.922  17.570   2.005
95130W        W67445  36.622  35.992  10.318
95131W        W67446  44.470  44.306   0.370
95132W        W67447  20.249  44.462   2.608
95133W        W67448  44.575  11.832   2.257
95134W        W67449  35.780  17.730  11.532
95135W        W67450  38.171  26.616  11.561
95136W        W67451  25.775  43.790  12.898
95137W        W67452  15.888  39.038  10.849
95138W        W67453  42.974   0.016  11.006
95139W        W67454  31.000  29.442   1.790
95140W        W67455  10.022  26.527   1.312
95141W        W67456  29.811  32.935  12.356
95142W        W67457  38.122  13.090  11.970
95143W        W67458  43.348  21.569  14.675
95144W        W67459  23.626  31.851  11.735
95145W        W67460   2.043  18.262  11.526
95146W        W67461   9.576  35.636  11.174
95147W        W67462  20.316  10.866   4.672
95148W        W67463  27.986  14.248  14.953
95149W        W67464  14.692  39.380  14.992
95150W        W67465   8.220   3.011  10.426
95151W        W67466  31.930  28.364  14.890
95152W        W67467  25.509  43.518   3.534
95153W        W67468  24.744  38.640  10.720
95154W        W67469  26.656   3.698  11.172
95155W        W67470  14.828   3.896   2.461
95156W        W67471  35.985  15.645   3.822
95157W        W67472  44.472  11.999   4.334
95158W        W67473   0.381  18.729   1.257
95159W        W67474  34.797  10.760   0.920
95160W        W67475  38.841  21.639  13.819
95161W        W67476  44.874  21.990   0.155
95162W        W67477  43.955  39.412   3.183
95163W        W67478   7.895   9.694  14.088
95164W        W67479  22.125  27.573   4.511
95165W        W67480  24.941   5.739  14.394
95166W        W67481  24.540  37.538  10.563
95167W        W67482  30.893  23.689   5.090
95168W        W67483  13.773  30.425  12.075
95169W        W67484  13.867  24.792  11.502
95170W        W67485   5.600   0.826   1.454
95171W        W67486  30.414  15.025  11.620
95172W        W67487  19.172  11.070  14.801
95173W        W67488  16.760   5.126   0.859
95174W        W67489  30.442  29.895  13.136
95175W        W67490   8.303  41.382   0.214
95176W        W67491   0.835   0.594   2.487
95177W        W67492  40.820   3.876  14.254
95178W        W67493  19.021  23.111   2.257
95179W        W67494  17.601  41.530  11.166
95180W        W67495   7.236  31.837   3.422
95181W        W67496  12.342  13.172   1.628
95182W        W67497  21.561  26.445   4.422
95183W        W67498  26.134  37.990   1.189
95184W        W67499   5.500  12.418  14.874
95185W        W67500  21.025  21.089  10.630
95186W        W67501  30.942   2.786  13.290
95187W        W67502  20.899  23.821  14.353
95188W        W67503  29.707  18.553   0.513
95189W        W67504  25.716  11.394  11.119
95190W        W67505  34.387  26.566  10.413
95191W        W67506   1.321   6.814   1.642
95192W        W67507   2.989  40.385  14.201
95193W        W67508  26.072  23.149  13.140
95194W        W67509   4.863   4.193  14.836
95195W        W67510  42.449  34.964   3.624
95196W        W67511  34.399  16.154   1.387
95197W        W67512   8.305  43.050  12.918
95198W        W67513  34.021  31.980   9.920
95199W        W67514  11.627  23.721   0.399
95200W        W67515   2.755  27.173  13.972
95201W        W67516  18.602   5.277  12.836
95202W        W67517  24.147  22.378  12.406
95203W        W67518  18.850  34.574  11.594
95204W        W67519  40.628  20.633  10.690
95205W        W67520  24.797  16.576  14.309
95206W        W67521  39.471  26.092   4.063
95207W        W67522   2.330  17.660  12.556
95208W        W67523   7.105  39.267  13.560
95209W        W67524  44.827  19.447   1.533
95210W        W67525  43.911  17.892  13.494
95211W        W67526   5.325  22.980  12.530
95212W        W67527   2.305  24.963  14.907
95213W        W67528  16.361  34.072   0.949
95214W        W67529  15.199  37.086   0.639
95215W        W67530  12.573  20.764   4.095
95216W        W67531  15.114  34.152   4.814
95217W        W67532   7.934  20.946   1.743
95218W        W67533  37.066  33.487   1.396
95219W        W67534  18.080  10.263   3.537
95220W        W67535  26.974  10.736  11.339
95221W        W67536  35.377  32.916  12.349
95222W        W67537  33.858  13.678  12.042
95223W        W67538  41.135  16.317   3.062
95224W        W67539  28.718  25.221  12.927
95225W        W67540  36.757  44.909  14.820
95226W        W67541  32.105  21.633  12.522
95227W        W67542  26.478  23.151   4.537
95228W        W67543  19.004  22.992   0.945
95229W        W67544   0.348  24.986  10.719
95230W        W67545  30.442  11.602  14.827
95231W        W67546  13.796  14.658  14.363
95232W        W67547  44.972  17.121  13.299
95233W        W67548  11.104  18.454  10.690
95234W        W67549  10.971  12.252  14.184
95235W        W67550  19.100  28.775  14.383
95236W        W67551  11.707  41.013  10.983
95237W        W67552   7.818   2.409  11.701
95238W        W67553  10.777   8.122  11.612
95239W        W67554   1.423   1.535   4.609
95240W        W67555  21.236  19.384  10.730
95241W        W67556  19.486  26.572   3.618
95242W        W67557  28.921  42.251   2.876
95243W        W67558  21.434   1.241   3.833
95244W        W67559   1.822  27.610  13.973
95245W        W67560  43.927  22.034  13.029
95246W        W67561  25.440  20.009   4.163
95247W        W67562   0.229   9.585   9.839
95248W        W67563   8.948  29.970  12.571
95249W        W67564   7.359  24.132   2.238
95250W        W67565  13.642  33.300   2.119
95251W        W67566  13.019  30.342  14.380
95252W        W67567  11.200   5.554   3.337
95253W        W67568  44.283   6.105  14.867
95254W        W67569  36.552  35.340   1.292
95255W        W67570  29.882  19.087   3.850
95256W        W67571  30.720   1.260   3.695
95257W        W67572  42.783  41.020   1.189
95258W        W67573  22.633  37.102   2.361
95259W        W67574  34.311  38.634   0.225
95260W        W67575  37.774   3.734   3.747
95261W        W67576   1.579   8.948  14.779
95262W        W67577  40.910   7.385   0.162
95263W        W67578  19.866  40.541  10.725
95264W        W67579   8.172  41.393   1.491
95265W        W67580  22.758  30.888  12.964
95266W        W67581  42.064   3.387  13.400
95267W        W67582  20.165  11.901   3.151
95268W        W67583  18.111   3.462  11.107
95269W        W67584  41.441  40.021   4.012
95270W        W67585  39.912  42.216   3.264
95271W        W67586   8.563  20.009   0.089
95272W        W67587  39.779  30.502  12.508
95273W        W67588  30.691  10.668  10.745
95274W        W67589  11.884  21.641   1.273
95275W        W67590  37.875  42.787  10.351
95276W        W67591  19.524  16.400  14.177
95277W        W67592   9.025   2.311   5.019
95278W        W67593  34.246  13.730   2.728
95279W        W67594  24.492  41.743   2.397
95280W        W67595  19.141   3.540   1.229
95281W        W67596   2.415  10.057  11.639
95282W        W67597  42.420  40.458   3.637
95283W        W67598  41.815  15.746  13.046
95284W        W67599  43.772   7.629   4.531
95285W        W67600  42.333  38.424  14.332
95286W        W67601   0.766  12.922  13.195
95287W        W67602  27.694   2.365   4.218
95288W        W67603  35.181  44.776  11.941
95289W        W67604  19.671  35.940  10.494
95290W        W67605  34.200  26.024   4.262
95291W        W67606  28.208  41.922  12.906
95292W        W67607  34.615  21.106   1.272
95293W        W67608  17.128  28.081   9.749
95294W        W67609  19.216  34.395  13.910
95295W        W67610   7.698  25.707   3.897
95296W        W67611  44.327  25.759  11.063
95297W        W67612  23.025  42.812   4.535
95298W        W67613  37.010  26.886  14.348
95299W        W67614  20.294  22.734  10.668
95300W        W67615  41.895  36.944  12.220
95301W        W67616  36.330   1.927   3.084
95302W        W67617  12.612  19.535  11.138
95303W        W67618   7.096  40.993  13.932
95304W        W67619  20.986  43.503  12.103
95305W        W67620   0.158   4.010   0.741
95306W        W67621   3.766  32.238  11.871
95307W        W67622  36.851   7.751  13.334
95308W        W67623   3.459  21.011   0.438
95309W        W67624  28.583  15.309   2.178
95310W        W67625   5.444   0.471   1.878
95311W        W67626  20.734   3.795  10.929
95312W        W67627  34.460  14.635   4.582
95313W        W67628  29.225  16.713   5.024
95314W        W67629   2.408  24.546   4.294
95315W        W67630  33.164   9.744   2.308
95316W        W67631  21.212  18.608   1.613
95317W        W67632  41.909   8.118   3.617
95318W        W67633  23.878   8.867  10.755
95319W        W67634   2.908  31.346   0.787
95320W        W67635  34.218   4.332  12.391
95321W        W67636  13.899  26.533   4.511
95322W        W67637   6.352  23.821   2.781
95323W        W67638  22.103  38.308   4.513
95324W        W67639  38.133   6.797   0.931
95325W        W67640  28.807  32.848  12.596
95326W        W67641  41.434  17.115   2.234
95327W        W67642  26.159  44.745   4.590
95328W        W67643  10.755  41.334   4.503
95329W        W67644   1.901  40.219  12.055
95330W        W67645  27.159  21.416  13.943
95331W        W67646   5.459  32.960   4.101
95332W        W67647  41.726  37.776  14.203
95333W        W67648  21.087  13.266  11.182
95334W        W67649   6.334   1.416   1.325
95335W        W67650  27.534  34.781  14.880
95336W        W67651  34.931  35.626   3.777
95337W        W67652  13.181  33.883  13.233
95338W        W67653   7.775  38.458  14.460
95339W        W67654  22.499   0.450  10.322
95340W        W67655  22.785  18.377  10.124
95341W        W67656   9.785  39.317  13.806
95342W        W67657  33.231  27.383  14.285
95343W        W67658  39.913  44.541  12.290
95344W        W67659  12.940  13.648  11.476
95345W        W67660   4.472  27.362  11.006
95346W        W67661  26.111   5.885  14.905
95347W        W67662   8.277   9.135   4.940
95348W        W67663   6.444  20.541  11.972
95349W        W67664   8.222  30.552   0.120
95350W        W67665  26.117  42.946  13.619
95351W        W67666  30.491   7.206   4.092
95352W        W67667  39.767  11.758  14.638
95353W        W67668  30.559  16.691   0.027
95354W        W67669  27.206  19.328  12.055
95355W        W67670   1.813   0.729   3.451
95356W        W67671  25.718  44.386   3.628
95357W        W67672  15.753  19.789   1.882
95358W        W67673  12.637   3.892  12.916
95359W        W67674  44.233  22.754   3.792
95360W        W67675   5.973  38.428  14.883
95361W        W67676   4.285  37.129  11.047
95362W        W67677  22.479   0.290  11.173
95363W        W67678   6.785  28.475   4.741
95364W        W67679  24.544  26.128   1.743
95365W        W67680  35.571  32.528  14.875
95366W        W67681  35.646   2.351   2.809
95367W        W67682  35.389  27.510  10.536
95368W        W67683  24.589  35.423   0.720
95369W        W67684   6.994  39.719   2.564
95370W        W67685   3.459   1.960   2.639
95371W        W67686  32.111  38.689  10.196
95372W        W67687  41.831  42.005  12.591
95373W        W67688  32.985  25.436   1.488
95374W        W67689  28.034  23.988   3.347
95375W        W67690   6.452  28.933  14.976
95376W        W67691   1.743  37.657  13.808
95377W        W67692  39.422  32.571  11.022
95378W        W67693  27.181   5.317   1.488
95379W        W67694   4.321  17.291  13.907
95380W        W67695  23.756   2.153  14.308
95381W        W67696  15.198  18.542  12.506
95382W        W67697  27.558   2.963   1.302
95383W        W67698  21.117   5.254  12.045
95384W        W67699  28.022  40.783  10.639
95385W        W67700  34.321  14.142   1.796
95386W        W67701  28.935  28.155  10.705
95387W        W67702  25.247  34.805  11.218
95388W        W67703   9.310  25.263  12.502
95389W        W67704  37.573  39.103  11.203
95390W        W67705   9.716  22.510   1.256
95391W        W67706  14.021  11.599  10.784
95392W        W67707  13.710  11.693  12.853
95393W        W67708  26.239  15.063   3.218
95394W        W67709  15.713   3.706  11.951
95395W        W67710  44.247  44.245   4.531
95396W        W67711  16.556   6.070  13.824
95397W        W67712  32.808  19.127   0.766
95398W        W67713  21.126   1.826  11.633
95399W        W67714  43.375  25.003   0.920
95400W        W67715  25.633  13.408  11.179
95401W        W67716  21.949  40.520   1.575
95402W        W67717  22.229  11.948   4.223
95403W        W67718   7.156  13.160  14.445
95404W        W67719  12.325   9.155   4.459
95405W        W67720  15.763  33.613  12.464
95406W        W67721  42.390  22.950   3.986
95407W        W67722  26.433   5.111   1.659
95408W        W67723  14.526  26.629  14.848
95409W        W67724   7.172  30.604   4.148
95410W        W67725  11.712  31.185   3.766
95411W        W67726  13.294  19.586   3.687
95412W        W67727   4.800  28.652  14.009
95413W        W67728  41.494   9.701  14.113
95414W        W67729  24.518  43.313  12.907
95415W        W67730  24.203  24.538  11.072
95416W        W67731  22.540  39.161   3.619
95417W        W67732  32.454  42.294   1.365
95418W        W67733   9.689  10.625   3.583
95419W        W67734   5.797  33.205   1.831
95420W        W67735   1.059  32.391  11.935
95421W        W67736  44.868  31.042   0.291
95422W        W67737   4.850  35.389   3.460
95423W        W67738   4.003  11.789   2.160
95424W        W67739  41.390  10.429   2.927
95425W        W67740   5.212  29.000  14.320
95426W        W67741  30.043   2.780   0.244
95427W        W67742  28.443  32.847   1.846
95428W        W67743  42.856  40.426   3.319
95429W        W67744   0.691  34.099   4.092
95430W        W67745   3.503   0.920  13.947
95431W        W67746  40.742  33.429   0.855
95432W        W67747  43.796  39.887  11.540
95433W        W67748   0.676  21.032   2.606
95434W        W67749  20.011  14.892  13.454
95435W        W67750  13.591  41.253   1.914
95436W        W67751  29.190  27.427   2.387
95437W        W67752   7.651  18.209  11.981
95438W        W67753  33.184  40.343   0.807
95439W        W67754   3.652  31.459  13.289
95440W        W67755  11.630   6.270   2.328
95441W        W67756  43.291  39.815  10.738
95442W        W67757  30.849  36.508   1.751
95443W        W67758   7.914  40.381   4.555
95444W        W67759  39.016  10.669   3.772
95445W        W67760  32.877  14.259   0.778
95446W        W67761  30.614   2.535   1.780
95447W        W67762  37.483  37.464  12.062
95448W        W67763  33.317   7.719   4.521
95449W        W67764  40.905   1.331   0.878
95450W        W67765  19.543  44.341  12.391
95451W        W67766  22.611  35.341  13.966
95452W        W67767  31.120  30.517  11.252
95453W        W67768   7.353  10.746   2.725
95454W        W67769  12.329  26.881  13.980
95455W        W67770  23.941  13.245  12.807
95456W        W67771   5.842   5.906   3.794
95457W        W67772  41.001  19.658  12.470
95458W        W67773  27.383  37.071   0.162
95459W        W67774   8.646  42.056  11.136
95460W        W67775  28.567  12.660  13.890
95461W        W67776  21.381  12.778   2.798
95462W        W67777  31.858  31.663   0.361
95463W        W67778  22.104   6.111   3.235
95464W        W67779  27.453  15.130   2.728
95465W        W67780   8.776  12.765   1.687
95466W        W67781  25.354  39.704   1.370
95467W        W67782  28.098   1.697   0.937
95468W        W67783   6.201   3.866  13.151
95469W        W67784  33.935  23.030   0.587
95470W        W67785  24.051   3.450  13.486
95471W        W67786   7.883  30.382  11.555
95472W        W67787  28.467  17.150  14.599
95473W        W67788  21.872  14.723  12.188
95474W        W67789  23.802  32.654  11.223
95475W        W67790  31.888  35.931  11.941
95476W        W67791  36.120  15.006  12.530
95477W        W67792   6.226  35.025  12.056
95478W        W67793  38.212  17.966   4.417
95479W        W67794  16.248  34.388  12.987
95480W        W67795   9.715  42.816   0.235
95481W        W67796  33.578  22.030   1.841
95482W        W67797  10.917   7.215  13.985
95483W        W67798  40.124  12.618  12.570
95484W        W67799  19.805  41.375   3.643
95485W        W67800  28.769   1.648   2.622
95486W        W67801  36.629  12.250   4.458
95487W        W67802  15.395  33.466  12.794
95488W        W67803   6.205  30.140   4.289
95489W        W67804  41.808  42.979  10.837
95490W        W67805  24.205  43.510   1.373
95491W        W67806  13.617  37.983   0.985
95492W        W67807   6.134  29.094   0.364
95493W        W67808  14.443  28.619   3.827
95494W        W67809  17.247  18.101   1.571
95495W        W67810  18.642  10.832   3.233
95496W        W67811   1.718  29.041   0.439
95497W        W67812  20.332  35.109   3.054
95498W        W67813  34.432  14.274  10.769
95499W        W67814  31.906  33.470  10.436
95500W        W67815  32.074   9.271  12.815
95501W        W67816  41.379  17.695   1.974
95502W        W67817  19.160  36.592  13.239
95503W        W67818  18.301  41.834  13.891
95504W        W67819  22.911  11.713   1.461
95505W        W67820  16.838  20.611  12.472
95506W        W67821  42.503  16.703   4.174
95507W        W67822  23.546  30.590  13.947
95508W        W67823  36.559  27.032  10.345
95509W        W67824  19.260  13.914   0.459
95510W        W67825  32.483  13.827  12.391
95511W        W67826  18.685   2.353   0.700
95512W        W67827  24.966   9.476   0.812
95513W        W67828   1.206  43.043   1.984
95514W        W67829  27.939   4.315  14.084
95515W        W67830  33.951  42.434   1.493
95516W        W67831   0.218  30.105   0.293
95517W        W67832  19.296  11.919  13.986
95518W        W67833  32.966  21.261  11.117
95519W        W67834  44.456  12.394  13.626
95520W        W67835  24.191  39.034  12.881
95521W        W67836  38.876  38.809  14.867
95522W        W67837  17.261  18.583   4.238
95523W        W67838  29.827   4.506   4.243
95524W        W67839  36.071  39.931   1.849
95525W        W67840  19.457   9.915  13.025
95526W        W67841  38.943  38.857   2.478
95527W        W67842  27.660  38.335   1.314
95528W        W67843  16.197  24.969  12.916
95529W        W67844   4.902  22.146  10.831
95530W        W67845  44.382   9.784   0.846
95531W        W67846   5.184  36.307   2.928
95532W        W67847  38.666   1.759   4.956
95533W        W67848   6.814  42.618  10.880
95534W        W67849  35.770  11.300  12.066
95535W        W67850  21.283  19.148   2.943
95536W        W67851  35.945   0.826   3.708
95537W        W67852  22.528  39.252   2.592
95538W        W67853  21.209  39.297   4.864
95539W        W67854  19.612   4.750   0.616
95540W        W67855  38.226  37.450   4.331
95541W        W67856  39.412  42.708   2.759
95542W        W67857   0.558   8.838   5.087
95543W        W67858   5.983  43.064   2.140
95544W        W67859  17.291  42.720  12.375
95545W        W67860  24.481  22.894   0.348
95546W        W67861   6.733  41.756   4.089
95547W        W67862   0.102  34.891  14.629
95548W        W67863  32.461   3.646   2.934
95549W        W67864   4.581  39.711   1.833
95550W        W67865  35.245  28.331  14.995
95551W        W67866  29.994  36.805  12.479
95552W        W67867  24.456  22.496  13.569
95553W        W67868  18.857  38.976  11.016
95554W        W67869   4.782  39.534  10.863
95555W        W67870  44.198  39.282   2.574
95556W        W67871  28.869  17.063  14.032
95557W        W67872  13.867  22.487  14.604
95558W        W67873  38.884  12.541  13.964
95559W        W67874  24.078  35.810  11.312
95560W        W67875  30.877  34.875  11.620
95561W        W67876   7.589  19.586  12.979
95562W        W67877  32.565  39.099  12.168
95563W        W67878   5.985  26.521  13.415
95564W        W67879   2.480  13.489   4.086
95565W        W67880  23.202  41.247   3.610
95566W        W67881  29.086  28.223  12.327
95567W        W67882  30.191  22.620  13.826
95568W        W67883   4.113  24.785  13.959
95569W        W67884  25.098  44.539   0.993
95570W        W67885   0.170  24.333   1.370
95571W        W67886   9.953   1.906   3.351
95572W        W67887  31.690  25.539  13.693
95573W        W67888  38.809   1.533  12.859
95574W        W67889   8.632  38.909  13.518
95575W        W67890   3.287  32.629  12.551
95576W        W67891  14.924   5.409   4.855
95577W        W67892  17.104  42.761   5.052
95578W        W67893  41.833  29.918  12.465
95579W        W67894  38.860  32.448   1.952
95580W        W67895  31.931  25.736  12.510
95581W        W67896   0.793   4.517   4.966
95582W        W67897   1.452   9.233   3.715
95583W        W67898  40.261  44.773  14.252
95584W        W67899  12.727   4.413  11.067
95585W        W67900  11.901  13.000  12.356
95586W        W67901  26.004  42.119  13.843
95587W        W67902  37.500  41.970  14.335
95588W        W67903  37.858  27.872  12.806
95589W        W67904  11.923  33.820  11.100
95590W        W67905  26.674   7.159   2.217
95591W        W67906  13.079  40.509   0.028
95592W        W67907  30.862  10.832  11.620
95593W        W67908  25.095   5.787  11.118
95594W        W67909  27.490  34.685   5.277
95595W        W67910  32.917   8.917   1.834
95596W        W67911  11.898  15.282  14.571
95597W        W67912  22.617   5.854  10.927
95598W        W67913   4.035  25.453   2.485
95599W        W67914  32.165  13.333  14.751
95600W        W67915  16.359   8.763   0.750
95601W        W67916  17.241  19.066  14.821
95602W        W67917  15.787   6.436   0.646
95603W        W67918   7.532   2.361  13.109
95604W        W67919  42.403  10.364   1.651
95605W        W67920  40.086   9.281   4.369
95606W        W67921  16.091   7.762   4.620
95607W        W67922  44.285  18.136   4.048
95608W        W67923  25.216   2.307   2.365
95609W        W67924  12.262  36.955   0.439
95610W        W67925   1.365  23.780   2.479
95611W        W67926   9.863   2.545   1.048
95612W        W67927  11.997  18.783  14.771
95613W        W67928  30.064  20.803  14.897
95614W        W67929  18.814  44.312   2.430
95615W        W67930  23.113   0.155  14.324
95616W        W67931  35.124  31.505   3.237
95617W        W67932  40.895  23.648   1.720
95618W        W67933  20.493  31.024  12.421
95619W        W67934  39.540  33.980   2.776
95620W        W67935  41.929  33.933  12.510
95621W        W67936  42.536  32.713  12.951
95622W        W67937  13.803   0.033  12.655
95623W        W67938  41.930  12.154  13.119
95624W        W67939  28.265  41.169   0.380
95625W        W67940  18.630   9.237  13.585
95626W        W67941  13.806  31.346  14.000
95627W        W67942  27.977  16.016  10.383
95628W        W67943   3.881  19.604   4.119
95629W        W67944   3.413   4.478   1.606
95630W        W67945   4.061  40.019   1.473
95631W        W67946  22.964   7.376   4.040
95632W        W67947   5.615   6.223   0.311
95633W        W67948  24.291  33.603  12.024
95634W        W67949  29.049  22.148   0.825
95635W        W67950   2.288  27.683  14.910
95636W        W67951  16.945  39.809   0.401
95637W        W67952   1.285  22.141   0.219
95638W        W67953  20.506   9.126  11.893
95639W        W67954   3.851  41.885  11.492
95640W        W67955   2.789  41.793  14.700
95641W        W67956  33.994  10.018  12.977
95642W        W67957  15.937  34.477  11.056
95643W        W67958  44.334  35.574  13.932
95644W        W67959  11.435  19.514  10.523
95645W        W67960  15.707  13.239   3.613
95646W        W67961   4.789  29.454  11.611
95647W        W67962  16.581  38.049  12.436
95648W        W67963  44.260  14.355  13.767
95649W        W67964  31.463  23.968   3.308
95650W        W67965  14.387  20.036   0.452
95651W        W67966  25.049  34.644   0.870
95652W        W67967  21.673  40.873  13.409
95653W        W67968   1.212  16.078   2.892
95654W        W67969  20.700   2.767  10.614
95655W        W67970  14.891   1.731   2.676
95656W        W67971  25.565   3.458  13.154
95657W        W67972  29.421   6.437  12.020
95658W        W67973  14.149  44.421   3.986
95659W        W67974  23.095   9.094   2.931
95660W        W67975  18.743  16.873  13.987
95661W        W67976  16.558  33.436   0.316
95662W        W67977  39.432  27.948  13.400
95663W        W67978  39.282   5.837   4.271
95664W        W67979  18.635  37.318   4.449
95665W        W67980  26.524   5.456  14.188
95666W        W67981  23.445  20.634  12.507
95667W        W67982  25.558  23.538   0.301
95668W        W67983  21.667  40.082   3.624
95669W        W67984   4.179   0.378   2.231
95670W        W67985  24.968  35.983  12.458
95671W        W67986  18.081  21.625   4.226
95672W        W67987  31.417  44.924   3.270
95673W        W67988  17.107  32.765   2.829
95674W        W67989   2.486  12.663   2.355
95675W        W67990  41.626  32.546  11.039
95676W        W67991  39.746  28.794   1.038
95677W        W67992  17.775  26.350  10.771
95678W        W67993  28.752   6.354   5.522
95679W        W67994  13.614  42.052   2.774
95680W        W67995  18.726  40.507   3.546
95681W        W67996   0.765   2.158  11.460
95682W        W67997   3.235  40.141   0.342
95683W        W67998  40.831   6.831   0.856
95684W        W67999  12.091   5.622   1.852
95685W        W68000  15.793  38.987   0.334
95686W        W68001   5.265  23.677   1.810
95687W        W68002  16.191  44.747  14.535
95688W        W68003  40.799  19.982  14.458
95689W        W68004   3.171  28.041  13.355
95690W        W68005   5.381  40.607  13.336
95691W        W68006   5.464   4.945  14.742
95692W        W68007   1.176  30.902  13.506
95693W        W68008   2.212  26.006   0.170
95694W        W68009  44.395  12.842  12.759
95695W        W68010   0.509  43.356  11.058
95696W        W68011  21.610  36.249   3.217
95697W        W68012   0.696   8.396  10.650
95698W        W68013  12.923   2.685  13.905
95699W        W68014  21.632  12.302  12.829
95700W        W68015  30.175  18.717   0.374
95701W        W68016  21.936   7.893  12.920
95702W        W68017  34.517  32.441   0.282
95703W        W68018  40.421  37.942   1.141
95704W        W68019   2.840  19.694  12.132
95705W        W68020  16.621   4.234   0.870
95706W        W68021  31.063  32.543   4.739
95707W        W68022   2.444  17.495  10.358
95708W        W68023   5.619   4.469   0.356
95709W        W68024  14.382  42.292  14.407
95710W        W68025  35.810  18.489   0.741
95711W        W68026  18.648  15.353   4.879
95712W        W68027  12.271  13.327   3.211
95713W        W68028   7.893  35.830  13.774
95714W        W68029  27.219  29.873  11.911
95715W        W68030  10.314  15.803  13.952
95716W        W68031   4.996  21.033  11.437
95717W        W68032  40.023   9.608   2.378
95718W        W68033  13.893  23.642  12.470
95719W        W68034  15.644   0.391   2.810
95720W        W68035  12.205  42.884   3.892
95721W        W68036  24.174  28.526   3.748
95722W        W68037  13.033  18.261  10.793
95723W        W68038  32.071  37.927  14.186
95724W        W68039  36.653  34.116  11.947
95725W        W68040  22.524  20.983   4.287
95726W        W68041  35.380   0.592  11.968
95727W        W68042  19.932   5.850  10.929
95728W        W68043  39.772   3.086   2.609
95729W        W68044  42.558  35.255  14.743
95730W        W68045  10.195   4.321  13.631
95731W        W68046  37.663  15.552  13.343
95732W        W68047   1.755  17.856  13.379
95733W        W68048  26.146  43.663  12.116
95734W        W68049  36.415  41.471   3.065
95735W        W68050  42.297  42.311   4.209
95736W        W68051   6.813  41.625  11.560
95737W        W68052  29.366  19.177  13.830
95738W        W68053  23.127  35.358   0.091
95739W        W68054  29.189  37.542  10.150
95740W        W68055  29.235  42.320  14.352
95741W        W68056  26.285  44.215   5.115
95742W        W68057  39.966  14.946  13.733
95743W        W68058  34.415  19.164   3.637
95744W        W68059  23.842   5.895   0.337
95745W        W68060  44.093   9.738   9.472
95746W        W68061  16.657  28.604   4.031
95747W        W68062   6.804  23.680  14.396
95748W        W68063   7.147  22.953   1.948
95749W        W68064  14.463  19.244  13.194
95750W        W68065   3.667  36.038   0.408
95751W        W68066   8.721  10.732   2.877
95752W        W68067  17.370  44.338  13.846
95753W        W68068  30.324  33.087  12.411
95754W        W68069  38.120  37.484   1.952
95755W        W68070   4.427  23.505   4.233
95756W        W68071  31.521  13.761  12.319
95757W        W68072   9.491  23.219   2.641
95758W        W68073   9.233  10.215  11.552
95759W        W68074  12.609  29.904  12.071
95760W        W68075  15.052  41.771  14.976
95761W        W68076  21.316  36.433  14.698
95762W        W68077  13.383   6.974   2.291
95763W        W68078  33.994  33.130   1.369
95764W        W68079   4.507   8.631   4.160
95765W        W68080  41.542  40.539   3.242
95766W        W68081  42.402  39.523   1.308
95767W        W68082   2.249  11.310  12.562
95768W        W68083  18.973   8.878  12.509
95769W        W68084   9.263  22.175   1.984
95770W        W68085  24.090  26.038  12.458
95771W        W68086  36.440  21.547  13.352
95772W        W68087   0.069  20.495   4.760
95773W        W68088  27.920  39.863  13.775
95774W        W68089   4.281  25.631  14.794
95775W        W68090  12.624   5.258  11.607
95776W        W68091   3.413  24.640   4.215
95777W        W68092  15.100  15.998  11.652
95778W        W68093  10.871  16.143   1.651
95779W        W68094  22.524  15.253   4.086
95780W        W68095  40.435  38.291   0.723
95781W        W68096  22.085  12.208   4.655
95782W        W68097  39.091   4.927   4.053
95783W        W68098  10.700   9.814  14.921
95784W        W68099  41.240  40.906   1.183
95785W        W68100  38.540  29.654   3.350
95786W        W68101   5.190  17.104   4.184
95787W        W68102  36.088  19.848   3.620
95788W        W68103  28.359  19.112  13.919
95789W        W68104  21.345  22.439  11.378
95790W        W68105  33.479  37.105   1.884
95791W        W68106  31.072  12.724   3.065
95792W        W68107   6.381  14.808  11.423
95793W        W68108  22.278  43.534  13.295
95794W        W68109   2.785  18.593   1.644
95795W        W68110  20.501  23.818   2.619
95796W        W68111  33.138  16.293  14.446
95797W        W68112  15.987  26.516  10.035
95798W        W68113  34.466  36.761  14.535
95799W        W68114  36.438   0.545  12.905
95800W        W68115  24.104  36.997  14.952
95801W        W68116  22.224   0.190   3.980
95802W        W68117  37.148  31.642   0.940
95803W        W68118  27.311   2.806  11.517
95804W        W68119   3.468  13.665  11.568
95805W        W68120   2.286   1.236  12.150
95806W        W68121  27.469  24.499   2.259
95807W        W68122  38.895  38.853  11.863
95808W        W68123  16.343   8.962  14.259
95809W        W68124   8.878  23.242  12.074
95810W        W68125  29.323  35.661  13.321
95811W        W68126  20.714   4.820   0.719
95812W        W68127  19.166  30.572   3.635
95813W        W68128  11.619  29.969   4.949
95814W        W68129   8.241  34.209  11.698
95815W        W68130  13.147  44.756   2.772
95816W        W68131  23.443  17.693  13.550
95817W        W68132  19.155  27.561   4.804
95818W        W68133  43.935  20.476   1.708
95819W        W68134  29.054   4.167  10.448
95820W        W68135   0.315  33.115  12.664
95821W        W68136  22.575   8.860   1.453
95822W        W68137  15.160   5.607   0.240
95823W        W68138  13.186   6.644   1.413
95824W        W68139  10.101  36.146   0.545
95825W        W68140   9.943  15.670   3.652
95826W        W68141  11.321   8.649   1.216
95827W        W68142  34.527  26.263  12.139
95828W        W68143   1.727  35.789  10.260
95829W        W68144  42.448   5.141  13.009
95830W        W68145  27.529   2.374   2.165
95831W        W68146   7.695  40.301   1.406
95832W        W68147  37.928  17.590   2.017
95833W        W68148  31.354   2.415  13.061
95834W        W68149  17.081  42.485  11.184
95835W        W68150  17.063  27.661   4.660
95836W        W68151   8.454  36.238  14.513
95837W        W68152  18.244   3.816   2.346
95838W        W68153  44.747  12.311   0.465
95839W        W68154   8.768  16.210  10.836
95840W        W68155  24.291  16.678  14.262
95841W        W68156  44.326  36.352  11.577
95842W        W68157  29.004   5.452   1.252
95843W        W68158  21.160  37.726  12.085
95844W        W68159  34.072  32.182   3.229
95845W        W68160   7.951  27.744   2.636
95846W        W68161  18.526   0.016   3.137
95847W        W68162  10.359  42.994   5.096
95848W        W68163   8.880  33.097   0.791
95849W        W68164  12.184  20.103  14.689
95850W        W68165  36.008   9.396   0.761
95851W        W68166  12.236  36.795  11.132
95852W        W68167  26.209  24.081  12.959
95853W        W68168  17.665  38.801  11.444
95854W        W68169   9.633  24.545   4.700
95855W        W68170  25.495  16.125   3.769
95856W        W68171  19.501  20.641  14.007
95857W        W68172  11.412   1.552  10.736
95858W        W68173  31.399  11.762   0.499
95859W        W68174  41.457  19.297  10.730
95860W        W68175  22.256  11.125   1.357
95861W        W68176   7.726   8.675  12.662
95862W        W68177  38.316  25.918  11.000
95863W        W68178  24.730  38.648   4.304
95864W        W68179  15.300  17.149  13.507
95865W        W68180  34.006  35.997  13.387
95866W        W68181  44.434   2.265   0.801
95867W        W68182  32.738  16.920  12.119
95868W        W68183  41.189  42.091  14.310
95869W        W68184  33.837  11.297  12.394
95870W        W68185  10.654  33.856   0.777
95871W        W68186  30.923  28.624  12.127
95872W        W68187   8.385  25.269  14.921
95873W        W68188   0.419  29.285  14.900
95874W        W68189  35.864  30.866  13.015
95875W        W68190  13.122   4.366  13.383
95876W        W68191  42.936  11.453  10.055
95877W        W68192  32.460  22.989   2.234
95878W        W68193   2.178  16.466  11.677
95879W        W68194  21.128  39.984   3.660
95880W        W68195  31.651   7.083  14.953
95881W        W68196  15.278  31.804   3.790
95882W        W68197  33.707  26.216   4.382
95883W        W68198  15.070   1.956  14.095
95884W        W68199   6.131   2.956  11.680
95885W        W68200  32.848  11.427   0.708
95886W        W68201  10.340  22.672  12.744
95887W        W68202  11.656  11.039   0.717
95888W        W68203  20.461  12.723  10.646
95889W        W68204  14.633  34.627   0.328
95890W        W68205  10.109   1.303  12.571
95891W        W68206  28.618  39.882   3.373
95892W        W68207  13.785   2.310   2.229
95893W        W68208  42.509  34.018  13.164
95894W        W68209  34.981  34.772   1.707
95895W        W68210   5.007  22.470   4.496
95896W        W68211  19.121  40.690  11.459
95897W        W68212  26.643  13.867   3.327
95898W        W68213  20.492  30.967   1.148
95899W        W68214   7.392   3.259  13.140
95900W        W68215   2.930  23.558   3.200
95901W        W68216  31.623  34.376   3.647
95902W        W68217  24.117  24.951   3.398
95903W        W68218  24.738  32.671  11.437
95904W        W68219  26.206   7.804   4.274
95905W        W68220  25.085  36.207   0.983
95906W        W68221  34.105  29.391  14.807
95907W        W68222  21.594  18.374   0.033
95908W        W68223  16.113  27.674  14.278
95909W        W68224  42.816  19.337   4.595
95910W        W68225  42.518   3.935   1.288
95911W        W68226  20.223  10.440   2.887
95912W        W68227  21.251  21.576   2.727
95913W        W68228  39.300   9.343  12.089
95914W        W68229   2.992  13.114  12.079
95915W        W68230  12.130   4.254  14.460
95916W        W68231  27.171  34.385  14.042
95917W        W68232  22.755   5.419  14.325
95918W        W68233   3.263  26.508   1.766
95919W        W68234   9.879  37.015   4.650
95920W        W68235   9.844  30.341   0.410
95921W        W68236  17.297  16.780  12.723
95922W        W68237  13.434  29.437  11.631
95923W        W68238   7.880  35.351  12.188
95924W        W68239  38.579  41.266   4.624
95925W        W68240  44.437  27.717  12.359
95926W        W68241  24.092  16.637  11.652
95927W        W68242   4.957  24.806  14.380
95928W        W68243  15.897  23.042  10.550
95929W        W68244  22.271  13.773   1.164
95930W        W68245  20.626   8.082  11.099
95931W        W68246  35.070  25.122  14.860
95932W        W68247  27.856  27.225   2.277
95933W        W68248   4.713   2.303  14.794
95934W        W68249  17.724   4.710  13.004
95935W        W68250   0.760  44.093  12.205
95936W        W68251  14.092  16.338   0.418
95937W        W68252  22.474  23.037  10.651
95938W        W68253   5.389  24.973   2.894
95939W        W68254  15.118   5.176  13.485
95940W        W68255   3.274   6.342   2.752
95941W        W68256   7.334  41.525   3.712
95942W        W68257  44.302  10.655  14.402
95943W        W68258  11.746  12.141   3.066
95944W        W68259  10.408  14.092  12.980
95945W        W68260  25.024   4.596  13.344
95946W        W68261   6.928  29.066   4.126
95947W        W68262  41.859  26.799  12.635
95948W        W68263  37.584  11.247   2.728
95949W        W68264   8.574  23.532   0.549
95950W        W68265  34.605  38.975  10.914
95951W        W68266  18.555  20.628   2.862
95952W        W68267  43.386  20.323   0.845
95953W        W68268  22.766  22.289  13.464
95954W        W68269  23.171  33.919   4.521
95955W        W68270  22.904   3.708   0.438
95956W        W68271  10.213  20.694   3.225
95957W        W68272   7.731  22.040   2.166
95958W        W68273  18.107   4.904  10.684
95959W        W68274  25.593  32.916   2.681
95960W        W68275  34.029  13.766  13.368
95961W        W68276  10.786  16.673   3.551
95962W        W68277  27.690  35.651  11.158
95963W        W68278  39.083  33.120  13.549
95964W        W68279  12.837  23.739  10.787
95965W        W68280  22.151  30.196   2.832
95966W        W68281  12.104  36.979   4.634
95967W        W68282  22.764  31.094   4.228
95968W        W68283   6.761  32.839  12.503
95969W        W68284  44.409  14.847  13.865
95970W        W68285  29.169  33.936   4.116
95971W        W68286  28.531  38.834   3.648
95972W        W68287  11.717  16.001   4.339
95973W        W68288  44.546   1.451   3.839
95974W        W68289  42.033  20.658   2.446
95975W        W68290   8.138  39.026  13.611
95976W        W68291   7.357  40.372   0.290
95977W        W68292  23.247  42.694  14.559
95978W        W68293  30.647  39.869   0.880
95979W        W68294  44.872  33.189  11.527
95980W        W68295  42.355  25.195   0.876
95981W        W68296  14.557  35.861  14.852
95982W        W68297  35.866  13.639   1.822
95983W        W68298  41.521   5.242  12.140
95984W        W68299  36.262  25.278  11.455
95985W        W68300  23.424  41.227   3.110
95986W        W68301  39.821  25.966   4.458
95987W        W68302  19.794  16.769   2.820
95988W        W68303  25.404   1.335  13.846
95989W        W68304  34.586  24.942   1.203
95990W        W68305  39.801  16.009  13.935
95991W        W68306   5.371  26.963  12.818
95992W        W68307  36.588   3.151   1.632
95993W        W68308  18.090  36.672  12.353
95994W        W68309  20.781  41.557   0.466
95995W        W68310  30.873  17.282   2.700
95996W        W68311  39.572  13.612   3.800
95997W        W68312  37.919  38.956  12.063
95998W        W68313   4.984  25.674  13.484
95999W        W68314  17.541  29.461   2.826
96000W        W68315  35.307   2.474   3.664
96001W        W68316  44.776  21.698   0.569
96002W        W68317  15.529  24.974  13.377
96003W        W68318  37.183  38.863  13.248
96004W        W68319  21.212  27.329  11.627
96005W        W68320  30.814  27.417  12.809
96006W        W68321  38.854  13.822  11.596
96007W        W68322  36.678  20.385  11.400
96008W        W68323  27.026  33.449  11.588
96009W        W68324  21.180   3.297   3.286
96010W        W68325  20.519   8.750   0.708
96011W        W68326   7.379   7.186  14.082
96012W        W68327  11.136   3.332  13.409
96013W        W68328   8.263   4.604   1.182
96014W        W68329  24.610  34.867  11.493
96015W        W68330  33.658   4.344   2.418
96016W        W68331  31.662  25.282   4.174
96017W        W68332  11.819  20.518  11.849
96018W        W68333  14.623  26.575   2.283
96019W        W68334  10.572  26.655  12.608
96020W        W68335  27.258  36.660  12.984
96021W        W68336  32.821  20.664   4.849
96022W        W68337  28.389  14.113  13.475
96023W        W68338  24.451   9.167   4.118
96024W        W68339  10.367  19.252  11.545
96025W        W68340  10.788   2.011  13.515
96026W        W68341  19.406  11.326   0.648
96027W        W68342  26.083  43.508   0.920
96028W        W68343  24.296  11.134  10.999
96029W        W68344  42.499   2.953  11.139
96030W        W68345  11.840  16.978  12.739
96031W        W68346  40.125  41.968  14.445
96032W        W68347  43.089  16.532   1.521
96033W        W68348   5.746   9.620  13.398
96034W        W68349  18.340  14.324  14.117
96035W        W68350  22.182   2.219   4.019
96036W        W68351  14.915  32.905  12.442
96037W        W68352  13.370  27.685   0.380
96038W        W68353   3.045  38.061   1.801
96039W        W68354   6.326  21.979  10.532
96040W        W68355  18.577  33.410  12.040
96041W        W68356  20.155  24.936   1.348
96042W        W68357  37.516  19.268   4.633
96043W        W68358  27.716  38.043   1.754
96044W        W68359  15.064  15.653   4.607
96045W        W68360  20.345  40.622  11.564
96046W        W68361  19.317  23.373   3.554
96047W        W68362  42.750  35.421  12.254
96048W        W68363   8.823  33.606  14.749
96049W        W68364   6.317  26.399  11.628
96050W        W68365  44.032  11.912  11.491
96051W        W68366  37.883  20.762  11.040
96052W        W68367   1.274  17.803   0.310
96053W        W68368   1.421  24.217  11.599
96054W        W68369  39.286  37.861  11.101
96055W        W68370  17.772  35.013   3.649
96056W        W68371  16.304  38.536   9.783
96057W        W68372  26.286   1.993  12.619
96058W        W68373  11.856  10.728  10.869
96059W        W68374  16.385  22.638   4.876
96060W        W68375  28.784  27.435   4.735
96061W        W68376   6.477  41.576   2.243
96062W        W68377  36.546  30.620  14.259
96063W        W68378   4.223  30.186  13.466
96064W        W68379  20.130  16.151   3.375
96065W        W68380  14.512  29.501  14.849
96066W        W68381  19.074  30.578   1.595
96067W        W68382  18.720  27.092   1.808
96068W        W68383  11.806   2.241  14.294
96069W        W68384   8.632  13.642  11.702
96070W        W68385  26.980   4.925   4.352
96071W        W68386   9.975  43.518   3.367
96072W        W68387   0.242  42.337  12.350
96073W        W68388  26.354  17.268   4.657
96074W        W68389  10.370  33.490  14.958
96075W        W68390  18.513  40.459  12.559
96076W        W68391   8.377  18.025   2.276
96077W        W68392  20.284   6.434   0.369
96078W        W68393  31.419   8.174   1.340
96079W        W68394  26.012  25.815   2.974
96080W        W68395  29.328  35.595  14.313
96081W        W68396  30.695  15.853   4.624
96082W        W68397  15.813  42.859  12.080
96083W        W68398  42.971  10.443   9.975
96084W        W68399  22.262  42.713   3.179
96085W        W68400  25.787  21.532   2.427
96086W        W68401  26.430   2.071   2.934
96087W        W68402   7.345   2.365   1.683
96088W        W68403  36.281  31.020  13.374
96089W        W68404  18.041   5.791   3.757
96090W        W68405  28.651  24.413  14.308
96091W        W68406  36.286  21.786  13.814
96092W        W68407  15.873  40.958   3.683
96093W        W68408  26.197  44.547   3.723
96094W        W68409  22.982  23.189   0.420
96095W        W68410  25.132  41.081  13.401
96096W        W68411  30.886  15.824  14.940
96097W        W68412   3.826   2.548   3.295
96098W        W68413  30.399  37.411   0.514
96099W        W68414  29.569   0.360   1.180
96100W        W68415  42.113  23.657   4.163
96101W        W68416  41.303  43.317   2.355
96102W        W68417  12.615  41.423  10.623
96103W        W68418  38.800   4.440  12.814
96104W        W68419   6.861  13.787   1.210
96105W        W68420  37.541  16.102  14.338
96106W        W68421  38.879  29.252   4.348
96107W        W68422  35.027   5.259   3.562
96108W        W68423  17.745  24.577   4.864
96109W        W68424   8.665   9.678  12.846
96110W        W68425   0.278  37.320   5.385
96111W        W68426  32.476   1.267  12.494
96112W        W68427  15.296  37.854  14.290
96113W        W68428  10.882   8.723   3.682
96114W        W68429  31.159  34.004   1.943
96115W        W68430   3.806  36.071  12.901
96116W        W68431  33.579   4.746  12.283
96117W        W68432  44.319   9.222   1.921
96118W        W68433   2.591  41.844   2.349
96119W        W68434   6.918  36.283  13.820
96120W        W68435   6.719  35.437  12.570
96121W        W68436  28.173  10.628   3.780
96122W        W68437  20.485   7.378   1.337
96123W        W68438   1.526  26.078  10.696
96124W        W68439  10.760  17.624  11.932
96125W        W68440  29.518  42.529  13.958
96126W        W68441  12.119  32.802  11.154
96127W        W68442  16.717  30.066  12.291
96128W        W68443  25.617  13.955   1.872
96129W        W68444  32.887  39.974  11.042
96130W        W68445  24.220  38.497  10.723
96131W        W68446  34.046   7.778   0.941
96132W        W68447  39.542  21.708   3.329
96133W        W68448  35.038  25.130   1.364
96134W        W68449  19.139   2.455   2.594
96135W        W68450  27.623  13.678   2.355
96136W        W68451  13.715  16.607   3.533
96137W        W68452  39.978   5.831  12.070
96138W        W68453   3.957   9.369  13.956
96139W        W68454  30.969   1.808  11.191
96140W        W68455   7.388  43.629   1.878
96141W        W68456  37.063  40.699   4.367
96142W        W68457   5.861  31.541  13.870
96143W        W68458  14.707  16.253  10.753
96144W        W68459  28.116   5.629   1.213
96145W        W68460  43.010  32.264   5.153
96146W        W68461   6.657   2.208  14.691
96147W        W68462  31.766  40.440   3.841
96148W        W68463  41.779  33.318  10.020
96149W        W68464   0.045  25.142  11.910
96150W        W68465  27.657  21.742   1.700
96151W        W68466   2.599  36.894   2.354
96152W        W68467   0.866   3.701   3.799
96153W        W68468  34.912  39.357   3.251
96154W        W68469  42.375  23.208  10.874
96155W        W68470   4.346  15.241   0.222
96156W        W68471  16.610   6.423  14.735
96157W        W68472  25.146  20.581   0.263
96158W        W68473  24.811  27.849  11.962
96159W        W68474   5.458  14.806  11.139
96160W        W68475  11.734   5.226  14.019
96161W        W68476  10.875  20.555  12.896
96162W        W68477  18.003  31.048   3.318
96163W        W68478  20.297  14.792   3.853
96164W        W68479   4.403  37.005   2.107
96165W        W68480   0.468  26.141  13.275
96166W        W68481  35.066  39.055  12.637
96167W        W68482  37.876  18.716  13.517
96168W        W68483  19.562  25.705   4.215
96169W        W68484   7.011  18.218   1.144
96170W        W68485  30.964  14.901  13.474
96171W        W68486   0.386  28.683  14.802
96172W        W68487  41.876  36.483   0.003
96173W        W68488   0.910  14.795   0.339
96174W        W68489  27.625   0.007   2.914
96175W        W68490  13.752  29.079   3.406
96176W        W68491  24.944   8.110   0.417
96177W        W68492  36.733  42.822   0.478
96178W        W68493  25.404   8.900   4.188
96179W        W68494   5.267   3.285   2.118
96180W        W68495  27.352   1.508   3.417
96181W        W68496  18.054  18.108  12.916
96182W        W68497   4.288  15.059  13.262
96183W        W68498  25.925  32.118   0.905
96184W        W68499  17.627  34.612  12.816
96185W        W68500  27.688   2.987  13.930
96186W        W68501  24.470   1.953   4.062
96187W        W68502  37.557  27.517   4.745
96188W        W68503  39.924  26.184   1.005
96189W        W68504  22.220  20.356  11.455
96190W        W68505  42.940  26.823  10.731
96191W        W68506  13.016  41.896  12.385
96192W        W68507  40.137  12.033   2.603
96193W        W68508   8.333  25.116   4.835
96194W        W68509  25.005  30.354  14.775
96195W        W68510  21.217  17.116   0.359
96196W        W68511  42.998  19.153   1.448
96197W        W68512  35.367  37.106   3.842
96198W        W68513  11.769  14.634  12.003
96199W        W68514   0.310   4.829  14.217
96200W        W68515  10.318  12.888  14.062
96201W        W68516  14.423   2.419   1.271
96202W        W68517  15.115  44.437  11.198
96203W        W68518   4.897   7.674   3.101
96204W        W68519  18.488  41.294  13.312
96205W        W68520  25.038  34.027  13.360
96206W        W68521  33.980  34.383  14.941
96207W        W68522   3.946  19.844  11.455
96208W        W68523  28.350  34.209   5.362
96209W        W68524  29.575   1.203  13.763
96210W        W68525  31.444   4.448  13.476
96211W        W68526  16.558  17.096   4.112
96212W        W68527   4.264  26.500  10.610
96213W        W68528  38.179  41.291   2.746
96214W        W68529  25.141  15.110  14.728
96215W        W68530  37.314   1.771   2.040
96216W        W68531  37.081  19.112   2.858
96217W        W68532  12.220  21.336   2.783
96218W        W68533  16.575   6.891   1.525
96219W        W68534   2.350  39.279   2.780
96220W        W68535  36.529  22.496   1.762
96221W        W68536  14.059  10.714  12.917
96222W        W68537  12.700  15.223  10.952
96223W        W68538   5.022  42.437  11.646
96224W        W68539   5.896  38.994  10.978
96225W        W68540   9.690  41.265   0.255
96226W        W68541  31.926  40.472   4.852
96227W        W68542  39.792  16.110   2.813
96228W        W68543   1.871  23.018   3.821
96229W        W68544  29.017  43.243  13.431
96230W        W68545  24.216  41.277   5.040
96231W        W68546  27.598  19.707   0.783
96232W        W68547   0.046  11.229  11.975
96233W        W68548  11.393   4.802  14.549
96234W        W68549  22.555   9.631  11.192
96235W        W68550  29.648  33.003   4.141
96236W        W68551  18.073  26.109  11.123
96237W        W68552  39.390  33.701  11.636
96238W        W68553   3.434  19.256  11.900
96239W        W68554  37.631  30.491  12.475
96240W        W68555  20.277  44.569  14.359
96241W        W68556  21.677  42.923  13.506
96242W        W68557  26.990  40.448   1.693
96243W        W68558   4.190  23.046  12.006
96244W        W68559  18.168  19.666   2.307
96245W        W68560   4.317  27.562  13.961
96246W        W68561  22.586  32.118   0.037
96247W        W68562  42.428  37.493   4.122
96248W        W68563   8.429  38.017   4.225
96249W        W68564  44.858  37.534   2.173
96250W        W68565  28.571  19.309   1.708
96251W        W68566  43.699   3.740   2.545
96252W        W68567   6.676  14.377  14.763
96253W        W68568  27.133   4.391   1.681
96254W        W68569  41.638  27.517   1.462
96255W        W68570  19.702  29.478   4.370
96256W        W68571   2.266   5.920  12.395
96257W        W68572  21.635  22.883   1.695
96258W        W68573  37.332  43.477   0.403
96259W        W68574  14.792   2.632   2.773
96260W        W68575  29.971   3.674  10.640
96261W        W68576  30.712  18.382  14.155
96262W        W68577  13.147  14.356   3.359
96263W        W68578   1.538  11.011   2.174
96264W        W68579  28.705  30.452  11.199
96265W        W68580  20.710  26.682   3.619
96266W        W68581  37.334   3.464  14.875
96267W        W68582   1.503   2.758   3.355
96268W        W68583  16.083  25.370  12.004
96269W        W68584  16.240  39.295  14.392
96270W        W68585  22.638  11.876   3.571
96271W        W68586  44.313  21.460   2.269
96272W        W68587  30.597  12.692  10.970
96273W        W68588  28.237  15.493  14.576
96274W        W68589   0.880  40.863  13.329
96275W        W68590  21.659  12.650  14.738
96276W        W68591  21.655  15.926   3.743
96277W        W68592   6.788  38.892  10.767
96278W        W68593  18.860  34.965  12.433
96279W        W68594  21.773  16.584   4.098
96280W        W68595  40.709  37.250  13.512
96281W        W68596  22.855   6.291   0.474
96282W        W68597  30.622  17.785   4.281
96283W        W68598  13.025  38.655   2.532
96284W        W68599  29.184  29.017  13.480
96285W        W68600   7.761   8.172   0.465
96286W        W68601  37.451   2.941   0.765
96287W        W68602  25.240  34.349   2.506
96288W        W68603  15.908   4.399  13.058
96289W        W68604  29.439  28.867   4.509
96290W        W68605  24.423  41.854   4.157
96291W        W68606  31.190  28.509   3.341
96292W        W68607  34.462  41.132  12.954
96293W        W68608  25.455   3.929   5.050
96294W        W68609  27.406  44.749   1.365
96295W        W68610  26.997   1.290   2.453
96296W        W68611  11.156  19.197   1.248
96297W        W68612  25.360  16.280  11.270
96298W        W68613  17.258  36.607   2.023
96299W        W68614   0.472  21.051   1.824
96300W        W68615   9.943  12.352  10.683
96301W        W68616  35.963  41.687   4.186
96302W        W68617  31.870  27.147  14.296
96303W        W68618  16.192  16.071   4.923
96304W        W68619  15.327   6.724  11.624
96305W        W68620   2.504  35.739  10.987
96306W        W68621  43.287  40.845   3.808
96307W        W68622  37.276   5.691   2.075
96308W        W68623  41.074  43.555  12.441
96309W        W68624  10.169  23.364   3.642
96310W        W68625  43.496  27.710  12.252
96311W        W68626  25.946   2.242   2.812
96312W        W68627   7.089  42.607  10.422
96313W        W68628  18.078   7.631   2.598
96314W        W68629  41.047  30.445   3.147
96315W        W68630  36.430  10.745   2.793
96316W        W68631  31.066  43.897  13.097
96317W        W68632  26.479   4.719   2.221
96318W        W68633  42.327  31.134  11.499
96319W        W68634  17.568  11.245  14.114
96320W        W68635  11.567  41.059  11.498
96321W        W68636  38.423  29.279   4.115
96322W        W68637   9.264  24.694   2.236
96323W        W68638  26.076  41.320   4.703
96324W        W68639  21.393   5.789   2.438
96325W        W68640  15.095  27.737   5.061
96326W        W68641  17.814   4.819  11.099
96327W        W68642  22.931   5.250  14.790
96328W        W68643  41.446   7.447  10.665
96329W        W68644  17.625  38.587  14.326
96330W        W68645  21.147  24.110  11.567
96331W        W68646  33.646  41.889   2.221
96332W        W68647  38.448  15.858   0.933
96333W        W68648   8.700   0.360   3.328
96334W        W68649  15.857  31.404   3.798
96335W        W68650  17.320  37.452   3.330
96336W        W68651  29.994  18.117   2.196
96337W        W68652   0.354  42.450  10.731
96338W        W68653  28.222  40.816  14.012
96339W        W68654   2.533  26.443   0.312
96340W        W68655   6.932   9.219  13.063
96341W        W68656  28.870  35.403  14.170
96342W        W68657  37.471  18.022   1.897
96343W        W68658   0.324  36.356  11.889
96344W        W68659   3.542  39.001  11.145
96345W        W68660  33.970   2.249  11.520
96346W        W68661  20.944   0.621   4.109
96347W        W68662  29.034  23.050   0.757
96348W        W68663  43.748   8.356   0.839
96349W        W68664  25.774   0.053   1.837
96350W        W68665   9.995  37.636  13.505
96351W        W68666  15.812  12.114  12.409
96352W        W68667  12.839  40.010  11.942
96353W        W68668  33.894  26.977   4.764
96354W        W68669  29.899   7.384   1.944
96355W        W68670  44.917   3.914  12.051
96356W        W68671  27.119  42.300   0.960
96357W        W68672  42.522  10.076  11.642
96358W        W68673   0.652  20.198   0.191
96359W        W68674  24.260  28.591   0.545
96360W        W68675  22.585  42.209   2.452
96361W        W68676  29.260   9.681  13.754
96362W        W68677  42.317  16.313  13.953
96363W        W68678  23.726   0.258   0.110
96364W        W68679   6.433  10.379  10.678
96365W        W68680  43.545  24.205   3.681
96366W        W68681   1.664  10.727   3.226
96367W        W68682   3.212  34.160   4.642
96368W        W68683  40.493  14.280   2.279
96369W        W68684  33.375   7.164  11.180
96370W        W68685  34.059  25.744   3.800
96371W        W68686  31.749  30.887  14.844
96372W        W68687  17.495  42.439  13.618
96373W        W68688  37.994  30.189  13.411
96374W        W68689  39.757  29.551   0.293
96375W        W68690  40.238  15.682  11.616
96376W        W68691  23.716  17.523  11.617
96377W        W68692  13.081  38.618   2.010
96378W        W68693  35.458  40.343  13.889
96379W        W68694  36.426   3.892  12.417
96380W        W68695  11.166  19.614  14.476
96381W        W68696  32.122  39.317   4.497
96382W        W68697  15.551  41.933   4.598
96383W        W68698  10.208   1.491   4.224
96384W        W68699  15.345  14.795  12.033
96385W        W68700  34.019  28.467   2.841
96386W        W68701  27.184  10.788  11.817
96387W        W68702   5.096  31.060   1.225
96388W        W68703  14.064   6.977   1.497
96389W        W68704   2.829  33.479  10.785
96390W        W68705  40.580  36.033   1.710
96391W        W68706  34.583  38.829  13.329
96392W        W68707  22.542  21.509  14.209
96393W        W68708  30.696  17.892   2.922
96394W        W68709  15.868   0.693   0.367
96395W        W68710  38.888  39.823  12.586
96396W        W68711   5.734  22.131   3.634
96397W        W68712  35.319  37.491   5.001
96398W        W68713  40.359  13.812  12.930
96399W        W68714  28.503   5.225  11.607
96400W        W68715  33.844  25.164  14.371
96401W        W68716  18.636   2.233   3.692
96402W        W68717  31.666  29.620   0.435
96403W        W68718  38.238   2.386   2.522
96404W        W68719   1.830  44.849   4.654
96405W        W68720  32.710  44.044   2.928
96406W        W68721   6.197  33.662  11.920
96407W        W68722  26.937  19.506  11.516
96408W        W68723  18.757   2.018  14.555
96409W        W68724  15.845  15.264  10.733
96410W        W68725  25.833  34.659   4.262
96411W        W68726  22.102  20.730   4.465
96412W        W68727  14.137   8.166   2.850
96413W        W68728  44.510  28.512  14.389
96414W        W68729  13.774  37.114   0.229
96415W        W68730   6.760  11.847   0.317
96416W        W68731  44.400  38.769   5.055
96417W        W68732  30.997  40.354   3.201
96418W        W68733  11.741  19.577  10.113
96419W        W68734  27.595  10.123   4.966
96420W        W68735  30.536  10.691  12.154
96421W        W68736  19.131   1.471   3.589
96422W        W68737  17.162   1.177   4.581
96423W        W68738  27.845  39.978  11.023
96424W        W68739  35.532   6.241  14.663
96425W        W68740  21.029   2.877  11.703
96426W        W68741  15.555  16.234   1.399
96427W        W68742   9.084  30.633   5.028
96428W        W68743  30.051  16.824   4.136
96429W        W68744  34.559   4.610   3.657
96430W        W68745  10.359  29.439   1.643
96431W        W68746  19.284   8.005  11.185
96432W        W68747  21.259  41.974  14.808
96433W        W68748   0.206   6.235   4.702
96434W        W68749  27.657   8.425   1.375
96435W        W68750  14.104  44.888  11.920
96436W        W68751  29.287  16.310  13.650
96437W        W68752  39.857   6.223  11.720
96438W        W68753   2.716  36.455  10.612
96439W        W68754  16.718  24.083   0.415
96440W        W68755  42.985  21.238  13.552
96441W        W68756  41.239  42.413   3.858
96442W        W68757  37.503  40.649   1.934
96443W        W68758  27.804  21.153  13.570
96444W        W68759  14.803  33.070   3.638
96445W        W68760  39.356  21.117  10.679
96446W        W68761   7.319  17.033   2.630
96447W        W68762  11.131   8.649   3.227
96448W        W68763   2.948  29.772   1.688
96449W        W68764  30.911  17.974  13.323
96450W        W68765  16.842  14.286  13.480
96451W        W68766   2.219   6.067   1.265
96452W        W68767  35.183  37.951  14.212
96453W        W68768   3.661   0.351  11.365
96454W        W68769   8.429  35.349   0.014
96455W        W68770  21.060  44.992  11.055
96456W        W68771  22.081   8.244   2.165
96457W        W68772  20.535  16.840  12.443
96458W        W68773   1.866  44.887  10.528
96459W        W68774  22.179  38.813  11.509
96460W        W68775   4.815  15.335   4.651
96461W        W68776  37.000   2.222   2.785
96462W        W68777   4.996   3.459  11.616
96463W        W68778  31.410  21.255   0.952
96464W        W68779  44.321  21.245  11.599
96465W        W68780  33.142  25.956   2.358
96466W        W68781  32.447   9.777   0.318
96467W        W68782  26.239  30.897   4.876
96468W        W68783  12.726  18.536  14.281
96469W        W68784  16.210  13.331   0.936
96470W        W68785  41.246  44.982  14.366
96471W        W68786  12.109  39.974   3.815
96472W        W68787  30.674  32.923   1.408
96473W        W68788  10.834  13.726  14.139
96474W        W68789  19.589   4.394   9.840
96475W        W68790  23.222  32.603   3.635
96476W        W68791  10.819  16.236   0.816
96477W        W68792   9.358  30.867  13.485
96478W        W68793   1.846  13.304   1.499
96479W        W68794  18.456  30.142  11.460
96480W        W68795  32.937  38.333  14.457
96481W        W68796  40.346  38.871   1.460
96482W        W68797  43.869  39.600  14.643
96483W        W68798   2.798   0.061  10.646
96484W        W68799   6.355  44.904   2.411
96485W        W68800   2.976  31.268  11.161
96486W        W68801  29.827   0.707   0.815
96487W        W68802  30.353  32.436  14.502
96488W        W68803  16.264  16.507  10.621
96489W        W68804  18.779  20.581  12.910
96490W        W68805  38.413   3.757  11.545
96491W        W68806  41.335  37.863   0.456
96492W        W68807  28.396   7.240  13.070
96493W        W68808  30.980  10.797  13.099
96494W        W68809  15.839  42.926  10.758
96495W        W68810  26.899  33.493   4.983
96496W        W68811  20.312  23.775   3.699
96497W        W68812  37.658  32.265  13.867
96498W        W68813  34.828   8.489  11.050
96499W        W68814  33.468  25.518   1.270
96500W        W68815  27.705  11.255  11.143
96501W        W68816  30.932  14.349   1.455
96502W        W68817  14.690  29.951  14.055
96503W        W68818  35.872  13.757   4.489
96504W        W68819  31.341   7.353  14.630
96505W        W68820  16.215  26.413  11.714
96506W        W68821  34.042   4.323  10.580
96507W        W68822  13.728  38.389  11.881
96508W        W68823  27.167  42.831   3.658
96509W        W68824   8.670   7.274  14.369
96510W        W68825  27.667   5.193  11.132
96511W        W68826  39.166   2.355   2.199
96512W        W68827  23.178  23.218  12.961
96513W        W68828  43.697  11.813  13.302
96514W        W68829  36.580  35.386  11.575
96515W        W68830  19.189  28.706   3.288
96516W        W68831   8.624  39.995  14.929
96517W        W68832  27.247   9.474   0.804
96518W        W68833  30.443  34.097  13.058
96519W        W68834  28.463  14.068  14.742
96520W        W68835  44.256  18.809  11.405
96521W        W68836  23.490   1.520  13.391
96522W        W68837  35.844  10.242  10.460
96523W        W68838  26.048   7.448   2.415
96524W        W68839   5.468  18.478  10.829
96525W        W68840  30.168  16.637   0.357
96526W        W68841  42.851  26.475   0.402
96527W        W68842  27.028  44.829  11.983
96528W        W68843  29.138  16.415   2.741
96529W        W68844  31.491  20.830  12.562
96530W        W68845  17.784  10.256  10.974
96531W        W68846   8.692  26.513   3.608
96532W        W68847  31.603  11.395  14.207
96533W        W68848   8.381  35.885   2.923
96534W        W68849  25.730   7.191   1.227
96535W        W68850  25.724  34.452  12.889
96536W        W68851  43.800  15.347   2.742
96537W        W68852  40.591  13.226   4.375
96538W        W68853  21.219  20.727  13.564
96539W        W68854  40.983  38.874   3.129
96540W        W68855  14.263   4.426   4.223
96541W        W68856  39.555  18.975  14.933
96542W        W68857  23.825  10.369   3.137
96543W        W68858   9.907  11.284   2.769
96544W        W68859   0.741  39.086   1.261
96545W        W68860   3.287  30.889  13.989
96546W        W68861   7.879   2.239  14.405
96547W        W68862  16.581  41.829  11.596
96548W        W68863  11.604  10.549   2.625
96549W        W68864  14.678  30.857  13.488
96550W        W68865  31.649  15.466   3.694
96551W        W68866  29.015  12.736   1.805
96552W        W68867  14.446   3.917   4.130
96553W        W68868  38.792  39.513   0.306
96554W        W68869  32.155  19.716   0.103
96555W        W68870  39.470  10.678   1.530
96556W        W68871  32.070  22.555  11.980
96557W        W68872  16.897  28.005  10.785
96558W        W68873  26.121  41.074   2.394
96559W        W68874   3.129  19.999   0.290
96560W        W68875  10.700   5.412   0.866
96561W        W68876  44.153  44.064   2.197
96562W        W68877  26.292   6.676   0.298
96563W        W68878  19.751  27.892   2.348
96564W        W68879  34.681  18.534  14.437
96565W        W68880  12.190  31.534   2.635
96566W        W68881  25.603   7.723   2.371
96567W        W68882  11.534  39.935   2.703
96568W        W68883  27.165  13.096  11.554
96569W        W68884  27.974  28.633  12.927
96570W        W68885  26.913   1.266   1.904
96571W        W68886  28.414   9.688   1.778
96572W        W68887  31.560   3.638  12.970
96573W        W68888   0.387  28.883   3.355
96574W        W68889  17.330  42.706   9.677
96575W        W68890  29.284   5.883   1.849
96576W        W68891  36.637  19.206  10.387
96577W        W68892  27.058  28.373  14.631
96578W        W68893  13.792  34.060  10.912
96579W        W68894  23.672  40.174  13.461
96580W        W68895  40.073  42.354  14.849
96581W        W68896   3.681   8.867  13.956
96582W        W68897   9.420  39.300   4.325
96583W        W68898   8.410   7.174   3.670
96584W        W68899  16.585  33.391  11.313
96585W        W68900  39.466  41.094   4.721
96586W        W68901  13.934   9.618  12.498
96587W        W68902  26.254  35.933  10.922
96588W        W68903  29.514  16.786  12.053
96589W        W68904  24.695  32.704  13.495
96590W        W68905  33.612  39.947   0.341
96591W        W68906   6.196  15.048   0.410
96592W        W68907  15.692  36.924   0.777
96593W        W68908  19.698  29.401  13.974
96594W        W68909  10.285  16.837   9.837
96595W        W68910  11.108  18.868  11.885
96596W        W68911  28.708  37.452   4.408
96597W        W68912  28.197  14.875   4.169
96598W        W68913   3.723  22.567   4.808
96599W        W68914  26.394  10.361  10.605
96600W        W68915   1.610  25.311   2.368
96601W        W68916   5.425  11.596   4.093
96602W        W68917  11.931   6.090   0.925
96603W        W68918  12.624   3.423  13.194
96604W        W68919  11.657  26.145   4.124
96605W        W68920  11.412   8.665   3.665
96606W        W68921  21.048   4.263   2.142
96607W        W68922   2.792   3.431   3.317
96608W        W68923   2.222  27.569  11.040
96609W        W68924   4.346  33.582   3.809
96610W        W68925  41.867  29.139  13.379
96611W        W68926  21.941  18.249  13.142
96612W        W68927  14.330  24.699  11.974
96613W        W68928  28.553  26.773   1.920
96614W        W68929   4.318  31.543   4.441
96615W        W68930  31.370  21.978   2.210
96616W        W68931   4.898   0.738   0.659
96617W        W68932  33.446  21.553   1.992
96618W        W68933   9.702  24.099  11.647
96619W        W68934  31.424  11.760   4.000
96620W        W68935  12.150  31.105   1.436
96621W        W68936   0.917  42.619  12.931
96622W        W68937   4.683  39.422   2.849
96623W        W68938  25.107  16.535   0.448
96624W        W68939  34.944  19.089   4.319
96625W        W68940   5.945  16.272  12.526
96626W        W68941  28.452   9.500  12.586
96627W        W68942  33.410   7.343  13.417
96628W        W68943  20.783  27.195   4.648
96629W        W68944   9.816   6.883  14.241
96630W        W68945  29.589  30.488  11.721
96631W        W68946  25.604   0.171  13.332
96632W        W68947  15.117  20.614   0.182
96633W        W68948   7.969  40.789   1.462
96634W        W68949   5.416  44.562   0.961
96635W        W68950  22.165  38.420  13.544
96636W        W68951  41.331  42.459   0.200
96637W        W68952   9.680   9.893  12.432
96638W        W68953   6.986  38.388  12.078
96639W        W68954  40.754  18.640  12.242
96640W        W68955  25.143  42.416  14.308
96641W        W68956  15.003   3.374   2.383
96642W        W68957  31.447  24.043   1.939
96643W        W68958   1.848  21.902  11.528
96644W        W68959  44.818  25.186  10.635
96645W        W68960   0.481  24.219  14.959
96646W        W68961  37.148  43.455   2.665
96647W        W68962  22.771  27.065   2.294
96648W        W68963  24.248  42.578   2.253
96649W        W68964   6.300  16.905   1.941
96650W        W68965   6.413  25.845   2.892
96651W        W68966  44.518  22.766  11.444
96652W        W68967   3.218  38.032  11.122
96653W        W68968  42.791  23.662  14.517
96654W        W68969  21.543  13.568   2.385
96655W        W68970  10.630  11.901  13.932
96656W        W68971  27.012  34.923  14.944
96657W        W68972   4.368  21.483  13.760
96658W        W68973  14.673  22.100  14.705
96659W        W68974  28.486  13.061  14.923
96660W        W68975  41.372  12.152   3.846
96661W        W68976  24.708  30.164  14.271
96662W        W68977   6.315  29.895  14.390
96663W        W68978  34.253  22.544   4.185
96664W        W68979  43.954  27.231   3.238
96665W        W68980  38.415  18.527   0.413
96666W        W68981  29.108  27.189   4.250
96667W        W68982  37.350  27.428   2.801
96668W        W68983  34.027  15.799   0.236
96669W        W68984  32.041  22.004  14.856
96670W        W68985  14.152  39.051   1.369
96671W        W68986  10.521  40.830  11.460
96672W        W68987  13.331  24.695  11.218
96673W        W68988  20.107   6.269  14.922
96674W        W68989  26.753  41.796   0.067
96675W        W68990  37.989  20.595  13.311
96676W        W68991   4.347   9.185  11.133
96677W        W68992  20.678  13.621  14.611
96678W        W68993  16.841  19.790  13.884
96679W        W68994   3.923  14.209  13.800
96680W        W68995  44.683   8.003  13.932
96681W        W68996  15.027  36.981   1.122
96682W        W68997  25.319  36.998   1.734
96683W        W68998   5.795  27.573   4.160
96684W        W68999  40.448  10.565   1.003
96685W        W69000   6.763  23.544  13.036
96686W        W69001  13.781  30.218   5.076
96687W        W69002  36.887  14.632  14.859
96688W        W69003  38.784  16.601   1.014
96689W        W69004  38.612  27.057  11.157
96690W        W69005  20.357  21.638  11.167
96691W        W69006  19.823   4.804   2.415
96692W        W69007  25.040  11.613   4.654
96693W        W69008  40.454  26.602  13.421
96694W        W69009   0.726  17.140  14.119
96695W        W69010   9.926   8.271   2.720
96696W        W69011   4.969  16.160   2.152
96697W        W69012   8.718  31.297  12.499
96698W        W69013  28.894  31.810   2.405
96699W        W69014  13.821  33.454  12.926
96700W        W69015  31.371  37.367  14.757
96701W        W69016   0.777  29.978  14.320
96702W        W69017  34.737   8.679   4.071
96703W        W69018  32.493  37.741   1.390
96704W        W69019  38.502  40.283  12.988
96705W        W69020  43.022  24.080   0.617
96706W        W69021   6.787  43.400  10.445
96707W        W69022  24.531   4.016  11.477
96708W        W69023  19.616  19.634  12.083
96709W        W69024  28.516  24.198  11.677
96710W        W69025   1.243  32.010   2.957
96711W        W69026  10.489  21.224   1.283
96712W        W69027  22.299  28.937   2.471
96713W        W69028  26.716  42.142   1.775
96714W        W69029   3.501   7.706   5.352
96715W        W69030  23.498   1.272  12.947
96716W        W69031  38.423  32.429   3.696
96717W        W69032  14.085  15.827  11.102
96718W        W69033  31.572  41.077   1.899
96719W        W69034  44.892  31.213   2.303
96720W        W69035  14.562  31.534   2.186
96721W        W69036  16.381  13.885  12.442
96722W        W69037  32.651  40.052   2.252
96723W        W69038  23.573  14.261  14.499
96724W        W69039  37.258  18.513  12.561
96725W        W69040  20.620  22.010  14.372
96726W        W69041  33.149  33.654  13.402
96727W        W69042  20.071  18.328   1.757
96728W        W69043  21.637  39.413  12.392
96729W        W69044  15.263  24.999   3.241
96730W        W69045   0.650   0.435   4.664
96731W        W69046   2.938  36.124  10.936
96732W        W69047  44.052  19.314  12.571
96733W        W69048  14.178  42.885   3.726
96734W        W69049  30.446  25.451  13.351
96735W        W69050   4.477  43.378  13.418
96736W        W69051  19.137  24.566  14.205
96737W        W69052  12.627  17.404   4.105
96738W        W69053   4.215  24.520   0.951
96739W        W69054   2.439  44.137   4.892
96740W        W69055  31.375  41.060  12.270
96741W        W69056  41.710  18.753   2.219
96742W        W69057  43.592  37.589  11.201
96743W        W69058  37.600  14.635  12.931
96744W        W69059  42.101   4.920  11.524
96745W        W69060  25.759  40.630  13.164
96746W        W69061  39.430  12.361  12.075
96747W        W69062  27.093  11.217  12.103
96748W        W69063  13.190  11.241   2.259
96749W        W69064  17.158  25.534  14.040
96750W        W69065  28.543  15.875  14.410
96751W        W69066  18.090  18.238  11.159
96752W        W69067  40.911  40.237  13.104
96753W        W69068  14.714  32.477  12.632
96754W        W69069  42.854  23.809  12.493
96755W        W69070  41.489  15.441   3.724
96756W        W69071  41.084  39.473   3.603
96757W        W69072  33.119  29.962  11.381
96758W        W69073  28.453  44.157  12.640
96759W        W69074  15.720  31.873   1.491
96760W        W69075  27.828   1.779  11.739
96761W        W69076  11.619  22.084  12.574
96762W        W69077  12.730   5.193  12.113
96763W        W69078  33.101  16.201   1.188
96764W        W69079  18.629   5.942  11.178
96765W        W69080  35.653  27.576   1.689
96766W        W69081  20.977  26.880  11.588
96767W        W69082   4.692  20.034  14.794
96768W        W69083  32.677  35.818   2.702
96769W        W69084  11.588  32.957  14.774
96770W        W69085  18.628  40.367  12.061
96771W        W69086  35.805   8.754  10.519
96772W        W69087  20.675  37.347   3.099
96773W        W69088   5.849  12.284   0.679
96774W        W69089  31.522   3.438   0.501
96775W        W69090   2.378  12.579   4.535
96776W        W69091  11.095   6.221   3.765
96777W        W69092  15.243   6.092   0.421
96778W        W69093  40.868  28.577  12.882
96779W        W69094  29.822  15.752  13.081
96780W        W69095  24.581  26.141   4.108
96781W        W69096  24.485  17.974   3.211
96782W        W69097  43.517   2.939   2.196
96783W        W69098  10.672  27.515   2.483
96784W        W69099  39.115  40.896  11.491
96785W        W69100  44.514  30.647  12.914
96786W        W69101  25.424  20.543   4.138
96787W        W69102  43.114  34.886  12.847
96788W        W69103  26.992  38.014  13.908
96789W        W69104   7.449  15.085  13.351
96790W        W69105  18.614  10.595  11.446
96791W        W69106   7.320   9.787  14.869
96792W        W69107   7.387  19.243   3.129
96793W        W69108  36.183  25.314  10.842
96794W        W69109  17.525  34.576   0.435
96795W        W69110  21.966   8.714  13.122
96796W        W69111  40.421   1.784  12.441
96797W        W69112  25.612  11.003   1.621
96798W        W69113  26.683  43.861  12.364
96799W        W69114  17.639  20.348  13.068
96800W        W69115  41.528  44.352  11.447
96801W        W69116  38.401  16.762   5.023
96802W        W69117   4.287  14.656  10.735
96803W        W69118  15.140  14.288   1.273
96804W        W69119  41.471  24.558   4.517
96805W        W69120  20.291   4.378   1.718
96806W        W69121  38.608  40.592  13.444
96807W        W69122  12.855  36.998   0.301
96808W        W69123  10.395   7.309   4.167
96809W        W69124  39.161  15.047  11.210
96810W        W69125   0.844  15.204  12.787
96811W        W69126  44.475  16.767  10.708
96812W        W69127  27.222  24.649  11.185
96813W        W69128  11.843  33.424  11.910
96814W        W69129  10.260  23.893   2.354
96815W        W69130  41.344  36.478   0.685
96816W        W69131  35.529  11.108   2.654
96817W        W69132  36.601  23.112  13.859
96818W        W69133  42.087  38.944   1.771
96819W        W69134  41.838  27.021   1.284
96820W        W69135   6.760  27.705   2.795
96821W        W69136  16.019   0.232  14.547
96822W        W69137  22.149  16.416   3.093
96823W        W69138  44.565  26.908  10.162
96824W        W69139  37.444  21.215   1.266
96825W        W69140  39.069   9.626  13.861
96826W        W69141  35.159  18.569   3.683
96827W        W69142  24.005  27.781   1.158
96828W        W69143   0.411  13.177  14.752
96829W        W69144   7.654   5.973  13.441
96830W        W69145  14.807   8.570  13.827
96831W        W69146  40.618  21.166  12.822
96832W        W69147   9.246  18.797  12.085
96833W        W69148  35.845  38.581   1.135
96834W        W69149  20.665  22.482   1.832
96835W        W69150   9.415  41.588  10.757
96836W        W69151   7.185   1.083   3.825
96837W        W69152  34.858  18.285   0.228
96838W        W69153  38.907   8.675  12.517
96839W        W69154  13.760  20.780   3.784
96840W        W69155  31.096  19.224   0.079
96841W        W69156  34.405   8.244   0.876
96842W        W69157  18.283  40.442  13.513
96843W        W69158   4.924  18.073   2.170
96844W        W69159  30.977  38.951  12.112
96845W        W69160  37.946  29.998   3.428
96846W        W69161  11.574  40.328  12.069
96847W        W69162  40.022  37.596  11.833
96848W        W69163  17.596  44.360   2.643
96849W        W69164  40.427  40.482  12.926
96850W        W69165   4.151  19.843  10.450
96851W        W69166  20.782  41.869  13.410
96852W        W69167  39.704  43.446   2.205
96853W        W69168  15.367   1.483  12.992
96854W        W69169  20.314  27.019   2.679
96855W        W69170  31.083  37.468  13.776
96856W        W69171   4.372   0.901  14.909
96857W        W69172  11.945  38.969  10.677
96858W        W69173   8.883  30.516   0.236
96859W        W69174   8.065  21.431   5.008
96860W        W69175  43.865  22.936  13.607
96861W        W69176  10.296  36.076  11.177
96862W        W69177  10.405  17.737   0.906
96863W        W69178  21.759  29.874   1.610
96864W        W69179  39.903  40.297  11.377
96865W        W69180  39.269  42.104  13.859
96866W        W69181  36.807  34.818   2.319
96867W        W69182   3.640  42.404  14.953
96868W        W69183   0.191  25.216  13.941
96869W        W69184   0.032   5.391   3.907
96870W        W69185  30.055  10.287  11.691
96871W        W69186  33.478   8.946  13.519
96872W        W69187   1.747  43.563   0.547
96873W        W69188  35.608  11.410   4.630
96874W        W69189   5.905  26.899   2.080
96875W        W69190  17.910   0.787  11.040
96876W        W69191   8.313  26.747  13.256
96877W        W69192  35.789  22.716  13.836
96878W        W69193  32.219  43.949   2.788
96879W        W69194  16.356  21.137   2.696
96880W        W69195  39.088  42.067   3.773
96881W        W69196   2.876   0.255   4.473
96882W        W69197  26.113  24.077   3.830
96883W        W69198   6.287  34.640   5.011
96884W        W69199  23.681  27.167  13.051
96885W        W69200  42.309  22.799   1.750
96886W        W69201  16.130  13.179  14.008
96887W        W69202   0.400  12.603  13.470
96888W        W69203  14.234  23.669   4.715
96889W        W69204  17.602   0.724  13.975
96890W        W69205  10.157  22.616   1.907
96891W        W69206  13.844  35.845  10.972
96892W        W69207  38.895  12.152  10.840
96893W        W69208  32.195   6.173  11.113
96894W        W69209   3.258  25.158   4.133
96895W        W69210  39.356  27.012   4.234
96896W        W69211  27.969  10.145   1.434
96897W        W69212  32.587  32.946   1.712
96898W        W69213   5.371  30.551  14.443
96899W        W69214  18.265  41.101   2.295
96900W        W69215   6.300  25.495  14.366
96901W        W69216   5.753  19.349   4.049
96902W        W69217  17.710  21.213   0.163
96903W        W69218  10.167  36.963  12.812
96904W        W69219  16.102   1.243  14.477
96905W        W69220  39.971  28.550  13.146
96906W        W69221   6.369  37.014   1.913
96907W        W69222  29.067  21.021  11.475
96908W        W69223   9.653  31.080  10.913
96909W        W69224  18.233  26.911  12.973
96910W        W69225  30.586   6.182  11.729
96911W        W69226  43.424  44.625   3.192
96912W        W69227  16.255  17.043  10.728
96913W        W69228  39.838   2.519   2.659
96914W        W69229  36.398  27.606   2.392
96915W        W69230  28.489  19.687   3.797
96916W        W69231  35.521  14.215  12.649
96917W        W69232   2.917  39.528   4.596
96918W        W69233  32.847   4.219   2.399
96919W        W69234  24.056  37.019  14.067
96920W        W69235  20.560   2.673  11.493
96921W        W69236   1.493  36.195   5.029
96922W        W69237  34.104  27.034  10.399
96923W        W69238  12.806  14.105   0.582
96924W        W69239  30.549  32.006   4.203
96925W        W69240   7.643  26.613   4.567
96926W        W69241  40.587  24.253  12.424
96927W        W69242   7.309  27.927  11.945
96928W        W69243  31.474   7.765  11.652
96929W        W69244  18.155  11.841  11.103
96930W        W69245  40.477  19.872   5.312
96931W        W69246  29.581  37.489  10.520
96932W        W69247  33.443   0.731   0.299
96933W        W69248   8.547  28.966  14.515
96934W        W69249  44.244   1.236   4.194
96935W        W69250   1.294  16.642   0.391
96936W        W69251  43.234  11.670  11.727
96937W        W69252  14.586  20.383  14.547
96938W        W69253  20.729  40.239   3.115
96939W        W69254  17.215  27.333   5.497
96940W        W69255  28.516  24.903   4.323
96941W        W69256  28.064  39.886   2.225
96942W        W69257   2.680  43.690   4.236
96943W        W69258  27.006  37.730   1.278
96944W        W69259   9.136  39.893  14.798
96945W        W69260  34.772   8.661  12.354
96946W        W69261  10.273   1.681  11.198
96947W        W69262   4.912  40.409  14.322
96948W        W69263  22.982  38.474  13.823
96949W        W69264  13.089  38.388  11.146
96950W        W69265  29.106   9.831   0.225
96951W        W69266   4.771   3.351  12.849
96952W        W69267  10.648  42.232  12.948
96953W        W69268  18.216   7.469   3.848
96954W        W69269  25.490  20.942   3.180
96955W        W69270  29.504  23.535   0.248
96956W        W69271  29.857  17.273   0.925
96957W        W69272   8.387  35.680   0.992
96958W        W69273  22.375  19.006   1.381
96959W        W69274  17.537  36.328   4.648
96960W        W69275  23.935  42.919   4.531
96961W        W69276   7.917  21.844  11.565
96962W        W69277  28.618  21.243  11.971
96963W        W69278   9.648  43.707   0.448
96964W        W69279   2.801  13.527  12.927
96965W        W69280  38.837  18.742  11.489
96966W        W69281   2.269  28.755   1.498
96967W        W69282   3.860  34.842   2.260
96968W        W69283  14.709  17.062  14.453
96969W        W69284  24.746  25.829   0.011
96970W        W69285  43.814  12.933   0.783
96971W        W69286  41.048   8.389  11.631
96972W        W69287  42.402   1.087   3.069
96973W        W69288  39.751   8.976   3.650
96974W        W69289  28.568  22.250  11.192
96975W        W69290  36.332  25.090  13.095
96976W        W69291  35.004  37.890   3.296
96977W        W69292   3.019   7.793   3.620
96978W        W69293  12.683  38.372   0.352
96979W        W69294  10.138   7.245  13.538
96980W        W69295  22.948  28.355   2.666
96981W        W69296   4.320  11.239   3.411
96982W        W69297  36.563  42.436  13.707
96983W        W69298  27.988  11.480   9.944
96984W        W69299  29.899  13.203   3.211
96985W        W69300  18.130  38.697  14.388
96986W        W69301   4.199  27.732   4.205
96987W        W69302  43.287  26.539  11.604
96988W        W69303  24.092  30.898  13.391
96989W        W69304  38.879  26.409  14.501
96990W        W69305  37.325  33.878   2.636
96991W        W69306  12.332  36.323  13.964
96992W        W69307  31.132  20.821  14.079
96993W        W69308  20.278  39.783  11.603
96994W        W69309   6.696   2.840  12.943
96995W        W69310  21.944  40.487   4.865
96996W        W69311  15.162   6.038  13.159
96997W        W69312  12.839  16.336  14.022
96998W        W69313  34.340  31.106   2.099
96999W        W69314  23.973   2.455  13.932
97000W        W69315  23.712  34.882   3.949
97001W        W69316  11.503  41.382   0.424
97002W        W69317  15.102  27.380   4.072
97003W        W69318  43.266  12.147   3.303
97004W        W69319  31.406  19.065  11.952
97005W        W69320  29.717  24.142   4.127
97006W        W69321  40.829  34.121   2.358
97007W        W69322  34.848  28.663  14.905
97008W        W69323  13.169  26.069  12.537
97009W        W69324  10.749  33.910   3.004
97010W        W69325  16.480  41.368  13.864
97011W        W69326  23.530  31.111   1.388
97012W        W69327  34.431  36.929  13.473
97013W        W69328  22.724   9.639  13.417
97014W        W69329   7.696  34.376   0.812
97015W        W69330  36.910  26.646   2.860
97016W        W69331  38.784  33.968   1.479
97017W        W69332  39.699   0.322   2.274
97018W        W69333  22.927  27.446   2.657
97019W        W69334  32.134  26.752   3.051
97020W        W69335  37.885  27.111   0.639
97021W        W69336   7.343  36.479  12.104
97022W        W69337   2.908  30.564   1.876
97023W        W69338  39.245  21.815   4.138
97024W        W69339   5.352  22.250  13.910
97025W        W69340  15.747   9.622  13.365
97026W        W69341  16.141   9.653   2.281
97027W        W69342  40.805  29.613  11.612
97028W        W69343  26.639  35.513   4.813
97029W        W69344  12.357  14.606  11.288
97030W        W69345  39.170   8.894   3.504
97031W        W69346  40.964  26.184   4.264
97032W        W69347   0.392  16.972  13.008
97033W        W69348  19.543  38.525   4.615
97034W        W69349   4.985   9.085   1.361
97035W        W69350  18.474  38.505   3.733
97036W        W69351  37.342   4.035   3.570
97037W        W69352   5.554  20.163  12.547
97038W        W69353  27.494  22.460   1.065
97039W        W69354  29.211   8.991  10.711
97040W        W69355  17.696  41.262  12.958
97041W        W69356  23.038  29.349   0.940
97042W        W69357  40.619  42.298   4.670
97043W        W69358  12.140  39.339  11.399
97044W        W69359  40.874  42.603  10.742
97045W        W69360  28.087  44.703   1.917
97046W        W69361  41.265  20.168   2.386
97047W        W69362   7.446   6.597   0.353
97048W        W69363  30.665   5.281  10.795
97049W        W69364   1.807   4.981   0.383
97050W        W69365   6.136  15.988   4.311
97051W        W69366  21.972  35.081   4.635
97052W        W69367  17.582  11.370  11.678
97053W        W69368  23.938  32.410   1.525
97054W        W69369   2.291   3.897  13.199
97055W        W69370   7.184  33.662   4.391
97056W        W69371  38.202  28.508  11.268
97057W        W69372   4.912  19.075   3.406
97058W        W69373  33.939  44.751   2.866
97059W        W69374   6.974  16.077  11.127
97060W        W69375  33.189  23.128   2.826
97061W        W69376   0.582  19.521  12.588
97062W        W69377  28.228  10.843  13.426
97063W        W69378  29.864  42.842   1.736
97064W        W69379  11.696   9.782   4.630
97065W        W69380  33.568  22.300  12.613
97066W        W69381  33.052  44.417  10.587
97067W        W69382  25.916  31.876  11.522
97068W        W69383  12.649  12.115   2.410
97069W        W69384  33.098  22.960  11.455
97070W        W69385  15.324  40.343   0.799
97071W        W69386  35.037  39.831  12.107
97072W        W69387  16.274  30.887  10.113
97073W        W69388  23.185  25.144  12.066
97074W        W69389  37.951   4.376  11.862
97075W        W69390  26.031  30.797   1.558
97076W        W69391  44.231  16.046  10.642
97077W        W69392  34.488  41.041  14.435
97078W        W69393  37.392  43.726   1.268
97079W        W69394  31.147  30.032   0.073
97080W        W69395  32.099  25.172   2.232
97081W        W69396   6.737  43.807   4.199
97082W        W69397  24.568  44.373   1.737
97083W        W69398  37.055  31.422  10.667
97084W        W69399  38.914  27.553   3.221
97085W        W69400  10.747  14.590   1.177
97086W        W69401  20.224  14.874  11.063
97087W        W69402  39.801  13.412   0.720
97088W        W69403   4.995  30.241  12.039
97089W        W69404   1.899  12.713  11.541
97090W        W69405   6.738   2.856   2.307
97091W        W69406  14.067   4.782  14.053
97092W        W69407  26.780  44.473   2.431
97093W        W69408   8.638   4.153  11.606
97094W        W69409  29.214  19.312   1.890
97095W        W69410  30.564  17.426  14.289
97096W        W69411  17.313  26.718   1.469
97097W        W69412  22.855   6.828   2.260
97098W        W69413  22.257  19.791   1.753
97099W        W69414   0.692  40.542  12.558
97100W        W69415  27.618   4.441  14.486
97101W        W69416  11.102  14.002   3.660
97102W        W69417  30.889   1.723   1.311
97103W        W69418  41.158  31.104  13.739
97104W        W69419  43.381   2.216  13.913
97105W        W69420  22.696   6.845   3.245
97106W        W69421   1.864  11.470  11.079
97107W        W69422  22.103   4.482   2.323
97108W        W69423  15.189  20.013   4.830
97109W        W69424  41.965  22.556   0.814
97110W        W69425  25.241  26.984   3.282
97111W        W69426  41.535  27.946  11.066
97112W        W69427  19.455  12.735  12.365
97113W        W69428  38.872   3.685   4.603
97114W        W69429  29.195  26.455   1.752
97115W        W69430  35.120   3.507  14.324
97116W        W69431  26.547  33.379   0.415
97117W        W69432   5.858   4.972   1.916
97118W        W69433   8.335   1.327  14.078
97119W        W69434  35.491   7.253   0.801
97120W        W69435  10.155  20.237   4.072
97121W        W69436   9.668  32.516   2.208
97122W        W69437  20.151   0.942   5.092
97123W        W69438  19.276  20.181   3.662
97124W        W69439   4.284  22.526   2.759
97125W        W69440   5.679  14.052  12.021
97126W        W69441  39.318   8.705   2.418
97127W        W69442   3.511  16.865   3.754
97128W        W69443  22.993  25.505  12.972
97129W        W69444   6.215   9.302  11.638
97130W        W69445   0.693  36.200   4.069
97131W        W69446  12.889  26.630   3.219
97132W        W69447  21.078  24.738   1.709
97133W        W69448  21.298  40.829   0.006
97134W        W69449   9.899  24.493  12.922
97135W        W69450  40.986   2.369   4.185
97136W        W69451  32.127  10.167   1.672
97137W        W69452   7.257  19.804  14.478
97138W        W69453  18.514   7.373   0.743
97139W        W69454   0.932  40.624   0.429
97140W        W69455  40.200  43.228   0.674
97141W        W69456  31.657  28.033  12.599
97142W        W69457   2.779  22.512  13.004
97143W        W69458  24.577   9.721   2.442
97144W        W69459  41.793  33.666   0.472
97145W        W69460   7.303  21.997  14.790
97146W        W69461   4.676  10.206   2.809
97147W        W69462  31.595  30.504   4.619
97148W        W69463   3.243  12.074  11.595
97149W        W69464  24.056   1.821   3.711
97150W        W69465   0.271  22.685  14.559
97151W        W69466  10.741   3.778  14.733
97152W        W69467  20.518  15.689   0.473
97153W        W69468  40.388  13.590   4.107
97154W        W69469  32.024   2.953   2.421
97155W        W69470  15.751  12.898  12.969
97156W        W69471  32.849  12.514   4.139
97157W        W69472  26.604  28.789   2.797
97158W        W69473  30.029  12.166  12.609
97159W        W69474  13.764  17.139  14.313
97160W        W69475  20.179  12.051  11.159
97161W        W69476  21.169  33.988  11.691
97162W        W69477  26.879  39.488  13.000
97163W        W69478  44.423  21.988   4.317
97164W        W69479   2.544  21.139   2.881
97165W        W69480  24.390  30.008   1.407
97166W        W69481   1.011  27.541  14.569
97167W        W69482   5.940  41.366   4.182
97168W        W69483  13.125  32.044  13.004
97169W        W69484  44.994  27.527   3.298
97170W        W69485  26.126   0.474  12.439
97171W        W69486  15.828  17.582   0.873
97172W        W69487  36.774  22.997   2.398
97173W        W69488  23.130  31.273   3.089
97174W        W69489  16.831  36.564  13.467
97175W        W69490  27.967   6.869   0.883
97176W        W69491  42.352  35.028  12.634
97177W        W69492  12.855  24.036  14.440
97178W        W69493  44.771  24.275  12.015
97179W        W69494  35.651  26.665   0.887
97180W        W69495  24.094  11.579   3.826
97181W        W69496  15.205   9.075   2.233
97182W        W69497  41.271   0.001  13.064
97183W        W69498  11.564  23.470  12.098
97184W        W69499  42.088   6.075  11.168
97185W        W69500  18.027  33.107  11.540
97186W        W69501  13.144  33.499   3.925
97187W        W69502   5.221  35.408   1.895
97188W        W69503   5.602  42.574   4.608
97189W        W69504  16.330   6.227   4.490
97190W        W69505   7.701  20.426   2.315
97191W        W69506  30.966  13.217   2.928
97192W        W69507  34.624  28.391  12.926
97193W        W69508   2.825  11.751  11.424
97194W        W69509   0.774  16.690  13.465
97195W        W69510  36.465   4.006   1.258
97196W        W69511  29.222  34.391   1.104
97197W        W69512   4.243  42.464  11.966
97198W        W69513   9.754  25.015   4.924
97199W        W69514   8.113  25.121  12.917
97200W        W69515   2.148  17.907   2.573
97201W        W69516   5.921   6.229   3.223
97202W        W69517  32.619  12.691  11.959
97203W        W69518  32.776   1.358   4.936
97204W        W69519   1.213  14.655  13.446
97205W        W69520  12.756  10.795  12.422
97206W        W69521  42.349  13.642  13.108
97207W        W69522   7.649  30.566   3.450
97208W        W69523  23.004  44.990   0.297
97209W        W69524  31.072  26.237  13.371
97210W        W69525  24.225  20.367   4.304
97211W        W69526  25.961  39.561  12.006
97212W        W69527  31.198  24.960  13.063
97213W        W69528  10.958  19.564  12.099
97214W        W69529  25.657  39.746   1.834
97215W        W69530   6.431  25.466  11.724
97216W        W69531   8.842   4.703   5.113
97217W        W69532  37.303  34.942   0.225
97218W        W69533  44.845  38.611   0.209
97219W        W69534   4.688   8.467  11.633
97220W        W69535  44.811  20.467   1.975
97221W        W69536  15.679  21.018  12.446
97222W        W69537   4.553   3.950  14.457
97223W        W69538   9.195  23.704   4.681
97224W        W69539   4.281  40.107  14.708
97225W        W69540  37.088  41.672  12.043
97226W        W69541   6.996  34.401  12.027
97227W        W69542   7.417  32.621  11.262
97228W        W69543  44.312  43.875  12.838
97229W        W69544  30.054   7.262  14.332
97230W        W69545  29.402   3.467   1.873
97231W        W69546  19.291   0.877  11.068
97232W        W69547   2.496  31.447   1.744
97233W        W69548  43.925  10.099   1.742
97234W        W69549  30.421  28.195  14.001
97235W        W69550  18.570  37.854  11.493
97236W        W69551  28.997  35.484  14.678
97237W        W69552  40.424  12.126  14.930
97238W        W69553  27.520  43.992  12.167
97239W        W69554  22.274   6.646  14.756
97240W        W69555  18.099   1.157  13.276
97241W        W69556  11.093  17.543   0.202
97242W        W69557  20.265   5.185   0.391
97243W        W69558  29.461  11.353  10.688
97244W        W69559  26.611  10.098  11.441
97245W        W69560  28.919   9.742  12.511
97246W        W69561  43.121  40.634   1.271
97247W        W69562  10.792  34.291  14.976
97248W        W69563   7.026  43.389  11.951
97249W        W69564   2.205  26.708  10.553
97250W        W69565   4.563  18.487   1.063
97251W        W69566  36.473  32.232  12.078
97252W        W69567   9.298  35.263   0.800
97253W        W69568  17.648  19.199   2.334
97254W        W69569  25.346  31.962   5.119
97255W        W69570  19.634  42.867   3.184
97256W        W69571  11.308  33.954   2.184
97257W        W69572   8.700  44.994  14.170
97258W        W69573  18.078  28.672   4.073
97259W        W69574  41.486  19.253   4.015
97260W        W69575  27.649  25.273  11.851
97261W        W69576   1.736  17.553   3.703
97262W        W69577  29.944   9.696   2.597
97263W        W69578   9.884  33.490  13.025
97264W        W69579   5.071  18.740  11.030
97265W        W69580  25.062   1.878   2.822
97266W        W69581  29.115  32.265  13.561
97267W        W69582  29.683  31.380  11.474
97268W        W69583  28.642  33.629  11.556
97269W        W69584  14.778  38.191   2.417
97270W        W69585  40.936  31.622   2.903
97271W        W69586   5.325  43.070  10.585
97272W        W69587  24.987  37.901  14.441
97273W        W69588  24.696   0.207  14.116
97274W        W69589  26.088  27.922   4.622
97275W        W69590  42.971  13.775   4.054
97276W        W69591  41.079   6.981   0.428
97277W        W69592  11.719   4.409   2.027
97278W        W69593  30.725  12.815  14.419
97279W        W69594  32.399  20.103   0.909
97280W        W69595  26.170  31.563  14.485
97281W        W69596  22.718  34.631   1.384
97282W        W69597  33.378   4.396   4.244
97283W        W69598  30.455  32.924   3.936
97284W        W69599  38.887   0.525   0.890
97285W        W69600   0.893  27.225   1.286
97286W        W69601   2.815  38.029  11.436
97287W        W69602  36.607  27.347   0.451
97288W        W69603   0.774  17.283  13.176
97289W        W69604  34.889  31.870   3.686
97290W        W69605   2.660  25.564  10.595
97291W        W69606   4.507  21.301   3.677
97292W        W69607  27.003  25.715  11.820
97293W        W69608  11.959   4.270  11.084
97294W        W69609  37.550   7.699   3.649
97295W        W69610  10.908  42.805   2.130
97296W        W69611  31.581   5.286  14.330
97297W        W69612  17.574  22.067  13.465
97298W        W69613  18.864  22.880  11.653
97299W        W69614   6.911   1.809  12.022
97300W        W69615   5.841  34.109   2.797
97301W        W69616  27.661   9.735  14.621
97302W        W69617   9.591  30.182   1.247
97303W        W69618  25.276  42.918   2.934
97304W        W69619  11.384  19.261   2.653
97305W        W69620  13.098  40.275  13.916
97306W        W69621  10.898  17.472  10.581
97307W        W69622  38.761  31.039   4.122
97308W        W69623   5.132  44.427   2.220
97309W        W69624  24.034  19.436  11.074
97310W        W69625  19.728  11.127   2.828
97311W        W69626  39.315  39.516   0.455
97312W        W69627  44.444  40.326   3.611
97313W        W69628  27.874  10.410   1.898
97314W        W69629  38.066  38.624   0.999
97315W        W69630   2.664   8.567  13.139
97316W        W69631  21.462  11.732   4.546
97317W        W69632   1.596  13.646   4.224
97318W        W69633  36.785  33.397   3.659
97319W        W69634  14.668  25.153  13.069
97320W        W69635  13.473  11.144  11.070
97321W        W69636  16.648  18.212  13.755
97322W        W69637  43.599  32.654   1.358
97323W        W69638  41.783  14.313  12.471
97324W        W69639  24.242  40.470  12.654
97325W        W69640  31.016  11.149  12.697
97326W        W69641  22.150  21.791  14.019
97327W        W69642  43.059  24.053  13.874
97328W        W69643   1.561  39.309  11.798
97329W        W69644  18.023  36.513  10.989
97330W        W69645  43.314   7.098   1.149
97331W        W69646  30.394   2.440  12.692
97332W        W69647  10.821  42.827   1.179
97333W        W69648   3.766   9.297   3.074
97334W        W69649  40.792  37.997  11.067
97335W        W69650  35.200   6.804   2.764
97336W        W69651   3.765  12.007  11.116
97337W        W69652  13.090  21.331   9.892
97338W        W69653  41.480  35.348  14.045
97339W        W69654  10.035  21.067   1.516
97340W        W69655  36.882  23.012  14.344
97341W        W69656  23.040   2.313  12.626
97342W        W69657  37.328  23.455  10.250
97343W        W69658   9.336  20.973   2.836
97344W        W69659  12.610  10.712   2.755
97345W        W69660  15.651  11.809   0.999
97346W        W69661   4.872  37.554   1.200
97347W        W69662  44.428  42.921  12.410
97348W        W69663  24.012  24.892   3.891
97349W        W69664   9.103  18.171   2.966
97350W        W69665   6.765  22.189  13.478
97351W        W69666  39.812  28.632  13.982
97352W        W69667  44.260  32.450   3.029
97353W        W69668  17.588   3.977  12.319
97354W        W69669  29.421  36.031  12.971
97355W        W69670  37.330  30.484  13.832
97356W        W69671  43.399  21.620   1.196
97357W        W69672  36.000  44.207   4.347
97358W        W69673  12.606  29.116  14.478
97359W        W69674  10.814  32.403  11.604
97360W        W69675  32.729  32.784   2.201
97361W        W69676  37.439  22.207  13.613
97362W        W69677  16.378  18.743   3.236
97363W        W69678  12.437  13.174   0.330
97364W        W69679  20.919  35.757   3.685
97365W        W69680  14.641  30.776  10.368
97366W        W69681   2.212   3.999  14.151
97367W        W69682   9.252  21.660  13.464
97368W        W69683  11.939   7.438   4.166
97369W        W69684  34.441  14.830   0.869
97370W        W69685  12.110  25.081   1.331
97371W        W69686   4.056   1.489  13.355
97372W        W69687  31.628   9.265   3.590
97373W        W69688  38.177  21.973  12.969
97374W        W69689  25.019  12.727  11.194
97375W        W69690   4.274  29.428  11.476
97376W        W69691   3.361  23.470   5.031
97377W        W69692  35.786  44.592  11.047
97378W        W69693  32.914  30.405  14.857
97379W        W69694   3.697  26.115   3.252
97380W        W69695  12.750  12.161   1.883
97381W        W69696  11.837  29.270   0.651
97382W        W69697  21.065   7.339   2.770
97383W        W69698  36.746  17.516  11.512
97384W        W69699  30.992  13.381  14.873
97385W        W69700  15.748   7.460  14.493
97386W        W69701  21.186  34.634  11.048
97387W        W69702  12.614  35.305  10.426
97388W        W69703  41.561  14.553  12.050
97389W        W69704  39.592  34.671   0.909
97390W        W69705  19.964  19.349   3.745
97391W        W69706   3.450  21.032   2.446
97392W        W69707  22.634  26.138  12.923
97393W        W69708   9.187  28.118  11.638
97394W        W69709  16.707  24.074   1.958
97395W        W69710  28.114  42.417   0.770
97396W        W69711  11.128  43.247  13.896
97397W        W69712  32.437  35.965  10.673
97398W        W69713  20.381  41.734  11.121
97399W        W69714  35.135  15.252  14.054
97400W        W69715  17.241  38.583   4.604
97401W        W69716  21.667   3.834   0.004
97402W        W69717  26.401  28.481  11.008
97403W        W69718  42.273   0.888  12.955
97404W        W69719  16.408   9.777  10.535
97405W        W69720   9.213  19.105   3.153
97406W        W69721  17.661  10.847   0.748
97407W        W69722  21.960   4.676   1.429
97408W        W69723  31.836   4.115  13.394
97409W        W69724  18.583   3.800  12.568
97410W        W69725  32.240  35.927   1.803
97411W        W69726  26.059  35.853   0.347
97412W        W69727   1.535  12.414   3.745
97413W        W69728  36.145  19.189   0.702
97414W        W69729  14.060  26.729  14.478
97415W        W69730   1.259   4.857   1.178
97416W        W69731  28.667   9.205  11.216
97417W        W69732  11.829   1.802  13.446
97418W        W69733  38.612  44.535  14.358
97419W        W69734  41.590  43.251   1.014
97420W        W69735  35.387  19.325  14.413
97421W        W69736  37.044  27.076   3.119
97422W        W69737   1.775  44.031   1.362
97423W        W69738  29.652  16.808  11.149
97424W        W69739  11.090  27.175   2.412
97425W        W69740   6.598  21.309  14.932
97426W        W69741  37.057   7.875   1.847
97427W        W69742  23.592  41.946   1.311
97428W        W69743  42.974   2.856   0.473
97429W        W69744  23.353  20.155   1.924
97430W        W69745  34.906  37.481   4.520
97431W        W69746  17.076  10.251   0.462
97432W        W69747  12.338  44.976   1.226
97433W        W69748  29.452   8.063   3.321
97434W        W69749  32.305  42.191   3.671
97435W        W69750  29.108  36.418  12.282
97436W        W69751   8.708   6.743   3.727
97437W        W69752   0.801  20.343  12.391
97438W        W69753  13.097  26.972  12.888
97439W        W69754  23.578  35.045  13.070
97440W        W69755  41.398  24.925   3.165
97441W        W69756  14.929  24.139  14.271
97442W        W69757  26.694   4.247  12.607
97443W        W69758   5.398  43.897   2.258
97444W        W69759   4.938  15.913  14.329
97445W        W69760  12.564  27.044   4.542
97446W        W69761   6.426  16.746   3.799
97447W        W69762  41.403   7.103   2.276
97448W        W69763  34.922  42.170   0.492
97449W        W69764  34.183  28.228   3.655
97450W        W69765  16.650  24.123   4.389
97451W        W69766  41.816  30.986   4.854
97452W        W69767   9.891  24.011   1.945
97453W        W69768   5.351  31.846  13.066
97454W        W69769  12.597  13.594   2.411
97455W        W69770  37.059  12.884  11.925
97456W        W69771  43.768  18.288   4.030
97457W        W69772  11.264  39.058   4.793
97458W        W69773  15.189   7.138  13.937
97459W        W69774  16.198   4.697   1.439
97460W        W69775  21.198  12.708   1.960
97461W        W69776  44.388  14.156   1.302
97462W        W69777  40.726  14.683   0.742
97463W        W69778  30.552  30.592  11.409
97464W        W69779  30.002  36.891   0.308
97465W        W69780  44.520  42.941   3.954
97466W        W69781  41.870  25.771   1.058
97467W        W69782  22.140  26.127   2.266
97468W        W69783  16.014  20.674   0.530
97469W        W69784  29.217  16.183  11.599
97470W        W69785  44.356  42.265   0.301
97471W        W69786  35.603  25.530   4.350
97472W        W69787  22.613  21.123   2.891
97473W        W69788  16.246  30.467   0.949
97474W        W69789  21.057  11.180  12.155
97475W        W69790  22.501  14.206  13.031
97476W        W69791  30.133  33.176   2.445
97477W        W69792   6.721  16.525  11.151
97478W        W69793  27.075  32.582   3.788
97479W        W69794   6.908   5.732  12.931
97480W        W69795   0.280  29.179  13.032
97481W        W69796  29.066  24.800   3.220
97482W        W69797  36.568   5.310   0.746
97483W        W69798  18.604  11.887   0.755
97484W        W69799  16.180  28.131   2.117
97485W        W69800   7.180   3.814  14.950
97486W        W69801  31.506  18.747  11.475
97487W        W69802  42.783  12.318   3.221
97488W        W69803  17.059   4.341   4.600
97489W        W69804  37.380  28.083  12.883
97490W        W69805   6.641  14.422  14.207
97491W        W69806   2.456   4.333   3.350
97492W        W69807   3.295  44.865   0.972
97493W        W69808  30.126  10.715   3.610
97494W        W69809  38.565   5.281  13.861
97495W        W69810  33.747  37.504   5.053
97496W        W69811   3.771  16.984  14.785
97497W        W69812  19.210  33.624  12.524
97498W        W69813  29.076  18.008  10.695
97499W        W69814  11.806  42.198  10.681
97500W        W69815  39.983   6.630   1.919
97501W        W69816   9.425   6.235  11.141
97502W        W69817  24.770  11.628  13.989
97503W        W69818  41.731   5.386  13.479
97504W        W69819  21.135   3.542  10.683
97505W        W69820   6.613  14.638   1.000
97506W        W69821  13.958  34.607   0.992
97507W        W69822  13.339  33.729   1.326
97508W        W69823  12.256  42.828   2.921
97509W        W69824   1.270  41.035   0.537
97510W        W69825  17.213   9.846   3.739
97511W        W69826  26.421  21.899   0.624
97512W        W69827   0.507  43.924   2.313
97513W        W69828  35.925  23.546  14.247
97514W        W69829  24.448  36.771   2.717
97515W        W69830  34.088   4.787  11.166
97516W        W69831  25.035  43.375  12.321
97517W        W69832   0.674  32.150  14.825
97518W        W69833  25.485  21.351  10.148
97519W        W69834   0.403  15.637   1.016
97520W        W69835  12.173  14.252  11.638
97521W        W69836  16.091  12.421   1.856
97522W        W69837  29.041  33.873   2.795
97523W        W69838   0.304  14.551  13.069
97524W        W69839  37.441  12.640  14.551
97525W        W69840  33.034  34.420  12.373
97526W        W69841   8.167   4.141   2.268
97527W        W69842   8.292   1.228  11.420
97528W        W69843  32.698   3.366   5.078
97529W        W69844  29.066   1.437   4.499
97530W        W69845  17.793   2.271  12.810
97531W        W69846  18.311  16.273  11.161
97532W        W69847   5.064  21.449   1.773
97533W        W69848  24.615  22.666  10.110
97534W        W69849  23.367  36.345  14.827
97535W        W69850  41.139  22.133   3.813
97536W        W69851  23.641  22.752  10.989
97537W        W69852   3.608   9.396  11.571
97538W        W69853   9.632  27.956  12.426
97539W        W69854  31.046  35.426  10.429
97540W        W69855   8.291  32.180   0.726
97541W        W69856  33.539   2.528   3.544
97542W        W69857  44.917  36.572  12.175
97543W        W69858  19.225  35.017   2.329
97544W        W69859   3.381  27.916   2.741
97545W        W69860  40.852  16.720   2.794
97546W        W69861  23.490  32.970   1.857
97547W        W69862  36.359  37.880   1.513
97548W        W69863  42.031  12.014   0.245
97549W        W69864  19.066  38.263  10.557
97550W        W69865  38.826  43.225   2.404
97551W        W69866  18.994   8.907   0.825
97552W        W69867  15.269  26.998   1.787
97553W        W69868  44.971   7.588   2.618
97554W        W69869  31.207  34.579   0.809
97555W        W69870  39.495   6.916  12.361
97556W        W69871  27.202   7.833  12.564
97557W        W69872  32.405  43.692  14.825
97558W        W69873  41.753  27.658  14.744
97559W        W69874  25.870  44.836  11.134
97560W        W69875   1.155  28.690   3.794
97561W        W69876  32.552   1.923   3.691
97562W        W69877  20.508  44.763   2.185
97563W        W69878   0.306  31.093  13.017
97564W        W69879  38.020  35.930   2.383
97565W        W69880   3.639   1.479   4.219
97566W        W69881   9.409  11.247   2.903
97567W        W69882  32.143   6.926  12.106
97568W        W69883  20.650  20.664   2.728
97569W        W69884  16.249   2.021   3.564
97570W        W69885  36.180  18.591   3.765
97571W        W69886   9.569  35.530   4.545
97572W        W69887  37.941   3.232   2.367
97573W        W69888   6.224   9.433   2.728
97574W        W69889  43.396  16.801   2.802
97575W        W69890   9.898  37.848  10.493
97576W        W69891  25.658  36.628  11.186
97577W        W69892  43.208  35.170  11.118
97578W        W69893  40.562  22.182  12.940
97579W        W69894  36.948  12.128   2.241
97580W        W69895  32.446  27.119   0.490
97581W        W69896  19.625   3.311  10.945
97582W        W69897  39.909  14.018   4.776
97583W        W69898  12.154  17.703  11.403
97584W        W69899   9.346  40.011  13.473
97585W        W69900  24.696   4.859  10.645
97586W        W69901  30.070  25.523  12.602
97587W        W69902  31.113   2.081   2.804
97588W        W69903  19.257   4.868  14.725
97589W        W69904  11.101  36.898  13.840
97590W        W69905  29.702  17.581  12.734
97591W        W69906  36.034  41.911   2.355
97592W        W69907  31.634  44.434  13.560
97593W        W69908  16.701   8.781  12.025
97594W        W69909   6.232   9.188  12.566
97595W        W69910  14.036  32.404   3.187
97596W        W69911  34.000   0.269   0.982
97597W        W69912  27.047  37.496   4.056
97598W        W69913  34.681  35.630  12.953
97599W        W69914  38.788  18.244  11.020
97600W        W69915  35.249  43.138  13.255
97601W        W69916  34.802  44.425  12.656
97602W        W69917  30.456  26.160   3.653
97603W        W69918   0.856  44.694  13.883
97604W        W69919  21.119  30.037  13.489
97605W        W69920  25.640  38.504   3.729
97606W        W69921  11.751  40.154  11.159
97607W        W69922   3.721  34.272  12.211
97608W        W69923  37.434   2.735   3.644
97609W        W69924  26.457  43.071  11.077
97610W        W69925   3.882  24.580   3.578
97611W        W69926  19.600  19.719  12.614
97612W        W69927   1.843  28.580   0.194
97613W        W69928  25.927  20.653   1.468
97614W        W69929  34.096  11.356   3.643
97615W        W69930  21.182   5.350   4.794
97616W        W69931  10.936  21.622   3.268
97617W        W69932   7.822  31.132  12.944
97618W        W69933  34.170  39.617  13.574
97619W        W69934  36.533  20.827  11.609
97620W        W69935  32.695  28.730  12.084
97621W        W69936  36.069  14.191  10.784
97622W        W69937  36.462   4.172  14.315
97623W        W69938  15.274  43.904   3.747
97624W        W69939  42.836   3.504  14.939
97625W        W69940  36.677   5.106   1.666
97626W        W69941   3.753  37.453  12.554
97627W        W69942   1.145  29.241   1.003
97628W        W69943  35.961  28.404  12.904
97629W        W69944  43.467  32.865  13.588
97630W        W69945  12.082  12.078  12.446
97631W        W69946  41.535   3.838   2.291
97632W        W69947  10.307   1.714  13.555
97633W        W69948  19.779  27.022  13.611
97634W        W69949  15.576  20.152   2.213
97635W        W69950  19.652  44.508  14.982
97636W        W69951  26.702  19.295  12.116
97637W        W69952  33.587  29.924   1.128
97638W        W69953  43.631  38.105  11.132
97639W        W69954   1.652  40.229  12.525
97640W        W69955  18.094  43.545   4.101
97641W        W69956  42.084  32.890  14.848
97642W        W69957  22.617  15.310  12.332
97643W        W69958  44.020   4.522  14.481
97644W        W69959   6.244  36.956   0.512
97645W        W69960  14.528  32.064   2.268
97646W        W69961  31.245  38.960  13.479
97647W        W69962  38.532  41.765  11.943
97648W        W69963  43.400  42.468   0.312
97649W        W69964   0.929  44.180   1.460
97650W        W69965  44.091  40.992  14.638
97651W        W69966  39.773  11.374  14.975
97652W        W69967  15.584  12.864  11.120
97653W        W69968  42.099  22.211   3.571
97654W        W69969  31.726  38.563  11.162
97655W        W69970  30.035  35.018  14.844
97656W        W69971  39.721  40.942  13.519
97657W        W69972  17.344  29.901   5.475
97658W        W69973   1.409  22.575   0.518
97659W        W69974  33.416  39.953   2.962
97660W        W69975   9.570  23.602   4.326
97661W        W69976  19.734  16.062  11.121
97662W        W69977  40.021  27.230   2.138
97663W        W69978  38.130  13.745   2.686
97664W        W69979  25.001  20.698  13.468
97665W        W69980  14.292  13.314   2.739
97666W        W69981   4.467  26.969  10.463
97667W        W69982  32.472  39.494  14.143
97668W        W69983  38.491  23.086  11.126
97669W        W69984  39.215  17.360  12.523
97670W        W69985  21.063  21.804   2.275
97671W        W69986  39.419   3.824   1.394
97672W        W69987  32.424  31.612  11.571
97673W        W69988  10.937  15.377   3.464
97674W        W69989  31.108  26.508  10.633
97675W        W69990  12.357  14.911   0.741
97676W        W69991  40.792   4.970  13.565
97677W        W69992  37.812   7.375  11.127
97678W        W69993  22.005  18.291  13.670
97679W        W69994  13.266  33.166   4.659
97680W        W69995  14.545  15.122  11.471
97681W        W69996  40.922  30.535   2.225
97682W        W69997  31.368  36.950   1.351
97683W        W69998  42.663  41.913   0.670
97684W        W69999  31.221  33.388  12.390
97685W        W70000   8.288  21.801   1.344
97686W        W70001   8.677  29.880   0.433
97687W        W70002   3.147  35.711  11.673
97688W        W70003  31.674  36.499   1.396
97689W        W70004   2.762   9.916   4.039
97690W        W70005  10.912  28.676  13.916
97691W        W70006  30.605   1.162   2.250
97692W        W70007  14.125  22.405   1.042
97693W        W70008  27.096  38.581  11.926
97694W        W70009  40.926   3.798  14.740
97695W        W70010  35.778   8.652   4.220
97696W        W70011  13.522  21.263  11.332
97697W        W70012  13.172   3.978   4.686
97698W        W70013  15.094   4.309  14.469
97699W        W70014  11.949  11.365   4.186
97700W        W70015  11.137  24.980  10.524
97701W        W70016  39.192  24.059  12.131
97702W        W70017   8.378  44.600   3.661
97703W        W70018  24.084   7.620  11.337
97704W        W70019  10.012  23.551   4.558
97705W        W70020  10.138  34.744  11.286
97706W        W70021  12.827  15.791  14.026
97707W        W70022  24.825  24.795   1.676
97708W        W70023  25.079  23.695   0.356
97709W        W70024  35.972  11.839  12.468
97710W        W70025  43.433  23.877   1.377
97711W        W70026  24.055  23.987   0.857
97712W        W70027  26.155  15.825  14.364
97713W        W70028  44.781   9.216  12.807
97714W        W70029   1.953  30.588   3.526
97715W        W70030  39.476  17.651  14.375
97716W        W70031  13.166   1.982  10.627
97717W        W70032   9.991  13.080  10.791
97718W        W70033  15.615  40.326   3.690
97719W        W70034   9.737  14.599   2.391
97720W        W70035   4.699  10.423   3.772
97721W        W70036  41.465  40.835   1.698
97722W        W70037  22.287  43.756   3.255
97723W        W70038   9.878   8.165   1.707
97724W        W70039  42.513   6.143   0.928
97725W        W70040  13.194  42.942  10.805
97726W        W70041  11.240  38.183  13.896
97727W        W70042  43.749  24.844   1.899
97728W        W70043  26.207  29.617  14.512
97729W        W70044  12.797  14.859   4.594
97730W        W70045  24.185  28.021  14.961
97731W        W70046  20.616   1.339  13.904
97732W        W70047  35.129   0.844   0.251
97733W        W70048  43.735  13.133  11.175
97734W        W70049   4.688   0.510  14.752
97735W        W70050  41.816  23.216  11.447
97736W        W70051  11.202  11.584   4.267
97737W        W70052  18.247  12.247  14.813
97738W        W70053  22.580  38.452  14.901
97739W        W70054   4.696  30.876   2.295
97740W        W70055   2.788  29.392   1.393
97741W        W70056  25.672  18.732  14.998
97742W        W70057  42.777   7.670  10.386
97743W        W70058  11.047  27.035  11.549
97744W        W70059  20.686  34.974  11.146
97745W        W70060  22.002  10.576   3.155
97746W        W70061  36.674  42.460  12.164
97747W        W70062  18.495  27.715  12.801
97748W        W70063   3.636  20.893   4.271
97749W        W70064   8.183  20.148  14.762
97750W        W70065  29.410  41.752  11.133
97751W        W70066  12.900  10.111  13.597
97752W        W70067  21.087  44.879   3.421
97753W        W70068  27.685   1.836  12.206
97754W        W70069  36.451  27.449   4.132
97755W        W70070  23.094  12.391  12.991
97756W        W70071  38.215  36.462   4.547
97757W        W70072  27.947   4.425   2.651
97758W        W70073   9.602   0.450  11.553
97759W        W70074   9.663  39.531   2.865
97760W        W70075  27.540  14.749  11.548
97761W        W70076  21.234   0.190  10.599
97762W        W70077  20.747   7.683   2.215
97763W        W70078  23.193   6.300   1.235
97764W        W70079  36.940  19.607  11.989
97765W        W70080  18.765  41.527   1.318
97766W        W70081   2.298   1.869  12.861
97767W        W70082  16.328   0.179   2.209
97768W        W70083  44.029  39.397  13.670
97769W        W70084  22.540   8.965   2.876
97770W        W70085  32.940  31.505   2.223
97771W        W70086  26.520  18.602  11.353
97772W        W70087  13.665   6.438   2.257
97773W        W70088  24.914  33.933   0.350
97774W        W70089  20.709  29.656  13.540
97775W        W70090  14.233  34.172  10.677
97776W        W70091  21.536  11.802   1.196
97777W        W70092   9.116  31.978  12.696
97778W        W70093   7.394  40.276   1.854
97779W        W70094  44.686  43.043   1.088
97780W        W70095  28.695  30.167  11.650
97781W        W70096  22.628  19.769   3.212
97782W        W70097  34.781  44.416   4.578
97783W        W70098  35.921  32.052  14.963
97784W        W70099  11.778  20.940   3.351
97785W        W70100   6.316  12.683  13.302
97786W        W70101  29.157  32.033  12.498
97787W        W70102  39.619  16.705  11.630
97788W        W70103   1.063  16.874  14.462
97789W        W70104  37.073  15.862  12.179
97790W        W70105  30.936   1.800  13.980
97791W        W70106   6.198  19.733  14.538
97792W        W70107  28.614  38.381   4.634
97793W        W70108  14.434  34.408  14.849
97794W        W70109   3.884  11.227   3.118
97795W        W70110  32.008   4.451   1.948
97796W        W70111   2.871  33.997   2.685
97797W        W70112  38.958  31.580   0.185
97798W        W70113  18.187  13.119  10.936
97799W        W70114  37.495   3.266  10.629
97800W        W70115  30.369  26.976   0.293
97801W        W70116  34.620  16.091  13.116
97802W        W70117  36.323  26.327  13.444
97803W        W70118  44.451  25.577   1.732
97804W        W70119  24.578  43.823  12.070
97805W        W70120   8.357   0.191   1.714
97806W        W70121  20.839  24.768  13.685
97807W        W70122  23.451   8.611   2.913
97808W        W70123   1.715  12.359  12.537
97809W        W70124  19.179   4.062   1.337
97810W        W70125  21.847  32.540  13.557
97811W        W70126  12.419  15.285   3.789
97812W        W70127  29.238  42.037  13.879
97813W        W70128  26.796  26.204  14.836
97814W        W70129  21.691   7.748  13.360
97815W        W70130  23.125  28.542  14.422
97816W        W70131  20.368  36.896   4.613
97817W        W70132   0.366  30.480   2.436
97818W        W70133  40.372  37.331  13.914
97819W        W70134  16.089  43.388   3.669
97820W        W70135   4.786   4.648   1.409
97821W        W70136   4.902   0.541   1.717
97822W        W70137  30.949   9.691  12.532
97823W        W70138  35.457  27.711   3.403
97824W        W70139  36.574  10.882  12.426
97825W        W70140  13.609  22.469   2.251
97826W        W70141  30.526  23.958   3.259
97827W        W70142  33.571  39.803  11.245
97828W        W70143  32.425   8.759   0.517
97829W        W70144  41.466  23.500  13.061
97830W        W70145  30.217  38.460   2.786
97831W        W70146  35.501  14.942   1.310
97832W        W70147  17.354  13.663   0.535
97833W        W70148  42.920  18.161   0.869
97834W        W70149  33.552  32.694  13.899
97835W        W70150  15.177  43.939  11.320
97836W        W70151  10.170  14.323  14.492
97837W        W70152   4.399  27.493   3.166
97838W        W70153  38.972   8.145  12.468
97839W        W70154   3.488   2.408   0.317
97840W        W70155  10.336  14.365   1.796
97841W        W70156  32.618  33.637  13.775
97842W        W70157  17.242  32.434  14.869
97843W        W70158  23.972  29.252   3.151
97844W        W70159  30.639  18.465   0.390
97845W        W70160  30.152  32.815  11.995
97846W        W70161   0.824  16.605  14.854
97847W        W70162  34.682  41.330  12.544
97848W        W70163   9.733   8.685  11.050
97849W        W70164  30.718   7.668   4.111
97850W        W70165  41.278  37.860  10.966
97851W        W70166  42.516  21.962  11.545
97852W        W70167  12.588  15.853   4.586
97853W        W70168  19.723   8.468  13.007
97854W        W70169   2.892  25.467   4.444
97855W        W70170  16.988  16.380   1.146
97856W        W70171  42.303   6.649   0.928
97857W        W70172  41.814  16.655   0.928
97858W        W70173   5.643   5.351  14.442
97859W        W70174  26.494   8.209  14.628
97860W        W70175  39.850  43.215  11.172
97861W        W70176  13.762  13.180  14.889
97862W        W70177   9.389  38.937   0.255
97863W        W70178  27.733  22.101  14.443
97864W        W70179  43.272  39.717   2.689
97865W        W70180  35.865  18.800  11.553
97866W        W70181  33.082   0.375   2.823
97867W        W70182  20.290  11.374   4.456
97868W        W70183   1.933   2.528   1.507
97869W        W70184  14.509  31.116  13.902
97870W        W70185  36.142  27.604   0.737
97871W        W70186  29.495  34.421  12.456
97872W        W70187  20.491  22.113  12.833
97873W        W70188  39.303  43.894  13.828
97874W        W70189  35.526  43.357  12.842
97875W        W70190  41.290   1.992   3.936
97876W        W70191   6.365  18.669  12.509
97877W        W70192  13.116  43.659   4.701
97878W        W70193  10.300   6.798  11.605
97879W        W70194   6.201  31.698  10.202
97880W        W70195  14.797  22.133  12.869
97881W        W70196  41.999   1.206   2.714
97882W        W70197  32.803   2.011   1.274
97883W        W70198   7.650  29.277  13.594
97884W        W70199   1.030   8.898   4.769
97885W        W70200  38.491  40.304   3.613
97886W        W70201  22.809  27.557   3.697
97887W        W70202  34.048  42.937   4.543
97888W        W70203  24.630  19.105   4.517
97889W        W70204   7.443  44.742  14.698
97890W        W70205  38.398  14.011   4.569
97891W        W70206  14.269  11.370   2.211
97892W        W70207  39.735   9.249  13.989
97893W        W70208  40.883  20.166  12.539
97894W        W70209  25.829  40.087   3.327
97895W        W70210  27.481  14.091  12.383
97896W        W70211   1.982  13.857  12.799
97897W        W70212   8.694  29.374  14.214
97898W        W70213  10.804  40.489   1.923
97899W        W70214  41.072  23.211   2.825
97900W        W70215   2.229  11.346   2.578
97901W        W70216  24.625   0.005   2.691
97902W        W70217  33.743  44.443   2.196
97903W        W70218  34.710  40.825   0.515
97904W        W70219  24.454   9.115  13.022
97905W        W70220  26.555  12.604   0.437
97906W        W70221  44.885  18.265  13.528
97907W        W70222  41.233  16.325   1.163
97908W        W70223  40.419  44.962   2.251
97909W        W70224  24.684  41.424  13.864
97910W        W70225  34.445  38.280   1.177
97911W        W70226   9.755  13.363   4.670
97912W        W70227   5.817  12.609  13.472
97913W        W70228   1.197  23.942  11.223
97914W        W70229   8.622  42.787   4.246
97915W        W70230  20.156  12.973  13.729
97916W        W70231  31.739  11.633  12.447
97917W        W70232  37.997  15.600   0.963
97918W        W70233  43.693  18.236  11.003
97919W        W70234  32.167  22.057   3.852
97920W        W70235  39.362  12.136  12.607
97921W        W70236  16.468  14.746   4.407
97922W        W70237  34.879   0.196   2.846
97923W        W70238  32.115  34.317  12.079
97924W        W70239  17.759  17.610   0.811
97925W        W70240  21.461   8.782  14.501
97926W        W70241   6.368   1.463   4.140
97927W        W70242  38.584  25.528   4.206
97928W        W70243  20.098  10.155   0.467
97929W        W70244   5.701   0.910   2.006
97930W        W70245  14.662   5.030   2.538
97931W        W70246   5.541   3.034   4.425
97932W        W70247  30.496   1.091  14.632
97933W        W70248  30.960  40.315  12.480
97934W        W70249   5.122  36.022   4.715
97935W        W70250  19.597   6.373  14.927
97936W        W70251   6.153  12.778   3.215
97937W        W70252  10.824  22.523   0.267
97938W        W70253   2.328  12.678  14.248
97939W        W70254  15.339  11.037  11.998
97940W        W70255  16.593  41.595   2.127
97941W        W70256   6.930   1.246  12.557
97942W        W70257   7.709  20.050  14.499
97943W        W70258  39.038  24.707   1.866
97944W        W70259  30.174  17.057  14.364
97945W        W70260   5.768  25.682   3.272
97946W        W70261  22.289  37.384   0.195
97947W        W70262  14.437  39.788   1.750
97948W        W70263   4.968   6.744  12.802
97949W        W70264   6.467   5.368   3.162
97950W        W70265  11.835  19.705   0.913
97951W        W70266  11.810  14.591   1.826
97952W        W70267  24.264  10.740  10.531
97953W        W70268  33.628  40.202  14.379
97954W        W70269   7.783  22.110  11.142
97955W        W70270  42.831  37.950  11.807
97956W        W70271  29.526  37.972   3.280
97957W        W70272  32.171  35.204   0.395
97958W        W70273   5.596  26.952  14.780
97959W        W70274   5.429  28.967   3.756
97960W        W70275  33.292  27.127   0.719
97961W        W70276  28.574  12.716  14.435
97962W        W70277  14.037  18.895   1.368
97963W        W70278  31.732  18.765  14.639
97964W        W70279  23.752  41.156  12.131
97965W        W70280  17.125  42.311  13.964
97966W        W70281   8.260  41.779   2.367
97967W        W70282   1.902  28.463   1.765
97968W        W70283  40.576   9.724  13.681
97969W        W70284  30.120  26.405   1.484
97970W        W70285   1.700  39.771  14.413
97971W        W70286  26.829  37.859   4.770
97972W        W70287   2.837   3.478   2.232
97973W        W70288  29.718   8.424  13.875
97974W        W70289  31.078  36.869   3.025
97975W        W70290  11.327   0.828  11.479
97976W        W70291   4.352  23.833  12.515
97977W        W70292  10.802  18.456   3.858
97978W        W70293  16.226  19.251  12.993
97979W        W70294  41.038  13.323  14.755
97980W        W70295  23.097  32.542  14.297
97981W        W70296  40.842  22.567   3.803
97982W        W70297  38.786  24.710  11.629
97983W        W70298  24.538  26.103   3.086
97984W        W70299  12.838  43.478   2.407
97985W        W70300  19.222  24.713   3.183
97986W        W70301  37.392  13.827   2.140
97987W        W70302  27.595   8.251   5.064
97988W        W70303  24.902  30.183   3.653
97989W        W70304  14.508   8.755  10.035
97990W        W70305  21.735  28.070   0.766
97991W        W70306  33.533  13.599   0.336
97992W        W70307   2.493  20.803  11.643
97993W        W70308  43.474  36.394  14.358
97994W        W70309  12.561   0.832  12.939
97995W        W70310  22.360  18.232   2.560
97996W        W70311  41.643  16.968  10.284
97997W        W70312  38.334  14.714   4.585
97998W        W70313  15.651  18.346  13.501
97999W        W70314  21.557  34.701   2.256
98000W        W70315  20.682  31.864   3.315
98001W        W70316  30.644  41.028   3.377
98002W        W70317  33.529  44.540  10.635
98003W        W70318  26.582   5.950  13.484
98004W        W70319  42.759  32.851   0.461
98005W        W70320  30.203  38.992   2.688
98006W        W70321  15.366   3.813   3.300
98007W        W70322   8.794  20.259   2.726
98008W        W70323  14.376  13.356  14.520
98009W        W70324  33.839  24.637  12.610
98010W        W70325  14.197  10.133   4.517
98011W        W70326  15.580   4.524   2.852
98012W        W70327   1.517  39.169   1.671
98013W        W70328  12.582  26.138  11.848
98014W        W70329  43.471   6.255   3.353
98015W        W70330   0.232  35.422  12.821
98016W        W70331  21.050  34.061   0.348
98017W        W70332   8.618  17.538  11.176
98018W        W70333  13.148  44.299  10.198
98019W        W70334  26.617   9.988  10.212
98020W        W70335  13.165   6.378   0.905
98021W        W70336  41.781   3.387   4.738
98022W        W70337  20.502  21.030  10.614
98023W        W70338  10.354  21.732   0.350
98024W        W70339  42.067  28.739   3.118
98025W        W70340   9.504  26.700   2.186
98026W        W70341  25.170   3.906   4.603
98027W        W70342  39.842  18.074   3.822
98028W        W70343  30.592  26.224  13.619
98029W        W70344  11.907  11.639  11.886
98030W        W70345  10.165   6.269   2.736
98031W        W70346  25.943  10.337  13.111
98032W        W70347   3.683  39.391   4.158
98033W        W70348  29.236   6.238   4.645
98034W        W70349  15.137  34.388   4.109
98035W        W70350  10.771  42.097  11.848
98036W        W70351  21.060  30.409  12.102
98037W        W70352   4.974   4.256   4.105
98038W        W70353  15.730  10.910   2.281
98039W        W70354  27.909   8.079  12.922
98040W        W70355  13.553  26.221   1.724
98041W        W70356  42.617  32.862  14.971
98042W        W70357  41.383  27.964  13.286
98043W        W70358  31.001  10.246   3.202
98044W        W70359  20.778  28.890   5.035
98045W        W70360   5.360  16.498   1.907
98046W        W70361  41.438  20.222  14.261
98047W        W70362  28.953  44.556  13.820
98048W        W70363   9.338  10.990   1.763
98049W        W70364  12.035   5.402  14.889
98050W        W70365   3.182  41.466   2.710
98051W        W70366  25.892  20.489  11.235
98052W        W70367  39.610  26.033  14.814
98053W        W70368   5.134  11.857  13.682
98054W        W70369   5.773  24.838   3.652
98055W        W70370  15.080  30.273   3.719
98056W        W70371  31.919  35.625  11.414
98057W        W70372  19.977  19.389   0.711
98058W        W70373  28.735   1.191  11.434
98059W        W70374  24.266  33.196   2.767
98060W        W70375  34.922  44.296  14.118
98061W        W70376  33.581  24.930   4.120
98062W        W70377   3.853  30.587   5.008
98063W        W70378  25.769  33.735   0.118
98064W        W70379  13.471  39.492   2.483
98065W        W70380  35.786   5.395  10.723
98066W        W70381  35.589   2.306  13.608
98067W        W70382  12.401   2.414   4.290
98068W        W70383  29.212  22.271  14.546
98069W        W70384  43.698  30.166  13.014
98070W        W70385  35.007  20.972   2.885
98071W        W70386  13.123  21.596  14.989
98072W        W70387   9.423  44.715   4.402
98073W        W70388  29.418  44.096  12.516
98074W        W70389  34.713  31.541  10.609
98075W        W70390   9.394  15.882  14.900
98076W        W70391  39.362  17.615   0.464
98077W        W70392   8.882  25.049  13.449
98078W        W70393  37.447  37.763  11.637
98079W        W70394   7.216  24.501  11.660
98080W        W70395  19.005  14.209   3.428
98081W        W70396   3.260   2.863   2.674
98082W        W70397   9.635  20.704   2.302
98083W        W70398   2.742  28.907   1.645
98084W        W70399  16.766  15.145  14.019
98085W        W70400   2.702   2.742  10.582
98086W        W70401  15.094   3.759   1.263
98087W        W70402  14.374   1.197  13.893
98088W        W70403   3.745   0.661   2.033
98089W        W70404  13.044  36.514  11.972
98090W        W70405   8.306  43.954   4.472
98091W        W70406  42.321  44.196   3.621
98092W        W70407  22.102  35.515  14.020
98093W        W70408  33.975   5.892  14.555
98094W        W70409   5.723   7.135   1.531
98095W        W70410  24.745  32.993  14.724
98096W        W70411  16.192  25.994   4.134
98097W        W70412   1.661  40.461  10.468
98098W        W70413  13.336  40.856  11.730
98099W        W70414   2.817  24.593   1.010
98100W        W70415   4.703  34.602  10.743
98101W        W70416  35.992   5.695   2.869
98102W        W70417  13.048  31.146  11.117
98103W        W70418  40.533   1.794   3.175
98104W        W70419  31.592  21.102   3.748
98105W        W70420  14.643  28.644  14.869
98106W        W70421  27.986  41.320   2.170
98107W        W70422   7.340  36.121   4.891
98108W        W70423  33.404  42.938   3.905
98109W        W70424  34.759  41.416   0.810
98110W        W70425  21.025  14.339   3.583
98111W        W70426  26.709  40.882  14.985
98112W        W70427  25.982  25.449   1.276
98113W        W70428  20.233  35.088   1.362
98114W        W70429  15.228  31.686   1.816
98115W        W70430   4.363   1.035   4.610
98116W        W70431  12.851  16.622  10.909
98117W        W70432   2.015  37.300   1.111
98118W        W70433  11.101  18.896   9.879
98119W        W70434  30.982   8.859   2.647
98120W        W70435  23.009  25.181  11.444
98121W        W70436   7.485   6.372  14.815
98122W        W70437  20.272  29.435   1.792
98123W        W70438  14.084  16.120   0.889
98124W        W70439  11.423   6.209  12.784
98125W        W70440  27.912  16.928  11.238
98126W        W70441  22.764  41.159   3.249
98127W        W70442   8.868   6.072   1.434
98128W        W70443  38.185  12.681  11.046
98129W        W70444  33.805  33.572   2.255
98130W        W70445  15.701   9.358   0.796
98131W        W70446  35.081  23.111  10.420
98132W        W70447   3.786   4.717  12.949
98133W        W70448  32.022  19.497  12.393
98134W        W70449  22.501  16.678   0.319
98135W        W70450  44.863  28.226  13.009
98136W        W70451  34.115  11.718  13.897
98137W        W70452  43.091   4.324  12.950
98138W        W70453   6.605   3.612  14.293
98139W        W70454  15.696  23.948  12.545
98140W        W70455   4.345  20.740   4.664
98141W        W70456   9.508  28.395  10.600
98142W        W70457  31.408  15.379  14.240
98143W        W70458  35.123   6.310  12.003
98144W        W70459   6.739  20.698  11.490
98145W        W70460  22.645  42.290  10.568
98146W        W70461   4.382   4.968   3.774
98147W        W70462  20.700   8.882  12.285
98148W        W70463  18.597  30.015  14.761
98149W        W70464  15.309  33.679   0.325
98150W        W70465   6.856  43.491  11.399
98151W        W70466  15.666  22.942   4.958
98152W        W70467  34.512  34.117  13.057
98153W        W70468  40.001  29.674   0.740
98154W        W70469  27.682   3.091   4.147
98155W        W70470  24.441   2.774   3.599
98156W        W70471  32.777  44.048  14.873
98157W        W70472  21.692  36.630  11.349
98158W        W70473  13.851  24.417  12.928
98159W        W70474  40.487   0.778  14.059
98160W        W70475  27.075  16.942   0.989
98161W        W70476   4.445  44.894  12.415
98162W        W70477  10.518  21.770  11.108
98163W        W70478   9.315  11.027  12.427
98164W        W70479   0.231  34.050   0.257
98165W        W70480  32.144   9.586  13.938
98166W        W70481   6.431  21.540   3.813
98167W        W70482  43.961  42.028  12.603
98168W        W70483  38.513  34.359   2.226
98169W        W70484   7.902   6.200   0.070
98170W        W70485  25.068  22.745   2.727
98171W        W70486  34.798  27.223  12.505
98172W        W70487  30.247   8.703  13.278
98173W        W70488   5.675  10.107   1.957
98174W        W70489   0.968  44.266  11.640
98175W        W70490  38.919  35.006   3.938
98176W        W70491  21.666  24.353   2.296
98177W        W70492  18.755   7.757   0.364
98178W        W70493  22.241  26.609   0.007
98179W        W70494  39.525  38.527   3.616
98180W        W70495  21.103  34.972   4.054
98181W        W70496  22.241   8.492  14.350
98182W        W70497  16.251  14.114  11.130
98183W        W70498  43.769   0.854  14.696
98184W        W70499   4.877   4.909  14.189
98185W        W70500  26.544  39.286  14.780
98186W        W70501   4.338  39.336   1.542
98187W        W70502  37.103   8.637   1.472
98188W        W70503  33.796   8.745   3.741
98189W        W70504  23.728  24.271   1.671
98190W        W70505  11.702  25.406  13.674
98191W        W70506  20.166  34.835  13.949
98192W        W70507  31.685   0.794   1.681
98193W        W70508  36.937   5.304  13.567
98194W        W70509  14.081  22.709  10.738
98195W        W70510  37.354  15.667  10.990
98196W        W70511  11.446  29.167   0.972
98197W        W70512   1.357  14.541  12.435
98198W        W70513   1.850  38.521   3.803
98199W        W70514  39.468  16.571  13.103
98200W        W70515   1.685  21.506   3.371
98201W        W70516  26.612   6.749  14.014
98202W        W70517  39.463  23.207  12.123
98203W        W70518  25.732  27.585   0.466
98204W        W70519  30.718  23.132   1.904
98205W        W70520  31.490  34.103   0.775
98206W        W70521   5.016  39.112  11.619
98207W        W70522  39.755  23.327   5.633
98208W        W70523  21.432   4.719  11.571
98209W        W70524  29.004  22.527   3.622
98210W        W70525  40.883  15.073  13.941
98211W        W70526  38.570  16.116   0.278
98212W        W70527  38.266  39.822   3.710
98213W        W70528  19.568  26.284  14.649
98214W        W70529  43.069   4.886   1.223
98215W        W70530  12.182  22.302  13.958
98216W        W70531   8.328  13.232  14.402
98217W        W70532  29.456  16.997  10.693
98218W        W70533  24.252  21.086   0.311
98219W        W70534  13.365  43.592  12.424
98220W        W70535  26.178  34.416  10.622
98221W        W70536  26.641  34.324  12.581
98222W        W70537  26.060  38.050  11.475
98223W        W70538  38.546  23.013  14.984
98224W        W70539   3.734  33.461  13.993
98225W        W70540   3.016  29.562  10.587
98226W        W70541  34.098  38.673   1.296
98227W        W70542  21.746   6.805  10.581
98228W        W70543  33.190   8.459   1.835
98229W        W70544  31.411  28.668  12.476
98230W        W70545  42.336  21.994   0.312
98231W        W70546  19.298   4.401   3.619
98232W        W70547   1.541  14.694  12.945
98233W        W70548  25.020  39.600   0.056
98234W        W70549  17.840  42.282  11.594
98235W        W70550  26.718  18.296  12.129
98236W        W70551   7.098   9.837  12.366
98237W        W70552   2.846  28.546   4.550
98238W        W70553  41.708  39.899  12.488
98239W        W70554   7.928  24.650   0.318
98240W        W70555  37.338  37.990   1.903
98241W        W70556  38.026  34.952   3.424
98242W        W70557  31.527  44.926   1.785
98243W        W70558  35.569   2.938   0.206
98244W        W70559  26.651  35.810  10.617
98245W        W70560   1.903  42.025   4.061
98246W        W70561  20.175  20.738  12.287
98247W        W70562   5.719  17.088  12.881
98248W        W70563   4.225   9.816  14.064
98249W        W70564  34.447  24.832   1.687
98250W        W70565  28.046   0.761  14.303
98251W        W70566  19.459  35.826   1.254
98252W        W70567   0.976   6.218  11.162
98253W        W70568   9.613  24.900   3.872
98254W        W70569  25.250  10.691  11.418
98255W        W70570  20.774  15.833   2.352
98256W        W70571  21.408  29.599  11.157
98257W        W70572  13.264   2.250  14.400
98258W        W70573  38.529  33.913   0.678
98259W        W70574  35.778  34.824   0.258
98260W        W70575  20.099  23.329   2.587
98261W        W70576  25.240  34.896  13.551
98262W        W70577  28.517  21.145   4.328
98263W        W70578  17.349   1.987  14.522
98264W        W70579   7.754  41.501  13.393
98265W        W70580  25.255  20.033  12.845
98266W        W70581  15.621  22.073   3.996
98267W        W70582  17.120  20.227   4.925
98268W        W70583  27.411  17.850   2.704
98269W        W70584  27.763  37.614  12.919
98270W        W70585  11.753  10.574   0.456
98271W        W70586  22.645   1.157  14.899
98272W        W70587  16.535   9.660   0.952
98273W        W70588   5.466  11.903  15.000
98274W        W70589  40.775  33.519   4.927
98275W        W70590  10.511  23.432   2.318
98276W        W70591  16.037  38.919   4.211
98277W        W70592  23.739   4.659  12.905
98278W        W70593  42.076  16.662   1.391
98279W        W70594  43.984   7.800  10.959
98280W        W70595  18.144  13.228   0.677
98281W        W70596  18.777  22.589   0.650
98282W        W70597  40.002  16.505   2.148
98283W        W70598  37.659   7.926   3.193
98284W        W70599  34.701   1.342   3.586
98285W        W70600  33.467  23.426  14.371
98286W        W70601  12.542  12.040   0.866
98287W        W70602  32.680   3.292   4.228
98288W        W70603   3.013  22.020   0.930
98289W        W70604  21.824  29.418   1.369
98290W        W70605  23.593  30.269  14.393
98291W        W70606  30.623  30.150  13.932
98292W        W70607  42.732  38.907   0.061
98293W        W70608  41.010  17.556  15.000
98294W        W70609   3.407  11.814   1.099
98295W        W70610  21.703   1.225  11.170
98296W        W70611  40.009  10.811   3.583
98297W        W70612  10.457  32.519   1.902
98298W        W70613  29.086  44.992   1.835
98299W        W70614  30.914   2.998   2.628
98300W        W70615   7.323  11.603  14.372
98301W        W70616  16.692  27.797   0.226
98302W        W70617  30.665  14.767  13.874
98303W        W70618   2.294  32.980   3.658
98304W        W70619  41.791  32.848  11.742
98305W        W70620   3.433   8.186   0.927
98306W        W70621  16.137  12.668   1.341
98307W        W70622  29.053  15.739   4.631
98308W        W70623  25.717  33.216   3.117
98309W        W70624  30.111   9.900   4.253
98310W        W70625  29.498   6.764  13.489
98311W        W70626  35.586  31.216   3.845
98312W        W70627  42.243   8.175  14.704
98313W        W70628  36.295  22.016  12.459
98314W        W70629  35.322   5.789   2.341
98315W        W70630  31.520  11.558  13.429
98316W        W70631  39.321  10.752   2.957
98317W        W70632   7.004   6.890  12.387
98318W        W70633   7.469  35.020  13.897
98319W        W70634  33.627  43.411  11.356
98320W        W70635  43.273  32.728  12.457
98321W        W70636  11.728   9.105   0.032
98322W        W70637   3.219  23.513  11.109
98323W        W70638  24.215  10.208   0.847
98324W        W70639   3.761  37.125  12.973
98325W        W70640  14.286  15.787   4.138
98326W        W70641  31.873   3.165   1.389
98327W        W70642  42.402  11.847   4.992
98328W        W70643  23.494  43.787   1.842
98329W        W70644  44.921  16.372  12.253
98330W        W70645  41.917  42.766   1.882
98331W        W70646  39.749  23.562  11.105
98332W        W70647  26.648  37.396   2.604
98333W        W70648  37.128  35.559   0.961
98334W        W70649   1.993  28.975   1.898
98335W        W70650  18.748  32.492  13.102
98336W        W70651  27.648  34.484  10.582
98337W        W70652  35.925  23.214  13.424
98338W        W70653  18.360  29.973  11.983
98339W        W70654  18.825  30.239   5.594
98340W        W70655  41.075   2.033  10.899
98341W        W70656  32.394  12.152  12.631
98342W        W70657   0.798  40.894  14.758
98343W        W70658  14.161  25.645  10.581
98344W        W70659  37.855  31.940  11.437
98345W        W70660   0.214  37.852  12.366
98346W        W70661   0.724   3.184   2.850
98347W        W70662   7.984  44.315   5.549
98348W        W70663  25.509  22.938  12.536
98349W        W70664  20.832  38.586  14.891
98350W        W70665  17.351  21.522  13.819
98351W        W70666  42.278  26.537   2.129
98352W        W70667  20.230  24.080  11.832
98353W        W70668  14.787  19.516   2.768
98354W        W70669  23.953  39.068   3.706
98355W        W70670   2.188  34.081   4.439
98356W        W70671  24.012  38.736   0.519
98357W        W70672   5.895   3.212   3.157
98358W        W70673  19.880  39.723   5.506
98359W        W70674  23.105   7.880   4.160
98360W        W70675   4.604  29.003  10.143
98361W        W70676   8.303  27.660   4.628
98362W        W70677   9.995   0.430   3.948
98363W        W70678  21.005  21.078   2.710
98364W        W70679  16.207  18.037   2.385
98365W        W70680  21.067   9.131  12.972
98366W        W70681  33.855  39.018   2.609
98367W        W70682  32.692  24.901  10.972
98368W        W70683  27.965  16.591  11.635
98369W        W70684  14.273  29.461  11.615
98370W        W70685   1.214  37.316  13.023
98371W        W70686  24.537   7.101   0.534
98372W        W70687  21.794  10.192   4.311
98373W        W70688   9.349  22.632  14.508
98374W        W70689  37.847   7.383   2.136
98375W        W70690  43.944  13.587   0.431
98376W        W70691  43.454  26.603  10.731
98377W        W70692  25.982  12.862  12.325
98378W        W70693  16.269   8.876  10.726
98379W        W70694  25.552   5.212   2.224
98380W        W70695  14.745   7.699   3.247
98381W        W70696  23.337  16.133   1.718
98382W        W70697   7.687  38.302   1.707
98383W        W70698  41.425  19.695  13.886
98384W        W70699  31.935  40.945   0.925
98385W        W70700  26.469  24.864   2.175
98386W        W70701  35.312  26.443  10.570
98387W        W70702  19.137  35.478   3.231
98388W        W70703  11.148  35.446   2.361
98389W        W70704  26.429  32.352   2.148
98390W        W70705   8.280   8.543  14.809
98391W        W70706  43.961  32.737  13.446
98392W        W70707  40.409  25.570  13.801
98393W        W70708  23.712  35.440   1.161
98394W        W70709  12.106  19.684  13.524
98395W        W70710   2.051  24.074  14.993
98396W        W70711  38.906  13.045  12.383
98397W        W70712  23.072  33.125   3.602
98398W        W70713  18.649  17.306   0.693
98399W        W70714  30.250  40.851  13.937
98400W        W70715   9.975  27.165   3.901
98401W        W70716   8.854  31.159   4.166
98402W        W70717  38.282  26.755   3.823
98403W        W70718  20.250  27.980   3.567
98404W        W70719  38.464  11.072   3.276
98405W        W70720  36.435  30.211  12.101
98406W        W70721  22.789  37.756  12.939
98407W        W70722  38.370   4.603  13.976
98408W        W70723  32.181  16.642   4.569
98409W        W70724  23.730  31.368  10.854
98410W        W70725   1.503   5.884  12.949
98411W        W70726  31.144   9.283   0.839
98412W        W70727   4.707  29.590  14.944
98413W        W70728  11.792  14.129  10.710
98414W        W70729   7.842  13.816  10.650
98415W        W70730   5.403   6.353   2.126
98416W        W70731  38.038   8.265   0.457
98417W        W70732  26.735  34.513  12.097
98418W        W70733  12.562  32.794  11.560
98419W        W70734   1.697   7.361   0.812
98420W        W70735  10.401  36.566   0.519
98421W        W70736  34.708  41.758  10.608
98422W        W70737  41.280  36.942  13.750
98423W        W70738   0.950   3.426   1.988
98424W        W70739   8.337  15.450   4.129
98425W        W70740  30.834  33.897  11.315
98426W        W70741  20.032  36.264  11.105
98427W        W70742  18.674  17.773   2.329
98428W        W70743  13.185  31.196  14.791
98429W        W70744  37.358  44.950   4.678
98430W        W70745  20.765  25.554  14.856
98431W        W70746  41.090   6.217  11.157
98432W        W70747  38.904  27.453   3.720
98433W        W70748  18.795  40.268  13.348
98434W        W70749  23.783  39.468   2.817
98435W        W70750   6.709  23.542   3.841
98436W        W70751  15.690  35.935   0.675
98437W        W70752   4.019  35.937   4.566
98438W        W70753  27.940   1.139   1.622
98439W        W70754  12.080  30.587  11.500
98440W        W70755  33.550  15.009   2.304
98441W        W70756  23.094   4.072  13.162
98442W        W70757   6.059  32.303   0.412
98443W        W70758  26.627  27.669  12.629
98444W        W70759  16.634  15.265  14.530
98445W        W70760  29.926  23.676   3.994
98446W        W70761  29.432  27.866  13.011
98447W        W70762  35.942   7.297   1.129
98448W        W70763  10.786  31.710   1.404
98449W        W70764  28.222  28.452  13.927
98450W        W70765  37.522  23.196   1.885
98451W        W70766  15.750   0.231  11.023
98452W        W70767  35.300  16.698   2.406
98453W        W70768  13.189  19.455  12.159
98454W        W70769  40.204   4.814   1.812
98455W        W70770  36.319   1.969  14.768
98456W        W70771  43.979  44.754   4.045
98457W        W70772  36.336   6.061   1.732
98458W        W70773  39.828  12.787   1.243
98459W        W70774  28.013  44.911   4.865
98460W        W70775  12.177   9.634  13.091
98461W        W70776   0.677  44.664   9.718
98462W        W70777  23.576  39.382  14.713
98463W        W70778  39.345  16.055  12.172
98464W        W70779  30.110  43.856  14.919
98465W        W70780  20.024   5.330  11.596
98466W        W70781  35.569  27.900  14.578
98467W        W70782  38.849  32.772   4.504
98468W        W70783  18.655   7.506  11.675
98469W        W70784  17.273  36.370  11.937
98470W        W70785  38.900   9.423  13.382
98471W        W70786   2.657   2.261  12.891
98472W        W70787  18.118  28.986  12.162
98473W        W70788  26.299  39.420  11.621
98474W        W70789  26.078  39.651  10.768
98475W        W70790   5.795  23.396   0.771
98476W        W70791  20.113  43.865  10.669
98477W        W70792  24.066  34.087   0.954
98478W        W70793   0.873  35.213   1.525
98479W        W70794  12.003   4.105   4.266
98480W        W70795  15.243  10.646   2.319
98481W        W70796  33.978  32.443  14.082
98482W        W70797   3.913  31.876   3.690
98483W        W70798  18.993  30.104   5.113
98484W        W70799   3.537  32.368  14.463
98485W        W70800  43.797   4.360  10.785
98486W        W70801  42.363  32.521   1.708
98487W        W70802  14.023  40.552  13.774
98488W        W70803  42.905   5.871   0.212
98489W        W70804  20.767  10.728  13.582
98490W        W70805  27.707  39.905   4.308
98491W        W70806  24.018  41.631  10.323
98492W        W70807   9.689  30.413   3.480
98493W        W70808  12.187  23.984  13.309
98494W        W70809   4.474  38.621  12.355
98495W        W70810  18.148  30.881  11.057
98496W        W70811  44.215  21.992   2.342
98497W        W70812  10.257  34.545  12.728
98498W        W70813  13.297  14.787  12.541
98499W        W70814  36.879  14.972  14.434
98500W        W70815  29.898   5.725  11.717
98501W        W70816  37.781  44.486  13.055
98502W        W70817   2.737  13.658  14.408
98503W        W70818  32.016  34.940   4.595
98504W        W70819  29.351   9.452  12.458
98505W        W70820  34.021  39.596   3.671
98506W        W70821  41.510  26.185  14.460
98507W        W70822  12.735   6.219  13.562
98508W        W70823  42.894  17.449   2.159
98509W        W70824  21.725  33.970   4.663
98510W        W70825  35.455  28.911  13.169
98511W        W70826  29.609   0.121  14.772
98512W        W70827  27.186  11.330   0.524
98513W        W70828  27.423  18.793  12.033
98514W        W70829   5.187  36.914  11.615
98515W        W70830   7.385   2.374   0.251
98516W        W70831  28.473  41.019  10.472
98517W        W70832   9.883  25.200  14.612
98518W        W70833  40.244   5.915   4.747
98519W        W70834  14.904  21.724  13.187
98520W        W70835   2.998  14.587   0.876
98521W        W70836   5.960  16.863   2.694
98522W        W70837  22.964  41.843   4.501
98523W        W70838  40.373  22.013   4.221
98524W        W70839  24.675  22.194  14.856
98525W        W70840  40.096  17.169  10.679
98526W        W70841  40.560  14.335   1.722
98527W        W70842  35.440  13.261   0.388
98528W        W70843  26.404   1.289   1.833
98529W        W70844  11.862  22.979  14.066
98530W        W70845   0.276   3.402   3.660
98531W        W70846  37.865  36.215   4.889
98532W        W70847  44.891  31.971  13.186
98533W        W70848  41.194  30.084   2.297
98534W        W70849  44.748  20.235  14.837
98535W        W70850  42.237  29.959   2.875
98536W        W70851  13.535  23.247   3.721
98537W        W70852  16.023  12.117  10.969
98538W        W70853  12.033   9.604  10.636
98539W        W70854   4.290  20.951  13.102
98540W        W70855  33.145   5.791  11.075
98541W        W70856  44.326  37.091  12.104
98542W        W70857  33.346  20.041   4.675
98543W        W70858  17.849  37.871   4.086
98544W        W70859  21.931  14.796  13.458
98545W        W70860  16.812   9.647  10.267
98546W        W70861   7.410   5.833  10.653
98547W        W70862  30.197   8.302  14.086
98548W        W70863  40.943  10.158  10.272
98549W        W70864  18.161  31.454   4.562
98550W        W70865  26.770  42.924   2.341
98551W        W70866  29.879   7.987  12.027
98552W        W70867  40.079  11.758  12.040
98553W        W70868  38.361  11.438  12.571
98554W        W70869  19.551  27.596  14.707
98555W        W70870  28.433  34.914  10.927
98556W        W70871  24.538  20.429   4.740
98557W        W70872  14.385   2.881   4.162
98558W        W70873  33.996   9.594  10.866
98559W        W70874  21.463  30.714   4.177
98560W        W70875  25.639  41.793  14.110
98561W        W70876  32.211   1.784   0.333
98562W        W70877  38.246   1.510  14.807
98563W        W70878  27.995  31.805   5.504
98564W        W70879   2.179  43.472   0.299
98565W        W70880  39.399   8.843  12.863
98566W        W70881  27.114  14.549   1.368
98567W        W70882  18.804  18.583   1.304
98568W        W70883  32.016  40.794  11.506
98569W        W70884  44.990  40.039  11.981
98570W        W70885  20.062  34.297  11.177
98571W        W70886  20.291  44.425  11.225
98572W        W70887  12.376  38.487  11.685
98573W        W70888  41.658  15.712  11.230
98574W        W70889  24.954  30.971  11.078
98575W        W70890   3.805   6.279   4.307
98576W        W70891   9.601  25.304  12.025
98577W        W70892  29.132  32.450   0.137
98578W        W70893   2.911  26.203  12.925
98579W        W70894  40.310  43.437  13.916
98580W        W70895   8.525   7.811  13.100
98581W        W70896  28.023  31.443  11.879
98582W        W70897  28.614   4.934   3.689
98583W        W70898  37.325  31.033   4.519
98584W        W70899  19.192   8.789   1.312
98585W        W70900  28.965  17.051   3.679
98586W        W70901  23.549   8.616   4.309
98587W        W70902  14.862  32.610  13.113
98588W        W70903  31.547   4.697   1.863
98589W        W70904  14.777  17.834  12.328
98590W        W70905   4.621  23.990   0.260
98591W        W70906  17.791  25.009  13.995
98592W        W70907  27.519  11.212  12.903
98593W        W70908  26.108  36.973   3.153
98594W        W70909  40.129   4.073   2.789
98595W        W70910   7.594   9.846  10.445
98596W        W70911  19.658   9.738   2.746
98597W        W70912  14.607  22.480  14.339
98598W        W70913  21.679  38.074   3.767
98599W        W70914  16.089  16.836  12.902
98600W        W70915  20.063  23.742   0.085
98601W        W70916  19.345  24.819  12.767
98602W        W70917  27.497  12.339   1.460
98603W        W70918  28.371  43.925   1.404
98604W        W70919   3.805   3.106  12.929
98605W        W70920  41.156   7.951  14.418
98606W        W70921   3.661  44.496   0.908
98607W        W70922   1.883  19.538   3.651
98608W        W70923  27.941  40.995  14.420
98609W        W70924  11.898  19.794  10.530
98610W        W70925   5.705  18.949  14.009
98611W        W70926  35.949  20.179   1.893
98612W        W70927  38.351  22.652  11.798
98613W        W70928  42.461   2.385   4.207
98614W        W70929  15.767   7.483   0.410
98615W        W70930  11.366  36.086  14.902
98616W        W70931  25.711  19.698   3.841
98617W        W70932   6.191  32.860  14.215
98618W        W70933   4.515  16.683   3.789
98619W        W70934   2.237   3.341   1.428
98620W        W70935  41.456  29.939  11.482
98621W        W70936  26.520  22.769   4.143
98622W        W70937  28.447  34.641   0.956
98623W        W70938  13.186   4.888   4.559
98624W        W70939  13.824  27.704   2.797
98625W        W70940  33.975  16.813   3.132
98626W        W70941  34.797  12.551  11.694
98627W        W70942   7.284  28.035  11.432
98628W        W70943   0.779   3.381   3.367
98629W        W70944  16.427  41.059   5.511
98630W        W70945  44.444  31.978   0.831
98631W        W70946  26.735  30.069  12.021
98632W        W70947  31.834  36.868  11.762
98633W        W70948  14.221  43.533  11.999
98634W        W70949  13.553  12.751   0.984
98635W        W70950  34.878  23.251   0.825
98636W        W70951  25.639  19.738   4.738
98637W        W70952  24.922   6.208   3.849
98638W        W70953  33.920  43.963   3.105
98639W        W70954   9.837   2.920  13.583
98640W        W70955  40.712  34.870   3.115
98641W        W70956  21.820   4.103  13.371
98642W        W70957   9.930  26.152   0.821
98643W        W70958  18.024  25.203  13.553
98644W        W70959  25.666  34.320  10.449
98645W        W70960  18.471   9.071  10.077
98646W        W70961  29.114   9.236   3.599
98647W        W70962   5.159  31.809  14.028
98648W        W70963  11.627  40.356   0.278
98649W        W70964  37.403  13.599  14.372
98650W        W70965   9.010   9.125  11.599
98651W        W70966   1.205  35.905   2.747
98652W        W70967  21.102  25.214  10.706
98653W        W70968  18.786  21.041  12.660
98654W        W70969  28.668  39.130  11.526
98655W        W70970  27.535  33.911   4.999
98656W        W70971  10.231  11.258   1.181
98657W        W70972   8.286  25.694   0.796
98658W        W70973  13.048   5.777   1.758
98659W        W70974  37.315   0.525   3.726
98660W        W70975   2.357  43.889   2.939
98661W        W70976  19.994   4.308  11.708
98662W        W70977  19.071  29.205   0.397
98663W        W70978  16.803  24.140  10.701
98664W        W70979  28.601  31.857  13.285
98665W        W70980   9.862  16.870  12.490
98666W        W70981  21.172  31.964  13.492
98667W        W70982  40.156  13.003  12.052
98668W        W70983   9.879  16.154  13.972
98669W        W70984  37.978  36.827   2.546
98670W        W70985  30.316  25.694   1.691
98671W        W70986   6.376  12.558   1.388
98672W        W70987  43.448   8.942   4.179
98673W        W70988  17.280  36.470   3.401
98674W        W70989  20.704  38.028  12.887
98675W        W70990   7.345  10.470   2.279
98676W        W70991  34.623   9.349   2.388
98677W        W70992   6.822  38.638   0.415
98678W        W70993  10.720  29.657  14.359
98679W        W70994   3.353  44.754  12.098
98680W        W70995  35.062  33.911   2.016
98681W        W70996  19.088  30.654  10.546
98682W        W70997   1.179  39.598   4.036
98683W        W70998  24.979  16.560   2.738
98684W        W70999  35.290  36.132   4.616
98685W        W71000  16.556  18.712  13.569
98686W        W71001   3.659  38.784   4.642
98687W        W71002   7.889   0.936  11.922
98688W        W71003   9.241  35.262  11.299
98689W        W71004   1.077   9.871  11.492
98690W        W71005  38.020   9.748   3.567
98691W        W71006  12.397  44.364   3.716
98692W        W71007  11.021   2.257   0.301
98693W        W71008  31.913  25.535  11.874
98694W        W71009  16.720  32.592  10.645
98695W        W71010  20.738  22.760   2.266
98696W        W71011   8.130  10.861   0.906
98697W        W71012  32.065  10.638   1.161
98698W        W71013  31.099   0.299   1.058
98699W        W71014  20.124  31.476  13.938
98700W        W71015   6.600   0.046  13.957
98701W        W71016  17.140  12.865  14.962
98702W        W71017   1.502  37.469   4.130
98703W        W71018  38.090  31.585  14.344
98704W        W71019  36.020  41.206   4.373
98705W        W71020  19.973  26.471  14.349
98706W        W71021  15.263  32.253   0.301
98707W        W71022  43.769  33.218  14.985
98708W        W71023  41.995  32.346   2.724
98709W        W71024  21.516   3.874  13.031
98710W        W71025  40.743  42.899   4.606
98711W        W71026  14.346  40.481   0.331
98712W        W71027  22.238  11.304  12.022
98713W        W71028   4.749   3.090   5.177
98714W        W71029  10.646  30.131  12.669
98715W        W71030   1.317  32.077   1.939
98716W        W71031  35.788  28.748  11.530
98717W        W71032  37.369  12.235  11.125
98718W        W71033  10.417  39.581   0.029
98719W        W71034  10.224  18.345   1.649
98720W        W71035   2.797  15.208   2.776
98721W        W71036   1.909  33.562  14.575
98722W        W71037  27.631   8.125  12.479
98723W        W71038  12.853  20.812  12.070
98724W        W71039  26.189  11.895   3.148
98725W        W71040  25.647  21.277   5.476
98726W        W71041  23.090  35.076  13.816
98727W        W71042   2.012  30.541   4.022
98728W        W71043  42.434  41.803   2.059
98729W        W71044   6.851  19.744   1.638
98730W        W71045   6.879  43.290   0.009
98731W        W71046   0.104   0.462   3.683
98732W        W71047  12.223  28.523   1.982
98733W        W71048  17.567  44.533  14.312
98734W        W71049  24.748  24.766  13.699
98735W        W71050  22.607  16.677  14.355
98736W        W71051  30.611  14.470  11.753
98737W        W71052  41.464  29.220  13.976
98738W        W71053  35.057  24.695   2.797
98739W        W71054   1.306  12.586   3.273
98740W        W71055  19.181   5.386  11.936
98741W        W71056  26.541  10.105   0.743
98742W        W71057  10.336  27.585  11.902
98743W        W71058  21.164   4.055   0.305
98744W        W71059  30.784  25.575  14.890
98745W        W71060   1.412  21.954   1.198
98746W        W71061  37.969  34.950  14.365
98747W        W71062  19.719   8.762   2.226
98748W        W71063  10.999  23.737   3.580
98749W        W71064  26.473  18.314   1.665
98750W        W71065  22.215  40.906   1.813
98751W        W71066  36.080  31.852   0.856
98752W        W71067  31.796   9.200  14.025
98753W        W71068  25.700  27.178  10.657
98754W        W71069  32.030  14.092  10.043
98755W        W71070   5.643   5.322   0.522
98756W        W71071  35.396  32.420  13.864
98757W        W71072  34.913  20.932  11.694
98758W        W71073  27.648  27.838  14.523
98759W        W71074  23.073  43.055  14.216
98760W        W71075  13.164  24.238  13.510
98761W        W71076  11.389  10.205   4.659
98762W        W71077  21.452   3.436   3.850
98763W        W71078   7.748  33.334   1.743
98764W        W71079  13.441  34.664  13.611
98765W        W71080  20.483   0.736  12.049
98766W        W71081  27.047  23.208   2.996
98767W        W71082   7.287  32.913   2.412
98768W        W71083  15.601  39.367  13.618
98769W        W71084   3.331  11.170  13.450
98770W        W71085   2.706  30.839  11.120
98771W        W71086   1.875  10.723   1.908
98772W        W71087   7.426  33.701  11.605
98773W        W71088  17.761   5.321   0.186
98774W        W71089  17.829  29.030   2.746
98775W        W71090  11.732  10.711   3.579
98776W        W71091  34.177   1.241  12.485
98777W        W71092  16.373  31.475   4.516
98778W        W71093  22.089  22.264  10.209
98779W        W71094   9.319  44.741  11.098
98780W        W71095   8.881  31.384  11.613
98781W        W71096  33.823  22.342  10.968
98782W        W71097  14.878   4.211   4.115
98783W        W71098  26.021  43.123  14.096
98784W        W71099   3.900  15.120  11.465
98785W        W71100  24.309   6.920  14.170
98786W        W71101   3.978  34.707   4.164
98787W        W71102  24.511   6.916   3.242
98788W        W71103  44.293   3.176   0.475
98789W        W71104  42.261  25.967   4.455
98790W        W71105  20.152   1.933  14.905
98791W        W71106  39.020  16.139  11.383
98792W        W71107  22.551  29.880  10.747
98793W        W71108  30.659  14.332   0.285
98794W        W71109   0.288   6.672   0.061
98795W        W71110  28.102   4.657  14.463
98796W        W71111  14.406  17.684   1.854
98797W        W71112   5.452   3.476   4.094
98798W        W71113   1.827   7.636  10.685
98799W        W71114  31.586   9.359  10.525
98800W        W71115   0.365   5.364  11.292
98801W        W71116  21.765   6.226  12.439
98802W        W71117  26.196   6.595  14.294
98803W        W71118   5.624  40.205   4.699
98804W        W71119  28.180   8.672   1.768
98805W        W71120  14.853  15.995   4.923
98806W        W71121  32.047   8.024   2.380
98807W        W71122  44.806   0.702   4.530
98808W        W71123  38.814   4.044  11.420
98809W        W71124  43.262  32.888   4.546
98810W        W71125   5.686  36.102  14.020
98811W        W71126  31.608  25.970   3.336
98812W        W71127   1.906  30.747  12.934
98813W        W71128  11.899  40.046   1.777
98814W        W71129  32.856  43.695   2.063
98815W        W71130  24.034  22.666  13.851
98816W        W71131  30.263   3.925   0.837
98817W        W71132   9.209  12.135   4.603
98818W        W71133  10.766   1.684   1.647
98819W        W71134   4.700  24.608   4.176
98820W        W71135   9.818  22.161  10.641
98821W        W71136   4.783  38.655  11.573
98822W        W71137  16.291   8.284   4.122
98823W        W71138  37.332   1.875  14.650
98824W        W71139   0.001  34.997   3.294
98825W        W71140  23.701  25.433   2.305
98826W        W71141  34.310   4.466  13.309
98827W        W71142  31.560  13.856   2.850
98828W        W71143  32.123   1.001   0.796
98829W        W71144  11.509  30.420  10.627
98830W        W71145   8.176  36.390  12.898
98831W        W71146  42.374  23.372  14.220
98832W        W71147  26.435  28.067  13.953
98833W        W71148   3.979  23.800   1.241
98834W        W71149  10.204  18.833   9.807
98835W        W71150  22.506  24.586   0.343
98836W        W71151  14.076  31.101  11.143
98837W        W71152  23.088  19.717   9.790
98838W        W71153  42.942   2.410  11.744
98839W        W71154  15.238  41.282   2.864
98840W        W71155  21.510   9.286  14.335
98841W        W71156   3.885  34.138   2.692
98842W        W71157  12.183  31.452  11.184
98843W        W71158  19.599  44.793   5.151
98844W        W71159  19.089  27.395   2.358
98845W        W71160  27.231  39.934  12.029
98846W        W71161   1.860  37.829   2.656
98847W        W71162  14.570  35.450  11.486
98848W        W71163  44.890   2.845   1.027
98849W        W71164   2.665  21.053  12.627
98850W        W71165  43.115  26.934   0.486
98851W        W71166  26.054  25.149   3.629
98852W        W71167   0.520  30.408   1.667
98853W        W71168   5.375  22.608   4.155
98854W        W71169  15.770  27.099   1.858
98855W        W71170  39.472  21.030   0.928
98856W        W71171  25.743  26.370   1.937
98857W        W71172  36.097   0.569  14.050
98858W        W71173  40.909   2.299   0.173
98859W        W71174  15.601  41.383  10.799
98860W        W71175  27.409  26.875  12.780
98861W        W71176  32.892  15.678  11.980
98862W        W71177  34.438  28.455   1.895
98863W        W71178  23.427   9.632   3.814
98864W        W71179  13.617  39.969  12.360
98865W        W71180  39.286  38.532  11.553
98866W        W71181  38.624  38.039   0.913
98867W        W71182  17.557  38.082  10.309
98868W        W71183  21.678  29.769   0.333
98869W        W71184  22.218  34.598  10.348
98870W        W71185  19.004  36.882   1.723
98871W        W71186   0.240  34.573   1.861
98872W        W71187  37.847   6.572  12.312
98873W        W71188  24.167  14.472   2.651
98874W        W71189  38.065  37.114   3.958
98875W        W71190  31.305  20.697   2.879
98876W        W71191  18.256  44.422  11.015
98877W        W71192   7.267  38.357  14.500
98878W        W71193  39.585  16.603   0.053
98879W        W71194  18.588  40.620   4.482
98880W        W71195  29.986  38.796   3.125
98881W        W71196  30.672  40.425  12.893
98882W        W71197  14.617   7.136  13.289
98883W        W71198  34.644  39.045   0.230
98884W        W71199  38.184   1.673   2.827
98885W        W71200  30.473   3.654   3.354
98886W        W71201  42.499  14.964   0.906
98887W        W71202  34.153  25.233   1.498
98888W        W71203  43.392  41.880  14.485
98889W        W71204   9.655  18.241  13.442
98890W        W71205  23.744   2.979   2.868
98891W        W71206  31.594  21.675  10.600
98892W        W71207  13.008  14.360   4.631
98893W        W71208  27.502  15.308  11.239
98894W        W71209  39.393  19.731   4.028
98895W        W71210  22.165  17.647   1.327
98896W        W71211  20.774  43.826   4.188
98897W        W71212  20.279  33.030   1.337
98898W        W71213  26.953  30.580  12.443
98899W        W71214  39.091  15.421   0.219
98900W        W71215  27.480  12.889   0.822
98901W        W71216  22.095  42.157  13.153
98902W        W71217   0.883  27.122   3.994
98903W        W71218  36.846   2.385   3.791
98904W        W71219  32.560  33.446   0.839
98905W        W71220  36.774  33.863   2.495
98906W        W71221  34.673  20.231  13.558
98907W        W71222   9.485   9.177  11.935
98908W        W71223  43.399  24.972   2.281
98909W        W71224  16.579  12.317   2.680
98910W        W71225  19.427  20.112  10.511
98911W        W71226  12.461  36.607   1.643
98912W        W71227  10.226  29.414  11.218
98913W        W71228  44.603  36.768  11.469
98914W        W71229   9.369  33.210  13.786
98915W        W71230  26.630  23.645  12.126
98916W        W71231   3.704  36.686  11.078
98917W        W71232   6.583   4.890  13.892
98918W        W71233  37.813  12.884  12.308
98919W        W71234  24.258  31.997  14.338
98920W        W71235  43.497  19.981  12.517
98921W        W71236  36.937  41.632   0.623
98922W        W71237  41.910  38.436   1.866
98923W        W71238  22.128  20.392   4.834
98924W        W71239  30.289  29.201   4.511
98925W        W71240  25.147  13.922  12.507
98926W        W71241   7.900  27.459   1.613
98927W        W71242   8.378  10.124   1.359
98928W        W71243   9.951  22.700  12.356
98929W        W71244   4.402  22.148  14.367
98930W        W71245  21.835  33.757  12.094
98931W        W71246  10.886  31.381   0.453
98932W        W71247  35.518  22.991  10.672
98933W        W71248  12.178  22.028  13.492
98934W        W71249  33.642  27.075   1.751
98935W        W71250  26.714  18.233   2.670
98936W        W71251   1.708  24.502  10.687
98937W        W71252  26.416  16.803   5.016
98938W        W71253  36.524  33.605   4.141
98939W        W71254  38.876  13.180   1.881
98940W        W71255  17.556  35.057  12.548
98941W        W71256  33.470  33.756  14.020
98942W        W71257   1.355  21.324  11.967
98943W        W71258  11.571  27.968   4.628
98944W        W71259   7.506  35.199  10.926
98945W        W71260  25.219  41.925  12.318
98946W        W71261   6.832  12.603  14.850
98947W        W71262  20.736  34.518  12.802
98948W        W71263  24.250  22.689  12.813
98949W        W71264  20.687  24.453  12.684
98950W        W71265  12.655   1.926   4.588
98951W        W71266  21.426   7.293  13.464
98952W        W71267  33.542  26.501  10.393
98953W        W71268  20.309  24.667   2.328
98954W        W71269  17.633   3.882   4.210
98955W        W71270  12.245   7.295  11.698
98956W        W71271  22.658   9.960  12.993
98957W        W71272  10.981  20.056  13.922
98958W        W71273   3.821  36.361   4.810
98959W        W71274  34.685  19.693  13.960
98960W        W71275  17.245  36.067   0.775
98961W        W71276  30.894  28.067   3.691
98962W        W71277  26.303   0.006  12.575
98963W        W71278  20.700  27.501  10.411
98964W        W71279  40.086   4.279   3.982
98965W        W71280  11.635  22.489  12.954
98966W        W71281  11.816  41.733   3.872
98967W        W71282   4.080  37.936   1.766
98968W        W71283  10.317   3.283   4.851
98969W        W71284   9.697  27.789  12.941
98970W        W71285  17.865  24.949  11.008
98971W        W71286  28.413  17.588  13.770
98972W        W71287   0.711  41.284  13.111
98973W        W71288   8.321  31.912   2.872
98974W        W71289  24.569  16.720  10.762
98975W        W71290  15.335  39.939   0.470
98976W        W71291  22.504  44.742  14.786
98977W        W71292  37.352  14.679  10.483
98978W        W71293   8.019  44.281   4.767
98979W        W71294   3.139  34.837  13.570
98980W        W71295  25.504  29.610   3.544
98981W        W71296  39.026  11.858  11.289
98982W        W71297  14.376  26.089  12.999
98983W        W71298  17.260  10.594   4.165
98984W        W71299  35.404  27.047  13.664
98985W        W71300  43.798   2.058  14.501
98986W        W71301  42.965  36.882   3.664
98987W        W71302  10.101  37.106   1.420
98988W        W71303   4.681  14.805  11.681
98989W        W71304  21.097  24.466   0.755
98990W        W71305  38.431  41.915  10.922
98991W        W71306  16.283  28.824   3.240
98992W        W71307  26.678   1.976   4.936
98993W        W71308  31.173  26.095   1.059
98994W        W71309  23.983  44.877   3.782
98995W        W71310  17.225  21.664  11.540
98996W        W71311  28.452   2.791   2.727
98997W        W71312  15.951  21.361  11.586
98998W        W71313  13.661   9.289   0.120
98999W        W71314  18.491   7.219  11.283
99000W        W71315   5.245   3.922   3.324
99001W        W71316   4.621  10.601  13.161
99002W        W71317  19.737   2.271  11.527
99003W        W71318  42.563  30.172  10.732
99004W        W71319  16.118  17.190   1.042
99005W        W71320  15.104  37.447  14.564
99006W        W71321  23.605  15.113   1.734
99007W        W71322  19.070  42.471   4.134
99008W        W71323  23.944  26.878  13.402
99009W        W71324  12.037  16.809  13.970
99010W        W71325  36.865  37.566   2.206
99011W        W71326  20.866  12.321   0.796
99012W        W71327  28.897  30.563   3.311
99013W        W71328   5.719  10.279   4.221
99014W        W71329  35.961   2.282  14.982
99015W        W71330  12.111  38.817  13.095
99016W        W71331   7.223  17.921   1.526
99017W        W71332  28.420  34.726   1.604
99018W        W71333  38.664   7.174   3.974
99019W        W71334  11.617  22.599   3.083
99020W        W71335  28.920  18.077  14.775
99021W        W71336  18.857  43.314   2.366
99022W        W71337  41.294  22.747  11.594
99023W        W71338  22.144  21.994   1.311
99024W        W71339  44.381  11.242  12.393
99025W        W71340  21.657  34.788   0.030
99026W        W71341  11.221  43.417  14.398
99027W        W71342  31.938  25.437  12.974
99028W        W71343  42.064  19.291   2.396
99029W        W71344   2.318  18.569  12.465
99030W        W71345  13.703   5.706  11.581
99031W        W71346   1.429   1.303   1.761
99032W        W71347  38.862  22.943   5.700
99033W        W71348  35.762   8.269  11.679
99034W        W71349  17.162  14.172  11.131
99035W        W71350  28.800  36.775  12.934
99036W        W71351  29.686  39.307  12.950
99037W        W71352  21.442  12.808  14.289
99038W        W71353  16.268  34.283  13.949
99039W        W71354  10.887   9.797  14.421
99040W        W71355  39.770  14.987   1.333
99041W        W71356  28.966  10.790  12.654
99042W        W71357  33.488  37.289  14.180
99043W        W71358  40.232  26.235  13.156
99044W        W71359  36.975  29.772   2.794
99045W        W71360   5.821  30.320  13.541
99046W        W71361  23.107  24.184  12.499
99047W        W71362  35.848  10.855   0.862
99048W        W71363  22.971   9.690   0.724
99049W        W71364  21.558   8.976  12.966
99050W        W71365   2.155  40.898   0.317
99051W        W71366  42.971  15.773  10.683
99052W        W71367  18.442  31.215  13.961
99053W        W71368   5.978  22.951   3.179
99054W        W71369  34.217  22.121   3.899
99055W        W71370  35.024  27.806   3.688
99056W        W71371  18.548  35.010  11.469
99057W        W71372  32.192  33.853  12.459
99058W        W71373  26.601  41.408  11.450
99059W        W71374   6.648  20.541   4.893
99060W        W71375  20.936   7.191  13.644
99061W        W71376  35.986   5.239  11.916
99062W        W71377  14.527   7.985  12.973
99063W        W71378  28.656  26.880  14.876
99064W        W71379   5.704  39.305   3.590
99065W        W71380  14.719  24.327   3.218
99066W        W71381   3.179  32.918  11.400
99067W        W71382  16.988  31.003   4.863
99068W        W71383  23.146  30.848   3.364
99069W        W71384   4.696  15.168   3.631
99070W        W71385  40.524   6.043  12.020
99071W        W71386  41.030  44.922   3.990
99072W        W71387  19.112  19.061   1.234
99073W        W71388  29.200  12.132  13.977
99074W        W71389   4.815  34.044   2.411
99075W        W71390  20.443   8.354   4.790
99076W        W71391  16.171  26.468   1.447
99077W        W71392  13.091  38.033  11.534
99078W        W71393  24.793  29.824   3.159
99079W        W71394   9.475   4.796   3.278
99080W        W71395  38.296  11.942  14.989
99081W        W71396  13.202  39.968  14.301
99082W        W71397   9.304  34.840  12.866
99083W        W71398  37.498  13.537  10.996
99084W        W71399   3.052  34.936   3.602
99085W        W71400  30.131   2.461   4.809
99086W        W71401  43.967  19.966   1.672
99087W        W71402  17.909  31.017   0.644
99088W        W71403   3.372   7.342  11.303
99089W        W71404  37.957  22.991   0.953
99090W        W71405  20.068  38.607   4.570
99091W        W71406  36.637   7.946   4.090
99092W        W71407  41.527  24.993  14.011
99093W        W71408   2.550  39.448   2.268
99094W        W71409  35.450  17.679   4.723
99095W        W71410   0.463  33.944   4.580
99096W        W71411  25.130   6.457  10.654
99097W        W71412  10.225  40.072  11.858
99098W        W71413   9.271  24.081   3.351
99099W        W71414   5.847  26.229   4.589
99100W        W71415  31.136  26.603  14.422
99101W        W71416  11.891  36.981   0.828
99102W        W71417  34.397   8.303  11.211
99103W        W71418  31.389  38.800   2.355
99104W        W71419  13.232  39.978  13.309
99105W        W71420  43.049   6.113  11.260
99106W        W71421  25.259  22.769  12.099
99107W        W71422   2.488  20.635   3.832
99108W        W71423  42.861  10.566  11.982
99109W        W71424  40.308  25.715   5.428
99110W        W71425  43.547  44.402   0.287
99111W        W71426  21.768   8.924  11.533
99112W        W71427   4.892  10.725  12.052
99113W        W71428  15.310  28.083  10.703
99114W        W71429   2.011  18.770   2.843
99115W        W71430  17.120  43.453  14.715
99116W        W71431  28.660   5.821  13.355
99117W        W71432  37.372   7.875  12.476
99118W        W71433  27.967  28.670  12.049
99119W        W71434  37.507  25.710   4.177
99120W        W71435   8.738  11.438  12.062
99121W        W71436   1.507   1.037   2.732
99122W        W71437  39.956  20.229  12.585
99123W        W71438   0.908  14.607  10.963
99124W        W71439   6.228  16.625  14.296
99125W        W71440  27.208   4.876  11.037
99126W        W71441  22.082  22.240  12.358
99127W        W71442   2.882  35.018  11.201
99128W        W71443   9.282  15.058   4.754
99129W        W71444  38.372  23.662   2.742
99130W        W71445  29.940  34.180  12.890
99131W        W71446  39.097  15.101  12.374
99132W        W71447   5.481  12.771   3.750
99133W        W71448  17.209  18.411   3.750
99134W        W71449  29.355  17.281  12.965
99135W        W71450  38.796  44.084   4.120
99136W        W71451  26.588  32.607  14.941
99137W        W71452   8.145  14.176   0.394
99138W        W71453   7.498  41.591   0.860
99139W        W71454  43.173   7.477   9.923
99140W        W71455  33.491   2.051  14.897
99141W        W71456  26.112  12.776   0.201
99142W        W71457  33.199  31.924  12.129
99143W        W71458  17.685  22.908   3.040
99144W        W71459  44.953   2.912   3.840
99145W        W71460  11.003  40.350   4.180
99146W        W71461  18.485  39.466  12.307
99147W        W71462  40.683  11.038   1.108
99148W        W71463  40.759   5.259  11.459
99149W        W71464   5.965  30.496  11.708
99150W        W71465  31.961  11.975   1.804
99151W        W71466  26.694  20.309   2.878
99152W        W71467  15.980   8.136  11.651
99153W        W71468  37.653  14.111   5.109
99154W        W71469  18.496  24.730   1.903
99155W        W71470  15.380  21.118   0.947
99156W        W71471  23.271  43.786  13.356
99157W        W71472  30.947  10.302  14.905
99158W        W71473  23.503   8.492   1.704
99159W        W71474  34.555  34.318  13.545
99160W        W71475  37.020  39.446  11.994
99161W        W71476  31.379  44.517   3.618
99162W        W71477  40.417   9.682  10.733
99163W        W71478  41.771  40.858  14.354
99164W        W71479  18.331  38.043  11.959
99165W        W71480  11.798  13.289   0.446
99166W        W71481   7.767  31.598  11.088
99167W        W71482  14.009  21.503  11.106
99168W        W71483  32.868  34.208  11.520
99169W        W71484  44.401  30.907   0.853
99170W        W71485  13.041  37.563   3.288
99171W        W71486   7.466   6.526  11.163
99172W        W71487   2.376  37.633  12.485
99173W        W71488  22.177  19.091   0.068
99174W        W71489   4.847  16.249   0.295
99175W        W71490  13.847   7.426   2.243
99176W        W71491   5.179   0.543  13.901
99177W        W71492  42.894  21.793   3.116
99178W        W71493   1.061  15.645   3.122
99179W        W71494  33.013  30.460  11.171
99180W        W71495  22.715  19.920  12.460
99181W        W71496  18.073  11.178   0.375
99182W        W71497  30.004  42.368   0.522
99183W        W71498  17.695  42.880   0.381
99184W        W71499   9.027  15.192  12.509
99185W        W71500  38.574  18.710   3.916
99186W        W71501  31.721  31.500   4.744
99187W        W71502  32.019  37.989   4.903
99188W        W71503  38.061   5.217  13.779
99189W        W71504   1.873   1.697   3.844
99190W        W71505   1.927  36.519  13.868
99191W        W71506  19.738   9.429  13.744
99192W        W71507   2.490  19.301   3.494
99193W        W71508  26.696  26.997  10.600
99194W        W71509  41.586  23.822  10.655
99195W        W71510  20.804   4.298   1.661
99196W        W71511  24.309  24.367  11.993
99197W        W71512  41.773  11.053   0.454
99198W        W71513  40.253   3.667   0.540
99199W        W71514   1.038  22.753  12.432
99200W        W71515  38.873  28.054  12.008
99201W        W71516  11.198  24.258   4.626
99202W        W71517   0.420  44.742  10.770
99203W        W71518  20.233  17.296   1.818
99204W        W71519  17.702   0.875  13.083
99205W        W71520  44.722  14.508   1.053
99206W        W71521  13.961  16.200  13.075
99207W        W71522   1.879  22.235   3.947
99208W        W71523   9.164  27.762  12.551
99209W        W71524   8.699  13.311   3.653
99210W        W71525  32.345  27.056  14.999
99211W        W71526  37.940  13.389  13.005
99212W        W71527  39.825   8.604  13.484
99213W        W71528  38.830  28.706   4.265
99214W        W71529  15.559   6.237   1.659
99215W        W71530  19.079  36.816   2.232
99216W        W71531  32.976   4.450   1.950
99217W        W71532  40.841  43.335   3.081
99218W        W71533  11.672  39.863   4.634
99219W        W71534  20.791   4.325  12.104
99220W        W71535   2.224  38.800  11.583
99221W        W71536   8.078   4.353   0.147
99222W        W71537  13.306  34.081   1.836
99223W        W71538   1.222  23.225  10.653
99224W        W71539  32.899   3.233   3.776
99225W        W71540   2.440  19.956  13.970
99226W        W71541  22.191   4.787  12.511
99227W        W71542   8.390  20.538   0.312
99228W        W71543  39.248   0.776   2.274
99229W        W71544  31.841  32.360  12.976
99230W        W71545  39.566  11.843   0.443
99231W        W71546  37.089  44.086   1.790
99232W        W71547  41.617   6.384   1.360
99233W        W71548   1.403   1.560   3.151
99234W        W71549  35.080  39.887  10.619
99235W        W71550  41.180  37.115  12.781
99236W        W71551  32.285  15.595   2.842
99237W        W71552  37.893  15.634  11.395
99238W        W71553   8.896  28.023   0.532
99239W        W71554  17.537  20.111   3.320
99240W        W71555  34.478  34.053   4.120
99241W        W71556  40.547  21.603  13.472
99242W        W71557  39.031  25.692  14.138
99243W        W71558  25.676  25.038  12.024
99244W        W71559  14.860   7.748  13.807
99245W        W71560   7.108  34.403  14.265
99246W        W71561  23.265  39.778   0.640
99247W        W71562   0.420  11.845   0.797
99248W        W71563  12.162  13.350   2.163
99249W        W71564   9.698  36.991  14.052
99250W        W71565  38.381  43.572   4.061
99251W        W71566   8.999  19.635  11.617
99252W        W71567  28.586  10.436  13.513
99253W        W71568  10.258  42.462   2.627
99254W        W71569   4.249  30.899  12.918
99255W        W71570  42.775  38.398   2.260
99256W        W71571  39.855  14.030  12.766
99257W        W71572  32.566  38.865  13.001
99258W        W71573  34.313  36.220   3.655
99259W        W71574   9.109  28.517  14.273
99260W        W71575  16.013  25.001  12.367
99261W        W71576  30.678  34.541   4.636
99262W        W71577  12.649   7.392  12.919
99263W        W71578  38.352  39.942   0.726
99264W        W71579  29.648  25.041   2.399
99265W        W71580  32.602  10.902   1.478
99266W        W71581  17.858  16.234   0.926
99267W        W71582  20.296  10.630  13.782
99268W        W71583  24.310  22.600  10.551
99269W        W71584  22.730  33.677   0.847
99270W        W71585  10.260  19.167   4.568
99271W        W71586  24.971  42.224   1.270
99272W        W71587  31.417  41.462   0.369
99273W        W71588  26.946  36.326   0.732
99274W        W71589  32.814  20.120  12.189
99275W        W71590  21.485  16.663   0.336
99276W        W71591  41.981  28.719   1.661
99277W        W71592  34.394   8.936  14.104
99278W        W71593  29.562  37.507  13.128
99279W        W71594  20.686  24.245   2.357
99280W        W71595   0.185  40.582   4.616
99281W        W71596  27.443  38.331   0.460
99282W        W71597   1.981  39.933   1.483
99283W        W71598  36.327  40.408   0.321
99284W        W71599  30.686  43.512   4.200
99285W        W71600  40.001  36.311  10.701
99286W        W71601  30.572  21.880  12.658
99287W        W71602   2.902  43.421  10.738
99288W        W71603   1.244   2.347   0.830
99289W        W71604  37.008  15.239   0.990
99290W        W71605  39.751  29.122   4.589
99291W        W71606  35.899  23.807  11.604
99292W        W71607  15.265   5.296  14.827
99293W        W71608  37.523  29.052   3.751
99294W        W71609  21.206   1.000  12.895
99295W        W71610  10.629  12.104  13.438
99296W        W71611   8.672  35.872  13.913
99297W        W71612  29.524  21.993  11.100
99298W        W71613   9.288  35.764  13.156
99299W        W71614   3.256  28.525  13.508
99300W        W71615  24.935   7.614   1.209
99301W        W71616  28.770  11.216  11.045
99302W        W71617  28.055  18.483   3.305
99303W        W71618  12.340  16.353  14.865
99304W        W71619  17.887  25.387   1.263
99305W        W71620  20.342  23.102   3.263
99306W        W71621  25.929  23.635   1.077
99307W        W71622  31.708  35.709  13.919
99308W        W71623  25.482  17.595   2.202
99309W        W71624  21.211  22.159  12.635
99310W        W71625  29.950  26.338   2.345
99311W        W71626  34.456   1.466   4.395
99312W        W71627  41.892   0.953  13.300
99313W        W71628   3.268  35.082  10.850
99314W        W71629  31.188   7.801   3.247
99315W        W71630  13.672   1.541   0.862
99316W        W71631  38.806  14.709   3.456
99317W        W71632  26.125  34.120   1.680
99318W        W71633  17.851  15.113   2.118
99319W        W71634  13.563  31.109  11.188
99320W        W71635  33.611  39.895  11.751
99321W        W71636  32.784   3.933  13.437
99322W        W71637  44.791  10.350  11.705
99323W        W71638   6.754  17.254   1.289
99324W        W71639   9.722  44.041   4.778
99325W        W71640  24.212  32.561  12.082
99326W        W71641  21.101  31.975  11.625
99327W        W71642  44.979  13.385   3.314
99328W        W71643   1.384  21.360   1.893
99329W        W71644  27.829  33.396  11.057
99330W        W71645   5.868  34.461  13.427
99331W        W71646  38.540   0.051   3.656
99332W        W71647  12.178  19.198  13.844
99333W        W71648  12.290  22.609   1.905
99334W        W71649  31.372  42.687   3.298
99335W        W71650  10.947   6.475   4.580
99336W        W71651  23.591  33.087  12.977
99337W        W71652  25.933  42.510  11.565
99338W        W71653  19.565   1.817   3.801
99339W        W71654   2.327  25.051  13.869
99340W        W71655  33.783  17.691   1.731
99341W        W71656  26.429  22.468  12.373
99342W        W71657  44.820   8.822   4.553
99343W        W71658  23.780  27.009   0.867
99344W        W71659  37.544   0.853   0.575
99345W        W71660  18.149  31.363   3.873
99346W        W71661  15.593  25.672   3.685
99347W        W71662  32.940  42.319   2.934
99348W        W71663  36.933  26.174   1.947
99349W        W71664  17.049  30.353  11.440
99350W        W71665  24.110  38.330   0.201
99351W        W71666   0.705  18.355  14.395
99352W        W71667  28.535  37.657  13.363
99353W        W71668  42.466  10.620   0.599
99354W        W71669  13.749  22.616   1.408
99355W        W71670   7.691  33.269  10.305
99356W        W71671   9.599   3.935   0.823
99357W        W71672  42.763  32.783   1.385
99358W        W71673  23.815  38.116  11.161
99359W        W71674  21.300   7.755   1.346
99360W        W71675   3.940  11.275   2.280
99361W        W71676  42.558   6.820  13.297
99362W        W71677  15.553  41.890  14.806
99363W        W71678  24.764  27.001   4.120
99364W        W71679  35.434  12.362  12.969
99365W        W71680  24.619  18.546  11.683
99366W        W71681   7.268  33.411   3.383
99367W        W71682  10.194  16.982   2.433
99368W        W71683   5.157  23.245  12.075
99369W        W71684   7.605  28.694   4.135
99370W        W71685   3.324  28.083  12.339
99371W        W71686  43.511  16.619  10.463
99372W        W71687   0.979  34.179  10.369
99373W        W71688  31.810  33.530  10.974
99374W        W71689  13.124  39.877   1.330
99375W        W71690  40.453  13.290   5.086
99376W        W71691   4.931  36.846  13.488
99377W        W71692   4.325   8.632  11.977
99378W        W71693  34.525  15.842  11.437
99379W        W71694  43.280  40.742   2.799
99380W        W71695  26.328  39.215   5.148
99381W        W71696  38.913   4.972   3.567
99382W        W71697  18.111   8.109   1.685
99383W        W71698   2.737  14.851  10.793
99384W        W71699  24.410  43.986   2.544
99385W        W71700  13.924  44.404  12.077
99386W        W71701  26.833  38.554   1.576
99387W        W71702  30.634  41.284  10.635
99388W        W71703   1.099   7.298  14.920
99389W        W71704  29.519  21.312  13.396
99390W        W71705  10.262  13.285   4.869
99391W        W71706  14.298  28.957  12.978
99392W        W71707  19.776  25.403  11.960
99393W        W71708  43.297  35.506   3.151
99394W        W71709  23.746  14.228  12.519
99395W        W71710   1.789  36.264   0.257
99396W        W71711  32.597  35.125   4.187
99397W        W71712  16.745  25.600   0.228
99398W        W71713  40.105  19.075  10.700
99399W        W71714   1.549  10.307   5.398
99400W        W71715  14.277   7.299   4.624
99401W        W71716  32.623  40.502  13.062
99402W        W71717  38.458  38.887   2.678
99403W        W71718  20.207  41.724   5.010
99404W        W71719  22.209   0.831   4.612
99405W        W71720  20.409  34.653   0.275
99406W        W71721  23.059  30.846   2.774
99407W        W71722   8.751   4.881  14.914
99408W        W71723  33.509  33.628   0.943
99409W        W71724  15.197  25.204  13.031
99410W        W71725  21.226  29.930   4.113
99411W        W71726   6.710  26.471  13.912
99412W        W71727  16.182  13.402   2.803
99413W        W71728  19.622  35.599   3.101
99414W        W71729  38.629  22.243  14.296
99415W        W71730  32.767  31.500  13.969
99416W        W71731   3.274  12.606  14.035
99417W        W71732  27.184  31.181  11.024
99418W        W71733   5.810  39.044  10.464
99419W        W71734  30.734   4.260   2.782
99420W        W71735  19.582  32.072  12.530
99421W        W71736   5.235  29.620  14.028
99422W        W71737  25.197  12.974   1.151
99423W        W71738  15.820  17.180  13.540
99424W        W71739  37.618  38.573   0.750
99425W        W71740  29.362  39.095   1.403
99426W        W71741  24.243  35.019  13.750
99427W        W71742  14.180  15.506  13.868
99428W        W71743   1.223  42.146  11.180
99429W        W71744  32.048  39.830  13.100
99430W        W71745  41.019  34.113   1.010
99431W        W71746  20.174   5.795  14.269
99432W        W71747   3.297  43.337  12.625
99433W        W71748  10.837   5.288  12.009
99434W        W71749  30.595  30.675  12.464
99435W        W71750  44.876  27.947   2.574
99436W        W71751  39.016   6.777  13.279
99437W        W71752  28.095   8.642   1.225
99438W        W71753   6.763  36.921  11.661
99439W        W71754  10.313  25.503  11.492
99440W        W71755  25.072  24.924   3.777
99441W        W71756  35.401  29.399  12.990
99442W        W71757  20.066  17.817  14.453
99443W        W71758  13.285  25.072  14.874
99444W        W71759   2.933  37.965   4.757
99445W        W71760   9.192  14.431   2.380
99446W        W71761  12.120  35.385  13.325
99447W        W71762  33.385  13.676   1.679
99448W        W71763  17.213  33.349  13.117
99449W        W71764  12.187  19.968   1.818
99450W        W71765  25.867  38.518  11.465
99451W        W71766  19.089  36.845  10.579
99452W        W71767  40.755  11.735  14.880
99453W        W71768  39.878   6.684  14.232
99454W        W71769   7.953  11.220  10.738
99455W        W71770  22.578   5.158  13.869
99456W        W71771  15.858  39.853   3.669
99457W        W71772  35.118  11.028   1.819
99458W        W71773  27.487  23.732   0.385
99459W        W71774   4.779  13.376  11.674
99460W        W71775  41.909   1.191  12.683
99461W        W71776  17.092  25.228  11.253
99462W        W71777  34.591  16.265  14.472
99463W        W71778  41.241   8.689  11.995
99464W        W71779  39.742   9.862   1.801
99465W        W71780  23.784  43.205   1.358
99466W        W71781  44.476   6.483  13.500
99467W        W71782   2.785   0.759   4.285
99468W        W71783  41.241   0.431   3.161
99469W        W71784  10.311  26.447   0.074
99470W        W71785   3.253  29.994  14.730
99471W        W71786  24.705  31.221   1.335
99472W        W71787   8.696  22.309   2.546
99473W        W71788  20.064  11.470  13.707
99474W        W71789  16.306  42.278  11.572
99475W        W71790   1.213  44.213   1.017
99476W        W71791  23.046  26.595   3.095
99477W        W71792  29.400  31.737  11.718
99478W        W71793  22.497  21.073  13.968
99479W        W71794  41.968  25.241  11.347
99480W        W71795  11.252   8.928  10.679
99481W        W71796  37.779  12.906   3.332
99482W        W71797  38.191  18.670   4.763
99483W        W71798  28.705   4.835   1.344
99484W        W71799   8.777  35.549  13.137
99485W        W71800  44.873   4.430  12.053
99486W        W71801  13.187  42.320   0.974
99487W        W71802   7.706  33.488   0.266
99488W        W71803  15.354  37.538  13.445
99489W        W71804  27.931   9.770  13.448
99490W        W71805   6.993  30.859  13.665
99491W        W71806  31.624  38.130   1.973
99492W        W71807  10.840   6.802   1.614
99493W        W71808  20.144  16.897  14.713
99494W        W71809  43.041   5.454  13.044
99495W        W71810  35.379  23.984  11.020
99496W        W71811  15.645  22.660   3.223
99497W        W71812  43.346  25.082  11.574
99498W        W71813  18.282  22.709  14.690
99499W        W71814  26.682  31.627  12.005
99500W        W71815   6.152   2.623   0.720
99501W        W71816   9.766  22.237   1.680
99502W        W71817  15.605  16.259   4.242
99503W        W71818  44.915   0.463  12.652
99504W        W71819  42.701  21.380  13.106
99505W        W71820  20.013  42.550   4.357
99506W        W71821  26.508  12.857   2.375
99507W        W71822   4.624   1.288   2.351
99508W        W71823  12.216  13.354  11.635
99509W        W71824  26.069  31.787   4.675
99510W        W71825  29.502  19.965  11.271
99511W        W71826   9.743  33.477   2.231
99512W        W71827   8.442   1.869   2.264
99513W        W71828  43.859  40.747  13.532
99514W        W71829  24.940  18.627   4.727
99515W        W71830  11.617   4.303   3.074
99516W        W71831  19.214  27.746  11.989
99517W        W71832  18.339  14.180   4.195
99518W        W71833  17.232   0.276  11.008
99519W        W71834  11.291  34.718   3.120
99520W        W71835  17.860  19.756   4.103
99521W        W71836  43.863   3.211   0.773
99522W        W71837   8.708  26.607  12.948
99523W        W71838  41.263  18.172  12.114
99524W        W71839  42.279  21.103   4.773
99525W        W71840  33.631  10.804  12.378
99526W        W71841  30.391  28.220   3.702
99527W        W71842  33.598  28.510  14.253
99528W        W71843  41.952  11.678   3.559
99529W        W71844   8.924   6.930  12.165
99530W        W71845  38.606   7.315   1.932
99531W        W71846  28.681   9.720  12.984
99532W        W71847  39.517  17.124  14.301
99533W        W71848  31.071  32.870  12.963
99534W        W71849  30.080  30.418  10.544
99535W        W71850  20.302  10.712   0.498
99536W        W71851  32.583   0.737  12.486
99537W        W71852  41.289  40.247  11.578
99538W        W71853  22.272   0.818  14.766
99539W        W71854  41.012  16.871  12.011
99540W        W71855   7.845  43.293  12.984
99541W        W71856  28.592  30.287  14.555
99542W        W71857   0.147  38.108   3.651
99543W        W71858  43.935  24.585   2.877
99544W        W71859  36.469  27.066   1.742
99545W        W71860  13.285  31.021   2.633
99546W        W71861  20.333   0.797  14.941
99547W        W71862  33.457  22.460   2.226
99548W        W71863  26.261  30.528  11.028
99549W        W71864   6.792   8.298  12.944
99550W        W71865  25.032   4.159   4.160
99551W        W71866   5.337  17.809   1.233
99552W        W71867   7.660   1.309  13.053
99553W        W71868  11.852   7.277   3.257
99554W        W71869   3.866  10.381  13.955
99555W        W71870  44.870  15.301  10.719
99556W        W71871  33.358  27.921   2.383
99557W        W71872   0.800   1.499  13.806
99558W        W71873  35.451  34.061  13.135
99559W        W71874  44.419  27.211  12.162
99560W        W71875  37.728  14.170  12.669
99561W        W71876  23.633  32.941   4.385
99562W        W71877  25.268   7.901   4.284
99563W        W71878   7.377  25.541   1.965
99564W        W71879  39.636  42.423  11.013
99565W        W71880  26.914   9.785  13.293
99566W        W71881  20.124   0.926  11.639
99567W        W71882  19.059  12.608   1.874
99568W        W71883  42.763   0.363   4.140
99569W        W71884  23.474  11.094  13.716
99570W        W71885  39.843  25.367   5.530
99571W        W71886  23.537  35.058  14.589
99572W        W71887   8.236  43.225  11.227
99573W        W71888  41.967  33.903  13.770
99574W        W71889  36.448   9.837   1.291
99575W        W71890  16.261  24.526   4.378
99576W        W71891  19.060  38.510   0.733
99577W        W71892  22.440   5.912   1.816
99578W        W71893  34.852   8.768  12.853
99579W        W71894  24.530  10.366  10.274
99580W        W71895  34.257  34.514  11.656
99581W        W71896   7.672  14.294   0.145
99582W        W71897  42.720  28.169   0.725
99583W        W71898  44.276  29.709   3.791
99584W        W71899  44.272   4.808  13.952
99585W        W71900   4.367  28.426  13.867
99586W        W71901  31.427  14.999   3.636
99587W        W71902   2.242  19.830  13.472
99588W        W71903   6.390  38.237  12.963
99589W        W71904  39.482   2.732   2.335
99590W        W71905  14.376  20.868  13.446
99591W        W71906   6.040   7.921  11.906
99592W        W71907  36.826  24.159  10.871
99593W        W71908  38.714  15.136  13.350
99594W        W71909  13.092  39.074   1.748
99595W        W71910  28.054   8.376   5.296
99596W        W71911   3.284   0.592   3.446
99597W        W71912  42.910  22.561   2.073
99598W        W71913  14.766  19.758   4.651
99599W        W71914  17.360  32.512  13.450
99600W        W71915  36.341  34.091  14.941
99601W        W71916  30.178  29.727  10.977
99602W        W71917  22.501   5.899   2.854
99603W        W71918   2.496  35.358   1.865
99604W        W71919  19.838  20.698   1.872
99605W        W71920  18.280  23.095   3.734
99606W        W71921  24.588   5.581   2.960
99607W        W71922   6.431  37.580  13.370
99608W        W71923  18.743   0.860   2.394
99609W        W71924  26.314  23.627   3.594
99610W        W71925   3.962  43.584   0.835
99611W        W71926   1.036   4.698   2.379
99612W        W71927  38.855  13.319  10.882
99613W        W71928  31.680  29.748  11.202
99614W        W71929  29.713  42.544   2.397
99615W        W71930   8.603   3.635   1.683
99616W        W71931  43.324   2.325  11.216
99617W        W71932  39.542  43.380   3.547
99618W        W71933  19.805  21.467  10.794
99619W        W71934  10.351  19.303   0.958
99620W        W71935  23.533   9.230  11.201
99621W        W71936  25.003  28.167   0.312
99622W        W71937  23.543  22.143  14.382
99623W        W71938   1.967   0.717  13.070
99624W        W71939   7.437  34.352  13.815
99625W        W71940  39.700  35.421  13.018
99626W        W71941   3.679  19.489   5.087
99627W        W71942  38.065  21.758   2.770
99628W        W71943  17.354  30.493  14.886
99629W        W71944  16.762  22.657  14.840
99630W        W71945  16.368   6.251  12.581
99631W        W71946  31.542  13.092  11.488
99632W        W71947  41.951  27.584   0.222
99633W        W71948  19.401  34.563  11.632
99634W        W71949  21.252  42.764  14.788
99635W        W71950   7.676  44.945   1.263
99636W        W71951  17.253   8.699  14.694
99637W        W71952   0.291   0.887  11.913
99638W        W71953   9.851  42.475  13.322
99639W        W71954   9.385  26.684   4.813
99640W        W71955   8.617  42.388   4.637
99641W        W71956   8.172  29.785  12.841
99642W        W71957   5.471  16.105  14.331
99643W        W71958  23.144  31.449  14.926
99644W        W71959  39.843  25.636   0.982
99645W        W71960  20.674   0.310   1.297
99646W        W71961   9.290  20.543   1.395
99647W        W71962  29.794  30.876  10.419
99648W        W71963  18.458  35.888   5.054
99649W        W71964  15.558   2.471  14.831
99650W        W71965  31.982  22.094  10.650
99651W        W71966   8.874  11.322  11.120
99652W        W71967  20.198  14.757   0.883
99653W        W71968  34.459   8.339   4.337
99654W        W71969  24.022  17.121  11.473
99655W        W71970   1.259  22.645  13.083
99656W        W71971  39.021  24.720   0.920
99657W        W71972  26.406  23.220   3.282
99658W        W71973  37.630  39.524  12.880
99659W        W71974   3.290  37.973   4.375
99660W        W71975  35.417  21.279  10.653
99661W        W71976  11.073  40.552  13.048
99662W        W71977  21.911  14.168   1.866
99663W        W71978   4.992   5.716  13.099
99664W        W71979  31.162  34.414  10.570
99665W        W71980  42.171  43.943   0.794
99666W        W71981  28.908   3.128  11.985
99667W        W71982   3.303  22.910  12.387
99668W        W71983  39.514  18.314   4.599
99669W        W71984  40.703  25.457  11.143
99670W        W71985  30.525   7.347  11.164
99671W        W71986  10.268  41.347   3.140
99672W        W71987  37.823  23.584  10.075
99673W        W71988  26.000   8.385   2.932
99674W        W71989  15.701  27.584   0.955
99675W        W71990  38.205  35.565  12.314
99676W        W71991  41.229   4.672  11.490
99677W        W71992   0.468   2.346  12.577
99678W        W71993  12.378  34.154   1.949
99679W        W71994  13.798  22.748  12.478
99680W        W71995  22.733   4.397  11.818
99681W        W71996   4.776  20.206   4.017
99682W        W71997  34.807  42.892  11.009
99683W        W71998  19.084   1.612   4.077
99684W        W71999  20.654  13.729   4.067
99685W        W72000  35.719  30.734  14.729
99686W        W72001  43.018  24.195   4.102
99687W        W72002   4.777  25.606  13.011
99688W        W72003  26.012  43.243   4.901
99689W        W72004  38.480  16.366   3.875
99690W        W72005  20.593  21.986   3.599
99691W        W72006  35.028  44.526   0.103
99692W        W72007  29.736   2.690   1.384
99693W        W72008  34.337  12.648   2.967
99694W        W72009  32.971   0.400   1.727
99695W        W72010  40.774  39.360   3.178
99696W        W72011  40.573  42.983  14.016
99697W        W72012  11.180  13.624  11.176
99698W        W72013  30.042  37.772   4.536
99699W        W72014  21.078   9.568   0.663
99700W        W72015   3.787  32.703   2.720
99701W        W72016  22.319  20.152   2.932
99702W        W72017  42.088   7.159  13.319
99703W        W72018  24.338  29.119  11.990
99704W        W72019  35.154  21.059  10.172
99705W        W72020  28.186  22.594  12.038
99706W        W72021   5.157   0.386  14.919
99707W        W72022   5.434  15.650   4.130
99708W        W72023  36.383   9.290  10.490
99709W        W72024  17.045   5.230  14.237
99710W        W72025  10.379  23.159  12.939
99711W        W72026  33.966   1.648   4.433
99712W        W72027  21.977  33.519   0.451
99713W        W72028   5.159  24.059  11.155
99714W        W72029   4.711   5.362   3.745
99715W        W72030  15.030  15.081  12.370
99716W        W72031  37.578  35.645   4.632
99717W        W72032  40.795  22.262  11.088
99718W        W72033  10.853  12.876  13.057
99719W        W72034  33.003  25.814  13.947
99720W        W72035  31.378   9.148   0.405
99721W        W72036  23.667  33.874   2.370
99722W        W72037  17.594   4.645  11.525
99723W        W72038  21.231   7.782  10.917
99724W        W72039  42.009  31.575  12.071
99725W        W72040   5.932  28.965   3.708
99726W        W72041  15.644  17.853   4.729
99727W        W72042  29.643   2.735  14.904
99728W        W72043   8.363  23.109   4.240
99729W        W72044   8.459   9.812   3.303
99730W        W72045   1.994  25.993   1.924
99731W        W72046  12.021  38.431  11.295
99732W        W72047  24.130  39.594  10.758
99733W        W72048  40.575  39.455   3.753
99734W        W72049  26.231  35.444  10.641
99735W        W72050  44.406  10.189   1.936
99736W        W72051   2.736   0.403  11.046
99737W        W72052   3.913   8.946   4.614
99738W        W72053  13.805  39.471  12.385
99739W        W72054  13.841   9.141  13.370
99740W        W72055  19.768  33.757  11.169
99741W        W72056  33.868  43.465   2.226
99742W        W72057  44.005  38.025   0.708
99743W        W72058  39.456   9.958  13.854
99744W        W72059   8.674   3.834  13.537
99745W        W72060  30.667  25.685   3.686
99746W        W72061  30.890   8.457   4.612
99747W        W72062  34.190  15.155  12.090
99748W        W72063  16.604   9.935   2.208
99749W        W72064  15.907  44.370  12.349
99750W        W72065   9.903  38.778  14.973
99751W        W72066   3.179  34.557   0.137
99752W        W72067  35.488  24.151   2.154
99753W        W72068  19.967  11.787  13.314
99754W        W72069  42.605  17.985   4.544
99755W        W72070  31.401  19.087  12.828
99756W        W72071   4.873  10.854   4.030
99757W        W72072  32.593  38.485   3.316
99758W        W72073  38.038  39.431   1.378
99759W        W72074  10.765  34.510   3.829
99760W        W72075  38.549  39.964  11.378
99761W        W72076  19.126  16.059   2.802
99762W        W72077  32.321   1.896   1.192
99763W        W72078  32.051  37.448  14.002
99764W        W72079  10.259  12.397   1.780
99765W        W72080   9.275  12.048  12.379
99766W        W72081   7.949  36.866  12.858
99767W        W72082  27.057  16.036  12.931
99768W        W72083  38.347  39.730   1.745
99769W        W72084   0.833  11.149   1.027
99770W        W72085  34.023  24.266  10.962
99771W        W72086  12.301  20.063  10.665
99772W        W72087   5.781  37.570   3.701
99773W        W72088   8.439  16.756  14.732
99774W        W72089  35.501   5.627  12.439
99775W        W72090  17.418  18.797  13.500
99776W        W72091  20.761  41.492  13.053
99777W        W72092  39.877  18.318   1.548
99778W        W72093  40.673   5.651  11.099
99779W        W72094  39.344  38.722   0.066
99780W        W72095  32.916  18.725  14.878
99781W        W72096  33.799  24.710  11.657
99782W        W72097   3.461  17.366  11.898
99783W        W72098  42.382  29.543   2.555
99784W        W72099  39.840  22.712   4.760
99785W        W72100  35.613  28.234  12.104
99786W        W72101  10.543  32.404   4.189
99787W        W72102  17.276   1.183   1.464
99788W        W72103  24.698   1.169   0.293
99789W        W72104  39.485  31.677  13.387
99790W        W72105  20.344  39.987   1.887
99791W        W72106  26.553  27.730  11.255
99792W        W72107  20.818  16.733  13.786
99793W        W72108   5.286  32.561   3.822
99794W        W72109  20.173  20.470   4.196
99795W        W72110  36.639  33.491   9.974
99796W        W72111  19.190  16.195  10.896
99797W        W72112  10.343   1.787   0.772
99798W        W72113  41.974  21.979  13.601
99799W        W72114  23.724  41.058   1.151
99800W        W72115  38.914  35.339  14.459
99801W        W72116   0.040   6.330   3.345
99802W        W72117  36.464  14.212   2.415
99803W        W72118  18.660  26.651  13.788
99804W        W72119  37.553  19.233  13.059
99805W        W72120  33.988  36.427  12.540
99806W        W72121  13.298   8.212   1.335
99807W        W72122  30.105   9.904  13.838
99808W        W72123  20.813  12.718  11.980
99809W        W72124  33.363  35.983  12.048
99810W        W72125  15.845  35.749  11.928
99811W        W72126  35.106   6.144  12.878
99812W        W72127  23.251  44.707  11.829
99813W        W72128  17.585  14.734  14.692
99814W        W72129  24.689   2.685  10.543
99815W        W72130   2.493  17.364   3.136
99816W        W72131   8.195  30.381   1.447
99817W        W72132  20.244   5.744   3.886
99818W        W72133  25.651   1.617  11.946
99819W        W72134   4.402  20.215  11.719
99820W        W72135   9.317  22.767   0.510
99821W        W72136   9.924  38.007  13.856
99822W        W72137  11.083  25.176  13.025
99823W        W72138   9.292   9.817  13.976
99824W        W72139  25.114  35.958  11.945
99825W        W72140  36.039   5.194   1.476
99826W        W72141  22.060  18.776   2.769
99827W        W72142   5.374   6.125   0.752
99828W        W72143  44.067  40.912  13.969
99829W        W72144   2.776   9.888  10.688
99830W        W72145  42.865   3.901  12.557
99831W        W72146  19.321  10.806  13.556
99832W        W72147  42.787   2.387  11.243
99833W        W72148  15.727  28.508   4.191
99834W        W72149  37.602  28.103   4.610
99835W        W72150   1.242  24.811  12.878
99836W        W72151   4.171  44.364   2.193
99837W        W72152  42.389  37.883  13.034
99838W        W72153  10.912   7.291   4.163
99839W        W72154  20.211  25.038  12.701
99840W        W72155  13.118  13.881  10.740
99841W        W72156  14.562  28.758  11.963
99842W        W72157   8.602  35.213   4.710
99843W        W72158   3.831  44.975  14.080
99844W        W72159  14.614  34.747  14.358
99845W        W72160  28.234  22.237  14.309
99846W        W72161  42.534   4.315   2.670
99847W        W72162  32.114   2.336  13.893
99848W        W72163  34.010  44.725   0.944
99849W        W72164  44.525  16.294   0.282
99850W        W72165  17.246  31.045  10.022
99851W        W72166  22.962  42.699   1.219
99852W        W72167  41.260  31.888  13.102
99853W        W72168  11.340  42.808   2.424
99854W        W72169  27.249   6.799  12.473
99855W        W72170  27.685  29.954  11.691
99856W        W72171   9.747  19.121   9.888
99857W        W72172  27.669  35.013   2.857
99858W        W72173  16.602  27.046   2.738
99859W        W72174  43.086   1.156  14.484
99860W        W72175   0.847   6.948  14.281
99861W        W72176  40.904  21.616  13.071
99862W        W72177  38.600  33.926  14.704
99863W        W72178  29.678  24.183  10.280
99864W        W72179  44.642  40.525   4.788
99865W        W72180  21.871  26.895   1.430
99866W        W72181  18.506  23.780  10.452
99867W        W72182  36.101   1.769  10.504
99868W        W72183   2.890  37.615  13.027
99869W        W72184  37.040   0.279   2.387
99870W        W72185   5.396  25.055  14.510
99871W        W72186   7.727  40.252  11.236
99872W        W72187  43.338   0.440   3.777
99873W        W72188   0.735  10.757  12.905
99874W        W72189  14.624  16.351  12.466
99875W        W72190  32.427  15.292   3.240
99876W        W72191  17.475  16.228  11.501
99877W        W72192   1.434   3.931  12.116
99878W        W72193  15.155  12.825   1.316
99879W        W72194  20.218  34.799  10.968
99880W        W72195  22.748  22.016  14.840
99881W        W72196  17.180  27.026   3.440
99882W        W72197  32.020   5.697  14.738
99883W        W72198  18.500  19.138  13.051
99884W        W72199  41.441  44.944   3.243
99885W        W72200  41.408  27.729  14.346
99886W        W72201  41.864  32.986  11.262
99887W        W72202   9.356  28.278   0.412
99888W        W72203  38.855  10.150  12.566
99889W        W72204  41.074  21.754   1.331
99890W        W72205  11.857  12.608  10.705
99891W        W72206  27.684  39.296  10.999
99892W        W72207  16.067  11.229  12.309
99893W        W72208   8.186  13.254  12.385
99894W        W72209  38.407   6.810   2.614
99895W        W72210   4.241  20.027   4.143
99896W        W72211  17.160  33.045  13.727
99897W        W72212  37.442  36.141   4.605
99898W        W72213  30.369   8.001   4.233
99899W        W72214  42.288  29.484   0.360
99900W        W72215  31.617  40.275  12.893
99901W        W72216  33.529   0.253   1.720
99902W        W72217  15.699  41.869   1.766
99903W        W72218  34.836  18.481  10.712
99904W        W72219   9.392  30.370  14.440
99905W        W72220  42.249  14.816   1.887
99906W        W72221  17.681   6.671   3.348
99907W        W72222  41.335  24.933  12.095
99908W        W72223  42.504   7.352   1.335
99909W        W72224  16.306  19.477   0.823
99910W        W72225   5.952  38.899   0.733
99911W        W72226   2.405  42.154  12.639
99912W        W72227  22.656  44.726  12.913
99913W        W72228  27.051  26.010  10.937
99914W        W72229   0.492  22.166  14.474
99915W        W72230  15.741  18.625   4.060
99916W        W72231  27.876  20.710   2.816
99917W        W72232  13.676  34.077  11.403
99918W        W72233  33.998  21.621  14.477
99919W        W72234  33.485  40.807   4.806
99920W        W72235  16.449  27.958   2.884
99921W        W72236  11.172   2.160   2.268
99922W        W72237  27.394   3.440  11.140
99923W        W72238  17.803  11.853  12.376
99924W        W72239   1.904  19.766  14.312
99925W        W72240  30.754  23.188   0.046
99926W        W72241  13.746  36.901   1.815
99927W        W72242  18.341  40.927  13.713
99928W        W72243   2.238  29.698  11.174
99929W        W72244  17.056  18.853  11.459
99930W        W72245  32.557  41.918  12.194
99931W        W72246  31.777  19.452  12.880
99932W        W72247  30.872  18.193  12.021
99933W        W72248  43.850   1.643   4.196
99934W        W72249   3.360  40.652   0.214
99935W        W72250   0.220  33.819  11.966
99936W        W72251  40.524  14.968  13.566
99937W        W72252   2.455  17.690   1.303
99938W        W72253  28.987  38.427  10.703
99939W        W72254  24.806  16.121   3.127
99940W        W72255  17.075  12.032   0.666
99941W        W72256  22.418  19.612   0.811
99942W        W72257  18.877  33.438  11.607
99943W        W72258   6.905  13.797   4.687
99944W        W72259   4.263  15.121  10.494
99945W        W72260   0.949  17.912  14.432
99946W        W72261  20.414  16.231  14.016
99947W        W72262  24.592  36.600  13.470
99948W        W72263   2.704  44.014  12.139
99949W        W72264  27.740  37.460   4.693
99950W        W72265  24.167  20.971  11.152
99951W        W72266   7.942  44.928  14.885
99952W        W72267  36.266  16.903  14.777
99953W        W72268  30.259   0.882   3.173
99954W        W72269   5.768  37.059   1.928
99955W        W72270  29.998  20.646   2.808
99956W        W72271  19.631  31.163   4.065
99957W        W72272   3.323  39.841  11.484
99958W        W72273   9.309  16.346  13.480
99959W        W72274  17.763  27.128   3.546
99960W        W72275  38.444  13.581  11.366
99961W        W72276  22.963  24.613   1.349
99962W        W72277  40.967   2.300   3.635
99963W        W72278  32.585  41.828   2.360
99964W        W72279  12.319  14.723  11.817
99965W        W72280  33.501  29.914   3.740
99966W        W72281  42.426  35.404   3.283
99967W        W72282  25.446  38.761  14.885
99968W        W72283   7.216   8.705  11.088
99969W        W72284  20.747  42.833  14.867
99970W        W72285   7.146   4.036  12.450
99971W        W72286  29.149  36.017  14.565
99972W        W72287  28.259   6.908   2.907
99973W        W72288  31.579   0.615  14.729
99974W        W72289  34.453  23.747   3.177
99975W        W72290  18.278  12.808   4.596
99976W        W72291   0.674  12.873   9.782
99977W        W72292  30.426   5.904   0.485
99978W        W72293  44.774  11.894   9.851
99979W        W72294  23.988  41.600  12.126
99980W        W72295  14.568  37.985  12.511
99981W        W72296  18.452  34.965   5.136
99982W        W72297  38.003   3.886  13.191
99983W        W72298  41.544   2.350  14.373
99984W        W72299  21.112  17.746  14.416
99985W        W72300  22.683  24.702   3.404
99986W        W72301  17.843  23.076   1.776
99987W        W72302  40.767   3.491   1.375
99988W        W72303  24.521  14.297   0.238
99989W        W72304  34.057  29.686  12.814
99990W        W72305  13.561  29.121  12.276
99991W        W72306  33.016   6.948  12.021
99992W        W72307   5.659  30.082  12.392
99993W        W72308  42.830  11.069  12.432
99994W        W72309  10.840   6.215   3.305
99995W        W72310   1.464  43.083  11.145
99996W        W72311   1.540  24.900   0.150
99997W        W72312  13.700   5.569  14.356
99998W        W72313  29.520  33.431  10.696
99999W        W72314  18.510  30.841  14.859
    0W        W72315  41.288  33.803   0.327
    1W        W72316   0.082  32.510  12.055
    2W        W72317  34.316  28.020  12.276
    3W        W72318   2.696   1.772   5.164
    4W        W72319  11.257  42.106   1.479
    5W        W72320  39.866  39.827   0.950
    6W        W72321  30.528  26.491   0.249
    7W        W72322   7.191  23.509  10.524
    8W        W72323   4.424  33.375   4.262
    9W        W72324  23.664  16.780   2.177
   10W        W72325  30.713  21.595  10.677
   11W        W72326  34.800  17.904  12.644
   12W        W72327  33.964  11.243  11.442
   13W        W72328  26.392  43.478  14.007
   14W        W72329  25.205   5.406  11.588
   15W        W72330  16.617  11.766  13.487
   16W        W72331  14.597   2.414  13.543
   17W        W72332  17.853  15.761  14.318
   18W        W72333   5.227  27.425  12.648
   19W        W72334  44.842  22.266   4.173
   20W        W72335  29.169  36.867  11.536
   21W        W72336   6.542  24.925   1.388
   22W        W72337  27.109   8.855  12.366
   23W        W72338  11.928  44.099   3.820
   24W        W72339   8.390  32.531  14.707
   25W        W72340   4.307  38.469  12.896
   26W        W72341  32.731  41.265  12.632
   27W        W72342  41.891  23.817   4.599
   28W        W72343   5.283   8.121  11.498
   29W        W72344  16.689   7.246   0.573
   30W        W72345  18.970   6.142   5.035
   31W        W72346  29.013  22.309  12.491
   32W        W72347  20.504  41.229  12.415
   33W        W72348  25.092  21.217   3.831
   34W        W72349  21.512  39.798   3.221
   35W        W72350  16.559  10.309   0.238
   36W        W72351  12.388   9.845   2.753
   37W        W72352  37.430  34.352  11.601
   38W        W72353   5.157  20.995  14.820
   39W        W72354  34.168  18.082   2.786
   40W        W72355  27.953  13.322  12.129
   41W        W72356  10.919  20.528   0.090
   42W        W72357  31.038  34.851   4.219
   43W        W72358   4.477   9.346  13.974
   44W        W72359  36.359   3.258  12.569
   45W        W72360  13.268   7.014   3.586
   46W        W72361  35.552  28.455   2.812
   47W        W72362  44.665  33.211  13.941
   48W        W72363  41.421  14.916   4.604
   49W        W72364  13.461   6.181   1.755
   50W        W72365  41.443  34.830  11.157
   51W        W72366  27.360   7.105   9.938
   52W        W72367   5.397  32.377  10.873
   53W        W72368  29.071   3.428   1.447
   54W        W72369   4.413  12.705   2.590
   55W        W72370  10.260   5.468   4.221
   56W        W72371  29.668  39.739   2.784
   57W        W72372   4.859  18.694  14.938
   58W        W72373  16.223  34.955  12.158
   59W        W72374  26.016  31.315  13.652
   60W        W72375   3.537  14.781   0.373
   61W        W72376  44.332  43.831  14.212
   62W        W72377  25.194  35.816  14.073
   63W        W72378  22.281  21.466  13.640
   64W        W72379  21.600  13.152   4.030
   65W        W72380  35.017  38.878   1.995
   66W        W72381  11.678   2.217  10.816
   67W        W72382   7.877  38.764  12.358
   68W        W72383  14.622  34.403   3.383
   69W        W72384  37.465  14.525   2.671
   70W        W72385  28.915  24.473   2.476
   71W        W72386  21.991   2.291  13.006
   72W        W72387  29.701  16.810   2.159
   73W        W72388   1.405  14.265  14.940
   74W        W72389   3.813  30.935  14.036
   75W        W72390  21.191  32.647  11.056
   76W        W72391  14.143  25.167  13.803
   77W        W72392  44.287  14.375   4.499
   78W        W72393   4.351  30.720  10.418
   79W        W72394  14.565  14.209  12.005
   80W        W72395   4.713  37.364   1.637
   81W        W72396  43.558  35.702   5.213
   82W        W72397  24.980   5.608  12.015
   83W        W72398   9.266  36.846  13.835
   84W        W72399   3.743  16.859  12.545
   85W        W72400   2.435  43.035   4.576
   86W        W72401  23.883  36.736   2.812
   87W        W72402  41.565  17.606   1.478
   88W        W72403  43.148  31.612   2.310
   89W        W72404  29.596  11.545  14.788
   90W        W72405  32.795  11.972   9.910
   91W        W72406   8.323  10.145  13.526
   92W        W72407   4.621   1.890   3.925
   93W        W72408  27.554  19.246  13.330
   94W        W72409  28.722  38.984  12.827
   95W        W72410   8.880  17.839   2.210
   96W        W72411   8.574  21.013  13.352
   97W        W72412  11.334  37.240   5.334
   98W        W72413  16.164   0.893  10.785
   99W        W72414  14.003  42.854   0.219
  100W        W72415  42.762  10.081   3.752
  101W        W72416  13.899  25.344   1.412
  102W        W72417  17.476  34.527   3.827
  103W        W72418   6.821  36.360   4.908
  104W        W72419  14.326  12.854   1.339
  105W        W72420  17.607  13.710   0.069
  106W        W72421  14.728   4.112  12.469
  107W        W72422  38.535  30.278  11.670
  108W        W72423   4.448  12.904   3.733
  109W        W72424  40.979  37.057   1.776
  110W        W72425  36.576  19.258  12.141
  111W        W72426  23.014  30.343  14.317
  112W        W72427  36.418   8.124   2.740
  113W        W72428  26.073  44.918   2.745
  114W        W72429  13.239  36.092   1.712
  115W        W72430  15.026  31.149  12.030
  116W        W72431   2.219  36.000   2.663
  117W        W72432  29.622  38.787   1.860
  118W        W72433  27.248  44.201  14.055
  119W        W72434  43.314  11.412  11.241
  120W        W72435  18.622   2.681   1.972
  121W        W72436  42.472  19.761   3.286
  122W        W72437   9.708   9.408  11.518
  123W        W72438   2.691   8.598   1.768
  124W        W72439   8.734  35.831   3.623
  125W        W72440  33.091  22.286   1.892
  126W        W72441  28.451  11.612   3.655
  127W        W72442  24.755  25.613   1.848
  128W        W72443  12.509  16.512   5.379
  129W        W72444   4.498  31.365  12.941
  130W        W72445   9.554  41.247   1.949
  131W        W72446  37.437  26.216   4.247
  132W        W72447  40.290   1.020  13.129
  133W        W72448  27.510  44.869  11.505
  134W        W72449   0.364   3.001   4.169
  135W        W72450  16.297   8.437  12.088
  136W        W72451  12.863  11.651   1.752
  137W        W72452  24.147  41.007  10.967
  138W        W72453  24.525   9.747   0.827
  139W        W72454  23.334  43.909  10.663
  140W        W72455   4.063   3.376  10.659
  141W        W72456   5.876  44.514   0.253
  142W        W72457  13.345  42.027   2.298
  143W        W72458  23.081  16.436  14.367
  144W        W72459  35.025  24.601  13.123
  145W        W72460  26.032  15.317   4.604
  146W        W72461  39.464  14.166   2.492
  147W        W72462  14.715   1.450  11.432
  148W        W72463  30.981  24.210   3.180
  149W        W72464  21.113  12.820  12.389
  150W        W72465  15.640  11.880  10.688
  151W        W72466  12.353   1.144   1.802
  152W        W72467  22.086  34.805  11.887
  153W        W72468  16.199  10.740   0.234
  154W        W72469  21.205  14.631   0.782
  155W        W72470   1.576  19.629   0.708
  156W        W72471  30.533  43.954  14.647
  157W        W72472  25.007  31.594   1.613
  158W        W72473  41.385  35.503  12.412
  159W        W72474  23.198  23.281   2.867
  160W        W72475  40.840   8.300   4.637
  161W        W72476  39.936   8.234   4.591
  162W        W72477   6.266  26.716  13.823
  163W        W72478  16.982  41.037  13.446
  164W        W72479   2.179  25.780  10.688
  165W        W72480  34.839  31.817   1.395
  166W        W72481   0.507  40.619  11.050
  167W        W72482   8.371  37.485   4.122
  168W        W72483   8.885  42.352  12.852
  169W        W72484   4.361  36.108   4.191
  170W        W72485  43.389  10.133  11.650
  171W        W72486   7.001  26.156  10.497
  172W        W72487  23.994  34.158  14.587
  173W        W72488  42.378  22.729   2.813
  174W        W72489  35.062   2.693   3.215
  175W        W72490  13.595  31.967   1.404
  176W        W72491  24.631  18.619   4.310
  177W        W72492  24.265  39.618   2.679
  178W        W72493  42.488  41.388   4.677
  179W        W72494  40.064  22.246  11.545
  180W        W72495   7.813   4.679   3.215
  181W        W72496   7.622  26.964  13.930
  182W        W72497  17.371  27.251   3.853
  183W        W72498  42.302  38.047   0.326
  184W        W72499  22.004  39.799   0.878
  185W        W72500   4.335  36.607   2.416
  186W        W72501   1.264  16.709  10.685
  187W        W72502  13.315   8.164   0.425
  188W        W72503   6.866  11.123   1.758
  189W        W72504  32.965  22.261  11.062
  190W        W72505  15.076   2.214   2.981
  191W        W72506  16.245  31.956   4.663
  192W        W72507   3.473  39.305  10.612
  193W        W72508  14.741   4.507   0.849
  194W        W72509  30.388  17.298   4.238
  195W        W72510  40.817  18.511   2.346
  196W        W72511  13.551   0.856  10.955
  197W        W72512  44.739   5.197   0.396
  198W        W72513  27.237  37.891  13.438
  199W        W72514  40.380  41.035   0.946
  200W        W72515  40.273   5.887  14.322
  201W        W72516  16.230  11.763   0.312
  202W        W72517  35.588   4.267   1.980
  203W        W72518  37.752   9.904   3.974
  204W        W72519  19.331   7.117   0.391
  205W        W72520  18.724  15.138  12.673
  206W        W72521  25.409  35.569   1.658
  207W        W72522  44.197   1.233  13.910
  208W        W72523  35.553  14.852  12.911
  209W        W72524  26.301  36.504  12.510
  210W        W72525  31.461  15.071  13.327
  211W        W72526  27.609   6.860  13.856
  212W        W72527  36.550  43.643   2.400
  213W        W72528   7.805  30.435  13.315
  214W        W72529  42.473  34.060   3.889
  215W        W72530   3.482  25.648  13.369
  216W        W72531  26.859  36.329   1.645
  217W        W72532  32.091  20.188   0.477
  218W        W72533  27.489  31.135  13.420
  219W        W72534  42.365  22.792  13.585
  220W        W72535   3.837  41.763   0.186
  221W        W72536  22.777  14.093  12.177
  222W        W72537  16.630  27.203  11.822
  223W        W72538  35.462  44.309  12.015
  224W        W72539   0.015  22.565  12.466
  225W        W72540  21.236  18.290  12.122
  226W        W72541   8.139  42.212  11.161
  227W        W72542  39.944  28.571  11.197
  228W        W72543  37.949  11.589   0.956
  229W        W72544  22.133  20.632  10.645
  230W        W72545  37.709  36.902   3.312
  231W        W72546  37.408  19.788  12.181
  232W        W72547  11.140  33.495  12.480
  233W        W72548  33.080  14.767  13.962
  234W        W72549  25.211   2.433   3.238
  235W        W72550  42.363  41.289  13.766
  236W        W72551   1.773   7.289  13.075
  237W        W72552  41.521   4.641  11.054
  238W        W72553  30.992  30.023   2.676
  239W        W72554  34.348  21.626  12.756
  240W        W72555  34.682  35.664  12.030
  241W        W72556  44.327   1.749  13.895
  242W        W72557  27.449  12.170  11.109
  243W        W72558   9.276  34.158   4.215
  244W        W72559  18.603  32.541   0.033
  245W        W72560   0.814  22.005   4.330
  246W        W72561  31.238   5.776  11.625
  247W        W72562   4.119   5.702   3.163
  248W        W72563  32.583  21.813  12.424
  249W        W72564   0.564  24.726  14.812
  250W        W72565  37.466   7.674  14.204
  251W        W72566   0.314  36.918  14.713
  252W        W72567  31.865  34.111  14.395
  253W        W72568  41.218  39.032  14.808
  254W        W72569  16.547   5.519  13.004
  255W        W72570  10.651  18.116   1.785
  256W        W72571  16.747  10.813   3.251
  257W        W72572  23.957  21.601   4.093
  258W        W72573  29.128   1.000  11.140
  259W        W72574  24.950  31.427  13.542
  260W        W72575  39.589  17.896  13.881
  261W        W72576  26.434   4.282   4.195
  262W        W72577  21.216  27.654   2.713
  263W        W72578  30.339   5.704   0.973
  264W        W72579   2.486   7.879   3.168
  265W        W72580   8.949  16.851  13.836
  266W        W72581  11.629  19.452   1.322
  267W        W72582   6.776  24.269  10.584
  268W        W72583  33.844  12.300   1.385
  269W        W72584  32.262  35.581  11.804
  270W        W72585  29.111  18.135  13.858
  271W        W72586  11.159  10.879  10.659
  272W        W72587  38.387  25.466  11.913
  273W        W72588  35.531  37.788  12.844
  274W        W72589   7.357   0.347   3.836
  275W        W72590   2.285  18.672   4.166
  276W        W72591  27.706   0.405  14.085
  277W        W72592  11.678  43.831  11.668
  278W        W72593  44.730  32.431   2.815
  279W        W72594  39.451  42.007   4.168
  280W        W72595   7.392  36.034  10.663
  281W        W72596   9.710  14.661   3.285
  282W        W72597  36.579  38.869   1.348
  283W        W72598  14.735  29.564  10.317
  284W        W72599  19.312  23.076   1.827
  285W        W72600  31.473   3.894   3.801
  286W        W72601   3.812  23.575   2.190
  287W        W72602  35.968   6.130  13.994
  288W        W72603   5.509   7.417   1.907
  289W        W72604  23.464  30.126  11.183
  290W        W72605  29.140  40.900  12.077
  291W        W72606   7.530  39.769  11.238
  292W        W72607  10.796  42.296   1.248
  293W        W72608   8.399  21.578  10.555
  294W        W72609   9.399  24.012   0.388
  295W        W72610  31.581  19.271  14.876
  296W        W72611  39.060  28.703   5.171
  297W        W72612   6.331  21.469   1.204
  298W        W72613  42.568  10.641  12.577
  299W        W72614   3.746   3.201   4.693
  300W        W72615  33.652   4.737   1.247
  301W        W72616  33.512  24.581  13.443
  302W        W72617  24.385  13.815   3.898
  303W        W72618   0.402   6.292  13.763
  304W        W72619  30.508  31.243   4.961
  305W        W72620  10.219  31.636  10.676
  306W        W72621   7.829  24.104  11.062
  307W        W72622   0.742  30.781  11.666
  308W        W72623  25.290  21.746   4.573
  309W        W72624  27.564  37.605   3.337
  310W        W72625  21.568   1.721   3.678
  311W        W72626  40.191  11.617  11.157
  312W        W72627  44.024   9.938  14.881
  313W        W72628  36.466   6.169   0.753
  314W        W72629   3.054  17.755   2.195
  315W        W72630  37.502  17.018   1.739
  316W        W72631  36.390  18.732   3.308
  317W        W72632  25.577  34.540  13.380
  318W        W72633  39.252  37.332  11.132
  319W        W72634   8.773  15.671   3.122
  320W        W72635   0.353   7.337   1.336
  321W        W72636  43.659  25.025   2.763
  322W        W72637  23.010  18.726  13.278
  323W        W72638  13.034  44.991   0.436
  324W        W72639  34.428  39.381   4.474
  325W        W72640   4.669   8.168   2.193
  326W        W72641  24.279  42.911   3.101
  327W        W72642  27.772  37.851  14.789
  328W        W72643  38.793  16.644   0.501
  329W        W72644   4.443  31.116  14.924
  330W        W72645  44.464  37.902   2.159
  331W        W72646  30.429  44.941   0.689
  332W        W72647   6.873  14.789  13.241
  333W        W72648  27.912  36.801   3.308
  334W        W72649   4.427  37.579  14.828
  335W        W72650  37.133  16.590  14.968
  336W        W72651  32.966  37.376  11.638
  337W        W72652   4.763  44.220  13.774
  338W        W72653   4.641  44.333  12.793
  339W        W72654  11.091  24.850   3.429
  340W        W72655  18.865  22.265   1.916
  341W        W72656  19.732  14.583   1.963
  342W        W72657  17.065  24.953   2.174
  343W        W72658  19.973  21.456  13.442
  344W        W72659  35.062  10.382  11.123
  345W        W72660  38.859  30.076  12.484
  346W        W72661  26.035  36.400   1.789
  347W        W72662  16.194  29.196  14.298
  348W        W72663  43.076   8.824   3.822
  349W        W72664  29.697  24.049  12.185
  350W        W72665  29.228  12.793   0.802
  351W        W72666  39.755  27.978   0.844
  352W        W72667  30.004  35.042  13.334
  353W        W72668   7.408  29.080   3.840
  354W        W72669  17.683  14.115   2.268
  355W        W72670   7.866   8.627  13.919
  356W        W72671   3.129  43.922  10.579
  357W        W72672  14.828  37.315  13.877
  358W        W72673  33.599  12.240  14.076
  359W        W72674   7.602  27.716   4.080
  360W        W72675  40.538  23.613  12.069
  361W        W72676  23.183  23.214  11.442
  362W        W72677  18.751  44.160  13.772
  363W        W72678  38.145  34.559   1.683
  364W        W72679  35.996   7.175   3.033
  365W        W72680  21.099  43.066   4.577
  366W        W72681  34.795  42.946   4.004
  367W        W72682  17.096   2.350   2.406
  368W        W72683   4.310  31.534   1.474
  369W        W72684   2.724  36.064   2.665
  370W        W72685  24.885  15.257   0.783
  371W        W72686   3.903   0.890   1.023
  372W        W72687  41.898  12.531   3.183
  373W        W72688   5.372  22.030   0.462
  374W        W72689  24.274   3.973   2.215
  375W        W72690  34.866   2.192   2.450
  376W        W72691  34.457  29.895  13.085
  377W        W72692  35.447  26.868  13.196
  378W        W72693  15.742  16.227  13.884
  379W        W72694   4.746   1.314   0.021
  380W        W72695  26.463  25.618   2.820
  381W        W72696  42.486  26.505  14.200
  382W        W72697  37.493   5.891   1.645
  383W        W72698  33.596  14.319  14.764
  384W        W72699  24.703  18.089   1.836
  385W        W72700  41.287  31.663  14.895
  386W        W72701   1.737  12.738   1.022
  387W        W72702  18.272  33.077   0.998
  388W        W72703  17.849  40.737  12.912
  389W        W72704  28.603  12.082   2.748
  390W        W72705   1.764  37.281  11.330
  391W        W72706  11.290  33.637   1.294
  392W        W72707  40.640  43.988  10.579
  393W        W72708  31.871  21.258   4.189
  394W        W72709  40.749  16.973   3.909
  395W        W72710  14.785  22.881  12.017
  396W        W72711   2.939  16.247  10.931
  397W        W72712  18.195   6.238  13.489
  398W        W72713  42.849  16.182  11.915
  399W        W72714  27.938  23.809  10.085
  400W        W72715  35.494  42.940  12.472
  401W        W72716  21.165  41.875  13.781
  402W        W72717  22.247  38.109  12.043
  403W        W72718  17.276  21.029   1.389
  404W        W72719  29.645  18.848  11.604
  405W        W72720  14.093  30.200  13.403
  406W        W72721  29.142  24.635  12.200
  407W        W72722  11.673  11.837  12.646
  408W        W72723  21.597  12.832   0.675
  409W        W72724  29.501   7.311   1.164
  410W        W72725  39.613  24.488  10.904
  411W        W72726  21.564  23.082   2.729
  412W        W72727  42.931  38.444   0.008
  413W        W72728  11.176   4.162  12.170
  414W        W72729  35.972   8.848  14.930
  415W        W72730  13.982   0.338  14.333
  416W        W72731   8.464  16.487   2.843
  417W        W72732   5.944  14.645  14.254
  418W        W72733   2.166  31.649  11.453
  419W        W72734   6.638  10.167   1.871
  420W        W72735   5.780  44.024   1.701
  421W        W72736  27.212  17.632  12.306
  422W        W72737  13.825  12.526   2.936
  423W        W72738  15.061   9.715  11.292
  424W        W72739  30.041  32.841  11.122
  425W        W72740   0.760  30.029   1.444
  426W        W72741  41.397   6.325   0.386
  427W        W72742  16.331  44.029  12.524
  428W        W72743  12.125  34.914   1.337
  429W        W72744   9.205  35.114   4.059
  430W        W72745  14.277  15.604  14.387
  431W        W72746  18.985  18.454  12.479
  432W        W72747  16.339  34.679  12.561
  433W        W72748  12.786  23.475  11.636
  434W        W72749  15.562  13.761  14.263
  435W        W72750  42.720  23.100  12.095
  436W        W72751  20.734  36.775  13.035
  437W        W72752  20.339  21.199   4.651
  438W        W72753   5.707   6.713   4.787
  439W        W72754  38.265  39.369   2.760
  440W        W72755  33.077   1.378  14.181
  441W        W72756  20.434   4.365   0.747
  442W        W72757  21.215  36.852  12.845
  443W        W72758   0.815  10.587  11.072
  444W        W72759   4.519   3.128   2.701
  445W        W72760  10.484  40.505  13.861
  446W        W72761  30.175  44.114  13.499
  447W        W72762  11.067  40.717   0.510
  448W        W72763  17.264  22.044   0.329
  449W        W72764  25.901   1.427   1.234
  450W        W72765  25.032  34.766   2.746
  451W        W72766  23.991  32.422  12.539
  452W        W72767  17.209  20.471   1.188
  453W        W72768   9.711  17.794   1.432
  454W        W72769  32.784  28.636  11.115
  455W        W72770   0.269  12.224  10.257
  456W        W72771  35.988  13.095  11.010
  457W        W72772  39.553  25.396   1.981
  458W        W72773  35.046  24.275   0.761
  459W        W72774  34.099  39.817   4.142
  460W        W72775  25.763  24.250   2.597
  461W        W72776  28.004  41.519   0.647
  462W        W72777   0.957  26.668   2.252
  463W        W72778   6.366  20.904   1.245
  464W        W72779   1.438  14.189  13.524
  465W        W72780  34.646  24.066  13.939
  466W        W72781   5.525  23.046   0.461
  467W        W72782  31.510  25.445  12.362
  468W        W72783  16.711   6.262   2.090
  469W        W72784  37.024  33.078  13.338
  470W        W72785  38.502  40.792   3.797
  471W        W72786  16.259   4.932  11.278
  472W        W72787  40.581  13.797   0.748
  473W        W72788  13.184  10.447   5.272
  474W        W72789  34.421  14.032  11.577
  475W        W72790  19.796   0.454   0.979
  476W        W72791  15.879  10.306  11.082
  477W        W72792   5.217  15.691   5.086
  478W        W72793  16.881  14.775   2.248
  479W        W72794   4.366  15.594   4.581
  480W        W72795  24.289   5.210  10.607
  481W        W72796   8.923  14.202  12.061
  482W        W72797  22.652   2.742  14.994
  483W        W72798  34.600   8.905  11.912
  484W        W72799  14.232  24.162   3.131
  485W        W72800  35.261   8.759   4.798
  486W        W72801   7.186  18.730   3.626
  487W        W72802  15.845  37.497  13.567
  488W        W72803   1.982  33.079  13.371
  489W        W72804  18.112  21.252  14.825
  490W        W72805  36.091  16.105  10.790
  491W        W72806  26.395  23.480  12.575
  492W        W72807  40.257   4.433  10.641
  493W        W72808   1.304  44.814  14.792
  494W        W72809  40.554  23.380  14.037
  495W        W72810  31.877  23.433  13.784
  496W        W72811   3.065  22.084  14.289
  497W        W72812  35.563  28.208   3.288
  498W        W72813  10.076   2.439  13.557
  499W        W72814  26.066   7.526   0.408
  500W        W72815  16.818   9.872   0.188
  501W        W72816  27.158  38.090  10.544
  502W        W72817  26.104  16.086   3.197
  503W        W72818  35.879  18.928   1.055
  504W        W72819  15.995  21.487   2.759
  505W        W72820  20.593  14.704  11.566
  506W        W72821   2.774  30.182  12.899
  507W        W72822  24.170  30.180   4.561
  508W        W72823   5.220  20.875  10.158
  509W        W72824  16.981  33.165  14.191
  510W        W72825  28.615   6.165   2.662
  511W        W72826  29.486  15.154  14.956
  512W        W72827  14.440  25.441  14.697
  513W        W72828  40.930  40.805  14.782
  514W        W72829  29.451  25.605  12.963
  515W        W72830  17.358  33.957   0.886
  516W        W72831  11.736  23.035   3.653
  517W        W72832  43.011   1.733  13.354
  518W        W72833  18.606  26.032   3.782
  519W        W72834  34.066  39.950  12.603
  520W        W72835   6.383  40.274  11.420
  521W        W72836   1.827  21.065  11.958
  522W        W72837  19.575  38.964  11.526
  523W        W72838  14.203  44.496   2.149
  524W        W72839  34.415   4.022  13.063
  525W        W72840  14.635   3.848  13.842
  526W        W72841  11.325  44.435  13.548
  527W        W72842  13.570  17.036   3.808
  528W        W72843  22.395   0.285  12.052
  529W        W72844  15.465  32.018   3.349
  530W        W72845  17.829   9.778   0.405
  531W        W72846  40.343  33.221   2.184
  532W        W72847   8.701  29.442  12.057
  533W        W72848   8.740  31.719   3.114
  534W        W72849  21.943  29.882   1.134
  535W        W72850  32.981  30.498   3.557
  536W        W72851  30.660  18.152   3.362
  537W        W72852  34.915  29.330  10.794
  538W        W72853  44.891  25.378  12.354
  539W        W72854  35.770  12.178  13.373
  540W        W72855  11.313  38.710  13.899
  541W        W72856   7.032  34.718   2.447
  542W        W72857  15.116  13.406  13.305
  543W        W72858  16.750   3.430  14.525
  544W        W72859   2.559   0.829  12.324
  545W        W72860   7.672  42.791   3.350
  546W        W72861  26.878  12.672  12.226
  547W        W72862  44.921  41.556  12.877
  548W        W72863  42.903   5.408   1.316
  549W        W72864  26.739  16.766   0.657
  550W        W72865  31.181  22.644  12.939
  551W        W72866  44.925  40.256   2.873
  552W        W72867  40.287  28.574  10.784
  553W        W72868   8.673  31.918   0.432
  554W        W72869   2.374  15.701   1.697
  555W        W72870  31.696  16.777   1.821
  556W        W72871   1.725  29.159   2.320
  557W        W72872   1.013  15.740  13.032
  558W        W72873   9.414  18.812  10.118
  559W        W72874  36.072   4.909   4.315
  560W        W72875   8.850  29.502  10.950
  561W        W72876  31.162  29.959   3.224
  562W        W72877  34.525  30.965   0.074
  563W        W72878  10.836   3.932   3.623
  564W        W72879  34.887  12.385  13.547
  565W        W72880   9.813  21.718   0.793
  566W        W72881  14.022  32.368  13.453
  567W        W72882  29.194  12.012   2.369
  568W        W72883  21.717  24.365   3.120
  569W        W72884  23.744  14.057  10.565
  570W        W72885  42.249  43.552   3.097
  571W        W72886  29.546  18.200   2.426
  572W        W72887   8.848  23.506   3.535
  573W        W72888  37.272  20.186   0.983
  574W        W72889   7.573  21.474  13.510
  575W        W72890  43.796  34.400  13.094
  576W        W72891   4.296   6.289  10.540
  577W        W72892  40.539  21.194  10.119
  578W        W72893   0.439  26.897  13.433
  579W        W72894  30.327  44.437  13.888
  580W        W72895  23.421  41.542  12.071
  581W        W72896  17.092  31.445   9.622
  582W        W72897  41.549  37.470   1.380
  583W        W72898   1.990  38.522  11.174
  584W        W72899  14.258  11.395   4.178
  585W        W72900   7.748  11.051  12.680
  586W        W72901  12.781  36.403   4.696
  587W        W72902   6.403  13.707   5.041
  588W        W72903  44.655  16.628  12.642
  589W        W72904   4.148  39.056   0.455
  590W        W72905  41.028   7.870  14.929
  591W        W72906  26.011  27.625  11.464
  592W        W72907  18.036  42.899   1.232
  593W        W72908  35.638  36.935   2.480
  594W        W72909  22.764   8.544  13.626
  595W        W72910  43.101  10.026  10.281
  596W        W72911  14.175  28.929  11.649
  597W        W72912  22.675  12.425   1.854
  598W        W72913   5.194   5.882   1.325
  599W        W72914  13.723  10.715  13.457
  600W        W72915  11.758   2.816   4.701
  601W        W72916   5.382   5.813  14.394
  602W        W72917   7.051  34.712  13.837
  603W        W72918  30.685  24.029  12.284
  604W        W72919  20.165  40.624  13.812
  605W        W72920  27.564  18.555   4.630
  606W        W72921  23.614   6.434   1.537
  607W        W72922  30.706  10.793   4.277
  608W        W72923  37.383  38.837   0.320
  609W        W72924  10.344  13.004   4.430
  610W        W72925  21.703  26.979   2.954
  611W        W72926  27.081  12.713   3.637
  612W        W72927  28.168  42.792   0.412
  613W        W72928  25.559  11.559   2.726
  614W        W72929  17.756  15.240   4.868
  615W        W72930  23.897  13.629  12.126
  616W        W72931  16.688  29.527   1.212
  617W        W72932  44.364   9.281   4.033
  618W        W72933   9.774  25.711   0.509
  619W        W72934  30.536   6.767   3.138
  620W        W72935  18.724  34.127  14.976
  621W        W72936  29.951   1.041  14.497
  622W        W72937   5.179  32.215   0.832
  623W        W72938   8.968  10.312   4.147
  624W        W72939   0.288  17.391   4.160
  625W        W72940  12.715  28.879  12.007
  626W        W72941  34.206   9.740   0.210
  627W        W72942   9.353  29.071  10.316
  628W        W72943  27.163  32.594   2.421
  629W        W72944  21.469  17.848  12.022
  630W        W72945  30.507  32.516  10.653
  631W        W72946  14.764   2.821  14.297
  632W        W72947  28.042  38.519  14.300
  633W        W72948  15.597  29.982   4.694
  634W        W72949   8.489  12.371  13.246
  635W        W72950  22.263  32.134  10.513
  636W        W72951  42.487  20.964   5.378
  637W        W72952  18.133  27.660   2.841
  638W        W72953  21.494  30.374   9.978
  639W        W72954  39.510  42.918   0.747
  640W        W72955  26.440  29.276   4.557
  641W        W72956  25.885  26.734  11.497
  642W        W72957  36.691  19.811   3.202
  643W        W72958  18.555  41.442  14.841
  644W        W72959  43.908  16.170   0.969
  645W        W72960  25.222  16.624  12.539
  646W        W72961  29.084  38.239  12.039
  647W        W72962  17.225  19.952  11.987
  648W        W72963  31.656  23.235   0.023
  649W        W72964  28.645  14.124   4.032
  650W        W72965  24.116  36.555  12.133
  651W        W72966  27.455  21.493   1.312
  652W        W72967   1.933  17.234   1.857
  653W        W72968  31.166  26.749   1.744
  654W        W72969  38.795  40.781   4.261
  655W        W72970  12.148  26.937   3.317
  656W        W72971   4.835  19.286  13.977
  657W        W72972  38.680   3.478  13.555
  658W        W72973   0.349  42.375  13.656
  659W        W72974  36.278   7.241  13.040
  660W        W72975   9.088   4.569   0.709
  661W        W72976  38.503  28.448  12.893
  662W        W72977  40.228   2.875   2.704
  663W        W72978  13.653   8.967  13.809
  664W        W72979  43.427  12.689  11.078
  665W        W72980  17.538  29.715   3.757
  666W        W72981  11.283  37.775   0.956
  667W        W72982  21.123  19.362  13.683
  668W        W72983  26.995  41.805  11.167
  669W        W72984  19.852  39.853   4.109
  670W        W72985   9.673  36.964  12.085
  671W        W72986  32.499   3.405  10.804
  672W        W72987  17.486   9.807   0.832
  673W        W72988  34.453  41.915  11.184
  674W        W72989  44.731  21.000  13.748
  675W        W72990  11.790  11.263  14.277
  676W        W72991  16.855   3.441   0.797
  677W        W72992  39.267  36.436   4.324
  678W        W72993   7.462  43.399   3.897
  679W        W72994  20.269  35.981   4.484
  680W        W72995  22.449   9.457  12.098
  681W        W72996  15.880   6.414  10.533
  682W        W72997  35.489  15.157   2.314
  683W        W72998  40.776  25.442  10.231
  684W        W72999  42.185  24.462  10.991
  685W        W73000  44.760   4.897   3.575
  686W        W73001  32.849  19.484   0.400
  687W        W73002  34.976  17.898  13.188
  688W        W73003  34.377  24.574   0.918
  689W        W73004   0.950  38.300   1.029
  690W        W73005  44.433   2.804  11.534
  691W        W73006  43.866   7.836  11.439
  692W        W73007  40.539  24.493  11.942
  693W        W73008   0.837  43.602   4.685
  694W        W73009  29.108  15.123  12.385
  695W        W73010  11.350   2.111   1.212
  696W        W73011   4.798   2.943  12.505
  697W        W73012  15.848   8.866   0.871
  698W        W73013  11.584  16.463   4.192
  699W        W73014   2.433  13.875  13.048
  700W        W73015  29.574  25.501  12.471
  701W        W73016  11.686  14.268  12.391
  702W        W73017  40.987  14.248  14.546
  703W        W73018  19.107  31.707   2.274
  704W        W73019   4.647  12.071   1.639
  705W        W73020  14.521  15.713   0.917
  706W        W73021  24.210  30.168  12.924
  707W        W73022   7.430  29.633   0.486
  708W        W73023  36.162  25.290   2.786
  709W        W73024   9.086  30.750   1.794
  710W        W73025  28.886   0.909   3.804
  711W        W73026  40.237  23.499  11.198
  712W        W73027  29.052  15.820  14.545
  713W        W73028  28.599  17.933   3.797
  714W        W73029  38.138  43.369   1.694
  715W        W73030  30.101   7.737   1.168
  716W        W73031  21.078  27.855  10.244
  717W        W73032  20.832  43.358   1.272
  718W        W73033  38.028   7.256  10.665
  719W        W73034  24.677  11.126  13.918
  720W        W73035  42.539  13.110   3.314
  721W        W73036  26.003  11.444  14.526
  722W        W73037  43.335  30.033   4.279
  723W        W73038  10.317  11.788   4.874
  724W        W73039   1.524  16.789   3.197
  725W        W73040  34.005  29.367   2.678
  726W        W73041  31.842  18.843   4.241
  727W        W73042  24.754  38.898  13.031
  728W        W73043  32.893   2.389   4.292
  729W        W73044  36.633  23.711   4.673
  730W        W73045  25.571  21.142   3.669
  731W        W73046  16.768  17.748  10.528
  732W        W73047  26.593  10.207  13.327
  733W        W73048  27.054   3.206   3.738
  734W        W73049  22.235  35.634   0.967
  735W        W73050  20.262  24.809   0.846
  736W        W73051   9.472  30.238   3.931
  737W        W73052  26.048  41.439  12.635
  738W        W73053  40.366  21.044   3.033
  739W        W73054  33.453  20.078   3.595
  740W        W73055  21.310  21.641  12.534
  741W        W73056  20.248   2.276  11.678
  742W        W73057  17.037   4.846   1.201
  743W        W73058  41.521  23.003  14.915
  744W        W73059  30.417  36.136   0.359
  745W        W73060  30.483  16.755   3.362
  746W        W73061   8.095  14.726  11.273
  747W        W73062  33.989  40.105   3.549
  748W        W73063   1.575  12.784   4.109
  749W        W73064  21.772  19.042  10.912
  750W        W73065  21.735  14.721  10.888
  751W        W73066   3.425   1.478  11.416
  752W        W73067   5.626   7.604  11.898
  753W        W73068  26.176  31.498   2.165
  754W        W73069   8.153  28.511   0.746
  755W        W73070  19.315  43.295   0.381
  756W        W73071   0.331  33.052   1.697
  757W        W73072  24.830   8.369  14.596
  758W        W73073  25.546  19.972  11.955
  759W        W73074  28.878  26.960   3.595
  760W        W73075  17.229  24.242  14.730
  761W        W73076  32.319  24.574  14.975
  762W        W73077  16.941  42.828  14.902
  763W        W73078  22.483  34.877   1.798
  764W        W73079   2.770  16.706   4.610
  765W        W73080  14.979  38.791  12.897
  766W        W73081  36.926   8.928   1.959
  767W        W73082  25.684   2.703  10.525
  768W        W73083   6.860  24.022  14.935
  769W        W73084   9.817  44.513   3.687
  770W        W73085  18.479  41.013   5.671
  771W        W73086  20.650  35.483  12.447
  772W        W73087  38.042   7.977   2.009
  773W        W73088   8.591  14.577  11.301
  774W        W73089  28.714  26.893   4.093
  775W        W73090  32.973  34.898   0.983
  776W        W73091  40.129  26.032   1.456
  777W        W73092  33.969  23.674   4.564
  778W        W73093  18.302  12.254  10.843
  779W        W73094  33.394  16.430   0.424
  780W        W73095   1.396  11.794   0.796
  781W        W73096  44.752  42.560  14.190
  782W        W73097  23.633   1.239  14.270
  783W        W73098  24.098  10.075   2.217
  784W        W73099   2.401  25.469   4.625
  785W        W73100   0.486  41.787   4.045
  786W        W73101  25.100   7.266   0.403
  787W        W73102  30.554  43.856  13.265
  788W        W73103  42.004  41.333  10.297
  789W        W73104  19.467  11.579   3.509
  790W        W73105  44.435  12.273   0.960
  791W        W73106   0.189   4.402  14.884
  792W        W73107  21.244  26.449  11.517
  793W        W73108  30.921  43.767  14.913
  794W        W73109   6.056   5.071  13.275
  795W        W73110  36.474   3.433   4.595
  796W        W73111   3.981  14.244   3.424
  797W        W73112   4.739  17.312   2.515
  798W        W73113  35.154  32.832   3.674
  799W        W73114  44.613   6.882   1.541
  800W        W73115  28.922  24.057  13.995
  801W        W73116  18.953  25.164   3.924
  802W        W73117  23.701  30.549   2.104
  803W        W73118  43.307   0.305   1.369
  804W        W73119  20.783  26.119   1.812
  805W        W73120  31.445  41.522  13.843
  806W        W73121   8.181  24.255   0.877
  807W        W73122  42.071   7.652   3.473
  808W        W73123  12.536  29.488   1.846
  809W        W73124  21.620  24.081  10.630
  810W        W73125  42.972   5.227   4.876
  811W        W73126  29.849  16.749  11.640
  812W        W73127  24.665  28.865   4.580
  813W        W73128   9.121  36.836   1.127
  814W        W73129  18.276  40.906   1.808
  815W        W73130  23.750  13.774   4.060
  816W        W73131  16.273  38.538   0.878
  817W        W73132   2.712  21.393   2.213
  818W        W73133  28.282  35.027   4.724
  819W        W73134  33.018  31.365   4.572
  820W        W73135  27.799   9.433  11.075
  821W        W73136   6.802  25.246  14.319
  822W        W73137  12.593  25.503   4.539
  823W        W73138  40.480  30.888   3.691
  824W        W73139  35.979  37.284   2.662
  825W        W73140  39.555  18.972  11.755
  826W        W73141  39.813  23.150   1.358
  827W        W73142  35.627  13.168   1.947
  828W        W73143   5.295  14.010  12.717
  829W        W73144  13.472   6.708  11.590
  830W        W73145  12.147  19.357  13.081
  831W        W73146   6.338  19.429  10.330
  832W        W73147  32.997  17.756  14.584
  833W        W73148  38.780  10.060   0.856
  834W        W73149  33.406  36.647  13.531
  835W        W73150  43.313   3.179  14.089
  836W        W73151   6.885  40.149   0.269
  837W        W73152  16.552  42.316   0.908
  838W        W73153  25.004  37.447   4.016
  839W        W73154  13.314  27.560   1.291
  840W        W73155  11.163  23.682   1.710
  841W        W73156   0.431  36.015   3.141
  842W        W73157  20.675  35.144  14.009
  843W        W73158  27.534   6.515  14.711
  844W        W73159  24.964  42.772   0.389
  845W        W73160  19.462   6.901   1.267
  846W        W73161  28.653  27.493  10.567
  847W        W73162  23.315  31.466   3.553
  848W        W73163  19.182  15.386   4.125
  849W        W73164  43.231  13.243  14.264
  850W        W73165   1.350  11.214   0.372
  851W        W73166  12.356  27.422  14.027
  852W        W73167   0.341  32.098   2.113
  853W        W73168  21.812  15.666   4.170
  854W        W73169  13.256  11.247   2.781
  855W        W73170  12.335  40.005  11.943
  856W        W73171   2.684  31.085  13.438
  857W        W73172   3.154  17.276   3.775
  858W        W73173  38.776  26.095   4.028
  859W        W73174  10.298   6.642   5.044
  860W        W73175   3.241  13.044  10.688
  861W        W73176  33.520   8.743  11.217
  862W        W73177  11.599  16.832   4.604
  863W        W73178  12.235  25.625   2.138
  864W        W73179  39.977   3.926   0.960
  865W        W73180  27.616  30.740  10.507
  866W        W73181  19.707  17.752  14.050
  867W        W73182  16.585  37.905   2.390
  868W        W73183  39.895  12.985  13.400
  869W        W73184  31.504  10.406   3.229
  870W        W73185   7.226  19.664   3.395
  871W        W73186  41.457  26.371  14.945
  872W        W73187  34.468  28.528   0.740
  873W        W73188  37.549  35.428   1.222
  874W        W73189   3.922  30.215   2.796
  875W        W73190  33.323  24.117  13.294
  876W        W73191  37.610  37.028   4.902
  877W        W73192   8.069  40.387   2.298
  878W        W73193  11.227  28.843   3.794
  879W        W73194  44.290  40.932   4.638
  880W        W73195  42.271  36.116  13.482
  881W        W73196  13.108  16.532  12.769
  882W        W73197  10.706  20.037   2.654
  883W        W73198   5.936  11.196   1.323
  884W        W73199  23.149  26.161   3.354
  885W        W73200  24.591  40.014   4.475
  886W        W73201  36.159  32.874  14.410
  887W        W73202  21.595  18.118  11.341
  888W        W73203   9.881   6.902  13.231
  889W        W73204  33.690  12.843  13.396
  890W        W73205   9.387   6.808   1.012
  891W        W73206  30.181  37.871   0.419
  892W        W73207   4.500   8.862   0.503
  893W        W73208  40.883  16.147   4.411
  894W        W73209   3.691  41.329   2.804
  895W        W73210  44.284  17.757  11.606
  896W        W73211  33.652   6.166  14.019
  897W        W73212   6.865  15.611   2.703
  898W        W73213  25.758  30.041   3.345
  899W        W73214   4.983  11.828   1.947
  900W        W73215  16.017  36.865   1.199
  901W        W73216  44.518   8.388  11.557
  902W        W73217  12.177  35.871  13.729
  903W        W73218   7.166  29.032   2.766
  904W        W73219  28.827  12.910  11.953
  905W        W73220   7.778  21.828   2.633
  906W        W73221  12.803   3.929   1.194
  907W        W73222  27.390   7.793  14.485
  908W        W73223  25.903  19.118   0.292
  909W        W73224  39.985  38.381   2.885
  910W        W73225  19.626  13.219  13.878
  911W        W73226   0.971  18.837  14.972
  912W        W73227  33.701   3.460   1.020
  913W        W73228  35.295  39.508  12.480
  914W        W73229   4.221  26.703  12.375
  915W        W73230   4.366  27.342   0.401
  916W        W73231  19.344   2.796  12.005
  917W        W73232   1.127   2.737   1.768
  918W        W73233   6.712  33.858   1.842
  919W        W73234  30.985  25.957  11.354
  920W        W73235   6.187  32.071  14.776
  921W        W73236   0.958  16.199   0.511
  922W        W73237  16.550   0.911  14.958
  923W        W73238  10.374   4.578   2.364
  924W        W73239  19.847  19.764   3.328
  925W        W73240  35.026  44.181   0.486
  926W        W73241  34.807  41.725   2.835
  927W        W73242  25.937   4.115   5.032
  928W        W73243   6.139  10.080   0.344
  929W        W73244  38.062   8.907  11.028
  930W        W73245  22.653  39.011  11.044
  931W        W73246   2.473  21.066  10.353
  932W        W73247  43.474  31.559  12.915
  933W        W73248  28.206  10.793   2.023
  934W        W73249  24.469  43.402  12.380
  935W        W73250   0.352   8.183  13.001
  936W        W73251  44.615   9.665  14.328
  937W        W73252  36.441  31.150   0.449
  938W        W73253  37.354  42.349   4.728
  939W        W73254  12.796  28.565   0.814
  940W        W73255   3.909  34.102  11.222
  941W        W73256  21.679  19.990  14.041
  942W        W73257  20.764  26.672   0.099
  943W        W73258   9.894  40.875  10.639
  944W        W73259  25.790   0.330  11.352
  945W        W73260   4.079  29.127  13.372
  946W        W73261  43.039  41.494   0.459
  947W        W73262  35.515  33.832  11.175
  948W        W73263  28.849   5.435  12.526
  949W        W73264   3.935  20.467   4.226
  950W        W73265  12.195  19.758   2.702
  951W        W73266   2.340  10.815  11.115
  952W        W73267  10.704  11.143   3.604
  953W        W73268  22.821   2.755  12.413
  954W        W73269  41.583   7.632  11.143
  955W        W73270  43.712  28.695  13.661
  956W        W73271  15.816  14.379  12.938
  957W        W73272   9.532  30.045   2.480
  958W        W73273  13.510  41.712   3.717
  959W        W73274   8.828  34.480  13.963
  960W        W73275  35.143  19.509   1.023
  961W        W73276   0.545  43.722  13.902
  962W        W73277  40.839  35.520  11.231
  963W        W73278  19.333   5.483   3.753
  964W        W73279  10.542   0.269  11.962
  965W        W73280   3.375  24.840   4.689
  966W        W73281  27.630   0.911   1.968
  967W        W73282  18.084  26.916   2.239
  968W        W73283  21.042   6.095   2.170
  969W        W73284   1.118  13.545  12.381
  970W        W73285  31.350   4.225  12.139
  971W        W73286  38.253  24.157   0.957
  972W        W73287  15.877   4.463  13.918
  973W        W73288  16.887   1.276  14.845
  974W        W73289  14.355  14.562  13.477
  975W        W73290  19.592  32.448  11.150
  976W        W73291  11.135   9.308   0.459
  977W        W73292  33.368  13.651   3.013
  978W        W73293  18.443  15.893  10.423
  979W        W73294   9.086  25.243  12.055
  980W        W73295  31.165  14.368   0.107
  981W        W73296  39.663  20.655  11.117
  982W        W73297  33.623  38.381   4.272
  983W        W73298  26.249   3.295  13.539
  984W        W73299   1.852  32.242  12.256
  985W        W73300   2.267  30.497  13.518
  986W        W73301  32.249  16.604   3.687
  987W        W73302  25.814  31.103   0.304
  988W        W73303  18.448   0.175  11.416
  989W        W73304  39.118  27.193  11.173
  990W        W73305  32.808  33.612  12.138
  991W        W73306   8.808  44.344  14.901
  992W        W73307  33.687  28.816   1.104
  993W        W73308  30.001  13.082  14.720
  994W        W73309  39.025  18.682  10.480
  995W        W73310   2.226  11.215  10.758
  996W        W73311  24.625  23.582   2.673
  997W        W73312  28.451  20.542  11.125
  998W        W73313  15.731  25.783   1.018
  999W        W73314   8.190  18.133   1.803
 1000W        W73315  30.093  14.319   2.448
 1001W        W73316   2.834  21.269   1.248
 1002W        W73317  28.946  33.977  12.785
 1003W        W73318  18.790  18.742  12.859
 1004W        W73319  34.019  14.365   0.051
 1005W        W73320  40.815  35.147   4.756
 1006W        W73321  38.622  22.642  13.266
 1007W        W73322  44.395  26.944   3.340
 1008W        W73323  14.301   0.929  11.995
 1009W        W73324  44.720  31.477   1.532
 1010W        W73325  17.191   2.394  12.304
 1011W        W73326  22.072  27.053  13.384
 1012W        W73327  21.432  29.076  11.506
 1013W        W73328  35.483  33.310  13.579
 1014W        W73329   9.882  11.047   2.317
 1015W        W73330   1.143  15.673   2.279
 1016W        W73331  44.244  16.817   0.365
 1017W        W73332  29.087  17.705   4.082
 1018W        W73333  23.617  22.208   3.123
 1019W        W73334  26.763  33.387  12.523
 1020W        W73335  27.424  41.360   3.305
 1021W        W73336  13.806  11.237   0.476
 1022W        W73337  23.713  42.428   4.587
 1023W        W73338  20.083   8.483  14.531
 1024W        W73339  14.584  29.560   1.801
 1025W        W73340  14.670   1.953  14.967
 1026W        W73341  36.943  23.725  14.004
 1027W        W73342  14.580   8.892  11.507
 1028W        W73343  27.888  26.013  12.515
 1029W        W73344  24.461  22.178  10.276
 1030W        W73345  38.128  23.097  10.752
 1031W        W73346  44.002  33.793   3.655
 1032W        W73347  41.030  16.075   3.508
 1033W        W73348  25.987  22.298  10.543
 1034W        W73349   0.478  41.017   1.707
 1035W        W73350   4.325  19.941   0.797
 1036W        W73351  37.472   4.373  12.116
 1037W        W73352  23.663  34.921   2.451
 1038W        W73353   1.303  32.182  11.268
 1039W        W73354   6.912  16.853  10.789
 1040W        W73355  12.321  38.795   1.315
 1041W        W73356  18.963  29.090  11.118
 1042W        W73357   8.169  41.029   2.933
 1043W        W73358  22.105  15.892  11.077
 1044W        W73359  20.029  32.574   4.206
 1045W        W73360  43.965  29.111  14.029
 1046W        W73361   9.206  22.733  13.839
 1047W        W73362  42.817   4.897  12.353
 1048W        W73363   4.746   2.775   4.766
 1049W        W73364   1.341   5.306   0.435
 1050W        W73365  13.647  42.613  10.824
 1051W        W73366  37.916   4.401   0.444
 1052W        W73367  26.250  15.689   1.341
 1053W        W73368  43.674  27.363  14.428
 1054W        W73369  30.101  13.821   2.640
 1055W        W73370  28.380  44.203   4.239
 1056W        W73371  41.528  10.458   4.235
 1057W        W73372  21.320  30.095  14.844
 1058W        W73373   6.237  26.979   4.899
 1059W        W73374  29.224   4.029  13.935
 1060W        W73375  36.329   9.717  12.917
 1061W        W73376  43.423  23.155  11.455
 1062W        W73377   6.297  37.308  14.428
 1063W        W73378  35.309  11.509  11.743
 1064W        W73379  34.617  41.564   3.275
 1065W        W73380  38.500  37.175   2.878
 1066W        W73381   9.383  37.209   0.891
 1067W        W73382   7.169  42.752   3.336
 1068W        W73383   3.320   5.935  14.946
 1069W        W73384   2.928  28.326  12.555
 1070W        W73385   5.319  22.473  12.480
 1071W        W73386   3.369  12.920   0.003
 1072W        W73387  19.794  11.416   0.977
 1073W        W73388  39.850  24.543   5.083
 1074W        W73389   6.355  11.641   1.324
 1075W        W73390  44.344  28.131  14.715
 1076W        W73391  40.843  37.590   3.736
 1077W        W73392  32.846  19.335   3.746
 1078W        W73393  33.943  20.092   3.130
 1079W        W73394  21.220  14.303   0.253
 1080W        W73395  12.805  25.049  11.731
 1081W        W73396  35.110  35.870  12.799
 1082W        W73397  25.090  22.297   3.262
 1083W        W73398   9.085   0.904   2.467
 1084W        W73399   4.515  11.794   1.209
 1085W        W73400  28.075   5.232   5.063
 1086W        W73401  12.223   0.509   4.111
 1087W        W73402   7.013  42.823  13.893
 1088W        W73403  14.673  20.077   1.558
 1089W        W73404  17.042  37.405  12.509
 1090W        W73405  31.594  13.502   2.469
 1091W        W73406   8.327  11.793   0.704
 1092W        W73407  36.028  19.048   3.533
 1093W        W73408  20.953  16.109   3.666
 1094W        W73409  19.773  14.757   3.837
 1095W        W73410  39.338  44.784  11.628
 1096W        W73411   0.130  26.532   1.712
 1097W        W73412  21.671  41.047  12.935
 1098W        W73413  42.090  21.236   0.723
 1099W        W73414  29.392  17.631   1.740
 1100W        W73415  20.248  15.645   4.046
 1101W        W73416   0.009  21.023   4.741
 1102W        W73417  28.777  44.707  11.038
 1103W        W73418  43.964  10.929  12.411
 1104W        W73419  18.249  21.489  13.918
 1105W        W73420   1.682  29.705  14.720
 1106W        W73421   4.369  41.563   4.526
 1107W        W73422  14.842  12.154   0.813
 1108W        W73423  14.430  44.492  11.965
 1109W        W73424  14.755  22.254  10.420
 1110W        W73425  36.969  10.825  14.961
 1111W        W73426   0.738   2.739  11.166
 1112W        W73427  26.108   5.716  13.609
 1113W        W73428  35.798   7.851   3.665
 1114W        W73429  14.293  10.760   3.904
 1115W        W73430  36.111  24.514  12.080
 1116W        W73431  23.047  41.040  13.527
 1117W        W73432  13.841  38.924  13.994
 1118W        W73433   5.891   5.855  14.367
 1119W        W73434  25.188  10.101   0.087
 1120W        W73435   5.678  13.774   3.789
 1121W        W73436  42.617  16.913   5.044
 1122W        W73437  40.236  12.562  13.947
 1123W        W73438  12.102  32.103   1.405
 1124W        W73439  15.628  35.872   4.612
 1125W        W73440  22.230  33.502   0.902
 1126W        W73441  16.276   5.783  11.842
 1127W        W73442   4.871  23.065   0.458
 1128W        W73443  41.557  35.182  10.770
 1129W        W73444  19.013  33.539   0.222
 1130W        W73445  29.743   4.770   1.288
 1131W        W73446  14.883   2.012   3.771
 1132W        W73447   4.245  42.390   4.157
 1133W        W73448  11.147   0.594   1.301
 1134W        W73449  27.379  21.724   0.854
 1135W        W73450  44.932  34.476  14.340
 1136W        W73451  27.599  21.216   1.765
 1137W        W73452   3.789   8.346   0.552
 1138W        W73453   0.491   0.511   4.170
 1139W        W73454  22.634  38.514  12.342
 1140W        W73455  15.380   7.709   3.590
 1141W        W73456  10.850  25.166   3.777
 1142W        W73457  27.972  20.111  11.571
 1143W        W73458  14.910  10.799  11.042
 1144W        W73459  30.519  22.586   0.286
 1145W        W73460  16.862  18.021   3.722
 1146W        W73461  10.468  12.339   3.089
 1147W        W73462  34.721  33.467   4.945
 1148W        W73463  20.638  35.976  14.299
 1149W        W73464  29.276  31.541   3.293
 1150W        W73465  31.659  11.310  11.338
 1151W        W73466  27.943   1.006  14.748
 1152W        W73467  17.146  31.292  11.010
 1153W        W73468   4.311  20.332  14.464
 1154W        W73469  28.493  37.769  13.888
 1155W        W73470  23.150  12.640   0.527
 1156W        W73471   3.782  15.725   1.841
 1157W        W73472  14.796  23.651  13.568
 1158W        W73473  13.359  11.567   1.865
 1159W        W73474  22.468  40.339   9.969
 1160W        W73475  44.328  30.503  13.404
 1161W        W73476  40.511  19.072   0.940
 1162W        W73477  21.559  35.184  11.119
 1163W        W73478  20.587  43.285  14.023
 1164W        W73479   1.263  20.773  14.831
 1165W        W73480  39.410   7.663   4.570
 1166W        W73481  24.248  13.325  11.865
 1167W        W73482   4.677  16.776  14.525
 1168W        W73483  31.939  16.650   4.112
 1169W        W73484   5.721  34.407   3.220
 1170W        W73485   2.282   3.939   2.243
 1171W        W73486  42.489  27.779  11.216
 1172W        W73487   6.844  31.125   2.130
 1173W        W73488   5.780  35.560   4.184
 1174W        W73489  27.180  39.978   1.781
 1175W        W73490  40.779  28.018  12.034
 1176W        W73491  11.800  25.930   2.160
 1177W        W73492  39.615  41.907  12.691
 1178W        W73493  28.057  34.044   0.459
 1179W        W73494  27.559  34.470  14.392
 1180W        W73495  25.700  29.960   0.968
 1181W        W73496   6.725  35.861  11.827
 1182W        W73497   3.909  43.925  14.847
 1183W        W73498  10.733   6.582  11.745
 1184W        W73499  30.199  36.410   1.381
 1185W        W73500  16.231   8.213  14.480
 1186W        W73501  42.752   7.708  13.810
 1187W        W73502  27.261  15.714   0.020
 1188W        W73503  15.517  27.099   4.243
 1189W        W73504  24.771  44.324  13.041
 1190W        W73505  12.359  32.586  12.788
 1191W        W73506   8.213  21.510  12.385
 1192W        W73507  43.831  44.979  10.372
 1193W        W73508  31.598  14.241  11.010
 1194W        W73509  12.850   1.980  12.449
 1195W        W73510  39.639  27.305  11.994
 1196W        W73511  20.268  20.231  12.184
 1197W        W73512   6.333   5.805   1.479
 1198W        W73513  16.876  40.387  11.569
 1199W        W73514  22.315  25.024   0.931
 1200W        W73515  44.968  33.637  13.948
 1201W        W73516  17.181  38.611  13.044
 1202W        W73517  13.122   5.949  12.634
 1203W        W73518   6.187  16.368  11.953
 1204W        W73519  42.839   0.958  13.933
 1205W        W73520  20.758  15.094  14.894
 1206W        W73521  25.614  36.167   0.260
 1207W        W73522  28.010  11.666   0.752
 1208W        W73523  41.395  21.283  14.450
 1209W        W73524  35.222  18.188  12.584
 1210W        W73525  13.356  20.653  12.057
 1211W        W73526  41.224  15.831   4.665
 1212W        W73527  27.970  12.757   2.655
 1213W        W73528   8.330  12.289  12.401
 1214W        W73529  22.019  39.061   2.759
 1215W        W73530  10.416  19.712   1.883
 1216W        W73531  35.363  40.773  13.606
 1217W        W73532  18.217   0.020  11.846
 1218W        W73533   9.337  38.317  12.920
 1219W        W73534   1.269  25.206   3.658
 1220W        W73535   9.158  35.415   1.286
 1221W        W73536  40.791  15.196   4.241
 1222W        W73537   8.339   8.667  11.961
 1223W        W73538  23.741  36.533  12.491
 1224W        W73539  20.696  36.496   1.488
 1225W        W73540  24.509  41.771  13.496
 1226W        W73541  34.675  38.713  12.449
 1227W        W73542  39.320   5.206   2.718
 1228W        W73543  20.718  27.931  11.210
 1229W        W73544   3.241  42.029  13.851
 1230W        W73545  37.070  34.938   4.593
 1231W        W73546  41.209  25.521   0.682
 1232W        W73547   7.293   5.270  11.476
 1233W        W73548   7.050   7.834   2.768
 1234W        W73549   8.800  11.884   0.551
 1235W        W73550   6.663  29.778  14.768
 1236W        W73551  32.295   9.667   3.837
 1237W        W73552  22.969   5.946  12.112
 1238W        W73553   2.850  12.819   4.508
 1239W        W73554  35.948  44.537   3.958
 1240W        W73555  13.503  38.821   3.277
 1241W        W73556  34.845  36.936  13.809
 1242W        W73557  31.792  44.068   4.889
 1243W        W73558  10.361   0.019   2.059
 1244W        W73559   5.423  38.829  13.940
 1245W        W73560  41.099  19.411   2.655
 1246W        W73561  23.789  41.721  11.168
 1247W        W73562  12.871  44.311   1.672
 1248W        W73563  33.379  29.116   1.896
 1249W        W73564  40.979   1.721  13.309
 1250W        W73565  13.133   9.846  11.520
 1251W        W73566  15.275  13.793   1.224
 1252W        W73567  20.986  39.395  12.689
 1253W        W73568  31.886  14.209  10.580
 1254W        W73569  38.944   4.434  11.098
 1255W        W73570  17.213   6.781  12.054
 1256W        W73571   2.043  35.992  11.101
 1257W        W73572  26.497   7.869   0.037
 1258W        W73573  34.341  16.114   0.501
 1259W        W73574  13.053  33.624   0.068
 1260W        W73575  27.346  17.325   0.388
 1261W        W73576  17.500  13.339  14.453
 1262W        W73577  39.063   0.041   3.693
 1263W        W73578  27.525   0.742  14.413
 1264W        W73579  41.664   2.302  13.477
 1265W        W73580  42.246  43.245   4.501
 1266W        W73581  23.363  19.996   2.432
 1267W        W73582  20.086  25.041  10.705
 1268W        W73583   1.645  39.418   0.417
 1269W        W73584  29.218  34.591  11.980
 1270W        W73585   1.537  39.023  13.030
 1271W        W73586  12.002  17.268  14.748
 1272W        W73587   9.340   6.423   4.522
 1273W        W73588  16.683  12.824   2.097
 1274W        W73589  19.437  12.561  13.307
 1275W        W73590   5.055  19.678   2.325
 1276W        W73591  26.697  23.926  10.838
 1277W        W73592  34.645   0.477   4.668
 1278W        W73593  26.927  18.358   0.735
 1279W        W73594   3.409  18.501   0.922
 1280W        W73595  33.059  24.678  12.975
 1281W        W73596  10.611  11.816   0.871
 1282W        W73597  37.012   4.901  11.225
 1283W        W73598  26.023  12.768   1.736
 1284W        W73599  29.052  22.278  10.810
 1285W        W73600  16.128  38.087   0.681
 1286W        W73601  23.946  14.998   2.470
 1287W        W73602  22.592  17.317  11.183
 1288W        W73603   3.446   7.878  11.157
 1289W        W73604  10.227  20.090  14.482
 1290W        W73605   5.299  38.161  14.319
 1291W        W73606   8.297  14.091   3.942
 1292W        W73607  31.618  31.635   2.497
 1293W        W73608  42.450  14.474  10.548
 1294W        W73609   8.361  35.778  14.725
 1295W        W73610  29.747  10.248  14.428
 1296W        W73611  38.816  10.510   4.628
 1297W        W73612  40.846  27.217   4.446
 1298W        W73613  19.315  34.640  12.455
 1299W        W73614  39.683   4.853  10.919
 1300W        W73615   7.244  18.759   0.313
 1301W        W73616   7.691   2.731   3.273
 1302W        W73617  12.389   1.542  11.639
 1303W        W73618  30.501  20.654   0.160
 1304W        W73619  21.510  39.062  10.385
 1305W        W73620  23.782  13.258   1.667
 1306W        W73621  22.611  10.161   2.337
 1307W        W73622  18.778   9.151  12.912
 1308W        W73623  18.768  19.246   9.665
 1309W        W73624  44.895   6.966   1.992
 1310W        W73625  33.992  43.912   4.123
 1311W        W73626  15.310   0.220   4.133
 1312W        W73627  27.480   4.513   1.313
 1313W        W73628  19.111  37.298   4.729
 1314W        W73629  34.848   7.755  14.834
 1315W        W73630  26.020  29.987  12.674
 1316W        W73631  21.001  13.884  12.424
 1317W        W73632  15.265   3.955   1.737
 1318W        W73633  10.244   5.614   1.023
 1319W        W73634   1.803  17.574   2.809
 1320W        W73635   5.433  41.541   0.465
 1321W        W73636  19.486   9.424  14.774
 1322W        W73637  24.438  29.543   1.199
 1323W        W73638  29.316  17.204   0.972
 1324W        W73639  26.186   7.481  14.138
 1325W        W73640  27.924  44.951   0.463
 1326W        W73641  41.788  19.367   2.843
 1327W        W73642  10.159  10.341   0.771
 1328W        W73643  30.471  35.677  11.513
 1329W        W73644  28.826  38.614  12.353
 1330W        W73645  22.173  22.106  11.502
 1331W        W73646   5.739  36.383   4.078
 1332W        W73647  24.083  41.010  14.430
 1333W        W73648  33.891  11.130   4.080
 1334W        W73649  13.122  34.784  14.904
 1335W        W73650  10.859   0.830   4.874
 1336W        W73651  21.928   2.778  13.378
 1337W        W73652   3.933  32.157   0.438
 1338W        W73653   9.720  13.803  11.453
 1339W        W73654  24.878   1.413  13.874
 1340W        W73655  24.724  21.262   1.825
 1341W        W73656  14.808  11.831   2.003
 1342W        W73657  16.312  16.299   3.376
 1343W        W73658  22.034  17.608   1.834
 1344W        W73659  42.593  19.127  14.967
 1345W        W73660  34.850  24.219   2.782
 1346W        W73661  32.668  31.803  14.393
 1347W        W73662  27.688  12.058   0.638
 1348W        W73663  11.441  23.562   2.175
 1349W        W73664  31.973  29.128   2.606
 1350W        W73665  34.082  13.155  10.693
 1351W        W73666  27.588   2.873   2.154
 1352W        W73667  32.029  22.722   3.126
 1353W        W73668  11.640   3.317  13.476
 1354W        W73669  42.075  24.049  14.671
 1355W        W73670  32.448  29.125   0.384
 1356W        W73671  35.607  32.901  13.261
 1357W        W73672  33.876  36.390  14.019
 1358W        W73673   7.589   1.959  11.519
 1359W        W73674   5.706   0.038   0.212
 1360W        W73675  30.863  21.355   4.297
 1361W        W73676   6.580   0.011   4.348
 1362W        W73677  31.905  42.381   0.259
 1363W        W73678  39.404  13.934   3.381
 1364W        W73679  10.002  35.345  12.040
 1365W        W73680  36.903   5.761  11.194
 1366W        W73681  44.407  18.523   0.733
 1367W        W73682  29.910   0.048  12.161
 1368W        W73683   6.197  40.052   3.052
 1369W        W73684  20.069  35.535   4.634
 1370W        W73685  20.676  38.841   1.198
 1371W        W73686  37.989  29.582   1.609
 1372W        W73687  14.341  28.679  11.237
 1373W        W73688   0.357  40.980  13.422
 1374W        W73689   8.136  11.650   1.329
 1375W        W73690  19.039  18.642  13.311
 1376W        W73691  28.520  31.670  10.639
 1377W        W73692  34.817  13.779   3.658
 1378W        W73693  14.864  17.818   0.954
 1379W        W73694  19.805  29.682   1.743
 1380W        W73695  17.280  26.343   2.354
 1381W        W73696  22.119  14.861  11.201
 1382W        W73697  44.992   5.851   2.584
 1383W        W73698   0.902  18.623   4.858
 1384W        W73699  17.068  29.083  13.050
 1385W        W73700   9.369  39.854   3.196
 1386W        W73701  21.058   4.984   1.377
 1387W        W73702   9.785  28.500   4.901
 1388W        W73703  24.461  13.852   3.390
 1389W        W73704  38.912  42.551  12.028
 1390W        W73705  41.970  17.883  14.076
 1391W        W73706   7.744  12.804   4.600
 1392W        W73707  19.164  16.675   4.777
 1393W        W73708   4.531  16.469  11.510
 1394W        W73709  17.115  41.519  11.004
 1395W        W73710  40.343  20.150  10.773
 1396W        W73711  20.185   5.713   0.837
 1397W        W73712   4.277  26.037  11.118
 1398W        W73713   9.300   7.331   4.055
 1399W        W73714  36.098  16.287  11.390
 1400W        W73715  30.601  22.919   2.368
 1401W        W73716   6.610   2.081   2.754
 1402W        W73717  20.143   7.416  13.300
 1403W        W73718  35.812  25.589   3.604
 1404W        W73719   5.218  25.252  13.645
 1405W        W73720   1.986   1.638  11.155
 1406W        W73721   5.467  16.472  14.709
 1407W        W73722  21.813  20.986   2.241
 1408W        W73723   1.379  10.275   4.413
 1409W        W73724  39.020   3.298  14.290
 1410W        W73725  16.559  18.254   3.305
 1411W        W73726  30.242   6.250   4.565
 1412W        W73727  32.181  41.079  13.403
 1413W        W73728  10.527  22.106  12.418
 1414W        W73729  43.638  12.761   1.470
 1415W        W73730  26.343  35.387  14.444
 1416W        W73731   6.343   4.979   5.254
 1417W        W73732  24.201  33.095  12.107
 1418W        W73733   2.202   4.579   1.265
 1419W        W73734  34.390  28.525  11.576
 1420W        W73735  15.696   0.257  12.413
 1421W        W73736  39.028   5.252   3.148
 1422W        W73737  16.316  22.983  14.337
 1423W        W73738  21.507  11.370  11.637
 1424W        W73739  14.903  12.354   1.312
 1425W        W73740   5.846  21.801  11.108
 1426W        W73741   0.667  33.854  14.507
 1427W        W73742   5.930  17.788  11.221
 1428W        W73743  39.446  11.638   2.392
 1429W        W73744  15.364  40.349  13.535
 1430W        W73745   7.853   4.714   0.446
 1431W        W73746  43.282  28.997   4.301
 1432W        W73747  12.526  31.055  11.269
 1433W        W73748   9.268  32.926   4.779
 1434W        W73749  12.771   8.354  14.522
 1435W        W73750  23.932  28.109   2.830
 1436W        W73751  23.777   2.952  11.505
 1437W        W73752   2.720   6.651   0.092
 1438W        W73753  32.231  25.489   1.517
 1439W        W73754  14.775  36.712  10.736
 1440W        W73755  38.580  12.403  12.397
 1441W        W73756   1.543  14.241   4.735
 1442W        W73757  14.491   4.251   0.279
 1443W        W73758   1.746   1.465  13.890
 1444W        W73759   6.313  21.039  12.056
 1445W        W73760  31.643  31.904  11.951
 1446W        W73761  29.189   6.414   0.954
 1447W        W73762  34.151  37.916  12.175
 1448W        W73763  29.035  37.535  11.055
 1449W        W73764  27.435  18.625   1.577
 1450W        W73765  27.691  15.774  11.161
 1451W        W73766  36.485   5.764  10.317
 1452W        W73767  42.768  13.111  14.086
 1453W        W73768  40.102  43.251  12.444
 1454W        W73769  44.010  10.418  12.373
 1455W        W73770  43.783  20.531   4.166
 1456W        W73771  44.017  36.779   0.446
 1457W        W73772  16.192  38.556  13.866
 1458W        W73773  27.135  40.371  14.233
 1459W        W73774  22.801   2.250   0.400
 1460W        W73775  39.468  21.628  10.762
 1461W        W73776  17.625  40.065  11.557
 1462W        W73777  17.038  43.378   1.641
 1463W        W73778   9.915  29.878  12.871
 1464W        W73779  36.856  21.666   0.226
 1465W        W73780   8.392  11.390   2.749
 1466W        W73781  17.629  27.084  12.072
 1467W        W73782  27.348  29.922   4.869
 1468W        W73783  13.856   9.731   4.367
 1469W        W73784  21.863  18.750  14.798
 1470W        W73785  41.993  39.534   1.905
 1471W        W73786   0.890  38.624   1.405
 1472W        W73787   7.532   9.673   0.436
 1473W        W73788   0.408  38.003   4.095
 1474W        W73789   0.010  14.480   2.398
 1475W        W73790  30.603   1.528  14.906
 1476W        W73791   3.770  22.176  13.502
 1477W        W73792   3.849  28.184   2.413
 1478W        W73793   0.552   8.185  14.105
 1479W        W73794  12.804  31.082  10.670
 1480W        W73795   5.237  42.321   2.816
 1481W        W73796  44.028   3.169   4.188
 1482W        W73797  21.753  28.952  11.116
 1483W        W73798  37.043  23.032   0.424
 1484W        W73799  32.064  15.896  13.475
 1485W        W73800  24.771  15.712  14.435
 1486W        W73801   3.014  44.068   0.358
 1487W        W73802   4.684  26.440  12.711
 1488W        W73803  40.772  25.840   4.625
 1489W        W73804  21.061  13.869   3.793
 1490W        W73805  26.516  44.543  12.559
 1491W        W73806   1.410   9.801   5.390
 1492W        W73807   8.251  15.324  10.678
 1493W        W73808  42.316  25.664   3.530
 1494W        W73809   1.684  22.610   1.922
 1495W        W73810  28.238  14.266  11.556
 1496W        W73811   3.752  20.781  10.483
 1497W        W73812  33.039  29.311  14.000
 1498W        W73813  34.487  25.269  12.105
 1499W        W73814   8.019  30.490  11.078
 1500W        W73815  13.725  24.773   2.899
 1501W        W73816  11.292  35.575  13.476
 1502W        W73817  28.230   3.624  10.618
 1503W        W73818  32.105  39.861  14.132
 1504W        W73819   1.726  30.073  10.732
 1505W        W73820  17.539  10.100  11.912
 1506W        W73821  33.004  33.723  11.564
 1507W        W73822   5.385   3.865  10.522
 1508W        W73823  11.197  19.067  13.751
 1509W        W73824  38.991  10.072  11.597
 1510W        W73825  18.965  41.027  11.109
 1511W        W73826  43.704  38.409   4.719
 1512W        W73827  17.270  42.914  10.968
 1513W        W73828  20.669   3.250   1.414
 1514W        W73829  10.222  23.727  12.186
 1515W        W73830  30.563  10.256   1.814
 1516W        W73831  35.077  41.968   2.193
 1517W        W73832  28.071  21.036  14.031
 1518W        W73833  35.394  43.582   2.313
 1519W        W73834  33.956  15.731  12.889
 1520W        W73835  40.703  18.485  11.378
 1521W        W73836   0.736  38.471  11.538
 1522W        W73837   6.421  16.820   1.407
 1523W        W73838  14.608  43.553  13.339
 1524W        W73839   7.644  36.536   4.898
 1525W        W73840  25.227   7.165   1.278
 1526W        W73841  24.275  37.915  12.037
 1527W        W73842  22.186   2.924  14.883
 1528W        W73843  30.440  35.939   1.319
 1529W        W73844  33.577   4.913  13.556
 1530W        W73845  40.502  43.540   0.403
 1531W        W73846  37.990  40.367   2.794
 1532W        W73847  25.790  36.989  13.520
 1533W        W73848  20.237  11.272  14.448
 1534W        W73849  15.798  15.817  11.504
 1535W        W73850  37.008  24.531  14.420
 1536W        W73851  12.962  36.460  13.586
 1537W        W73852  14.588  26.955  14.442
 1538W        W73853   9.879  24.239  14.478
 1539W        W73854  44.534  35.246   1.272
 1540W        W73855  27.117  21.281  12.208
 1541W        W73856  24.352  11.492   5.151
 1542W        W73857  18.578  42.410  12.111
 1543W        W73858  38.519  43.481  12.661
 1544W        W73859  11.214  36.303   2.725
 1545W        W73860  38.926  43.521  11.746
 1546W        W73861  20.973  14.061  12.900
 1547W        W73862  14.771   1.552  13.915
 1548W        W73863  12.280  20.877  12.846
 1549W        W73864  25.992  24.996  11.578
 1550W        W73865   7.860  40.993  14.592
 1551W        W73866  23.556  35.608   0.297
 1552W        W73867  36.042  15.667  12.048
 1553W        W73868   2.301  36.445   2.387
 1554W        W73869  36.717   4.537  11.014
 1555W        W73870   7.865  14.402  10.920
 1556W        W73871  12.778  33.103   2.548
 1557W        W73872   1.707   3.227   3.639
 1558W        W73873  32.493  24.198   4.323
 1559W        W73874  18.106   8.881  12.210
 1560W        W73875  43.722   1.844   3.743
 1561W        W73876   3.320  30.439  14.452
 1562W        W73877   1.503  44.885   2.535
 1563W        W73878  40.646  24.509  11.073
 1564W        W73879  28.463  20.628  12.774
 1565W        W73880   4.364   2.834   3.096
 1566W        W73881  44.625  32.431   1.092
 1567W        W73882  14.980  28.729   3.252
 1568W        W73883  31.517  31.619  12.406
 1569W        W73884  30.877  32.592   3.669
 1570W        W73885  44.372  30.946  11.385
 1571W        W73886  10.612  20.669   2.319
 1572W        W73887  29.855   2.255  14.889
 1573W        W73888  20.610  26.713   4.575
 1574W        W73889  40.242   4.298  12.966
 1575W        W73890  23.938  26.318  11.491
 1576W        W73891   6.665   7.767   3.151
 1577W        W73892  32.493   3.307  12.818
 1578W        W73893   8.420  39.606  12.397
 1579W        W73894   3.557   5.912  10.837
 1580W        W73895  26.773  20.984  13.495
 1581W        W73896  17.287  43.375  10.650
 1582W        W73897  10.255  37.741  12.244
 1583W        W73898  26.262   8.873  10.002
 1584W        W73899  14.164  32.634   1.716
 1585W        W73900  37.051  35.866  11.227
 1586W        W73901  14.040  31.403   0.746
 1587W        W73902  17.787  31.065   5.168
 1588W        W73903  40.097  36.274  12.979
 1589W        W73904  27.176  15.233  10.409
 1590W        W73905  24.509  44.503  13.481
 1591W        W73906  31.003   5.698   1.898
 1592W        W73907   2.168  19.184  11.320
 1593W        W73908   3.755  12.728   4.883
 1594W        W73909  27.271  21.251  14.460
 1595W        W73910   7.918  26.089   0.924
 1596W        W73911  19.241  40.920  14.385
 1597W        W73912  39.404   6.220  13.859
 1598W        W73913  11.808  26.045  12.354
 1599W        W73914  24.943  41.045   3.247
 1600W        W73915   1.990  42.988  12.930
 1601W        W73916  12.093  32.870  14.843
 1602W        W73917  37.099   2.582   0.936
 1603W        W73918   0.549   0.888   2.824
 1604W        W73919   5.762  14.760   2.002
 1605W        W73920  19.407   8.384   4.485
 1606W        W73921  31.915  28.446   0.723
 1607W        W73922   8.995  30.152  13.909
 1608W        W73923   9.199   7.607  13.769
 1609W        W73924   4.315  36.195   1.306
 1610W        W73925  40.353   2.412   4.295
 1611W        W73926  14.755  42.906   4.521
 1612W        W73927  16.809  33.054   0.708
 1613W        W73928  27.150   0.028   1.728
 1614W        W73929  35.027   2.454  13.600
 1615W        W73930  35.566  31.087  13.927
 1616W        W73931   2.858  19.243  11.229
 1617W        W73932  19.754   9.833   3.741
 1618W        W73933   0.146  12.852   9.776
 1619W        W73934  12.395   3.844   0.725
 1620W        W73935  28.218  23.220  10.747
 1621W        W73936  13.195   6.615  12.987
 1622W        W73937  10.710  12.718   0.951
 1623W        W73938  40.989  36.444   4.863
 1624W        W73939  28.965  42.190   3.673
 1625W        W73940  30.526  14.931   4.507
 1626W        W73941  24.699  28.850   1.923
 1627W        W73942  23.129   1.387  12.605
 1628W        W73943  15.190  17.088   4.521
 1629W        W73944  31.954  24.773  10.740
 1630W        W73945  12.575   6.996  11.360
 1631W        W73946  26.993  25.223  14.902
 1632W        W73947  29.703  12.965   0.964
 1633W        W73948  40.288  32.209   2.502
 1634W        W73949   0.126  21.529  12.469
 1635W        W73950  37.351   1.974  11.172
 1636W        W73951  27.108  42.417   1.490
 1637W        W73952  26.906   7.088   3.179
 1638W        W73953  17.549  30.568  12.998
 1639W        W73954  18.528  12.270  13.895
 1640W        W73955  32.113   3.485   1.755
 1641W        W73956  35.418  21.561  13.683
 1642W        W73957  41.975   9.538  11.441
 1643W        W73958  23.692   2.878  10.496
 1644W        W73959  37.868  25.013   3.732
 1645W        W73960  35.947  28.007   3.931
 1646W        W73961   8.157  19.254   1.898
 1647W        W73962  36.250  35.761   1.173
 1648W        W73963  38.510  29.771  11.540
 1649W        W73964  37.749  38.494  14.454
 1650W        W73965  10.853  29.161  13.796
 1651W        W73966  34.813   6.396  11.519
 1652W        W73967  29.292  12.606  13.377
 1653W        W73968   9.705  40.798   0.552
 1654W        W73969  28.127  21.811   4.895
 1655W        W73970  19.971   1.606   4.055
 1656W        W73971  22.809  18.849  13.980
 1657W        W73972   4.976  32.921   1.449
 1658W        W73973  25.229  25.696   2.036
 1659W        W73974  14.050   0.903   3.086
 1660W        W73975  17.042  43.910  14.534
 1661W        W73976  29.469  35.534   0.510
 1662W        W73977  23.207  31.814  12.879
 1663W        W73978  26.213  18.144  10.360
 1664W        W73979  28.747   8.241   2.898
 1665W        W73980  44.132   1.431   0.368
 1666W        W73981  26.238  18.704  13.486
 1667W        W73982  31.955  34.677   4.165
 1668W        W73983   3.588   9.309   1.300
 1669W        W73984  20.892   5.983   1.311
 1670W        W73985  18.335  21.256  12.667
 1671W        W73986   1.806  15.478   0.929
 1672W        W73987  29.471   6.471   5.050
 1673W        W73988  27.052  41.062   3.721
 1674W        W73989  10.933  42.506  10.753
 1675W        W73990   5.740  39.895   3.660
 1676W        W73991  26.462  39.989   4.734
 1677W        W73992  34.058  10.761   2.330
 1678W        W73993  43.775  10.592   4.565
 1679W        W73994  36.874   8.598   2.366
 1680W        W73995  40.878   5.861   3.045
 1681W        W73996  19.221  28.718  11.977
 1682W        W73997  27.290  14.054  11.515
 1683W        W73998  38.058  42.791   1.398
 1684W        W73999  26.825   5.661  13.136
 1685W        W74000  32.607  44.018   2.416
 1686W        W74001  14.821   2.717   4.379
 1687W        W74002  27.892  31.608   4.559
 1688W        W74003  29.037  26.464  14.772
 1689W        W74004  13.498  20.285  11.174
 1690W        W74005  42.829  32.788   4.878
 1691W        W74006  34.013   8.627  11.280
 1692W        W74007  27.149  10.444   4.146
 1693W        W74008  37.032   0.447  14.119
 1694W        W74009  15.817  25.283  11.541
 1695W        W74010  29.861  31.864  11.398
 1696W        W74011  20.453  11.791   4.745
 1697W        W74012  35.845  15.649  10.690
 1698W        W74013  18.550  11.183   3.595
 1699W        W74014  15.251  15.096  12.884
 1700W        W74015  27.963  42.421   3.616
 1701W        W74016  40.566  40.736  14.426
 1702W        W74017  12.394  36.985   3.253
 1703W        W74018  22.467  17.805   3.185
 1704W        W74019   6.799   7.692  14.748
 1705W        W74020  43.377  32.637  10.949
 1706W        W74021   9.912  43.378  10.688
 1707W        W74022  14.807  29.108  13.572
 1708W        W74023   4.015   6.796  13.056
 1709W        W74024  35.170  26.933  10.663
 1710W        W74025   0.011  34.077   0.735
 1711W        W74026   8.271  23.764   4.622
 1712W        W74027   6.918   5.863  14.303
 1713W        W74028  19.942  15.690  10.698
 1714W        W74029  14.236  11.168  11.583
 1715W        W74030   3.748  36.311   3.242
 1716W        W74031   3.495   3.687  14.339
 1717W        W74032  41.279  15.684   3.272
 1718W        W74033  23.614  34.066  13.797
 1719W        W74034  30.364  22.592   4.669
 1720W        W74035  17.119   8.289   0.570
 1721W        W74036   0.813  18.624   4.341
 1722W        W74037  42.158  15.201  14.253
 1723W        W74038  15.144  24.743   4.094
 1724W        W74039  28.071  42.977  11.191
 1725W        W74040  13.589   3.059  10.591
 1726W        W74041  16.741  31.586   3.351
 1727W        W74042  12.785  44.443  11.372
 1728W        W74043  13.710  25.355  11.792
 1729W        W74044   3.686  19.513  14.911
 1730W        W74045  39.413   2.937   1.821
 1731W        W74046  28.189  27.236  14.686
 1732W        W74047  41.080  39.735  11.170
 1733W        W74048  12.753  41.245   3.913
 1734W        W74049  16.553  13.051  14.274
 1735W        W74050  37.122  44.088   3.169
 1736W        W74051  43.689  36.609   1.246
 1737W        W74052  44.812  43.398   4.152
 1738W        W74053  24.444  11.923   3.636
 1739W        W74054  11.276  19.134   5.803
 1740W        W74055  11.372  20.087  11.642
 1741W        W74056  37.723  12.990   2.349
 1742W        W74057   8.948  34.921  13.361
 1743W        W74058   6.828   7.919   4.161
 1744W        W74059  31.934  22.227  12.663
 1745W        W74060  11.038  26.092   1.700
 1746W        W74061  32.400  28.855   2.826
 1747W        W74062   6.211  16.926   0.886
 1748W        W74063  27.891   4.875   0.899
 1749W        W74064   5.240  44.530   0.008
 1750W        W74065  10.225  39.313   0.986
 1751W        W74066   6.706   2.346   4.545
 1752W        W74067   8.350   1.425   3.670
 1753W        W74068   6.143  44.978   1.556
 1754W        W74069  20.835  20.172   2.884
 1755W        W74070  12.668  20.623   1.719
 1756W        W74071  35.292   4.712   1.851
 1757W        W74072  25.843  17.352  11.135
 1758W        W74073   4.013  20.049  12.495
 1759W        W74074   3.335  19.264   3.560
 1760W        W74075  33.911  42.875   4.038
 1761W        W74076  10.641  31.423  12.299
 1762W        W74077  17.829  29.953  10.630
 1763W        W74078   4.736  20.095   0.326
 1764W        W74079   7.591  36.062  11.861
 1765W        W74080  40.340  36.613   3.630
 1766W        W74081   7.915  29.195  14.044
 1767W        W74082  33.593   9.227  10.740
 1768W        W74083   3.687  43.889  13.014
 1769W        W74084   2.992   9.970  10.218
 1770W        W74085   9.655  11.763   2.732
 1771W        W74086  38.578  37.411   1.469
 1772W        W74087   8.416   5.859  10.712
 1773W        W74088  33.239  41.120  12.559
 1774W        W74089  29.587  30.452   3.814
 1775W        W74090  10.188  44.573   4.129
 1776W        W74091  25.553  35.623   4.059
 1777W        W74092  10.169  33.374   3.452
 1778W        W74093  39.814  38.318  12.965
 1779W        W74094  20.578   3.509  12.454
 1780W        W74095   1.379  32.099  13.983
 1781W        W74096  20.002  20.209   1.747
 1782W        W74097   0.284  36.378   4.758
 1783W        W74098  29.676  22.726  12.932
 1784W        W74099   6.141  31.050  13.442
 1785W        W74100  39.084  13.642  14.985
 1786W        W74101  36.613   3.162  14.375
 1787W        W74102  13.665  19.118   4.273
 1788W        W74103  20.806  17.315   3.654
 1789W        W74104  32.236  25.547   2.904
 1790W        W74105   7.213   3.012  14.408
 1791W        W74106  13.255  32.410   0.682
 1792W        W74107  40.028  44.264   3.621
 1793W        W74108  15.372  18.843  11.492
 1794W        W74109  10.107   8.699  15.000
 1795W        W74110  19.095  22.758  14.400
 1796W        W74111  28.451  42.938   3.130
 1797W        W74112  11.656  28.093  11.526
 1798W        W74113  26.502  13.566   2.926
 1799W        W74114  28.981  16.041   0.411
 1800W        W74115  35.021  36.143   4.159
 1801W        W74116  19.973  13.081  12.027
 1802W        W74117   4.284  38.528  11.884
 1803W        W74118  20.981  15.227   3.552
 1804W        W74119  35.601  20.322   4.091
 1805W        W74120  30.575  10.331  12.986
 1806W        W74121  38.463  13.877  13.742
 1807W        W74122  24.903  23.201   4.315
 1808W        W74123  13.648  13.308  14.394
 1809W        W74124  22.193  14.686  14.340
 1810W        W74125  36.014  21.171   1.825
 1811W        W74126  20.131   5.674   2.771
 1812W        W74127  41.794  29.417  12.543
 1813W        W74128   6.847  23.093   0.548
 1814W        W74129  23.622  25.653   3.875
 1815W        W74130  23.247  37.215   4.545
 1816W        W74131  33.817   7.765   3.672
 1817W        W74132   7.781  11.479   4.320
 1818W        W74133  38.092   2.685  11.598
 1819W        W74134  22.500   9.318  10.636
 1820W        W74135  40.485  23.926   4.096
 1821W        W74136  34.064   2.238  13.019
 1822W        W74137  36.066   2.892  12.740
 1823W        W74138  17.132   4.715  14.962
 1824W        W74139  19.271  35.939  13.993
 1825W        W74140   3.288  36.845  11.989
 1826W        W74141  10.137  42.011   4.089
 1827W        W74142  10.100   6.709  10.674
 1828W        W74143  15.047   6.188   2.806
 1829W        W74144  21.616  22.518   0.293
 1830W        W74145  31.035   4.308  10.628
 1831W        W74146  14.021  32.881  13.445
 1832W        W74147   6.400  10.905  13.044
 1833W        W74148  44.755  12.192   5.104
 1834W        W74149  14.300  14.587   4.673
 1835W        W74150   7.252  41.348   0.459
 1836W        W74151  17.119  30.587   0.445
 1837W        W74152   9.298  21.175  11.256
 1838W        W74153   5.449  18.258  14.299
 1839W        W74154  40.350  10.553  13.634
 1840W        W74155  40.477  40.816  12.377
 1841W        W74156  37.659  26.533  11.396
 1842W        W74157  36.648  27.536   1.904
 1843W        W74158  40.682  26.995  13.227
 1844W        W74159  16.131  31.437  13.519
 1845W        W74160   8.604  35.860  12.075
 1846W        W74161  23.868  38.288  12.001
 1847W        W74162  19.569  13.323  12.968
 1848W        W74163  21.820  26.036   0.245
 1849W        W74164  10.388  10.820  11.104
 1850W        W74165  20.990  13.211  12.048
 1851W        W74166   2.354  36.222   4.716
 1852W        W74167  42.552  25.341  12.856
 1853W        W74168  13.777  13.256  12.834
 1854W        W74169  39.136   2.758  11.614
 1855W        W74170  39.129  22.998  14.084
 1856W        W74171  21.783  43.386   2.422
 1857W        W74172  19.461  10.350  13.317
 1858W        W74173  43.418  23.900  13.068
 1859W        W74174  30.683  31.662  10.968
 1860W        W74175   1.018  42.014   3.251
 1861W        W74176   3.953  29.130   2.116
 1862W        W74177  28.165  12.565  12.951
 1863W        W74178  18.008  35.140   2.839
 1864W        W74179  44.811  36.339   2.679
 1865W        W74180  37.056  13.664  14.806
 1866W        W74181  33.488   7.594  11.549
 1867W        W74182  40.475  36.919  10.798
 1868W        W74183   2.662  30.450   3.034
 1869W        W74184  20.444   7.309   2.442
 1870W        W74185   3.796  37.028  11.958
 1871W        W74186  14.342   4.759  14.483
 1872W        W74187  12.546  29.490  13.934
 1873W        W74188  41.897  12.666  11.964
 1874W        W74189  34.544  30.145   1.815
 1875W        W74190   4.110  30.471   4.573
 1876W        W74191  37.438  20.169  14.538
 1877W        W74192   9.147  30.090   0.429
 1878W        W74193  26.418  27.757   3.696
 1879W        W74194  41.918  18.267  12.510
 1880W        W74195  34.107   4.271  11.551
 1881W        W74196  28.950  27.019   0.536
 1882W        W74197   8.120  14.123  12.499
 1883W        W74198  40.335  26.620  14.801
 1884W        W74199  31.830  22.950  11.066
 1885W        W74200   5.459  38.169  11.133
 1886W        W74201  15.660  18.327   4.928
 1887W        W74202  19.038  25.625   0.294
 1888W        W74203  30.481  39.085   3.124
 1889W        W74204  17.505  16.708  11.229
 1890W        W74205  21.002  39.812   3.213
 1891W        W74206  40.077  19.608  14.980
 1892W        W74207  30.413  44.331   1.790
 1893W        W74208  42.537  16.203   0.766
 1894W        W74209  21.830   4.238  12.397
 1895W        W74210  43.180  27.455  14.348
 1896W        W74211  22.182  27.987   0.025
 1897W        W74212   4.764  20.308   4.569
 1898W        W74213  10.786  10.885   3.134
 1899W        W74214  32.696  19.640  12.024
 1900W        W74215  20.034  13.564  12.961
 1901W        W74216  15.068  42.054  10.710
 1902W        W74217  38.609   1.631  11.638
 1903W        W74218  11.955  31.064   4.582
 1904W        W74219  19.755  37.821  13.086
 1905W        W74220  31.368  36.926  12.578
 1906W        W74221  29.684   1.920  11.956
 1907W        W74222  36.051  17.541   0.896
 1908W        W74223  36.656  36.309   0.357
 1909W        W74224  44.069  23.236   2.112
 1910W        W74225  17.791  35.629  11.025
 1911W        W74226  43.009  25.473   1.697
 1912W        W74227   8.780   9.769   2.908
 1913W        W74228   4.919  30.133   4.889
 1914W        W74229  33.960   1.791   3.363
 1915W        W74230  13.776  24.769  10.986
 1916W        W74231  38.692  11.022  12.470
 1917W        W74232  12.320  39.048   3.156
 1918W        W74233   8.770  18.747   1.319
 1919W        W74234  36.401   1.065   2.524
 1920W        W74235  12.831  21.775  12.879
 1921W        W74236  23.543  26.408  11.115
 1922W        W74237  32.380  40.569  14.943
 1923W        W74238  37.981  32.168   3.616
 1924W        W74239  24.022  33.621   4.695
 1925W        W74240  14.385   3.943  10.795
 1926W        W74241  11.681  39.456  14.929
 1927W        W74242  37.388  40.464  11.494
 1928W        W74243  38.881  29.580  11.860
 1929W        W74244  18.647  42.092   2.664
 1930W        W74245   0.682   9.236   1.726
 1931W        W74246   5.424   3.269  10.830
 1932W        W74247  37.387   7.297   0.417
 1933W        W74248  28.114  36.564  12.043
 1934W        W74249   4.689  13.641   2.851
 1935W        W74250   5.346  32.519   4.344
 1936W        W74251   9.059  42.280   1.661
 1937W        W74252  44.711  37.079   4.278
 1938W        W74253  40.494  28.963   3.702
 1939W        W74254  44.806  36.026  10.630
 1940W        W74255  42.038  15.506   2.278
 1941W        W74256  38.310  37.840  14.271
 1942W        W74257  22.699  40.908  10.696
 1943W        W74258  37.603  30.053  13.971
 1944W        W74259  40.355  37.958   0.323
 1945W        W74260   3.683  35.042  14.290
 1946W        W74261  27.709   7.243   2.235
 1947W        W74262  40.698  29.443   1.759
 1948W        W74263   2.622  21.996  11.122
 1949W        W74264  24.017  31.918  13.410
 1950W        W74265   6.206   4.147   3.873
 1951W        W74266  42.964  14.094  14.436
 1952W        W74267  20.067  31.273  14.442
 1953W        W74268   1.273  29.362  11.541
 1954W        W74269  37.533   8.088   2.078
 1955W        W74270  19.793  26.499   3.193
 1956W        W74271   7.235  31.980   2.909
 1957W        W74272   8.669  37.126   0.935
 1958W        W74273  34.937  33.878   4.205
 1959W        W74274  11.584   0.855   2.212
 1960W        W74275  17.109  20.445  12.054
 1961W        W74276  14.660   8.472   3.656
 1962W        W74277  24.935  35.398  14.863
 1963W        W74278   4.471  10.915  14.460
 1964W        W74279  22.654   7.380   1.182
 1965W        W74280   3.554  43.496   3.258
 1966W        W74281  41.363  31.563   3.715
 1967W        W74282  43.473  21.164   1.440
 1968W        W74283  16.611  24.500   1.678
 1969W        W74284  13.295  10.089  14.796
 1970W        W74285  15.571  42.905  12.562
 1971W        W74286   6.661  11.270   4.874
 1972W        W74287  32.718  41.130   5.021
 1973W        W74288   8.293   4.735  10.483
 1974W        W74289  39.009  39.927   0.539
 1975W        W74290  10.650  18.291   2.277
 1976W        W74291   9.594   5.943   0.720
 1977W        W74292   0.714   6.653   2.346
 1978W        W74293  15.802  17.802  10.712
 1979W        W74294   4.163   4.341  14.381
 1980W        W74295  12.680  30.192   0.536
 1981W        W74296  31.198  21.665   4.585
 1982W        W74297  29.526  37.146   4.755
 1983W        W74298   5.702  40.756   3.104
 1984W        W74299  23.650  24.595  14.405
 1985W        W74300  39.061  17.213  14.059
 1986W        W74301   2.548  39.187  11.105
 1987W        W74302  22.870  40.246  11.727
 1988W        W74303  42.426   7.569  10.773
 1989W        W74304  21.102  13.203  10.677
 1990W        W74305  44.690  20.651  11.677
 1991W        W74306   5.053  26.284  11.440
 1992W        W74307  13.263   0.670   1.088
 1993W        W74308  44.958  41.291  14.824
 1994W        W74309  12.217   0.016   0.701
 1995W        W74310  26.666  13.820  12.004
 1996W        W74311  22.899  23.744  13.733
 1997W        W74312   4.409  30.196   3.582
 1998W        W74313  10.592   4.318   2.842
 1999W        W74314  40.512  36.982   4.898
 2000W        W74315  14.069  20.446  12.555
 2001W        W74316  39.814  43.363   4.527
 2002W        W74317  38.739  18.916  11.965
 2003W        W74318  31.178  41.459   1.179
 2004W        W74319  39.392  33.140   2.309
 2005W        W74320  28.927   2.442   4.553
 2006W        W74321  33.929   2.319   2.870
 2007W        W74322   5.318   7.339   3.883
 2008W        W74323  19.071  11.528   1.557
 2009W        W74324  27.396  12.335   2.289
 2010W        W74325  13.524  17.144   1.910
 2011W        W74326  30.196  14.788  12.984
 2012W        W74327  38.309  19.053  14.302
 2013W        W74328   3.865  20.515   3.714
 2014W        W74329  17.910  24.481   2.699
 2015W        W74330  15.021   4.414   4.761
 2016W        W74331  17.853   7.123   1.431
 2017W        W74332  44.856  22.293   3.164
 2018W        W74333   8.744  12.117   2.393
 2019W        W74334   0.550  29.536   1.351
 2020W        W74335  24.742  12.125   4.028
 2021W        W74336  23.928   5.237   4.066
 2022W        W74337  33.929  28.568   1.934
 2023W        W74338  24.463  33.958  14.385
 2024W        W74339  31.522   2.240  10.667
 2025W        W74340  23.305  27.221  11.072
 2026W        W74341  27.012  43.363   0.215
 2027W        W74342  25.467  33.273  13.331
 2028W        W74343  43.168  17.528  14.740
 2029W        W74344   1.833  35.238   1.427
 2030W        W74345  36.455   0.339  14.994
 2031W        W74346  22.205  41.154  10.534
 2032W        W74347  25.553  28.780  12.771
 2033W        W74348  30.037  18.650  11.307
 2034W        W74349  21.437  41.247   4.607
 2035W        W74350   0.472  11.852  10.891
 2036W        W74351  42.509  17.134  13.444
 2037W        W74352  24.235  27.228   3.192
 2038W        W74353  18.258  27.130   2.748
 2039W        W74354   1.006  37.123   1.793
 2040W        W74355   2.602  38.997  10.210
 2041W        W74356   8.792  25.018   3.982
 2042W        W74357  14.714  31.944  10.255
 2043W        W74358   2.363  27.206  10.648
 2044W        W74359   1.222  21.483  10.999
 2045W        W74360  37.859  37.673   0.696
 2046W        W74361  22.460  33.042   1.741
 2047W        W74362  36.837  13.363   3.883
 2048W        W74363  27.667  31.895  11.106
 2049W        W74364   8.587  24.213   2.865
 2050W        W74365  40.241  28.058   2.230
 2051W        W74366  15.569  18.016   0.790
 2052W        W74367   2.181  41.702   2.813
 2053W        W74368  26.017  32.095   2.406
 2054W        W74369  21.159   3.203   0.719
 2055W        W74370  20.291  13.095   0.762
 2056W        W74371  31.879  37.550  10.759
 2057W        W74372  34.103  17.308  11.002
 2058W        W74373  20.161   3.934   0.840
 2059W        W74374  27.084  20.760   4.482
 2060W        W74375  44.755   3.339   3.659
 2061W        W74376  24.629  23.383   0.403
 2062W        W74377  12.916   9.669   1.938
 2063W        W74378  32.078   5.085  13.660
 2064W        W74379  17.064   4.422  11.102
 2065W        W74380  18.027  10.379   4.961
 2066W        W74381  16.600  39.607   2.143
 2067W        W74382  16.369  14.138   0.633
 2068W        W74383  15.291  10.947  10.705
 2069W        W74384  34.014  23.952   4.145
 2070W        W74385  30.441  44.272   4.554
 2071W        W74386  35.612   7.900  10.865
 2072W        W74387  42.284  27.816   2.916
 2073W        W74388   0.743  19.942  12.872
 2074W        W74389   7.992  19.622   5.096
 2075W        W74390  37.572  40.818  12.938
 2076W        W74391  38.051  36.507  13.967
 2077W        W74392  17.091   8.657  11.071
 2078W        W74393   8.803  34.596  11.282
 2079W        W74394  23.763  13.071   0.272
 2080W        W74395  30.710   6.054   4.542
 2081W        W74396  42.425  38.364  14.857
 2082W        W74397  10.602  35.659  11.263
 2083W        W74398  33.021  21.455  10.641
 2084W        W74399  34.619  35.688   3.151
 2085W        W74400  35.378  41.535   2.103
 2086W        W74401  28.520   7.950   1.103
 2087W        W74402   3.675   4.867   0.403
 2088W        W74403  29.723  37.525  12.128
 2089W        W74404  32.666  34.308   3.780
 2090W        W74405  31.054  14.417  11.501
 2091W        W74406  38.918  11.317   0.217
 2092W        W74407  32.882  40.371   4.950
 2093W        W74408  35.982  28.995   2.397
 2094W        W74409  14.223  18.643   4.792
 2095W        W74410  20.269  33.496  10.228
 2096W        W74411  34.422  32.362   4.033
 2097W        W74412  41.820  36.842   4.311
 2098W        W74413  35.980  22.710  14.336
 2099W        W74414  20.924  23.083   0.727
 2100W        W74415  33.164  25.015  10.761
 2101W        W74416  32.432  22.306   4.216
 2102W        W74417  32.032  44.018  12.083
 2103W        W74418   9.959  17.163  11.350
 2104W        W74419  23.229  44.260  13.917
 2105W        W74420   5.647  36.364   3.161
 2106W        W74421  21.084   4.835   2.811
 2107W        W74422  16.926   0.059  12.090
 2108W        W74423   8.413  17.749  13.892
 2109W        W74424  43.420  40.948  12.175
 2110W        W74425  20.804   3.788   2.121
 2111W        W74426  41.988  12.572   1.639
 2112W        W74427  24.252  29.208   3.611
 2113W        W74428  15.086  25.970  10.801
 2114W        W74429   4.679   4.256   1.757
 2115W        W74430  30.204  44.160  11.081
 2116W        W74431   2.550  15.977   4.358
 2117W        W74432  24.655  32.825  12.159
 2118W        W74433  28.461  22.675   4.338
 2119W        W74434  42.841  42.977  14.510
 2120W        W74435  43.305  12.112   0.549
 2121W        W74436  26.377  27.015   1.213
 2122W        W74437  43.011   4.947  12.942
 2123W        W74438  17.266  20.703   2.359
 2124W        W74439   2.841  16.721   0.925
 2125W        W74440  22.075  19.667   2.702
 2126W        W74441   7.336  19.655  13.987
 2127W        W74442  38.652  27.572  10.374
 2128W        W74443  20.960  30.876   2.351
 2129W        W74444  10.329   7.772  11.718
 2130W        W74445  39.316   9.691  11.570
 2131W        W74446  40.927   1.003  14.229
 2132W        W74447  10.283  20.488  12.923
 2133W        W74448  21.385  37.222   0.904
 2134W        W74449  16.414  44.427  12.874
 2135W        W74450  13.634  27.056  14.411
 2136W        W74451  38.113  42.510   2.784
 2137W        W74452  32.641  17.040   2.624
 2138W        W74453  31.018   1.569   2.813
 2139W        W74454  21.728   7.644  12.502
 2140W        W74455  16.310   0.927   0.405
 2141W        W74456   3.967  11.289  14.529
 2142W        W74457   2.975  21.504  13.987
 2143W        W74458   7.842  10.196  12.855
 2144W        W74459  12.552   0.073   3.185
 2145W        W74460  28.202  31.900  10.266
 2146W        W74461  12.633  34.184   0.853
 2147W        W74462   1.007  35.378   3.697
 2148W        W74463   0.634  35.459   5.120
 2149W        W74464  31.816  22.576  10.692
 2150W        W74465  32.289  37.298   2.855
 2151W        W74466  24.236  14.878  12.917
 2152W        W74467  42.472  43.294   0.806
 2153W        W74468  23.807  13.654   1.255
 2154W        W74469  38.808  31.904   4.132
 2155W        W74470   4.925  19.179   0.303
 2156W        W74471  25.450  15.452   1.991
 2157W        W74472  17.748  44.334   4.313
 2158W        W74473   4.969  42.502   0.271
 2159W        W74474   7.696  35.608  10.683
 2160W        W74475  31.944   9.935   0.390
 2161W        W74476   7.191  27.945  10.398
 2162W        W74477  27.067   9.255  11.569
 2163W        W74478  44.901  22.469   4.663
 2164W        W74479  23.925  31.935   2.717
 2165W        W74480  30.406  28.084  10.860
 2166W        W74481  27.030  38.640   0.277
 2167W        W74482  37.820  31.013   1.771
 2168W        W74483  44.561  26.650   2.924
 2169W        W74484   9.006  11.808  11.135
 2170W        W74485  42.796  29.045  14.814
 2171W        W74486  10.007  36.271  14.562
 2172W        W74487   0.879   2.125  12.812
 2173W        W74488  20.311  10.622  11.870
 2174W        W74489   1.415  23.000   1.245
 2175W        W74490  29.363  10.761   2.337
 2176W        W74491  19.666  25.263   0.748
 2177W        W74492  44.288  34.378   2.340
 2178W        W74493  31.194   1.865   1.740
 2179W        W74494  43.237   0.047   3.439
 2180W        W74495  41.609  35.611   4.818
 2181W        W74496  29.513  23.223   1.603
 2182W        W74497   6.446   9.401  12.999
 2183W        W74498  17.209  23.004   0.453
 2184W        W74499  11.848  11.305  14.783
 2185W        W74500  19.081  30.968   4.618
 2186W        W74501  43.492  44.845  10.741
 2187W        W74502  30.590  41.328   4.949
 2188W        W74503   8.718  12.834  12.148
 2189W        W74504  38.478  24.509  10.880
 2190W        W74505   6.399  39.517  14.132
 2191W        W74506  30.628   2.016  13.070
 2192W        W74507  42.893  15.717  14.521
 2193W        W74508   3.909  22.299  14.503
 2194W        W74509  13.336  26.039   2.172
 2195W        W74510  19.325  16.680   1.359
 2196W        W74511   6.189  10.325   0.847
 2197W        W74512   1.762  18.642   4.158
 2198W        W74513  14.669  42.992  12.688
 2199W        W74514  43.481  28.116   2.452
 2200W        W74515  18.937  35.058   0.799
 2201W        W74516  15.204  23.612  10.758
 2202W        W74517   8.245   3.737  13.998
 2203W        W74518  21.185  28.172   2.746
 2204W        W74519   4.319   2.360   3.406
 2205W        W74520  19.703  25.176  12.450
 2206W        W74521  30.374  10.016   0.915
 2207W        W74522   2.316   8.423   1.401
 2208W        W74523  27.440  20.098  14.527
 2209W        W74524  19.145   2.451  10.724
 2210W        W74525   2.959  10.158  12.444
 2211W        W74526  19.258   1.298   2.187
 2212W        W74527   5.421  11.224   4.541
 2213W        W74528  42.289  34.496  11.887
 2214W        W74529  23.499  43.894   2.390
 2215W        W74530  17.381  33.509  10.241
 2216W        W74531   6.067   1.696  13.498
 2217W        W74532  14.272  28.444  13.996
 2218W        W74533  41.925  20.186   3.943
 2219W        W74534  30.137   1.942   4.692
 2220W        W74535   5.946  12.779   4.836
 2221W        W74536  31.416  31.642  14.464
 2222W        W74537  33.042  19.007   0.309
 2223W        W74538  18.840  33.072   3.361
 2224W        W74539  37.530  35.313  13.394
 2225W        W74540  33.087   9.375  10.721
 2226W        W74541   2.359  31.002   4.678
 2227W        W74542  37.021  21.617   0.731
 2228W        W74543  12.205   3.608   3.575
 2229W        W74544  32.185  40.269  12.857
 2230W        W74545   5.358  13.222  14.629
 2231W        W74546  14.612  44.998  12.655
 2232W        W74547  40.456   4.353   1.798
 2233W        W74548   0.323   0.325  14.208
 2234W        W74549  44.165  16.157  13.355
 2235W        W74550  24.258  12.908   3.979
 2236W        W74551  11.280  36.421   3.816
 2237W        W74552  24.235  23.819  14.724
 2238W        W74553  14.784  31.926   1.341
 2239W        W74554  11.406  36.495  13.141
 2240W        W74555   4.349  33.893  14.530
 2241W        W74556  10.788  37.993  12.980
 2242W        W74557  17.425  44.460  13.063
 2243W        W74558  41.022  17.446   3.844
 2244W        W74559  13.031  21.269  12.261
 2245W        W74560  43.477  24.166   0.853
 2246W        W74561  34.854   4.326   3.157
 2247W        W74562   6.220  43.765  14.517
 2248W        W74563  16.779  31.912  14.473
 2249W        W74564  35.604  30.871  12.316
 2250W        W74565   6.666   9.682  10.462
 2251W        W74566  25.687  11.604  12.509
 2252W        W74567  32.904  39.347   1.798
 2253W        W74568  17.606  37.498   0.683
 2254W        W74569  38.089  37.728  12.336
 2255W        W74570   9.761  19.650  11.084
 2256W        W74571  29.074   2.811  10.885
 2257W        W74572   3.320  16.927   1.034
 2258W        W74573  29.561   6.128   2.969
 2259W        W74574   6.818  33.784  11.618
 2260W        W74575  25.571  20.844   0.266
 2261W        W74576   9.572   5.268   0.243
 2262W        W74577   8.691   5.460   2.685
 2263W        W74578  30.111  40.829  13.434
 2264W        W74579  44.225  42.270   2.194
 2265W        W74580  36.953  41.397   3.841
 2266W        W74581   2.477  27.926  14.056
 2267W        W74582  24.711  13.682  13.416
 2268W        W74583   9.798  42.757  12.023
 2269W        W74584  32.607  10.226   3.233
 2270W        W74585  21.215  24.161   4.104
 2271W        W74586  13.118  29.124   1.308
 2272W        W74587  24.225   5.900   3.165
 2273W        W74588  41.778  12.820   1.232
 2274W        W74589  23.131  35.539   5.003
 2275W        W74590   3.637  13.131   1.010
 2276W        W74591   3.481   5.431   0.773
 2277W        W74592  10.932   9.268   1.007
 2278W        W74593   9.385  25.261  11.164
 2279W        W74594   5.474  10.577  10.758
 2280W        W74595  12.751  36.008  13.795
 2281W        W74596  12.370   2.579  12.968
 2282W        W74597  26.958  21.956  10.524
 2283W        W74598  33.599  16.556  14.386
 2284W        W74599   2.525  36.534   4.323
 2285W        W74600  17.152  29.468  10.761
 2286W        W74601  32.482  21.108  11.195
 2287W        W74602  35.081   4.888  12.571
 2288W        W74603  32.062  33.068   0.276
 2289W        W74604  34.777  27.452   0.447
 2290W        W74605  24.634  12.663  11.542
 2291W        W74606  27.707  18.680   2.616
 2292W        W74607  20.128  16.035   4.380
 2293W        W74608   8.178  29.965   0.392
 2294W        W74609  19.755  12.731   2.975
 2295W        W74610  12.297  37.722  14.284
 2296W        W74611  10.238  29.031   2.777
 2297W        W74612  24.711  11.933   3.191
 2298W        W74613  32.932   5.067   3.631
 2299W        W74614  24.900   1.338   2.116
 2300W        W74615  13.614  42.092  13.881
 2301W        W74616  23.067  28.117  14.939
 2302W        W74617  29.150   1.322   0.773
 2303W        W74618  31.144  39.419  12.118
 2304W        W74619  22.591  26.877   2.731
 2305W        W74620  35.831  18.591  13.998
 2306W        W74621   7.781  19.545  12.502
 2307W        W74622  37.100  18.680  14.265
 2308W        W74623  22.587  27.756   4.934
 2309W        W74624  35.665  31.598  14.985
 2310W        W74625  14.166  40.809   1.056
 2311W        W74626  10.791   6.002  12.945
 2312W        W74627  10.215   2.170   5.051
 2313W        W74628  11.588  26.122  11.447
 2314W        W74629  25.978   4.517   4.159
 2315W        W74630  43.643  31.930  12.092
 2316W        W74631  10.757  11.725  11.582
 2317W        W74632  34.649   3.686   4.440
 2318W        W74633  14.760  14.577  13.115
 2319W        W74634  38.457  42.793  13.294
 2320W        W74635  32.822  35.380   3.036
 2321W        W74636  36.189  23.022   3.250
 2322W        W74637  11.216   7.074   0.284
 2323W        W74638  23.288  29.031  14.687
 2324W        W74639  20.474  19.889  12.582
 2325W        W74640   7.191  12.019   2.687
 2326W        W74641  34.319   2.467   0.463
 2327W        W74642  20.989  29.666   3.734
 2328W        W74643  44.518   2.542  14.013
 2329W        W74644   5.776  42.566   2.926
 2330W        W74645  26.030  34.392   2.186
 2331W        W74646  32.920  22.117   3.323
 2332W        W74647   2.552  16.294  10.600
 2333W        W74648  24.104  14.093   0.845
 2334W        W74649  25.426  20.012   9.686
 2335W        W74650   3.527  31.968   3.304
 2336W        W74651   6.149  41.030   2.284
 2337W        W74652  26.490   5.384   3.550
 2338W        W74653  17.707   1.184   2.619
 2339W        W74654  29.524  17.125  12.485
 2340W        W74655  44.133  13.149  13.131
 2341W        W74656  20.624  39.048   2.047
 2342W        W74657  15.253  21.569  10.887
 2343W        W74658   1.723   6.270  10.668
 2344W        W74659   3.203  25.524  10.574
 2345W        W74660  28.712  29.054   1.665
 2346W        W74661  16.289  33.025  11.098
 2347W        W74662   1.658  40.752   0.313
 2348W        W74663  33.426  28.133  14.548
 2349W        W74664  33.693  18.594  14.421
 2350W        W74665  37.992   6.484  14.021
 2351W        W74666   4.449   4.284  13.945
 2352W        W74667  11.938  25.780   1.693
 2353W        W74668  23.682  33.708  14.775
 2354W        W74669   9.081  33.974  12.898
 2355W        W74670  24.119  22.169   3.211
 2356W        W74671  41.567   5.564  14.522
 2357W        W74672  37.096   8.117   2.322
 2358W        W74673  37.997   5.044   4.252
 2359W        W74674  44.360  24.507   4.926
 2360W        W74675  14.322  26.863   3.796
 2361W        W74676  35.653  21.084  14.545
 2362W        W74677   1.335  24.568  13.329
 2363W        W74678  27.784  13.100  11.344
 2364W        W74679  24.132  30.914   3.371
 2365W        W74680  24.032  19.255   0.236
 2366W        W74681  25.751   5.380   1.387
 2367W        W74682  30.030  26.615   0.483
 2368W        W74683   8.374  19.966   4.218
 2369W        W74684  17.720  27.557  11.868
 2370W        W74685  33.725  35.968  14.338
 2371W        W74686   1.449  23.687  12.528
 2372W        W74687  25.775  30.778  10.809
 2373W        W74688  20.987   2.594  12.158
 2374W        W74689  19.876  44.406   0.458
 2375W        W74690  33.752  11.828  12.419
 2376W        W74691  10.349  38.259  12.079
 2377W        W74692  21.560  42.473  11.072
 2378W        W74693  39.242  27.577  10.707
 2379W        W74694  30.021   7.791  14.196
 2380W        W74695   7.360  18.541  14.361
 2381W        W74696   0.395  23.675  14.915
 2382W        W74697  33.664  28.610   4.572
 2383W        W74698   1.921  13.832   0.263
 2384W        W74699   7.458  39.849   1.565
 2385W        W74700  31.481  41.016  12.822
 2386W        W74701  24.036   2.536   0.012
 2387W        W74702  29.866   9.474   3.242
 2388W        W74703  10.281  32.456  10.752
 2389W        W74704  38.050   7.775   0.258
 2390W        W74705  25.688  39.905  13.907
 2391W        W74706  31.547   1.511  12.823
 2392W        W74707  33.400  29.506   5.073
 2393W        W74708  31.174  28.667   4.953
 2394W        W74709  36.345  17.160  14.332
 2395W        W74710   8.759   2.980  12.588
 2396W        W74711  30.954   5.687  10.275
 2397W        W74712  13.331  19.310   1.920
 2398W        W74713  12.194   5.471  11.771
 2399W        W74714  18.732  26.154  11.592
 2400W        W74715  42.442  29.098   2.891
 2401W        W74716  13.429  14.268   4.314
 2402W        W74717  44.407   2.132  12.052
 2403W        W74718   5.005  35.355  11.997
 2404W        W74719  33.112   6.046   2.894
 2405W        W74720  25.941   6.673  11.451
 2406W        W74721   3.291  26.652  14.907
 2407W        W74722   1.145  11.070   4.168
 2408W        W74723  11.589  24.075   2.272
 2409W        W74724  30.135  22.721   2.222
 2410W        W74725   1.324  12.085   4.595
 2411W        W74726  19.724  18.657   2.251
 2412W        W74727  19.922  23.122  12.664
 2413W        W74728  41.264  19.770   4.614
 2414W        W74729  16.055   1.919   1.303
 2415W        W74730   4.900  30.337   3.792
 2416W        W74731   6.238  19.055   4.204
 2417W        W74732  28.401   3.672   2.729
 2418W        W74733  20.161  22.304   3.852
 2419W        W74734  35.885  31.647   0.441
 2420W        W74735  13.751  10.777   4.835
 2421W        W74736  17.257  17.172  13.399
 2422W        W74737  23.126  38.623  12.757
 2423W        W74738  27.507  20.573  14.316
 2424W        W74739  25.669   0.384  10.704
 2425W        W74740  39.115  40.997  14.205
 2426W        W74741  11.752   5.811   1.492
 2427W        W74742  39.920  21.591   0.288
 2428W        W74743  31.449  34.303  13.113
 2429W        W74744  27.048  29.033   4.598
 2430W        W74745  34.867  15.493  11.629
 2431W        W74746  35.883   9.907  14.831
 2432W        W74747   0.250  23.526  11.705
 2433W        W74748  38.599   7.956  11.189
 2434W        W74749   3.997  40.749  11.994
 2435W        W74750  31.515  16.135  10.916
 2436W        W74751  33.710  22.568   0.741
 2437W        W74752  27.072   9.886   0.526
 2438W        W74753  37.245  31.180   4.026
 2439W        W74754  15.888  20.018  10.085
 2440W        W74755  32.439  44.798  14.278
 2441W        W74756  30.868  27.944  12.839
 2442W        W74757  30.425   6.753   0.393
 2443W        W74758   6.930   2.776  12.056
 2444W        W74759  37.119  10.334   0.887
 2445W        W74760  11.234  27.074  13.138
 2446W        W74761  40.037   2.517  14.365
 2447W        W74762  31.543  20.442   3.872
 2448W        W74763  13.870  30.630  11.202
 2449W        W74764  25.022  14.666   2.154
 2450W        W74765  34.378  40.515   0.770
 2451W        W74766  11.206  39.833   4.333
 2452W        W74767  13.726  32.167  10.671
 2453W        W74768  27.775  24.665   1.356
 2454W        W74769   6.867  24.016   0.491
 2455W        W74770   9.627  23.648  13.411
 2456W        W74771  18.534   9.917   0.636
 2457W        W74772  15.714  31.741  13.495
 2458W        W74773  44.547  11.827   1.219
 2459W        W74774  37.317  43.834   0.026
 2460W        W74775  36.098   4.265  12.538
 2461W        W74776   3.556  38.424  13.564
 2462W        W74777   7.231  35.225  12.557
 2463W        W74778   3.388  41.056   4.882
 2464W        W74779  22.646  17.097   2.236
 2465W        W74780   8.738  35.075  12.913
 2466W        W74781  43.343  29.528   4.237
 2467W        W74782  10.697  23.697  10.830
 2468W        W74783  23.565  26.668  11.591
 2469W        W74784  10.730  35.820   0.010
 2470W        W74785  16.926  27.355   5.065
 2471W        W74786  28.012  39.833   3.766
 2472W        W74787  41.237  19.713   4.083
 2473W        W74788  23.825  11.181  14.101
 2474W        W74789  27.662  16.496  10.426
 2475W        W74790  36.860   7.275   0.195
 2476W        W74791   0.553   8.362  13.439
 2477W        W74792  34.038  29.874   2.763
 2478W        W74793   4.023  43.198  13.906
 2479W        W74794  26.877  10.450   3.698
 2480W        W74795  10.351   1.145  12.123
 2481W        W74796  34.468  13.200  12.466
 2482W        W74797   4.439   4.347  11.575
 2483W        W74798  21.690  39.341   4.655
 2484W        W74799  36.211  42.908  10.435
 2485W        W74800  30.741  42.144  13.096
 2486W        W74801   0.937  12.417  13.065
 2487W        W74802   7.881   4.683  10.173
 2488W        W74803  14.377  38.342   2.737
 2489W        W74804  13.722  26.901   4.167
 2490W        W74805  32.136  44.513  11.897
 2491W        W74806  22.780  30.312  12.234
 2492W        W74807  23.348   7.593   4.493
 2493W        W74808  21.984  17.953   3.106
 2494W        W74809  15.848  36.357   2.195
 2495W        W74810  35.807  36.015  10.623
 2496W        W74811  14.021   4.361  14.366
 2497W        W74812  26.217   8.275  11.250
 2498W        W74813  12.844  19.468   0.888
 2499W        W74814   8.215   5.483   0.957
 2500W        W74815   8.307  19.259   3.163
 2501W        W74816   3.917  34.326   2.212
 2502W        W74817  28.157  38.522  14.818
 2503W        W74818  29.930  31.638   4.314
 2504W        W74819  37.100  34.508  10.667
 2505W        W74820   2.830  42.860  13.796
 2506W        W74821  32.548  42.653   2.781
 2507W        W74822  43.829   0.827  13.566
 2508W        W74823  13.611  36.949  13.204
 2509W        W74824  12.170   6.357   2.310
 2510W        W74825  13.407  44.862   2.349
 2511W        W74826  18.873  33.932   3.874
 2512W        W74827  24.206  24.698  10.569
 2513W        W74828   3.488  36.843   3.667
 2514W        W74829  13.608  14.660  14.951
 2515W        W74830   3.341  31.644  14.996
 2516W        W74831  18.715  17.514  13.355
 2517W        W74832  19.987  41.425   0.921
 2518W        W74833  16.236  23.617   4.620
 2519W        W74834  39.946  14.051   1.538
 2520W        W74835  44.332  42.792   0.287
 2521W        W74836  41.371  37.450  14.501
 2522W        W74837  42.837  39.211   3.262
 2523W        W74838   2.519  28.122   0.982
 2524W        W74839   8.433  26.015   4.538
 2525W        W74840  15.466  16.138   0.887
 2526W        W74841   8.107  35.103  11.626
 2527W        W74842  35.264  44.410   1.324
 2528W        W74843  39.085   9.050   4.798
 2529W        W74844  42.492  26.936   1.832
 2530W        W74845  34.343   6.803   0.888
 2531W        W74846  43.042  39.125  14.637
 2532W        W74847  30.551  24.250   2.812
 2533W        W74848  25.587  21.358   0.370
 2534W        W74849   2.037  25.044  13.118
 2535W        W74850  36.978   9.255  13.507
 2536W        W74851   4.319  33.840  11.031
 2537W        W74852  10.251   6.795  13.964
 2538W        W74853  37.855  17.727   3.922
 2539W        W74854  44.911  25.700  13.858
 2540W        W74855   8.890  10.415  12.087
 2541W        W74856  24.683  37.123   3.172
 2542W        W74857  23.313  35.466   3.984
 2543W        W74858  24.152  40.257   0.384
 2544W        W74859   8.634  33.008  13.481
 2545W        W74860  34.577  12.877  12.042
 2546W        W74861  37.352  20.739  11.908
 2547W        W74862  29.064  38.085   4.600
 2548W        W74863  38.036  32.094   0.537
 2549W        W74864   2.348  31.506   3.733
 2550W        W74865  34.381  32.580  13.772
 2551W        W74866  41.041  13.657  12.068
 2552W        W74867  29.809  18.632   1.845
 2553W        W74868  42.691  42.450  10.502
 2554W        W74869  28.412   7.333  10.723
 2555W        W74870  25.578  14.792  14.034
 2556W        W74871  32.157  31.793   4.855
 2557W        W74872   9.192  32.014   4.028
 2558W        W74873  26.562  15.061  12.403
 2559W        W74874   0.058  32.079  13.659
 2560W        W74875  28.007   6.620   5.178
 2561W        W74876   8.393  41.643  13.893
 2562W        W74877   4.980  33.930   2.877
 2563W        W74878   0.804  15.793   2.701
 2564W        W74879   8.439  26.102   4.020
 2565W        W74880  27.759  26.554  11.740
 2566W        W74881   4.140  20.955   4.237
 2567W        W74882  43.061  24.554   0.827
 2568W        W74883  35.529  12.073  12.568
 2569W        W74884  33.514  43.980   3.915
 2570W        W74885  18.795  35.283   1.251
 2571W        W74886  39.966   1.968  14.466
 2572W        W74887  15.194  38.346   0.972
 2573W        W74888   6.330   8.442   3.682
 2574W        W74889  14.276   7.143   2.201
 2575W        W74890  32.827   1.616  11.169
 2576W        W74891  30.874  35.288   5.215
 2577W        W74892  36.940   3.798   1.155
 2578W        W74893  36.927  20.168   4.145
 2579W        W74894   3.457  42.255   0.868
 2580W        W74895   2.456  10.082   1.058
 2581W        W74896   1.862   7.331   3.631
 2582W        W74897  35.145  44.727  12.893
 2583W        W74898  30.093   6.685   4.836
 2584W        W74899  33.398  23.670   3.587
 2585W        W74900  40.777  13.140  10.708
 2586W        W74901  22.292  22.522  10.678
 2587W        W74902   3.016   8.159  11.068
 2588W        W74903  39.863  13.087  11.612
 2589W        W74904  24.695  18.095  13.525
 2590W        W74905  17.845  28.520  11.935
 2591W        W74906   7.568  35.598   4.590
 2592W        W74907  23.123  35.432   4.487
 2593W        W74908   6.727  22.570   2.827
 2594W        W74909  38.857   8.804   4.061
 2595W        W74910  37.029   5.286   0.949
 2596W        W74911  33.893  17.952  12.223
 2597W        W74912  17.190  44.936   0.964
 2598W        W74913   9.103  25.874  14.856
 2599W        W74914  36.960   9.638   2.640
 2600W        W74915  33.117  34.814  10.941
 2601W        W74916  30.886  31.973  10.592
 2602W        W74917  28.205  33.953  10.462
 2603W        W74918  22.280   1.753   0.947
 2604W        W74919   0.738  26.064  11.099
 2605W        W74920  20.732  24.012  11.845
 2606W        W74921  39.851  26.591  12.267
 2607W        W74922  22.000  23.847  13.859
 2608W        W74923  23.698   8.656  12.021
 2609W        W74924  16.501  17.723  14.965
 2610W        W74925   7.890  17.326   1.000
 2611W        W74926  18.098  23.774  12.059
 2612W        W74927  12.977  42.980   3.174
 2613W        W74928  34.890  34.388   2.249
 2614W        W74929   5.887   3.967  10.318
 2615W        W74930  36.717  20.550   4.524
 2616W        W74931  32.180  28.882   4.550
 2617W        W74932  40.823  33.929   3.262
 2618W        W74933  24.509  12.750  10.667
 2619W        W74934  32.858  42.370   1.957
 2620W        W74935  40.940  25.997  14.389
 2621W        W74936  32.688   0.775  13.335
 2622W        W74937  38.399  18.730  12.620
 2623W        W74938   0.904  11.598  11.070
 2624W        W74939  31.882  21.930   3.356
 2625W        W74940  18.908  12.055  14.372
 2626W        W74941  23.581   1.752  14.023
 2627W        W74942  14.265  14.030  12.411
 2628W        W74943  33.029  44.740   4.211
 2629W        W74944   4.812  24.114  11.958
 2630W        W74945  21.116   7.820   4.061
 2631W        W74946  30.176  38.513  13.457
 2632W        W74947  10.587  18.294   4.660
 2633W        W74948  16.553  44.282   3.832
 2634W        W74949   9.969  42.824   0.958
 2635W        W74950  17.528  30.373   2.241
 2636W        W74951  14.360  30.563   2.420
 2637W        W74952  41.138  21.169  12.955
 2638W        W74953  29.080  18.604   1.248
 2639W        W74954   9.913   1.652  14.944
 2640W        W74955  43.989  23.900   3.806
 2641W        W74956  18.166  27.652   0.819
 2642W        W74957  13.726   4.862   3.368
 2643W        W74958  14.616  11.366  12.542
 2644W        W74959  41.941  26.125  14.814
 2645W        W74960  20.244   5.791  14.788
 2646W        W74961  33.364  36.481   3.530
 2647W        W74962  29.619  28.441   0.945
 2648W        W74963  29.655  38.032  11.335
 2649W        W74964  36.546   0.254  13.344
 2650W        W74965  39.602  34.999   0.017
 2651W        W74966  41.621  20.998  14.834
 2652W        W74967  39.493  20.836  13.429
 2653W        W74968  31.344  36.809  11.578
 2654W        W74969  24.786   9.848  13.883
 2655W        W74970   6.168  12.201  13.124
 2656W        W74971  25.664  33.088   4.441
 2657W        W74972  36.347  14.562  12.406
 2658W        W74973   2.014  32.250  11.703
 2659W        W74974  14.639  33.659   2.277
 2660W        W74975  40.384  27.135   0.618
 2661W        W74976  23.484  31.830   2.474
 2662W        W74977  39.167   4.241   1.175
 2663W        W74978  29.203   5.761  11.962
 2664W        W74979  36.599  19.477  11.162
 2665W        W74980   9.905  34.133   2.926
 2666W        W74981  29.130  44.394   1.236
 2667W        W74982   3.593   8.399  11.158
 2668W        W74983  41.474  12.640   0.826
 2669W        W74984  14.342  37.442  13.526
 2670W        W74985  38.557  37.037  10.585
 2671W        W74986   1.796  22.425  14.181
 2672W        W74987  18.042  39.906   4.636
 2673W        W74988  36.907   9.431   4.256
 2674W        W74989  43.807  33.921   1.728
 2675W        W74990  22.837  38.475  13.308
 2676W        W74991   0.418  17.543   2.833
 2677W        W74992  31.120  43.302  11.415
 2678W        W74993  30.095  16.563  12.099
 2679W        W74994   4.898  17.567   4.258
 2680W        W74995  16.368  38.296  10.233
 2681W        W74996  14.563  19.202   2.247
 2682W        W74997  28.138  24.068   2.868
 2683W        W74998   5.975   9.816   1.596
 2684W        W74999  34.399  28.206  13.359
 2685W        W75000  10.784   9.324  14.595
 2686W        W75001  40.052  14.190  14.529
 2687W        W75002  10.838  34.795  14.798
 2688W        W75003   5.405  27.486  14.379
 2689W        W75004  12.519  20.115   4.027
 2690W        W75005   8.187  12.775  13.457
 2691W        W75006  40.127  18.655  10.389
 2692W        W75007  35.432  44.939  10.782
 2693W        W75008  34.386   0.458  12.906
 2694W        W75009  13.295   1.748  11.201
 2695W        W75010  24.092  29.822  14.912
 2696W        W75011  33.305  44.247   1.383
 2697W        W75012  19.721  19.729  10.720
 2698W        W75013  11.048  13.615  12.546
 2699W        W75014  44.859   8.570   4.103
 2700W        W75015   1.420  12.118  10.675
 2701W        W75016  15.301  41.846  11.948
 2702W        W75017  20.307   4.655   2.506
 2703W        W75018  25.012  33.071  13.339
 2704W        W75019   7.656  44.334   0.952
 2705W        W75020  17.233  19.454   2.139
 2706W        W75021  18.801  38.678  10.200
 2707W        W75022  20.724   5.122  12.547
 2708W        W75023  22.584  41.810   1.470
 2709W        W75024  27.410  10.755   0.999
 2710W        W75025  34.903   0.014   1.860
 2711W        W75026  34.433   0.710  13.418
 2712W        W75027  37.391  27.151  12.485
 2713W        W75028  39.017  38.579  13.394
 2714W        W75029   8.409  13.694  12.602
 2715W        W75030  41.413  41.220  14.263
 2716W        W75031   7.447   5.496  13.466
 2717W        W75032   4.772  21.021   2.800
 2718W        W75033   9.649  36.221   0.766
 2719W        W75034   7.416  18.281   0.217
 2720W        W75035  30.577  13.196  11.170
 2721W        W75036  23.148  37.394   2.244
 2722W        W75037   7.935  16.866   4.823
 2723W        W75038  11.308   3.633  12.926
 2724W        W75039  12.092  22.574  13.159
 2725W        W75040   4.948  34.434  12.076
 2726W        W75041  40.117  34.650   0.926
 2727W        W75042  25.957   5.698  14.128
 2728W        W75043  44.819   6.170   2.235
 2729W        W75044  16.186  43.793  14.367
 2730W        W75045   1.304  42.326  13.082
 2731W        W75046   2.562  27.703   3.374
 2732W        W75047  28.448  25.915  11.912
 2733W        W75048  40.939  34.152  11.595
 2734W        W75049  25.037  43.778   1.250
 2735W        W75050  38.232  30.281   1.134
 2736W        W75051   2.279   5.363  14.524
 2737W        W75052  40.307  35.115  10.870
 2738W        W75053  42.555  16.220   3.328
 2739W        W75054  28.904  30.985  10.961
 2740W        W75055  31.373  30.971   0.650
 2741W        W75056   4.841  26.856  10.818
 2742W        W75057  34.950   5.208   3.039
 2743W        W75058   0.231  24.983   2.661
 2744W        W75059  31.654  41.642   1.261
 2745W        W75060   1.163   9.955   4.105
 2746W        W75061  19.338  21.218   0.492
 2747W        W75062   7.187  29.030  13.119
 2748W        W75063  27.972  39.221  12.613
 2749W        W75064  26.998  15.325  12.560
 2750W        W75065  37.803  39.094   0.515
 2751W        W75066  35.683  22.970   3.273
 2752W        W75067   7.013  21.212   4.583
 2753W        W75068  26.162   7.923   0.728
 2754W        W75069  17.114  17.981   2.479
 2755W        W75070  35.027  26.680   3.505
 2756W        W75071   2.773  43.024   2.960
 2757W        W75072   3.837  27.387  13.286
 2758W        W75073  36.056  28.372   3.580
 2759W        W75074  18.317  24.948  11.754
 2760W        W75075  17.216   1.703   3.170
 2761W        W75076   7.378  21.065  13.829
 2762W        W75077  39.807   4.362   0.198
 2763W        W75078   3.775  44.859   3.219
 2764W        W75079  34.986   3.834   3.103
 2765W        W75080  42.275  36.932  10.498
 2766W        W75081   8.391  30.575  11.548
 2767W        W75082   9.580   8.599  13.058
 2768W        W75083  30.014  10.625   3.096
 2769W        W75084   4.988  42.634   3.784
 2770W        W75085   9.852  19.492   4.610
 2771W        W75086  42.199  43.255   2.668
 2772W        W75087  22.261  38.096  11.145
 2773W        W75088  38.071  11.861  10.773
 2774W        W75089  34.509  42.065   3.149
 2775W        W75090  12.438  23.750   1.339
 2776W        W75091  22.616  34.476  12.462
 2777W        W75092  13.887  24.863  14.162
 2778W        W75093  18.763  27.495  14.712
 2779W        W75094  35.110  24.155  12.855
 2780W        W75095  43.761   7.826   2.372
 2781W        W75096  19.948  25.099   3.748
 2782W        W75097  29.066  24.499  14.838
 2783W        W75098  15.103  35.953   4.640
 2784W        W75099   3.275  40.547   4.753
 2785W        W75100  30.327  12.385   3.241
 2786W        W75101  24.846  25.920  11.374
 2787W        W75102  33.927  38.620  10.857
 2788W        W75103  37.605  26.011  14.932
 2789W        W75104  28.059  14.755  14.943
 2790W        W75105   7.671   2.403  14.838
 2791W        W75106   5.742  30.196  14.390
 2792W        W75107  44.312  20.553   4.177
 2793W        W75108  32.056  37.586   3.271
 2794W        W75109  36.778  17.324   0.998
 2795W        W75110  15.305  15.613   2.817
 2796W        W75111  29.841  10.700   4.632
 2797W        W75112  15.692  41.743   1.286
 2798W        W75113  38.537  25.233   0.165
 2799W        W75114  30.640  11.871   0.975
 2800W        W75115  36.299  14.539   1.697
 2801W        W75116  44.722  26.146  13.588
 2802W        W75117  29.168  41.776   0.370
 2803W        W75118  12.303  11.927  14.428
 2804W        W75119  21.028  26.096  13.638
 2805W        W75120  19.402   7.951  10.283
 2806W        W75121  44.479  29.662   0.004
 2807W        W75122  38.532  25.802   2.852
 2808W        W75123  11.363  31.273   2.678
 2809W        W75124  11.318  29.048  12.431
 2810W        W75125  38.777  28.609   2.327
 2811W        W75126  33.454   1.312   1.818
 2812W        W75127  37.337  37.450   4.579
 2813W        W75128  44.280  25.132  13.472
 2814W        W75129  29.034  41.442   0.755
 2815W        W75130   2.982  44.673  13.777
 2816W        W75131   7.998  32.196   4.071
 2817W        W75132  27.093  22.054  11.893
 2818W        W75133  17.817  33.873   2.665
 2819W        W75134  31.221  36.040   2.914
 2820W        W75135   8.899   3.486  12.579
 2821W        W75136  32.153  14.139   3.237
 2822W        W75137  17.396  38.453  14.762
 2823W        W75138  35.044  32.615   4.502
 2824W        W75139  23.211  22.309   4.060
 2825W        W75140   7.325  33.980   1.303
 2826W        W75141  12.129  41.877  11.107
 2827W        W75142   9.431  25.184   2.366
 2828W        W75143   2.808  13.150  12.574
 2829W        W75144   4.512  31.987   1.328
 2830W        W75145  16.970   8.848   3.771
 2831W        W75146  17.750  34.806   3.166
 2832W        W75147  21.781  24.867   3.173
 2833W        W75148  30.342   3.269   0.847
 2834W        W75149  29.832  20.582  12.496
 2835W        W75150  43.983   1.251   1.945
 2836W        W75151  29.481  30.021  11.957
 2837W        W75152   4.922  11.326   0.397
 2838W        W75153  36.343  30.743  12.932
 2839W        W75154  26.508  44.322   2.015
 2840W        W75155  32.600  42.935  12.170
 2841W        W75156  41.592   0.267   0.403
 2842W        W75157  17.508   6.238   0.743
 2843W        W75158  21.486  13.822   1.926
 2844W        W75159  39.771  37.028  13.343
 2845W        W75160  12.759   8.202  10.762
 2846W        W75161  30.255  23.121   0.053
 2847W        W75162  26.748   3.281   0.514
 2848W        W75163  28.018   9.869  14.973
 2849W        W75164  10.177   3.249   3.609
 2850W        W75165  22.695  12.567   0.785
 2851W        W75166   9.437  24.404   2.622
 2852W        W75167  28.487  37.136  13.205
 2853W        W75168  33.872  11.055  11.932
 2854W        W75169  12.947  24.577  13.860
 2855W        W75170  43.659  31.515   2.293
 2856W        W75171  43.281  12.604  10.573
 2857W        W75172  27.796  19.697  13.416
 2858W        W75173   6.882  42.428  14.866
 2859W        W75174  11.462   6.469  11.046
 2860W        W75175  27.486  34.950   1.443
 2861W        W75176  43.849  33.057  12.363
 2862W        W75177  39.767  22.094  12.006
 2863W        W75178  25.421   2.494   0.983
 2864W        W75179  18.694   6.786   0.372
 2865W        W75180  10.815  23.118  13.545
 2866W        W75181  16.349   0.625   5.067
 2867W        W75182  25.649  38.813   1.906
 2868W        W75183  35.955  28.154   2.913
 2869W        W75184   0.267  39.780   0.216
 2870W        W75185  17.237  20.163   2.891
 2871W        W75186   0.279  24.270   3.271
 2872W        W75187   8.200  34.206  13.599
 2873W        W75188  34.046  37.116  12.734
 2874W        W75189  38.318   3.225  14.833
 2875W        W75190  24.588   3.866   1.293
 2876W        W75191   5.909  31.803  10.621
 2877W        W75192  20.493   6.893  10.725
 2878W        W75193  19.035  10.340   0.893
 2879W        W75194   5.842  22.298  11.233
 2880W        W75195  34.059  26.179   1.332
 2881W        W75196  36.267  44.932  14.694
 2882W        W75197   2.192   4.732  10.152
 2883W        W75198  30.648   2.909  11.938
 2884W        W75199  21.351   6.790  14.746
 2885W        W75200  29.936  44.170  12.503
 2886W        W75201   6.492  35.620   1.874
 2887W        W75202  41.445  28.344   4.030
 2888W        W75203  37.486  24.211   2.125
 2889W        W75204  27.705  41.275   4.157
 2890W        W75205   0.307  32.580  14.861
 2891W        W75206   2.048  14.868   1.745
 2892W        W75207  39.467  35.911  11.422
 2893W        W75208   2.508  32.019   3.635
 2894W        W75209  24.600  44.722   4.144
 2895W        W75210  15.328  40.515  11.499
 2896W        W75211  38.328   8.740   4.255
 2897W        W75212  13.836  31.901  13.565
 2898W        W75213  23.088  15.372   4.733
 2899W        W75214  11.582  44.172  14.050
 2900W        W75215  27.896  42.555  12.559
 2901W        W75216  24.237  26.302   1.361
 2902W        W75217  25.161  26.064   4.239
 2903W        W75218   6.265  28.492  14.717
 2904W        W75219   6.710  38.716  11.645
 2905W        W75220  33.770   5.805   1.330
 2906W        W75221  21.035   1.180   4.155
 2907W        W75222  17.713  15.532  13.853
 2908W        W75223  27.164  20.044   1.953
 2909W        W75224  12.166   1.803   2.872
 2910W        W75225  33.005  23.528  11.579
 2911W        W75226  20.693  12.937   2.048
 2912W        W75227  16.643  28.085   4.198
 2913W        W75228  14.584  26.719  11.129
 2914W        W75229   8.586  27.060  13.586
 2915W        W75230  15.164  22.734   3.007
 2916W        W75231  31.875  11.227   2.357
 2917W        W75232  36.923   6.267   1.013
 2918W        W75233   4.134  42.793   3.333
 2919W        W75234  26.607  16.180  12.576
 2920W        W75235  20.791  41.093  14.276
 2921W        W75236  24.083  12.090  12.687
 2922W        W75237   3.493  26.541  10.141
 2923W        W75238  35.575  16.127  10.658
 2924W        W75239  29.701   2.731  12.939
 2925W        W75240  42.136   6.368  14.365
 2926W        W75241   3.236  23.528   1.771
 2927W        W75242   8.671   5.124  11.690
 2928W        W75243  26.734  39.051  12.098
 2929W        W75244  39.889  41.499  10.662
 2930W        W75245  16.279  12.912   2.821
 2931W        W75246  19.196  38.841   0.336
 2932W        W75247   7.745  32.445   0.780
 2933W        W75248  28.861  44.826   0.345
 2934W        W75249  11.856  19.494   4.295
 2935W        W75250  33.990   9.629   1.200
 2936W        W75251  44.412  27.635   1.511
 2937W        W75252  17.499  11.549   1.254
 2938W        W75253  21.136  39.083   1.181
 2939W        W75254   0.937  30.295  13.855
 2940W        W75255   9.862  31.557   3.687
 2941W        W75256  43.403  19.426  14.180
 2942W        W75257  11.399  12.071  13.035
 2943W        W75258  41.973  24.518  10.486
 2944W        W75259  30.443  31.860   0.731
 2945W        W75260  21.343   7.322  12.583
 2946W        W75261   1.662   0.348   4.671
 2947W        W75262  20.385   6.699   2.709
 2948W        W75263  18.670   4.922   4.566
 2949W        W75264  40.925  29.239  14.740
 2950W        W75265  34.855  26.640   1.340
 2951W        W75266  10.968  35.438  12.504
 2952W        W75267  33.589  38.493  11.676
 2953W        W75268  37.836   1.040  13.833
 2954W        W75269  40.816  43.302  12.068
 2955W        W75270  30.609  11.758  11.098
 2956W        W75271  37.099   2.506   4.224
 2957W        W75272  12.310   0.802   4.581
 2958W        W75273  19.324  19.763   3.316
 2959W        W75274  25.216  18.208  12.980
 2960W        W75275  13.357  38.455   2.869
 2961W        W75276  34.334  37.411   0.887
 2962W        W75277  18.054  35.126  12.578
 2963W        W75278  31.084  19.026  12.401
 2964W        W75279  23.225  11.273  14.123
 2965W        W75280  40.332  14.697   3.653
 2966W        W75281  38.750  10.960   0.546
 2967W        W75282  19.580  12.738  10.424
 2968W        W75283  19.814   7.265   0.313
 2969W        W75284  18.880  38.251   9.908
 2970W        W75285  10.456  16.682  14.997
 2971W        W75286  11.381  41.360  12.942
 2972W        W75287  35.365  21.516   0.704
 2973W        W75288  41.894   1.461  13.574
 2974W        W75289   0.772  30.934   2.898
 2975W        W75290   0.991  36.303   5.083
 2976W        W75291  39.372  37.609   2.536
 2977W        W75292  40.604  22.106   3.754
 2978W        W75293   8.508  43.416   3.740
 2979W        W75294   8.895  21.195  13.910
 2980W        W75295  18.034  22.995  10.648
 2981W        W75296  29.529   1.942  13.430
 2982W        W75297  24.789  32.886  14.216
 2983W        W75298  31.117  23.272   4.740
 2984W        W75299  22.502  17.342   1.760
 2985W        W75300  16.795  41.294  12.562
 2986W        W75301  25.836  29.765  14.821
 2987W        W75302   6.583  21.743   1.909
 2988W        W75303  26.101  35.292  13.985
 2989W        W75304   3.278  20.359   1.288
 2990W        W75305  32.208   8.214   2.842
 2991W        W75306  44.694  13.752   1.388
 2992W        W75307  34.888  42.025   4.094
 2993W        W75308  43.295  26.553  12.345
 2994W        W75309   6.155   0.313  14.828
 2995W        W75310   9.150  33.580   3.388
 2996W        W75311  13.270  42.388   4.667
 2997W        W75312  37.289  26.591   4.603
 2998W        W75313  13.409  38.277  13.663
 2999W        W75314  29.014   7.961  13.415
 3000W        W75315  44.915  35.453   0.586
 3001W        W75316  34.179  41.484   4.546
 3002W        W75317   6.833  43.988  11.826
 3003W        W75318  37.430  22.628   4.589
 3004W        W75319  25.675  15.102   1.387
 3005W        W75320  42.582   5.830   3.745
 3006W        W75321  38.790  30.379  11.203
 3007W        W75322  34.464  38.479  12.887
 3008W        W75323  28.592  16.067   2.985
 3009W        W75324  12.485  44.293  13.580
 3010W        W75325  33.324  23.759  13.998
 3011W        W75326  17.406  40.975   4.627
 3012W        W75327  44.076  29.526  14.660
 3013W        W75328  44.442  32.262   4.438
 3014W        W75329   5.121  43.466   3.696
 3015W        W75330  13.230  33.978   2.776
 3016W        W75331  10.508   4.401   0.810
 3017W        W75332  26.640  31.409   9.774
 3018W        W75333  21.380  27.621  14.759
 3019W        W75334  15.659  39.874   4.714
 3020W        W75335  10.348   1.192   2.652
 3021W        W75336   4.994  41.392   4.173
 3022W        W75337   7.836  39.042   1.801
 3023W        W75338   9.651  10.364   0.671
 3024W        W75339  39.000   8.096   0.201
 3025W        W75340   7.210  10.425  13.884
 3026W        W75341   7.406   3.443   3.307
 3027W        W75342  35.143   6.305   2.814
 3028W        W75343   4.464  27.882   0.499
 3029W        W75344  37.635  26.109   2.248
 3030W        W75345   2.957  33.974  13.961
 3031W        W75346  35.963  34.793  14.347
 3032W        W75347  44.883  31.201   3.215
 3033W        W75348  36.636  11.725   2.294
 3034W        W75349   9.881   5.176   3.267
 3035W        W75350  10.824  23.019   4.014
 3036W        W75351   2.994  16.190   2.646
 3037W        W75352  26.717   0.335   3.883
 3038W        W75353  39.577  21.568   4.454
 3039W        W75354  36.718  41.954  13.055
 3040W        W75355   9.189  31.917  12.008
 3041W        W75356  41.853  36.891  11.696
 3042W        W75357  31.955  30.865   1.408
 3043W        W75358  30.591  16.886  11.263
 3044W        W75359   9.938  44.067  12.501
 3045W        W75360   9.462  43.894   0.884
 3046W        W75361  18.796  34.401   1.830
 3047W        W75362   3.924  41.880  10.647
 3048W        W75363  40.749  14.281  12.333
 3049W        W75364  27.276  21.721   3.841
 3050W        W75365  31.339  32.916  12.541
 3051W        W75366   4.464  43.170   3.243
 3052W        W75367  25.135   8.115  10.467
 3053W        W75368  26.502  12.956   1.838
 3054W        W75369  40.743   2.611   4.617
 3055W        W75370  24.122  35.105   0.841
 3056W        W75371  36.511  22.270  12.052
 3057W        W75372  19.970  11.301  10.169
 3058W        W75373  43.865  20.661   2.185
 3059W        W75374  39.480  20.032   1.800
 3060W        W75375   4.189  18.278  12.911
 3061W        W75376  34.572  36.444   4.055
 3062W        W75377   9.765   4.893   4.528
 3063W        W75378   8.400  41.771  12.342
 3064W        W75379  26.136  16.769   4.580
 3065W        W75380  15.489  16.796  12.174
 3066W        W75381  13.281  24.716   1.190
 3067W        W75382  36.827  38.767  13.591
 3068W        W75383  17.531   1.167   0.647
 3069W        W75384  32.076   7.916   0.389
 3070W        W75385  41.344  34.301  13.961
 3071W        W75386  28.620  22.280   1.282
 3072W        W75387   1.195  13.514  14.553
 3073W        W75388  40.799  30.267  11.024
 3074W        W75389   7.680  33.107   3.264
 3075W        W75390  19.029  23.523   0.896
 3076W        W75391  26.076  34.547   1.346
 3077W        W75392  16.310   3.305  14.285
 3078W        W75393   5.684   1.336  14.755
 3079W        W75394   7.431  44.068  12.945
 3080W        W75395  36.864  38.894  14.971
 3081W        W75396  18.538   9.764   3.273
 3082W        W75397  24.244  38.772   2.274
 3083W        W75398  21.910  21.646   4.658
 3084W        W75399  25.575  26.947  11.092
 3085W        W75400  23.162  43.571   2.139
 3086W        W75401  31.104  23.289  10.693
 3087W        W75402  13.210  27.183  11.555
 3088W        W75403  14.146  43.862  13.641
 3089W        W75404   2.258  37.265  11.449
 3090W        W75405  18.185  37.544   4.670
 3091W        W75406  14.374  27.942  13.931
 3092W        W75407  19.111  27.563   3.816
 3093W        W75408  24.481  37.893  14.605
 3094W        W75409   3.384  44.327  10.365
 3095W        W75410   2.942   3.703   2.896
 3096W        W75411  42.633  15.022  13.438
 3097W        W75412  24.935  42.468  10.483
 3098W        W75413   4.895  42.257  11.175
 3099W        W75414  24.082  34.163  13.066
 3100W        W75415   6.014  11.637  12.347
 3101W        W75416  29.702   2.668   4.569
 3102W        W75417  12.054  39.797  10.662
 3103W        W75418  38.688   6.884  12.088
 3104W        W75419  29.396   9.662   2.502
 3105W        W75420  36.930  16.619   2.296
 3106W        W75421  31.988   7.987   3.866
 3107W        W75422  26.006  40.335   4.362
 3108W        W75423  19.148  25.944  11.842
 3109W        W75424  38.145  27.406  14.319
 3110W        W75425  13.158  33.608   4.424
 3111W        W75426  44.770  19.189   2.387
 3112W        W75427   0.850  40.352   4.981
 3113W        W75428  29.779  38.287   1.781
 3114W        W75429   7.126  13.258   2.365
 3115W        W75430  21.982  17.285  14.366
 3116W        W75431  35.551  37.233  11.154
 3117W        W75432   1.031   8.564  11.067
 3118W        W75433  25.978   6.167  10.603
 3119W        W75434  42.764  35.226  10.871
 3120W        W75435  41.025  11.283  14.828
 3121W        W75436  11.601   4.264  12.449
 3122W        W75437  44.895  22.762  11.997
 3123W        W75438   5.856  18.135  10.822
 3124W        W75439  39.025  39.337   0.833
 3125W        W75440  14.840   8.558   1.714
 3126W        W75441  37.415   7.397   4.099
 3127W        W75442  30.543   2.180   0.851
 3128W        W75443  19.691  14.186   2.722
 3129W        W75444  39.459  18.471  14.981
 3130W        W75445  14.807  42.513  12.543
 3131W        W75446  33.340  11.735   1.888
 3132W        W75447  27.173  34.109  14.556
 3133W        W75448  25.125  25.248   0.300
 3134W        W75449  23.164  12.344  14.600
 3135W        W75450  24.009  33.963  10.773
 3136W        W75451  12.585  13.347  11.257
 3137W        W75452   0.835  28.502   4.187
 3138W        W75453   7.626  19.444   2.701
 3139W        W75454  14.227  35.032  13.599
 3140W        W75455  17.025  35.397  12.059
 3141W        W75456  23.974  16.303  14.145
 3142W        W75457  18.139   2.444   3.629
 3143W        W75458  11.620  12.349  12.591
 3144W        W75459   5.947  29.640   0.276
 3145W        W75460  30.245   2.304   0.207
 3146W        W75461  20.456  39.856  13.378
 3147W        W75462  37.101  21.679   4.178
 3148W        W75463  10.663   7.299  13.512
 3149W        W75464  30.907  11.334  10.994
 3150W        W75465   6.254  42.337   3.372
 3151W        W75466  35.363  13.025   3.207
 3152W        W75467   9.212  19.276  10.065
 3153W        W75468  37.775  44.751  13.506
 3154W        W75469  25.027  21.153  10.320
 3155W        W75470  18.615  38.085   2.721
 3156W        W75471   3.919  40.428  10.184
 3157W        W75472  18.519  33.606  10.717
 3158W        W75473  43.952   6.702   4.100
 3159W        W75474  27.895  18.005   3.313
 3160W        W75475  33.160   9.903  13.206
 3161W        W75476   2.602  26.175  11.865
 3162W        W75477  20.649  11.773  12.015
 3163W        W75478  16.254   4.257  10.749
 3164W        W75479  33.606  31.583  12.108
 3165W        W75480  26.961   3.455   9.801
 3166W        W75481  29.966  25.034  11.015
 3167W        W75482  26.146  14.641  11.563
 3168W        W75483  43.530   7.860   0.881
 3169W        W75484  10.274  11.366   3.917
 3170W        W75485  30.237  33.973  10.747
 3171W        W75486  32.361  20.532  14.435
 3172W        W75487  36.294  14.816  13.363
 3173W        W75488  35.891  43.713  13.039
 3174W        W75489  44.621  34.997  14.778
 3175W        W75490  28.517  19.191  11.194
 3176W        W75491  30.784  37.500   4.819
 3177W        W75492  43.853  22.487   4.045
 3178W        W75493  30.414  31.065  11.635
 3179W        W75494   2.430  27.599  13.196
 3180W        W75495  35.400  14.227  13.998
 3181W        W75496  38.579  25.960  11.919
 3182W        W75497  14.334   8.325   0.423
 3183W        W75498   8.403  17.580   4.444
 3184W        W75499  27.747   7.133   5.159
 3185W        W75500  36.240   8.425  11.563
 3186W        W75501  20.056  18.271  12.190
 3187W        W75502   5.368  26.171  11.852
 3188W        W75503  32.569   3.147   2.929
 3189W        W75504  43.370  19.344   3.730
 3190W        W75505  31.880   7.163   3.273
 3191W        W75506  11.676  43.424   1.260
 3192W        W75507  39.111   7.590  11.596
 3193W        W75508   2.250  24.205  12.550
 3194W        W75509  42.726  14.871  14.889
 3195W        W75510  32.933  39.741  13.982
 3196W        W75511  43.601  27.654   3.687
 3197W        W75512  32.121  28.007  13.867
 3198W        W75513  12.680  34.979  13.943
 3199W        W75514  36.339  16.167   2.363
 3200W        W75515  33.901   5.484  14.872
 3201W        W75516  37.418  12.003   2.414
 3202W        W75517  40.390  41.550  14.623
 3203W        W75518  43.896   1.832   0.097
 3204W        W75519  30.877  16.582   0.879
 3205W        W75520  19.367   0.425   4.694
 3206W        W75521  40.445  12.903   2.377
 3207W        W75522   5.055  25.297  11.604
 3208W        W75523   7.680  39.918   3.310
 3209W        W75524  25.178   5.068  10.640
 3210W        W75525  33.854  32.207   4.161
 3211W        W75526  13.726  36.043  13.349
 3212W        W75527   7.304  41.845   0.385
 3213W        W75528  10.668  42.076   2.693
 3214W        W75529  11.184  15.026  13.864
 3215W        W75530   7.880  39.483  11.535
 3216W        W75531  10.180  42.507   3.167
 3217W        W75532  42.973  11.160  10.497
 3218W        W75533  34.278  27.134   4.413
 3219W        W75534   2.366   7.273  14.401
 3220W        W75535  26.063  17.198  10.695
 3221W        W75536   4.999   2.468  13.029
 3222W        W75537   7.784  25.844  10.731
 3223W        W75538  34.660  28.484   3.650
 3224W        W75539   6.337  34.689   4.487
 3225W        W75540  38.370  13.780  14.771
 3226W        W75541  44.776  43.849   3.411
 3227W        W75542  33.333  28.435  14.960
 3228W        W75543  14.841  25.516  12.397
 3229W        W75544  28.033  39.387   3.152
 3230W        W75545  13.431   9.410  13.639
 3231W        W75546  41.052  43.013   5.079
 3232W        W75547  35.405  28.048   0.582
 3233W        W75548  43.820   9.873   2.213
 3234W        W75549  23.581  36.839   0.693
 3235W        W75550  14.336   1.216  11.132
 3236W        W75551  11.260  22.805   0.381
 3237W        W75552  15.795   2.801   4.639
 3238W        W75553  28.933  23.705   4.249
 3239W        W75554  44.835  30.482  13.548
 3240W        W75555  19.632  39.288  11.936
 3241W        W75556  28.402   9.899   2.245
 3242W        W75557  17.713   5.782  12.026
 3243W        W75558  40.286  14.736  10.662
 3244W        W75559  41.026   0.120   3.503
 3245W        W75560  43.814  38.974   0.286
 3246W        W75561  43.256  40.874  10.786
 3247W        W75562  11.753   0.917   0.231
 3248W        W75563   7.440  13.311   0.809
 3249W        W75564  18.782  22.135   2.410
 3250W        W75565  27.200  12.290   4.565
 3251W        W75566  20.419  39.573  14.962
 3252W        W75567  38.601   7.690  11.618
 3253W        W75568  13.728  18.558  13.310
 3254W        W75569  36.348  43.945   2.790
 3255W        W75570  19.860  18.892  11.153
 3256W        W75571  36.466   0.827   0.236
 3257W        W75572  32.584  42.820   1.279
 3258W        W75573  31.603  13.412  12.773
 3259W        W75574  18.047  30.196   2.314
 3260W        W75575   1.310  41.653  11.369
 3261W        W75576  20.639   6.632   3.779
 3262W        W75577  43.248  41.935   1.350
 3263W        W75578  14.088  38.334   4.685
 3264W        W75579  24.363  38.929  10.464
 3265W        W75580  38.035  40.038   2.025
 3266W        W75581  27.145  35.504  12.329
 3267W        W75582  16.578  32.500   4.122
 3268W        W75583  24.427  26.431  11.577
 3269W        W75584  20.099  15.737   1.261
 3270W        W75585  36.384  10.339   1.394
 3271W        W75586  24.514  39.479   4.632
 3272W        W75587  26.060   7.661  11.900
 3273W        W75588  19.186  40.071  12.038
 3274W        W75589  25.889  28.133  13.918
 3275W        W75590  18.007  33.540   0.329
 3276W        W75591   8.117   7.475   3.169
 3277W        W75592  42.574  40.819  13.061
 3278W        W75593   0.903  26.962  10.852
 3279W        W75594  28.146  30.431   0.825
 3280W        W75595  23.631  38.302   1.341
 3281W        W75596   0.307  12.226   3.110
 3282W        W75597   7.795  17.788   4.737
 3283W        W75598  13.588  11.742  11.839
 3284W        W75599  27.000  41.108   2.439
 3285W        W75600  30.879  12.390  14.890
 3286W        W75601  24.320  13.242   1.620
 3287W        W75602  10.298  32.082   0.921
 3288W        W75603  20.684  20.761  11.970
 3289W        W75604  17.298   2.916  11.127
 3290W        W75605   4.167  14.321  14.308
 3291W        W75606  40.378  28.673  14.082
 3292W        W75607  31.870   8.834  13.487
 3293W        W75608  16.162  13.741   2.421
 3294W        W75609  32.528  21.612  13.771
 3295W        W75610  29.040  16.251   4.779
 3296W        W75611  39.690   4.991  13.423
 3297W        W75612  40.378  16.158  11.500
 3298W        W75613  11.377  16.376   1.691
 3299W        W75614  30.216   9.156   3.472
 3300W        W75615  11.113  13.310  14.994
 3301W        W75616  12.923  28.633  11.501
 3302W        W75617  31.416  23.746  12.387
 3303W        W75618  30.517   3.925  13.558
 3304W        W75619  25.259  33.626  13.642
 3305W        W75620  30.391   1.659  13.930
 3306W        W75621  20.243  11.785  14.783
 3307W        W75622  20.314  43.607  11.537
 3308W        W75623   3.522   4.232   4.019
 3309W        W75624  36.510  27.158   4.913
 3310W        W75625  18.543  27.366   0.161
 3311W        W75626  10.363   2.770  14.438
 3312W        W75627   8.335  32.121  11.474
 3313W        W75628  20.250  40.542   5.107
 3314W        W75629  24.505  29.066   0.429
 3315W        W75630  39.219  27.923  11.605
 3316W        W75631   2.874  34.909  12.637
 3317W        W75632  22.633   2.903   4.376
 3318W        W75633  41.311  35.821   0.019
 3319W        W75634  42.295   7.374   3.091
 3320W        W75635  31.959  30.052   2.739
 3321W        W75636  39.796  18.836  12.841
 3322W        W75637  33.347  20.716  12.549
 3323W        W75638  26.479  37.958  13.940
 3324W        W75639  19.658  12.158   2.271
 3325W        W75640  25.983  14.735   2.201
 3326W        W75641  36.069  30.523  14.430
 3327W        W75642  32.412  22.689  11.602
 3328W        W75643  11.699  34.683   0.872
 3329W        W75644  37.845   2.227  11.591
 3330W        W75645  29.664  16.317   1.413
 3331W        W75646   2.926  30.089   4.793
 3332W        W75647  36.457   0.757  13.378
 3333W        W75648  15.447  10.190  11.433
 3334W        W75649  33.580   5.389   4.279
 3335W        W75650  42.575  35.110   4.146
 3336W        W75651  37.489   1.253  12.312
 3337W        W75652  42.800  40.860   3.646
 3338W        W75653  20.919  35.225   3.649
 3339W        W75654  22.417   3.272  10.941
 3340W        W75655  22.739  23.557   2.733
 3341W        W75656  35.165  38.968  11.166
 3342W        W75657   9.754  21.313  12.168
 3343W        W75658  43.362  44.478   1.811
 3344W        W75659  19.211  22.763   1.403
 3345W        W75660  23.992  20.612  13.434
 3346W        W75661  20.232  18.542   2.208
 3347W        W75662  16.064   6.144   3.205
 3348W        W75663   1.710   8.255   4.562
 3349W        W75664  24.635  31.770   4.742
 3350W        W75665   3.674  24.981   0.755
 3351W        W75666   6.563   5.140  13.438
 3352W        W75667  35.035  41.233   0.402
 3353W        W75668  26.026   7.919   2.639
 3354W        W75669  19.182  44.964   4.881
 3355W        W75670   7.657  23.581  14.453
 3356W        W75671  17.603  26.819  14.523
 3357W        W75672   6.364   4.791  11.555
 3358W        W75673  27.553  35.706  13.037
 3359W        W75674  17.642  24.245  11.756
 3360W        W75675   4.003  35.812   2.340
 3361W        W75676  35.766  13.748  10.802
 3362W        W75677   6.938  36.015   4.052
 3363W        W75678   8.738   1.252   4.296
 3364W        W75679  21.056  36.306   0.790
 3365W        W75680   6.814   0.983   4.642
 3366W        W75681  33.276  43.733   1.733
 3367W        W75682  11.780   8.714  13.571
 3368W        W75683  43.991   6.134   3.349
 3369W        W75684   2.405  13.665  11.533
 3370W        W75685  39.709   4.270  11.532
 3371W        W75686  36.318  20.175   3.318
 3372W        W75687  31.713  41.373  12.526
 3373W        W75688   7.913  29.717  13.658
 3374W        W75689  22.758  30.486  14.825
 3375W        W75690  26.864   5.770   4.569
 3376W        W75691  27.261   5.941   5.430
 3377W        W75692  40.390  26.621   2.714
 3378W        W75693   6.875  37.800  14.046
 3379W        W75694  27.808  34.672   1.774
 3380W        W75695   3.716   2.958   1.893
 3381W        W75696  16.540   9.208   1.902
 3382W        W75697  35.998  44.683   4.544
 3383W        W75698  15.389  22.442   0.944
 3384W        W75699  34.397  32.426  11.197
 3385W        W75700  37.887  19.131   2.383
 3386W        W75701  35.430   7.418  12.161
 3387W        W75702  41.887  12.326   1.125
 3388W        W75703   1.449  41.792   4.217
 3389W        W75704  26.150  17.157   1.330
 3390W        W75705  15.148   4.790  10.663
 3391W        W75706   5.262  13.102  12.640
 3392W        W75707   3.307  11.538   3.631
 3393W        W75708   9.642  21.076   0.950
 3394W        W75709   5.297  27.958   0.254
 3395W        W75710  20.524  22.559  14.541
 3396W        W75711   3.837  10.658   3.274
 3397W        W75712  17.406  40.976  12.059
 3398W        W75713  43.350  33.462   3.268
 3399W        W75714  30.510  43.490  12.303
 3400W        W75715   1.232  36.032   1.751
 3401W        W75716  36.822  15.815   2.808
 3402W        W75717  21.909  17.156  11.429
 3403W        W75718  31.428  14.073   3.763
 3404W        W75719  30.398  20.786   4.356
 3405W        W75720  14.242  19.665  12.600
 3406W        W75721  39.080  40.420  13.474
 3407W        W75722   5.043  22.754   4.942
 3408W        W75723  36.962  34.643  14.984
 3409W        W75724  15.622  16.652  10.047
 3410W        W75725  43.067  20.124   2.630
 3411W        W75726  18.350  42.284  10.743
 3412W        W75727  39.823  26.677   2.134
 3413W        W75728  39.371  26.115   1.726
 3414W        W75729  11.674   5.457  11.798
 3415W        W75730  22.023  23.738   0.133
 3416W        W75731  44.472  10.610  14.899
 3417W        W75732  24.871   2.981  12.591
 3418W        W75733  22.898  26.559  12.147
 3419W        W75734  29.222  16.610   1.224
 3420W        W75735  14.072  15.104  14.306
 3421W        W75736  28.466  27.944  10.740
 3422W        W75737  40.748  35.407   3.215
 3423W        W75738   0.752  16.306   2.825
 3424W        W75739   0.040  18.060  13.032
 3425W        W75740  19.453  19.284  10.820
 3426W        W75741   0.808  12.214  10.255
 3427W        W75742  28.378  20.344   1.321
 3428W        W75743   3.090   0.492  10.685
 3429W        W75744  28.643   4.931   4.650
 3430W        W75745  30.602   6.846  11.098
 3431W        W75746  37.398  21.961   1.999
 3432W        W75747  32.111  14.689  10.675
 3433W        W75748   5.389  31.341  13.989
 3434W        W75749  33.411  18.837  14.054
 3435W        W75750   3.369   0.843  12.011
 3436W        W75751   6.312  25.979   4.725
 3437W        W75752  36.946   8.445   3.747
 3438W        W75753  40.488  21.186  14.197
 3439W        W75754   8.357  28.223  14.639
 3440W        W75755  40.594   7.836  10.989
 3441W        W75756   8.729  10.685   2.355
 3442W        W75757  25.605  31.078  13.920
 3443W        W75758  31.490  11.186   3.679
 3444W        W75759  28.989  20.834   3.265
 3445W        W75760   2.267   2.705   0.282
 3446W        W75761  43.997   2.483   1.707
 3447W        W75762  15.032   2.696   2.156
 3448W        W75763  14.303   3.782  12.461
 3449W        W75764  17.050  22.503   1.316
 3450W        W75765   2.522  43.738   1.496
 3451W        W75766  13.201  44.765   0.952
 3452W        W75767  37.066  20.816  14.809
 3453W        W75768  15.783   4.735   1.769
 3454W        W75769  40.712  16.007   3.918
 3455W        W75770  35.736  41.983  10.625
 3456W        W75771  42.741  13.426   0.069
 3457W        W75772   9.681  44.533  12.550
 3458W        W75773  10.593  18.070   3.578
 3459W        W75774  16.025  30.057  13.364
 3460W        W75775  21.084  27.616  12.849
 3461W        W75776  21.489  27.744   3.994
 3462W        W75777   4.383  33.203   0.825
 3463W        W75778  41.996  21.123  13.476
 3464W        W75779  20.963  28.847  11.581
 3465W        W75780   8.700   7.196   2.277
 3466W        W75781  36.053  24.209  13.931
 3467W        W75782  41.793   3.158  12.608
 3468W        W75783  30.111  19.300  12.433
 3469W        W75784  20.045  30.457   0.616
 3470W        W75785  43.503  44.118   3.276
 3471W        W75786  17.683   8.083  12.578
 3472W        W75787  18.565  22.127   4.618
 3473W        W75788  26.572  29.074  13.438
 3474W        W75789   3.442  21.756   2.701
 3475W        W75790   4.277   0.886   2.290
 3476W        W75791   2.913  25.673   3.239
 3477W        W75792  14.615  25.224  13.578
 3478W        W75793  17.117  11.262   4.612
 3479W        W75794  38.330  32.149  11.536
 3480W        W75795   0.378  11.220   1.700
 3481W        W75796   5.679  36.576   2.215
 3482W        W75797   9.555   0.320   3.087
 3483W        W75798  30.544   6.352   0.735
 3484W        W75799  37.660  11.786  11.163
 3485W        W75800  15.449  33.398   5.056
 3486W        W75801  28.904   1.589  12.923
 3487W        W75802  10.205  32.259  13.854
 3488W        W75803  21.069   6.673   4.361
 3489W        W75804  41.979  21.246  12.391
 3490W        W75805  28.506   8.371   1.436
 3491W        W75806  12.628   6.742   4.277
 3492W        W75807   7.798  14.082   1.014
 3493W        W75808  25.018  34.919  10.783
 3494W        W75809  40.115   6.732  10.402
 3495W        W75810   9.819  44.401  10.692
 3496W        W75811  34.953  35.448   2.206
 3497W        W75812  42.054  42.763   2.767
 3498W        W75813   1.020  31.705   1.712
 3499W        W75814   1.900  13.420  12.505
 3500W        W75815  21.160  28.212   1.385
 3501W        W75816  33.949  14.431   3.147
 3502W        W75817  27.019  12.825   2.600
 3503W        W75818   9.874  19.693   2.410
 3504W        W75819  32.495  11.548  14.512
 3505W        W75820  33.915   0.863  14.039
 3506W        W75821  24.054  10.170  13.922
 3507W        W75822  14.615  43.542   1.808
 3508W        W75823   8.625  20.455   5.007
 3509W        W75824  29.468  19.361   3.700
 3510W        W75825   5.598  36.107  11.130
 3511W        W75826  32.546   0.477  11.930
 3512W        W75827  37.371   3.488   0.899
 3513W        W75828   8.587   5.804  12.456
 3514W        W75829  15.099  27.510   1.746
 3515W        W75830  41.670  19.757  10.641
 3516W        W75831  35.186  37.072  12.033
 3517W        W75832   9.783  21.720  13.543
 3518W        W75833  22.189  29.443   1.000
 3519W        W75834  43.386  36.453   4.275
 3520W        W75835  26.046  23.545  11.310
 3521W        W75836  16.858  33.920   0.970
 3522W        W75837  19.303  15.319   1.813
 3523W        W75838   6.439  31.972   0.249
 3524W        W75839   0.226  42.562   2.191
 3525W        W75840  28.614  44.337   1.195
 3526W        W75841   4.933   9.585  12.519
 3527W        W75842  27.119   3.927   5.461
 3528W        W75843   5.264  32.503   4.854
 3529W        W75844  15.357  18.943   3.907
 3530W        W75845  21.557  17.417   1.855
 3531W        W75846  38.088   5.903   3.249
 3532W        W75847  40.000   0.558   2.646
 3533W        W75848  44.835   9.369  10.111
 3534W        W75849   2.994  36.307  14.848
 3535W        W75850   9.198  13.309  12.533
 3536W        W75851   0.711  40.341  11.642
 3537W        W75852  19.817  15.401   3.284
 3538W        W75853  18.333  29.621   4.148
 3539W        W75854  10.170  34.358   4.654
 3540W        W75855  39.534  33.509  14.362
 3541W        W75856  28.683   6.200   0.813
 3542W        W75857  43.570  11.736   0.868
 3543W        W75858  20.661   0.504  12.557
 3544W        W75859  25.516  17.247  10.279
 3545W        W75860  37.974  16.173  12.062
 3546W        W75861  21.684  31.565   0.808
 3547W        W75862  25.707  18.543  10.651
 3548W        W75863  21.656  37.619  13.323
 3549W        W75864  40.814   6.170   3.829
 3550W        W75865  27.958  15.643  11.638
 3551W        W75866   8.762  40.008   3.893
 3552W        W75867  16.283  15.420  14.049
 3553W        W75868   0.749  24.564  10.666
 3554W        W75869  25.289  36.388  12.425
 3555W        W75870  14.690  31.864  14.863
 3556W        W75871   4.507  38.307  13.364
 3557W        W75872  22.543  13.897  12.589
 3558W        W75873  42.824  18.269   1.942
 3559W        W75874  11.829  27.569   0.442
 3560W        W75875  18.673  12.304  12.158
 3561W        W75876  36.252  31.649   2.496
 3562W        W75877  18.434  41.057  12.003
 3563W        W75878   7.805  36.539   0.535
 3564W        W75879  34.578   0.506  10.636
 3565W        W75880  19.177  22.667   4.096
 3566W        W75881   9.951  29.478  13.391
 3567W        W75882  18.567  35.465  13.627
 3568W        W75883   0.376  38.819  12.525
 3569W        W75884   3.435  38.257   3.647
 3570W        W75885  27.775   3.972   4.240
 3571W        W75886  23.948  33.640   3.617
 3572W        W75887  21.707  23.601  11.046
 3573W        W75888   0.428   4.142  13.811
 3574W        W75889  41.806  26.046   2.722
 3575W        W75890  28.391  33.398   1.852
 3576W        W75891   2.239  35.051   0.238
 3577W        W75892  35.668  37.481   4.043
 3578W        W75893  38.004  14.310  10.556
 3579W        W75894  23.676  21.079   3.282
 3580W        W75895   7.745  31.027   2.620
 3581W        W75896  37.739  30.455   1.178
 3582W        W75897   8.752  26.762   3.160
 3583W        W75898  25.344  14.575  13.604
 3584W        W75899  19.314  22.039  12.014
 3585W        W75900   9.605  37.053   0.415
 3586W        W75901  32.418  29.033   3.299
 3587W        W75902  25.062  10.402   0.982
 3588W        W75903  14.337  29.427   4.277
 3589W        W75904  32.882  29.060  14.497
 3590W        W75905   4.323  30.201  10.399
 3591W        W75906  16.437  28.808  12.341
 3592W        W75907  16.562  33.546   2.929
 3593W        W75908  20.306  29.474  14.607
 3594W        W75909  36.964  37.966  14.914
 3595W        W75910   1.305  27.960   0.479
 3596W        W75911   9.629  34.589   2.775
 3597W        W75912  32.122   4.428  14.271
 3598W        W75913   2.255  17.368   2.687
 3599W        W75914  26.898  27.691   1.976
 3600W        W75915  11.092   9.090   2.983
 3601W        W75916  40.873  31.528  13.647
 3602W        W75917  35.885  17.333  13.446
 3603W        W75918  42.016  19.948  11.894
 3604W        W75919   2.727  34.545   3.894
 3605W        W75920  33.481   7.600   3.291
 3606W        W75921   1.289   5.979  13.910
 3607W        W75922  22.159  37.926   1.325
 3608W        W75923   1.337  24.949   0.928
 3609W        W75924   2.795  29.943   0.057
 3610W        W75925  41.037  42.474   4.362
 3611W        W75926  19.727  34.013   0.673
 3612W        W75927  37.944  24.561  14.812
 3613W        W75928  13.422  35.831  11.256
 3614W        W75929  42.551  35.506  10.467
 3615W        W75930   3.508   0.640   4.687
 3616W        W75931  35.098  38.021  12.044
 3617W        W75932  23.013  13.893   0.758
 3618W        W75933  38.963  17.213   4.483
 3619W        W75934  17.076  22.472  11.946
 3620W        W75935  38.578   4.120  13.965
 3621W        W75936  42.853  21.156  10.429
 3622W        W75937  10.548  10.326  10.960
 3623W        W75938   7.701  28.508  14.064
 3624W        W75939  36.717   3.541  13.464
 3625W        W75940  20.938  42.309  13.976
 3626W        W75941  16.796  43.588  10.686
 3627W        W75942  27.615  26.960   4.081
 3628W        W75943  35.988  12.767   1.434
 3629W        W75944   1.080  23.192   2.072
 3630W        W75945  34.955  35.088  13.382
 3631W        W75946  42.537   5.213  13.837
 3632W        W75947  11.349  25.168   4.681
 3633W        W75948   9.522  28.696   2.925
 3634W        W75949  33.147  20.160   4.208
 3635W        W75950  42.039  26.064   2.269
 3636W        W75951   3.477   8.211   2.766
 3637W        W75952  35.530  17.552   0.285
 3638W        W75953   5.058  23.148  14.055
 3639W        W75954  25.962  19.641  10.703
 3640W        W75955  35.878  23.807  10.737
 3641W        W75956  32.529  15.488   0.358
 3642W        W75957  40.003   4.825   3.807
 3643W        W75958  15.291   2.900  14.301
 3644W        W75959   8.194  35.577  11.510
 3645W        W75960  38.546  36.254  12.081
 3646W        W75961  42.944  37.422   4.114
 3647W        W75962  31.513  20.130  14.619
 3648W        W75963  13.777   3.114   2.836
 3649W        W75964  42.002  19.778  10.210
 3650W        W75965   0.566  42.809   4.240
 3651W        W75966  12.365   3.765  14.380
 3652W        W75967   0.423  33.609   9.945
 3653W        W75968  12.446  37.622  14.776
 3654W        W75969  44.308  13.369  13.578
 3655W        W75970  16.826  30.353  10.629
 3656W        W75971  21.816  44.456  11.179
 3657W        W75972  42.406  35.163   0.678
 3658W        W75973  37.130  27.395  11.594
 3659W        W75974  21.596   9.646  14.726
 3660W        W75975  20.691  26.452  11.549
 3661W        W75976  12.638  44.999  14.612
 3662W        W75977  42.457  38.564   1.783
 3663W        W75978   3.289  24.221   0.568
 3664W        W75979  24.690   9.327  11.669
 3665W        W75980  17.803  33.899  11.024
 3666W        W75981  24.011  29.404   4.985
 3667W        W75982  10.434   7.156   5.136
 3668W        W75983  26.445  21.615  14.641
 3669W        W75984  12.317   6.897   1.971
 3670W        W75985  14.030  44.015   3.167
 3671W        W75986  15.060  37.863   1.220
 3672W        W75987  41.224   1.865  12.873
 3673W        W75988  34.380   2.472   2.640
 3674W        W75989  33.627   3.927  12.076
 3675W        W75990   7.160  40.457  14.801
 3676W        W75991  31.195   3.515   0.884
 3677W        W75992  44.270   1.290   2.382
 3678W        W75993  39.508  37.995   3.887
 3679W        W75994  20.941   3.811  13.882
 3680W        W75995  24.961  20.731   5.505
 3681W        W75996  33.602  41.888   3.212
 3682W        W75997  44.747  43.993   2.011
 3683W        W75998  21.391  32.025  10.743
 3684W        W75999   0.787   5.970  10.737
 3685W        W76000   6.771  36.075   1.920
 3686W        W76001  11.110  28.962   0.610
 3687W        W76002  39.833   8.223   1.872
 3688W        W76003  35.392   8.756   1.135
 3689W        W76004   4.193   5.258  10.673
 3690W        W76005  36.393  40.403  10.914
 3691W        W76006   5.182   7.143   1.603
 3692W        W76007  21.644  41.056   0.326
 3693W        W76008   1.766  31.766   5.063
 3694W        W76009   5.327   1.978   4.681
 3695W        W76010  31.927  17.307  12.031
 3696W        W76011  25.963  22.937   3.181
 3697W        W76012   6.228  21.630   4.841
 3698W        W76013  42.707  36.171   3.135
 3699W        W76014  39.850  10.688  13.733
 3700W        W76015  10.333  40.709   1.825
 3701W        W76016  24.511  33.211  13.386
 3702W        W76017  20.553  23.582   4.152
 3703W        W76018  31.424  19.529   1.348
 3704W        W76019  10.993  22.632  13.584
 3705W        W76020  17.486  14.587  12.459
 3706W        W76021  42.765   5.030  13.398
 3707W        W76022  23.999  24.034  11.122
 3708W        W76023  18.604  11.084   2.209
 3709W        W76024  16.007  37.649  11.619
 3710W        W76025  16.917  41.863   1.275
 3711W        W76026   0.679  41.985  14.319
 3712W        W76027  26.457  36.626   3.283
 3713W        W76028  22.093  42.240   0.232
 3714W        W76029   5.814  32.572   0.024
 3715W        W76030  26.336   0.451   1.267
 3716W        W76031  38.395  24.696  12.408
 3717W        W76032  10.241   4.773   2.832
 3718W        W76033  15.473  30.113   0.295
 3719W        W76034  14.968  28.901  14.510
 3720W        W76035  11.605  15.078  11.704
 3721W        W76036  36.917  21.137   1.963
 3722W        W76037   3.765  22.900   0.223
 3723W        W76038   9.290   0.992  10.107
 3724W        W76039  31.679   3.159   4.137
 3725W        W76040   1.870  44.604   2.219
 3726W        W76041   7.733  41.044   0.131
 3727W        W76042  22.397  10.782   4.944
 3728W        W76043  16.247  22.134   1.447
 3729W        W76044   5.719  30.856  12.507
 3730W        W76045  33.997  13.374  14.565
 3731W        W76046  40.552  24.512   0.920
 3732W        W76047  14.096  11.540   2.730
 3733W        W76048  22.375  38.594  11.083
 3734W        W76049  11.529  31.898   3.283
 3735W        W76050  37.772  17.703   4.453
 3736W        W76051  36.963   2.554  13.440
 3737W        W76052   4.824   3.678   3.540
 3738W        W76053  37.344  23.489   2.417
 3739W        W76054  33.044  18.203   3.796
 3740W        W76055  23.223  13.166  11.974
 3741W        W76056  32.010  17.187   1.965
 3742W        W76057  32.692  22.503  12.997
 3743W        W76058  20.618   1.466   2.012
 3744W        W76059  41.881  36.344   4.463
 3745W        W76060  14.583  35.883   4.570
 3746W        W76061  17.844   9.170  14.398
 3747W        W76062  21.904  24.066   0.907
 3748W        W76063   3.763   0.178   4.695
 3749W        W76064   3.922  30.073   1.501
 3750W        W76065  44.416  28.753   4.890
 3751W        W76066  35.603  34.396  14.413
 3752W        W76067   7.295  37.513   4.575
 3753W        W76068   4.697  13.865  14.522
 3754W        W76069  20.154  21.361   2.884
 3755W        W76070  38.243  23.269   4.501
 3756W        W76071  32.358  12.309   1.885
 3757W        W76072  32.464  39.327   1.372
 3758W        W76073  42.787  18.728   2.254
 3759W        W76074   6.698  44.113  10.874
 3760W        W76075  22.852  22.361  11.913
 3761W        W76076  23.057  19.320   0.592
 3762W        W76077  44.218  11.708   3.659
 3763W        W76078  41.408  12.156   1.032
 3764W        W76079  20.122  12.328  11.592
 3765W        W76080  25.969  35.805  11.781
 3766W        W76081  27.912  35.076  13.008
 3767W        W76082  29.528  24.697  12.858
 3768W        W76083  43.697  19.684  13.839
 3769W        W76084   8.682   8.174  14.765
 3770W        W76085  16.146  36.418   4.902
 3771W        W76086  28.615  35.192   1.684
 3772W        W76087  43.415  25.597   2.647
 3773W        W76088  28.555  40.218   0.754
 3774W        W76089   0.961  34.605   2.151
 3775W        W76090  21.599   5.607   0.338
 3776W        W76091  30.111   9.843  11.933
 3777W        W76092  34.998  20.190  12.835
 3778W        W76093  38.084  22.494  14.803
 3779W        W76094  14.898  43.467  12.889
 3780W        W76095  29.006  18.340  14.322
 3781W        W76096  27.467  15.629   3.707
 3782W        W76097  16.699  23.626   0.176
 3783W        W76098  43.452  34.644   2.631
 3784W        W76099  22.442  32.653  11.562
 3785W        W76100   8.266  14.143  10.707
 3786W        W76101  13.527  11.907   2.244
 3787W        W76102  38.802  42.228   5.025
 3788W        W76103  13.128  33.390   1.002
 3789W        W76104  28.956   0.977  14.681
 3790W        W76105   4.506  34.555  12.422
 3791W        W76106  33.649  28.841   0.267
 3792W        W76107  36.544  34.484  13.582
 3793W        W76108  27.651   0.322  11.669
 3794W        W76109   9.743   5.249  14.427
 3795W        W76110  25.498  17.076  12.439
 3796W        W76111   5.800   0.534  11.557
 3797W        W76112   0.740  26.072   2.833
 3798W        W76113  37.845  40.970  14.744
 3799W        W76114  25.605  26.891   0.664
 3800W        W76115   8.668  20.146   2.213
 3801W        W76116  28.419  33.542   2.367
 3802W        W76117  34.600  24.205  12.867
 3803W        W76118   4.278  26.053  13.367
 3804W        W76119  22.582  35.877   3.668
 3805W        W76120  11.937  19.730  14.962
 3806W        W76121  28.745  21.118   0.722
 3807W        W76122  27.375  36.951  14.372
 3808W        W76123  37.513  41.926   1.474
 3809W        W76124   8.638  14.755   3.190
 3810W        W76125  19.817  13.301   2.230
 3811W        W76126  30.020   8.774   2.176
 3812W        W76127   5.833   7.617  14.521
 3813W        W76128  36.082  13.306   4.335
 3814W        W76129   4.685  22.653  11.556
 3815W        W76130   9.810   3.925   2.934
 3816W        W76131  11.221  41.362  14.969
 3817W        W76132  20.271  37.375   0.449
 3818W        W76133   3.355  37.408  13.765
 3819W        W76134  11.427  20.535  10.354
 3820W        W76135  27.591  30.392   0.870
 3821W        W76136   2.171  13.788   0.989
 3822W        W76137  31.878   3.392   4.567
 3823W        W76138  33.956  34.740   1.178
 3824W        W76139  27.446  20.940   2.665
 3825W        W76140  30.335  18.592   1.440
 3826W        W76141   7.309  32.475   2.714
 3827W        W76142  17.133  36.334   3.867
 3828W        W76143  22.200  12.428  10.972
 3829W        W76144  30.064  36.117   2.283
 3830W        W76145  26.614  35.112   0.443
 3831W        W76146  44.517  21.031  14.335
 3832W        W76147  13.270  15.171   2.294
 3833W        W76148  12.896  24.634   3.249
 3834W        W76149  18.302  25.695  13.534
 3835W        W76150  16.101   2.247  10.975
 3836W        W76151  42.288   0.431  12.094
 3837W        W76152  26.488   8.623   1.820
 3838W        W76153  16.770   4.744  12.555
 3839W        W76154  23.142  37.325   3.209
 3840W        W76155   1.525  32.723   1.472
 3841W        W76156  19.217  13.022  13.211
 3842W        W76157   4.573  39.921   2.827
 3843W        W76158   4.718  36.325   3.193
 3844W        W76159  11.292   0.136  10.744
 3845W        W76160  12.082  44.726   1.817
 3846W        W76161  10.643  16.033  12.456
 3847W        W76162  33.576  13.393  14.857
 3848W        W76163  38.859  19.119   3.793
 3849W        W76164  23.116  33.437  14.244
 3850W        W76165  16.323  42.890  12.148
 3851W        W76166  23.469   9.563  12.168
 3852W        W76167  42.419   4.234   0.007
 3853W        W76168  40.502  37.411   1.137
 3854W        W76169   6.130  20.141   3.480
 3855W        W76170   3.712  34.585  14.012
 3856W        W76171   4.451  15.204  13.748
 3857W        W76172  15.349  32.510   0.750
 3858W        W76173  11.900  23.249   0.402
 3859W        W76174  35.079  21.161  14.434
 3860W        W76175  24.121  39.566   3.694
 3861W        W76176  15.036  32.935   0.739
 3862W        W76177  28.028  39.563  11.809
 3863W        W76178  26.488  13.839  11.533
 3864W        W76179  24.485  19.444   5.106
 3865W        W76180  12.286  34.383  14.083
 3866W        W76181   3.801  21.378  11.378
 3867W        W76182  43.067  25.673  14.104
 3868W        W76183  32.544  12.556   0.414
 3869W        W76184  14.360  11.467  14.291
 3870W        W76185   2.823   7.004  13.524
 3871W        W76186  22.305   4.306  12.639
 3872W        W76187  30.358  38.424  10.625
 3873W        W76188   1.965  21.278   4.595
 3874W        W76189  14.213   1.449  12.120
 3875W        W76190  19.218  35.439   0.978
 3876W        W76191  20.856  43.177  10.813
 3877W        W76192   4.322   6.168  13.220
 3878W        W76193  19.842  39.871   1.905
 3879W        W76194  14.007  15.711  14.817
 3880W        W76195  14.864  43.961   1.038
 3881W        W76196  41.732  20.541   4.285
 3882W        W76197  36.926  23.068  11.977
 3883W        W76198  24.653  13.898  11.232
 3884W        W76199  27.674  40.762  12.353
 3885W        W76200  40.343  18.438  12.541
 3886W        W76201  20.782   5.480   1.299
 3887W        W76202  38.125  11.519  12.085
 3888W        W76203  32.668  16.355  10.737
 3889W        W76204  35.697   7.751  11.836
 3890W        W76205   1.776   8.680   4.121
 3891W        W76206  42.181  20.704  10.612
 3892W        W76207  32.918  12.346   0.738
 3893W        W76208  14.854  15.345   3.163
 3894W        W76209  12.656  34.123  12.051
 3895W        W76210  16.261  25.492  12.976
 3896W        W76211  39.596  36.486  13.005
 3897W        W76212  21.047   5.907  13.483
 3898W        W76213  27.634  33.221  10.223
 3899W        W76214   1.829  36.178  10.575
 3900W        W76215  24.664  22.957  10.675
 3901W        W76216  22.941  17.839  13.554
 3902W        W76217   1.344  13.194   2.198
 3903W        W76218  43.861  30.219  11.679
 3904W        W76219  27.035  26.677  14.014
 3905W        W76220  43.898  30.561   4.065
 3906W        W76221  11.919   7.186   2.266
 3907W        W76222  43.510  26.244  11.973
 3908W        W76223  28.435  17.827   2.775
 3909W        W76224  31.407   6.207  13.930
 3910W        W76225  10.783  13.543  10.732
 3911W        W76226   6.783  32.636  14.835
 3912W        W76227  16.768  42.340   1.390
 3913W        W76228  23.873  21.932   3.701
 3914W        W76229  19.656  33.970   4.504
 3915W        W76230  19.200  21.350   5.029
 3916W        W76231  25.174  31.027   1.142
 3917W        W76232  19.322   1.158  12.231
 3918W        W76233  24.466  13.476  12.943
 3919W        W76234  26.065  14.543  13.961
 3920W        W76235  10.224  18.843   5.454
 3921W        W76236  15.277   9.884  13.503
 3922W        W76237  34.076  23.421  14.822
 3923W        W76238  43.967   9.444  12.338
 3924W        W76239  27.470  22.485  13.441
 3925W        W76240  22.146  25.116   1.429
 3926W        W76241  29.124  14.328   3.993
 3927W        W76242  35.144  20.320  14.104
 3928W        W76243  25.238  30.023  13.024
 3929W        W76244  38.266  28.022  13.070
 3930W        W76245  34.488  33.097   4.139
 3931W        W76246  25.510  18.093   4.651
 3932W        W76247  11.537   2.513  13.924
 3933W        W76248  33.354  37.451   4.525
 3934W        W76249  20.303  10.321   1.296
 3935W        W76250  21.695  18.879  10.442
 3936W        W76251  43.737  30.898   4.701
 3937W        W76252  27.767   9.222   2.762
 3938W        W76253  28.714   8.188   3.772
 3939W        W76254  33.451   9.577   3.187
 3940W        W76255   0.960  16.722  11.093
 3941W        W76256  25.102  44.793  12.328
 3942W        W76257   9.238  19.634   3.265
 3943W        W76258  34.419  17.859   0.912
 3944W        W76259  38.812  39.983   0.060
 3945W        W76260  40.585  20.301  12.960
 3946W        W76261  25.416  24.168  11.042
 3947W        W76262  34.035  23.204   2.608
 3948W        W76263   5.283  37.146   1.686
 3949W        W76264  32.131  38.993   4.986
 3950W        W76265   8.569  30.695   1.767
 3951W        W76266  24.849   8.347  12.085
 3952W        W76267  41.444  13.771  13.545
 3953W        W76268  41.715  37.337   4.564
 3954W        W76269  42.741  35.945  10.702
 3955W        W76270  11.562  16.594  14.412
 3956W        W76271  21.304  24.958   0.795
 3957W        W76272  25.767   6.518   2.857
 3958W        W76273  41.528   4.338  14.866
 3959W        W76274  15.647  23.204   2.357
 3960W        W76275  24.694  12.567   2.627
 3961W        W76276  13.139  27.746  10.772
 3962W        W76277  22.118  15.603  10.639
 3963W        W76278  27.378  28.554   1.858
 3964W        W76279  12.945  31.987   0.814
 3965W        W76280  40.266  15.724   1.775
 3966W        W76281  33.554  32.672   2.651
 3967W        W76282  27.092  16.374  12.541
 3968W        W76283  27.655  14.634   3.637
 3969W        W76284  34.857   0.481   0.493
 3970W        W76285  28.557  33.816   4.985
 3971W        W76286   2.314  37.849  10.638
 3972W        W76287   2.251  12.391   1.249
 3973W        W76288  28.375  32.549  14.886
 3974W        W76289   6.400   1.738   0.899
 3975W        W76290  25.638  29.988   1.492
 3976W        W76291  43.877   0.426  11.107
 3977W        W76292  18.627  20.139  14.141
 3978W        W76293  39.775  30.066   0.476
 3979W        W76294  12.845   9.274  14.499
 3980W        W76295   3.972   2.655  14.895
 3981W        W76296  17.520   7.920  10.698
 3982W        W76297  39.023  44.235   2.269
 3983W        W76298  19.407  19.273   3.931
 3984W        W76299  26.984   4.550   0.736
 3985W        W76300  20.263  10.821  12.387
 3986W        W76301  12.364   1.968  14.793
 3987W        W76302   0.404  24.566   3.725
 3988W        W76303   4.100  28.152   1.932
 3989W        W76304  39.809  21.794  11.581
 3990W        W76305  13.709  16.603  14.335
 3991W        W76306  23.671  21.729  12.113
 3992W        W76307   1.701   5.672  13.783
 3993W        W76308  31.046   5.237  12.484
 3994W        W76309   3.372   9.284   5.171
 3995W        W76310  44.906  32.974   4.699
 3996W        W76311  23.974   3.013   3.882
 3997W        W76312  23.898   9.800   3.736
 3998W        W76313   7.374  14.122   1.845
 3999W        W76314  30.251  18.328   4.067
 4000W        W76315  44.574  26.574   4.260
 4001W        W76316  24.977  36.863   1.335
 4002W        W76317  13.888  38.907  11.759
 4003W        W76318   1.307  42.710  10.246
 4004W        W76319   5.338  44.546   2.698
 4005W        W76320  14.669  21.819   3.681
 4006W        W76321  32.206  34.782   2.876
 4007W        W76322  39.110   0.931   3.658
 4008W        W76323  14.086   1.366   2.876
 4009W        W76324  15.818  16.998  11.011
 4010W        W76325  43.771  40.987   2.517
 4011W        W76326  18.152   2.765  12.420
 4012W        W76327  11.384   7.116  11.557
 4013W        W76328   8.940  40.488  11.112
 4014W        W76329   6.035  32.818   0.448
 4015W        W76330  20.105   1.264  14.946
 4016W        W76331  30.360  17.416  13.784
 4017W        W76332  35.926  36.340  12.403
 4018W        W76333  28.771  13.857   4.839
 4019W        W76334  44.195  18.056  11.014
 4020W        W76335  12.590   3.262  14.502
 4021W        W76336   4.328   1.761   0.791
 4022W        W76337  13.482  29.854  12.555
 4023W        W76338  23.747   1.141   0.525
 4024W        W76339   8.613  28.485  12.419
 4025W        W76340   7.633  43.977   1.337
 4026W        W76341  11.552  29.567   4.518
 4027W        W76342  20.607  26.202  12.063
 4028W        W76343  28.478  32.572  14.014
 4029W        W76344  17.784  28.243   3.786
 4030W        W76345  35.931   4.121  14.412
 4031W        W76346  18.716   0.320   2.255
 4032W        W76347  16.646  39.580   3.141
 4033W        W76348  36.695  39.278  12.383
 4034W        W76349  12.081  31.610  14.029
 4035W        W76350  31.370  23.509  13.840
 4036W        W76351  27.736  17.752   2.280
 4037W        W76352  33.930  44.293  10.493
 4038W        W76353  42.971  44.175  11.109
 4039W        W76354  28.161  43.751  12.488
 4040W        W76355  11.780  30.546  11.901
 4041W        W76356   1.232  14.278  11.590
 4042W        W76357  28.239  43.270   4.044
 4043W        W76358  40.360  12.290   0.424
 4044W        W76359   8.840  37.644   2.623
 4045W        W76360  30.113  34.966   2.355
 4046W        W76361  44.914  29.416  14.852
 4047W        W76362  28.600  10.732   2.382
 4048W        W76363  30.893  11.837  14.880
 4049W        W76364  27.600  22.040   2.913
 4050W        W76365   4.946  37.997   0.442
 4051W        W76366  18.272   7.517   4.366
 4052W        W76367  43.519   0.536   1.786
 4053W        W76368  13.769  37.319   3.157
 4054W        W76369  17.817  23.027  13.369
 4055W        W76370   0.968  24.349  14.800
 4056W        W76371  32.981  36.396   1.566
 4057W        W76372  16.389   8.856   3.599
 4058W        W76373  35.238  42.443  11.558
 4059W        W76374  18.016   6.415   0.749
 4060W        W76375   5.368   9.262  12.850
 4061W        W76376  12.670  29.061   3.862
 4062W        W76377  39.349   8.319   2.795
 4063W        W76378  18.562  27.242  11.590
 4064W        W76379  13.224  13.313   1.390
 4065W        W76380  31.580  10.166   1.767
 4066W        W76381  17.518  32.175   0.840
 4067W        W76382  18.083  25.936  12.463
 4068W        W76383   5.671  11.063   0.904
 4069W        W76384  23.440  12.491   2.349
 4070W        W76385   7.532   3.022   4.180
 4071W        W76386  37.894  22.185   2.323
 4072W        W76387  20.798   7.801   5.037
 4073W        W76388  37.164  17.857   2.283
 4074W        W76389   2.785   1.259   4.572
 4075W        W76390  44.281  12.389   1.949
 4076W        W76391   3.040  30.952   4.092
 4077W        W76392  18.223  26.850  12.461
 4078W        W76393  22.406  29.912   4.668
 4079W        W76394  16.128  38.852   5.071
 4080W        W76395  39.394  27.641  11.208
 4081W        W76396  38.075   7.858  14.226
 4082W        W76397  24.737  33.051   4.704
 4083W        W76398   6.828  37.693   4.740
 4084W        W76399  39.576   8.232   2.339
 4085W        W76400  17.456  26.237   4.698
 4086W        W76401  42.162  30.684   4.595
 4087W        W76402  30.394  19.033   1.187
 4088W        W76403   1.888  12.763   4.541
 4089W        W76404   0.335   0.774   2.302
 4090W        W76405   5.753  31.357  12.528
 4091W        W76406   6.607  32.001   1.912
 4092W        W76407  44.002  30.645  12.972
 4093W        W76408  10.287  39.284   4.759
 4094W        W76409   7.467  18.805   2.884
 4095W        W76410  22.777  39.861  13.128
 4096W        W76411  10.450  35.526  12.332
 4097W        W76412  17.916  26.444   4.095
 4098W        W76413   6.381  41.514  11.284
 4099W        W76414  34.073   6.956   2.648
 4100W        W76415   5.837   2.119   4.386
 4101W        W76416   8.789   4.028   3.286
 4102W        W76417  20.553   2.332  14.834
 4103W        W76418  20.654  34.971  13.110
 4104W        W76419   1.011  29.605   2.671
 4105W        W76420   7.005  29.496  12.831
 4106W        W76421   3.312  14.118  13.874
 4107W        W76422  17.787  44.482  13.571
 4108W        W76423  33.593  39.982   4.385
 4109W        W76424  31.941  16.095   0.153
 4110W        W76425   6.948   9.253   1.944
 4111W        W76426  39.860   7.769   4.339
 4112W        W76427  20.474  37.840   0.312
 4113W        W76428  32.833  43.909   0.735
 4114W        W76429  18.301  41.735   3.732
 4115W        W76430  22.217  41.403   2.037
 4116W        W76431  40.810  38.510   2.715
 4117W        W76432  19.172  39.556  12.120
 4118W        W76433  24.953  39.278  11.799
 4119W        W76434  21.812  31.317  13.035
 4120W        W76435  11.421   6.816  13.453
 4121W        W76436  25.385  43.606   0.343
 4122W        W76437  12.085   4.814   2.001
 4123W        W76438  28.137   6.099  12.934
 4124W        W76439  40.089   5.481   2.138
 4125W        W76440  12.335   1.441  11.113
 4126W        W76441   5.751  15.298   0.496
 4127W        W76442  12.356  35.341   1.133
 4128W        W76443  41.042  42.792  12.943
 4129W        W76444  28.686  21.759   3.328
 4130W        W76445  10.539   4.815   1.131
 4131W        W76446  10.721  37.411   4.518
 4132W        W76447  32.256  33.907  11.092
 4133W        W76448   0.913  41.484  11.649
 4134W        W76449   2.852  18.244   2.185
 4135W        W76450   7.758  11.706   3.638
 4136W        W76451  44.078  37.342  13.439
 4137W        W76452  10.416  41.291  12.817
 4138W        W76453  26.803   4.611  14.004
 4139W        W76454   8.280  41.380   2.004
 4140W        W76455  34.007  34.296  12.047
 4141W        W76456  25.559  11.854   9.950
 4142W        W76457  44.215  34.842  11.991
 4143W        W76458  33.001  15.242   0.203
 4144W        W76459  43.302  44.199   2.253
 4145W        W76460  22.301  18.581  13.328
 4146W        W76461  34.562   5.513  12.476
 4147W        W76462  12.367  10.314   0.766
 4148W        W76463   1.309   6.691  14.177
 4149W        W76464  28.691  43.466   2.245
 4150W        W76465   1.860  11.886   4.541
 4151W        W76466  28.940   6.266   1.957
 4152W        W76467  15.286  44.986   2.810
 4153W        W76468  20.078  36.198  13.544
 4154W        W76469   3.519  12.741   2.280
 4155W        W76470   5.788  22.783  12.614
 4156W        W76471  11.245   4.353   4.631
 4157W        W76472  21.736  43.276   3.901
 4158W        W76473   0.419  39.175   0.873
 4159W        W76474   0.707  12.713  12.704
 4160W        W76475  23.207  36.936  13.432
 4161W        W76476  14.631  13.348   0.877
 4162W        W76477  15.167  26.978  12.162
 4163W        W76478  34.702  35.614   1.771
 4164W        W76479  39.550  32.077  10.825
 4165W        W76480  37.512  16.354  12.992
 4166W        W76481  35.929   9.170  12.596
 4167W        W76482  15.083  32.446  10.931
 4168W        W76483  10.333  29.079   3.329
 4169W        W76484  14.645  19.274   3.234
 4170W        W76485  33.649  13.318  12.961
 4171W        W76486  35.915  10.555  14.036
 4172W        W76487  39.615  41.533  12.229
 4173W        W76488  12.607  37.146  11.272
 4174W        W76489  17.737  26.976   2.618
 4175W        W76490  42.719  28.242  13.851
 4176W        W76491  43.695  23.846  12.544
 4177W        W76492  11.950   8.315  13.900
 4178W        W76493   1.220   1.707   2.008
 4179W        W76494  12.288  27.149   0.570
 4180W        W76495  36.595  36.579  11.184
 4181W        W76496  43.998  27.520  10.629
 4182W        W76497  29.462   4.778  12.436
 4183W        W76498  26.742  19.288   0.869
 4184W        W76499   5.769  24.166   4.834
 4185W        W76500   4.193   5.725  13.480
 4186W        W76501  27.865   1.890  14.986
 4187W        W76502  26.121  24.017  13.864
 4188W        W76503  17.732  16.987   0.420
 4189W        W76504  33.010   5.534  11.482
 4190W        W76505   2.835  39.791  12.196
 4191W        W76506  18.882   5.081   3.214
 4192W        W76507   2.158  29.699   3.205
 4193W        W76508  17.999  37.382   3.828
 4194W        W76509   0.246   6.944   3.217
 4195W        W76510  41.878  35.335   4.495
 4196W        W76511  12.690   5.220  14.357
 4197W        W76512  10.067  15.687   4.692
 4198W        W76513  32.378  34.211   1.234
 4199W        W76514  26.599  30.524   4.728
 4200W        W76515  15.905   8.657  11.764
 4201W        W76516  22.427  23.489  12.565
 4202W        W76517  32.666   4.862  14.911
 4203W        W76518  18.648  14.383   4.568
 4204W        W76519  35.886  34.459  13.940
 4205W        W76520  43.897  10.920   0.944
 4206W        W76521  23.118   3.683   2.762
 4207W        W76522  35.867  37.051  11.516
 4208W        W76523  43.743  22.217   1.290
 4209W        W76524   6.638   8.725   2.681
 4210W        W76525  43.720  13.886  13.291
 4211W        W76526  13.433   0.258  12.323
 4212W        W76527  42.062   1.983   2.276
 4213W        W76528  21.606   4.735   3.833
 4214W        W76529  20.233  11.411  13.054
 4215W        W76530  17.663  22.270  10.652
 4216W        W76531   9.386  21.412   0.635
 4217W        W76532  41.050   9.753   4.645
 4218W        W76533  38.953  43.005   2.852
 4219W        W76534  39.491  25.961  13.830
 4220W        W76535   7.343  39.985  13.092
 4221W        W76536   2.622   5.246  12.402
 4222W        W76537  34.993  23.568  10.660
 4223W        W76538  39.000  30.524  11.635
 4224W        W76539  26.615  30.410  10.637
 4225W        W76540   1.469  42.839   0.046
 4226W        W76541  11.611  13.865  13.583
 4227W        W76542   4.257  18.324  14.751
 4228W        W76543   8.155  42.892   3.583
 4229W        W76544  24.773  16.191   0.249
 4230W        W76545  22.646  10.620  14.810
 4231W        W76546  16.227   9.453  13.510
 4232W        W76547   5.393  14.249   0.990
 4233W        W76548  16.695  24.104   0.942
 4234W        W76549  33.539   7.011   4.114
 4235W        W76550  37.132   0.897   1.821
 4236W        W76551  41.062   9.174   1.259
 4237W        W76552  36.439   5.293   4.177
 4238W        W76553  43.755  12.645   2.766
 4239W        W76554  43.071  37.529  11.935
 4240W        W76555  38.898   3.917   1.477
 4241W        W76556  20.624  24.906  12.404
 4242W        W76557  18.349   0.488   3.328
 4243W        W76558  19.626  15.877  14.075
 4244W        W76559  10.166  14.850   1.216
 4245W        W76560   9.378   9.285   2.213
 4246W        W76561  41.039  12.826  14.951
 4247W        W76562  31.741  33.497   0.205
 4248W        W76563  39.094  35.083  14.024
 4249W        W76564   0.852  33.470   2.331
 4250W        W76565   9.894  31.698  14.387
 4251W        W76566  20.739  40.380   0.821
 4252W        W76567  18.547   0.808   4.673
 4253W        W76568  24.001  15.351   4.949
 4254W        W76569   1.735  20.712  14.634
 4255W        W76570   0.054  27.421  12.774
 4256W        W76571   0.990  26.157   2.368
 4257W        W76572  19.598  23.232   4.335
 4258W        W76573  33.269   9.047   3.843
 4259W        W76574  14.498  18.291   2.291
 4260W        W76575  15.153  10.916   4.142
 4261W        W76576  38.582  44.525   2.915
 4262W        W76577  41.683  31.940  11.939
 4263W        W76578   8.616  42.978  10.955
 4264W        W76579  44.895  14.835  13.147
 4265W        W76580  15.134  16.554  12.473
 4266W        W76581  39.036  12.491   0.801
 4267W        W76582  41.731  18.101  11.179
 4268W        W76583  40.772  42.180   3.652
 4269W        W76584  32.162  34.811  14.985
 4270W        W76585  26.801  24.219  14.332
 4271W        W76586  37.585  43.395  14.970
 4272W        W76587  34.417  40.223   4.159
 4273W        W76588  10.640  27.670   1.925
 4274W        W76589  11.570  31.547   4.165
 4275W        W76590  30.901  19.203  11.963
 4276W        W76591  22.105  10.304   2.704
 4277W        W76592   9.955  32.546   1.770
 4278W        W76593  18.914   8.153  12.043
 4279W        W76594  44.343  44.847  10.464
 4280W        W76595  15.165  33.826  11.201
 4281W        W76596  25.529   6.587  10.382
 4282W        W76597   9.274  29.656   4.722
 4283W        W76598   7.645   3.288   1.364
 4284W        W76599  24.523  23.218  12.446
 4285W        W76600  29.973  32.046  13.884
 4286W        W76601  26.998  19.606   1.742
 4287W        W76602   4.504   0.746  13.858
 4288W        W76603  37.288   4.196  14.752
 4289W        W76604  40.727   1.067  12.838
 4290W        W76605  26.874  22.730  12.425
 4291W        W76606  32.432  38.288   3.746
 4292W        W76607   6.791   3.293   4.473
 4293W        W76608   9.879   1.339  12.056
 4294W        W76609  35.371  27.665   4.964
 4295W        W76610  42.022  25.201  12.538
 4296W        W76611  16.024   5.220   0.303
 4297W        W76612   3.651   1.925   0.356
 4298W        W76613  32.601   7.217   2.495
 4299W        W76614  10.724  24.165  10.590
 4300W        W76615  42.945  17.884  10.641
 4301W        W76616  25.326   8.332  12.335
 4302W        W76617  44.712  43.490  14.923
 4303W        W76618  23.493   7.685   1.263
 4304W        W76619  28.456  43.082   2.608
 4305W        W76620  27.614  44.480   4.520
 4306W        W76621  37.855  38.133   0.421
 4307W        W76622  11.857  20.745   4.907
 4308W        W76623  25.675  16.537   4.127
 4309W        W76624  33.137  34.937  12.436
 4310W        W76625  35.674   1.892  10.753
 4311W        W76626  18.101  24.517   3.816
 4312W        W76627  13.719  13.361  13.361
 4313W        W76628   3.774  44.709   4.397
 4314W        W76629  19.416  33.842  12.059
 4315W        W76630  15.829  44.479   0.905
 4316W        W76631   4.025  43.388  14.926
 4317W        W76632  21.235  35.961  13.040
 4318W        W76633  22.752  26.025   3.071
 4319W        W76634  26.163  18.733   2.874
 4320W        W76635  36.913  24.773  13.945
 4321W        W76636  26.284  36.771  11.526
 4322W        W76637  16.907  24.482   0.678
 4323W        W76638  37.923  24.120  13.835
 4324W        W76639  28.168  34.314   2.692
 4325W        W76640  20.759   3.731   4.877
 4326W        W76641  40.544  20.979   4.327
 4327W        W76642  24.787  43.781   2.841
 4328W        W76643  22.250  43.918   4.090
 4329W        W76644  28.850  42.011  10.575
 4330W        W76645  27.872  32.876   2.760
 4331W        W76646  25.635  30.802  12.089
 4332W        W76647   1.683  24.230  11.170
 4333W        W76648  37.871  44.956   3.213
 4334W        W76649   5.453  26.506  14.511
 4335W        W76650  18.301  15.995   2.367
 4336W        W76651  44.275  23.260  12.509
 4337W        W76652  29.354  41.108   2.252
 4338W        W76653  25.700  18.803  12.511
 4339W        W76654  32.647   6.126   2.141
 4340W        W76655  34.641  40.823  11.922
 4341W        W76656  39.109  44.007  14.287
 4342W        W76657  22.349   0.677   4.148
 4343W        W76658   6.369  33.400  14.807
 4344W        W76659  33.598   1.485  10.801
 4345W        W76660   0.301  11.346   2.217
 4346W        W76661  23.165  11.464  12.829
 4347W        W76662  26.376  26.520  11.438
 4348W        W76663   1.787  26.107   2.799
 4349W        W76664  37.912  11.368  14.537
 4350W        W76665  10.192  11.543  13.954
 4351W        W76666  32.649  31.462  14.800
 4352W        W76667  34.420  44.842   3.083
 4353W        W76668  38.479  38.421   1.260
 4354W        W76669  41.402  16.266   4.433
 4355W        W76670  39.324   0.288  11.663
 4356W        W76671  31.618  27.945  14.009
 4357W        W76672  15.291  42.471  13.995
 4358W        W76673  14.368   2.514  13.993
 4359W        W76674  33.954  27.607   2.875
 4360W        W76675   1.612  35.798  13.050
 4361W        W76676  34.403  35.899   2.729
 4362W        W76677   6.778   6.224  12.836
 4363W        W76678  15.701  38.727  11.241
 4364W        W76679  24.996  30.075  12.443
 4365W        W76680  26.463  43.993   2.415
 4366W        W76681  32.094  25.525   4.710
 4367W        W76682  29.506  39.239  11.084
 4368W        W76683  31.164   0.403  14.460
 4369W        W76684  19.053   8.164   0.209
 4370W        W76685   3.464  31.715  12.452
 4371W        W76686  22.123  21.678  13.169
 4372W        W76687  42.799   2.157   3.628
 4373W        W76688  18.019   9.453   1.094
 4374W        W76689   5.810  33.065  10.706
 4375W        W76690   6.281   0.442   3.219
 4376W        W76691  19.387  17.555  12.678
 4377W        W76692   8.186   8.518   2.118
 4378W        W76693   7.305   5.176   2.341
 4379W        W76694  13.573  12.194  12.715
 4380W        W76695   6.684  19.563   3.350
 4381W        W76696  41.925  43.990   2.348
 4382W        W76697  17.750  10.319   3.145
 4383W        W76698  11.005   5.811  14.205
 4384W        W76699   2.019  34.838  10.206
 4385W        W76700  23.684  42.732  11.053
 4386W        W76701  35.541  41.955   2.382
 4387W        W76702  14.192  16.849  14.466
 4388W        W76703   6.293  26.421   4.382
 4389W        W76704  24.413  42.394  12.654
 4390W        W76705  34.012  14.327   1.388
 4391W        W76706   8.440  25.212   2.694
 4392W        W76707  10.674  40.355  14.323
 4393W        W76708  44.964  13.241   0.034
 4394W        W76709  16.848   6.746   2.809
 4395W        W76710  38.446   7.273   2.960
 4396W        W76711  36.810  12.112  14.344
 4397W        W76712  13.177  39.496  14.554
 4398W        W76713   4.699  29.197  11.172
 4399W        W76714   9.490  15.893   3.686
 4400W        W76715   7.947  31.688   4.164
 4401W        W76716  24.094  30.479  14.340
 4402W        W76717  19.464  30.688  10.900
 4403W        W76718  17.181  15.738   2.326
 4404W        W76719  26.092  37.497   4.389
 4405W        W76720  29.447  14.616   0.575
 4406W        W76721  36.167  18.643   1.363
 4407W        W76722  26.931  31.878   1.879
 4408W        W76723  22.693  33.773  13.738
 4409W        W76724  31.384   6.389  12.628
 4410W        W76725  16.305  42.435  14.323
 4411W        W76726   1.486  23.665   3.479
 4412W        W76727  29.998  36.016   3.753
 4413W        W76728   6.228  26.215  13.896
 4414W        W76729  10.823  34.697   0.829
 4415W        W76730  42.023   2.826   0.615
 4416W        W76731  14.131  33.615   4.189
 4417W        W76732  27.283  23.465   4.432
 4418W        W76733  31.088  42.064   4.787
 4419W        W76734  25.235  10.175  10.060
 4420W        W76735  18.268  22.606   3.990
 4421W        W76736  41.434   8.066  12.495
 4422W        W76737  41.078  43.336   1.631
 4423W        W76738  41.337   2.409   2.142
 4424W        W76739  25.646  39.594  12.830
 4425W        W76740   3.206  25.183  10.975
 4426W        W76741  20.614  42.867  13.405
 4427W        W76742   6.618   0.196  11.443
 4428W        W76743  18.615  44.864   1.271
 4429W        W76744  22.555  29.914   1.807
 4430W        W76745  24.252  27.119  13.077
 4431W        W76746  14.105  32.119  13.962
 4432W        W76747   1.562  42.586  12.218
 4433W        W76748  35.450  14.501   1.615
 4434W        W76749  33.063   1.191   2.273
 4435W        W76750  29.247  34.371   2.826
 4436W        W76751  41.775  41.490  12.614
 4437W        W76752  24.998   7.945  12.378
 4438W        W76753  29.216  33.612   4.568
 4439W        W76754  37.854  38.533  12.980
 4440W        W76755  41.476  31.452  11.945
 4441W        W76756  30.479  32.908   0.513
 4442W        W76757  29.459  10.950  13.769
 4443W        W76758  14.818  33.753  14.417
 4444W        W76759  33.041  24.548  10.538
 4445W        W76760  21.346  36.846   2.461
 4446W        W76761  32.427   3.905  11.248
 4447W        W76762  14.610  25.572  11.917
 4448W        W76763  34.598  42.339  12.004
 4449W        W76764  29.244  23.609   1.877
 4450W        W76765  38.975   7.963  13.857
 4451W        W76766  10.606  12.689   0.367
 4452W        W76767  32.706  13.200  12.026
 4453W        W76768  27.735  12.919  10.755
 4454W        W76769  25.655  42.545   3.658
 4455W        W76770  30.339  14.182  10.759
 4456W        W76771  40.837   5.328   1.218
 4457W        W76772  12.722  42.028  14.214
 4458W        W76773  41.916  43.118  13.839
 4459W        W76774  26.973  23.482  10.650
 4460W        W76775  17.347  15.298  11.514
 4461W        W76776   2.152   1.385  10.725
 4462W        W76777  21.773  10.684  14.212
 4463W        W76778  35.114  17.728   2.275
 4464W        W76779  16.830  41.138   2.205
 4465W        W76780   8.871  40.284   2.734
 4466W        W76781  34.003   7.223   4.822
 4467W        W76782  41.816   8.603   4.149
 4468W        W76783   7.656  38.381   4.570
 4469W        W76784  29.589  28.334  12.440
 4470W        W76785  12.206  37.035   1.832
 4471W        W76786  41.425  37.969  12.806
 4472W        W76787   1.244  34.225   9.783
 4473W        W76788  13.537  16.089   2.168
 4474W        W76789  39.252  23.206   4.101
 4475W        W76790  42.443  28.607   4.606
 4476W        W76791  27.268  31.437  10.334
 4477W        W76792  24.564  30.562  11.585
 4478W        W76793  42.434  39.812   2.764
 4479W        W76794  30.079  35.552   1.183
 4480W        W76795   8.622  28.589   4.184
 4481W        W76796   2.914  17.535   3.380
 4482W        W76797  14.172   9.653  11.399
 4483W        W76798  29.858  14.544  13.384
 4484W        W76799  15.263  11.171  14.582
 4485W        W76800  23.042  39.367   3.778
 4486W        W76801  35.286  30.594   2.783
 4487W        W76802  29.606  13.582   1.519
 4488W        W76803  29.394  42.998  13.752
 4489W        W76804   6.789   9.711  14.873
 4490W        W76805  36.404  30.594   1.773
 4491W        W76806  26.568  15.179   1.723
 4492W        W76807  29.697  39.012   3.716
 4493W        W76808  37.082  31.434  14.352
 4494W        W76809  13.626  27.030  13.494
 4495W        W76810  19.577  29.478   1.257
 4496W        W76811  13.614  25.913  13.518
 4497W        W76812   1.006  17.389  14.495
 4498W        W76813  41.481  35.855   4.385
 4499W        W76814  37.066  42.458   0.365
 4500W        W76815  26.029  30.820  13.697
 4501W        W76816  32.409   3.909  10.731
 4502W        W76817   2.617   5.907   9.978
 4503W        W76818  36.813  35.006  12.435
 4504W        W76819   1.174   1.937   2.894
 4505W        W76820  35.859   0.006   4.154
 4506W        W76821   2.743   1.307  14.372
 4507W        W76822  39.363   3.706   0.208
 4508W        W76823  33.989   2.756  11.508
 4509W        W76824   7.329  28.255   4.773
 4510W        W76825  20.091  12.874  14.745
 4511W        W76826  30.681  26.055   1.991
 4512W        W76827  21.597  39.356   2.077
 4513W        W76828  43.498  33.540   1.949
 4514W        W76829  36.920  17.356  11.048
 4515W        W76830  27.372  19.176  13.995
 4516W        W76831   8.823  24.029   3.604
 4517W        W76832  21.743  44.593   0.294
 4518W        W76833  18.655  21.029   3.788
 4519W        W76834  42.678   9.932  13.102
 4520W        W76835  12.754  37.866   1.957
 4521W        W76836  15.404  19.074   2.053
 4522W        W76837   3.118  28.743  11.984
 4523W        W76838  20.171  32.873   0.426
 4524W        W76839  36.676  15.615   2.354
 4525W        W76840   1.468  29.554  12.025
 4526W        W76841  32.038  38.515   1.209
 4527W        W76842  10.045  18.770   0.325
 4528W        W76843  41.003  15.186  14.916
 4529W        W76844   7.302  17.770   4.906
 4530W        W76845  26.336   4.850   0.707
 4531W        W76846  14.139   2.163  13.656
 4532W        W76847  29.528  23.181  14.044
 4533W        W76848  18.451  38.366  14.739
 4534W        W76849  34.303  41.928  11.966
 4535W        W76850  36.756  10.375   2.155
 4536W        W76851  42.976   9.778  13.497
 4537W        W76852  19.974  26.595  13.403
 4538W        W76853  23.617   1.447   1.510
 4539W        W76854  12.920  35.493   0.385
 4540W        W76855   9.281  33.471   2.904
 4541W        W76856  18.112  15.197   3.646
 4542W        W76857  36.654  36.767  13.730
 4543W        W76858  29.879  37.499  11.628
 4544W        W76859  41.374  19.432   3.132
 4545W        W76860   0.501  35.018   4.819
 4546W        W76861  14.017  22.811   4.557
 4547W        W76862  44.376  25.234   4.032
 4548W        W76863  40.267  20.571   4.242
 4549W        W76864  17.709  14.519   2.605
 4550W        W76865  35.379  18.586   3.199
 4551W        W76866  29.676  23.982  14.940
 4552W        W76867  29.964  12.742   1.379
 4553W        W76868  44.312  17.881  14.518
 4554W        W76869  42.878  35.359   2.873
 4555W        W76870  35.438  35.544   3.777
 4556W        W76871  13.564   7.263  11.603
 4557W        W76872  18.072  39.550  14.075
 4558W        W76873   9.908   1.363  14.093
 4559W        W76874  42.150  29.135   4.538
 4560W        W76875  27.595  29.528   2.306
 4561W        W76876  16.127  37.392  14.530
 4562W        W76877  24.992  16.260   3.594
 4563W        W76878  27.708  27.145  14.516
 4564W        W76879  30.536  38.622  11.069
 4565W        W76880  44.649  28.367   3.203
 4566W        W76881  16.611  40.877  11.646
 4567W        W76882   5.220  16.028   1.719
 4568W        W76883   1.357  34.907  14.207
 4569W        W76884  14.770  24.449   4.871
 4570W        W76885  41.551  31.667   1.392
 4571W        W76886  19.500  28.633   4.566
 4572W        W76887  14.099  33.031  12.970
 4573W        W76888  24.479  30.006  12.475
 4574W        W76889  10.109  22.017  14.416
 4575W        W76890   9.272  43.290   4.556
 4576W        W76891   4.697  20.929   2.268
 4577W        W76892  41.010  43.259  14.736
 4578W        W76893  23.688  36.008  11.596
 4579W        W76894  35.503  25.490  12.686
 4580W        W76895  11.893  24.946  13.110
 4581W        W76896  42.008   5.414  11.604
 4582W        W76897   1.292  17.542   2.731
 4583W        W76898  13.673  24.321  11.254
 4584W        W76899  26.765  28.163  11.441
 4585W        W76900  12.305  26.392  13.762
 4586W        W76901   7.157  29.466  11.052
 4587W        W76902   4.505  28.348  12.104
 4588W        W76903  22.677   9.337  13.849
 4589W        W76904  33.887   1.236   4.144
 4590W        W76905  19.926  33.996  12.135
 4591W        W76906   1.194  34.853  13.733
 4592W        W76907  23.587   0.711  14.258
 4593W        W76908  20.178  43.983   0.355
 4594W        W76909   8.630   7.001   1.791
 4595W        W76910   3.886  43.850   1.306
 4596W        W76911  42.895  18.512   3.730
 4597W        W76912  36.077  29.941   1.184
 4598W        W76913   3.080  22.512   3.527
 4599W        W76914  15.166  38.446   5.006
 4600W        W76915   2.476   0.364   4.152
 4601W        W76916  35.260  14.871   1.953
 4602W        W76917  42.518  26.135   3.546
 4603W        W76918  27.601  29.463  12.620
 4604W        W76919   8.794   0.738  13.496
 4605W        W76920  22.712   6.350   2.057
 4606W        W76921  15.128  34.011  12.967
 4607W        W76922  13.793  18.417   5.028
 4608W        W76923  44.285   1.787   3.080
 4609W        W76924  19.382  14.019   4.203
 4610W        W76925  22.451  29.199  14.292
 4611W        W76926  33.559  24.164  13.757
 4612W        W76927  36.112  26.774   4.130
 4613W        W76928  15.868  44.762   0.441
 4614W        W76929  34.358   0.858  14.836
 4615W        W76930  44.939  34.585  13.794
 4616W        W76931  18.299   7.923  13.519
 4617W        W76932  44.362  40.546  11.471
 4618W        W76933  27.588  26.414   2.160
 4619W        W76934   8.474  12.010   1.180
 4620W        W76935  44.455  25.495   4.932
 4621W        W76936  40.923  18.537   1.710
 4622W        W76937  31.711  34.940   2.781
 4623W        W76938  28.127  32.394   3.621
 4624W        W76939  14.818  10.700   0.382
 4625W        W76940  42.296  32.024  11.085
 4626W        W76941  19.567  29.836   4.724
 4627W        W76942  11.168  29.907   4.552
 4628W        W76943  36.893  36.945   2.876
 4629W        W76944  16.715  16.325   0.261
 4630W        W76945  41.463  43.093   1.900
 4631W        W76946  33.952  14.107  10.753
 4632W        W76947  27.922  17.977   4.198
 4633W        W76948  24.928  21.977  10.691
 4634W        W76949  44.607  35.622  12.061
 4635W        W76950  30.915   8.959   0.232
 4636W        W76951  30.627   0.801  10.797
 4637W        W76952  39.543  27.633  14.413
 4638W        W76953  35.957  14.104  12.936
 4639W        W76954  28.251   8.720   4.574
 4640W        W76955  31.911  29.959   1.293
 4641W        W76956  39.039  19.044   2.249
 4642W        W76957  29.727  11.373  12.390
 4643W        W76958  32.109   7.861   4.487
 4644W        W76959  15.122  26.248  10.364
 4645W        W76960  34.126  32.321  10.744
 4646W        W76961  37.429  44.878  12.581
 4647W        W76962  14.256  22.224   3.973
 4648W        W76963  12.310  25.432   1.669
 4649W        W76964   2.735  31.459   1.264
 4650W        W76965  31.457  31.178  11.459
 4651W        W76966   4.822   0.960  10.618
 4652W        W76967  40.181  27.596   3.341
 4653W        W76968  10.891  28.658   1.458
 4654W        W76969   8.692  18.454   0.749
 4655W        W76970   6.334  29.441  14.992
 4656W        W76971  41.223  23.052   2.358
 4657W        W76972  16.666  39.175   9.990
 4658W        W76973  18.130  31.278  10.108
 4659W        W76974  32.848  18.544   3.222
 4660W        W76975  31.427  30.141   3.662
 4661W        W76976  39.841  33.023   3.609
 4662W        W76977  25.504  27.168   2.884
 4663W        W76978  26.627  20.647   0.878
 4664W        W76979  23.014  32.044  13.461
 4665W        W76980  16.697  27.139  10.842
 4666W        W76981  21.584  37.818  10.490
 4667W        W76982  14.154  35.191  13.113
 4668W        W76983  20.623  43.806  14.250
 4669W        W76984  24.284  40.414   3.960
 4670W        W76985   8.386  30.834  11.118
 4671W        W76986  11.756   7.210  13.592
 4672W        W76987  39.573  22.689  12.150
 4673W        W76988   5.213  17.110  12.048
 4674W        W76989   9.235   9.942   2.721
 4675W        W76990  44.885   5.699   1.250
 4676W        W76991  23.672  23.821   1.384
 4677W        W76992  26.358  23.729   2.946
 4678W        W76993  10.633  37.802  13.470
 4679W        W76994  31.936  36.402   1.866
 4680W        W76995  29.143   9.937  12.928
 4681W        W76996  17.569   4.371  11.095
 4682W        W76997  36.597  38.461   3.903
 4683W        W76998  37.766  37.876   1.250
 4684W        W76999  22.498  37.137  14.218
 4685W        W77000   9.936  28.933  11.090
 4686W        W77001   3.363  34.055   2.809
 4687W        W77002   1.906  37.984   0.515
 4688W        W77003  23.939   8.828  12.475
 4689W        W77004  24.300  32.012  10.612
 4690W        W77005  41.097   3.977   4.286
 4691W        W77006  13.704  28.615  12.184
 4692W        W77007   0.260  44.948  13.157
 4693W        W77008   4.015  36.829   4.578
 4694W        W77009  29.245   3.510  14.406
 4695W        W77010  43.137  35.021   4.826
 4696W        W77011  22.583  32.306  12.480
 4697W        W77012  43.220  40.987  12.640
 4698W        W77013   7.577  43.372   0.612
 4699W        W77014  26.603  28.546   0.527
 4700W        W77015  26.382  20.963   0.539
 4701W        W77016  36.849  36.539   0.778
 4702W        W77017  31.854  32.817  12.569
 4703W        W77018   7.742  10.749  10.879
 4704W        W77019  40.368   1.491  11.101
 4705W        W77020  42.909  11.817   3.142
 4706W        W77021  10.819  20.879   3.838
 4707W        W77022  41.015   1.339   2.840
 4708W        W77023  38.894  37.794   1.357
 4709W        W77024  27.690   7.880  14.063
 4710W        W77025   1.873   0.192  13.355
 4711W        W77026  21.308  15.134  11.612
 4712W        W77027  20.984  37.708   2.335
 4713W        W77028   9.503   1.512   4.919
 4714W        W77029  30.831  22.061   2.263
 4715W        W77030  11.265   9.729  13.795
 4716W        W77031  13.212  19.238   4.046
 4717W        W77032   5.084   6.970   4.162
 4718W        W77033  25.767  43.551   3.036
 4719W        W77034  24.724   7.270   4.605
 4720W        W77035  16.761  31.225   0.231
 4721W        W77036  22.547   6.352  12.963
 4722W        W77037   2.287  21.369   0.612
 4723W        W77038  40.129  21.484   1.651
 4724W        W77039  40.148  43.616   4.199
 4725W        W77040   5.049  27.734  13.012
 4726W        W77041  41.890  44.381  11.104
 4727W        W77042  23.529  16.116  13.489
 4728W        W77043  11.817  40.153   0.905
 4729W        W77044   5.215  44.625   1.772
 4730W        W77045   4.951  13.734   3.290
 4731W        W77046  19.043   4.705  12.340
 4732W        W77047  15.534  37.826  11.548
 4733W        W77048  30.092  22.286   0.398
 4734W        W77049  30.214  11.796  10.774
 4735W        W77050   7.425  43.855   0.821
 4736W        W77051   2.500  10.450  12.530
 4737W        W77052  11.565  30.464  11.441
 4738W        W77053  32.945   3.441   2.728
 4739W        W77054  21.188  26.851   2.291
 4740W        W77055   4.911  33.080  10.819
 4741W        W77056  34.481  20.663   4.920
 4742W        W77057  24.550  17.483   3.038
 4743W        W77058   5.684  44.915  13.291
 4744W        W77059  27.456  18.897   1.119
 4745W        W77060  31.766  30.150   4.994
 4746W        W77061  16.649   0.241   3.801
 4747W        W77062  12.697  30.082   1.031
 4748W        W77063  16.263  24.150  14.630
 4749W        W77064  11.619  30.126  13.569
 4750W        W77065   8.311   7.647  11.509
 4751W        W77066  39.531  35.094  10.354
 4752W        W77067  36.287  38.753   0.916
 4753W        W77068  37.576  23.052  14.078
 4754W        W77069  22.632   4.455   2.684
 4755W        W77070   1.679   8.468   2.322
 4756W        W77071  29.532   1.237   4.488
 4757W        W77072  21.088  22.588   3.447
 4758W        W77073   3.880  18.812   2.695
 4759W        W77074  44.430  20.439  12.055
 4760W        W77075  28.898  38.483  13.948
 4761W        W77076  41.729   4.581  11.645
 4762W        W77077  20.272  31.621   3.635
 4763W        W77078  44.228   1.821   3.609
 4764W        W77079   8.466  32.966   3.735
 4765W        W77080  14.161  28.895   2.232
 4766W        W77081   2.926  39.450  14.254
 4767W        W77082  19.593  23.280  13.513
 4768W        W77083   1.252  18.355   0.343
 4769W        W77084  41.077  34.036   2.822
 4770W        W77085  34.632  38.955   4.677
 4771W        W77086  30.453  33.512  10.682
 4772W        W77087  37.520  33.657  13.978
 4773W        W77088   1.858  12.319  10.521
 4774W        W77089  32.748  21.605   0.880
 4775W        W77090  24.441  14.173   5.054
 4776W        W77091  44.946  36.301  14.732
 4777W        W77092  38.988  25.756   4.976
 4778W        W77093  15.441  35.941  14.458
 4779W        W77094  38.628  18.808   3.410
 4780W        W77095  16.693   7.154  11.684
 4781W        W77096  14.074  33.990   1.066
 4782W        W77097   0.205  29.412  13.503
 4783W        W77098  39.387  39.045  11.562
 4784W        W77099  25.013  43.461  14.334
 4785W        W77100  22.489  39.307  11.443
 4786W        W77101  35.677   4.580  12.475
 4787W        W77102  18.819  36.825  14.462
 4788W        W77103  20.302  30.784  14.411
 4789W        W77104  42.114  28.557  13.994
 4790W        W77105   7.576  30.559   2.010
 4791W        W77106  12.040  42.236  11.657
 4792W        W77107  22.204  44.997   1.866
 4793W        W77108  28.922  26.567   0.771
 4794W        W77109  12.687  24.553  14.422
 4795W        W77110  26.523  37.334  13.475
 4796W        W77111  33.377  21.241  13.309
 4797W        W77112  30.235   3.249   0.333
 4798W        W77113   6.738  18.517   1.466
 4799W        W77114  22.491  18.234  10.563
 4800W        W77115  29.945  17.047  12.061
 4801W        W77116  44.932  32.443   4.612
 4802W        W77117  13.390  10.770   0.397
 4803W        W77118   5.464  30.440  11.135
 4804W        W77119  28.212  29.492   3.951
 4805W        W77120   9.195  10.210   1.492
 4806W        W77121  11.646   8.391  13.047
 4807W        W77122  41.803  44.788   0.929
 4808W        W77123  24.535   0.909   4.049
 4809W        W77124   9.302  42.090   3.582
 4810W        W77125  44.161  28.880  14.445
 4811W        W77126  19.136  11.838  11.941
 4812W        W77127   4.480   8.357   2.665
 4813W        W77128  25.374  15.805  14.806
 4814W        W77129  20.865  32.579  10.670
 4815W        W77130  24.110  27.736  12.491
 4816W        W77131   0.548   1.778   3.703
 4817W        W77132  42.407  15.212  11.254
 4818W        W77133  16.434  23.198  12.319
 4819W        W77134  34.042   4.634  14.055
 4820W        W77135  41.556  44.973  13.511
 4821W        W77136  24.759  35.610  13.369
 4822W        W77137   4.464  29.135   1.199
 4823W        W77138  10.478  29.979   2.758
 4824W        W77139  28.484  41.550   2.370
 4825W        W77140  26.384  20.789   3.707
 4826W        W77141  43.811  40.336   0.803
 4827W        W77142  26.440  22.645  11.458
 4828W        W77143   1.855  41.277  14.437
 4829W        W77144   6.847  41.956   0.648
 4830W        W77145  20.036  23.601  11.854
 4831W        W77146  26.940  18.582  11.677
 4832W        W77147  42.090  31.539   0.491
 4833W        W77148  21.853   2.723  14.460
 4834W        W77149  38.505  31.178  10.702
 4835W        W77150   0.005   9.188   5.450
 4836W        W77151  17.278  27.108   0.763
 4837W        W77152  36.024  12.529  14.141
 4838W        W77153   8.917  37.437   4.135
 4839W        W77154   3.902   6.977   0.351
 4840W        W77155  38.479  22.226  10.503
 4841W        W77156  12.739  26.050   2.672
 4842W        W77157  19.014  28.561  13.049
 4843W        W77158  37.813  31.599   0.365
 4844W        W77159  28.076  35.507   2.251
 4845W        W77160  36.865   3.168  12.638
 4846W        W77161   4.443  34.398  14.352
 4847W        W77162  17.633  31.838  10.089
 4848W        W77163   5.935  19.581   0.856
 4849W        W77164   8.147  16.870  11.052
 4850W        W77165   1.738  15.364  12.398
 4851W        W77166  13.868  11.312  11.979
 4852W        W77167  37.386  43.143   3.021
 4853W        W77168  21.323   5.455  13.466
 4854W        W77169  23.494  18.200   1.312
 4855W        W77170  20.666  37.354  14.368
 4856W        W77171  24.167  33.449  10.824
 4857W        W77172  22.157  24.930  10.438
 4858W        W77173   6.921  18.970  11.501
 4859W        W77174   4.014  19.339  14.515
 4860W        W77175  22.956  21.657   1.154
 4861W        W77176  19.349  18.165  11.584
 4862W        W77177  33.985  37.367  14.110
 4863W        W77178  35.694  22.758  11.497
 4864W        W77179  21.316   0.365  14.827
 4865W        W77180   5.183  28.973   0.224
 4866W        W77181  43.209   1.186   5.048
 4867W        W77182  27.038  25.089  13.828
 4868W        W77183  40.866  42.217   0.186
 4869W        W77184  17.718  13.332   3.681
 4870W        W77185  17.692  26.130   1.613
 4871W        W77186  10.028  35.701  10.910
 4872W        W77187  21.052  34.073   4.151
 4873W        W77188  15.541  17.064   1.752
 4874W        W77189   8.426  31.013   3.868
 4875W        W77190  18.360  32.386   2.265
 4876W        W77191  18.179  31.378   0.411
 4877W        W77192  10.838  33.653   3.816
 4878W        W77193  20.499  13.177   4.720
 4879W        W77194  40.756   0.309   3.101
 4880W        W77195   1.201  25.589  13.370
 4881W        W77196  42.965  23.552   3.809
 4882W        W77197   0.965  34.805  11.517
 4883W        W77198   8.427  23.466  11.022
 4884W        W77199  21.276  11.616  13.006
 4885W        W77200  27.348   7.575   4.720
 4886W        W77201  36.351  35.142   0.843
 4887W        W77202  35.396  44.274  11.126
 4888W        W77203   8.239  19.514  10.398
 4889W        W77204  41.320  18.785   4.151
 4890W        W77205  32.920   6.511  11.774
 4891W        W77206  41.958  34.270  14.498
 4892W        W77207   2.745  18.253   2.692
 4893W        W77208  17.679  22.789  13.838
 4894W        W77209  12.160   4.740   1.487
 4895W        W77210  16.871  30.902   5.537
 4896W        W77211  41.267   2.146   2.833
 4897W        W77212  28.336  31.750  12.466
 4898W        W77213   3.194  43.541   0.372
 4899W        W77214   0.394  29.963   2.587
 4900W        W77215  30.504  11.623   4.523
 4901W        W77216  28.726  40.936   0.323
 4902W        W77217  10.084  13.249  14.934
 4903W        W77218  39.686  27.094   1.392
 4904W        W77219   9.369  21.686  11.406
 4905W        W77220  23.197   0.099  13.506
 4906W        W77221  16.207  30.993   0.889
 4907W        W77222  10.913  28.166  13.873
 4908W        W77223  42.512   2.012   3.176
 4909W        W77224  24.665  41.548   0.347
 4910W        W77225  34.481   4.527  12.804
 4911W        W77226  20.703   7.103  11.161
 4912W        W77227  26.331   5.980   1.229
 4913W        W77228  38.030  18.076   3.551
 4914W        W77229  26.698  40.093   3.208
 4915W        W77230  23.782  44.975   1.989
 4916W        W77231  34.922  29.189  13.134
 4917W        W77232   5.616   5.264  11.924
 4918W        W77233   0.327  39.880   3.847
 4919W        W77234  11.685  24.669   0.477
 4920W        W77235  12.662   3.031  14.980
 4921W        W77236  21.094  11.597  11.865
 4922W        W77237   6.879   4.261  13.012
 4923W        W77238  29.844  22.716   4.464
 4924W        W77239  41.943   3.380   2.882
 4925W        W77240  39.415  12.129   0.850
 4926W        W77241  15.219  28.743   2.165
 4927W        W77242  40.118   5.294   3.247
 4928W        W77243  15.744  13.590   1.221
 4929W        W77244  38.422  32.510   0.463
 4930W        W77245   2.965   2.615  11.020
 4931W        W77246  44.412   9.784   4.064
 4932W        W77247  35.382  13.544   1.636
 4933W        W77248  34.504  39.204   3.615
 4934W        W77249  11.207  43.268   2.202
 4935W        W77250  30.447  30.088   3.364
 4936W        W77251  29.101  13.892  13.177
 4937W        W77252   0.911  44.732  11.002
 4938W        W77253  16.850  30.875   1.721
 4939W        W77254  32.953  23.665  10.700
 4940W        W77255  34.118  16.040  14.482
 4941W        W77256  18.671  44.229  12.887
 4942W        W77257  32.977  11.917  13.008
 4943W        W77258  40.869  10.246   1.591
 4944W        W77259   6.272  11.068  14.468
 4945W        W77260  31.618  11.303   0.366
 4946W        W77261  20.111  26.593  12.890
 4947W        W77262  35.337  35.893  10.786
 4948W        W77263  22.756   0.536  10.773
 4949W        W77264   1.972  30.090   3.694
 4950W        W77265  23.676  39.506   1.942
 4951W        W77266  22.713  24.104   4.128
 4952W        W77267  43.528  28.547  11.077
 4953W        W77268   6.310   4.723  10.641
 4954W        W77269  34.527   4.902   4.165
 4955W        W77270  11.789  37.981   1.937
 4956W        W77271  19.981  20.032  13.073
 4957W        W77272  33.006  41.489   0.281
 4958W        W77273  38.594  14.608   0.283
 4959W        W77274  30.568  21.162  12.468
 4960W        W77275  43.873  26.654  12.988
 4961W        W77276   4.078  38.844  14.204
 4962W        W77277   1.891  36.275   1.265
 4963W        W77278  22.898  10.342  11.812
 4964W        W77279  42.685  34.073   0.376
 4965W        W77280  34.261  13.716  14.277
 4966W        W77281  39.004  24.209  11.668
 4967W        W77282  42.619  28.623   2.301
 4968W        W77283  37.572  26.972  13.864
 4969W        W77284   5.804   3.109   2.647
 4970W        W77285  28.727  20.129  11.023
 4971W        W77286   6.590  28.617  11.152
 4972W        W77287   1.288  43.996  10.983
 4973W        W77288  15.026  24.136  11.153
 4974W        W77289  30.830  31.020  10.644
 4975W        W77290   3.996  22.204   4.522
 4976W        W77291  38.552  39.784   2.768
 4977W        W77292  37.150  38.472  14.943
 4978W        W77293  43.895  36.507  10.519
 4979W        W77294  24.539  31.661  13.287
 4980W        W77295   1.795   8.150   4.072
 4981W        W77296  28.544   6.832   0.984
 4982W        W77297   9.931  33.013   0.698
 4983W        W77298  41.405   2.294   3.315
 4984W        W77299  14.173   2.241  11.436
 4985W        W77300  42.830  30.470  13.881
 4986W        W77301   7.870  23.417  11.625
 4987W        W77302  25.070   2.664  11.644
 4988W        W77303  39.941   9.942   3.122
 4989W        W77304   2.476  36.248  11.149
 4990W        W77305  26.593  28.902  11.919
 4991W        W77306  14.388  19.190   4.131
 4992W        W77307  41.900  15.132   3.645
 4993W        W77308  32.272  21.600   0.673
 4994W        W77309  10.067   5.734  12.548
 4995W        W77310   3.758  36.922   4.128
 4996W        W77311  32.506  25.744  13.738
 4997W        W77312  40.074  36.827  10.456
 4998W        W77313  36.416  23.454   3.377
 4999W        W77314   0.728  34.445   3.646
 5000W        W77315  31.133   7.109   1.771
 5001W        W77316  25.978  29.960   0.303
 5002W        W77317  20.446  12.804  14.266
 5003W        W77318  15.141  21.621   1.181
 5004W        W77319  25.511  32.919   0.978
 5005W        W77320  10.213  32.919   3.710
 5006W        W77321   9.130   7.829   2.763
 5007W        W77322  14.465  30.064   0.517
 5008W        W77323  39.128   5.516   2.282
 5009W        W77324   9.971  37.788   1.420
 5010W        W77325  32.295  21.238  11.644
 5011W        W77326   9.771  25.988   4.584
 5012W        W77327  44.044   7.561   4.100
 5013W        W77328  42.322   2.227  14.821
 5014W        W77329   6.705  36.824   0.760
 5015W        W77330  39.269  41.335  13.505
 5016W        W77331  33.608   0.775   1.691
 5017W        W77332  16.192   7.786  13.563
 5018W        W77333  20.452   7.678  12.901
 5019W        W77334   3.024   8.819  11.644
 5020W        W77335  38.400  10.917  14.818
 5021W        W77336  13.111  30.432  10.688
 5022W        W77337   3.377   0.272   4.352
 5023W        W77338  44.380  24.255  12.823
 5024W        W77339  11.803  22.000  14.949
 5025W        W77340  27.411  33.324   4.112
 5026W        W77341  38.896  21.248   1.907
 5027W        W77342  17.119  16.529   0.508
 5028W        W77343  15.630  44.902   1.747
 5029W        W77344  41.227  39.722  12.435
 5030W        W77345  31.155  14.563  13.986
 5031W        W77346  35.230  44.816  14.728
 5032W        W77347  29.638  10.447   1.226
 5033W        W77348  34.398  20.679  13.369
 5034W        W77349  14.450  22.172  11.550
 5035W        W77350  21.234  44.930  13.001
 5036W        W77351  23.781   6.228  12.492
 5037W        W77352  24.270   6.620  10.674
 5038W        W77353  34.403  10.906   4.139
 5039W        W77354  14.225  12.338   2.610
 5040W        W77355   5.509   3.696  14.475
 5041W        W77356  22.533  27.196  13.180
 5042W        W77357  41.979   0.270  13.584
 5043W        W77358  42.848   4.212   3.801
 5044W        W77359  18.974  43.699  13.916
 5045W        W77360  35.342  43.716   4.199
 5046W        W77361  15.734  18.305  10.719
 5047W        W77362  28.121  40.932  13.068
 5048W        W77363   3.807  31.524   3.167
 5049W        W77364  40.898  41.385   3.811
 5050W        W77365  12.597  18.530   3.954
 5051W        W77366  16.934  17.221  13.893
 5052W        W77367  37.110  16.726   1.236
 5053W        W77368  28.811  19.497   2.166
 5054W        W77369  29.229   7.310  11.838
 5055W        W77370  23.464  24.555   2.279
 5056W        W77371  32.494  28.478  10.282
 5057W        W77372   3.630  26.970   3.577
 5058W        W77373   1.280   5.165  12.612
 5059W        W77374  34.658  35.864  12.498
 5060W        W77375  16.655   6.062   3.788
 5061W        W77376  25.628  25.408  11.352
 5062W        W77377  18.932  19.160  10.720
 5063W        W77378  26.069   1.635   4.429
 5064W        W77379  12.328  11.299  10.464
 5065W        W77380   1.861  36.813   0.355
 5066W        W77381  24.279  14.225   3.079
 5067W        W77382  10.277  37.852  12.923
 5068W        W77383   8.354  17.746   3.937
 5069W        W77384  23.229   4.483  14.130
 5070W        W77385  24.619   6.668  12.450
 5071W        W77386  10.495   8.392   3.566
 5072W        W77387  42.089  35.512   1.306
 5073W        W77388  43.386  15.801   0.334
 5074W        W77389  44.954  26.594   1.224
 5075W        W77390  34.987   4.979   4.406
 5076W        W77391   4.290  22.629   1.853
 5077W        W77392  14.641  10.096   2.792
 5078W        W77393  13.172  42.061   3.899
 5079W        W77394  20.547  12.241  10.396
 5080W        W77395  12.128  43.038   0.418
 5081W        W77396  33.745  43.393  14.914
 5082W        W77397  43.614  35.885   0.173
 5083W        W77398  14.427  39.564   2.271
 5084W        W77399  14.405  34.982  11.148
 5085W        W77400  43.203  37.386  14.397
 5086W        W77401  19.202  12.422   2.371
 5087W        W77402  38.368  30.650  11.048
 5088W        W77403  17.295  37.587   2.848
 5089W        W77404  10.357  21.265  12.364
 5090W        W77405  12.383  17.655   3.706
 5091W        W77406  30.966  11.931  14.013
 5092W        W77407   6.358  27.232   1.201
 5093W        W77408  20.719  12.586   1.207
 5094W        W77409  37.615  33.109  11.901
 5095W        W77410   1.878   1.284   4.730
 5096W        W77411  30.087  37.983  11.599
 5097W        W77412  30.232  42.344   2.440
 5098W        W77413  44.704  26.128   2.826
 5099W        W77414  10.103  24.684   3.856
 5100W        W77415  10.245   9.663  12.561
 5101W        W77416   8.803  11.120  11.606
 5102W        W77417   5.459  32.654   0.827
 5103W        W77418   4.481  26.995   3.804
 5104W        W77419  23.478  24.641   1.365
 5105W        W77420  40.101  39.161  13.932
 5106W        W77421  21.763  25.965  14.342
 5107W        W77422  12.489  22.558  11.671
 5108W        W77423  33.400  20.820   0.983
 5109W        W77424  12.847   9.409   3.654
 5110W        W77425  41.581  35.555   1.307
 5111W        W77426  40.101  10.114   2.663
 5112W        W77427  17.178  43.745   1.298
 5113W        W77428  33.976  38.135  13.513
 5114W        W77429  26.959  19.553  14.782
 5115W        W77430  32.020   6.847   1.388
 5116W        W77431  19.542  43.899  14.395
 5117W        W77432  16.304  43.465   2.548
 5118W        W77433  22.977  15.791   1.783
 5119W        W77434  14.973   4.254   0.468
 5120W        W77435  16.262  16.004  10.441
 5121W        W77436  33.577  26.244   1.606
 5122W        W77437  21.068  11.153  13.129
 5123W        W77438  24.608  38.279   0.019
 5124W        W77439  41.936  10.735  11.985
 5125W        W77440  10.360  30.670   5.056
 5126W        W77441  18.627  42.891  11.935
 5127W        W77442  12.539  19.682   3.386
 5128W        W77443  27.411  43.719  14.394
 5129W        W77444   0.817  34.441   2.626
 5130W        W77445  19.275  10.880   2.763
 5131W        W77446   9.117   4.778   1.956
 5132W        W77447  38.525  18.577  14.169
 5133W        W77448   6.918  43.301  12.767
 5134W        W77449  35.245  31.625   2.749
 5135W        W77450  21.924  25.069  14.294
 5136W        W77451  43.012  15.552   4.646
 5137W        W77452  40.075  14.162  11.496
 5138W        W77453  14.186   2.826  12.868
 5139W        W77454   4.727  12.851   5.069
 5140W        W77455  32.904  29.157  10.768
 5141W        W77456  12.013  39.970   0.352
 5142W        W77457  23.959  21.197  10.743
 5143W        W77458  11.154  29.636   1.059
 5144W        W77459  14.598  36.867   4.637
 5145W        W77460  35.438  34.892  10.661
 5146W        W77461  40.393  43.055   3.762
 5147W        W77462  33.886  13.258   4.669
 5148W        W77463  40.025   5.436   4.635
 5149W        W77464   0.440  33.505   1.956
 5150W        W77465  35.296  11.326   2.256
 5151W        W77466  21.992  22.464   3.707
 5152W        W77467  21.239  31.632  11.037
 5153W        W77468  24.459   6.692  10.159
 5154W        W77469   3.126  22.283  13.802
 5155W        W77470  32.389  12.358   4.875
 5156W        W77471  11.875  20.148   3.701
 5157W        W77472  41.442  39.505  12.867
 5158W        W77473   1.941  13.220   2.855
 5159W        W77474   1.528  11.590   2.162
 5160W        W77475  13.252  32.068  10.927
 5161W        W77476  11.935  20.306   4.595
 5162W        W77477  39.980   6.777  12.352
 5163W        W77478  32.809   7.710  11.352
 5164W        W77479  15.179  17.688   2.231
 5165W        W77480   3.722  33.554   9.649
 5166W        W77481  37.042   9.935   4.104
 5167W        W77482  26.689  33.115  14.000
 5168W        W77483   5.697  19.292   2.689
 5169W        W77484  44.269  39.693   2.884
 5170W        W77485  38.899   0.507   3.867
 5171W        W77486  25.070  37.615  11.912
 5172W        W77487  28.066  26.691   0.897
 5173W        W77488  34.904  39.891   3.153
 5174W        W77489  16.257  28.987  14.768
 5175W        W77490  29.504  35.352   2.391
 5176W        W77491   7.429   8.319   1.750
 5177W        W77492  21.175  16.232  12.541
 5178W        W77493   6.775  25.968  10.929
 5179W        W77494   9.236  28.013  13.013
 5180W        W77495  36.364  17.304   1.268
 5181W        W77496  31.408  36.444  14.498
 5182W        W77497  30.588  29.696  12.618
 5183W        W77498   1.304  20.474  11.071
 5184W        W77499   5.946  23.056  13.020
 5185W        W77500  10.404  18.558   5.059
 5186W        W77501  33.559  13.860   0.787
 5187W        W77502  30.417  20.116   4.598
 5188W        W77503  28.061  42.217  13.530
 5189W        W77504  14.033  13.860   3.454
 5190W        W77505  12.761   6.905   1.289
 5191W        W77506   4.156  41.888   4.183
 5192W        W77507  38.894  21.174   2.429
 5193W        W77508  31.584   5.407  10.893
 5194W        W77509  30.885  35.931  13.480
 5195W        W77510  13.723   7.728  10.707
 5196W        W77511  37.465  13.114  11.282
 5197W        W77512  30.463   2.216   2.184
 5198W        W77513   5.453  19.752   1.384
 5199W        W77514  31.009  35.075   0.998
 5200W        W77515  19.266  17.752  13.727
 5201W        W77516  37.500  41.577   0.055
 5202W        W77517  29.844  18.724  13.485
 5203W        W77518  44.948  38.478   3.241
 5204W        W77519   2.899  10.757   3.826
 5205W        W77520  38.849  12.010   0.710
 5206W        W77521  38.560  43.292  11.443
 5207W        W77522  23.255  24.142   1.365
 5208W        W77523  33.837  35.675   4.303
 5209W        W77524  13.630  15.616  11.093
 5210W        W77525  17.139  33.772   4.292
 5211W        W77526  34.055  34.098   4.406
 5212W        W77527  36.055  23.668  13.751
 5213W        W77528  10.358  11.043   0.694
 5214W        W77529  27.019   5.978  10.210
 5215W        W77530  26.225  11.088   0.762
 5216W        W77531  38.873  17.684  11.875
 5217W        W77532   0.973  31.532  11.088
 5218W        W77533   1.227  36.428  11.995
 5219W        W77534  11.111  36.531   3.174
 5220W        W77535  17.324  17.100  10.001
 5221W        W77536  18.144   2.774   0.002
 5222W        W77537  20.431  34.101  12.175
 5223W        W77538  24.426  41.494   0.793
 5224W        W77539  39.642   0.222   0.504
 5225W        W77540  20.624  35.082  14.993
 5226W        W77541  39.048  23.254  12.613
 5227W        W77542  34.023   0.960  12.063
 5228W        W77543  23.680  31.172   3.313
 5229W        W77544   2.945  15.273   1.363
 5230W        W77545  24.020  40.447  11.124
 5231W        W77546  14.247  27.007  10.839
 5232W        W77547  37.353  38.423   3.215
 5233W        W77548   8.084  40.542   3.133
 5234W        W77549  32.114   5.242  12.436
 5235W        W77550  22.259  17.156   0.297
 5236W        W77551  30.634  13.795  12.962
 5237W        W77552  29.814   8.273  12.450
 5238W        W77553  15.374  29.914  11.644
 5239W        W77554   1.633   1.189   3.699
 5240W        W77555  24.545  22.527   3.656
 5241W        W77556   0.816  26.648   3.780
 5242W        W77557  10.464  19.761  14.796
 5243W        W77558  38.268  19.950   0.213
 5244W        W77559  31.853  21.310   0.209
 5245W        W77560  10.641  31.927  13.883
 5246W        W77561  29.052  19.068   3.714
 5247W        W77562  15.020  13.902  13.406
 5248W        W77563  15.852  15.634  10.371
 5249W        W77564  12.551  33.375  12.466
 5250W        W77565   2.327  22.222  14.991
 5251W        W77566  30.518  13.150  14.786
 5252W        W77567  40.457  26.085  11.380
 5253W        W77568  28.487   4.965   2.246
 5254W        W77569   8.371   2.960  10.915
 5255W        W77570  25.547  19.510   4.276
 5256W        W77571  24.001  36.521  13.936
 5257W        W77572  27.486   9.197   0.434
 5258W        W77573  26.738  11.659   2.607
 5259W        W77574  44.399  44.246   1.741
 5260W        W77575  39.546  11.883  11.186
 5261W        W77576  13.648  21.316  11.943
 5262W        W77577  25.595   6.932  12.112
 5263W        W77578  14.311   0.353   3.848
 5264W        W77579  36.603  24.672  13.164
 5265W        W77580   2.499  42.487   4.591
 5266W        W77581  34.535  13.996   4.183
 5267W        W77582  35.002  29.719   2.697
 5268W        W77583  38.419  24.836   2.387
 5269W        W77584   8.450  28.829  11.356
 5270W        W77585  34.126  12.398  13.102
 5271W        W77586  23.513  33.332  12.522
 5272W        W77587  41.802  11.075   1.856
 5273W        W77588  27.778  15.896   2.256
 5274W        W77589  34.368  11.425   4.164
 5275W        W77590  27.045  29.232   1.953
 5276W        W77591  12.152  35.603   4.503
 5277W        W77592  40.548  18.864   1.476
 5278W        W77593   3.005  19.119  12.552
 5279W        W77594   1.483  25.487  11.171
 5280W        W77595  31.976   1.497  11.598
 5281W        W77596  27.300  30.588  14.575
 5282W        W77597   4.862  10.215  14.537
 5283W        W77598  23.009  26.018  10.476
 5284W        W77599  28.441  35.083   1.216
 5285W        W77600  43.040  43.439   3.295
 5286W        W77601  16.757   0.526  12.293
 5287W        W77602  14.041  44.989   4.602
 5288W        W77603  11.866  12.817   0.281
 5289W        W77604  20.599  20.780   4.352
 5290W        W77605  30.127  38.114   0.867
 5291W        W77606   4.390  23.003   4.177
 5292W        W77607  40.024  34.435   3.177
 5293W        W77608  38.850  33.641  13.685
 5294W        W77609   2.694  42.907  10.722
 5295W        W77610   1.257  41.058   1.048
 5296W        W77611   9.279  37.909   2.715
 5297W        W77612   2.466  34.585   1.449
 5298W        W77613   7.519  10.812   1.936
 5299W        W77614   9.219  41.229   0.062
 5300W        W77615   9.539  10.295  13.413
 5301W        W77616  35.954  20.781   2.809
 5302W        W77617   3.989   0.678   4.832
 5303W        W77618  27.872  13.719   1.875
 5304W        W77619  44.708   3.896  13.331
 5305W        W77620   7.327  17.471  13.130
 5306W        W77621  28.833  13.239  12.417
 5307W        W77622  42.591  26.952   0.459
 5308W        W77623  31.125  13.139  11.181
 5309W        W77624  11.228  37.355   2.807
 5310W        W77625  42.402  12.646   3.125
 5311W        W77626  24.417  20.354  13.993
 5312W        W77627  39.404  16.419  11.230
 5313W        W77628   8.756  18.484   2.680
 5314W        W77629  38.798  31.560   0.667
 5315W        W77630  37.057   5.306   2.434
 5316W        W77631  14.882  24.004  10.619
 5317W        W77632   1.720  31.406  11.634
 5318W        W77633  27.541   3.253  10.671
 5319W        W77634  27.544  34.709  12.934
 5320W        W77635  34.112  35.394   3.829
 5321W        W77636   1.510  24.006  12.043
 5322W        W77637  27.534  38.900   4.523
 5323W        W77638  26.077  39.823  12.984
 5324W        W77639  18.214  41.500   9.571
 5325W        W77640  28.385   9.535  10.931
 5326W        W77641  21.047   5.985  12.595
 5327W        W77642  16.212  28.602   4.314
 5328W        W77643  14.679   7.646   0.795
 5329W        W77644  18.327  37.427   3.426
 5330W        W77645  18.885  11.386   0.859
 5331W        W77646  35.807  37.552  11.512
 5332W        W77647  22.172   1.790  13.792
 5333W        W77648  41.814  19.461  11.991
 5334W        W77649   8.658  12.825   3.800
 5335W        W77650  42.530   4.405  12.102
 5336W        W77651  27.027  32.921  14.802
 5337W        W77652  31.630  27.811  12.041
 5338W        W77653  25.154   4.548  10.516
 5339W        W77654  40.300  23.408  14.925
 5340W        W77655  21.283   7.164   3.251
 5341W        W77656  16.258  28.114   3.607
 5342W        W77657  12.901  41.357  14.932
 5343W        W77658  25.628  21.460   1.925
 5344W        W77659  25.447   9.355  10.630
 5345W        W77660   0.719  37.477   2.206
 5346W        W77661  15.793  23.597  13.358
 5347W        W77662   2.530  14.487   4.192
 5348W        W77663  22.361   2.923  13.611
 5349W        W77664  25.122  26.810   0.374
 5350W        W77665   0.019  27.143   4.137
 5351W        W77666  23.023  12.851   4.599
 5352W        W77667  31.266  25.109  10.841
 5353W        W77668  19.106  26.123  13.056
 5354W        W77669  41.850  41.902   1.290
 5355W        W77670  22.452  36.423  11.631
 5356W        W77671  23.515  37.730   3.392
 5357W        W77672  11.870  18.774  10.207
 5358W        W77673  36.900  38.321  12.657
 5359W        W77674   5.166   1.887   3.356
 5360W        W77675  39.900  35.129   0.816
 5361W        W77676  27.589  13.280  11.794
 5362W        W77677  16.668   3.141  14.945
 5363W        W77678  24.225   0.244   0.320
 5364W        W77679   5.086  15.096   1.864
 5365W        W77680  38.437  29.203   0.381
 5366W        W77681  44.320  29.368  13.736
 5367W        W77682  37.795  29.072  12.518
 5368W        W77683  18.150   5.002  12.870
 5369W        W77684  22.532  12.187  14.800
 5370W        W77685   0.583   9.705  11.536
 5371W        W77686  17.750  36.364   2.305
 5372W        W77687  30.039   0.442   0.413
 5373W        W77688  27.937  28.468   3.674
 5374W        W77689  26.153   5.853  10.196
 5375W        W77690  33.187  42.787  13.994
 5376W        W77691  27.649  38.856  13.475
 5377W        W77692  21.687   2.501   4.372
 5378W        W77693   1.777  37.690   4.997
 5379W        W77694  21.003  18.730   0.747
 5380W        W77695  38.538   7.894   0.911
 5381W        W77696  41.936  38.053   0.704
 5382W        W77697   4.705   1.932  11.668
 5383W        W77698   7.381  23.959   3.705
 5384W        W77699   2.669  10.337  12.024
 5385W        W77700  38.707  34.869   2.343
 5386W        W77701  25.625  26.967  12.526
 5387W        W77702  32.981   4.243  10.803
 5388W        W77703   2.350  34.057  10.560
 5389W        W77704  32.501   0.170  10.327
 5390W        W77705   4.458  30.094   4.635
 5391W        W77706   9.205   7.885  10.967
 5392W        W77707   1.858  33.457   2.950
 5393W        W77708  29.904  37.103  13.830
 5394W        W77709  21.284   6.423  12.447
 5395W        W77710  28.431  44.416   0.719
 5396W        W77711  35.142  36.416   3.486
 5397W        W77712  43.891  38.953  10.653
 5398W        W77713   1.571  33.604   4.130
 5399W        W77714  14.157  40.581   4.104
 5400W        W77715  44.382  29.947  14.326
 5401W        W77716  38.824  30.873   0.966
 5402W        W77717  36.426  17.949  13.873
 5403W        W77718  21.642  32.410  11.113
 5404W        W77719  25.488  44.983   1.355
 5405W        W77720   4.521  16.231  12.353
 5406W        W77721   8.032  39.056   1.314
 5407W        W77722  35.599  25.323   0.369
 5408W        W77723  30.860  22.644  10.914
 5409W        W77724  29.132   5.965   2.351
 5410W        W77725  36.215  15.100  11.575
 5411W        W77726  17.802  41.317   4.657
 5412W        W77727   7.324  27.962  10.903
 5413W        W77728  15.672  21.037   0.313
 5414W        W77729  16.840  36.747   3.678
 5415W        W77730  30.724  21.058  10.684
 5416W        W77731  38.396  40.591   3.186
 5417W        W77732  20.786  20.582   1.681
 5418W        W77733  21.631  35.346  13.886
 5419W        W77734  40.326  33.334   0.531
 5420W        W77735  20.356  10.392  11.395
 5421W        W77736  30.103  36.343  12.621
 5422W        W77737  16.242   5.356   2.783
 5423W        W77738  14.248  42.927  13.241
 5424W        W77739   6.116  22.663  14.846
 5425W        W77740   3.740  25.528  10.566
 5426W        W77741  28.931  18.757   4.104
 5427W        W77742   7.506   8.290   2.668
 5428W        W77743  38.065   7.196  11.542
 5429W        W77744   5.810  19.072  13.532
 5430W        W77745   7.306  44.238  14.826
 5431W        W77746  27.403   1.501  11.873
 5432W        W77747  37.067   1.732   1.392
 5433W        W77748  42.909  35.876   3.838
 5434W        W77749  24.239   3.840   0.776
 5435W        W77750  13.763  27.671  12.851
 5436W        W77751   3.798   5.303   4.333
 5437W        W77752  27.582  26.875   0.993
 5438W        W77753  31.014   8.475   0.348
 5439W        W77754  18.853  24.079  12.331
 5440W        W77755   5.964   6.772   4.265
 5441W        W77756  41.110  29.110   4.513
 5442W        W77757  28.007  37.400   3.682
 5443W        W77758  16.039   3.225  12.066
 5444W        W77759  18.124  35.668  13.428
 5445W        W77760  44.067   5.978  14.398
 5446W        W77761  12.331  40.640  14.524
 5447W        W77762  28.593   5.860   5.494
 5448W        W77763  14.300  28.976  13.963
 5449W        W77764  28.419  27.598  11.106
 5450W        W77765  34.933  42.682   1.311
 5451W        W77766  35.793  12.827   2.985
 5452W        W77767  38.929  44.732  14.852
 5453W        W77768  16.531  38.760   4.220
 5454W        W77769  25.039  33.760   4.703
 5455W        W77770  40.743  27.171  11.638
 5456W        W77771  17.889   3.979  14.157
 5457W        W77772   8.873  11.909  14.560
 5458W        W77773   0.446  34.537  14.439
 5459W        W77774  37.051  24.540   4.040
 5460W        W77775   0.836  10.888  10.643
 5461W        W77776  30.093  28.998  12.545
 5462W        W77777   1.055  32.872   2.943
 5463W        W77778  44.598  14.814   2.434
 5464W        W77779   9.395  14.688  12.520
 5465W        W77780  35.226  39.292   3.706
 5466W        W77781  16.571  18.391  11.080
 5467W        W77782   1.787  41.325  10.615
 5468W        W77783  21.286  19.611   3.361
 5469W        W77784  36.496  24.499  11.454
 5470W        W77785  39.403  44.388  13.932
 5471W        W77786  17.722  34.648  14.729
 5472W        W77787   9.885  32.654  13.514
 5473W        W77788  43.667  36.899   2.375
 5474W        W77789  14.300  16.707  12.230
 5475W        W77790  11.804  42.579  13.408
 5476W        W77791   5.248  24.410  10.691
 5477W        W77792  31.601  22.751  14.832
 5478W        W77793  31.538   1.763   0.719
 5479W        W77794  34.910  28.649   1.836
 5480W        W77795   1.856   5.932  13.367
 5481W        W77796  14.225  37.011   4.301
 5482W        W77797   4.253  27.465   3.755
 5483W        W77798  23.142  22.244   0.872
 5484W        W77799  22.703   9.799   3.293
 5485W        W77800   1.685   1.974   1.989
 5486W        W77801   3.348   6.428  13.989
 5487W        W77802  29.534  15.727   1.672
 5488W        W77803  42.997   0.469  13.905
 5489W        W77804  40.340  13.266  11.556
 5490W        W77805  36.774  17.523   2.215
 5491W        W77806  36.063  35.570   0.744
 5492W        W77807   9.675  13.944  10.460
 5493W        W77808   8.246   6.142  13.367
 5494W        W77809  10.694  42.542   4.397
 5495W        W77810  41.788  28.180  13.875
 5496W        W77811  39.088  18.559   5.278
 5497W        W77812   8.670  39.045   2.251
 5498W        W77813  30.934  23.661  12.563
 5499W        W77814  33.526  23.788   3.103
 5500W        W77815  41.789  42.761   3.686
 5501W        W77816  29.621  44.198   3.068
 5502W        W77817  28.535   6.765  14.342
 5503W        W77818  29.634  30.452   1.468
 5504W        W77819   1.446  26.691   4.102
 5505W        W77820  16.036  21.201  14.310
 5506W        W77821  41.571   9.392  14.835
 5507W        W77822  11.271   3.142   0.428
 5508W        W77823  37.470   1.301  12.825
 5509W        W77824  35.167  19.302   3.219
 5510W        W77825  42.359  42.721  11.395
 5511W        W77826  22.020   3.899  10.413
 5512W        W77827  25.726   1.197  11.172
 5513W        W77828  26.648  30.431  12.888
 5514W        W77829  40.000  24.289  10.273
 5515W        W77830  24.900   7.413   2.690
 5516W        W77831  34.283  13.196   4.344
 5517W        W77832  25.192  38.405  14.446
 5518W        W77833  20.686   9.657   0.980
 5519W        W77834  35.374  13.903  13.047
 5520W        W77835  38.486  15.288  10.661
 5521W        W77836   1.376   9.101  10.521
 5522W        W77837  25.083  30.652   0.783
 5523W        W77838  44.037   3.615   3.430
 5524W        W77839  14.046  29.441  13.954
 5525W        W77840   4.820   3.542  13.749
 5526W        W77841  33.337  13.764  10.612
 5527W        W77842  11.597  36.801   2.114
 5528W        W77843   9.877  40.410  12.644
 5529W        W77844  21.986  40.269   0.196
 5530W        W77845  44.109  13.303  12.154
 5531W        W77846  24.418  22.979  11.950
 5532W        W77847  14.000  35.389  10.711
 5533W        W77848  21.728  33.769   3.396
 5534W        W77849   5.193  35.563  13.402
 5535W        W77850  34.420  39.923   3.743
 5536W        W77851  29.227  20.871  14.332
 5537W        W77852  17.021   2.195  14.935
 5538W        W77853   2.570  21.849   0.356
 5539W        W77854  22.316   7.090  12.202
 5540W        W77855  39.709  44.230   0.416
 5541W        W77856  15.549  44.321   3.825
 5542W        W77857  13.938  22.145  11.642
 5543W        W77858  26.510  33.918   1.332
 5544W        W77859  42.478  38.326  10.886
 5545W        W77860  19.210   7.495  11.033
 5546W        W77861  39.798   6.583   2.904
 5547W        W77862  41.868  44.986  12.410
 5548W        W77863   8.139  35.075  13.766
 5549W        W77864  15.832  23.815   0.383
 5550W        W77865  19.570  44.254  11.082
 5551W        W77866  17.291  19.800  10.159
 5552W        W77867   1.081  10.814   0.696
 5553W        W77868  40.000  17.078  11.510
 5554W        W77869  18.034   7.945   3.564
 5555W        W77870  36.981  39.344   0.901
 5556W        W77871  42.959  20.131  11.677
 5557W        W77872  38.265  22.970   2.327
 5558W        W77873   6.711  35.119   2.219
 5559W        W77874  21.226  31.916   0.805
 5560W        W77875  15.360  20.144   0.206
 5561W        W77876  39.081   2.716  10.719
 5562W        W77877  10.120  38.443  14.045
 5563W        W77878  23.597  42.112   3.593
 5564W        W77879   0.493  30.451  14.417
 5565W        W77880  26.900  42.434  12.992
 5566W        W77881  43.866  19.546   3.809
 5567W        W77882  27.093  13.371  13.964
 5568W        W77883  16.319  36.414  12.971
 5569W        W77884  15.665  39.712   2.245
 5570W        W77885   6.296  32.878  12.924
 5571W        W77886  33.878  20.661  13.481
 5572W        W77887  37.041  13.808  12.829
 5573W        W77888   8.304   8.833   2.557
 5574W        W77889   5.169  23.493   3.751
 5575W        W77890  25.074  37.403  10.867
 5576W        W77891  34.435  22.094   4.391
 5577W        W77892   9.810  32.985  12.832
 5578W        W77893  39.837  35.352  10.768
 5579W        W77894  21.990   8.825   0.724
 5580W        W77895   3.402  33.378  14.378
 5581W        W77896  21.745  41.049  14.820
 5582W        W77897  28.592  32.538   2.843
 5583W        W77898  29.993   8.397   0.032
 5584W        W77899  21.052  16.731  13.341
 5585W        W77900  15.080  11.272  11.173
 5586W        W77901  37.806  41.075   3.085
 5587W        W77902   9.721  34.166  11.119
 5588W        W77903   3.948  10.248  14.923
 5589W        W77904  38.336   4.909   4.607
 5590W        W77905  35.957   8.968   2.644
 5591W        W77906  31.621  42.341   2.963
 5592W        W77907  13.578  40.398   4.069
 5593W        W77908   7.242  17.814  11.164
 5594W        W77909  23.638  10.252  14.841
 5595W        W77910  10.542  16.737  14.269
 5596W        W77911  22.471  22.035  12.024
 5597W        W77912  12.935   5.024  10.162
 5598W        W77913  12.422  17.039   5.389
 5599W        W77914  32.932  38.664   0.262
 5600W        W77915   8.956  32.549   4.550
 5601W        W77916   1.989   1.089  14.855
 5602W        W77917  40.049  25.972  11.679
 5603W        W77918  42.632   6.978   3.810
 5604W        W77919  39.445  14.541   2.132
 5605W        W77920  43.032  34.709  13.340
 5606W        W77921   7.070  10.214   0.024
 5607W        W77922  21.478   3.986  12.094
 5608W        W77923  13.043  18.625   0.009
 5609W        W77924   6.190  19.080   1.130
 5610W        W77925  16.190  12.649  13.989
 5611W        W77926  11.608  10.849  14.620
 5612W        W77927  34.762  40.637   4.177
 5613W        W77928   4.469  27.038   4.658
 5614W        W77929   7.388   3.269  13.688
 5615W        W77930  32.893  14.657   4.365
 5616W        W77931  44.405  30.496   1.396
 5617W        W77932  23.874  20.825   2.091
 5618W        W77933  21.281  26.737   4.740
 5619W        W77934  36.493  43.672   0.566
 5620W        W77935  42.969  21.258   1.270
 5621W        W77936   4.151  14.701   2.742
 5622W        W77937  14.388  33.360   4.581
 5623W        W77938  18.275  40.962  14.842
 5624W        W77939  37.320  20.228   2.137
 5625W        W77940   0.220   3.775  13.315
 5626W        W77941  19.241  26.536   1.872
 5627W        W77942  41.691   3.959  14.015
 5628W        W77943  29.584  17.766  14.267
 5629W        W77944  23.540  12.648  14.305
 5630W        W77945   8.047  39.674  11.089
 5631W        W77946  18.106  38.127  14.369
 5632W        W77947  16.185   4.510  13.509
 5633W        W77948  24.528  25.615  14.581
 5634W        W77949  29.411   2.903   3.593
 5635W        W77950  41.924  25.785  10.662
 5636W        W77951  35.490  26.877   3.773
 5637W        W77952   2.685  37.115  11.168
 5638W        W77953  21.158  38.964   3.202
 5639W        W77954  31.055  36.531  12.694
 5640W        W77955   7.743  14.600   1.140
 5641W        W77956   0.316   0.234  10.943
 5642W        W77957  26.117  39.665  12.479
 5643W        W77958   0.955  44.784  11.534
 5644W        W77959  25.960  14.083  11.612
 5645W        W77960   0.026  39.497  12.954
 5646W        W77961  32.486  26.647   4.350
 5647W        W77962  41.881  37.131  13.194
 5648W        W77963  16.711  20.165  12.699
 5649W        W77964  39.292  18.997   2.706
 5650W        W77965  19.616  29.878  13.843
 5651W        W77966  36.026  35.346   1.387
 5652W        W77967   0.889  26.219   0.055
 5653W        W77968   1.088   7.910  11.988
 5654W        W77969  40.977  42.043  12.468
 5655W        W77970  38.860  29.041   4.827
 5656W        W77971  13.398  31.492   1.264
 5657W        W77972  31.416  39.081   3.282
 5658W        W77973  27.695  37.888  12.470
 5659W        W77974  36.015  43.908   1.791
 5660W        W77975  32.590  25.058   3.146
 5661W        W77976  41.015  44.793   4.480
 5662W        W77977   9.960  40.371  13.942
 5663W        W77978  21.307  29.624   1.496
 5664W        W77979  29.669  37.886   0.314
 5665W        W77980  17.163   8.479  11.998
 5666W        W77981  31.957  31.506  14.487
 5667W        W77982  26.509  42.488  14.793
 5668W        W77983  23.185  32.074  14.498
 5669W        W77984  41.559  39.258   3.734
 5670W        W77985   2.543  35.023   3.719
 5671W        W77986   0.929  11.123  13.211
 5672W        W77987  39.180  18.773   0.918
 5673W        W77988  14.688  44.520  13.660
 5674W        W77989   2.766  16.864   2.307
 5675W        W77990   1.771  32.096   2.850
 5676W        W77991  33.360   4.624  10.006
 5677W        W77992   6.298  17.500  11.010
 5678W        W77993  15.026  18.691   1.283
 5679W        W77994  29.491  39.790   0.855
 5680W        W77995   5.629  44.287  10.590
 5681W        W77996   8.674  33.390  14.262
 5682W        W77997  31.232  41.088   1.519
 5683W        W77998  32.208  32.520  14.917
 5684W        W77999  19.825  17.357   3.692
 5685W        W78000  41.794  19.103  14.544
 5686W        W78001  27.263   3.438   1.392
 5687W        W78002   2.978  22.203   0.413
 5688W        W78003  14.498  33.364  11.653
 5689W        W78004   4.397  10.427  11.577
 5690W        W78005  43.865  40.117   2.794
 5691W        W78006  12.239  20.119  12.479
 5692W        W78007  39.025  21.118  11.661
 5693W        W78008  29.087  43.788  13.370
 5694W        W78009  34.808  27.570   3.205
 5695W        W78010   1.330  29.401   0.511
 5696W        W78011  40.568  34.453   1.273
 5697W        W78012  18.674  21.051  13.563
 5698W        W78013  43.232  36.603  11.179
 5699W        W78014   2.228  26.139   0.694
 5700W        W78015  16.126  14.704  14.989
 5701W        W78016  31.899  43.957  13.466
 5702W        W78017  15.347   0.531   4.554
 5703W        W78018  33.119  14.851   3.445
 5704W        W78019  28.862  20.773  12.058
 5705W        W78020   6.762  43.104  14.302
 5706W        W78021  31.600  34.332  14.799
 5707W        W78022  16.326  16.518   1.863
 5708W        W78023   1.465   9.776  14.827
 5709W        W78024  18.438  22.914   0.872
 5710W        W78025  32.034  27.412   4.687
 5711W        W78026   0.626   6.858   1.475
 5712W        W78027   5.436  31.227  11.459
 5713W        W78028  31.991  44.036  10.703
 5714W        W78029  39.880  10.772  11.396
 5715W        W78030  18.559  11.734  10.793
 5716W        W78031  23.218  18.811   3.758
 5717W        W78032  36.417  44.882  10.422
 5718W        W78033  11.698  38.006  12.597
 5719W        W78034  29.008  14.562  14.525
 5720W        W78035  22.149   6.613   3.286
 5721W        W78036   3.229   7.274  13.160
 5722W        W78037   4.209  34.311  14.795
 5723W        W78038  16.346   9.197   4.251
 5724W        W78039   3.358   6.850   2.596
 5725W        W78040  14.331  33.844  13.568
 5726W        W78041   1.838   2.459  10.615
 5727W        W78042  24.105  41.832   1.444
 5728W        W78043  36.271  36.407  13.842
 5729W        W78044   7.520  31.549  13.356
 5730W        W78045   2.705  18.145   1.287
 5731W        W78046  27.662  18.618  13.021
 5732W        W78047  13.244  22.439  11.068
 5733W        W78048   8.408  44.240   4.031
 5734W        W78049  42.286  38.944   4.875
 5735W        W78050  16.377  34.002   4.773
 5736W        W78051  19.318   8.760  14.764
 5737W        W78052  42.316  41.916  12.925
 5738W        W78053  29.528  26.701  11.135
 5739W        W78054  22.680  19.702   5.033
 5740W        W78055  13.157   1.501  10.767
 5741W        W78056   1.596  28.993   4.035
 5742W        W78057  34.542  43.964   2.295
 5743W        W78058  14.219  29.705   0.235
 5744W        W78059  32.190  19.953   1.387
 5745W        W78060   1.075  34.615  10.103
 5746W        W78061  43.817  11.608   0.430
 5747W        W78062  16.833  21.745   0.275
 5748W        W78063  13.266  40.488  14.431
 5749W        W78064  33.896  34.047  14.071
 5750W        W78065  34.130   6.350   0.298
 5751W        W78066  17.091  22.249  13.344
 5752W        W78067   7.365  16.584   0.257
 5753W        W78068  16.055  29.204  12.918
 5754W        W78069  13.758  44.951   3.681
 5755W        W78070  22.020  23.277   4.107
 5756W        W78071   6.915  11.173  12.274
 5757W        W78072  28.596  36.832   0.228
 5758W        W78073  12.933  16.497   9.635
 5759W        W78074  33.134  15.471   0.670
 5760W        W78075  19.325  38.402   9.621
 5761W        W78076   3.791  14.111  12.463
 5762W        W78077  16.602   1.268  11.876
 5763W        W78078  44.737  18.018   1.310
 5764W        W78079  26.004  20.631   0.444
 5765W        W78080  27.282   8.205   3.615
 5766W        W78081  44.183  18.667   3.167
 5767W        W78082  11.690  33.640   2.768
 5768W        W78083  22.811  36.176   4.013
 5769W        W78084  20.551   6.855   2.236
 5770W        W78085  23.736  13.088   2.199
 5771W        W78086  27.749  28.498  12.476
 5772W        W78087   0.700  29.800  10.216
 5773W        W78088  27.908  19.771   2.086
 5774W        W78089  20.479  43.373  11.978
 5775W        W78090  38.511  38.937   1.201
 5776W        W78091  18.200  19.615  10.633
 5777W        W78092  19.573   4.571  11.582
 5778W        W78093  12.244   4.932   4.095
 5779W        W78094  43.765  29.541  14.249
 5780W        W78095   7.391  32.180   0.451
 5781W        W78096  33.326   2.773   0.347
 5782W        W78097  32.648  13.744  13.860
 5783W        W78098  13.651  41.588   4.859
 5784W        W78099   2.790   8.964   3.547
 5785W        W78100  34.305   9.735   0.751
 5786W        W78101  14.697  19.990   3.671
 5787W        W78102  36.014  34.642  13.469
 5788W        W78103  19.479   0.507  14.864
 5789W        W78104  26.517  14.265   2.188
 5790W        W78105  34.596   4.682   4.656
 5791W        W78106  31.715   8.411  12.325
 5792W        W78107  35.233  13.026  14.949
 5793W        W78108  27.359   2.337  10.596
 5794W        W78109  16.734  12.812  11.607
 5795W        W78110  17.706  28.060   5.046
 5796W        W78111   0.266  11.155   0.305
 5797W        W78112  39.615  12.887  12.033
 5798W        W78113  28.145   5.188  14.440
 5799W        W78114   5.160  26.848  11.459
 5800W        W78115  26.703   1.227  11.116
 5801W        W78116  30.045   5.728  14.498
 5802W        W78117   4.980  32.841   0.929
 5803W        W78118  31.507   7.867   3.680
 5804W        W78119  26.968  32.838   3.177
 5805W        W78120   8.330  36.093  12.457
 5806W        W78121   5.347  32.366  13.052
 5807W        W78122  17.019  25.264   1.697
 5808W        W78123  15.705   3.645   1.695
 5809W        W78124  22.086   3.687   4.490
 5810W        W78125  30.894  37.518  11.483
 5811W        W78126  44.817  19.336   3.721
 5812W        W78127  35.386  27.098   1.839
 5813W        W78128   4.222  32.217   0.923
 5814W        W78129   8.802  27.676  11.090
 5815W        W78130  16.170  18.348   4.121
 5816W        W78131  33.049   7.416  13.797
 5817W        W78132  44.708   7.520  10.689
 5818W        W78133  42.879  31.798  10.503
 5819W        W78134   9.218  19.490  10.545
 5820W        W78135   0.844   0.357   2.980
 5821W        W78136  14.371   5.800   3.659
 5822W        W78137  40.202   4.577   1.186
 5823W        W78138   6.509  32.552  12.123
 5824W        W78139  28.633   9.206  13.030
 5825W        W78140  27.543  13.107   4.175
 5826W        W78141   6.445   4.833  13.003
 5827W        W78142   6.307  17.739   1.330
 5828W        W78143  39.367  27.429  12.483
 5829W        W78144   7.280   4.640   2.265
 5830W        W78145   4.863  27.066   1.003
 5831W        W78146  31.932  27.888   4.521
 5832W        W78147   0.458   6.860   0.533
 5833W        W78148  24.147  34.490   4.630
 5834W        W78149  16.199   0.397   1.226
 5835W        W78150  15.232  15.627   1.838
 5836W        W78151  33.873  31.270  11.782
 5837W        W78152  30.309   0.786   0.933
 5838W        W78153  30.979  25.655  13.183
 5839W        W78154  41.733  15.673  12.554
 5840W        W78155  28.741  26.036   3.645
 5841W        W78156  31.166   3.248   4.223
 5842W        W78157   9.378  34.827   1.774
 5843W        W78158  28.606  24.485  13.424
 5844W        W78159  38.849  29.118  13.357
 5845W        W78160  36.398  24.966   4.041
 5846W        W78161  10.259  31.182  11.551
 5847W        W78162   8.234  27.399  11.180
 5848W        W78163  17.509   7.642  11.987
 5849W        W78164  23.217  31.940   4.691
 5850W        W78165  11.659  26.897   4.653
 5851W        W78166  12.640   7.176   2.832
 5852W        W78167   0.769  26.096  14.010
 5853W        W78168  37.804  13.433   4.193
 5854W        W78169  11.478  32.846  14.222
 5855W        W78170  35.615  23.323   4.312
 5856W        W78171  38.575  13.339  12.691
 5857W        W78172  33.838  33.860  11.226
 5858W        W78173  38.652  19.012  13.906
 5859W        W78174   5.321  27.954   2.098
 5860W        W78175  38.877  12.865  11.538
 5861W        W78176  19.052  18.614   0.868
 5862W        W78177   0.859  16.089   3.294
 5863W        W78178  10.898  35.554   1.223
 5864W        W78179   0.957   1.321  11.165
 5865W        W78180  11.279   3.016  11.192
 5866W        W78181   3.168  32.523  14.148
 5867W        W78182  28.927  33.661  11.039
 5868W        W78183  37.326  37.110  13.033
 5869W        W78184  29.085   0.473  11.114
 5870W        W78185  41.489  27.061   1.656
 5871W        W78186  44.356  21.053  10.230
 5872W        W78187  37.639  10.601  10.728
 5873W        W78188  37.984  38.834   3.782
 5874W        W78189  28.494  34.359  10.850
 5875W        W78190  32.106  25.685  13.437
 5876W        W78191  19.025  35.970  14.438
 5877W        W78192  10.292  32.402   3.742
 5878W        W78193  10.339  42.993   1.863
 5879W        W78194  43.301   4.515   2.154
 5880W        W78195  41.096  20.443  11.215
 5881W        W78196  23.991  31.612   1.749
 5882W        W78197  40.924  23.156  12.889
 5883W        W78198   9.886  31.633   1.919
 5884W        W78199  26.654  43.552   0.854
 5885W        W78200  33.210  44.837  10.316
 5886W        W78201  30.664  15.724  11.135
 5887W        W78202  29.038  32.098  11.582
 5888W        W78203  28.422  42.292  10.556
 5889W        W78204  32.309   5.565  12.029
 5890W        W78205   7.976   6.773  14.253
 5891W        W78206  25.948   8.358   3.468
 5892W        W78207   2.243  34.649  13.832
 5893W        W78208  27.043  17.738   0.372
 5894W        W78209  34.481  25.036  11.614
 5895W        W78210   1.373  26.563  11.606
 5896W        W78211  34.879  34.420  11.638
 5897W        W78212  15.965  26.953   1.376
 5898W        W78213   9.241  35.893  14.587
 5899W        W78214  14.872  31.435   1.164
 5900W        W78215  40.528  40.939   3.758
 5901W        W78216   9.499  40.247  14.804
 5902W        W78217  35.847   4.483   3.352
 5903W        W78218  24.307   6.400   4.428
 5904W        W78219  19.099  38.556  11.955
 5905W        W78220   6.286  30.621  12.631
 5906W        W78221  27.742   5.752  13.045
 5907W        W78222  11.326  34.391  12.625
 5908W        W78223  15.412  14.327  14.532
 5909W        W78224   7.430   3.340  11.659
 5910W        W78225   9.228  25.644   1.097
 5911W        W78226  37.048  39.264  11.022
 5912W        W78227  27.578   6.914  12.103
 5913W        W78228  17.058  36.108   4.699
 5914W        W78229  39.622  25.024  13.702
 5915W        W78230  28.937   7.209  13.981
 5916W        W78231  12.412  43.333   3.664
 5917W        W78232   4.858  16.057  11.296
 5918W        W78233  31.142  40.455   3.731
 5919W        W78234  14.119   3.828  13.794
 5920W        W78235  10.372  17.506  10.552
 5921W        W78236  10.365  15.253  12.803
 5922W        W78237  22.086   3.677   0.368
 5923W        W78238  33.513  19.541   4.714
 5924W        W78239  31.825  24.743   2.089
 5925W        W78240   9.272  11.360  11.434
 5926W        W78241   9.775  16.058  12.079
 5927W        W78242   5.991  26.161  13.015
 5928W        W78243  23.724   9.583   2.847
 5929W        W78244   4.627  40.898   0.119
 5930W        W78245  16.736  27.584   5.495
 5931W        W78246  38.111  22.141   1.487
 5932W        W78247  12.243  11.760  11.147
 5933W        W78248  40.514  16.139  10.498
 5934W        W78249  19.328  32.299  12.965
 5935W        W78250  25.992  32.340  14.775
 5936W        W78251  24.200  43.302   4.352
 5937W        W78252  10.414  39.532   4.325
 5938W        W78253  33.045  11.826   2.509
 5939W        W78254  18.322  35.072   1.327
 5940W        W78255  39.627   7.750  11.118
 5941W        W78256   5.974  18.124   1.194
 5942W        W78257  37.914   4.410  13.049
 5943W        W78258  20.348  17.824  14.908
 5944W        W78259  12.675  33.439  10.724
 5945W        W78260   0.092  10.103  12.565
 5946W        W78261  41.154  43.767  14.796
 5947W        W78262  42.337  17.983   1.206
 5948W        W78263   4.635  41.524  13.055
 5949W        W78264   4.418  34.477   4.368
 5950W        W78265  13.550  19.762   3.255
 5951W        W78266   3.940   4.152  12.034
 5952W        W78267  10.205  10.543   2.862
 5953W        W78268  27.465  25.050  12.483
 5954W        W78269  15.033  12.195  13.065
 5955W        W78270  20.769  30.729   1.830
 5956W        W78271   1.846  30.906   0.396
 5957W        W78272   1.198  35.002   1.896
 5958W        W78273  42.044  34.386  10.795
 5959W        W78274  30.931  44.866  11.836
 5960W        W78275  40.400   5.196  11.092
 5961W        W78276   3.269   9.180  13.277
 5962W        W78277   3.016  30.258   0.935
 5963W        W78278   4.024  23.836   4.105
 5964W        W78279  41.565  31.449   3.256
 5965W        W78280  36.042  10.155  12.923
 5966W        W78281  40.619  18.069   2.853
 5967W        W78282  22.805  24.311   2.244
 5968W        W78283   9.667  40.286   3.827
 5969W        W78284  44.354   2.234   3.342
 5970W        W78285  22.628  42.810  10.739
 5971W        W78286   4.831  35.466   0.248
 5972W        W78287  18.590  30.094   3.280
 5973W        W78288   9.807  17.236  14.811
 5974W        W78289   8.364  42.292   0.352
 5975W        W78290  12.231   1.474   0.836
 5976W        W78291  22.209  22.740  11.125
 5977W        W78292  10.463  31.115   0.272
 5978W        W78293  15.510  26.319  14.255
 5979W        W78294   5.673  26.066   4.124
 5980W        W78295  26.584  29.298   2.834
 5981W        W78296  24.569  27.026   4.631
 5982W        W78297  43.379  31.806  13.973
 5983W        W78298  34.421  26.235  13.215
 5984W        W78299  25.267  29.473  10.643
 5985W        W78300   6.805   7.718   0.288
 5986W        W78301  22.752  31.590  13.031
 5987W        W78302  25.105   0.291   4.400
 5988W        W78303   6.217  41.464   4.611
 5989W        W78304  44.408  13.809   0.847
 5990W        W78305  42.367   2.442   0.315
 5991W        W78306  14.603  19.012  11.159
 5992W        W78307  44.474  40.757  12.915
 5993W        W78308  42.845   3.815  13.061
 5994W        W78309  27.079   4.708   2.690
 5995W        W78310   0.142   7.229   0.875
 5996W        W78311  44.733  30.687  12.419
 5997W        W78312  34.387  10.120   3.721
 5998W        W78313  15.605  10.196   1.789
 5999W        W78314  38.746   7.226  13.374
 6000W        W78315  23.671  12.335  14.763
 6001W        W78316   2.024  28.640  14.729
 6002W        W78317   9.724  28.056   4.655
 6003W        W78318  30.494  16.778   1.629
 6004W        W78319   4.635  40.827   0.654
 6005W        W78320  31.192  35.916   1.953
 6006W        W78321  31.162  34.993  11.216
 6007W        W78322  21.766  15.199   1.392
 6008W        W78323  28.627  15.805   2.395
 6009W        W78324  21.259  10.320   1.533
 6010W        W78325  38.796   7.790  10.763
 6011W        W78326  43.093  19.028  14.717
 6012W        W78327   5.127  10.363  11.101
 6013W        W78328   3.449  22.501   0.407
 6014W        W78329   6.206   6.368   2.741
 6015W        W78330  21.074  20.010  11.951
 6016W        W78331  33.036  10.592   4.830
 6017W        W78332  12.325   6.383  12.336
 6018W        W78333  37.097  25.262  13.903
 6019W        W78334  44.081  35.985  14.268
 6020W        W78335   3.011  34.020   4.179
 6021W        W78336  29.682  10.140  12.038
 6022W        W78337  15.611  33.500  11.461
 6023W        W78338  10.727  31.660  10.999
 6024W        W78339  19.686  26.634   0.621
 6025W        W78340  37.921  28.464   3.578
 6026W        W78341  36.083   6.910  12.610
 6027W        W78342   6.425  33.440  13.794
 6028W        W78343  28.026  31.341   1.686
 6029W        W78344  23.632  10.780  13.335
 6030W        W78345  31.038  41.622  10.702
 6031W        W78346  33.978  31.847  11.029
 6032W        W78347  23.065  42.571  10.635
 6033W        W78348  41.150  19.206   0.960
 6034W        W78349   3.921  27.018  12.670
 6035W        W78350  42.255  42.236   0.730
 6036W        W78351  32.838  24.266  13.219
 6037W        W78352   8.442   0.090   2.258
 6038W        W78353  34.530  21.692  13.775
 6039W        W78354   3.434  17.620  10.570
 6040W        W78355  29.066   8.625   2.775
 6041W        W78356   4.337  24.416   4.518
 6042W        W78357   0.516  31.716   1.813
 6043W        W78358   0.838  21.073  14.205
 6044W        W78359  22.295  27.541   3.602
 6045W        W78360  32.184  12.652  14.513
 6046W        W78361  20.062   4.209  14.407
 6047W        W78362   0.649  41.064  11.823
 6048W        W78363  19.392  21.584   0.885
 6049W        W78364  30.385  13.582   1.445
 6050W        W78365  42.632  43.383  13.119
 6051W        W78366  10.328  20.072   4.861
 6052W        W78367   8.587  28.512  14.258
 6053W        W78368  39.110  35.694   5.028
 6054W        W78369  39.317  36.072  10.577
 6055W        W78370  44.008  27.267  13.852
 6056W        W78371  18.113  14.106  12.950
 6057W        W78372  19.337   3.345  12.637
 6058W        W78373  34.310  15.690  14.818
 6059W        W78374  30.624  38.950  14.288
 6060W        W78375  29.672  12.207   2.423
 6061W        W78376  30.560  26.017   4.137
 6062W        W78377   0.388   7.377   0.457
 6063W        W78378  28.397  24.738  13.839
 6064W        W78379  32.436  35.632   2.308
 6065W        W78380   9.724  31.502  10.527
 6066W        W78381  23.446  10.737  14.792
 6067W        W78382   5.969   5.598  13.068
 6068W        W78383  40.995  21.178  12.444
 6069W        W78384  44.771  41.400   0.707
 6070W        W78385  14.402  14.739  10.457
 6071W        W78386  29.830  26.907  14.593
 6072W        W78387  34.935  15.035  12.431
 6073W        W78388   0.458  22.095   2.651
 6074W        W78389  40.455   5.425  12.879
 6075W        W78390  38.139  35.787   5.024
 6076W        W78391  35.208   3.129   4.078
 6077W        W78392  26.158  20.078  13.075
 6078W        W78393  42.776  24.173   3.156
 6079W        W78394  30.884  41.632  12.974
 6080W        W78395   0.118  12.203   1.733
 6081W        W78396  18.604  31.750   9.973
 6082W        W78397   8.880  20.662   0.262
 6083W        W78398  21.472  44.440   5.069
 6084W        W78399  22.628  21.516   0.736
 6085W        W78400  14.240  17.543  12.771
 6086W        W78401  14.756   6.732   0.955
 6087W        W78402  22.255  31.917   4.780
 6088W        W78403   0.284  11.762   5.470
 6089W        W78404  38.912  30.664   0.434
 6090W        W78405  26.850  37.006   0.179
 6091W        W78406  34.580  28.863   0.350
 6092W        W78407  18.570  23.995   3.226
 6093W        W78408  23.430  35.897  13.556
 6094W        W78409  18.012   8.576   0.937
 6095W        W78410  37.204  10.868  13.453
 6096W        W78411  13.326  20.010   4.459
 6097W        W78412   9.611  32.608  12.007
 6098W        W78413  12.312  14.032   5.090
 6099W        W78414  30.996  29.455   0.837
 6100W        W78415  39.444  43.221  10.696
 6101W        W78416  20.163  31.228   3.967
 6102W        W78417  12.757  11.901  13.006
 6103W        W78418   4.197   5.818   0.527
 6104W        W78419  15.814  36.449  12.778
 6105W        W78420  38.011  34.385   2.362
 6106W        W78421  19.745  28.861  10.821
 6107W        W78422  38.545   4.868   2.227
 6108W        W78423  12.060  24.795  10.768
 6109W        W78424  16.704  12.606  14.054
 6110W        W78425   9.154  18.227   2.461
 6111W        W78426  29.101  19.617  13.978
 6112W        W78427   6.315   6.860   3.877
 6113W        W78428  27.400  28.737   2.711
 6114W        W78429  10.350  10.726   1.078
 6115W        W78430   6.235   6.151  10.511
 6116W        W78431  15.670  22.636  12.176
 6117W        W78432  20.899  42.322   4.174
 6118W        W78433   9.817  41.604  12.978
 6119W        W78434  34.466  15.617   0.413
 6120W        W78435   3.468  30.713   0.870
 6121W        W78436  15.605  16.128  14.382
 6122W        W78437  30.943   8.451  11.203
 6123W        W78438   9.738   3.148  12.620
 6124W        W78439  13.515  10.331  12.100
 6125W        W78440   1.281  20.713   4.737
 6126W        W78441  15.713  13.133   4.103
 6127W        W78442  28.322  35.929  12.051
 6128W        W78443  27.531  31.099   2.733
 6129W        W78444  18.130  39.925   3.149
 6130W        W78445  35.421   4.450  11.649
 6131W        W78446  10.695  29.217   4.226
 6132W        W78447  17.196   8.102  12.358
 6133W        W78448   4.416  39.422  14.574
 6134W        W78449  16.832  33.012   0.186
 6135W        W78450  38.425   5.770   2.847
 6136W        W78451  18.660   5.227   2.769
 6137W        W78452  19.189  21.217  12.401
 6138W        W78453  24.010   9.708   0.752
 6139W        W78454  21.887  18.023  12.655
 6140W        W78455  34.370   3.469  12.724
 6141W        W78456  42.773  35.943   1.181
 6142W        W78457  14.189   5.162   2.299
 6143W        W78458   7.317  28.449  14.737
 6144W        W78459   8.223  36.541   2.815
 6145W        W78460  42.405  41.542   3.261
 6146W        W78461  38.778  24.177  14.049
 6147W        W78462  15.393  22.775   4.121
 6148W        W78463  44.316  11.356   1.334
 6149W        W78464  27.055  23.479  12.918
 6150W        W78465  31.959  31.133  11.128
 6151W        W78466  17.062   4.313   1.269
 6152W        W78467   1.972  27.056   0.892
 6153W        W78468  20.317  43.957   1.677
 6154W        W78469  44.982  14.784  12.630
 6155W        W78470  25.700  37.030   1.340
 6156W        W78471  18.777  16.589   4.210
 6157W        W78472   8.973   8.632  11.350
 6158W        W78473  18.067  37.558  13.036
 6159W        W78474  42.000  11.371  13.501
 6160W        W78475  12.550  10.663  14.411
 6161W        W78476  39.840   3.277  14.909
 6162W        W78477  21.384   1.969  14.498
 6163W        W78478  44.832   5.267  11.071
 6164W        W78479  15.815  36.417   0.875
 6165W        W78480  29.065  42.667  11.093
 6166W        W78481   9.175  35.411  10.384
 6167W        W78482  10.629  31.856  12.004
 6168W        W78483  30.696   9.432   4.569
 6169W        W78484  12.319   4.551  14.868
 6170W        W78485  10.876  27.644  14.057
 6171W        W78486  32.435   4.397  11.497
 6172W        W78487  38.455  37.511  11.972
 6173W        W78488  27.842  12.800  13.709
 6174W        W78489   1.863  14.351   0.206
 6175W        W78490  16.366   7.955   3.708
 6176W        W78491  28.933  42.835   4.096
 6177W        W78492  23.277  41.940  10.845
 6178W        W78493  11.200  35.651  12.091
 6179W        W78494  15.320  20.569   2.414
 6180W        W78495  12.467  38.167  14.041
 6181W        W78496  10.435   3.034  13.035
 6182W        W78497  20.465  33.574  10.697
 6183W        W78498   7.758  18.314  10.632
 6184W        W78499  28.094  36.491  11.221
 6185W        W78500  26.179  12.604   3.635
 6186W        W78501   7.151  15.132  10.574
 6187W        W78502  35.073   0.323  13.989
 6188W        W78503   4.956  24.060   2.655
 6189W        W78504  10.314  16.579   4.608
 6190W        W78505  24.151  23.694  10.687
 6191W        W78506  41.483  38.986   2.255
 6192W        W78507  17.864  19.811   1.685
 6193W        W78508  14.040  16.811   3.068
 6194W        W78509  26.487  30.277   2.778
 6195W        W78510  43.009   2.667   2.808
 6196W        W78511  39.881  14.341   0.535
 6197W        W78512  38.122  11.721  13.025
 6198W        W78513   6.614   9.086   1.035
 6199W        W78514  38.753  11.305   3.823
 6200W        W78515  17.979   0.731   3.644
 6201W        W78516  15.732   8.606   2.825
 6202W        W78517  24.254   8.972   3.531
 6203W        W78518  32.668  36.450  11.683
 6204W        W78519  42.432  15.953   0.317
 6205W        W78520  11.195  18.037  11.536
 6206W        W78521  18.848  38.076  11.943
 6207W        W78522  19.816  21.310   4.459
 6208W        W78523   7.832  13.245  14.231
 6209W        W78524  44.941  33.050  13.517
 6210W        W78525  40.008  28.953   1.595
 6211W        W78526  13.755   2.252   0.328
 6212W        W78527  16.518  24.828  12.534
 6213W        W78528  42.206   8.179   0.853
 6214W        W78529  41.291  14.267  12.660
 6215W        W78530   2.730  24.151  12.315
 6216W        W78531  11.405   1.971  10.449
 6217W        W78532  38.330  17.543   0.203
 6218W        W78533  37.946  29.174  13.426
 6219W        W78534   8.285  14.256   1.797
 6220W        W78535  13.181  44.339   2.416
 6221W        W78536  39.026  24.968  12.900
 6222W        W78537  38.023  11.148   4.661
 6223W        W78538   0.035  37.066   2.744
 6224W        W78539  43.431  44.685  14.799
 6225W        W78540  33.333   5.802   3.298
 6226W        W78541  35.133   5.367  14.367
 6227W        W78542  25.551  11.670  14.287
 6228W        W78543   4.705  15.918  10.786
 6229W        W78544  13.771   5.270  14.784
 6230W        W78545  15.198   4.278   3.176
 6231W        W78546  40.982  41.445   2.350
 6232W        W78547  16.796  32.339  11.488
 6233W        W78548  21.339  40.453  13.423
 6234W        W78549  30.570  39.979   4.290
 6235W        W78550  27.765  19.253   0.924
 6236W        W78551  18.782  29.275  14.963
 6237W        W78552  27.205  29.362  11.966
 6238W        W78553  23.119  23.639  13.266
 6239W        W78554   6.924  30.523  12.093
 6240W        W78555  14.760  11.840   4.731
 6241W        W78556  29.538  39.703  11.281
 6242W        W78557  18.131   7.494  11.538
 6243W        W78558  21.640  40.605  13.859
 6244W        W78559  20.380  28.462  14.848
 6245W        W78560   8.426  31.102  11.557
 6246W        W78561  12.238  26.448   4.285
 6247W        W78562  37.488  37.263  12.559
 6248W        W78563   0.046  24.033  13.319
 6249W        W78564  10.594   8.873   0.987
 6250W        W78565   8.363  33.809  15.000
 6251W        W78566  25.180  38.927  12.102
 6252W        W78567   2.743  26.702  10.702
 6253W        W78568  41.995  14.210  10.617
 6254W        W78569   9.874  20.932  14.098
 6255W        W78570  14.673  18.510  11.177
 6256W        W78571  36.086  19.239   3.041
 6257W        W78572   5.446   8.064  10.535
 6258W        W78573  11.583  34.640  11.060
 6259W        W78574  30.680  13.659  11.956
 6260W        W78575  12.643  14.482  10.362
 6261W        W78576  26.726  22.575  14.908
 6262W        W78577  20.941  10.427   2.503
 6263W        W78578  12.155  43.371   4.099
 6264W        W78579  17.835  29.486   3.396
 6265W        W78580   1.771   4.875   1.268
 6266W        W78581  15.724   4.157  13.479
 6267W        W78582   0.339  15.088  13.027
 6268W        W78583  14.311  15.557  12.364
 6269W        W78584  26.249  37.752  14.363
 6270W        W78585  43.090  26.396  10.438
 6271W        W78586  14.293   2.487   3.031
 6272W        W78587  29.103  41.405  14.009
 6273W        W78588  28.871  23.005   4.495
 6274W        W78589   4.565  42.831   4.163
 6275W        W78590  43.183   6.807   2.229
 6276W        W78591  24.262   5.185  12.082
 6277W        W78592  14.122   2.241   3.471
 6278W        W78593  18.390  18.188   4.883
 6279W        W78594  14.608  41.599  14.466
 6280W        W78595  19.102  34.462   3.281
 6281W        W78596  37.441  12.662   0.075
 6282W        W78597   6.896  27.845  11.161
 6283W        W78598  36.535  24.464  14.561
 6284W        W78599  19.327  22.422  13.977
 6285W        W78600  18.488  24.091  11.538
 6286W        W78601  30.989   1.286  14.561
 6287W        W78602  36.071  24.488  14.383
 6288W        W78603  33.034  33.137   1.807
 6289W        W78604  21.244  14.762  11.038
 6290W        W78605  14.233  27.931  11.902
 6291W        W78606   5.964  41.352  12.096
 6292W        W78607  43.056  20.976   4.106
 6293W        W78608   3.694  42.684   2.722
 6294W        W78609  19.789  34.418   2.800
 6295W        W78610   4.130  35.374  13.386
 6296W        W78611  42.884   7.607   3.918
 6297W        W78612  21.288  11.216   2.267
 6298W        W78613  26.129  30.701  11.920
 6299W        W78614  16.765   6.774  10.867
 6300W        W78615  14.891  43.361   4.746
 6301W        W78616  40.330  20.234  14.254
 6302W        W78617  44.502   4.717   9.875
 6303W        W78618  30.580  34.427   1.381
 6304W        W78619   4.221   6.316   1.917
 6305W        W78620  37.070  34.389   3.823
 6306W        W78621  28.602  31.855   5.286
 6307W        W78622   0.724  35.060   0.662
 6308W        W78623  24.138  28.916  10.721
 6309W        W78624  31.175  16.654  12.825
 6310W        W78625  34.338  31.793   5.190
 6311W        W78626  38.601   5.859  13.480
 6312W        W78627  23.324   6.210   3.304
 6313W        W78628  33.571  25.162  11.570
 6314W        W78629  38.008  19.655   0.907
 6315W        W78630  44.880  27.644   1.209
 6316W        W78631  26.998  31.352   4.714
 6317W        W78632  43.535  30.189   3.211
 6318W        W78633  17.863  29.500  11.704
 6319W        W78634  15.628  20.327   4.059
 6320W        W78635   6.511  31.028  13.805
 6321W        W78636  23.550  17.324   4.358
 6322W        W78637  15.331  19.541   3.686
 6323W        W78638  44.845  42.282   2.913
 6324W        W78639  24.252  32.291   0.320
 6325W        W78640  28.232  39.587  14.400
 6326W        W78641  31.142  17.656   4.426
 6327W        W78642  33.563  33.719   2.804
 6328W        W78643   0.779   5.877   1.213
 6329W        W78644  13.295  31.608  11.199
 6330W        W78645  24.772   1.380   4.816
 6331W        W78646  38.359  30.071   3.140
 6332W        W78647   7.074  34.057  14.658
 6333W        W78648   0.282   9.752   0.467
 6334W        W78649  15.642  12.532  13.950
 6335W        W78650  41.688  26.069  13.195
 6336W        W78651  10.904  12.632  10.649
 6337W        W78652  22.172  19.668  10.756
 6338W        W78653  16.147   7.784  11.232
 6339W        W78654  36.552  21.751   2.732
 6340W        W78655   3.482  43.845  12.534
 6341W        W78656   2.366  39.243   1.845
 6342W        W78657  28.227   2.820  10.279
 6343W        W78658  31.514   4.840   0.528
 6344W        W78659  32.280   7.819   1.189
 6345W        W78660  23.023  13.381  12.815
 6346W        W78661  29.402  34.449  13.827
 6347W        W78662   9.768  42.272  11.822
 6348W        W78663  16.343  15.568   2.706
 6349W        W78664  26.989  41.814  14.558
 6350W        W78665  18.626  14.655  13.562
 6351W        W78666  16.849  24.266  11.191
 6352W        W78667   0.670  27.172  14.737
 6353W        W78668  41.786  13.957   1.377
 6354W        W78669  18.627  38.528  13.226
 6355W        W78670   7.543  34.961   0.390
 6356W        W78671  41.888  23.764  12.966
 6357W        W78672  25.266  16.791   0.883
 6358W        W78673  17.917  23.688  11.138
 6359W        W78674  27.011  40.011   2.270
 6360W        W78675  30.217  18.982   1.796
 6361W        W78676  13.915  27.187   3.767
 6362W        W78677   9.268  21.058   4.587
 6363W        W78678  29.543  31.804   4.686
 6364W        W78679   6.725  39.919   0.859
 6365W        W78680  20.463  31.645   4.108
 6366W        W78681  30.666  15.180  10.644
 6367W        W78682  37.244  42.960   0.418
 6368W        W78683  27.217  42.471   0.439
 6369W        W78684  37.922  22.799  14.411
 6370W        W78685  35.113  35.640  14.294
 6371W        W78686  41.042   7.459   2.069
 6372W        W78687  39.840  42.876  10.793
 6373W        W78688  19.490  11.413   9.550
 6374W        W78689  16.348  17.766  14.440
 6375W        W78690  14.731  27.984   2.330
 6376W        W78691  31.645   8.149   0.615
 6377W        W78692  24.823  19.755  11.997
 6378W        W78693   8.793  12.826   2.561
 6379W        W78694   2.348  40.556  12.066
 6380W        W78695   7.302  13.791  10.666
 6381W        W78696   1.802  24.726   1.125
 6382W        W78697  14.072  12.987  14.338
 6383W        W78698  40.780  33.032   0.373
 6384W        W78699  34.760   4.353  12.377
 6385W        W78700   3.697   9.177  10.629
 6386W        W78701  22.276  22.762   1.074
 6387W        W78702  17.166  13.224  10.750
 6388W        W78703  32.484   5.406  13.599
 6389W        W78704  28.081   2.806   2.306
 6390W        W78705  33.977  18.144   4.666
 6391W        W78706  37.807   8.922   1.029
 6392W        W78707   4.030  13.241  12.066
 6393W        W78708   5.743  25.250   0.273
 6394W        W78709  20.995   9.782   1.843
 6395W        W78710  23.971   9.427  14.472
 6396W        W78711  44.545  20.500   0.247
 6397W        W78712  33.608  11.901   2.325
 6398W        W78713  10.652   0.761  10.702
 6399W        W78714   3.395  22.155   3.737
 6400W        W78715  34.907   4.203   2.647
 6401W        W78716  15.430  27.565   0.490
 6402W        W78717  38.025   3.267  12.216
 6403W        W78718  29.728  22.512  10.195
 6404W        W78719  14.673  35.234  13.413
 6405W        W78720  25.906   3.829   3.577
 6406W        W78721   6.704  42.485   1.483
 6407W        W78722  14.963  23.517   3.047
 6408W        W78723  35.974   4.916  10.604
 6409W        W78724   5.717  40.983  11.261
 6410W        W78725  25.584  38.854   2.422
 6411W        W78726  31.476  43.251   4.662
 6412W        W78727   1.981  38.962   3.269
 6413W        W78728   4.910  32.649  13.065
 6414W        W78729   2.944  28.593   0.326
 6415W        W78730  44.429  10.052  11.170
 6416W        W78731  22.945  34.385   0.202
 6417W        W78732  21.522  20.200  11.794
 6418W        W78733  23.234  37.372   4.065
 6419W        W78734  35.565  30.147  11.858
 6420W        W78735   1.996  17.702  13.811
 6421W        W78736  24.941  29.434   1.190
 6422W        W78737   9.449  29.215  12.475
 6423W        W78738  16.639  15.802  12.401
 6424W        W78739  26.894  15.615  10.621
 6425W        W78740   4.742   4.236  11.185
 6426W        W78741   5.324  43.907   1.335
 6427W        W78742  44.001  33.887  13.013
 6428W        W78743  36.823   6.294  13.589
 6429W        W78744  13.805  32.132   0.390
 6430W        W78745  12.056  21.959  10.968
 6431W        W78746  36.500  39.281  14.804
 6432W        W78747   1.943   2.225  13.620
 6433W        W78748   0.799  22.204  11.005
 6434W        W78749  14.131  34.503  14.386
 6435W        W78750  29.671  36.398  13.923
 6436W        W78751  11.700  37.078   1.683
 6437W        W78752  44.471  44.842   0.441
 6438W        W78753  12.113  12.863   4.933
 6439W        W78754  14.352  27.423  13.969
 6440W        W78755   3.800  32.603  13.491
 6441W        W78756  37.292  42.361  10.616
 6442W        W78757  27.449  29.975  10.654
 6443W        W78758   5.420   2.308  10.768
 6444W        W78759  43.788   3.371   2.183
 6445W        W78760  38.012   5.390   3.179
 6446W        W78761   5.301   4.978   1.880
 6447W        W78762  35.241  28.031  12.383
 6448W        W78763  19.759   6.331   3.392
 6449W        W78764  27.567  25.311  14.882
 6450W        W78765  35.077   8.390   3.756
 6451W        W78766  39.410   7.935   1.959
 6452W        W78767  15.514  11.912   5.018
 6453W        W78768  20.562   2.455  11.036
 6454W        W78769  18.233  40.699   0.896
 6455W        W78770  25.631  24.511   0.286
 6456W        W78771  41.099  26.527  10.482
 6457W        W78772  14.613  44.950  10.599
 6458W        W78773  22.268  21.762  10.156
 6459W        W78774  19.136  23.645  13.354
 6460W        W78775   5.142   9.596   1.335
 6461W        W78776  32.889  29.306   1.978
 6462W        W78777   1.275  37.329   3.088
 6463W        W78778  43.247  30.469   1.804
 6464W        W78779  16.337  17.859  13.015
 6465W        W78780   9.595  26.159   0.332
 6466W        W78781  42.969  38.507  10.747
 6467W        W78782  42.028  29.474  12.991
 6468W        W78783  21.206  18.262   0.668
 6469W        W78784  24.973   9.808  12.470
 6470W        W78785  11.384  18.222  11.084
 6471W        W78786   9.827   6.025  12.972
 6472W        W78787  19.631   1.866   0.308
 6473W        W78788  11.137  26.008   4.306
 6474W        W78789  36.545   8.161   0.307
 6475W        W78790  10.394  27.948   4.175
 6476W        W78791  21.759   5.247   4.915
 6477W        W78792  12.623   3.119  10.889
 6478W        W78793  12.763  23.285  13.297
 6479W        W78794  31.849  34.609   3.238
 6480W        W78795  23.111   2.967  14.912
 6481W        W78796  16.307  42.364  10.721
 6482W        W78797   6.424  39.556   2.326
 6483W        W78798  32.855  27.947   2.302
 6484W        W78799  31.025  16.865  14.898
 6485W        W78800  38.854  17.592  10.573
 6486W        W78801  12.254  26.201   4.813
 6487W        W78802  38.041  29.854   3.934
 6488W        W78803  39.437  39.664   2.117
 6489W        W78804   9.395  33.926  14.411
 6490W        W78805  17.361  27.928  10.998
 6491W        W78806  41.748  18.485   4.304
 6492W        W78807  25.204  10.772  14.090
 6493W        W78808  27.663  15.836   4.142
 6494W        W78809   0.935  17.107  14.907
 6495W        W78810   4.376  20.679  10.959
 6496W        W78811  16.277  28.048  12.053
 6497W        W78812  40.525  33.053  14.896
 6498W        W78813  31.624  26.043  14.712
 6499W        W78814   7.870  20.845   4.849
 6500W        W78815  31.921  23.745  11.628
 6501W        W78816  27.894  29.142   1.231
 6502W        W78817  25.041  31.549   1.106
 6503W        W78818  29.999  29.901   1.695
 6504W        W78819   6.393  40.489   0.660
 6505W        W78820  23.755  36.021   4.164
 6506W        W78821  36.896   3.899   1.646
 6507W        W78822  31.007  37.036   4.639
 6508W        W78823  11.717  21.625   1.766
 6509W        W78824  28.161  32.458  14.411
 6510W        W78825   9.292  17.978   3.408
 6511W        W78826  40.480  18.923   3.153
 6512W        W78827  15.661  17.684  12.502
 6513W        W78828   8.663   0.867  12.274
 6514W        W78829  28.616   6.139   4.077
 6515W        W78830  30.346  36.449   1.984
 6516W        W78831  28.953   6.473   2.430
 6517W        W78832  31.848  39.942  12.100
 6518W        W78833  40.978   7.142  10.707
 6519W        W78834   9.185  10.516  13.084
 6520W        W78835   1.898   8.662   0.083
 6521W        W78836  20.069  29.157   3.669
 6522W        W78837  29.362   7.542   3.389
 6523W        W78838  15.149  22.169  14.059
 6524W        W78839  26.079   4.146   1.801
 6525W        W78840   1.555   9.319   1.506
 6526W        W78841   5.439   9.356  13.752
 6527W        W78842  33.420  37.837   2.341
 6528W        W78843   7.463  21.169   4.963
 6529W        W78844  36.055   7.388  12.466
 6530W        W78845  25.447  20.477  13.009
 6531W        W78846  12.300  22.995  13.417
 6532W        W78847  36.976  18.659   2.250
 6533W        W78848  27.542  11.362   1.770
 6534W        W78849  40.334  18.827  11.230
 6535W        W78850  19.390  26.931  10.353
 6536W        W78851  15.663  41.575  10.312
 6537W        W78852   0.901  18.727  12.306
 6538W        W78853  26.560  28.038   0.334
 6539W        W78854  29.652  35.908  10.653
 6540W        W78855  14.412  25.881   4.232
 6541W        W78856  36.845  40.433   2.593
 6542W        W78857  27.179  37.881  12.567
 6543W        W78858  32.489  37.964   1.852
 6544W        W78859  24.695  10.720   4.156
 6545W        W78860  40.241   9.287  13.922
 6546W        W78861  44.539  38.373   4.183
 6547W        W78862  32.449  37.531  11.627
 6548W        W78863  25.949  11.371   2.385
 6549W        W78864  26.887  14.777   1.748
 6550W        W78865   9.352  14.872   2.145
 6551W        W78866  44.917  21.102  14.703
 6552W        W78867  29.367  35.078  10.770
 6553W        W78868  15.594   2.216  13.397
 6554W        W78869  17.332   7.391   4.498
 6555W        W78870  40.777  35.600   0.844
 6556W        W78871  39.954   1.520   4.368
 6557W        W78872   9.952   2.351   3.663
 6558W        W78873  40.534  23.442   3.358
 6559W        W78874  21.511  23.088   2.155
 6560W        W78875  30.654   9.035   4.212
 6561W        W78876  24.272  28.087   4.001
 6562W        W78877  32.141   8.195   0.822
 6563W        W78878  20.672  35.075  11.649
 6564W        W78879   7.836  14.258   2.070
 6565W        W78880  11.191   4.718   2.386
 6566W        W78881  21.847  36.357   1.364
 6567W        W78882  22.429  32.310   2.303
 6568W        W78883  24.202  10.816   4.382
 6569W        W78884   4.385  37.096  10.451
 6570W        W78885  28.514   5.332   0.395
 6571W        W78886  19.079  29.618  11.089
 6572W        W78887  34.474  44.891   2.112
 6573W        W78888  11.095  29.606   4.126
 6574W        W78889  10.268  11.295   3.372
 6575W        W78890  38.572  15.011   2.173
 6576W        W78891  22.295  40.168  10.865
 6577W        W78892   0.393  15.544   2.968
 6578W        W78893  22.687  15.571   1.164
 6579W        W78894   1.453  15.388   1.835
 6580W        W78895  43.332  14.342   1.293
 6581W        W78896   7.829   3.746   2.157
 6582W        W78897  29.503  43.719  12.906
 6583W        W78898  16.005  18.267  13.059
 6584W        W78899  16.928  44.898   1.485
 6585W        W78900  27.595   9.983   3.197
 6586W        W78901  31.913  33.400   3.697
 6587W        W78902  18.375  16.926  14.746
 6588W        W78903  37.797  38.013  13.117
 6589W        W78904  32.135  32.463   2.692
 6590W        W78905  11.245  29.250   1.960
 6591W        W78906   5.455   0.013   0.709
 6592W        W78907  16.387  40.634   1.390
 6593W        W78908  18.090   7.284  14.868
 6594W        W78909  14.840  18.214  13.898
 6595W        W78910  42.813   8.991   2.753
 6596W        W78911  16.854  18.455   0.320
 6597W        W78912  13.647  41.830  14.485
 6598W        W78913  16.607  19.006   3.794
 6599W        W78914   0.037   9.460  14.090
 6600W        W78915  40.936  38.075  13.878
 6601W        W78916  19.745   9.511  12.910
 6602W        W78917  30.098  13.151  12.470
 6603W        W78918  43.235  32.657   0.466
 6604W        W78919  17.558  23.704  11.668
 6605W        W78920   5.919  36.376   3.596
 6606W        W78921  33.824  32.324   0.847
 6607W        W78922  43.755   2.031  13.022
 6608W        W78923  17.237  24.456  10.570
 6609W        W78924  35.753   7.776  12.367
 6610W        W78925  34.126  44.332  14.970
 6611W        W78926   5.195  30.227   3.314
 6612W        W78927  18.347  30.395   0.093
 6613W        W78928   4.646  17.271  14.315
 6614W        W78929  34.427  35.382   1.392
 6615W        W78930  37.333  42.515  13.596
 6616W        W78931  33.097   2.291  14.620
 6617W        W78932  14.732  14.293   1.800
 6618W        W78933  21.437   7.847  12.883
 6619W        W78934  33.990  31.177   4.109
 6620W        W78935  18.627  19.731   2.550
 6621W        W78936  29.182  30.211  12.935
 6622W        W78937  14.329   5.451  12.165
 6623W        W78938  11.176  30.593   3.268
 6624W        W78939   5.220  19.753  11.228
 6625W        W78940  20.715  16.706   2.403
 6626W        W78941  38.128  15.121  12.649
 6627W        W78942  11.095   2.676   4.099
 6628W        W78943  17.811  35.346  13.829
 6629W        W78944  14.611  18.344  14.372
 6630W        W78945  23.912  30.336  11.032
 6631W        W78946  13.349  13.942   1.514
 6632W        W78947  26.069  23.239  14.514
 6633W        W78948  34.162   9.872   4.909
 6634W        W78949  15.802  39.328  14.102
 6635W        W78950   2.681  37.388   2.235
 6636W        W78951   0.906  31.536   1.194
 6637W        W78952  25.007  21.133  12.558
 6638W        W78953   8.382  37.632   2.229
 6639W        W78954  24.493  33.053   4.239
 6640W        W78955  20.838  22.669   4.384
 6641W        W78956  24.019  11.768  13.685
 6642W        W78957  33.244   2.624  13.035
 6643W        W78958  10.239  34.104  14.835
 6644W        W78959  28.069  16.738  14.415
 6645W        W78960   7.636   1.944  13.446
 6646W        W78961  41.740  33.413   0.974
 6647W        W78962  19.087  18.158  12.071
 6648W        W78963   1.936  21.151  14.808
 6649W        W78964  34.282  31.885   4.164
 6650W        W78965   7.874  42.895   0.375
 6651W        W78966  19.487   3.408  14.831
 6652W        W78967  44.251  37.114  13.013
 6653W        W78968  40.496  30.073  11.636
 6654W        W78969  24.977  24.032   3.641
 6655W        W78970  34.619  30.501   5.127
 6656W        W78971  31.890  35.514  14.425
 6657W        W78972  32.439   7.812   1.690
 6658W        W78973  37.075  40.500  12.893
 6659W        W78974  32.121  43.258  14.925
 6660W        W78975  36.092  37.262   5.081
 6661W        W78976  14.340   8.369   1.318
 6662W        W78977  17.609  17.082   1.549
 6663W        W78978   8.119  44.339   1.845
 6664W        W78979   1.939   0.065  12.106
 6665W        W78980  34.668  19.428   0.858
 6666W        W78981  37.834  42.931  14.969
 6667W        W78982  10.391   6.468   4.456
 6668W        W78983  23.495  44.854   0.369
 6669W        W78984  39.443  19.671  14.309
 6670W        W78985   6.431  40.568  11.001
 6671W        W78986  27.857  25.226  13.462
 6672W        W78987  36.292  41.666   5.092
 6673W        W78988  25.136  43.331  10.875
 6674W        W78989  21.182   4.287  11.755
 6675W        W78990  19.260  15.560  13.112
 6676W        W78991  10.290  32.544  14.313
 6677W        W78992  14.172  21.068   3.579
 6678W        W78993   7.388  19.197   1.171
 6679W        W78994  21.372  17.145  13.503
 6680W        W78995   4.298  33.541   4.723
 6681W        W78996  17.273  36.532  12.899
 6682W        W78997  27.380   1.655   2.577
 6683W        W78998  38.204  19.492   0.462
 6684W        W78999   3.256   4.101   4.604
 6685W        W79000  43.466   4.483  12.034
 6686W        W79001   3.073  19.187  14.029
 6687W        W79002  14.300  15.791   2.716
 6688W        W79003  22.119  24.460  11.708
 6689W        W79004  26.844   6.365  11.956
 6690W        W79005  16.662  13.788   4.536
 6691W        W79006  20.643   1.476   0.904
 6692W        W79007  29.086  31.021   0.445
 6693W        W79008  17.762   9.978   2.742
 6694W        W79009  19.044  13.776  13.875
 6695W        W79010  26.123  16.819  12.824
 6696W        W79011  20.893  33.683   3.789
 6697W        W79012  21.826  12.754  12.982
 6698W        W79013  22.636  15.304   3.148
 6699W        W79014  36.224  39.895   0.368
 6700W        W79015   0.324  14.542  14.912
 6701W        W79016  17.026  15.514  13.159
 6702W        W79017  41.957   3.308   0.821
 6703W        W79018  34.876  40.245  14.546
 6704W        W79019  41.308  28.432  14.988
 6705W        W79020  11.803   5.172   9.839
 6706W        W79021  42.748  37.969  14.997
 6707W        W79022   4.331  13.722   1.547
 6708W        W79023  36.153  18.557  11.982
 6709W        W79024  38.602  25.414  14.067
 6710W        W79025  35.191   1.778  13.038
 6711W        W79026  28.517  20.541   4.331
 6712W        W79027  43.194  41.798  11.031
 6713W        W79028  21.829  41.039   4.216
 6714W        W79029  25.478   2.848  11.962
 6715W        W79030  34.827  24.547  13.997
 6716W        W79031  19.662  33.422   4.624
 6717W        W79032  23.329  20.371  14.831
 6718W        W79033  27.620  31.213  12.484
 6719W        W79034   4.843  39.210  12.807
 6720W        W79035  20.925  36.425  14.331
 6721W        W79036  13.296   1.036   3.774
 6722W        W79037  44.361  20.738   1.834
 6723W        W79038  27.200  33.962  13.352
 6724W        W79039  34.879  38.545  11.329
 6725W        W79040   3.787  25.259   3.068
 6726W        W79041  13.210   1.790  14.080
 6727W        W79042  11.410   3.338   3.224
 6728W        W79043   4.210  39.477   3.695
 6729W        W79044  35.547  10.132  14.460
 6730W        W79045  15.857   6.735  13.534
 6731W        W79046  40.097  24.273  12.649
 6732W        W79047   7.814  26.707  11.280
 6733W        W79048  12.567  29.536   4.088
 6734W        W79049  25.173  23.289  14.373
 6735W        W79050  14.672  35.357  12.487
 6736W        W79051   6.879  23.706  11.428
 6737W        W79052  16.704   6.321  13.394
 6738W        W79053  16.903  17.649   0.937
 6739W        W79054  44.034  10.873   3.278
 6740W        W79055  28.343  32.336   1.824
 6741W        W79056  26.924   5.001   2.265
 6742W        W79057  44.473  42.078   4.108
 6743W        W79058  11.835   6.455   4.188
 6744W        W79059  10.161  34.435   1.413
 6745W        W79060   5.425   0.285  13.495
 6746W        W79061  37.969  18.613   2.329
 6747W        W79062  17.744  23.258   1.315
 6748W        W79063   1.468  24.425   0.807
 6749W        W79064   8.250  31.609   3.299
 6750W        W79065  36.695  44.333  11.554
 6751W        W79066   3.318  32.082  13.895
 6752W        W79067   6.437  24.029   4.593
 6753W        W79068  30.303  13.000   4.073
 6754W        W79069  16.905  42.004   3.317
 6755W        W79070  13.100  25.612  10.655
 6756W        W79071   9.675  15.598   1.196
 6757W        W79072  24.473  40.428  14.040
 6758W        W79073  31.439  12.053  12.517
 6759W        W79074  21.495  31.206  12.008
 6760W        W79075   3.611  28.892  13.513
 6761W        W79076  37.405  35.932  11.596
 6762W        W79077  14.838   2.523   3.790
 6763W        W79078  32.569   4.775  10.173
 6764W        W79079   9.565  43.498   1.242
 6765W        W79080   1.492  34.097  11.689
 6766W        W79081   5.692  17.270   4.734
 6767W        W79082  37.395  43.728   4.096
 6768W        W79083  17.671   2.751   1.796
 6769W        W79084  15.793  11.312   3.207
 6770W        W79085  20.349  30.343  14.764
 6771W        W79086  15.718  23.457   2.802
 6772W        W79087   9.183  32.527   4.076
 6773W        W79088   8.400   1.985  10.963
 6774W        W79089  30.717  27.534   1.648
 6775W        W79090  34.634  11.661   1.427
 6776W        W79091  36.860  31.905  11.508
 6777W        W79092  31.941  27.172  12.677
 6778W        W79093   9.886  22.472  13.697
 6779W        W79094  38.026  25.476   1.951
 6780W        W79095  39.481  36.962   4.378
 6781W        W79096  32.864  25.140  14.295
 6782W        W79097  18.167  43.607   0.006
 6783W        W79098  18.337   3.395   2.622
 6784W        W79099  27.005  27.585   0.956
 6785W        W79100  36.924  17.260  13.638
 6786W        W79101  16.752   1.515   3.305
 6787W        W79102   0.422   3.113  11.604
 6788W        W79103  29.441  19.701   2.834
 6789W        W79104  24.434  14.218   1.238
 6790W        W79105  42.608  33.906   2.872
 6791W        W79106  25.513  33.832  12.143
 6792W        W79107  27.561  18.018   4.636
 6793W        W79108  15.069  40.589  13.871
 6794W        W79109  29.895   3.550   0.796
 6795W        W79110  32.166  42.472   0.697
 6796W        W79111  44.746  25.997   1.901
 6797W        W79112  37.261  39.943  13.832
 6798W        W79113   1.456   2.804   3.870
 6799W        W79114  35.906  35.062  10.461
 6800W        W79115   6.613  28.116  13.049
 6801W        W79116  24.254   0.767  12.983
 6802W        W79117   9.435  44.416   9.764
 6803W        W79118  11.165  17.577   2.733
 6804W        W79119  24.014   3.383  14.878
 6805W        W79120  31.112   2.387   1.861
 6806W        W79121   6.961  17.592   0.716
 6807W        W79122   9.652  27.013   4.300
 6808W        W79123   0.250   1.997   0.958
 6809W        W79124   4.364  34.915   1.851
 6810W        W79125   1.261  37.922   1.936
 6811W        W79126  38.160   6.703   0.412
 6812W        W79127  15.292   1.476  14.017
 6813W        W79128  25.298  37.882  10.933
 6814W        W79129  40.707  44.742  12.909
 6815W        W79130   9.349   1.475   1.546
 6816W        W79131  26.579  11.524  11.440
 6817W        W79132  43.300   3.161  12.434
 6818W        W79133  22.509   6.682  11.133
 6819W        W79134  38.551  42.553   4.107
 6820W        W79135  24.282  33.726  13.354
 6821W        W79136  35.011  26.530   4.481
 6822W        W79137  29.032  33.593  13.279
 6823W        W79138  13.319  37.602  10.665
 6824W        W79139  31.989  29.058   2.106
 6825W        W79140  11.640  13.529   2.887
 6826W        W79141  38.988  42.967  12.380
 6827W        W79142   6.219  43.216   1.615
 6828W        W79143  11.343  33.077  12.189
 6829W        W79144   5.948  15.108   0.949
 6830W        W79145  25.564  10.582   2.456
 6831W        W79146  39.373  14.275   4.661
 6832W        W79147  12.484  25.164  14.601
 6833W        W79148  41.269  25.948   4.666
 6834W        W79149  20.227   4.801   0.907
 6835W        W79150  28.683  31.693  11.581
 6836W        W79151  21.555  19.522   1.246
 6837W        W79152   3.923  29.573  13.052
 6838W        W79153  43.141  39.312   5.023
 6839W        W79154  22.814  18.495  14.987
 6840W        W79155  31.605  30.659  14.320
 6841W        W79156  11.763   8.358  12.556
 6842W        W79157  20.209  37.491  13.037
 6843W        W79158   0.064  26.234  11.637
 6844W        W79159  29.669  22.728  13.820
 6845W        W79160   0.372  23.665   2.349
 6846W        W79161  35.591  14.928  11.171
 6847W        W79162  36.910  25.272   5.133
 6848W        W79163  37.874  15.160   1.211
 6849W        W79164  20.590   6.792  11.550
 6850W        W79165   0.723  14.290   3.611
 6851W        W79166  35.492  20.499  12.337
 6852W        W79167   7.305   0.840  11.556
 6853W        W79168   5.254  26.667  11.941
 6854W        W79169  11.724   5.253   0.937
 6855W        W79170  24.225   7.865   2.466
 6856W        W79171   0.278  42.832  13.406
 6857W        W79172  27.610  10.512   1.446
 6858W        W79173   7.417   8.895  13.889
 6859W        W79174  42.841  44.868   3.112
 6860W        W79175  21.809   0.337  14.003
 6861W        W79176  33.856  41.084   2.210
 6862W        W79177  12.206  41.807   2.698
 6863W        W79178  20.024   5.439   2.185
 6864W        W79179  24.161   2.827   2.588
 6865W        W79180   4.926  16.578  11.202
 6866W        W79181  40.846  34.442  13.247
 6867W        W79182  18.551  40.116  11.105
 6868W        W79183  34.626  11.201   1.750
 6869W        W79184  28.092  27.612  14.298
 6870W        W79185  43.248  17.285   3.088
 6871W        W79186  29.702  40.134  11.497
 6872W        W79187  33.876   4.760  13.142
 6873W        W79188  41.811  31.510   1.826
 6874W        W79189  35.777  23.037   4.715
 6875W        W79190  33.603  35.876  12.475
 6876W        W79191  11.681  26.442  11.049
 6877W        W79192   7.730  34.394  13.398
 6878W        W79193   4.860  34.464   2.740
 6879W        W79194  28.514   8.845  14.877
 6880W        W79195   4.393  32.541   3.890
 6881W        W79196  38.314  31.580  12.020
 6882W        W79197  40.236  44.803  11.581
 6883W        W79198  20.335  10.757  14.289
 6884W        W79199  16.770   2.028   3.292
 6885W        W79200  37.937  33.512   4.489
 6886W        W79201  19.620  13.507  11.114
 6887W        W79202  26.157  44.316   0.295
 6888W        W79203  21.137  41.940  12.424
 6889W        W79204  25.230  15.186   3.321
 6890W        W79205  27.063  30.574   4.947
 6891W        W79206  24.227  42.517   4.659
 6892W        W79207   0.481  16.250  14.689
 6893W        W79208  34.975   4.148  11.381
 6894W        W79209   7.771  21.311   2.613
 6895W        W79210  21.519  42.302  14.513
 6896W        W79211  16.847  39.617  10.236
 6897W        W79212  34.835  27.151   0.911
 6898W        W79213  27.986   8.473  12.596
 6899W        W79214  15.689   0.137   4.591
 6900W        W79215   0.627  17.889   4.984
 6901W        W79216  41.335  31.008  13.220
 6902W        W79217  44.559  11.387  12.886
 6903W        W79218  13.076  23.102   1.048
 6904W        W79219  20.464   2.914   2.211
 6905W        W79220  36.006  39.593  13.028
 6906W        W79221   6.679  43.344   3.414
 6907W        W79222  39.018  29.694   4.118
 6908W        W79223  25.028   1.742   4.435
 6909W        W79224  17.062  36.885  10.743
 6910W        W79225  11.513  24.716  11.614
 6911W        W79226  39.485  27.479   2.653
 6912W        W79227   8.888  19.242   4.370
 6913W        W79228  26.091  38.248  14.312
 6914W        W79229  40.239  15.389  14.442
 6915W        W79230  18.441  35.655   1.208
 6916W        W79231  38.859  40.327  12.589
 6917W        W79232  12.299  16.610   2.736
 6918W        W79233  30.497  32.621   2.902
 6919W        W79234   5.551  33.553  14.630
 6920W        W79235  40.886   8.874  11.674
 6921W        W79236  11.780  12.412  11.544
 6922W        W79237  18.205  38.005  11.121
 6923W        W79238  17.062  28.700   1.436
 6924W        W79239  28.254  34.524   4.960
 6925W        W79240  33.890   7.667   0.018
 6926W        W79241  33.071  10.207  11.035
 6927W        W79242  34.213   8.711   4.041
 6928W        W79243   5.449  39.359   2.283
 6929W        W79244   1.913  22.673   4.255
 6930W        W79245   2.747   9.009  11.218
 6931W        W79246  21.183  40.584  12.150
 6932W        W79247  18.657  33.647   2.140
 6933W        W79248  10.942  39.201   2.600
 6934W        W79249  16.845   2.043  11.595
 6935W        W79250   2.336  36.024   3.617
 6936W        W79251   0.217  34.362   4.753
 6937W        W79252   3.271  44.373   1.920
 6938W        W79253   9.147   3.271  13.802
 6939W        W79254  24.258  25.641   1.824
 6940W        W79255  33.658  21.004  10.914
 6941W        W79256   4.249  29.997  10.886
 6942W        W79257  28.496  38.325   2.737
 6943W        W79258   7.884  23.699   1.254
 6944W        W79259  40.923  30.011  12.439
 6945W        W79260  25.577  26.694   3.658
 6946W        W79261   5.117  23.174  13.519
 6947W        W79262   6.100  16.231   0.810
 6948W        W79263  12.888  15.604  12.624
 6949W        W79264  29.299  26.542   4.517
 6950W        W79265  39.894  21.262   3.148
 6951W        W79266  42.581   1.705   0.759
 6952W        W79267   4.275  10.111   3.874
 6953W        W79268   2.850  23.612   0.692
 6954W        W79269  39.342  18.825  12.579
 6955W        W79270  32.364   5.857  11.513
 6956W        W79271  10.833  14.212   1.831
 6957W        W79272  23.473   4.349   0.010
 6958W        W79273  43.706  30.471  12.586
 6959W        W79274  17.465  16.344  12.931
 6960W        W79275  22.247  18.620   4.087
 6961W        W79276  41.415  13.409  11.604
 6962W        W79277  19.377  19.774   0.811
 6963W        W79278  39.583  13.821  14.884
 6964W        W79279  42.850  13.930  12.404
 6965W        W79280  29.942  43.479  10.671
 6966W        W79281   8.268   3.351   3.852
 6967W        W79282  39.690  42.914   0.241
 6968W        W79283  22.027   4.310  11.191
 6969W        W79284  25.425   7.135  11.429
 6970W        W79285   0.243  20.513   3.543
 6971W        W79286  39.496  44.857  11.138
 6972W        W79287  41.408  18.039  13.989
 6973W        W79288  10.746  39.032   4.188
 6974W        W79289  44.995  35.110   4.711
 6975W        W79290   2.412  22.286  10.737
 6976W        W79291  18.685  23.910   0.825
 6977W        W79292  39.482  21.674  12.143
 6978W        W79293  44.990  38.459  13.924
 6979W        W79294  15.355   1.861  11.549
 6980W        W79295  21.842   7.834  14.775
 6981W        W79296  30.654  30.525  11.900
 6982W        W79297   6.152  25.110   1.061
 6983W        W79298  15.344  34.863   1.882
 6984W        W79299  24.471  17.622  13.372
 6985W        W79300  14.522  38.113   3.202
 6986W        W79301  14.593  34.945  12.203
 6987W        W79302  19.072  11.296   0.268
 6988W        W79303  43.964  33.480   1.508
 6989W        W79304  44.810  29.248  13.860
 6990W        W79305  29.044  30.545   0.189
 6991W        W79306  29.603  37.795   1.639
 6992W        W79307  29.357  31.513  13.537
 6993W        W79308  43.329  16.102  13.474
 6994W        W79309  33.370  23.543   2.303
 6995W        W79310  43.764  17.642   3.757
 6996W        W79311   8.431   1.726  14.983
 6997W        W79312  38.988  26.607  13.105
 6998W        W79313   2.917   5.972  13.466
 6999W        W79314  25.636   4.205   9.810
 7000W        W79315  17.408  39.095   3.954
 7001W        W79316  33.782  44.336   3.648
 7002W        W79317  14.675  20.860   0.981
 7003W        W79318  14.249  35.366   2.327
 7004W        W79319  39.921  13.317  11.134
 7005W        W79320  39.867  33.983  12.602
 7006W        W79321   5.376  36.449  13.817
 7007W        W79322  27.180   1.901  12.808
 7008W        W79323   3.280   8.554  14.883
 7009W        W79324   2.256  37.723   3.564
 7010W        W79325  29.745  35.752  13.635
 7011W        W79326   2.271   9.099  13.951
 7012W        W79327   4.252   3.870  13.178
 7013W        W79328   8.164  28.547  10.985
 7014W        W79329  20.377  36.398  14.060
 7015W        W79330  38.737   9.241  13.847
 7016W        W79331  13.790  21.812  11.996
 7017W        W79332  25.100  22.753  14.356
 7018W        W79333  28.198  34.997   1.984
 7019W        W79334  44.963  13.132   2.858
 7020W        W79335   7.158  32.869  12.149
 7021W        W79336   8.539  30.319   2.642
 7022W        W79337  35.484  40.320  10.747
 7023W        W79338  28.171   4.863  11.961
 7024W        W79339   7.142  29.259  13.622
 7025W        W79340  10.381  19.338   5.410
 7026W        W79341  14.782  41.729  11.127
 7027W        W79342  36.977   7.818   4.463
 7028W        W79343   8.982   2.254   3.606
 7029W        W79344  20.658   4.380   3.842
 7030W        W79345   0.884  22.673   0.317
 7031W        W79346  35.631  18.593  14.851
 7032W        W79347   2.011  22.070   0.408
 7033W        W79348  12.804  16.974  12.454
 7034W        W79349   6.128  41.857   3.543
 7035W        W79350  38.874  43.734   2.395
 7036W        W79351  23.960  40.765  13.003
 7037W        W79352  35.288  30.104  13.496
 7038W        W79353  40.784  24.929  10.256
 7039W        W79354  30.510  37.683   4.288
 7040W        W79355  31.203  23.267  12.347
 7041W        W79356  26.747  35.570  11.528
 7042W        W79357  29.778  31.882  14.942
 7043W        W79358  44.826   5.185   1.334
 7044W        W79359   5.462  18.810   2.749
 7045W        W79360  29.628  15.521  11.093
 7046W        W79361  33.416   6.257  12.446
 7047W        W79362   3.066  26.983   1.883
 7048W        W79363  10.235  13.851  12.086
 7049W        W79364  43.578  34.648  12.682
 7050W        W79365   9.240  41.868   0.742
 7051W        W79366  41.761  38.508   0.941
 7052W        W79367  25.792  14.489  14.427
 7053W        W79368  18.215   2.004  13.792
 7054W        W79369   1.838   1.065  11.977
 7055W        W79370  27.092  16.823   3.137
 7056W        W79371  30.968  22.798  12.481
 7057W        W79372  44.891  28.637  11.538
 7058W        W79373  18.173   3.511  12.872
 7059W        W79374  31.572   3.860   0.137
 7060W        W79375  24.187  36.309   4.071
 7061W        W79376  36.069  42.693   1.669
 7062W        W79377  42.506  16.695  10.685
 7063W        W79378  17.834   8.908  12.677
 7064W        W79379  29.105   0.525   1.902
 7065W        W79380  29.908  26.906  14.073
 7066W        W79381   9.375  28.195   1.265
 7067W        W79382   0.912  35.750   4.235
 7068W        W79383  32.518   5.210   1.655
 7069W        W79384  39.043  35.245   0.385
 7070W        W79385   6.027  13.824  14.758
 7071W        W79386  20.237   0.846  11.128
 7072W        W79387  33.797  14.505   4.067
 7073W        W79388  36.115  39.518   4.491
 7074W        W79389  42.582  43.749  12.385
 7075W        W79390   0.770  29.594   4.659
 7076W        W79391  22.611  32.051  10.108
 7077W        W79392  37.462  23.576   4.812
 7078W        W79393  39.417  21.650  11.271
 7079W        W79394  43.955  21.148  11.987
 7080W        W79395  15.538  31.400   1.520
 7081W        W79396  43.476  24.515   2.629
 7082W        W79397  43.574  20.486   4.643
 7083W        W79398   6.804   7.251   3.569
 7084W        W79399  39.056  16.151  10.383
 7085W        W79400  21.251  13.841  11.108
 7086W        W79401  17.256  33.480   3.896
 7087W        W79402  35.242  41.230   0.875
 7088W        W79403   3.387  17.884  12.044
 7089W        W79404   5.572  17.908  13.860
 7090W        W79405  34.048  40.183   4.520
 7091W        W79406  22.616  26.141  12.226
 7092W        W79407  19.768  38.535  13.507
 7093W        W79408  15.686  39.694   4.194
 7094W        W79409  18.761  24.477   2.281
 7095W        W79410  43.990   3.003  11.478
 7096W        W79411  39.204  43.444   2.111
 7097W        W79412  21.930  34.649   3.838
 7098W        W79413  43.949  27.871   0.769
 7099W        W79414  23.073  38.904   0.865
 7100W        W79415  36.102   0.977  12.510
 7101W        W79416  11.298  16.098  14.706
 7102W        W79417  23.959   0.230   2.427
 7103W        W79418  10.048   3.823  13.581
 7104W        W79419  31.655  36.575  10.792
 7105W        W79420  43.804  17.039  10.643
 7106W        W79421  14.758  23.969   2.834
 7107W        W79422   5.033  25.183   3.200
 7108W        W79423  34.029  32.963  13.898
 7109W        W79424  40.772   9.236  13.892
 7110W        W79425  29.726  23.358  10.707
 7111W        W79426   9.690   8.292   2.258
 7112W        W79427  44.811  12.285   1.329
 7113W        W79428   2.938  26.497   2.220
 7114W        W79429   6.808   4.658  13.413
 7115W        W79430   2.397  28.933  13.850
 7116W        W79431  37.255   0.349   1.119
 7117W        W79432   5.812  43.822   1.202
 7118W        W79433   4.053  16.652  11.464
 7119W        W79434  38.114  39.026  10.277
 7120W        W79435   3.829  32.106  14.067
 7121W        W79436  16.724  39.020   1.916
 7122W        W79437  10.612  44.847  14.841
 7123W        W79438  13.166  14.367   1.274
 7124W        W79439  39.872  16.878   1.812
 7125W        W79440  38.577   9.706  11.087
 7126W        W79441  15.758   1.949   4.223
 7127W        W79442  18.310  16.420  14.798
 7128W        W79443  41.548  19.254   2.394
 7129W        W79444  39.914  17.347  11.930
 7130W        W79445  19.048  42.822   0.256
 7131W        W79446   2.453  14.549   4.730
 7132W        W79447   2.932  42.190  11.547
 7133W        W79448  24.032  16.740  12.145
 7134W        W79449  22.146  24.955  10.960
 7135W        W79450  29.433  24.955   1.903
 7136W        W79451  20.015  26.009  10.807
 7137W        W79452   3.828  26.625   0.026
 7138W        W79453  11.786   7.755  12.539
 7139W        W79454  31.112  17.899  14.748
 7140W        W79455   7.914  43.853   2.754
 7141W        W79456  26.478  36.115   4.175
 7142W        W79457  24.239  40.828   3.636
 7143W        W79458  35.053   5.875  14.542
 7144W        W79459  16.651  29.450   4.106
 7145W        W79460  18.692  11.892   9.811
 7146W        W79461   3.776  20.262  11.977
 7147W        W79462  31.352  26.139  11.664
 7148W        W79463  36.906  15.802   1.771
 7149W        W79464  40.988   0.542   1.817
 7150W        W79465  13.587  10.904   2.593
 7151W        W79466  31.658  39.837  11.561
 7152W        W79467  43.414  38.313  14.312
 7153W        W79468  44.291  35.982   0.080
 7154W        W79469  38.863   2.809  12.061
 7155W        W79470  40.797  20.977  13.846
 7156W        W79471  44.257  21.491  13.039
 7157W        W79472  14.575   8.886   3.318
 7158W        W79473  32.680  15.877  11.162
 7159W        W79474  26.987  11.619   1.755
 7160W        W79475  36.799   7.720  14.514
 7161W        W79476  11.224  10.335   1.453
 7162W        W79477  10.853  37.611  12.555
 7163W        W79478  25.098  44.756  12.849
 7164W        W79479   5.348  18.469   4.278
 7165W        W79480  44.380  31.909  11.757
 7166W        W79481  14.870  32.415  13.992
 7167W        W79482  38.375  32.409   2.751
 7168W        W79483   8.887  34.519  14.876
 7169W        W79484  17.341  21.527   1.519
 7170W        W79485  34.145  28.617  13.056
 7171W        W79486   6.321  19.076  12.887
 7172W        W79487  10.414  29.961  11.065
 7173W        W79488  16.598  12.163   0.379
 7174W        W79489  19.282  20.788  14.473
 7175W        W79490   9.135  44.914   4.004
 7176W        W79491  39.116  12.774  11.977
 7177W        W79492  34.256  36.794   0.900
 7178W        W79493  23.634  16.549  12.399
 7179W        W79494  14.598   5.359  13.411
 7180W        W79495   1.101  19.036  13.715
 7181W        W79496  34.049  26.029  12.879
 7182W        W79497  41.240  35.977   4.873
 7183W        W79498  18.495  41.753   0.246
 7184W        W79499  43.265   8.231   2.623
 7185W        W79500  38.376  44.736  10.629
 7186W        W79501   1.864  29.223  12.161
 7187W        W79502   2.851   6.917   3.340
 7188W        W79503   8.717  26.126   1.795
 7189W        W79504  32.764  39.554  13.149
 7190W        W79505  17.685  31.494   3.248
 7191W        W79506  32.067  29.575  14.368
 7192W        W79507  39.869  38.329   2.398
 7193W        W79508  21.818  10.113   3.353
 7194W        W79509  24.922   0.266   3.278
 7195W        W79510  23.571  37.361   0.908
 7196W        W79511  36.028   5.655  12.489
 7197W        W79512   1.472  39.544   2.660
 7198W        W79513  35.503   7.099  11.750
 7199W        W79514  42.082  24.885   3.813
 7200W        W79515  24.995  16.163   4.479
 7201W        W79516   4.749  28.230  14.303
 7202W        W79517  36.055   0.472  12.538
 7203W        W79518   0.724  25.959  12.357
 7204W        W79519  44.571   6.867  14.307
 7205W        W79520  27.819  10.693   0.092
 7206W        W79521   8.872  15.191   3.302
 7207W        W79522  11.124   0.643   0.467
 7208W        W79523  17.361   4.841  14.368
 7209W        W79524  33.873   4.502  14.917
 7210W        W79525  25.164  16.799  13.396
 7211W        W79526  25.074  40.808   2.371
 7212W        W79527  23.508  16.664   2.843
 7213W        W79528  27.132  17.506  11.645
 7214W        W79529  34.041  25.163  14.877
 7215W        W79530  29.923   2.242   2.213
 7216W        W79531  19.976  10.121  13.073
 7217W        W79532   5.348   4.822  12.804
 7218W        W79533   6.929   9.618   3.784
 7219W        W79534  34.662  26.701  12.417
 7220W        W79535  35.606   7.726   0.991
 7221W        W79536  37.434  31.670  14.928
 7222W        W79537  42.227   7.647  13.672
 7223W        W79538  28.974  25.598   3.805
 7224W        W79539  31.910   5.897  14.247
 7225W        W79540  28.731  11.656   2.424
 7226W        W79541  18.209  32.503   4.771
 7227W        W79542  33.598   6.271   2.180
 7228W        W79543  13.722  15.729   1.376
 7229W        W79544   9.647  11.616  13.890
 7230W        W79545   9.757  11.815   0.949
 7231W        W79546  28.623  30.029   0.009
 7232W        W79547  22.585  10.148  13.466
 7233W        W79548  23.792  43.876  12.428
 7234W        W79549  42.977  43.429  10.614
 7235W        W79550  25.937  42.479  10.695
 7236W        W79551  16.310  38.311  13.380
 7237W        W79552   2.613  36.282  10.094
 7238W        W79553  30.938  31.191   0.451
 7239W        W79554  36.819  37.394   4.692
 7240W        W79555  19.156  10.886   4.606
 7241W        W79556  25.836  23.029   2.451
 7242W        W79557  28.681  18.344  11.367
 7243W        W79558  32.831   9.236   0.385
 7244W        W79559  22.956  20.838  13.998
 7245W        W79560  38.102  34.826  12.871
 7246W        W79561  35.403   6.676   2.131
 7247W        W79562   5.683  35.183   1.863
 7248W        W79563  35.177  10.558  11.597
 7249W        W79564  39.279  42.415   4.865
 7250W        W79565  16.656  43.304   1.291
 7251W        W79566  14.409  27.401   0.333
 7252W        W79567  40.868   2.393   2.592
 7253W        W79568   9.066   3.849   1.736
 7254W        W79569  11.805  32.540  14.518
 7255W        W79570  20.127  19.980   4.382
 7256W        W79571   3.688  37.243   4.578
 7257W        W79572  27.175  31.178   2.229
 7258W        W79573  34.209   3.653   0.774
 7259W        W79574  28.452   4.464   2.270
 7260W        W79575   5.196  21.471  13.456
 7261W        W79576  23.073  20.752  11.630
 7262W        W79577   8.708   9.320   3.204
 7263W        W79578  21.169  13.239   2.824
 7264W        W79579  21.542   9.268   3.644
 7265W        W79580  22.547  29.713   2.268
 7266W        W79581  42.930   6.656   4.130
 7267W        W79582  20.760  36.426  11.919
 7268W        W79583   2.402  19.706   3.767
 7269W        W79584  34.067  44.618  13.253
 7270W        W79585  19.888  30.380   4.967
 7271W        W79586  30.443  33.970  14.818
 7272W        W79587  22.057   0.732  12.427
 7273W        W79588  23.485  26.116   1.877
 7274W        W79589   0.212  24.547  11.955
 7275W        W79590  38.819   1.113   2.174
 7276W        W79591   9.701  25.337  14.151
 7277W        W79592  28.894  17.631  11.641
 7278W        W79593  32.440  29.178   2.403
 7279W        W79594  18.639  44.452  11.996
 7280W        W79595  26.702  42.347  14.326
 7281W        W79596  19.042  37.352  10.647
 7282W        W79597  28.194  28.480   2.359
 7283W        W79598  13.259  36.328   4.522
 7284W        W79599  22.774  13.772  13.090
 7285W        W79600  18.200  13.064   3.727
 7286W        W79601  27.990  37.375   9.907
 7287W        W79602   5.154  44.428   4.044
 7288W        W79603  10.720  35.387  13.480
 7289W        W79604   5.649  40.806   2.283
 7290W        W79605  31.212  16.567   4.883
 7291W        W79606  41.260   5.158  12.562
 7292W        W79607  16.407   9.363   1.406
 7293W        W79608   0.341  37.609   3.776
 7294W        W79609  29.550  21.807  13.282
 7295W        W79610   0.581  25.024   0.431
 7296W        W79611  19.078  29.543   1.377
 7297W        W79612   9.002  19.720   4.618
 7298W        W79613   8.353   3.495   0.265
 7299W        W79614  26.139  30.599  14.446
 7300W        W79615  26.745  16.823  11.133
 7301W        W79616  38.570  20.135  12.624
 7302W        W79617  44.868  18.841  11.503
 7303W        W79618   4.671  13.159  13.003
 7304W        W79619  29.788  37.083  13.332
 7305W        W79620  39.083   1.952  14.576
 7306W        W79621   8.280  22.344   3.437
 7307W        W79622  41.042  31.990   1.746
 7308W        W79623  33.717  35.795  10.387
 7309W        W79624  15.158  41.825  13.310
 7310W        W79625  17.156  10.821   5.832
 7311W        W79626   9.079   8.573  13.237
 7312W        W79627  28.492  12.545  14.951
 7313W        W79628   5.320  15.141  13.421
 7314W        W79629  24.033  20.794   3.022
 7315W        W79630  29.876  12.326  11.489
 7316W        W79631  28.086   6.175  14.464
 7317W        W79632  42.564  11.239   2.949
 7318W        W79633   6.889  14.513  12.106
 7319W        W79634  36.096  12.835  14.560
 7320W        W79635  43.146  15.556   2.871
 7321W        W79636  33.393  23.168  12.913
 7322W        W79637   3.265  36.394   1.396
 7323W        W79638  10.592  36.342  13.461
 7324W        W79639  44.124  15.351  14.397
 7325W        W79640  21.152  18.229  14.253
 7326W        W79641  31.038  21.589   2.068
 7327W        W79642  22.831  12.255   1.372
 7328W        W79643  18.415  14.163  11.640
 7329W        W79644  33.087  33.434  13.876
 7330W        W79645   8.929  10.924  12.106
 7331W        W79646  39.995  38.429   1.394
 7332W        W79647  32.130  33.037  10.260
 7333W        W79648  10.090  16.449  14.640
 7334W        W79649  27.950  30.818   2.620
 7335W        W79650  19.115  18.035   3.561
 7336W        W79651  13.798  35.412  12.086
 7337W        W79652  10.400  14.149   2.772
 7338W        W79653  21.685  14.649  14.393
 7339W        W79654  10.434  42.358  10.660
 7340W        W79655  11.575  17.589   0.389
 7341W        W79656  22.821  17.271   0.971
 7342W        W79657  37.073  32.171   2.600
 7343W        W79658  42.518  26.985  11.980
 7344W        W79659   9.191  37.499  10.206
 7345W        W79660  40.857  17.809  13.622
 7346W        W79661  37.040  11.518  11.895
 7347W        W79662  15.369  34.898   9.871
 7348W        W79663  18.658  30.781   5.559
 7349W        W79664  44.913  15.494   1.176
 7350W        W79665   1.199  12.071   5.368
 7351W        W79666  26.063  20.519  10.745
 7352W        W79667  26.738  13.593   3.744
 7353W        W79668  43.326   3.842  12.860
 7354W        W79669  40.710   1.011   1.744
 7355W        W79670  23.473   2.867   1.970
 7356W        W79671  36.646  41.806   3.803
 7357W        W79672  33.636  40.403  13.227
 7358W        W79673  37.427  31.340   2.821
 7359W        W79674  15.887  27.355  11.582
 7360W        W79675  22.684  16.191  13.114
 7361W        W79676   8.776  26.026  14.475
 7362W        W79677  25.753  28.571  11.367
 7363W        W79678  30.602   8.394  14.401
 7364W        W79679  36.570  33.178   0.339
 7365W        W79680   5.487   4.316   3.060
 7366W        W79681  13.332  12.801  11.711
 7367W        W79682   7.365  24.234  12.981
 7368W        W79683  30.776  35.587   1.781
 7369W        W79684  10.701  15.043  14.104
 7370W        W79685  39.023  17.372  13.067
 7371W        W79686   5.931  31.011   2.737
 7372W        W79687  28.905  44.954  12.552
 7373W        W79688  24.568  23.212   3.100
 7374W        W79689  22.232  23.634  14.263
 7375W        W79690   5.277  16.584  12.090
 7376W        W79691  15.090  15.207  11.375
 7377W        W79692   7.791  33.408   0.770
 7378W        W79693  40.110   3.422   3.671
 7379W        W79694  12.306  28.267   1.540
 7380W        W79695   1.325   1.035   4.104
 7381W        W79696  31.522  19.782  12.570
 7382W        W79697  43.229  41.204   0.993
 7383W        W79698  10.172  13.818  11.183
 7384W        W79699  10.455   3.275  14.279
 7385W        W79700   7.638  43.310   4.745
 7386W        W79701  39.037  32.985   3.181
 7387W        W79702  43.074   3.387  12.845
 7388W        W79703   4.088   5.695  11.087
 7389W        W79704  19.762  19.780  13.958
 7390W        W79705  26.091   9.280   2.375
 7391W        W79706  31.074  17.526  12.579
 7392W        W79707   9.752  29.990   0.783
 7393W        W79708  25.995  36.538   2.386
 7394W        W79709  43.520  34.149   2.789
 7395W        W79710   2.801  42.498   2.867
 7396W        W79711   9.347   1.387   0.092
 7397W        W79712   0.615  26.451  13.652
 7398W        W79713  43.509  39.904   3.106
 7399W        W79714   6.861   0.408  14.230
 7400W        W79715   0.263  43.759  12.071
 7401W        W79716  23.247  22.990   3.318
 7402W        W79717  14.316  24.586   0.314
 7403W        W79718  39.050  32.522   4.091
 7404W        W79719  27.916  42.352  13.049
 7405W        W79720  21.797  19.699   3.532
 7406W        W79721  25.963  17.835  14.265
 7407W        W79722  25.597  18.272   1.358
 7408W        W79723  26.963  19.708  13.836
 7409W        W79724   5.943  41.993   1.437
 7410W        W79725   6.158  31.129   3.214
 7411W        W79726  43.989  35.528  13.489
 7412W        W79727   4.162  29.049   0.248
 7413W        W79728  15.684   7.673  11.005
 7414W        W79729  18.749  32.109   3.870
 7415W        W79730   6.203   3.412   2.782
 7416W        W79731  14.693  24.102   3.993
 7417W        W79732   3.372  30.289  11.214
 7418W        W79733  20.109  22.065  14.486
 7419W        W79734  20.798  25.795  11.064
 7420W        W79735  34.409   7.907   1.285
 7421W        W79736  32.116  38.725   2.113
 7422W        W79737  21.134   7.454   3.665
 7423W        W79738  31.837  14.713  11.129
 7424W        W79739  41.258   9.216   3.883
 7425W        W79740  32.209   9.085  13.771
 7426W        W79741   1.771  23.984  10.735
 7427W        W79742   0.424  34.342  13.419
 7428W        W79743  24.120   5.404  12.518
 7429W        W79744   9.114  20.083  11.881
 7430W        W79745  28.895  10.285   1.309
 7431W        W79746  12.900  39.996   0.132
 7432W        W79747  42.792  14.706   2.801
 7433W        W79748  33.919  40.319   4.018
 7434W        W79749   8.981   0.480   0.430
 7435W        W79750  13.400  33.008   1.318
 7436W        W79751  16.259  29.442  11.013
 7437W        W79752  30.470  15.753   3.252
 7438W        W79753  35.893  25.647  13.611
 7439W        W79754  44.796  14.726   1.537
 7440W        W79755  36.800  20.330  14.549
 7441W        W79756  41.048  26.639  12.998
 7442W        W79757  18.605  36.580   3.760
 7443W        W79758   8.303   9.629  14.453
 7444W        W79759  19.609  32.835  11.611
 7445W        W79760   5.712  27.778   1.184
 7446W        W79761   7.214  38.042   4.548
 7447W        W79762  27.862   7.340  10.946
 7448W        W79763  13.141  13.489  14.400
 7449W        W79764  41.504  15.304   1.799
 7450W        W79765   8.715  39.046   3.390
 7451W        W79766  20.169  43.498  13.072
 7452W        W79767  38.875  43.129  13.315
 7453W        W79768  20.002  18.176   0.874
 7454W        W79769  19.125  26.935   4.166
 7455W        W79770  35.583  14.105   4.731
 7456W        W79771  30.954   1.001   4.247
 7457W        W79772  39.575   8.158   3.235
 7458W        W79773  24.823   5.127  13.553
 7459W        W79774  11.478  23.873   2.824
 7460W        W79775  38.948  22.659   4.543
 7461W        W79776   6.676  36.627   3.293
 7462W        W79777   2.416  20.571  14.990
 7463W        W79778   7.254  40.706   4.141
 7464W        W79779  13.658  17.888  14.916
 7465W        W79780  41.772   6.726  13.605
 7466W        W79781  15.597   5.252  14.407
 7467W        W79782  30.396  24.370   4.701
 7468W        W79783  40.775  40.942   0.237
 7469W        W79784  38.384  40.021  12.533
 7470W        W79785  42.756  32.547  14.053
 7471W        W79786  11.291  29.098  10.886
 7472W        W79787  20.194  22.817  11.471
 7473W        W79788  30.576  16.341  11.317
 7474W        W79789  32.832  13.872  14.499
 7475W        W79790  12.724  28.196  10.770
 7476W        W79791   8.438  15.235   2.349
 7477W        W79792   8.837   3.204  11.063
 7478W        W79793  21.673  30.640  14.281
 7479W        W79794  31.107   8.774   4.248
 7480W        W79795   7.284  11.928  11.062
 7481W        W79796  37.037   3.981  11.632
 7482W        W79797  15.163   3.691  12.391
 7483W        W79798  37.056  37.393  13.409
 7484W        W79799  22.210   7.429   0.357
 7485W        W79800  37.603   8.436   4.922
 7486W        W79801  35.463  27.316  12.904
 7487W        W79802  25.518  32.608  10.211
 7488W        W79803  14.779   8.657  13.314
 7489W        W79804   9.091   8.392   0.006
 7490W        W79805   7.896  19.540  13.405
 7491W        W79806  23.572  18.673  12.662
 7492W        W79807  26.613  31.725   0.303
 7493W        W79808  37.141  31.223  14.852
 7494W        W79809  42.777  16.674   0.609
 7495W        W79810  16.805  21.213   1.225
 7496W        W79811   9.422  29.907  14.758
 7497W        W79812  43.312  41.200   0.118
 7498W        W79813  29.691  26.588   2.754
 7499W        W79814   2.435  21.080  14.062
 7500W        W79815   3.402  18.187  13.408
 7501W        W79816   4.989  39.332  12.289
 7502W        W79817  21.847   3.459  12.991
 7503W        W79818   2.374   2.023  11.115
 7504W        W79819  10.637   6.799   2.814
 7505W        W79820  17.412  26.382   4.190
 7506W        W79821  35.621  43.972  12.405
 7507W        W79822  32.455  21.182   1.757
 7508W        W79823  29.522  27.027   4.534
 7509W        W79824   5.476  10.666  12.891
 7510W        W79825  28.335  16.773   2.728
 7511W        W79826  14.004  44.034   2.262
 7512W        W79827   4.376  41.939  11.566
 7513W        W79828   7.214  28.929  11.655
 7514W        W79829  21.086  36.731   4.757
 7515W        W79830  21.593  39.283   2.593
 7516W        W79831  29.807  28.102   1.993
 7517W        W79832  33.906   2.500   4.337
 7518W        W79833  38.484  43.089  12.343
 7519W        W79834  11.338  33.474   3.867
 7520W        W79835  22.528  44.961  12.482
 7521W        W79836   4.637  42.922  11.725
 7522W        W79837   6.888  29.470   4.882
 7523W        W79838  35.446  34.356  10.708
 7524W        W79839  20.678  15.855  13.768
 7525W        W79840  23.988  28.354  14.092
 7526W        W79841  26.050  37.789   0.200
 7527W        W79842   3.125   1.267   4.184
 7528W        W79843   9.183  41.579   2.167
 7529W        W79844  38.643  26.691  10.276
 7530W        W79845  39.323  15.490   2.023
 7531W        W79846  22.698  24.951   1.750
 7532W        W79847   1.385  40.915  14.057
 7533W        W79848  12.152  44.556  10.390
 7534W        W79849  17.472  24.335  13.107
 7535W        W79850  31.726   7.676   4.168
 7536W        W79851   4.972  33.135  13.236
 7537W        W79852  38.980   0.419   4.886
 7538W        W79853  13.644   8.856   2.324
 7539W        W79854  26.881   8.496  14.325
 7540W        W79855  21.063   9.065  10.350
 7541W        W79856  31.716  40.828   4.195
 7542W        W79857  26.111  22.566   4.390
 7543W        W79858  20.824  17.215  14.400
 7544W        W79859  41.191  44.541  12.804
 7545W        W79860   7.681   5.358  10.766
 7546W        W79861  15.072  41.760   3.739
 7547W        W79862  33.243  31.290  13.936
 7548W        W79863  25.622  16.849   3.274
 7549W        W79864  25.497  16.137   4.800
 7550W        W79865   1.933  18.903  12.460
 7551W        W79866   1.058   0.838   2.870
 7552W        W79867  10.710   0.013   4.866
 7553W        W79868  25.601  12.516   2.770
 7554W        W79869  17.189  16.310  13.420
 7555W        W79870  14.393   4.939   3.480
 7556W        W79871  10.186  18.802  12.125
 7557W        W79872  19.498  11.820   4.534
 7558W        W79873  39.020  20.064   3.437
 7559W        W79874  40.116  23.544   2.565
 7560W        W79875  19.740  13.180   5.062
 7561W        W79876   9.256   3.707   4.894
 7562W        W79877  15.203  24.227   4.039
 7563W        W79878  24.693   6.937   1.810
 7564W        W79879  41.720  20.982  13.896
 7565W        W79880  41.620  21.760  10.733
 7566W        W79881  27.662  33.934  11.208
 7567W        W79882  37.270   5.585   4.400
 7568W        W79883  40.165  29.373  12.006
 7569W        W79884  44.706   5.630   0.713
 7570W        W79885  23.230  17.586   0.808
 7571W        W79886  11.736  23.500  14.035
 7572W        W79887  39.170   6.752  11.965
 7573W        W79888  41.097   1.996   2.357
 7574W        W79889  18.586  19.691  12.929
 7575W        W79890  32.414   6.699  13.836
 7576W        W79891  18.566  17.462  10.762
 7577W        W79892  33.038  16.789   0.453
 7578W        W79893  43.470  37.383   4.078
 7579W        W79894  38.731   8.748   4.562
 7580W        W79895  13.426  29.376   4.211
 7581W        W79896  21.179  35.020  13.129
 7582W        W79897  40.824  36.270   3.062
 7583W        W79898  28.098  25.107   0.725
 7584W        W79899  31.437  32.600   4.142
 7585W        W79900  33.545  26.705   4.476
 7586W        W79901   6.226   4.891   0.470
 7587W        W79902  31.813   5.276   4.183
 7588W        W79903  14.089  25.705  11.891
 7589W        W79904   5.222  15.650   4.593
 7590W        W79905   9.723  12.669  11.016
 7591W        W79906   3.253  39.851   1.838
 7592W        W79907  21.753  27.219  13.806
 7593W        W79908   7.939  15.730   2.373
 7594W        W79909   9.302  39.414   0.021
 7595W        W79910  19.942   6.828  14.425
 7596W        W79911   3.032  12.302  12.027
 7597W        W79912  21.992  23.953  11.612
 7598W        W79913  44.337   7.903  11.597
 7599W        W79914  42.378  21.492  13.502
 7600W        W79915  36.920   8.372  11.113
 7601W        W79916  33.980  44.532   0.414
 7602W        W79917  25.497  31.626   4.502
 7603W        W79918  30.983   7.939   1.638
 7604W        W79919   0.650  42.816  14.341
 7605W        W79920  20.771  25.405   3.536
 7606W        W79921  20.010  16.259  12.987
 7607W        W79922  21.299  40.878   4.208
 7608W        W79923  25.533   8.218  12.965
 7609W        W79924   8.645  31.480   3.674
 7610W        W79925   7.607  40.545  14.522
 7611W        W79926   5.833  16.555   3.239
 7612W        W79927   3.073  27.738   3.523
 7613W        W79928  12.122  18.026  13.505
 7614W        W79929   4.962   3.470  10.729
 7615W        W79930  20.156  38.081  12.105
 7616W        W79931  17.216  15.268   2.917
 7617W        W79932   2.833  42.350  13.936
 7618W        W79933   4.147  10.412  12.409
 7619W        W79934  24.181   4.679  10.622
 7620W        W79935  12.537  42.782   1.351
 7621W        W79936  36.495  32.810  10.615
 7622W        W79937   2.473  28.038  11.064
 7623W        W79938  17.646   9.695   4.551
 7624W        W79939  16.721  13.773  13.590
 7625W        W79940   5.359  21.971  12.392
 7626W        W79941   8.914  24.762  13.005
 7627W        W79942  44.286  32.509   2.033
 7628W        W79943  25.893  28.469  10.864
 7629W        W79944  42.397   0.686  14.053
 7630W        W79945   9.528  35.011  14.189
 7631W        W79946   9.241  27.079  12.325
 7632W        W79947   5.733   3.126  12.943
 7633W        W79948  11.246  37.801  12.862
 7634W        W79949  41.348  33.035   2.256
 7635W        W79950   7.198  19.114  13.968
 7636W        W79951  16.166  39.898   2.247
 7637W        W79952   7.756  13.834   4.403
 7638W        W79953   0.567   8.199   3.721
 7639W        W79954   2.066  14.784  12.942
 7640W        W79955  44.018  19.704   3.345
 7641W        W79956  39.262  35.995   0.031
 7642W        W79957  36.144  41.474  14.949
 7643W        W79958  43.050   8.785  12.925
 7644W        W79959  20.998  13.960   4.393
 7645W        W79960   8.851  38.913   0.394
 7646W        W79961   4.387  10.175   4.416
 7647W        W79962  20.510  25.418  12.914
 7648W        W79963  37.475  35.120  12.047
 7649W        W79964  20.339  19.734   3.435
 7650W        W79965  36.544  20.158  12.747
 7651W        W79966  43.751  31.747  13.438
 7652W        W79967  20.069  17.783   3.915
 7653W        W79968  28.821   7.214  11.058
 7654W        W79969   9.017  37.254  11.222
 7655W        W79970  29.450  28.243  14.529
 7656W        W79971  23.127  16.325   2.209
 7657W        W79972  44.824  40.389   4.294
 7658W        W79973  33.388  35.401  12.536
 7659W        W79974   2.991   5.452   0.850
 7660W        W79975  10.323  41.566   1.376
 7661W        W79976   7.871  17.360  11.654
 7662W        W79977  11.635  29.587   3.156
 7663W        W79978  25.287   4.716   0.935
 7664W        W79979  26.483   9.648   2.590
 7665W        W79980  14.372  42.871   1.272
 7666W        W79981   8.328   8.202  10.662
 7667W        W79982  21.806  12.369   3.382
 7668W        W79983  34.179  13.298   1.353
 7669W        W79984   5.329  10.042  10.741
 7670W        W79985   8.273   5.684   4.629
 7671W        W79986  23.957  24.795   4.415
 7672W        W79987  20.615  15.400  13.990
 7673W        W79988  19.961  11.559  11.140
 7674W        W79989  14.585  22.020  12.428
 7675W        W79990  26.985  40.686  12.940
 7676W        W79991  28.626  41.861  10.108
 7677W        W79992  19.567  31.153   4.584
 7678W        W79993  16.270  22.658  12.912
 7679W        W79994  26.012  20.554   2.932
 7680W        W79995  26.573  20.643  10.691
 7681W        W79996  10.281  29.410   0.366
 7682W        W79997  41.791  26.117  13.695
 7683W        W79998  16.469   9.696   4.076
 7684W        W79999   6.006  20.043   4.429
 7685W        W80000   2.401  11.338   1.337
 7686W        W80001  21.704   3.289   0.383
 7687W        W80002  26.616  26.508   4.960
 7688W        W80003  40.490  39.221   4.635
 7689W        W80004  14.343  39.985   0.088
 7690W        W80005  23.781   4.458  14.397
 7691W        W80006   5.461   9.747   4.705
 7692W        W80007  20.406  39.142   3.785
 7693W        W80008  42.587  16.744   3.260
 7694W        W80009   5.934  16.287  14.531
 7695W        W80010  15.558  34.089   1.385
 7696W        W80011  17.499  13.116  11.689
 7697W        W80012  22.161   3.171   1.744
 7698W        W80013  38.489  34.415   3.114
 7699W        W80014  29.365   0.745   1.491
 7700W        W80015  28.153  25.539  12.525
 7701W        W80016  43.567  25.724   0.513
 7702W        W80017   6.215  13.717   2.982
 7703W        W80018  21.103  28.736   1.301
 7704W        W80019  39.772  20.685   4.256
 7705W        W80020  13.444  39.379   1.986
 7706W        W80021   4.783  35.097   4.318
 7707W        W80022  14.552   1.333   0.919
 7708W        W80023  20.641  32.485  11.941
 7709W        W80024  42.683  37.920   4.302
 7710W        W80025  16.034  30.088   4.433
 7711W        W80026   8.442  11.836   3.611
 7712W        W80027  13.120   8.414  10.476
 7713W        W80028  42.346  26.393   0.174
 7714W        W80029  28.520  14.023   1.664
 7715W        W80030  43.209  44.080   3.693
 7716W        W80031   9.297  37.872   3.216
 7717W        W80032   1.483  33.798   5.048
 7718W        W80033  25.073  41.380  14.474
 7719W        W80034   4.437  26.597  13.496
 7720W        W80035   4.174  19.845  14.513
 7721W        W80036  24.656  21.717  14.042
 7722W        W80037  28.188  43.461   2.202
 7723W        W80038   9.728  33.109  10.768
 7724W        W80039  26.231  27.930  13.491
 7725W        W80040  26.255  31.676   2.652
 7726W        W80041  23.121  19.585   4.151
 7727W        W80042   1.931  13.294  10.901
 7728W        W80043  42.746  25.506   4.505
 7729W        W80044  39.243  18.327  10.759
 7730W        W80045  31.524  10.941   4.123
 7731W        W80046   0.397   3.039  14.502
 7732W        W80047   0.317  30.322  13.429
 7733W        W80048   7.822   9.729   1.350
 7734W        W80049   9.919   8.248  13.835
 7735W        W80050   4.858   5.683   2.921
 7736W        W80051  41.880   2.011   1.291
 7737W        W80052  38.413   3.141  11.004
 7738W        W80053  25.288  14.675  14.449
 7739W        W80054  29.860  20.189  13.868
 7740W        W80055  21.122  10.067  14.018
 7741W        W80056  11.217  26.440   2.556
 7742W        W80057   3.891  36.072  11.951
 7743W        W80058  16.451  38.861  14.708
 7744W        W80059  20.986  27.403   3.088
 7745W        W80060   8.208  33.477  11.159
 7746W        W80061  43.933  44.401  11.582
 7747W        W80062  26.400  43.228  14.478
 7748W        W80063  29.689  21.538  12.432
 7749W        W80064   3.261  23.602  12.924
 7750W        W80065   3.820  26.396   2.370
 7751W        W80066  17.670  27.373   0.392
 7752W        W80067  28.482  22.811   1.966
 7753W        W80068  23.240  14.885  13.879
 7754W        W80069  36.223   5.079   1.945
 7755W        W80070  28.667   2.752  10.563
 7756W        W80071  43.870  22.810  12.730
 7757W        W80072  27.619  31.219   4.256
 7758W        W80073   3.433  26.648  13.536
 7759W        W80074  33.562  21.554  13.763
 7760W        W80075  17.048  21.937  10.632
 7761W        W80076   6.387  29.336   1.850
 7762W        W80077  23.449  31.596  14.523
 7763W        W80078  28.403  39.322   1.699
 7764W        W80079  10.130  18.999   1.312
 7765W        W80080  16.752  26.404   2.331
 7766W        W80081  32.179   5.959   4.600
 7767W        W80082  28.687  33.748   0.694
 7768W        W80083  16.867   4.256  14.798
 7769W        W80084  12.893  42.361   5.026
 7770W        W80085  21.448  39.915  13.418
 7771W        W80086  26.083  33.439   4.581
 7772W        W80087   5.946  26.206  14.329
 7773W        W80088  24.131  35.616   0.895
 7774W        W80089   1.176  42.302   2.208
 7775W        W80090   7.357   9.786   4.742
 7776W        W80091  32.954  41.622   3.721
 7777W        W80092  40.972  30.058  11.441
 7778W        W80093  14.795   6.351  10.432
 7779W        W80094  14.585   8.220  10.692
 7780W        W80095  14.625  27.643   1.932
 7781W        W80096  17.628  21.434   0.642
 7782W        W80097  37.816  12.263   0.312
 7783W        W80098  38.370  25.245   3.523
 7784W        W80099   7.242  12.127   3.184
 7785W        W80100  33.950   6.368  11.063
 7786W        W80101   4.232  13.827  12.499
 7787W        W80102  19.539  17.193  13.000
 7788W        W80103  36.846   1.155   0.068
 7789W        W80104   6.640  15.758  12.499
 7790W        W80105  32.501   8.328   4.553
 7791W        W80106   2.808  35.631   2.369
 7792W        W80107   1.302   0.136   0.618
 7793W        W80108   1.428   4.627   1.603
 7794W        W80109   1.742  28.683  12.022
 7795W        W80110  23.431  12.123   3.621
 7796W        W80111  23.771  36.339   3.755
 7797W        W80112   1.264  33.979   3.236
 7798W        W80113  11.870  23.657  11.501
 7799W        W80114  42.311   2.943   3.499
 7800W        W80115  31.096  14.591  12.540
 7801W        W80116  13.081  13.636   2.713
 7802W        W80117  18.826  42.955   4.554
 7803W        W80118  32.514   1.795   2.263
 7804W        W80119  43.806   1.351  12.365
 7805W        W80120  10.902  36.522  13.052
 7806W        W80121  39.373   7.447  14.445
 7807W        W80122  34.395  27.567  13.896
 7808W        W80123   6.458  16.331   4.107
 7809W        W80124  11.200  29.103   4.217
 7810W        W80125   3.264  39.776  10.654
 7811W        W80126  37.277  35.571  13.748
 7812W        W80127  21.752   0.922   1.895
 7813W        W80128  21.122  32.265  10.348
 7814W        W80129  31.952  16.138   4.001
 7815W        W80130  41.870  15.820  11.692
 7816W        W80131  16.098  10.189   0.051
 7817W        W80132  15.070  38.358   3.978
 7818W        W80133  42.259   0.849  11.370
 7819W        W80134   5.191  28.665  14.739
 7820W        W80135  23.187  25.184   4.474
 7821W        W80136  44.444  21.766   1.875
 7822W        W80137  13.666  30.910  13.638
 7823W        W80138  37.588   8.862   2.837
 7824W        W80139  31.431  39.569  12.536
 7825W        W80140   8.288  19.119   4.824
 7826W        W80141   3.324   7.829  13.870
 7827W        W80142   7.790  42.038   2.365
 7828W        W80143  35.183  29.482   4.550
 7829W        W80144  38.280  15.797  10.631
 7830W        W80145  22.930  12.868   3.693
 7831W        W80146  28.926  28.164  11.748
 7832W        W80147   9.369  14.154  11.200
 7833W        W80148  21.176   1.949  10.689
 7834W        W80149  27.265  38.938  11.575
 7835W        W80150  31.569  34.613   2.337
 7836W        W80151  31.955  16.205   3.498
 7837W        W80152  32.502  32.034  14.850
 7838W        W80153   8.262   2.966   0.023
 7839W        W80154  32.383  10.427  14.688
 7840W        W80155   5.412   6.181   3.152
 7841W        W80156   3.921  15.422   4.849
 7842W        W80157  43.556  19.989   4.837
 7843W        W80158  17.667  40.435   2.117
 7844W        W80159  20.612  18.603  13.423
 7845W        W80160  17.526  42.396   1.871
 7846W        W80161   2.727  14.695   2.925
 7847W        W80162  39.942  37.875  13.608
 7848W        W80163   8.758  10.240   2.665
 7849W        W80164  44.332  31.686   2.942
 7850W        W80165  30.431  35.035  13.038
 7851W        W80166   0.258  12.850  11.495
 7852W        W80167  33.420  32.906  14.358
 7853W        W80168  25.126  20.024   2.215
 7854W        W80169  25.221  39.427   2.932
 7855W        W80170  41.644   7.894   5.007
 7856W        W80171   0.431  15.175  11.481
 7857W        W80172  11.758  39.952  14.884
 7858W        W80173  43.239  14.832   1.479
 7859W        W80174  12.722  23.155   4.382
 7860W        W80175  13.103  44.289   1.223
 7861W        W80176  29.689   9.303   2.775
 7862W        W80177  15.712  38.399  11.642
 7863W        W80178  24.094  40.115  10.706
 7864W        W80179   2.076  12.394   0.748
 7865W        W80180  13.294  18.257   1.881
 7866W        W80181  32.128  34.255  13.351
 7867W        W80182  41.844  18.320  13.830
 7868W        W80183  32.349  26.742  11.527
 7869W        W80184   4.459  38.334   1.750
 7870W        W80185  39.736  18.225  11.441
 7871W        W80186  31.505  31.008   3.868
 7872W        W80187  14.307  21.819  14.942
 7873W        W80188   4.220  18.666  14.083
 7874W        W80189  11.508  22.268  14.540
 7875W        W80190  33.959   7.863   3.171
 7876W        W80191  22.532  12.909   1.738
 7877W        W80192  36.910  41.570   3.348
 7878W        W80193  33.119  26.174   1.896
 7879W        W80194  19.163   9.478   3.952
 7880W        W80195  13.741   8.146  13.548
 7881W        W80196   3.455   3.289  11.825
 7882W        W80197  36.321  24.516  13.573
 7883W        W80198  15.423  32.552   2.348
 7884W        W80199  29.064  12.092   3.229
 7885W        W80200   4.814   8.165  12.091
 7886W        W80201  15.110  10.603   4.552
 7887W        W80202  28.517   0.036   3.928
 7888W        W80203  44.026  17.721   2.867
 7889W        W80204  44.886  17.050  10.544
 7890W        W80205  36.519  32.650  11.113
 7891W        W80206  27.431  22.964  14.731
 7892W        W80207  36.279  41.923  13.522
 7893W        W80208  22.228  38.765   4.670
 7894W        W80209  15.995  15.350  11.424
 7895W        W80210  22.265  34.550   3.446
 7896W        W80211  25.955  17.640   2.465
 7897W        W80212  16.871  17.558   2.752
 7898W        W80213  14.231  38.763  14.746
 7899W        W80214  43.841  13.812  12.339
 7900W        W80215  39.305  29.632  14.393
 7901W        W80216  26.503   3.279   0.968
 7902W        W80217  36.607   2.666  10.684
 7903W        W80218  36.544  31.471  11.435
 7904W        W80219  38.850  27.251  10.739
 7905W        W80220  17.297   6.969  10.017
 7906W        W80221  26.341  34.596   1.784
 7907W        W80222  22.095  23.663   0.645
 7908W        W80223  23.689   4.747   0.776
 7909W        W80224  32.908  39.625   1.364
 7910W        W80225  31.390  11.081  13.252
 7911W        W80226  22.237  21.529   9.695
 7912W        W80227  20.315  31.903   0.718
 7913W        W80228  22.680  40.492   0.686
 7914W        W80229  38.616  26.647   3.319
 7915W        W80230  41.865   5.681   2.166
 7916W        W80231  43.282   2.188   1.423
 7917W        W80232  21.498  13.073   1.208
 7918W        W80233  14.895  19.088   1.871
 7919W        W80234   1.202  30.403   4.201
 7920W        W80235  18.793   7.990  11.532
 7921W        W80236  18.485  33.771   1.308
 7922W        W80237  15.545   4.942   3.162
 7923W        W80238   6.018  22.435   1.717
 7924W        W80239  10.031   0.208  11.769
 7925W        W80240  22.038   2.174   2.716
 7926W        W80241   0.747  34.870  11.007
 7927W        W80242  20.508  25.976  10.657
 7928W        W80243  19.513  37.634  11.188
 7929W        W80244  20.337  15.405  14.937
 7930W        W80245  13.583  39.540   4.814
 7931W        W80246  12.842  22.810  11.073
 7932W        W80247  22.732   3.835  13.435
 7933W        W80248  39.014   0.099  13.034
 7934W        W80249  12.617  40.942   1.775
 7935W        W80250  25.666  35.987   0.845
 7936W        W80251  34.351  44.260  10.206
 7937W        W80252   2.289  26.908   1.728
 7938W        W80253  44.110  20.684  14.345
 7939W        W80254  42.982  14.312   4.053
 7940W        W80255  30.159  26.500  12.145
 7941W        W80256   6.996  41.965   2.820
 7942W        W80257  19.796  18.659  12.019
 7943W        W80258   2.371  21.091   1.463
 7944W        W80259  18.425  32.058   1.867
 7945W        W80260  10.650  37.494  13.044
 7946W        W80261  26.674  29.513  12.638
 7947W        W80262   6.225  16.266   5.278
 7948W        W80263  39.851  16.157  14.749
 7949W        W80264  35.070  13.243   1.349
 7950W        W80265  24.675  31.397  11.101
 7951W        W80266  36.224  27.142   4.462
 7952W        W80267  42.311  34.397  14.950
 7953W        W80268   6.581  21.120  12.511
 7954W        W80269  32.939  35.397   4.459
 7955W        W80270  26.571  10.426   5.098
 7956W        W80271  30.146   2.149   2.897
 7957W        W80272  25.543  19.242   1.349
 7958W        W80273  16.034  17.600   3.715
 7959W        W80274   9.883   1.832  11.878
 7960W        W80275  11.558  41.373  14.563
 7961W        W80276  41.885  22.640  10.489
 7962W        W80277  38.488  15.338   1.777
 7963W        W80278   2.257  17.352  14.879
 7964W        W80279   6.745  43.479   2.396
 7965W        W80280  19.228  18.090   4.054
 7966W        W80281  27.079  28.109   4.412
 7967W        W80282  42.052  18.236  14.967
 7968W        W80283  25.444  39.890   2.820
 7969W        W80284   3.416  36.852   2.781
 7970W        W80285  13.731   0.245  11.892
 7971W        W80286   1.934   7.906   3.631
 7972W        W80287  43.445  41.999  12.497
 7973W        W80288  32.140  21.074  10.810
 7974W        W80289  26.107  12.818  14.221
 7975W        W80290  36.882  18.176   4.536
 7976W        W80291  40.936   5.693  12.978
 7977W        W80292  19.822   1.498  11.960
 7978W        W80293  25.773  30.591  14.073
 7979W        W80294  22.544  42.941  14.231
 7980W        W80295  27.621  41.286  14.819
 7981W        W80296  39.504  24.488   1.849
 7982W        W80297  38.120  14.997   1.651
 7983W        W80298  16.756   9.269  11.831
 7984W        W80299  15.633  43.782  14.351
 7985W        W80300  38.578  18.015   0.303
 7986W        W80301   3.707  33.930   3.166
 7987W        W80302  20.968  12.684  10.691
 7988W        W80303  29.625   1.371   3.616
 7989W        W80304  38.030  26.744   2.826
 7990W        W80305  18.255  20.535  12.969
 7991W        W80306   4.373  32.075  14.075
 7992W        W80307  18.646  23.152   2.634
 7993W        W80308  32.415  40.535   1.007
 7994W        W80309  10.194  12.881  13.563
 7995W        W80310  14.100  41.297   4.894
 7996W        W80311  14.792  36.934   2.765
 7997W        W80312  32.577  39.483  13.638
 7998W        W80313  26.576  10.080  11.941
 7999W        W80314  38.898   3.987   2.336
 8000W        W80315  23.753  29.988   0.831
 8001W        W80316  29.324  13.296  12.562
 8002W        W80317  42.380  27.434  10.833
 8003W        W80318  40.055  13.871   0.722
 8004W        W80319  17.632  23.104   4.064
 8005W        W80320  21.527  22.805  11.690
 8006W        W80321  42.631   6.091  11.605
 8007W        W80322  42.735  11.684   2.669
 8008W        W80323  24.794  40.786  14.193
 8009W        W80324  26.195  37.653   3.894
 8010W        W80325  44.920  44.482  12.471
 8011W        W80326  16.919  43.496  12.942
 8012W        W80327  11.182  26.411  14.954
 8013W        W80328   5.230  31.541  11.090
 8014W        W80329  23.158  15.321   1.965
 8015W        W80330   4.005  30.560   3.628
 8016W        W80331  33.419  31.084  13.047
 8017W        W80332   6.681   9.080   4.662
 8018W        W80333  43.378  32.826  14.105
 8019W        W80334   7.734  19.988   1.999
 8020W        W80335  23.286  23.228  10.074
 8021W        W80336  30.470  28.159  12.568
 8022W        W80337  34.141  23.260  10.748
 8023W        W80338  44.483   5.268   2.662
 8024W        W80339  21.282  41.880   1.769
 8025W        W80340  43.768   5.824   4.127
 8026W        W80341   5.430  14.002  13.909
 8027W        W80342  43.020  36.501   1.879
 8028W        W80343   2.793   6.190  14.881
 8029W        W80344   5.432  12.004   0.847
 8030W        W80345  27.669   2.222   0.362
 8031W        W80346   2.298  14.650   0.316
 8032W        W80347  33.173   0.075  13.572
 8033W        W80348  20.613  21.633  13.001
 8034W        W80349   6.668  32.937   3.590
 8035W        W80350  37.945   9.200  12.317
 8036W        W80351   3.129  24.290   3.348
 8037W        W80352  15.541  36.922  13.864
 8038W        W80353  39.360  19.899  11.488
 8039W        W80354  19.529  14.965   0.570
 8040W        W80355  44.390  23.491  13.016
 8041W        W80356  11.112  11.342   1.429
 8042W        W80357  42.475  10.383   2.606
 8043W        W80358  10.177   2.304   2.237
 8044W        W80359  43.500  20.407  12.172
 8045W        W80360  41.554  41.768   3.256
 8046W        W80361  10.883  10.342  11.342
 8047W        W80362  18.071  33.463   1.342
 8048W        W80363  30.003   9.436  11.652
 8049W        W80364   6.285   8.966   0.020
 8050W        W80365  42.269  18.634  13.854
 8051W        W80366  33.753  40.888  13.330
 8052W        W80367  12.817  40.392   4.478
 8053W        W80368  26.086  42.152  11.972
 8054W        W80369  17.259  23.983   3.697
 8055W        W80370   1.290  35.895  11.977
 8056W        W80371  35.623   6.226  12.881
 8057W        W80372  24.178  25.800   1.351
 8058W        W80373  28.863   5.862   9.771
 8059W        W80374   4.548  24.238   2.877
 8060W        W80375  28.606  38.301   3.623
 8061W        W80376  33.502  13.726  13.297
 8062W        W80377   4.406  11.368  14.224
 8063W        W80378  20.211   4.279  12.159
 8064W        W80379  39.043  25.029   1.365
 8065W        W80380  11.281  40.077   1.127
 8066W        W80381   8.203  38.302   3.435
 8067W        W80382  25.218  41.909  14.854
 8068W        W80383  36.393  35.213  14.063
 8069W        W80384  22.748  16.270   1.803
 8070W        W80385  20.454  31.062  13.979
 8071W        W80386  14.608  27.995  14.470
 8072W        W80387  21.645  34.982  11.623
 8073W        W80388  14.177  12.699   3.900
 8074W        W80389  24.161  16.308  13.035
 8075W        W80390  30.715  27.368   0.345
 8076W        W80391   2.475   0.520   1.899
 8077W        W80392  38.545  28.510   2.971
 8078W        W80393  20.524  14.653  12.685
 8079W        W80394  15.072  33.499   2.545
 8080W        W80395  36.161  27.091   1.344
 8081W        W80396  17.936   5.946   2.832
 8082W        W80397  31.723  33.555   3.219
 8083W        W80398  26.933  36.072   5.117
 8084W        W80399  13.703  42.101   4.737
 8085W        W80400  19.963   0.612   1.788
 8086W        W80401  38.915  28.425   3.377
 8087W        W80402  33.326  21.932  12.873
 8088W        W80403  28.045  26.656   3.321
 8089W        W80404  10.656  10.748  10.640
 8090W        W80405   3.842  40.968   1.980
 8091W        W80406  15.696  30.305  14.836
 8092W        W80407  17.764   4.535   3.460
 8093W        W80408  17.193  12.641  12.775
 8094W        W80409  44.460   2.752   4.026
 8095W        W80410   7.013   2.674   1.401
 8096W        W80411   1.304  37.874   3.878
 8097W        W80412  10.177  40.218   3.779
 8098W        W80413   3.310  38.577   0.397
 8099W        W80414  26.403  25.893   4.840
 8100W        W80415  29.435  44.749   3.731
 8101W        W80416   0.858  14.319  12.545
 8102W        W80417  12.843   0.444   3.406
 8103W        W80418  44.026  13.678  11.803
 8104W        W80419   5.566  39.983   4.155
 8105W        W80420   9.763   7.818   4.094
 8106W        W80421  10.616  43.162  13.940
 8107W        W80422  30.823  35.977  12.973
 8108W        W80423  30.506  24.771  14.645
 8109W        W80424  20.357  37.021   2.191
 8110W        W80425  43.288   4.244  11.617
 8111W        W80426  37.490  32.399   4.691
 8112W        W80427   6.276  33.114   4.542
 8113W        W80428  10.942  34.739   1.723
 8114W        W80429  14.815  38.071  14.213
 8115W        W80430  27.658  24.772  12.036
 8116W        W80431  28.078  42.730   1.174
 8117W        W80432  28.535   5.412   5.229
 8118W        W80433   7.259  33.632  14.416
 8119W        W80434  25.908  28.551   3.818
 8120W        W80435  44.369   8.140   0.030
 8121W        W80436   5.339  19.176  11.572
 8122W        W80437   5.935  11.851   0.962
 8123W        W80438  20.354  40.898  11.138
 8124W        W80439  34.837  31.165   2.207
 8125W        W80440  42.547  15.807   4.563
 8126W        W80441  17.630   1.661  11.318
 8127W        W80442  14.932   6.665  12.070
 8128W        W80443  11.420  10.386  12.451
 8129W        W80444  13.198  26.012   2.909
 8130W        W80445  39.792  14.563  10.648
 8131W        W80446  38.531  17.130   2.772
 8132W        W80447  17.893  10.630  14.618
 8133W        W80448   8.395   5.969  12.887
 8134W        W80449  15.497   7.693  12.340
 8135W        W80450   0.946  10.940  11.613
 8136W        W80451  12.099  40.329  14.906
 8137W        W80452  18.468  34.360   0.429
 8138W        W80453  43.728  33.713  14.912
 8139W        W80454   4.241  30.418  11.217
 8140W        W80455  43.322  42.989   0.380
 8141W        W80456  27.025  43.191  13.848
 8142W        W80457  23.507  32.825   2.359
 8143W        W80458   6.873  41.916   2.300
 8144W        W80459  18.671  34.595  11.112
 8145W        W80460  25.111  21.738   0.915
 8146W        W80461  44.307  10.290  12.801
 8147W        W80462  19.754  27.954   3.378
 8148W        W80463   5.229   4.855  13.748
 8149W        W80464  29.182   4.632  12.905
 8150W        W80465  17.703  31.042   2.875
 8151W        W80466   6.906  20.340  11.889
 8152W        W80467  39.599  25.458  13.357
 8153W        W80468  40.523  22.668  14.574
 8154W        W80469  41.795  17.972   4.225
 8155W        W80470   3.318  23.952   1.451
 8156W        W80471  40.938  14.768  13.291
 8157W        W80472  22.711  38.823  11.518
 8158W        W80473   5.947  22.807  13.995
 8159W        W80474  35.597  38.145  11.374
 8160W        W80475  27.504  30.575   3.291
 8161W        W80476  42.575  31.966   1.075
 8162W        W80477  13.721  19.533   0.837
 8163W        W80478  33.488  26.071  12.655
 8164W        W80479  30.553  31.952  11.901
 8165W        W80480  31.516  25.676  11.492
 8166W        W80481  19.003   3.493   0.035
 8167W        W80482  16.138  17.732   0.380
 8168W        W80483  31.118  19.998  13.335
 8169W        W80484  37.021   5.325  10.949
 8170W        W80485  34.866  31.058  11.989
 8171W        W80486  40.281  24.053  12.064
 8172W        W80487  15.559  35.353  10.662
 8173W        W80488  11.070   7.416  12.091
 8174W        W80489  40.195   9.961   2.046
 8175W        W80490  44.742   8.649   0.542
 8176W        W80491  18.693   5.928  12.050
 8177W        W80492  32.122  10.641  13.204
 8178W        W80493  34.934  36.123  11.465
 8179W        W80494  17.158   7.209  14.451
 8180W        W80495  33.086   7.954   0.958
 8181W        W80496  13.775  35.822  12.384
 8182W        W80497  30.561  41.204   0.491
 8183W        W80498  24.486   1.006   4.553
 8184W        W80499  31.689  24.062  14.445
 8185W        W80500  31.945  44.036  10.163
 8186W        W80501  18.238   2.504  12.892
 8187W        W80502  21.012  30.839  13.066
 8188W        W80503  44.475  12.152  14.109
 8189W        W80504   2.483  21.255   4.544
 8190W        W80505  19.004  42.446   3.625
 8191W        W80506  21.474  44.951   2.338
 8192W        W80507   2.693   9.261  11.689
 8193W        W80508  41.817   0.714   2.751
 8194W        W80509  39.444  31.181  13.481
 8195W        W80510   4.668  29.957  12.367
 8196W        W80511  17.095  12.138   4.452
 8197W        W80512  11.940  30.869  12.879
 8198W        W80513   7.119  40.780  11.589
 8199W        W80514   3.724   0.441  11.853
 8200W        W80515  21.746  27.121  12.205
 8201W        W80516   6.324  24.706  12.109
 8202W        W80517  30.338  18.814   4.207
 8203W        W80518   4.439  20.531   4.203
 8204W        W80519  28.516  18.817  13.522
 8205W        W80520   0.463   7.205  13.907
 8206W        W80521  42.487  28.650   0.742
 8207W        W80522   2.657  22.841   2.631
 8208W        W80523  41.522  16.260   0.713
 8209W        W80524   8.844  39.205  11.619
 8210W        W80525  15.868  14.141  11.569
 8211W        W80526  34.047   4.688   0.367
 8212W        W80527  10.356  41.421  12.272
 8213W        W80528   9.664  24.214  14.946
 8214W        W80529  15.659   4.451   3.365
 8215W        W80530  33.152  20.762   1.760
 8216W        W80531  21.695  10.854   0.279
 8217W        W80532   6.394  38.664  14.510
 8218W        W80533  36.425  14.599   1.181
 8219W        W80534  27.498  34.592  11.075
 8220W        W80535  15.875   7.709   2.620
 8221W        W80536  10.365  12.815   3.902
 8222W        W80537  39.149  34.023   4.271
 8223W        W80538   7.411  17.583  11.601
 8224W        W80539  18.756  22.007  12.001
 8225W        W80540   7.917  16.141  12.466
 8226W        W80541   8.222  39.441   2.813
 8227W        W80542   2.577  33.092  14.560
 8228W        W80543  24.991  20.559   1.262
 8229W        W80544  29.474  35.550   1.914
 8230W        W80545   9.162  18.351   3.775
 8231W        W80546  32.455  22.860  13.543
 8232W        W80547  42.470  41.467  10.495
 8233W        W80548  31.679  29.923   2.342
 8234W        W80549  19.597  12.776   4.409
 8235W        W80550   8.393  42.310   2.350
 8236W        W80551   9.084  38.148  12.505
 8237W        W80552  30.069   7.092  11.203
 8238W        W80553  41.378  16.647   0.366
 8239W        W80554  27.512  17.419  14.420
 8240W        W80555   2.493   9.956  12.424
 8241W        W80556   1.620   3.326  12.591
 8242W        W80557   1.471  17.698  12.976
 8243W        W80558  24.329  15.485   4.535
 8244W        W80559  22.031  44.983   0.512
 8245W        W80560   6.386   8.307   0.901
 8246W        W80561  39.477  26.948  11.462
 8247W        W80562   8.904   5.638   1.713
 8248W        W80563  28.900  15.193  13.874
 8249W        W80564  12.765  35.781  14.377
 8250W        W80565  19.735  38.147  10.452
 8251W        W80566  37.242  44.239   4.133
 8252W        W80567  28.597  21.915  10.819
 8253W        W80568  28.981  10.283   9.991
 8254W        W80569  27.109  12.836  14.269
 8255W        W80570  22.453  35.009  10.658
 8256W        W80571  30.466   4.755  12.063
 8257W        W80572   8.919   6.770   0.202
 8258W        W80573  15.073  40.042  12.550
 8259W        W80574  30.430  12.462   4.131
 8260W        W80575  27.567  40.103   3.636
 8261W        W80576  34.966  44.331  12.183
 8262W        W80577   9.859  15.996   0.926
 8263W        W80578  43.044  14.610   2.389
 8264W        W80579  42.026  30.121  12.032
 8265W        W80580  21.775  21.501  12.323
 8266W        W80581  30.303  11.902   2.203
 8267W        W80582   0.261  41.471  13.261
 8268W        W80583  37.079  15.059  10.737
 8269W        W80584  34.798   0.307   3.676
 8270W        W80585  44.038  42.282  14.890
 8271W        W80586  18.050  10.674   1.326
 8272W        W80587  35.921  23.058   3.749
 8273W        W80588  17.847  24.659   1.326
 8274W        W80589  24.625  11.326  13.063
 8275W        W80590   7.314   3.930  11.148
 8276W        W80591  36.476  35.128  12.014
 8277W        W80592   8.752  26.234  10.692
 8278W        W80593  17.806  44.829  10.791
 8279W        W80594  34.797  19.513  10.937
 8280W        W80595  31.113   5.517  12.068
 8281W        W80596  16.134  28.898  13.872
 8282W        W80597  28.253  15.114   0.976
 8283W        W80598  42.992  30.277   3.978
 8284W        W80599  24.046  43.362  14.778
 8285W        W80600  39.911  32.522   0.196
 8286W        W80601  38.285   2.497  13.416
 8287W        W80602  23.523  10.380  11.076
 8288W        W80603   6.953  12.852   2.660
 8289W        W80604  30.082  20.152  11.427
 8290W        W80605  36.019  16.752   4.630
 8291W        W80606  41.998  22.691  14.647
 8292W        W80607  40.775  40.380   0.817
 8293W        W80608  11.646   9.049   4.092
 8294W        W80609  41.941  11.311  14.423
 8295W        W80610  37.277   3.527   3.638
 8296W        W80611  16.133   6.311  13.369
 8297W        W80612  15.510  39.401   4.620
 8298W        W80613  36.363  38.573   0.440
 8299W        W80614  27.163  30.370  12.027
 8300W        W80615  28.528   8.128  11.897
 8301W        W80616  38.418  25.148   0.680
 8302W        W80617  33.041  36.596   0.264
 8303W        W80618  28.056  38.857   3.245
 8304W        W80619  31.970   3.936  12.905
 8305W        W80620  22.591  33.153   0.838
 8306W        W80621  44.284  41.842  12.107
 8307W        W80622  13.271  11.192  10.604
 8308W        W80623   0.296   7.484  11.573
 8309W        W80624  16.177  40.316   0.384
 8310W        W80625  25.609   3.402   0.038
 8311W        W80626  28.411  12.234  13.279
 8312W        W80627  35.686  26.491  11.452
 8313W        W80628  34.943   4.794   3.374
 8314W        W80629  25.450  24.232  14.812
 8315W        W80630  37.142  15.769   1.280
 8316W        W80631  14.301  18.289  12.360
 8317W        W80632  27.208  22.435  11.144
 8318W        W80633  33.980  39.589   0.444
 8319W        W80634  35.390  41.712  12.044
 8320W        W80635   0.493  42.208   3.139
 8321W        W80636  38.246  34.838   1.198
 8322W        W80637  28.684  13.358  11.447
 8323W        W80638  37.544  23.661   4.312
 8324W        W80639  38.706  44.336  12.376
 8325W        W80640  38.980   9.951  13.475
 8326W        W80641   1.875  12.806   3.631
 8327W        W80642  33.097   1.089  13.431
 8328W        W80643  29.426  22.249   4.525
 8329W        W80644  25.146  18.384  11.680
 8330W        W80645  27.121  24.605  13.469
 8331W        W80646  39.611  42.294   1.796
 8332W        W80647  35.629  29.935  10.953
 8333W        W80648  37.967  29.680  13.381
 8334W        W80649  42.267  41.153  12.361
 8335W        W80650  12.862   3.635  14.282
 8336W        W80651  12.285  29.517  14.452
 8337W        W80652  37.940  30.374   0.689
 8338W        W80653  33.627  36.354  11.771
 8339W        W80654  41.772   5.531   2.748
 8340W        W80655  35.661  11.778  10.771
 8341W        W80656  23.579  42.547   0.575
 8342W        W80657   3.466   2.366  14.058
 8343W        W80658  35.370  22.539   3.301
 8344W        W80659   2.291   2.046   3.639
 8345W        W80660  20.293  15.262   2.754
 8346W        W80661  15.177  13.534  10.807
 8347W        W80662   7.174  19.188   2.650
 8348W        W80663  23.967  20.312  12.815
 8349W        W80664  25.599  19.595   0.969
 8350W        W80665  35.660  18.554   1.337
 8351W        W80666   9.673  32.095   1.752
 8352W        W80667   1.006   5.941  14.360
 8353W        W80668   4.748  18.714   1.962
 8354W        W80669   8.573  23.148   0.926
 8355W        W80670  11.049  42.517  11.678
 8356W        W80671   6.957   0.218   3.042
 8357W        W80672   7.056   7.832  13.387
 8358W        W80673  32.466  13.741   3.166
 8359W        W80674  41.076  35.662  13.872
 8360W        W80675  28.621  20.534  10.654
 8361W        W80676  42.903  15.615   0.442
 8362W        W80677  14.490  37.469  12.535
 8363W        W80678  15.784   0.930  11.683
 8364W        W80679  13.065  43.784  10.347
 8365W        W80680   2.972  35.519  10.890
 8366W        W80681  15.165  36.811   3.951
 8367W        W80682  29.962   4.661  12.358
 8368W        W80683  10.214  25.257  12.468
 8369W        W80684  38.904   1.864  12.087
 8370W        W80685  25.695  29.010   1.963
 8371W        W80686  22.060   4.979  13.885
 8372W        W80687  16.137  24.400  13.803
 8373W        W80688  14.086  39.339  11.983
 8374W        W80689  10.320  16.979  11.672
 8375W        W80690  31.073  39.621   1.141
 8376W        W80691  35.649  29.819   4.941
 8377W        W80692  18.748  20.692   0.742
 8378W        W80693  38.544  18.066   2.663
 8379W        W80694   0.249  31.996   2.624
 8380W        W80695   6.378  31.196  11.215
 8381W        W80696  35.362   0.222   4.167
 8382W        W80697  22.996  36.884   0.854
 8383W        W80698   0.207  12.087   0.367
 8384W        W80699  44.867  14.031   0.975
 8385W        W80700  39.727  35.400  12.122
 8386W        W80701  41.186  30.077  14.495
 8387W        W80702   6.405  31.536  13.851
 8388W        W80703   5.514   2.041  14.408
 8389W        W80704  25.331  17.338  11.085
 8390W        W80705  33.489  30.227  11.114
 8391W        W80706  32.392  39.844   1.402
 8392W        W80707  11.865   1.731   0.577
 8393W        W80708  27.764  42.840   2.141
 8394W        W80709  19.628   2.902  14.276
 8395W        W80710  19.346  20.457  14.879
 8396W        W80711  23.934   5.191   0.954
 8397W        W80712  38.101   9.055   1.425
 8398W        W80713  44.932  25.064  12.766
 8399W        W80714  39.002  16.785   2.478
 8400W        W80715   2.488  27.242  11.750
 8401W        W80716   3.832  16.044   3.100
 8402W        W80717  14.607   1.299   2.823
 8403W        W80718   4.562  37.550   5.043
 8404W        W80719  23.552  27.120   1.900
 8405W        W80720  23.327   1.911   1.435
 8406W        W80721  29.126  16.623   2.076
 8407W        W80722  10.663  23.615   3.192
 8408W        W80723  34.553  41.427  13.390
 8409W        W80724  38.034  29.988  11.642
 8410W        W80725  44.770   8.632   3.365
 8411W        W80726  30.155   2.086  13.273
 8412W        W80727  14.823  29.039  10.510
 8413W        W80728   6.397  10.583  14.333
 8414W        W80729  32.427  37.418   1.826
 8415W        W80730  10.967  31.814  11.616
 8416W        W80731   0.197  12.689   3.780
 8417W        W80732   7.305  28.304  13.818
 8418W        W80733  21.731  15.490   0.897
 8419W        W80734  17.922  14.113   0.201
 8420W        W80735  31.947  13.040   1.974
 8421W        W80736   0.496   7.847  13.440
 8422W        W80737   9.191  29.292   3.708
 8423W        W80738  22.706  22.676  11.021
 8424W        W80739   2.873  13.840  13.813
 8425W        W80740  32.273  32.985  11.621
 8426W        W80741   2.524  25.057  11.632
 8427W        W80742  18.133  23.999   1.388
 8428W        W80743  22.323   1.991  12.741
 8429W        W80744  43.369  22.181  14.507
 8430W        W80745  17.751  25.557  14.900
 8431W        W80746  41.030   9.477   3.175
 8432W        W80747  20.657  43.326   4.641
 8433W        W80748  11.397  44.003   3.732
 8434W        W80749  29.204  38.341  13.520
 8435W        W80750  25.247  26.484   0.773
 8436W        W80751  14.544  44.929  11.118
 8437W        W80752  34.659   4.841   0.033
 8438W        W80753  29.314   9.966  10.249
 8439W        W80754  30.646  43.863   1.772
 8440W        W80755   8.282  25.329   1.765
 8441W        W80756  33.922  12.287  12.186
 8442W        W80757  26.042  36.478   4.804
 8443W        W80758  39.295  24.781  11.170
 8444W        W80759  40.120  28.996   2.130
 8445W        W80760  30.616  42.264   4.670
 8446W        W80761  12.147   0.685   0.503
 8447W        W80762  41.236  28.538  12.486
 8448W        W80763  42.416  36.266  11.684
 8449W        W80764   3.456   7.398  10.372
 8450W        W80765   6.305  11.272  13.969
 8451W        W80766  15.008   1.838  12.009
 8452W        W80767  37.966  10.563   1.111
 8453W        W80768  41.331  32.951  11.949
 8454W        W80769  10.119  37.392  10.611
 8455W        W80770   7.585  37.422   2.717
 8456W        W80771  42.926  36.173  11.124
 8457W        W80772  23.453  33.611  11.303
 8458W        W80773  39.020  34.668  13.331
 8459W        W80774  14.586  38.448   4.535
 8460W        W80775  38.626  20.804  11.589
 8461W        W80776  18.046  40.072  14.264
 8462W        W80777  22.179  13.378  13.404
 8463W        W80778   8.938   6.788   0.718
 8464W        W80779  13.100  11.217  14.091
 8465W        W80780   2.412  19.335  12.985
 8466W        W80781  14.382  26.583  11.575
 8467W        W80782  44.393  22.353   4.734
 8468W        W80783  37.307  16.980  11.091
 8469W        W80784   7.663  14.666   4.906
 8470W        W80785  14.141  22.038   0.378
 8471W        W80786  17.698   8.466  12.927
 8472W        W80787  25.689  20.530   2.089
 8473W        W80788  30.631  37.110   3.196
 8474W        W80789   6.458  17.588  11.944
 8475W        W80790  20.471   8.676   5.443
 8476W        W80791  38.823  16.730   4.289
 8477W        W80792   5.704  28.724   0.405
 8478W        W80793  40.319  30.766   0.253
 8479W        W80794  26.934  40.321  13.334
 8480W        W80795  29.649  16.313  11.855
 8481W        W80796  17.718   6.749  11.852
 8482W        W80797   4.835  16.717  14.029
 8483W        W80798  10.607  28.109  12.978
 8484W        W80799   5.359  44.027  13.985
 8485W        W80800   4.300  39.850  13.309
 8486W        W80801  19.076  23.506  12.421
 8487W        W80802  21.379  14.509   3.227
 8488W        W80803  31.989   5.334   2.435
 8489W        W80804  16.695   3.073  11.902
 8490W        W80805  21.525  15.662   1.366
 8491W        W80806  44.189  38.324  14.481
 8492W        W80807  24.307  30.896  12.694
 8493W        W80808  35.997  41.531   2.750
 8494W        W80809  29.362   6.821  10.355
 8495W        W80810  32.752   6.957   0.865
 8496W        W80811   3.800  37.613   2.707
 8497W        W80812  10.750  12.709   4.566
 8498W        W80813  35.142  14.385   2.061
 8499W        W80814   6.278  37.007   1.019
 8500W        W80815  16.378  42.875  10.881
 8501W        W80816  18.562   1.933   0.995
 8502W        W80817   5.992  24.076   2.495
 8503W        W80818  14.017   7.820  14.346
 8504W        W80819   0.188   6.698   3.683
 8505W        W80820   0.726  10.447  14.802
 8506W        W80821  26.999  21.071  10.738
 8507W        W80822  31.809  39.834   1.814
 8508W        W80823   1.041  19.706  11.544
 8509W        W80824  12.650  12.578   2.210
 8510W        W80825  40.840  25.096   5.096
 8511W        W80826  26.636   6.644   5.122
 8512W        W80827  18.633  13.322   0.813
 8513W        W80828  20.564  19.816  12.050
 8514W        W80829  27.152  18.197   2.388
 8515W        W80830  13.224   8.375  14.268
 8516W        W80831  35.507  14.641   4.226
 8517W        W80832  38.668   4.351  10.685
 8518W        W80833  44.522  10.657   4.172
 8519W        W80834  15.473  10.169  10.729
 8520W        W80835   8.944  15.072   2.423
 8521W        W80836  41.295  41.489  14.717
 8522W        W80837  43.741  31.227  11.581
 8523W        W80838  22.868  40.740   4.307
 8524W        W80839   9.823  36.980  11.101
 8525W        W80840  24.344  11.157   3.126
 8526W        W80841  37.978  27.408   2.171
 8527W        W80842  20.576  14.355  14.047
 8528W        W80843  37.821  44.078  10.973
 8529W        W80844  25.211  18.370  10.737
 8530W        W80845   9.837  43.338   0.801
 8531W        W80846  20.220  19.780   2.954
 8532W        W80847   5.324  24.094  14.670
 8533W        W80848  15.915   7.727   1.705
 8534W        W80849   8.113  39.314   0.304
 8535W        W80850  37.308  36.317  13.342
 8536W        W80851  15.241   1.396   2.452
 8537W        W80852  25.506  42.086   0.524
 8538W        W80853  31.420  40.592  12.502
 8539W        W80854   3.816  42.917  14.876
 8540W        W80855  19.700  17.256   2.643
 8541W        W80856   3.999  34.284   0.261
 8542W        W80857  31.750   8.366  11.664
 8543W        W80858   2.698  15.602  11.510
 8544W        W80859  12.463   2.747   2.622
 8545W        W80860  10.098  34.020  12.967
 8546W        W80861   5.124  11.226   1.814
 8547W        W80862  34.454  32.271  14.175
 8548W        W80863  24.906   3.678  11.341
 8549W        W80864  32.150   2.703   3.838
 8550W        W80865  19.763  37.161  11.119
 8551W        W80866  14.132  17.249  12.160
 8552W        W80867   7.734  44.792   2.567
 8553W        W80868  43.679  33.039   3.297
 8554W        W80869  14.355   1.290   3.307
 8555W        W80870   6.827  23.439  13.945
 8556W        W80871  36.181  36.546   1.280
 8557W        W80872  41.384   5.623   2.396
 8558W        W80873  39.473  16.798  13.564
 8559W        W80874   7.920  44.874  11.147
 8560W        W80875  38.263   0.979  14.813
 8561W        W80876  27.715  20.162   4.765
 8562W        W80877  16.024   2.907  11.567
 8563W        W80878   4.971  38.970   2.879
 8564W        W80879  37.613  16.558  12.529
 8565W        W80880   1.231  37.539   0.800
 8566W        W80881  37.393  28.982   2.839
 8567W        W80882  39.372  37.346  13.406
 8568W        W80883  19.073   1.430   2.661
 8569W        W80884   8.733  36.925  12.158
 8570W        W80885   7.648  11.175  13.200
 8571W        W80886  21.824  17.315   4.558
 8572W        W80887   4.738  17.128   4.451
 8573W        W80888  29.574  30.997   5.059
 8574W        W80889  25.466  27.198   0.217
 8575W        W80890   8.251  34.582   1.945
 8576W        W80891  43.567  14.780   3.319
 8577W        W80892  40.495   1.282  12.429
 8578W        W80893  41.767   3.367   2.373
 8579W        W80894  11.366  17.558  10.320
 8580W        W80895  23.148  24.099  13.007
 8581W        W80896  13.043  33.457  11.621
 8582W        W80897  12.017   6.612  14.347
 8583W        W80898  14.563  16.790  13.778
 8584W        W80899  19.061  17.591   3.837
 8585W        W80900   7.785  34.303   1.342
 8586W        W80901  10.784  30.910  14.869
 8587W        W80902  32.167  37.504   0.491
 8588W        W80903  18.623  14.677   4.134
 8589W        W80904  21.979   5.719  12.189
 8590W        W80905   4.463  44.426  11.193
 8591W        W80906  22.548  42.040   1.941
 8592W        W80907  36.387  33.193   4.448
 8593W        W80908   8.353  10.650   0.197
 8594W        W80909  41.309  22.728   2.769
 8595W        W80910   6.591  43.459   4.879
 8596W        W80911  44.540  25.222  10.188
 8597W        W80912   5.895  36.841   3.861
 8598W        W80913  23.470  32.503   4.607
 8599W        W80914  28.182  33.866  11.876
 8600W        W80915  18.177  32.988   1.491
 8601W        W80916  22.260   7.322  13.832
 8602W        W80917  28.457  43.951   2.333
 8603W        W80918  37.104  31.483   4.651
 8604W        W80919  23.287  18.499  10.180
 8605W        W80920   7.791   8.794   1.400
 8606W        W80921  40.776  44.142  14.817
 8607W        W80922  21.370  18.135   3.643
 8608W        W80923  13.846   0.491  14.842
 8609W        W80924   2.432   4.759   1.711
 8610W        W80925  37.152  43.380  11.263
 8611W        W80926  32.457  36.427   1.793
 8612W        W80927  33.939   0.789  13.520
 8613W        W80928   6.949   6.216  13.936
 8614W        W80929  39.394  43.618   1.221
 8615W        W80930   3.226   8.437   3.157
 8616W        W80931  12.759  12.159  14.582
 8617W        W80932  24.426  10.477   0.177
 8618W        W80933  40.316  41.391   3.628
 8619W        W80934  13.586  11.364  13.264
 8620W        W80935  41.296  26.879  14.846
 8621W        W80936   6.477  13.234  12.069
 8622W        W80937   0.630  12.255   1.722
 8623W        W80938  19.331  12.824   3.946
 8624W        W80939   4.937  12.858   2.487
 8625W        W80940  31.940  17.334  14.951
 8626W        W80941  13.558  40.400  14.845
 8627W        W80942   3.198  17.530   4.697
 8628W        W80943   8.976  18.590  10.271
 8629W        W80944  24.015   3.410   3.150
 8630W        W80945  42.657   6.235   2.893
 8631W        W80946  21.609  41.365  11.201
 8632W        W80947  11.213   1.664  12.997
 8633W        W80948  14.338  36.381  14.019
 8634W        W80949  16.314  29.988   1.877
 8635W        W80950  13.305  27.569   3.285
 8636W        W80951  34.408  37.862  13.637
 8637W        W80952  39.968  16.984   2.337
 8638W        W80953  29.064  43.435  12.957
 8639W        W80954  30.941  44.415   4.590
 8640W        W80955   9.218  37.286   1.928
 8641W        W80956  35.553  34.339   0.297
 8642W        W80957  26.189  21.396  10.846
 8643W        W80958  23.579  25.130   3.662
 8644W        W80959  13.352  30.044   2.693
 8645W        W80960  14.187   2.695   2.160
 8646W        W80961  38.524  27.661  14.015
 8647W        W80962  19.731  40.825  13.099
 8648W        W80963  35.468   3.693   3.210
 8649W        W80964  39.502  28.424  14.898
 8650W        W80965  40.409  31.196  13.452
 8651W        W80966  35.637  20.204   1.480
 8652W        W80967  44.397  15.562   2.873
 8653W        W80968   7.819  24.748  12.579
 8654W        W80969  24.756  22.241   4.097
 8655W        W80970  25.575   6.210   2.372
 8656W        W80971  20.328   1.015   1.886
 8657W        W80972  12.561   2.393  12.515
 8658W        W80973  21.636  32.226   0.708
 8659W        W80974  41.045  35.537   1.294
 8660W        W80975  34.815  32.547  13.459
 8661W        W80976  25.941  43.248   3.412
 8662W        W80977   8.022  25.254   0.902
 8663W        W80978  33.111  40.401  12.711
 8664W        W80979   2.413  41.945   0.291
 8665W        W80980   1.297  13.903   2.806
 8666W        W80981  26.658  31.393   1.291
 8667W        W80982   2.793  27.929   3.959
 8668W        W80983   2.194  40.913   0.861
 8669W        W80984  36.954   4.955  11.752
 8670W        W80985  39.905  24.043   3.241
 8671W        W80986  23.287  40.008   0.176
 8672W        W80987  21.030  35.823  12.547
 8673W        W80988  44.614  10.624  13.987
 8674W        W80989  26.164  36.159  12.094
 8675W        W80990  31.230  25.703  14.609
 8676W        W80991  21.069   9.862   1.328
 8677W        W80992   5.486  14.992  13.881
 8678W        W80993   5.803  11.122  14.717
 8679W        W80994  12.355  36.494  12.482
 8680W        W80995  28.816  38.963   4.074
 8681W        W80996  16.256  44.979   3.568
 8682W        W80997  11.832  23.206   2.233
 8683W        W80998  44.827  16.275   1.864
 8684W        W80999   0.229   9.969   2.251
 8685W        W81000   1.440  39.925  12.020
 8686W        W81001   6.165  30.424   4.712
 8687W        W81002  14.873  39.455   2.912
 8688W        W81003  44.374  29.461  11.519
 8689W        W81004   7.503  21.183   4.403
 8690W        W81005  28.565  38.881  11.982
 8691W        W81006  20.817  39.414   2.393
 8692W        W81007  23.326   8.116   4.585
 8693W        W81008   9.215   6.894   3.815
 8694W        W81009  12.794  30.177   0.020
 8695W        W81010  27.198  34.517   3.565
 8696W        W81011  34.165  39.109   0.369
 8697W        W81012  40.986  11.483  12.177
 8698W        W81013  16.111   4.276  14.360
 8699W        W81014   0.390  16.127   1.237
 8700W        W81015  39.770   3.776  11.175
 8701W        W81016  38.665  20.494  11.161
 8702W        W81017  41.298  35.290  11.310
 8703W        W81018   3.838  15.078  13.009
 8704W        W81019  40.408  38.047   4.359
 8705W        W81020  15.242  37.805   1.714
 8706W        W81021  43.766  31.351  10.757
 8707W        W81022  43.786  38.022  13.904
 8708W        W81023  18.084  12.605  12.931
 8709W        W81024  44.418  43.128   2.357
 8710W        W81025   9.501  35.083   2.228
 8711W        W81026   7.244   7.847  13.941
 8712W        W81027  13.577  12.828   4.880
 8713W        W81028   1.010  37.370  10.130
 8714W        W81029  39.024  18.093   4.384
 8715W        W81030  10.272  25.251   1.805
 8716W        W81031  17.726  22.670  12.389
 8717W        W81032   9.887  27.570  13.869
 8718W        W81033  26.664  13.395   2.075
 8719W        W81034  29.901  40.797  14.827
 8720W        W81035  21.351  43.788  10.669
 8721W        W81036  24.179   0.753  11.603
 8722W        W81037  30.844  38.485  14.337
 8723W        W81038  35.087   7.286   2.070
 8724W        W81039  18.556  43.096   3.740
 8725W        W81040  12.902  15.532  11.714
 8726W        W81041  12.696  10.286  13.136
 8727W        W81042  17.525  24.531  13.876
 8728W        W81043   9.459  12.133   4.152
 8729W        W81044  12.785  28.594   0.279
 8730W        W81045  12.903   0.909   2.690
 8731W        W81046  36.465  18.110  13.309
 8732W        W81047  29.101  12.902   1.302
 8733W        W81048  36.626  25.663   1.938
 8734W        W81049   0.628  18.509   3.253
 8735W        W81050   3.023   8.150   1.889
 8736W        W81051  13.887  10.742   0.273
 8737W        W81052  37.860  37.462  11.011
 8738W        W81053  42.521  42.510  14.731
 8739W        W81054  37.067  19.617   2.664
 8740W        W81055  41.063  43.444   3.986
 8741W        W81056  13.668  39.452  14.768
 8742W        W81057   3.803   0.302   1.265
 8743W        W81058  42.999  24.561   3.443
 8744W        W81059  33.137  44.949   1.459
 8745W        W81060  26.010  25.901   4.497
 8746W        W81061  39.374  31.600  10.703
 8747W        W81062  15.057  17.205  11.670
 8748W        W81063  12.715   4.104   0.391
 8749W        W81064  34.272  28.661  13.539
 8750W        W81065  41.452  25.651  13.004
 8751W        W81066  20.547  10.709   1.022
 8752W        W81067  10.729  28.849   3.612
 8753W        W81068  23.760   9.285   4.651
 8754W        W81069  23.558  16.125  11.630
 8755W        W81070  25.324  18.377  14.432
 8756W        W81071   9.361  16.107  14.082
 8757W        W81072  38.882   9.871  10.258
 8758W        W81073   2.936  42.006   2.707
 8759W        W81074  27.100  13.747  14.533
 8760W        W81075   2.365  40.685  12.571
 8761W        W81076  44.687  37.995   3.893
 8762W        W81077  22.715  33.430   3.224
 8763W        W81078  17.176  25.424  13.003
 8764W        W81079  41.185  44.251   0.425
 8765W        W81080  29.959   4.753   0.608
 8766W        W81081  18.142  44.682   1.404
 8767W        W81082  25.231   2.178  13.305
 8768W        W81083   4.405  26.417  11.979
 8769W        W81084  34.387  12.187   3.174
 8770W        W81085  37.426  17.509   4.132
 8771W        W81086  25.026  19.416  10.679
 8772W        W81087  14.110   3.640  11.105
 8773W        W81088  28.233   4.929   1.786
 8774W        W81089   6.811  35.384  11.542
 8775W        W81090  12.364  43.433   2.203
 8776W        W81091  43.980  31.988   4.433
 8777W        W81092  15.792  43.948   1.053
 8778W        W81093  22.560  10.192  12.540
 8779W        W81094  12.044   2.467  13.878
 8780W        W81095   0.625  15.664   2.240
 8781W        W81096  18.125  16.045  12.023
 8782W        W81097  26.025   7.065   3.270
 8783W        W81098  36.297  33.369  14.456
 8784W        W81099  14.519   2.715   0.852
 8785W        W81100   9.606   3.214  10.644
 8786W        W81101  40.235  27.898  12.932
 8787W        W81102  23.729   4.717   0.251
 8788W        W81103   0.100  15.723  12.423
 8789W        W81104  35.922  41.930  14.787
 8790W        W81105   0.253   4.503   0.916
 8791W        W81106  44.334  29.427   5.232
 8792W        W81107   9.431  22.278   0.425
 8793W        W81108  13.760  35.005  10.485
 8794W        W81109  42.268  22.298  13.883
 8795W        W81110  44.709   2.510   3.640
 8796W        W81111  38.946  44.028  11.603
 8797W        W81112   6.141  31.965  13.755
 8798W        W81113  16.331   0.017  14.968
 8799W        W81114  28.044  43.458   4.493
 8800W        W81115  35.522  29.808  14.830
 8801W        W81116  13.886  36.385  14.936
 8802W        W81117  41.382  32.760  11.440
 8803W        W81118  44.857  33.015   1.275
 8804W        W81119  23.287  12.526  12.528
 8805W        W81120  11.147  25.067  11.483
 8806W        W81121  24.163  18.355   4.256
 8807W        W81122  41.507   9.237  13.271
 8808W        W81123  23.118  21.581   3.286
 8809W        W81124  36.557  14.316  11.881
 8810W        W81125  31.689  27.947  11.088
 8811W        W81126   8.153  38.611   1.789
 8812W        W81127   0.411  18.367   4.145
 8813W        W81128  31.211  15.642   0.832
 8814W        W81129  38.569   3.979   4.282
 8815W        W81130  42.882  25.219  11.942
 8816W        W81131   6.665  39.224  12.952
 8817W        W81132   0.395  21.970  14.956
 8818W        W81133  29.926   3.035   0.673
 8819W        W81134  37.356   5.890   0.807
 8820W        W81135   7.115  29.521  12.343
 8821W        W81136  41.985  30.214   1.425
 8822W        W81137   9.824   1.168   0.071
 8823W        W81138   6.288   3.129   2.359
 8824W        W81139  12.698  30.354  12.383
 8825W        W81140  27.925  12.392   4.066
 8826W        W81141  30.571  33.489  11.566
 8827W        W81142  28.134  31.096  14.483
 8828W        W81143  26.463   7.073   1.728
 8829W        W81144  19.001  20.996   2.054
 8830W        W81145  12.960  12.562  12.023
 8831W        W81146  13.030  10.322   2.288
 8832W        W81147  41.903  33.232   2.276
 8833W        W81148  40.757  24.736   3.827
 8834W        W81149  26.267  10.938   0.234
 8835W        W81150  22.072   4.335  11.683
 8836W        W81151  36.940  41.248   2.239
 8837W        W81152  24.586   3.207  10.474
 8838W        W81153  15.132  42.889  14.277
 8839W        W81154  27.553   9.894  11.091
 8840W        W81155  24.614  21.575   5.512
 8841W        W81156  10.119  40.567  11.765
 8842W        W81157  16.779  34.927  14.470
 8843W        W81158  19.237  31.833  12.809
 8844W        W81159  15.642  44.944  10.603
 8845W        W81160  34.900  32.668  11.129
 8846W        W81161  16.781  27.664  12.040
 8847W        W81162   6.355   4.456   2.935
 8848W        W81163  15.587  34.614   1.321
 8849W        W81164  36.913  26.905   3.626
 8850W        W81165  14.300  18.625   3.369
 8851W        W81166  28.105  22.295   1.444
 8852W        W81167  27.344  34.374  11.559
 8853W        W81168  41.373  24.848  13.515
 8854W        W81169  28.146   6.127   1.288
 8855W        W81170   1.467  25.991   3.280
 8856W        W81171  18.199  23.467  12.456
 8857W        W81172   8.414  18.024   0.405
 8858W        W81173  33.075  39.883  11.939
 8859W        W81174  42.784  19.518  14.650
 8860W        W81175  40.263  36.494   1.823
 8861W        W81176  11.903  32.556   1.527
 8862W        W81177  39.511  12.450  14.613
 8863W        W81178   6.870  15.800   2.213
 8864W        W81179  31.686  22.587   4.487
 8865W        W81180   6.749  43.085  11.104
 8866W        W81181  25.254  40.502  10.673
 8867W        W81182  28.458  38.883   4.431
 8868W        W81183  34.066  38.791   3.039
 8869W        W81184   1.512  21.113  10.675
 8870W        W81185   0.244  14.034  13.022
 8871W        W81186  36.419  35.273   1.784
 8872W        W81187  30.055  32.858  12.793
 8873W        W81188  40.044  38.077  12.000
 8874W        W81189  10.888  31.837  12.506
 8875W        W81190  32.183   3.336   4.981
 8876W        W81191  18.695  37.529   4.917
 8877W        W81192   9.603  19.283   5.048
 8878W        W81193   4.901  37.305  14.818
 8879W        W81194  35.123  42.487  11.061
 8880W        W81195  28.488  34.458  14.485
 8881W        W81196  34.583  41.929   2.411
 8882W        W81197  27.230  28.496  13.701
 8883W        W81198  32.235  43.511   4.258
 8884W        W81199  14.599   4.995   0.820
 8885W        W81200  36.369  37.209   3.653
 8886W        W81201  24.382  23.581   3.526
 8887W        W81202  26.094   8.935   1.769
 8888W        W81203  33.095  39.567  10.789
 8889W        W81204  19.762  29.893   4.077
 8890W        W81205  39.057  11.846   2.128
 8891W        W81206  15.382  24.102  10.784
 8892W        W81207  34.960  15.710  13.003
 8893W        W81208  32.711  32.527  14.957
 8894W        W81209  21.955  37.478  13.777
 8895W        W81210   6.277   7.597   0.402
 8896W        W81211  18.732  18.830   3.679
 8897W        W81212  36.855  39.525  10.598
 8898W        W81213  18.189   4.001  12.941
 8899W        W81214  40.107   8.183   2.337
 8900W        W81215  18.892  28.247  13.941
 8901W        W81216  12.381   3.978  11.064
 8902W        W81217  17.096  24.981   0.307
 8903W        W81218  35.129  41.243   1.774
 8904W        W81219  24.492  41.564  12.276
 8905W        W81220   3.290  34.582  10.722
 8906W        W81221  39.400  25.177   2.627
 8907W        W81222  19.393  30.317   4.860
 8908W        W81223  37.989  44.009  13.005
 8909W        W81224   0.179   8.382  10.262
 8910W        W81225  24.227  19.016   2.572
 8911W        W81226  41.889  38.636   5.080
 8912W        W81227  23.476  27.142   0.411
 8913W        W81228   3.695  22.012   4.144
 8914W        W81229  40.118   6.878   3.207
 8915W        W81230   8.799  37.128  13.158
 8916W        W81231   3.894  10.274  13.078
 8917W        W81232  25.626  41.897  12.661
 8918W        W81233  44.971  41.012  12.911
 8919W        W81234   9.925  11.586   2.302
 8920W        W81235  42.946  41.405  11.399
 8921W        W81236  37.798   4.793   2.325
 8922W        W81237   2.809   1.770  12.979
 8923W        W81238  38.595  20.765  10.669
 8924W        W81239   0.861  42.767   2.805
 8925W        W81240   7.180  21.862  13.487
 8926W        W81241  17.698  37.976  11.206
 8927W        W81242  16.275   2.775  12.003
 8928W        W81243   3.251  34.702   4.716
 8929W        W81244  25.163  19.266   4.541
 8930W        W81245   6.395   2.948  13.512
 8931W        W81246  15.867  26.936   2.330
 8932W        W81247  35.885   2.385  10.846
 8933W        W81248  22.994  20.904  12.476
 8934W        W81249   5.910  16.200   2.001
 8935W        W81250  35.484  26.503  13.579
 8936W        W81251  44.555  26.215  11.788
 8937W        W81252  26.110   2.754  14.158
 8938W        W81253  39.454   0.075   3.324
 8939W        W81254  30.452  40.340   2.672
 8940W        W81255   9.371  15.857  13.610
 8941W        W81256   7.091  39.822  13.521
 8942W        W81257  37.951  14.860  14.783
 8943W        W81258  38.069  39.257   2.281
 8944W        W81259  34.978  26.573   5.009
 8945W        W81260  36.470  29.733  13.025
 8946W        W81261  16.735   8.113   4.882
 8947W        W81262  31.293  28.738  11.233
 8948W        W81263   5.923  11.191   2.184
 8949W        W81264  24.423   5.250   1.781
 8950W        W81265  15.345  40.532   2.361
 8951W        W81266  40.005  40.913   2.829
 8952W        W81267  28.022  22.362   0.296
 8953W        W81268  24.232   6.637   0.597
 8954W        W81269   6.696  16.579  14.079
 8955W        W81270  43.979  16.112  11.390
 8956W        W81271   3.399   2.185   0.771
 8957W        W81272  15.279  38.207  14.707
 8958W        W81273  17.239  16.584   2.927
 8959W        W81274  26.566  25.571  10.300
 8960W        W81275  36.067  24.556  11.165
 8961W        W81276   2.638  39.956   4.679
 8962W        W81277  29.841  34.906  10.883
 8963W        W81278  16.551  24.569   2.701
 8964W        W81279  37.563  35.120   3.298
 8965W        W81280  43.658  26.024   4.566
 8966W        W81281  23.307  11.847  13.551
 8967W        W81282  21.685  30.890  10.730
 8968W        W81283   6.941   0.897  13.967
 8969W        W81284  36.797  23.678   1.307
 8970W        W81285  42.516   8.632  13.794
 8971W        W81286   1.526  34.042   0.896
 8972W        W81287   1.694  44.385  14.103
 8973W        W81288   9.020  26.183   1.343
 8974W        W81289  43.721  11.970  10.607
 8975W        W81290  33.554   5.410   2.448
 8976W        W81291  24.426  32.289   1.390
 8977W        W81292   2.825  44.718   2.213
 8978W        W81293   1.383  14.550   0.378
 8979W        W81294  43.149  36.856   2.734
 8980W        W81295  31.111  18.682   4.506
 8981W        W81296  14.308  39.882   3.713
 8982W        W81297  30.379  44.972   1.280
 8983W        W81298  32.045   3.442  13.045
 8984W        W81299  22.744  41.500   3.695
 8985W        W81300  27.702  34.394   4.899
 8986W        W81301  40.095  20.633  14.827
 8987W        W81302  37.078  41.245   4.328
 8988W        W81303  41.445  32.409  12.837
 8989W        W81304  18.709  29.605   0.831
 8990W        W81305  30.901  23.693   0.262
 8991W        W81306   6.375  29.407  10.721
 8992W        W81307   4.491   3.390  11.477
 8993W        W81308  29.463   2.688  14.242
 8994W        W81309   2.528   9.929  11.138
 8995W        W81310  26.957  16.519   1.296
 8996W        W81311   3.580   0.396  13.893
 8997W        W81312  22.119  41.935   2.192
 8998W        W81313   8.406  42.472   2.854
 8999W        W81314  22.697   1.223   2.647
 9000W        W81315   5.330  37.034  12.566
 9001W        W81316   7.109  22.043  14.286
 9002W        W81317   7.757   1.573   4.247
 9003W        W81318  34.116  35.747   0.874
 9004W        W81319  12.926  14.631   1.687
 9005W        W81320  15.772  13.539  13.841
 9006W        W81321  16.706  26.383   3.338
 9007W        W81322  17.073   1.915  13.091
 9008W        W81323  18.351  15.225  14.965
 9009W        W81324  29.403  36.002   1.440
 9010W        W81325  16.507  31.167   3.060
 9011W        W81326  29.716  28.977   1.662
 9012W        W81327   2.276  27.095  14.469
 9013W        W81328  36.991   0.236  10.400
 9014W        W81329  42.110   0.419  13.112
 9015W        W81330   5.076  23.424   3.251
 9016W        W81331  17.786   1.782   3.996
 9017W        W81332  44.236   5.609   4.188
 9018W        W81333  42.082  27.275  12.855
 9019W        W81334  39.558  17.068  14.817
 9020W        W81335  19.438  20.254  14.401
 9021W        W81336  38.324  15.015  11.799
 9022W        W81337   0.747   9.762  14.148
 9023W        W81338  18.538  42.317  13.001
 9024W        W81339   7.089  40.294   2.300
 9025W        W81340  20.214  38.292  10.276
 9026W        W81341  29.066  44.018   4.733
 9027W        W81342  21.989  24.711  12.723
 9028W        W81343  44.814  27.913  12.040
 9029W        W81344   7.364  24.203  11.259
 9030W        W81345  19.924  20.520   0.390
 9031W        W81346  34.594  37.438  13.398
 9032W        W81347  43.228   3.662  13.788
 9033W        W81348  23.774  38.068   4.257
 9034W        W81349  14.728  29.917  14.576
 9035W        W81350  39.216  26.062   4.515
 9036W        W81351  34.607   2.945   2.309
 9037W        W81352  31.515  19.657  13.478
 9038W        W81353  39.135  27.161  12.097
 9039W        W81354  17.335  23.553  12.523
 9040W        W81355  37.329  16.157  13.850
 9041W        W81356  18.777  12.158  10.603
 9042W        W81357  32.555  25.919   0.770
 9043W        W81358  39.442  36.355  13.624
 9044W        W81359   8.417  15.942  12.612
 9045W        W81360  31.384   5.001  11.127
 9046W        W81361  11.306   0.667  10.984
 9047W        W81362  43.446  38.899   0.630
 9048W        W81363  18.729  44.217  10.997
 9049W        W81364  14.861   3.199  11.211
 9050W        W81365  16.790   9.286   9.888
 9051W        W81366  33.112   0.730   3.362
 9052W        W81367  15.728  11.787   0.461
 9053W        W81368  42.075   4.198   0.868
 9054W        W81369   0.906   1.449  13.307
 9055W        W81370   1.865  27.095  14.074
 9056W        W81371   7.236  31.451   0.214
 9057W        W81372  44.012  25.419   0.439
 9058W        W81373  19.131   0.946   1.386
 9059W        W81374  19.041  11.768  11.064
 9060W        W81375  21.103  11.288   3.815
 9061W        W81376  27.656  13.176   2.606
 9062W        W81377  14.824  29.547  12.469
 9063W        W81378  23.006   6.667  12.552
 9064W        W81379  11.079  34.474   0.352
 9065W        W81380  17.611  31.233  10.763
 9066W        W81381  27.936  27.944  10.712
 9067W        W81382  28.498  37.261  11.096
 9068W        W81383  39.510  23.702  11.942
 9069W        W81384  37.997  29.364  12.928
 9070W        W81385  31.785  30.992  11.961
 9071W        W81386  19.663  31.047   2.149
 9072W        W81387  13.254  11.968   0.545
 9073W        W81388  15.290  19.169  13.293
 9074W        W81389  16.032  10.611   4.360
 9075W        W81390   2.305  36.966   4.052
 9076W        W81391  21.718  36.317  14.991
 9077W        W81392  44.529   2.680   3.188
 9078W        W81393  34.146  43.797  14.467
 9079W        W81394  44.441  35.660  10.692
 9080W        W81395  25.432  30.069  14.907
 9081W        W81396  14.844  19.561  14.898
 9082W        W81397  16.280  19.281   1.772
 9083W        W81398  11.038   2.339  12.549
 9084W        W81399  20.853  35.499  11.454
 9085W        W81400   1.375  25.116  10.852
 9086W        W81401  17.816  13.146   2.432
 9087W        W81402  21.211  22.687  13.899
 9088W        W81403   5.507  15.411   2.999
 9089W        W81404  31.970  39.058   1.180
 9090W        W81405  44.827   8.352  11.173
 9091W        W81406   1.730  43.096   3.182
 9092W        W81407   2.927   1.578  14.881
 9093W        W81408  27.507   6.024  14.504
 9094W        W81409  14.101  28.237   0.343
 9095W        W81410  29.602  30.502  10.718
 9096W        W81411  38.779  24.482   4.883
 9097W        W81412  44.915  42.959   3.610
 9098W        W81413  37.659  26.415   1.815
 9099W        W81414  15.237  11.797   3.753
 9100W        W81415  19.587  40.846   9.982
 9101W        W81416  19.094  43.438  11.211
 9102W        W81417  18.808  39.648   4.649
 9103W        W81418  44.037  35.167   2.170
 9104W        W81419  25.154  11.268   1.798
 9105W        W81420  38.303  43.652   3.184
 9106W        W81421   8.553   3.881   0.856
 9107W        W81422   8.569  21.112   1.958
 9108W        W81423   3.318  31.371  13.831
 9109W        W81424  38.226   9.727  11.465
 9110W        W81425  11.632  20.095  14.741
 9111W        W81426  44.742   4.314   0.778
 9112W        W81427  24.627   8.373  11.031
 9113W        W81428  35.619   6.880   1.294
 9114W        W81429   5.250  40.993   3.250
 9115W        W81430  21.487  11.637   2.587
 9116W        W81431   6.026  28.020  14.005
 9117W        W81432  44.172  12.414  14.437
 9118W        W81433  12.603  32.251  13.104
 9119W        W81434  20.314  35.442   1.752
 9120W        W81435  39.566   2.751  14.478
 9121W        W81436  27.053  13.371  14.896
 9122W        W81437  31.099  40.937   4.778
 9123W        W81438  42.331   7.437  11.271
 9124W        W81439  22.459  13.947   2.917
 9125W        W81440   6.456  28.847   4.951
 9126W        W81441   4.320  34.852  14.130
 9127W        W81442  14.112   4.964   3.049
 9128W        W81443  17.821  27.884  12.991
 9129W        W81444  17.036  25.791   1.036
 9130W        W81445  39.836   7.185  12.059
 9131W        W81446   9.175  18.220   1.935
 9132W        W81447  13.346  23.331  12.078
 9133W        W81448   8.118  34.594  10.651
 9134W        W81449  35.871   8.247   1.404
 9135W        W81450  21.066  41.978  11.450
 9136W        W81451   4.199  44.480   0.832
 9137W        W81452   4.532  38.805   5.079
 9138W        W81453  36.901   1.032   4.428
 9139W        W81454   1.167  16.563  11.559
 9140W        W81455   2.811  40.100   1.785
 9141W        W81456   7.269  23.918   2.910
 9142W        W81457  13.550  15.537   3.063
 9143W        W81458  29.980  34.290  11.646
 9144W        W81459  43.530   2.997   4.139
 9145W        W81460  12.832  38.847   1.251
 9146W        W81461  28.148   2.782   3.400
 9147W        W81462  14.507   2.316  12.632
 9148W        W81463   5.660  25.012  13.487
 9149W        W81464   4.730  25.031  11.945
 9150W        W81465   5.661  19.732  14.514
 9151W        W81466  28.757  26.378   4.069
 9152W        W81467  32.592  17.582   2.374
 9153W        W81468  37.491  24.418  11.652
 9154W        W81469  41.917  43.336   1.940
 9155W        W81470  28.413  29.424   1.890
 9156W        W81471   2.134   5.300  13.577
 9157W        W81472  41.580  34.596   3.160
 9158W        W81473  24.620   6.033   4.243
 9159W        W81474  44.885  12.400  12.828
 9160W        W81475  37.621  10.229  12.975
 9161W        W81476  17.474   2.910   1.351
 9162W        W81477  27.209  16.084   0.369
 9163W        W81478  31.582  14.685   4.832
 9164W        W81479  25.018  27.044   1.470
 9165W        W81480  40.284  10.312   3.791
 9166W        W81481  43.292  33.443  14.932
 9167W        W81482  41.274  24.880   2.223
 9168W        W81483  39.280  10.760   4.666
 9169W        W81484  39.234   8.657   4.444
 9170W        W81485  42.514  39.537   0.344
 9171W        W81486  22.180  29.556   0.410
 9172W        W81487  29.027   3.345   0.921
 9173W        W81488  26.994  15.864   3.026
 9174W        W81489   9.374  11.688   3.187
 9175W        W81490  18.633  33.498   4.637
 9176W        W81491  44.240  37.719   3.772
 9177W        W81492  33.008  20.079   3.333
 9178W        W81493   7.473  40.810  11.202
 9179W        W81494   0.989   7.842  14.804
 9180W        W81495  20.968  18.738   2.784
 9181W        W81496   1.831   7.267  11.645
 9182W        W81497  13.231   7.176   1.343
 9183W        W81498  36.301  30.121  13.398
 9184W        W81499  41.263  42.444   3.347
 9185W        W81500   6.118  43.813  11.474
 9186W        W81501  19.581  16.223   1.265
 9187W        W81502   4.702  34.954  14.479
 9188W        W81503  23.102  32.964  14.977
 9189W        W81504  29.379  35.053  12.106
 9190W        W81505  14.025  23.260   3.015
 9191W        W81506  12.092  44.126   0.946
 9192W        W81507   7.752  23.640  13.431
 9193W        W81508  12.268  42.836  13.408
 9194W        W81509  23.126  39.354   2.835
 9195W        W81510   2.409  43.553   3.806
 9196W        W81511  28.947  17.898   1.708
 9197W        W81512  39.299  21.869  13.583
 9198W        W81513  10.709  26.356  13.950
 9199W        W81514  32.409  16.578  12.439
 9200W        W81515  24.976  26.292   0.301
 9201W        W81516  13.748   9.393  11.519
 9202W        W81517  10.815  37.008   4.221
 9203W        W81518   0.912  19.856  14.377
 9204W        W81519  16.610   3.483   1.811
 9205W        W81520   6.930  19.089   3.335
 9206W        W81521  17.938   1.265   0.951
 9207W        W81522  20.107   0.890   0.969
 9208W        W81523  43.482   1.755  14.237
 9209W        W81524  23.537  37.008  11.579
 9210W        W81525  24.818  39.738   3.099
 9211W        W81526   3.820  42.255   2.967
 9212W        W81527  18.663  40.763   3.079
 9213W        W81528  37.351  11.172   2.270
 9214W        W81529  38.953  20.381  10.580
 9215W        W81530  10.385  14.303  11.119
 9216W        W81531  34.504  41.405   4.965
 9217W        W81532  12.120  25.172   2.370
 9218W        W81533   0.998  44.114   2.362
 9219W        W81534  19.530   1.917   3.308
 9220W        W81535  29.178  28.504  14.883
 9221W        W81536  36.133  43.046  13.776
 9222W        W81537   4.977  22.077   2.296
 9223W        W81538  43.572  23.121   1.685
 9224W        W81539  33.479  27.749   3.049
 9225W        W81540  25.296  12.114   3.359
 9226W        W81541  41.383  21.661  14.053
 9227W        W81542  24.075  44.087  10.967
 9228W        W81543   9.634  17.335   3.903
 9229W        W81544  34.087  38.343   3.308
 9230W        W81545  30.905  36.659  11.808
 9231W        W81546  14.848  18.017   1.842
 9232W        W81547  29.399   8.963  12.641
 9233W        W81548  42.224  28.523   1.235
 9234W        W81549  32.921  31.173  14.387
 9235W        W81550  17.881  40.485  11.515
 9236W        W81551  26.980  11.807   3.432
 9237W        W81552  15.427  32.757   0.302
 9238W        W81553  37.848  26.570   2.355
 9239W        W81554  24.181  30.815  14.942
 9240W        W81555  26.133  43.981  14.182
 9241W        W81556  39.119  40.937  10.581
 9242W        W81557  19.277  29.194   4.131
 9243W        W81558  39.795  22.473   3.787
 9244W        W81559   1.832  28.623   0.714
 9245W        W81560  14.579  12.753   4.845
 9246W        W81561  16.198  29.167   0.238
 9247W        W81562   8.999   3.269   5.029
 9248W        W81563  20.812  37.306  13.055
 9249W        W81564  44.248  34.542   4.712
 9250W        W81565  35.185  14.562   2.939
 9251W        W81566  35.567  44.194   4.053
 9252W        W81567   3.061  24.600   2.389
 9253W        W81568  43.736  25.748   2.284
 9254W        W81569   8.864  40.478  12.598
 9255W        W81570  22.507  15.286  10.934
 9256W        W81571  16.432  27.211  13.479
 9257W        W81572  12.490  27.623   2.329
 9258W        W81573  43.813  20.543  14.819
 9259W        W81574  31.381  15.787   1.979
 9260W        W81575  43.981   3.927  13.941
 9261W        W81576  33.049  44.262   2.603
 9262W        W81577   1.880  41.722   3.643
 9263W        W81578   4.881  36.788  12.607
 9264W        W81579   7.207   9.709   4.242
 9265W        W81580  22.573  26.610  11.409
 9266W        W81581  32.497  14.343  12.948
 9267W        W81582  19.039   2.818   1.435
 9268W        W81583  41.026  31.570  11.684
 9269W        W81584  24.070   9.947  11.534
 9270W        W81585  25.272  26.100   1.198
 9271W        W81586  31.388   8.885   1.850
 9272W        W81587   6.266   2.316  11.164
 9273W        W81588  27.129  13.663  13.530
 9274W        W81589  32.652   3.365  13.303
 9275W        W81590  25.393  33.418   0.276
 9276W        W81591  42.348  31.048   2.848
 9277W        W81592  23.965  23.775   4.649
 9278W        W81593  16.239  24.115   1.686
 9279W        W81594  15.506  38.751  12.911
 9280W        W81595  28.707   0.577   2.660
 9281W        W81596  31.194   7.647  13.401
 9282W        W81597   8.110  42.299   4.915
 9283W        W81598  19.948  31.921   2.771
 9284W        W81599  29.457  22.445   5.021
 9285W        W81600  25.151  39.921   0.436
 9286W        W81601  23.935  32.775  13.956
 9287W        W81602   6.152  24.717   3.271
 9288W        W81603   5.835  35.033  10.720
 9289W        W81604   6.970  20.475   2.379
 9290W        W81605   3.563  36.434   0.728
 9291W        W81606  32.016  18.622   1.928
 9292W        W81607  29.394  29.621   0.891
 9293W        W81608   1.479  13.730  14.937
 9294W        W81609  16.287  14.358  14.646
 9295W        W81610  26.207  29.071   2.601
 9296W        W81611   4.343  17.863  12.202
 9297W        W81612  44.012  13.124   2.823
 9298W        W81613  25.206  26.962  10.639
 9299W        W81614  29.591  18.706   3.657
 9300W        W81615  17.831   7.769  13.393
 9301W        W81616   6.678   8.811   3.577
 9302W        W81617  13.321  32.784   4.310
 9303W        W81618  13.111  12.564   1.911
 9304W        W81619  24.904  12.253   0.433
 9305W        W81620   3.455   2.938  11.078
 9306W        W81621  19.957   2.343   4.833
 9307W        W81622  40.697   9.418   1.551
 9308W        W81623   7.213  34.725  11.685
 9309W        W81624   5.631   0.287  13.973
 9310W        W81625  36.612   1.777  12.494
 9311W        W81626  29.652  17.885   1.324
 9312W        W81627  24.699  20.859   0.439
 9313W        W81628  32.514  37.929   4.613
 9314W        W81629   9.226   4.451  12.518
 9315W        W81630  30.769  28.642  11.636
 9316W        W81631   1.456  31.988   4.695
 9317W        W81632  14.631   9.718  10.557
 9318W        W81633  43.475  29.320   5.131
 9319W        W81634  15.228  26.194  11.451
 9320W        W81635  38.089  38.501   1.878
 9321W        W81636  27.095  22.648   5.094
 9322W        W81637  28.775   4.800  11.130
 9323W        W81638  39.310  43.392   0.781
 9324W        W81639  18.612   4.679  11.560
 9325W        W81640  24.802  37.591   2.970
 9326W        W81641   5.186  11.739  12.020
 9327W        W81642  13.486  33.260   4.206
 9328W        W81643   7.166  21.216   2.363
 9329W        W81644   0.506  10.099   2.677
 9330W        W81645  42.057  35.839   2.810
 9331W        W81646  27.081  23.787  11.596
 9332W        W81647   2.073  18.262   3.300
 9333W        W81648   9.662   8.751  13.921
 9334W        W81649  39.931  43.198  13.426
 9335W        W81650  25.489  17.746  13.049
 9336W        W81651  29.083   8.752   4.222
 9337W        W81652  22.533  44.028   4.634
 9338W        W81653  17.018  34.830  13.606
 9339W        W81654  26.933  21.651   1.375
 9340W        W81655  13.031  19.694   3.261
 9341W        W81656   8.446   1.629  13.339
 9342W        W81657  23.482   0.749   1.277
 9343W        W81658  12.894  22.164   2.718
 9344W        W81659  26.003   7.023   0.560
 9345W        W81660  41.893   1.256   0.786
 9346W        W81661   0.042  19.298  11.345
 9347W        W81662  36.610  19.604  14.811
 9348W        W81663   1.233  22.519  11.141
 9349W        W81664  25.641   4.424  10.268
 9350W        W81665  29.598   6.858  11.172
 9351W        W81666   3.322   6.750  13.524
 9352W        W81667  14.086   6.655  11.473
 9353W        W81668   8.932  25.660  11.353
 9354W        W81669  32.206  18.607  14.482
 9355W        W81670  33.126  16.999   4.070
 9356W        W81671  31.348  44.715  10.638
 9357W        W81672  26.648  31.193   0.393
 9358W        W81673  36.127  18.077  12.911
 9359W        W81674  20.794  31.489  12.301
 9360W        W81675   6.670  16.957  13.524
 9361W        W81676   9.572  42.802   3.859
 9362W        W81677  28.163  28.923  11.146
 9363W        W81678  16.784  37.565  13.321
 9364W        W81679  28.255   3.227   2.526
 9365W        W81680   3.307  32.765   0.669
 9366W        W81681  22.691  41.060   1.815
 9367W        W81682   9.800  23.546   1.414
 9368W        W81683  29.173  20.922   1.328
 9369W        W81684  10.410  15.326   3.385
 9370W        W81685  31.592  42.589   1.433
 9371W        W81686  20.276   8.859   1.388
 9372W        W81687  24.896   8.449   1.908
 9373W        W81688  44.124   5.805   3.725
 9374W        W81689  12.031  37.964  10.693
 9375W        W81690  16.864  16.865   3.161
 9376W        W81691  16.158  24.584  10.710
 9377W        W81692  31.014  30.554  10.133
 9378W        W81693  30.428  27.084   1.733
 9379W        W81694  25.704  42.798   2.594
 9380W        W81695  32.920  35.463   0.770
 9381W        W81696  30.919  32.483   3.163
 9382W        W81697  10.111  27.101  11.438
 9383W        W81698  33.746  26.418  12.372
 9384W        W81699  40.505  32.806  14.411
 9385W        W81700   1.242  17.189  14.083
 9386W        W81701  43.203  13.898  13.278
 9387W        W81702  16.593   4.348   1.464
 9388W        W81703  33.275  33.711   4.078
 9389W        W81704  16.813   6.203  11.561
 9390W        W81705  39.164   0.318  14.002
 9391W        W81706  10.413  10.290  12.162
 9392W        W81707  11.674  31.504  10.687
 9393W        W81708  16.185  33.837  10.487
 9394W        W81709   0.728  22.672  10.253
 9395W        W81710  27.000  39.561  14.720
 9396W        W81711   6.668  12.110   3.841
 9397W        W81712  32.388  19.819   3.166
 9398W        W81713   9.841  11.191  14.141
 9399W        W81714  21.868  42.429   4.461
 9400W        W81715  44.601  38.385   2.048
 9401W        W81716  20.060  26.052   4.798
 9402W        W81717  28.566  17.360  12.431
 9403W        W81718  10.632  24.600   0.465
 9404W        W81719  18.218  20.658   0.796
 9405W        W81720  22.119  32.970  13.503
 9406W        W81721  36.809  28.257   4.177
 9407W        W81722  41.267   5.719   3.844
 9408W        W81723  18.754  41.454  11.312
 9409W        W81724  39.882  15.035  14.244
 9410W        W81725  37.540   4.987  14.852
 9411W        W81726  34.388  39.531  12.713
 9412W        W81727  19.366   7.680   0.273
 9413W        W81728   8.204  24.535  14.816
 9414W        W81729  29.618  40.453   3.634
 9415W        W81730  26.507  23.201   3.828
 9416W        W81731  28.496  15.163   3.607
 9417W        W81732  17.782  43.571  12.458
 9418W        W81733  25.267  44.990   0.832
 9419W        W81734   1.786  35.546   2.396
 9420W        W81735  39.039   7.141  12.394
 9421W        W81736  39.604   9.837   3.730
 9422W        W81737  14.974  41.472  14.129
 9423W        W81738  30.030  20.589   1.882
 9424W        W81739  37.945  14.044   3.814
 9425W        W81740   9.475   6.602  11.944
 9426W        W81741   1.435  43.507  12.133
 9427W        W81742  17.002  38.878   4.945
 9428W        W81743   9.146   3.205  14.326
 9429W        W81744  37.036  35.905  14.070
 9430W        W81745  24.607   6.890  12.927
 9431W        W81746   2.815  42.959   1.442
 9432W        W81747  18.566  33.647  12.945
 9433W        W81748  25.972  44.814  13.959
 9434W        W81749   4.651   9.429   4.559
 9435W        W81750  36.459  44.001  11.938
 9436W        W81751  18.028   7.281   0.898
 9437W        W81752  40.841  39.274   2.221
 9438W        W81753  26.522  24.918  11.579
 9439W        W81754   8.405  12.537   1.293
 9440W        W81755  21.544  36.340   0.945
 9441W        W81756   9.351  39.755   1.817
 9442W        W81757  16.279  30.040   0.652
 9443W        W81758   9.332  30.053   2.944
 9444W        W81759  18.754  43.928   4.711
 9445W        W81760   3.675  40.418  10.687
 9446W        W81761   5.856  33.919   3.387
 9447W        W81762  27.550  12.071   0.139
 9448W        W81763  12.788   5.748  13.797
 9449W        W81764  24.557  27.502  12.916
 9450W        W81765  36.928  39.099  13.985
 9451W        W81766  35.246  33.352  14.394
 9452W        W81767  39.995   5.716   3.538
 9453W        W81768  14.238   9.925   1.894
 9454W        W81769   6.645  44.700  13.103
 9455W        W81770  23.654  18.906   4.954
 9456W        W81771  31.363  22.001   3.363
 9457W        W81772  12.584  30.900  12.403
 9458W        W81773   7.912  40.566  14.957
 9459W        W81774   6.585  27.908   1.379
 9460W        W81775  17.129   9.835   4.673
 9461W        W81776  40.419   5.868  11.544
 9462W        W81777  40.843   5.753   4.114
 9463W        W81778  36.564  17.420   1.755
 9464W        W81779   1.673  13.757   0.837
 9465W        W81780  34.606  12.335  11.159
 9466W        W81781  42.429  23.296  13.299
 9467W        W81782  27.148  33.627   3.733
 9468W        W81783  30.253  20.607  11.581
 9469W        W81784  22.184  18.133   0.271
 9470W        W81785  32.219  20.726   3.131
 9471W        W81786   6.254  42.725   2.841
 9472W        W81787  14.611   9.653   3.850
 9473W        W81788   5.708  10.923   0.328
 9474W        W81789  11.687  16.350   4.709
 9475W        W81790  10.338  17.882   0.391
 9476W        W81791  19.897   9.789  10.213
 9477W        W81792   4.282  31.474  12.047
 9478W        W81793  14.316  44.518  10.587
 9479W        W81794  25.708   5.278  10.024
 9480W        W81795  25.707  30.596   2.833
 9481W        W81796  33.862  34.767  11.996
 9482W        W81797   8.191  29.894   3.069
 9483W        W81798  42.486  34.153  10.671
 9484W        W81799  13.436   4.013   1.816
 9485W        W81800  29.509  11.329   0.274
 9486W        W81801  33.780  15.670   1.741
 9487W        W81802   0.046   0.896  11.421
 9488W        W81803   8.947  22.496  12.560
 9489W        W81804   3.377  21.623  12.848
 9490W        W81805  22.099  20.965  13.640
 9491W        W81806   7.733  29.695  14.158
 9492W        W81807  21.216  20.141   4.209
 9493W        W81808  29.527  21.419   3.849
 9494W        W81809  22.036  43.993  11.243
 9495W        W81810  31.908  44.621  11.431
 9496W        W81811  34.854  36.831   1.814
 9497W        W81812   5.846  18.556  13.400
 9498W        W81813  25.121  23.170   0.331
 9499W        W81814  44.866  13.776  14.362
 9500W        W81815  27.028  44.841  10.451
 9501W        W81816  19.050  15.138  14.394
 9502W        W81817   9.880  44.029  13.453
 9503W        W81818  31.992  35.887   2.308
 9504W        W81819  10.903   2.401   4.506
 9505W        W81820  44.080  35.666   1.330
 9506W        W81821  11.773   3.439   1.327
 9507W        W81822  39.929  37.825   3.627
 9508W        W81823  12.282  37.649  12.395
 9509W        W81824  19.785   2.546  11.964
 9510W        W81825  15.133  13.656  12.860
 9511W        W81826  21.730  11.211   4.455
 9512W        W81827  35.043  11.842  10.051
 9513W        W81828  26.094   8.447  13.812
 9514W        W81829  27.502  35.443   4.574
 9515W        W81830  10.347  21.690   1.466
 9516W        W81831  22.936   0.920  12.388
 9517W        W81832  37.401   9.361   0.089
 9518W        W81833  29.283  19.686  11.672
 9519W        W81834   6.930  43.788   4.655
 9520W        W81835  41.891  41.812   4.147
 9521W        W81836  40.713  33.396  12.023
 9522W        W81837  30.966   7.733  10.577
 9523W        W81838  21.965  37.925  12.430
 9524W        W81839  14.834  25.678  11.145
 9525W        W81840  10.098   7.249  11.891
 9526W        W81841  32.753  30.723  10.055
 9527W        W81842  41.074  41.584  13.410
 9528W        W81843  30.143   0.500   4.630
 9529W        W81844  31.659   9.588  12.001
 9530W        W81845   3.008  14.883   0.425
 9531W        W81846   0.196   4.816   1.326
 9532W        W81847  38.831  27.558  11.982
 9533W        W81848  24.324  40.869  13.341
 9534W        W81849  29.142  34.005  13.902
 9535W        W81850  30.455  16.247  12.291
 9536W        W81851  19.553  37.387  10.697
 9537W        W81852   5.479  23.930  11.535
 9538W        W81853  16.757  11.295  13.298
 9539W        W81854  25.489  15.043   2.814
 9540W        W81855   5.315  29.007  13.415
 9541W        W81856   7.830  28.643   2.435
 9542W        W81857  32.730  11.254  13.803
 9543W        W81858  29.984  33.059  14.251
 9544W        W81859  25.794  37.362   3.688
 9545W        W81860   9.777  26.235  11.471
 9546W        W81861  11.580  31.598  14.879
 9547W        W81862  22.685  21.791   9.559
 9548W        W81863  42.433  21.131   9.934
 9549W        W81864  41.782   6.315  12.870
 9550W        W81865  15.644  41.395  14.554
 9551W        W81866   8.204  36.587  12.432
 9552W        W81867  27.631   3.209  11.543
 9553W        W81868  12.338   6.811   2.479
 9554W        W81869  11.752   4.958   4.265
 9555W        W81870  18.282   4.356   4.104
 9556W        W81871   4.178  34.396  13.869
 9557W        W81872  38.821  21.256   2.942
 9558W        W81873  40.406  21.680  12.974
 9559W        W81874  41.931  24.502   1.539
 9560W        W81875  43.909  19.746  10.378
 9561W        W81876  34.614  30.403   4.518
 9562W        W81877  27.042  24.129  11.206
 9563W        W81878   0.115  36.715  11.521
 9564W        W81879   3.845  40.868   4.181
 9565W        W81880  26.756  23.561  13.409
 9566W        W81881  41.313   8.803   0.544
 9567W        W81882  21.915   3.014  12.043
 9568W        W81883  27.067   5.486   4.178
 9569W        W81884  20.640  14.139  14.522
 9570W        W81885  18.782  22.537  14.785
 9571W        W81886  18.291   1.983  11.686
 9572W        W81887  28.928  13.585  14.080
 9573W        W81888  19.400  31.171  14.591
 9574W        W81889  40.142  30.143   3.382
 9575W        W81890  11.327  11.418  14.440
 9576W        W81891  12.301  27.459   4.233
 9577W        W81892  36.991  21.295  13.824
 9578W        W81893  39.389  16.569  10.740
 9579W        W81894   0.427   0.553   3.204
 9580W        W81895  18.725  16.779  11.981
 9581W        W81896  18.588  20.156   4.469
 9582W        W81897  41.354  17.161  11.132
 9583W        W81898  19.312  20.729  12.211
 9584W        W81899   3.898   0.405  12.851
 9585W        W81900  15.390  33.091  14.898
 9586W        W81901  12.099  29.792  12.050
 9587W        W81902  26.373  42.892   3.203
 9588W        W81903  39.911  14.782   0.160
 9589W        W81904  40.480  24.420  13.340
 9590W        W81905  41.523  27.517   3.723
 9591W        W81906  26.233  29.190   3.591
 9592W        W81907  44.228  40.040  13.320
 9593W        W81908  18.733   9.212   3.829
 9594W        W81909  19.480  23.714  14.397
 9595W        W81910  10.232  27.911   1.376
 9596W        W81911   9.850  38.942   4.338
 9597W        W81912  31.401  38.917  10.971
 9598W        W81913  23.630  17.335   3.272
 9599W        W81914  10.159  37.955   0.399
 9600W        W81915  25.526  12.868  12.050
 9601W        W81916  39.012  37.177  13.999
 9602W        W81917  36.812   9.875   0.898
 9603W        W81918  41.275  18.281  10.580
 9604W        W81919   4.378  27.708   0.014
 9605W        W81920  10.298  31.867   3.681
 9606W        W81921  21.568   3.763  14.502
 9607W        W81922  21.479  22.407   1.175
 9608W        W81923  11.666  43.718  10.674
 9609W        W81924  16.728  34.561  12.857
 9610W        W81925  29.653  17.741   2.163
 9611W        W81926  15.039  42.948  12.351
 9612W        W81927  11.191  30.062   1.784
 9613W        W81928  32.006   4.193  11.116
 9614W        W81929  11.629  22.788  14.517
 9615W        W81930  24.271   0.240  12.342
 9616W        W81931  17.472   9.312   0.265
 9617W        W81932   3.692   2.948   2.974
 9618W        W81933  43.910  42.956   3.593
 9619W        W81934  15.740  23.753   2.376
 9620W        W81935  21.571  36.774   0.678
 9621W        W81936   8.439  33.322   1.452
 9622W        W81937  32.698  16.649   4.521
 9623W        W81938  11.649  20.032   0.266
 9624W        W81939  17.694   1.223   1.794
 9625W        W81940  33.680   2.776   2.651
 9626W        W81941   5.435  26.958  14.277
 9627W        W81942  11.335  26.429   4.527
 9628W        W81943   4.431  15.736   0.049
 9629W        W81944  29.639  33.418   3.114
 9630W        W81945  35.579   5.977   1.466
 9631W        W81946   2.938  37.601   3.522
 9632W        W81947  32.181   0.406   2.212
 9633W        W81948   8.332  43.905  12.690
 9634W        W81949  11.920  18.658   1.918
 9635W        W81950  37.079  39.669   0.475
 9636W        W81951  29.883  36.598   2.300
 9637W        W81952  36.084  32.947   3.110
 9638W        W81953  17.226  14.112   3.738
 9639W        W81954  43.486  29.635  10.733
 9640W        W81955  31.913  27.157   3.435
 9641W        W81956   4.239  30.900  12.024
 9642W        W81957  34.014  34.019  13.015
 9643W        W81958  43.561  11.444   4.965
 9644W        W81959   0.957   6.445  14.446
 9645W        W81960  14.308  44.296  14.564
 9646W        W81961   1.300  25.123   2.749
 9647W        W81962   5.456  16.850   4.555
 9648W        W81963  21.512  32.223   9.908
 9649W        W81964  38.324   4.212   3.209
 9650W        W81965  25.664  24.573   3.309
 9651W        W81966  40.997  16.018  11.656
 9652W        W81967  42.025  27.185   2.329
 9653W        W81968  44.350  14.766   1.921
 9654W        W81969  19.066   0.494  10.652
 9655W        W81970  30.099  16.664   3.032
 9656W        W81971  28.006  19.709   3.540
 9657W        W81972  29.466  13.030  13.160
 9658W        W81973   7.732  24.118  14.408
 9659W        W81974   3.427  11.249   0.346
 9660W        W81975  33.466  17.220  10.220
 9661W        W81976  26.435  43.455   4.649
 9662W        W81977  18.563  33.538  14.759
 9663W        W81978  15.095  36.080  11.698
 9664W        W81979  37.929  11.283   0.535
 9665W        W81980  17.321  17.569   1.647
 9666W        W81981   7.938  10.973  14.487
 9667W        W81982  33.394  38.689   3.902
 9668W        W81983  38.564  32.932  11.960
 9669W        W81984   8.804  29.683  13.816
 9670W        W81985  20.036   7.171   3.660
 9671W        W81986  41.123   7.444   3.798
 9672W        W81987  11.336  13.577  12.998
 9673W        W81988  37.578  29.304   4.208
 9674W        W81989  24.828  39.014  10.285
 9675W        W81990  24.417   2.248  10.657
 9676W        W81991  43.557  38.511  13.844
 9677W        W81992  42.529  30.732  10.751
 9678W        W81993  28.560  44.448   3.330
 9679W        W81994  32.994   2.879   4.530
 9680W        W81995   5.940  12.850  11.638
 9681W        W81996  44.261  25.013   5.010
 9682W        W81997   9.646  38.091  14.541
 9683W        W81998   9.327  39.816  13.004
 9684W        W81999  27.903  39.967   2.747
 9685W        W82000   1.244   6.311  11.589
 9686W        W82001  10.765  38.496  12.370
 9687W        W82002  41.349  24.173   0.826
 9688W        W82003   7.640  12.920  14.607
 9689W        W82004   8.446  37.958   3.733
 9690W        W82005   8.820  25.524   0.784
 9691W        W82006  26.982   4.472   4.084
 9692W        W82007  22.900  20.365   3.874
 9693W        W82008   2.812  30.477   0.251
 9694W        W82009  20.190  30.117   0.227
 9695W        W82010   5.251  22.085  14.935
 9696W        W82011   8.151  28.005  13.666
 9697W        W82012  28.295  27.575   0.466
 9698W        W82013  26.596  18.221   4.552
 9699W        W82014   4.322  39.873   0.925
 9700W        W82015  18.361  13.651   4.159
 9701W        W82016  29.864  19.624  11.184
 9702W        W82017  40.511   6.580  12.036
 9703W        W82018   3.770  23.956  10.597
 9704W        W82019  19.099  22.206  14.454
 9705W        W82020  25.209  13.209  10.985
 9706W        W82021   9.996  40.696   2.407
 9707W        W82022  16.271  16.309  14.991
 9708W        W82023   8.197  19.257  12.537
 9709W        W82024  38.985  44.322   3.214
 9710W        W82025  40.709  23.705  14.939
 9711W        W82026  10.584   4.505   3.353
 9712W        W82027  43.347  21.192   0.933
 9713W        W82028  19.039   2.233   3.084
 9714W        W82029  15.931  27.344   0.534
 9715W        W82030  39.103  41.829  11.450
 9716W        W82031  35.139  16.755  12.091
 9717W        W82032  35.576  27.419   2.986
 9718W        W82033  32.954  31.199   1.736
 9719W        W82034  10.240  19.242   0.463
 9720W        W82035  17.587  32.535  14.440
 9721W        W82036  24.502  21.866   0.457
 9722W        W82037   4.911   3.133  14.751
 9723W        W82038  28.440  18.725   0.702
 9724W        W82039  39.387  30.296   4.852
 9725W        W82040  23.042   2.343   1.359
 9726W        W82041   7.619  42.308  11.235
 9727W        W82042  34.491  19.291  13.568
 9728W        W82043  27.657  21.426   2.753
 9729W        W82044  40.342  30.349  12.998
 9730W        W82045  23.133  32.123  13.977
 9731W        W82046   9.226  35.834   2.017
 9732W        W82047   0.322  32.930  11.607
 9733W        W82048  33.174  19.698   2.463
 9734W        W82049   9.279   3.731  12.866
 9735W        W82050  31.992  43.040  12.360
 9736W        W82051  16.073  35.351  10.760
 9737W        W82052  36.072   1.427  13.995
 9738W        W82053  26.704  20.521  12.468
 9739W        W82054  36.369  23.734   2.066
 9740W        W82055  38.377  18.514  11.216
 9741W        W82056  32.614  41.391  13.468
 9742W        W82057  38.930  30.597   3.112
 9743W        W82058   8.696  35.413  10.640
 9744W        W82059  25.983  27.126   2.384
 9745W        W82060  20.367   9.245   1.017
 9746W        W82061  21.227  39.531   4.417
 9747W        W82062  15.074  30.550   0.276
 9748W        W82063  18.517   2.431  13.867
 9749W        W82064  20.216  19.666  10.858
 9750W        W82065  19.239  20.791  12.722
 9751W        W82066  18.253  27.589   3.358
 9752W        W82067   7.342  30.995  14.534
 9753W        W82068  17.406  41.982   3.686
 9754W        W82069  41.435   7.495   4.205
 9755W        W82070  28.928   2.185   1.395
 9756W        W82071  33.353  11.214  14.114
 9757W        W82072  34.216  15.730   3.174
 9758W        W82073   1.775  10.788   5.426
 9759W        W82074  29.619  11.866  12.524
 9760W        W82075  33.177  29.888   3.321
 9761W        W82076  12.287  44.852  14.289
 9762W        W82077  25.192  37.893   3.245
 9763W        W82078   3.955   7.938  11.127
 9764W        W82079  15.531  16.048  11.132
 9765W        W82080  42.273   8.170  11.963
 9766W        W82081   5.928  21.621  11.929
 9767W        W82082   3.317   0.642  12.501
 9768W        W82083  37.913  12.909   4.214
 9769W        W82084  29.677  34.861   0.805
 9770W        W82085   2.001   1.856   2.384
 9771W        W82086  28.035   6.877   4.255
 9772W        W82087   6.456   9.107   0.511
 9773W        W82088  18.609  15.599  11.866
 9774W        W82089  17.206  28.505   0.464
 9775W        W82090  20.553  35.971  13.465
 9776W        W82091  30.427  17.742   1.646
 9777W        W82092  39.324  34.579  11.643
 9778W        W82093  42.799  13.371  13.257
 9779W        W82094  11.284  19.802  10.931
 9780W        W82095  13.283   1.424  12.034
 9781W        W82096  39.506   6.283   4.411
 9782W        W82097  32.482   8.638   2.756
 9783W        W82098   0.280  37.194  11.641
 9784W        W82099  39.901  17.793  13.223
 9785W        W82100  12.099  18.495   0.488
 9786W        W82101  43.377   4.163   0.220
 9787W        W82102  32.300   2.136  11.204
 9788W        W82103  27.535  14.056  13.809
 9789W        W82104   6.568  34.903  13.822
 9790W        W82105  31.176  41.386  13.394
 9791W        W82106   7.522  36.794  14.438
 9792W        W82107  32.315  17.228   0.623
 9793W        W82108  17.046  29.024  13.897
 9794W        W82109   4.664  42.164  11.982
 9795W        W82110  42.387  12.414  13.059
 9796W        W82111  20.631  21.754   1.372
 9797W        W82112  43.984  22.017  11.460
 9798W        W82113  32.130  18.450  10.753
 9799W        W82114  15.802  20.986   2.759
 9800W        W82115   3.823  38.471   3.895
 9801W        W82116  27.945   3.964  12.818
 9802W        W82117   5.767  16.644   0.790
 9803W        W82118  13.195  31.579   3.915
 9804W        W82119  39.723   4.863   2.796
 9805W        W82120  12.647  39.908   4.377
 9806W        W82121  35.285   5.263  12.882
 9807W        W82122  41.818  25.142  14.937
 9808W        W82123  22.139  40.977   2.339
 9809W        W82124  43.772  25.895   0.033
 9810W        W82125  24.201  22.195   0.723
 9811W        W82126  17.555  21.535  14.777
 9812W        W82127  43.796  26.236  14.069
 9813W        W82128  43.513   5.927  14.433
 9814W        W82129   3.435  36.990   2.063
 9815W        W82130  16.612   9.791  13.493
 9816W        W82131  37.437   8.453   2.505
 9817W        W82132   1.241   3.390   4.611
 9818W        W82133  24.188   7.358   1.347
 9819W        W82134   9.037  30.406  13.448
 9820W        W82135  27.563  43.891  11.155
 9821W        W82136  10.057  38.122  12.504
 9822W        W82137  36.885  26.554  14.825
 9823W        W82138  36.087   9.494   2.658
 9824W        W82139  34.042  22.603   3.715
 9825W        W82140  32.606   3.817  11.718
 9826W        W82141  41.309  41.822  10.677
 9827W        W82142  34.454  44.835   3.595
 9828W        W82143  23.995   6.185   4.062
 9829W        W82144   0.909   7.266   4.456
 9830W        W82145  20.540   2.534   0.763
 9831W        W82146  28.501  10.896  11.350
 9832W        W82147  28.832   5.787  14.350
 9833W        W82148   9.712  30.117  12.450
 9834W        W82149  19.613  33.942   2.713
 9835W        W82150  31.398  40.506   0.153
 9836W        W82151  11.380  29.626   2.724
 9837W        W82152  25.887   7.653   1.664
 9838W        W82153  32.057  44.777  13.935
 9839W        W82154  39.624  28.874   2.216
 9840W        W82155   2.301   1.179   3.176
 9841W        W82156  13.085  25.015   1.818
 9842W        W82157   6.853   1.170   3.419
 9843W        W82158  43.068   2.838  11.185
 9844W        W82159  37.013  37.607  11.888
 9845W        W82160  40.516   4.298   4.274
 9846W        W82161   7.756  10.836   1.282
 9847W        W82162   9.874  20.484   0.325
 9848W        W82163  16.332  18.050   3.722
 9849W        W82164  14.611  30.543   5.069
 9850W        W82165  23.344  37.474   4.971
 9851W        W82166  20.169   0.375   0.214
 9852W        W82167  39.575  13.632   1.668
 9853W        W82168  29.060  11.027   0.270
 9854W        W82169  41.760  26.107   4.580
 9855W        W82170  23.137  34.858   0.275
 9856W        W82171   7.391   3.744   0.423
 9857W        W82172  13.586  30.240  11.387
 9858W        W82173  27.601  31.003  14.452
 9859W        W82174  25.747  12.525  10.785
 9860W        W82175  40.027  32.922   0.852
 9861W        W82176  12.572  22.687   0.655
 9862W        W82177  33.602   5.256   2.931
 9863W        W82178  25.049  21.957  12.022
 9864W        W82179   8.881  33.864  14.284
 9865W        W82180  21.037   5.317   4.250
 9866W        W82181  42.193  23.912   0.934
 9867W        W82182  37.550   7.333  11.582
 9868W        W82183  17.028   7.732  10.673
 9869W        W82184  42.344  19.695  14.194
 9870W        W82185  22.223  29.901  13.564
 9871W        W82186   6.380  19.117   3.311
 9872W        W82187  42.881  15.024  13.927
 9873W        W82188  43.273  39.614  13.336
 9874W        W82189  26.863  27.172   1.290
 9875W        W82190  12.362  27.620  11.397
 9876W        W82191   4.020  13.718  11.078
 9877W        W82192  19.222   9.533   2.953
 9878W        W82193  44.798  18.344  11.565
 9879W        W82194  12.363  21.752  13.105
 9880W        W82195   4.375  38.836   1.671
 9881W        W82196  33.032  27.721   1.872
 9882W        W82197  40.843  17.868   0.389
 9883W        W82198  39.987  11.866   4.920
 9884W        W82199  23.721  25.180  12.107
 9885W        W82200  41.497  27.167   3.290
 9886W        W82201  26.085  10.776   4.087
 9887W        W82202  44.954   7.652   4.463
 9888W        W82203  17.415  44.743   1.504
 9889W        W82204  28.293  31.143   3.278
 9890W        W82205  15.841  19.271   0.420
 9891W        W82206  28.514   8.260  10.885
 9892W        W82207  19.814   3.759  10.736
 9893W        W82208   8.746  18.384   2.171
 9894W        W82209  38.938  14.258  12.960
 9895W        W82210  23.369  25.717  14.792
 9896W        W82211  11.418  42.526  10.558
 9897W        W82212  29.451  30.919  11.489
 9898W        W82213  16.049   5.286   2.127
 9899W        W82214  11.888  41.444   2.434
 9900W        W82215  42.990  28.741  11.492
 9901W        W82216  24.627   1.712  11.493
 9902W        W82217  28.170  11.413  14.271
 9903W        W82218  13.731  32.105   2.858
 9904W        W82219  22.987  27.550   1.209
 9905W        W82220  28.246   1.226   0.651
 9906W        W82221  11.816  30.342   1.498
 9907W        W82222  27.335  33.467  11.165
 9908W        W82223  27.711  14.361  14.194
 9909W        W82224   6.224  14.810   2.942
 9910W        W82225  43.441   4.977   0.867
 9911W        W82226  21.496  39.576  13.869
 9912W        W82227  27.751  18.721  14.376
 9913W        W82228   5.220   6.337   1.623
 9914W        W82229  33.978  43.384   4.233
 9915W        W82230  25.285   0.778  10.630
 9916W        W82231  37.593  43.493   3.664
 9917W        W82232   4.783  44.047  14.727
 9918W        W82233  34.904  39.048  12.146
 9919W        W82234  10.079  20.163   1.849
 9920W        W82235  14.812  16.769  10.805
 9921W        W82236   8.706  40.370   1.372
 9922W        W82237  29.592  20.896   2.986
 9923W        W82238  35.546  20.586  13.356
 9924W        W82239  13.363  13.190  13.969
 9925W        W82240  38.092  22.479   4.082
 9926W        W82241  42.754  16.042  13.873
 9927W        W82242  27.074  17.302  10.303
 9928W        W82243  18.136  20.040  12.858
 9929W        W82244   6.884   3.183   0.862
 9930W        W82245  26.805   0.341   1.932
 9931W        W82246  43.980  44.665   0.465
 9932W        W82247  41.645  34.081  13.389
 9933W        W82248  26.003   6.857   1.537
 9934W        W82249  19.720   1.408  12.461
 9935W        W82250   6.428  12.176  11.879
 9936W        W82251   1.353   8.128   0.415
 9937W        W82252  19.237  39.361   3.733
 9938W        W82253  29.233  41.044   3.094
 9939W        W82254  42.746  32.654   3.212
 9940W        W82255  22.512  40.861   0.348
 9941W        W82256  16.146  36.925   4.038
 9942W        W82257  42.319  15.792   3.562
 9943W        W82258  18.189  11.114  12.405
 9944W        W82259  27.373  35.122   2.360
 9945W        W82260  25.624  15.320  13.271
 9946W        W82261  30.529  12.375   0.266
 9947W        W82262  41.712   8.238   1.770
 9948W        W82263  18.763  37.332  11.518
 9949W        W82264  13.609  16.620   2.127
 9950W        W82265  14.357   0.386  10.704
 9951W        W82266  17.203   1.380   3.608
 9952W        W82267   2.843  20.601   0.593
 9953W        W82268   7.982  21.825   1.771
 9954W        W82269  15.113  15.836  13.497
 9955W        W82270  35.369  31.014   4.565
 9956W        W82271  21.193  13.589   0.851
 9957W        W82272  20.046  43.267  14.835
 9958W        W82273  11.403  28.675  11.164
 9959W        W82274   9.782   9.963  14.357
 9960W        W82275  27.322  37.607  13.861
 9961W        W82276  34.553  17.316  13.771
 9962W        W82277  39.516  36.865  12.003
 9963W        W82278   3.751   2.939  10.663
 9964W        W82279   5.790  30.906   1.496
 9965W        W82280   7.327  42.093   0.912
 9966W        W82281  29.500  12.579  14.719
 9967W        W82282   5.676  43.523   4.503
 9968W        W82283  14.635  36.232   1.385
 9969W        W82284  16.988  20.746   0.273
 9970W        W82285  33.762  30.331   0.817
 9971W        W82286  36.561  11.648   3.283
 9972W        W82287  28.238  25.286   4.583
 9973W        W82288   1.963  24.989  14.515
 9974W        W82289  44.323  42.768   1.348
 9975W        W82290  41.844  31.724   3.840
 9976W        W82291   5.187  11.461  12.507
 9977W        W82292  35.431  26.197   4.542
 9978W        W82293  27.907  13.005   4.540
 9979W        W82294  29.890   5.896   4.391
 9980W        W82295  25.694  42.900  12.333
 9981W        W82296  34.746  19.493   4.056
 9982W        W82297   6.233  42.110   0.460
 9983W        W82298   4.471  17.996   0.827
 9984W        W82299  42.958  21.567   3.599
 9985W        W82300   6.683  34.491   3.646
 9986W        W82301  44.920   3.037  14.758
 9987W        W82302  11.641   8.368   0.365
 9988W        W82303  40.969  14.464   2.181
 9989W        W82304  42.475  27.265  11.501
 9990W        W82305  11.030  41.223   0.523
 9991W        W82306  29.534  14.220  13.758
 9992W        W82307  38.954  42.741  11.084
 9993W        W82308  15.601   5.937   0.769
 9994W        W82309  22.688  36.401  12.134
 9995W        W82310  18.464  39.728   2.195
 9996W        W82311   4.361  16.370   2.912
 9997W        W82312  19.190  38.043  11.178
 9998W        W82313  20.834  40.880   0.911
 9999W        W82314  23.633  19.537   1.791
10000W        W82315  22.113  14.211   1.393
10001W        W82316  33.873   2.946  13.363
10002W        W82317  24.702  32.596   3.607
10003W        W82318  22.671  20.583  11.376
10004W        W82319  20.967  16.630   0.405
10005W        W82320  12.867  12.887  10.665
10006W        W82321  38.871  28.214   5.142
10007W        W82322  34.729  21.700   4.202
10008W        W82323  19.686   0.373   2.962
10009W        W82324  40.834   1.863   2.771
10010W        W82325  32.396  41.536  13.927
10011W        W82326   6.403  44.362   4.970
10012W        W82327  20.657  16.105  11.157
10013W        W82328  25.066  40.939   1.010
10014W        W82329  20.058  20.005  13.580
10015W        W82330  17.264  41.980  13.560
10016W        W82331   3.753  44.847   0.006
10017W        W82332  44.212  20.055  11.174
10018W        W82333  23.717   5.005  14.257
10019W        W82334  26.261  39.858   4.262
10020W        W82335  17.579   7.436   1.075
10021W        W82336  19.807  18.096   1.378
10022W        W82337  27.976  11.365   5.014
10023W        W82338  15.619  26.254  13.365
10024W        W82339   6.625  18.563  11.201
10025W        W82340   8.912  12.748   0.681
10026W        W82341  41.897  18.358  11.598
10027W        W82342  43.616  31.649  11.170
10028W        W82343  32.560   9.724   0.949
10029W        W82344  21.996  15.414   2.709
10030W        W82345  27.909   7.042  13.070
10031W        W82346  39.162   1.277   4.791
10032W        W82347  27.597   4.379   4.867
10033W        W82348   1.506  36.587   4.285
10034W        W82349  31.434  28.469  13.406
10035W        W82350  24.713   6.287  10.365
10036W        W82351   5.887  23.935   0.832
10037W        W82352   6.641   1.441  12.970
10038W        W82353  11.820  23.762   4.070
10039W        W82354  40.469  43.302  14.801
10040W        W82355   4.758  39.092  13.297
10041W        W82356  35.794  36.544  14.015
10042W        W82357  38.448  10.566   4.250
10043W        W82358  11.698  26.437   2.234
10044W        W82359  44.833  14.354  12.912
10045W        W82360  20.641  42.828  14.312
10046W        W82361   7.935  18.593   0.924
10047W        W82362   3.285  33.357  12.876
10048W        W82363  34.942  37.526  11.984
10049W        W82364  29.087  11.829  13.505
10050W        W82365  40.209  22.775  11.591
10051W        W82366  11.379  28.106  10.529
10052W        W82367  23.645  25.145   1.476
10053W        W82368  31.704  21.280   2.731
10054W        W82369  27.690   9.889  12.978
10055W        W82370  11.357  18.392   5.073
10056W        W82371  14.067  19.274   2.105
10057W        W82372  10.463  20.854  11.472
10058W        W82373   4.447   6.397   2.364
10059W        W82374  24.746   3.961  14.906
10060W        W82375   9.013  43.915   1.741
10061W        W82376   4.414  29.542  14.511
10062W        W82377   9.639  21.976   1.227
10063W        W82378  10.601  23.881  12.510
10064W        W82379  20.679  42.052   2.975
10065W        W82380  24.190  18.006   2.293
10066W        W82381  11.039   5.994  12.500
10067W        W82382  34.386  41.054   0.874
10068W        W82383  27.492  22.433  12.497
10069W        W82384  42.313  25.172   1.829
10070W        W82385  29.843  13.699   3.055
10071W        W82386  42.200  21.203  13.007
10072W        W82387  18.194  11.368  14.895
10073W        W82388  34.674  37.905   3.757
10074W        W82389  36.045  28.461   1.209
10075W        W82390   6.304  13.229   0.269
10076W        W82391  36.425  23.122  13.363
10077W        W82392   2.486   5.414   0.913
10078W        W82393  12.530  24.323  13.017
10079W        W82394   1.910  35.956  13.478
10080W        W82395  23.966  22.532  13.257
10081W        W82396   7.715  24.410  14.895
10082W        W82397   0.848  35.346   0.051
10083W        W82398   1.757  32.789  12.513
10084W        W82399  28.162   0.519  11.042
10085W        W82400  24.894  24.178  11.062
10086W        W82401  17.868   1.891  14.301
10087W        W82402   6.386  39.119   0.933
10088W        W82403  37.740  38.536   2.740
10089W        W82404  35.087  20.779  12.171
10090W        W82405  19.751  19.427   5.168
10091W        W82406  33.214  28.849  14.146
10092W        W82407   5.678  12.807   0.821
10093W        W82408  44.946  34.857   0.131
10094W        W82409   8.403  23.450  12.390
10095W        W82410   9.855  31.925   4.550
10096W        W82411  22.431  21.688   4.652
10097W        W82412   6.070  15.253   1.868
10098W        W82413  12.277  41.904  13.009
10099W        W82414  29.676  38.817   0.517
10100W        W82415  18.360   8.221   0.843
10101W        W82416   2.767  15.835  10.666
10102W        W82417  35.137  18.267  11.301
10103W        W82418  37.407   7.207  13.921
10104W        W82419  13.771   5.063   0.663
10105W        W82420  14.255  34.830  10.659
10106W        W82421  26.057   7.981  12.893
10107W        W82422  12.594   8.621   3.208
10108W        W82423  17.302  41.117   9.764
10109W        W82424   2.842   9.741   1.160
10110W        W82425  17.693   5.401   4.032
10111W        W82426  26.031  22.005   1.329
10112W        W82427   1.620  17.241   4.091
10113W        W82428   4.634  42.593   3.264
10114W        W82429  43.466  13.185   4.396
10115W        W82430   4.320   3.325   2.243
10116W        W82431  44.846  38.763   1.452
10117W        W82432  35.341   9.361  13.997
10118W        W82433   9.462  42.815   4.662
10119W        W82434  15.735  27.526   0.080
10120W        W82435  16.472  23.659   4.146
10121W        W82436   1.622  39.595  10.981
10122W        W82437  19.927  42.130  11.825
10123W        W82438   2.871  34.142   0.798
10124W        W82439  24.421  38.968   9.876
10125W        W82440  26.923  31.892  12.473
10126W        W82441  38.766  44.353  10.614
10127W        W82442  12.123  28.184  13.867
10128W        W82443  24.520  21.469  13.616
10129W        W82444   6.328  36.668  13.549
10130W        W82445  10.253  20.570  14.657
10131W        W82446  40.450  11.572  13.926
10132W        W82447  44.902  31.015  11.092
10133W        W82448   0.793  21.675  11.202
10134W        W82449  23.681  25.947   3.013
10135W        W82450  37.921   6.213  11.404
10136W        W82451   8.923   3.483   0.871
10137W        W82452   1.958   7.806  13.040
10138W        W82453  41.095  15.850   2.817
10139W        W82454   9.120  35.519  10.882
10140W        W82455   7.277  12.110   1.568
10141W        W82456  37.020   3.260  13.127
10142W        W82457  37.011  16.722   2.798
10143W        W82458  14.247  11.682   4.642
10144W        W82459  35.352  30.975  14.407
10145W        W82460  39.865  25.468   1.495
10146W        W82461   7.099   4.364   4.243
10147W        W82462  36.988  28.628  13.424
10148W        W82463  33.178  20.590   2.250
10149W        W82464  40.310  30.710   4.148
10150W        W82465  15.462  17.551  11.583
10151W        W82466  18.602  23.690  12.114
10152W        W82467  11.639  33.906   3.227
10153W        W82468  31.071  20.797   3.785
10154W        W82469  14.363  22.494  11.150
10155W        W82470   3.269   2.408  13.538
10156W        W82471  42.217  22.546  12.626
10157W        W82472  41.037   9.823   2.428
10158W        W82473  30.982  15.713   1.307
10159W        W82474   6.955  29.978  12.009
10160W        W82475   4.926  34.443   0.498
10161W        W82476  36.486  20.217  14.069
10162W        W82477  31.003  19.123   0.583
10163W        W82478  26.537  14.667   0.738
10164W        W82479   1.045   6.233   4.132
10165W        W82480  26.750   2.427   0.360
10166W        W82481  42.792  14.169   2.203
10167W        W82482  31.196  31.411   0.869
10168W        W82483  33.981  31.615  13.404
10169W        W82484  37.767  36.349  12.654
10170W        W82485  20.217  17.110   3.457
10171W        W82486  28.086   1.886  12.568
10172W        W82487   4.217   0.428  11.973
10173W        W82488  18.048  38.589   1.809
10174W        W82489   5.192  26.175   4.218
10175W        W82490  40.776  40.848   4.201
10176W        W82491  26.736  35.670  14.673
10177W        W82492  38.367  41.932  14.976
10178W        W82493  39.640   8.370  12.985
10179W        W82494  35.095  30.921   3.692
10180W        W82495  15.510  21.643   1.553
10181W        W82496  16.335  28.163   1.108
10182W        W82497  19.259   6.468  12.446
10183W        W82498  34.543  10.349  13.435
10184W        W82499  25.046  24.223  13.590
10185W        W82500   2.839  13.667  14.918
10186W        W82501  42.525  37.488  12.649
10187W        W82502  26.936  11.412  14.536
10188W        W82503  39.896  26.307  10.800
10189W        W82504   5.635   2.913  11.620
10190W        W82505  33.485   9.516   1.147
10191W        W82506  12.221   3.729   1.203
10192W        W82507  19.817  43.944   0.721
10193W        W82508  30.113  32.027   1.426
10194W        W82509  42.263  13.813   3.711
10195W        W82510   8.210  21.030   2.729
10196W        W82511   2.496  10.926  12.345
10197W        W82512  16.832  22.876   4.746
10198W        W82513   2.770  42.314   0.445
10199W        W82514  17.682  10.773  10.998
10200W        W82515  36.490  11.772  10.034
10201W        W82516  36.319  19.650   4.353
10202W        W82517  22.511  34.441   2.418
10203W        W82518  18.505   2.200  12.102
10204W        W82519  24.948  25.320  14.427
10205W        W82520  31.041  26.959  12.732
10206W        W82521  12.319  15.751  13.112
10207W        W82522  41.231   6.547   3.679
10208W        W82523  22.127  25.646   3.636
10209W        W82524  28.526  29.425  12.143
10210W        W82525  12.127  26.534  10.769
10211W        W82526  31.471   6.387   5.416
10212W        W82527  14.092  43.691   0.822
10213W        W82528  30.016  34.967   1.862
10214W        W82529  15.261  37.328  11.212
10215W        W82530  24.710  25.454  10.657
10216W        W82531   7.369  12.344  10.686
10217W        W82532  35.045  33.529  10.653
10218W        W82533  31.212  25.045  12.205
10219W        W82534  24.913  42.593  13.321
10220W        W82535  20.679   3.329  13.778
10221W        W82536   2.681   4.787  12.049
10222W        W82537  18.343  11.443   0.863
10223W        W82538  22.900  15.067   2.327
10224W        W82539  25.012  20.259   4.303
10225W        W82540   7.719   2.846   4.645
10226W        W82541  22.636   9.160  12.496
10227W        W82542  20.633   7.871  11.580
10228W        W82543  11.258  41.964   2.364
10229W        W82544  30.129  13.330   2.743
10230W        W82545  37.386  18.687  10.492
10231W        W82546  15.677  13.716   4.947
10232W        W82547  44.797  30.600   0.974
10233W        W82548  40.782  18.627  13.890
10234W        W82549  20.623   0.039   3.236
10235W        W82550  34.048  16.975  11.387
10236W        W82551  24.378  35.153  12.519
10237W        W82552  25.921  10.648  14.930
10238W        W82553  35.629  40.301   2.871
10239W        W82554  41.377  18.650   3.670
10240W        W82555  41.953  34.401   0.891
10241W        W82556  34.559  21.637  14.779
10242W        W82557  35.089   2.194  14.050
10243W        W82558   6.381  42.111   2.213
10244W        W82559  22.746  18.280   4.866
10245W        W82560  12.813   4.800   4.922
10246W        W82561   2.328  42.231  13.978
10247W        W82562   4.235   6.645   3.637
10248W        W82563  12.090   1.022   2.226
10249W        W82564   9.573   3.444  14.499
10250W        W82565  24.688  43.603   2.290
10251W        W82566   7.352  22.682   0.504
10252W        W82567  10.263  23.134  10.890
10253W        W82568  19.034   0.473  13.495
10254W        W82569   5.465  14.239   3.797
10255W        W82570  21.591   2.792  10.769
10256W        W82571  31.402   0.870   2.183
10257W        W82572  27.623  26.016   1.437
10258W        W82573   0.416   2.246  12.036
10259W        W82574  23.734   9.383  13.344
10260W        W82575  17.166  42.650   1.375
10261W        W82576  41.948  42.629   4.397
10262W        W82577  25.021  30.587  14.307
10263W        W82578  26.599   5.302   3.062
10264W        W82579  35.812  37.391   2.201
10265W        W82580   4.877  31.942  12.414
10266W        W82581   7.833  30.143  12.858
10267W        W82582  14.424  40.457   4.608
10268W        W82583  12.342  34.384  13.553
10269W        W82584  39.864   2.031  11.556
10270W        W82585  13.832  36.499  13.579
10271W        W82586  40.944   2.442   3.094
10272W        W82587  35.934  38.565   1.659
10273W        W82588  33.081   9.296   3.443
10274W        W82589  39.066  20.886   1.279
10275W        W82590  34.881   0.520   0.989
10276W        W82591  11.914  43.109  14.964
10277W        W82592  15.859   7.500  12.044
10278W        W82593  38.431  43.893   1.610
10279W        W82594  23.754  24.698  10.847
10280W        W82595   2.028  19.124  10.636
10281W        W82596  41.654  40.407  11.198
10282W        W82597  44.023   0.466   0.423
10283W        W82598   3.032  25.997  14.532
10284W        W82599   6.677  11.179   3.092
10285W        W82600  40.492  35.732  14.911
10286W        W82601  17.539  17.168  14.957
10287W        W82602  31.396  40.813   1.075
10288W        W82603  11.855  24.997   4.687
10289W        W82604  15.140  14.245   4.587
10290W        W82605  35.889  44.905  11.680
10291W        W82606   2.559  26.485   3.862
10292W        W82607   4.294  15.685   3.689
10293W        W82608  10.944  34.041  12.729
10294W        W82609  10.409   1.364  13.954
10295W        W82610  39.353  20.563   4.649
10296W        W82611  40.539  44.929   4.160
10297W        W82612  34.596  39.024  12.847
10298W        W82613  36.469  23.259   4.449
10299W        W82614  36.844  41.095   0.537
10300W        W82615   8.141  43.997   1.401
10301W        W82616  42.025  25.122  13.957
10302W        W82617   8.919  44.989  11.914
10303W        W82618   5.767  22.874   4.350
10304W        W82619   1.400  29.904   4.157
10305W        W82620  34.996  13.335   3.883
10306W        W82621  36.986  41.780  14.732
10307W        W82622  14.756  37.186   2.310
10308W        W82623  14.231   2.929  12.021
10309W        W82624  36.995  11.925   1.733
10310W        W82625  19.328  18.736  14.686
10311W        W82626  28.017   3.888   1.787
10312W        W82627  21.131  21.231   3.723
10313W        W82628  38.532  28.417  14.338
10314W        W82629  22.017  39.543  12.056
10315W        W82630  40.438  34.976  11.853
10316W        W82631  12.637  12.841  12.996
10317W        W82632  42.769  12.092  13.174
10318W        W82633   5.463   4.417  13.096
10319W        W82634  14.700  34.371   4.421
10320W        W82635   8.041  12.149   3.800
10321W        W82636  22.031  19.360   1.613
10322W        W82637  20.653   6.756   0.283
10323W        W82638  41.504   9.400   2.911
10324W        W82639  43.771  32.420  10.647
10325W        W82640  40.584   1.070  11.957
10326W        W82641  16.336  12.894  12.175
10327W        W82642  28.965  13.401   4.484
10328W        W82643  40.867  32.630   3.344
10329W        W82644  29.178  11.522  11.648
10330W        W82645  14.126  43.728  13.136
10331W        W82646  36.363  30.534   4.045
10332W        W82647  35.189  29.998   0.808
10333W        W82648  42.760  23.746  13.477
10334W        W82649  28.909  28.514   1.703
10335W        W82650   2.980   4.355   2.240
10336W        W82651  40.385  23.934   3.345
10337W        W82652  44.177  26.208  14.908
10338W        W82653  34.570  31.280   0.507
10339W        W82654  41.532  11.665  14.397
10340W        W82655  35.405  18.197   1.026
10341W        W82656  41.818  39.447   2.372
10342W        W82657   2.288  29.955   0.764
10343W        W82658  11.361   1.357   0.923
10344W        W82659  28.210  19.280  10.751
10345W        W82660  33.118  14.447  12.498
10346W        W82661  33.979   8.934   3.129
10347W        W82662   5.484   0.969  13.855
10348W        W82663  41.088  22.919   0.818
10349W        W82664  23.240   9.104   0.063
10350W        W82665  12.322   8.169   1.344
10351W        W82666   8.434  15.073  11.105
10352W        W82667  19.570  35.053   0.792
10353W        W82668  22.137  10.835   0.017
10354W        W82669  30.892  32.873  14.799
10355W        W82670   8.885  35.853  10.424
10356W        W82671  14.737  41.338   3.702
10357W        W82672  16.309  11.711  13.916
10358W        W82673  41.869  15.342  13.405
10359W        W82674  23.762  11.338   3.115
10360W        W82675  25.706  30.291  11.955
10361W        W82676  29.933  44.492  13.045
10362W        W82677   3.910  29.465   0.434
10363W        W82678   6.905  15.552   4.093
10364W        W82679  20.758  44.675  14.502
10365W        W82680  12.726   1.689  10.555
10366W        W82681  27.463  32.127   0.621
10367W        W82682   7.017   4.796  11.214
10368W        W82683  14.628  41.283  14.872
10369W        W82684  11.906  18.051   1.260
10370W        W82685  43.945  42.070   4.108
10371W        W82686  26.715   2.003  10.655
10372W        W82687  16.842  20.009  13.151
10373W        W82688  44.439  18.544   4.709
10374W        W82689  20.150   5.164   2.605
10375W        W82690  43.495  37.636  13.701
10376W        W82691  19.427  40.871  12.204
10377W        W82692  44.449  31.122  12.408
10378W        W82693  12.878  37.331  13.590
10379W        W82694  41.868   0.479   2.284
10380W        W82695  11.654  39.170  10.292
10381W        W82696  22.137  23.473   3.629
10382W        W82697  34.402  27.245   2.009
10383W        W82698  27.510   5.137  12.593
10384W        W82699  13.301  32.594  11.689
10385W        W82700  13.350  17.928  14.488
10386W        W82701  35.154   3.955   0.802
10387W        W82702  24.016  35.383   4.903
10388W        W82703  39.472  38.462   4.120
10389W        W82704  24.448  14.843  12.013
10390W        W82705  33.301  12.201   1.553
10391W        W82706  34.409  19.800   4.308
10392W        W82707  27.682  34.165   1.742
10393W        W82708  37.061  14.792  11.624
10394W        W82709  24.102  37.183   2.711
10395W        W82710  15.033   2.789  11.595
10396W        W82711  31.084   1.635  12.534
10397W        W82712  10.751  25.814  10.901
10398W        W82713  30.207   2.892  11.540
10399W        W82714   8.808   9.611   1.717
10400W        W82715  37.334  13.732   1.636
10401W        W82716   4.829   1.366   2.822
10402W        W82717   5.703   4.629  13.851
10403W        W82718  40.097  14.567   1.426
10404W        W82719   2.213  27.716  13.642
10405W        W82720   6.718  12.909  13.020
10406W        W82721  15.142  41.024  13.607
10407W        W82722  25.543   5.686   4.344
10408W        W82723  10.250  32.844   4.588
10409W        W82724  13.633   3.747   0.489
10410W        W82725  40.958  33.834  13.951
10411W        W82726  20.688   8.694   4.501
10412W        W82727  28.819  20.278  14.722
10413W        W82728  10.767  38.881   2.225
10414W        W82729   6.913  31.049   3.709
10415W        W82730  40.418  10.420  11.914
10416W        W82731   3.131   2.437  13.027
10417W        W82732   0.866  24.069  10.568
10418W        W82733  24.168  32.841  13.510
10419W        W82734  32.480   1.786  12.435
10420W        W82735  34.966  34.485  10.585
10421W        W82736   4.300  31.617   3.427
10422W        W82737   6.310  42.354  11.651
10423W        W82738  13.192  31.917   2.596
10424W        W82739  40.829  17.204  11.137
10425W        W82740  33.014  16.745  12.865
10426W        W82741  20.553  28.422  10.510
10427W        W82742  37.791  40.459  10.722
10428W        W82743  20.612  33.103  13.552
10429W        W82744  36.533  28.003   2.717
10430W        W82745  19.553  26.970   3.271
10431W        W82746  15.815  10.938   1.555
10432W        W82747  13.875  18.694  14.115
10433W        W82748  34.757  22.863   1.718
10434W        W82749  43.777  44.911   2.275
10435W        W82750  22.613   7.884   1.799
10436W        W82751  23.142   9.299  12.505
10437W        W82752   8.967  39.471   3.155
10438W        W82753  15.094   8.116  10.778
10439W        W82754  27.473   7.318   2.703
10440W        W82755   3.771   9.232   4.149
10441W        W82756  42.309  26.007  14.417
10442W        W82757   3.234  22.465  10.905
10443W        W82758   6.902  28.334  13.474
10444W        W82759  21.681  26.769  14.769
10445W        W82760   2.038  15.996   4.450
10446W        W82761  27.329  27.974  14.899
10447W        W82762  25.085  11.647  10.418
10448W        W82763   4.736   5.492  14.808
10449W        W82764  17.296  28.130   3.666
10450W        W82765  12.640  28.154   4.025
10451W        W82766  40.560  13.613  11.214
10452W        W82767  20.681  17.811   3.161
10453W        W82768  33.947  38.611   4.604
10454W        W82769  15.250  21.509  14.806
10455W        W82770   4.915   7.079   3.127
10456W        W82771  14.792  33.584  12.047
10457W        W82772  38.589  16.352  11.528
10458W        W82773   8.890  15.523   2.139
10459W        W82774  10.415  31.591   0.527
10460W        W82775  43.467  10.155   2.910
10461W        W82776  14.269  12.672  13.357
10462W        W82777  22.125  13.276   4.743
10463W        W82778  13.212  20.799   0.740
10464W        W82779   5.324  35.816   1.108
10465W        W82780  43.572  14.640   2.412
10466W        W82781  40.565  43.690   4.490
10467W        W82782  24.064   4.879  12.463
10468W        W82783  16.215  27.999  12.958
10469W        W82784  29.643  20.751  11.950
10470W        W82785  31.011   1.023   2.855
10471W        W82786  20.079  43.817   1.206
10472W        W82787  28.494  21.457  12.460
10473W        W82788  26.099   3.389   4.601
10474W        W82789  40.835  40.607   2.687
10475W        W82790  12.625   4.461   3.212
10476W        W82791  15.598  38.753   5.144
10477W        W82792   4.973  26.976  14.034
10478W        W82793  41.080  28.616  13.969
10479W        W82794  40.735  20.686  12.039
10480W        W82795   5.393   4.941  14.224
10481W        W82796  40.475  41.832   0.543
10482W        W82797  19.821  18.622   1.370
10483W        W82798   4.809   4.848   2.900
10484W        W82799   7.750  32.391  13.378
10485W        W82800  12.707  13.017   4.211
10486W        W82801  30.473   1.394   3.267
10487W        W82802   3.706  25.107  12.024
10488W        W82803  44.865  31.699  13.979
10489W        W82804  40.826  10.035  10.766
10490W        W82805  23.193  44.829   1.315
10491W        W82806  13.092  11.721  14.827
10492W        W82807  29.935  10.787   0.899
10493W        W82808   8.796  24.226   2.147
10494W        W82809  41.981  27.752  13.061
10495W        W82810  16.173  10.762   1.239
10496W        W82811  17.063  41.106   4.228
10497W        W82812  34.654  23.028   0.358
10498W        W82813   3.605  28.934  12.091
10499W        W82814  32.070   0.724  12.127
10500W        W82815   5.694  14.226  14.500
10501W        W82816  11.257   6.237  14.428
10502W        W82817   0.169  38.885   4.250
10503W        W82818   2.964   8.773  13.491
10504W        W82819  32.075   6.104   0.737
10505W        W82820  27.179   4.718  12.061
10506W        W82821  24.925  10.560   0.038
10507W        W82822  26.732  28.687  11.439
10508W        W82823   3.534  14.116  12.020
10509W        W82824  44.967  21.017   2.361
10510W        W82825  41.205   4.417  12.976
10511W        W82826  20.794  39.967  14.875
10512W        W82827  18.198  28.923   1.002
10513W        W82828  27.686  21.728  11.163
10514W        W82829  19.623  31.598   1.340
10515W        W82830  23.411  10.354   1.705
10516W        W82831   8.116  31.413   3.746
10517W        W82832  31.487  27.010  12.457
10518W        W82833   3.438  25.656   3.199
10519W        W82834  30.531  37.534   1.502
10520W        W82835  40.858  41.236   1.017
10521W        W82836   1.840   1.781   4.923
10522W        W82837  21.264  15.848   2.175
10523W        W82838  12.282  32.151   3.771
10524W        W82839   6.761   3.529   1.495
10525W        W82840  25.261  42.817  12.028
10526W        W82841   1.543  15.803  12.135
10527W        W82842  34.207  28.474   4.554
10528W        W82843  21.924  35.835   1.324
10529W        W82844  32.559  18.113  13.465
10530W        W82845   5.805  33.335   0.445
10531W        W82846   6.512  29.220   1.348
10532W        W82847   9.735   5.748  12.091
10533W        W82848  19.565  32.887   1.635
10534W        W82849  11.216   1.013  14.499
10535W        W82850  14.665  24.946   4.075
10536W        W82851  32.097  37.253  10.392
10537W        W82852  26.981  25.476   3.079
10538W        W82853   9.696  26.543   3.593
10539W        W82854  13.580  27.583   3.783
10540W        W82855   5.664  38.900   2.157
10541W        W82856  39.785   0.937   2.917
10542W        W82857  35.922   3.691   3.777
10543W        W82858  40.097  12.667   2.672
10544W        W82859   6.914  36.617   1.184
10545W        W82860   2.144  22.069   2.277
10546W        W82861  33.480  29.297  13.513
10547W        W82862  33.177  23.273  13.467
10548W        W82863  35.965  40.140  13.109
10549W        W82864  35.069   0.639   4.316
10550W        W82865  31.824   4.852   2.272
10551W        W82866  13.837  32.652  14.292
10552W        W82867  22.684  39.053   3.071
10553W        W82868  17.390  40.481   0.751
10554W        W82869   3.703  22.225   1.956
10555W        W82870  18.638  44.972  12.147
10556W        W82871  38.000  16.323   2.805
10557W        W82872  44.549  19.244   4.150
10558W        W82873  11.293  22.024  11.381
10559W        W82874  28.462  24.813   4.828
10560W        W82875  37.127  39.943  11.935
10561W        W82876  39.192  25.277  12.457
10562W        W82877  15.027  44.036  10.331
10563W        W82878  33.414   0.975  11.578
10564W        W82879  41.243   2.486   4.655
10565W        W82880   5.948   9.255  12.105
10566W        W82881  37.656  26.039  11.581
10567W        W82882   5.938  22.040   4.542
10568W        W82883  37.821  27.238   2.684
10569W        W82884  24.413  42.883   4.119
10570W        W82885  22.558   2.277   2.676
10571W        W82886  32.176  20.315  12.812
10572W        W82887  39.344  37.557  10.672
10573W        W82888  41.042   7.938   2.274
10574W        W82889  24.241  24.627  12.568
10575W        W82890  17.867   5.871   4.241
10576W        W82891  44.986  18.692  13.870
10577W        W82892  17.378  22.496   0.109
10578W        W82893  30.269  33.926  12.577
10579W        W82894  10.992  38.412   2.106
10580W        W82895  24.752   6.777  10.566
10581W        W82896  24.685   3.646   2.291
10582W        W82897  40.411  30.687   2.316
10583W        W82898  19.291  30.035  11.743
10584W        W82899  23.951  35.966   1.254
10585W        W82900  24.719  26.992   3.157
10586W        W82901  27.940  28.518   1.396
10587W        W82902  11.849  40.171  13.897
10588W        W82903   4.332  11.876  14.094
10589W        W82904   0.241   3.842   1.319
10590W        W82905  37.429  14.727   3.141
10591W        W82906  36.639   2.264   4.250
10592W        W82907   2.333  35.815   0.911
10593W        W82908  25.677  13.773  14.921
10594W        W82909  22.815  25.129   5.077
10595W        W82910  22.528  38.339  11.529
10596W        W82911  23.973  10.352   1.791
10597W        W82912  27.051  33.717   4.557
10598W        W82913  25.027   9.823   2.671
10599W        W82914  24.995  23.953  12.308
10600W        W82915  34.400   8.478  12.637
10601W        W82916   4.441   7.765  11.147
10602W        W82917  39.409   6.489  11.572
10603W        W82918  42.972  26.500  13.488
10604W        W82919   4.903  42.124   3.731
10605W        W82920   8.269  30.862  11.998
10606W        W82921  30.561  15.828   0.325
10607W        W82922  29.496  16.085  14.791
10608W        W82923  21.797  43.506  11.119
10609W        W82924  44.991  21.172   0.250
10610W        W82925  12.625  39.286  11.978
10611W        W82926  25.979  19.151  13.410
10612W        W82927  35.558  16.232   1.751
10613W        W82928  32.115  43.939  12.998
10614W        W82929  32.205  28.634   0.261
10615W        W82930  25.049  30.881  14.742
10616W        W82931  34.835   5.423  13.796
10617W        W82932  30.711  32.182  14.764
10618W        W82933  15.730  11.426   2.292
10619W        W82934  19.643  27.559   4.639
10620W        W82935   9.373   9.757   1.243
10621W        W82936   2.450  10.663  14.867
10622W        W82937  21.260   2.489   3.893
10623W        W82938  16.099  15.617   0.793
10624W        W82939  11.596  13.811  12.601
10625W        W82940  15.832  26.020   2.866
10626W        W82941  18.608  44.538   2.849
10627W        W82942   1.746  26.574   1.762
10628W        W82943  10.110  35.345   0.801
10629W        W82944  31.909   3.464  12.542
10630W        W82945  42.150  19.772   5.233
10631W        W82946   0.955  39.046  10.373
10632W        W82947  17.760  10.367  11.501
10633W        W82948  35.612   7.069  12.465
10634W        W82949  38.286  26.194   3.159
10635W        W82950  33.587   6.846  13.438
10636W        W82951  25.004   9.965   0.673
10637W        W82952  33.076  34.545   1.835
10638W        W82953   6.831  18.358  14.375
10639W        W82954  41.289   6.783   2.685
10640W        W82955  26.892  13.248  10.685
10641W        W82956  18.274  18.598  13.935
10642W        W82957  26.028  25.309   2.778
10643W        W82958  44.828  22.037  11.460
10644W        W82959   2.844  16.817  14.321
10645W        W82960  31.978   0.878  10.358
10646W        W82961  33.100  41.308  11.270
10647W        W82962  35.140  18.274   2.264
10648W        W82963  30.694  17.530   0.548
10649W        W82964   7.891  19.828  10.661
10650W        W82965  15.025   6.787   1.377
10651W        W82966  15.784   6.794  10.853
10652W        W82967   8.879   2.400   1.398
10653W        W82968  21.940  16.289  14.903
10654W        W82969  21.783   8.392  11.543
10655W        W82970  37.375   1.199  14.788
10656W        W82971  25.683  32.390   2.715
10657W        W82972  36.653   8.270  14.360
10658W        W82973  30.827  34.207  14.559
10659W        W82974  43.396  25.518   1.311
10660W        W82975   0.646  12.232  11.671
10661W        W82976   7.458  43.965  10.579
10662W        W82977  40.499  32.584   2.816
10663W        W82978   1.844  33.359   3.760
10664W        W82979  25.144  32.662  12.174
10665W        W82980   5.266  12.973   5.031
10666W        W82981  42.469   4.646   0.930
10667W        W82982  16.603  31.638   9.591
10668W        W82983  21.327  32.673  10.115
10669W        W82984  30.705  41.024   0.030
10670W        W82985  21.874  21.719   5.519
10671W        W82986   9.647  28.583  14.804
10672W        W82987  14.019  23.780  11.985
10673W        W82988  27.088   9.089   3.608
10674W        W82989  40.963  22.468  12.444
10675W        W82990  19.905  30.624  11.233
10676W        W82991   4.814  15.208   0.452
10677W        W82992   7.195   8.823   0.467
10678W        W82993  12.243  20.902   1.781
10679W        W82994   2.212   6.272  14.030
10680W        W82995  24.534  35.570   0.207
10681W        W82996  18.558  31.725  13.379
10682W        W82997  27.756   2.731  14.808
10683W        W82998  44.506  12.534  11.799
10684W        W82999  25.577  37.468  12.977
10685W        W83000  21.615  20.207  13.343
10686W        W83001  21.253  37.219  12.048
10687W        W83002  32.970  42.363   4.862
10688W        W83003   2.044  10.371  10.341
10689W        W83004  34.485  42.991   4.823
10690W        W83005  22.182  10.163   0.143
10691W        W83006  28.093   3.913  13.294
10692W        W83007  26.489  22.953  14.647
10693W        W83008  25.092  13.472   3.994
10694W        W83009  38.801  13.320   4.380
10695W        W83010   8.255  10.809  10.754
10696W        W83011  12.689  41.099  11.045
10697W        W83012  35.932  16.217   3.083
10698W        W83013   8.384  25.516  10.720
10699W        W83014  10.589  44.472  13.923
10700W        W83015  30.813  16.386   3.586
10701W        W83016  15.150  24.795  14.811
10702W        W83017   2.800  11.198  14.341
10703W        W83018  10.779   1.679  11.663
10704W        W83019   9.463  27.041   0.806
10705W        W83020  39.292   7.698  10.722
10706W        W83021  12.807  31.447   1.946
10707W        W83022  25.469  21.932   2.198
10708W        W83023  39.589  10.633  13.015
10709W        W83024  32.500  44.836  12.091
10710W        W83025  41.749  30.700   3.651
10711W        W83026  11.268  39.294  11.935
10712W        W83027  34.575  36.821   1.327
10713W        W83028  41.637  27.187  13.547
10714W        W83029  42.343   4.312  12.599
10715W        W83030  12.189  26.730   4.733
10716W        W83031  22.042  41.327   3.006
10717W        W83032  22.542   4.994  10.724
10718W        W83033  11.127   3.977   0.103
10719W        W83034  40.445  10.586  14.128
10720W        W83035  42.207   3.800   3.340
10721W        W83036  24.222  42.009  11.151
10722W        W83037  36.938  10.170  11.080
10723W        W83038   5.938  12.219  11.691
10724W        W83039  12.140   6.826   4.453
10725W        W83040  20.855  23.238   3.228
10726W        W83041  28.187   8.893  11.720
10727W        W83042  16.959  33.677  10.639
10728W        W83043  35.505  16.663  10.678
10729W        W83044  22.240  40.415   3.060
10730W        W83045  19.784  37.707  12.042
10731W        W83046  21.496  36.531  10.880
10732W        W83047  42.502  32.156  10.643
10733W        W83048  28.373  36.575   1.884
10734W        W83049  13.342  44.832   0.027
10735W        W83050   7.706  29.639   1.708
10736W        W83051   3.938   7.182  12.389
10737W        W83052  43.323   4.515   2.678
10738W        W83053   0.307   9.604   5.498
10739W        W83054  32.996  19.609   0.949
10740W        W83055  40.334   2.324   4.797
10741W        W83056   7.135   1.239   0.680
10742W        W83057   9.773  37.512  13.962
10743W        W83058  17.244  10.486  12.082
10744W        W83059   8.338  14.110   4.455
10745W        W83060  27.202  42.886  12.995
10746W        W83061  29.535  20.129  12.526
10747W        W83062  23.634  25.112   4.174
10748W        W83063  12.213  32.947   4.694
10749W        W83064  34.014  25.053  12.854
10750W        W83065  23.712  18.775   1.225
10751W        W83066   6.013  16.140  13.422
10752W        W83067  26.703   9.174  12.450
10753W        W83068  12.399   8.819  11.601
10754W        W83069  35.959  36.306  14.443
10755W        W83070  41.193  29.702   1.369
10756W        W83071  10.151  37.016   0.322
10757W        W83072  42.108   9.953   3.319
10758W        W83073  44.219  31.116  12.859
10759W        W83074  24.082  43.033  14.380
10760W        W83075   6.786   4.533  11.583
10761W        W83076  22.150   0.825  13.329
10762W        W83077  23.174  24.705  11.575
10763W        W83078  11.755  33.386   2.302
10764W        W83079  20.015  41.004   1.218
10765W        W83080  13.286  39.522  12.456
10766W        W83081  32.253  31.631  13.942
10767W        W83082  35.118   6.414   3.631
10768W        W83083   5.862  29.746  12.709
10769W        W83084  42.799  44.096  10.620
10770W        W83085  29.619  34.594  12.938
10771W        W83086  37.794  17.352   0.738
10772W        W83087  18.543   5.686  12.523
10773W        W83088  36.633  13.134  11.695
10774W        W83089   1.269  44.391  13.819
10775W        W83090  30.671  20.177  12.028
10776W        W83091  22.794   2.769   4.854
10777W        W83092  14.275  32.492   0.248
10778W        W83093  33.407  42.035  11.566
10779W        W83094   1.487  21.061  11.558
10780W        W83095  23.144  44.254  11.510
10781W        W83096   3.739  28.685   2.304
10782W        W83097  40.350  39.315  11.573
10783W        W83098  38.945  16.414   0.059
10784W        W83099  19.256   5.940   1.143
10785W        W83100  26.252  20.273   3.821
10786W        W83101  42.236  21.935  14.437
10787W        W83102  32.704   3.679  12.222
10788W        W83103   9.605  42.904  12.966
10789W        W83104  25.010  15.102  11.541
10790W        W83105   6.232  29.568   2.848
10791W        W83106  28.698  30.432  12.106
10792W        W83107  11.690   8.298  14.463
10793W        W83108   7.208  35.504  11.233
10794W        W83109  38.004  44.924   0.863
10795W        W83110  41.501  11.392  10.547
10796W        W83111   9.265  11.077   3.799
10797W        W83112  34.866  27.062   1.844
10798W        W83113   0.332   7.913  12.363
10799W        W83114   6.348  22.709   5.060
10800W        W83115  34.368  43.365   1.250
10801W        W83116   2.951  28.016   0.712
10802W        W83117  34.020  17.388  14.185
10803W        W83118  16.138  39.886   0.878
10804W        W83119  40.326  39.548  13.412
10805W        W83120  27.155  27.196   4.106
10806W        W83121   9.081  16.756  14.700
10807W        W83122  20.791  28.152   3.463
10808W        W83123  23.033  14.072  11.103
10809W        W83124   2.335  32.647   3.217
10810W        W83125  31.918   9.772  10.535
10811W        W83126   3.365   2.195   2.158
10812W        W83127  18.906   2.786   0.517
10813W        W83128  24.213  38.336   4.056
10814W        W83129   5.994  24.624   2.421
10815W        W83130  35.832   6.014   1.894
10816W        W83131  21.325  19.084  11.127
10817W        W83132  23.421  11.703  14.878
10818W        W83133  17.610  38.043   3.273
10819W        W83134  12.351  10.696   0.386
10820W        W83135  39.024   7.347   4.703
10821W        W83136  23.313  44.083  12.515
10822W        W83137  16.645   7.896  12.432
10823W        W83138  11.078  24.060  11.581
10824W        W83139  44.060   5.347  10.620
10825W        W83140  15.739   7.269  13.983
10826W        W83141  40.110   6.768  13.230
10827W        W83142  28.962  20.736  12.556
10828W        W83143  21.287  20.533  13.103
10829W        W83144  29.708  13.301  14.363
10830W        W83145  37.332  22.180  11.082
10831W        W83146  27.516  15.289  13.010
10832W        W83147   4.968  10.244  12.988
10833W        W83148  36.377  21.644  14.875
10834W        W83149  15.230  10.123   2.307
10835W        W83150  22.854  18.265  12.343
10836W        W83151  34.612  31.601   0.935
10837W        W83152  26.045   7.466   2.943
10838W        W83153  44.403  32.999   1.949
10839W        W83154  18.496  39.849   5.027
10840W        W83155  11.243  18.653  12.996
10841W        W83156  22.748  28.905   1.891
10842W        W83157   8.217  24.835   1.688
10843W        W83158  20.711  27.747   1.953
10844W        W83159   4.740  43.812   0.179
10845W        W83160  42.644  12.659   3.588
10846W        W83161  13.834  38.852   0.998
10847W        W83162  37.791  32.500  12.143
10848W        W83163  31.730  24.692  11.206
10849W        W83164  14.257   9.586   4.765
10850W        W83165  39.041  43.629  13.469
10851W        W83166  31.164  32.425  14.928
10852W        W83167  36.630  29.363  11.613
10853W        W83168  33.868  13.822   1.804
10854W        W83169  28.053  11.175  13.814
10855W        W83170  23.211   9.977  14.911
10856W        W83171  17.751  20.058   2.810
10857W        W83172  30.593  21.006   3.939
10858W        W83173  42.477   2.999  14.437
10859W        W83174  15.294  25.413  13.509
10860W        W83175  21.261   2.026   0.377
10861W        W83176   6.808  16.333  10.679
10862W        W83177  15.333  22.391  11.558
10863W        W83178  18.104  25.833   1.819
10864W        W83179  33.581  16.834  11.559
10865W        W83180  38.372   1.755  11.188
10866W        W83181  30.685  43.314  10.586
10867W        W83182  39.234  32.020  14.273
10868W        W83183  35.583   6.752  14.471
10869W        W83184  25.283  35.368  13.347
10870W        W83185  44.266  36.027   0.969
10871W        W83186   3.230  37.779  11.627
10872W        W83187  21.013  23.196   2.211
10873W        W83188  16.126  40.488   3.753
10874W        W83189   6.877  29.243   1.726
10875W        W83190   1.607  25.611   1.943
10876W        W83191  29.544  16.729  14.002
10877W        W83192  11.701  34.659  12.853
10878W        W83193  22.448  43.362  14.528
10879W        W83194  31.138  37.327  12.312
10880W        W83195   7.892  13.303   1.686
10881W        W83196  32.906  10.533  14.799
10882W        W83197   4.199  12.193   1.388
10883W        W83198  14.715  36.584   4.174
10884W        W83199   3.784  16.052   0.621
10885W        W83200  37.008  16.832  12.305
10886W        W83201  20.452  31.500  13.268
10887W        W83202  17.037  32.800   4.016
10888W        W83203  32.653  20.680  12.074
10889W        W83204  36.797  18.270   0.950
10890W        W83205  44.827  15.004   1.115
10891W        W83206  19.733  11.900   1.821
10892W        W83207  24.529  42.246   2.531
10893W        W83208   8.886  14.969   1.471
10894W        W83209  18.089   3.827  12.444
10895W        W83210  17.646   3.498   3.264
10896W        W83211   7.600  15.190  11.475
10897W        W83212  17.365  23.056  12.237
10898W        W83213   7.267  38.070   0.811
10899W        W83214  31.946  30.827  12.981
10900W        W83215  41.519  24.665   2.737
10901W        W83216  24.609  29.389   4.494
10902W        W83217  17.675  10.799   3.297
10903W        W83218  27.484   7.143   1.657
10904W        W83219  41.082  16.667   4.200
10905W        W83220  37.147  34.523   1.496
10906W        W83221  14.218  11.686  14.800
10907W        W83222  23.102  19.032  11.969
10908W        W83223  25.930  40.460  13.634
10909W        W83224  10.206  24.005   4.732
10910W        W83225  39.935  21.654  11.115
10911W        W83226  42.355   5.669  10.858
10912W        W83227  33.349  38.635  14.154
10913W        W83228  33.243  23.635  11.132
10914W        W83229   3.252   5.895  13.910
10915W        W83230  12.142  15.865   0.908
10916W        W83231  12.790  31.807   3.299
10917W        W83232  12.389  19.736   0.934
10918W        W83233  18.236  35.595  14.014
10919W        W83234   3.728  14.327  13.347
10920W        W83235  37.984  16.316  14.218
10921W        W83236  21.147  42.842  13.383
10922W        W83237  44.219   3.847  13.476
10923W        W83238  37.935   8.353   2.316
10924W        W83239   6.219  17.776  13.564
10925W        W83240  22.987  35.949  14.446
10926W        W83241   8.961  38.028   1.199
10927W        W83242  14.401   0.505  14.941
10928W        W83243  42.721  12.088  10.315
10929W        W83244  13.721  10.806  12.007
10930W        W83245  44.499  25.116   0.433
10931W        W83246  35.286  17.724  11.400
10932W        W83247  13.243  33.970  14.764
10933W        W83248   9.182  17.095   1.207
10934W        W83249  11.154  10.833   1.330
10935W        W83250   4.447  43.962  14.090
10936W        W83251   7.702  11.741  13.881
10937W        W83252  10.850   8.424   1.313
10938W        W83253  29.603  34.480  10.704
10939W        W83254  28.203   5.885   3.893
10940W        W83255  37.027   9.729   0.066
10941W        W83256  15.047  28.516  10.521
10942W        W83257  20.818  22.557  14.962
10943W        W83258  19.083  36.556  12.288
10944W        W83259  33.393  22.450  14.522
10945W        W83260   6.748  33.878   4.623
10946W        W83261  39.927   5.958  10.779
10947W        W83262   2.206  32.105  11.223
10948W        W83263  12.659  38.877  14.450
10949W        W83264   8.829  26.643   1.911
10950W        W83265  27.133   1.368   2.955
10951W        W83266   5.538  32.993   3.180
10952W        W83267  41.877  30.545   4.139
10953W        W83268  23.097  43.092   4.107
10954W        W83269  10.103   5.286   2.825
10955W        W83270   5.171  35.100  14.308
10956W        W83271  29.665  19.558   0.434
10957W        W83272  44.858  13.123   3.776
10958W        W83273   8.457  40.642  11.040
10959W        W83274   1.465   5.379   2.365
10960W        W83275  37.864  21.165   0.984
10961W        W83276   0.795  38.144  13.782
10962W        W83277  31.691  13.754   4.552
10963W        W83278   1.988  24.967   3.257
10964W        W83279  42.330  14.340   3.173
10965W        W83280  38.747  31.168  10.223
10966W        W83281  42.197  12.327  14.397
10967W        W83282  15.718  41.432   4.661
10968W        W83283   4.773   2.693  11.215
10969W        W83284   3.350  10.544   0.892
10970W        W83285  20.509  44.187  14.592
10971W        W83286   4.214  10.745   4.595
10972W        W83287  11.895   9.715   3.657
10973W        W83288  23.972  17.811  12.932
10974W        W83289  28.346  43.274  12.473
10975W        W83290  34.160  23.432   4.088
10976W        W83291  19.671  41.186   5.382
10977W        W83292  17.233  44.405  11.013
10978W        W83293  33.328  12.705   2.717
10979W        W83294   3.315  15.927   0.836
10980W        W83295  37.439  41.268  10.344
10981W        W83296  28.954   2.998   0.430
10982W        W83297   5.338  43.741   3.301
10983W        W83298  32.080  17.511  12.502
10984W        W83299  35.883  36.641   4.152
10985W        W83300  37.384  15.582  13.795
10986W        W83301  29.112  37.813  10.615
10987W        W83302  37.605  37.562  12.959
10988W        W83303  11.615  32.947  11.199
10989W        W83304  22.471  21.158   5.126
10990W        W83305  13.183  23.544  13.038
10991W        W83306  10.400  30.805   3.720
10992W        W83307  18.500  39.484   1.733
10993W        W83308  21.776  43.713   3.233
10994W        W83309  25.916  30.023   4.574
10995W        W83310  11.168  19.413   9.808
10996W        W83311  15.888  28.335   4.648
10997W        W83312   2.732   3.271  10.683
10998W        W83313  21.147  43.332  13.156
10999W        W83314  20.492  33.485   0.551
11000W        W83315  42.030  32.966  12.182
11001W        W83316  21.458  35.578  12.779
11002W        W83317   5.877  24.949  11.888
11003W        W83318  42.530  23.985   4.123
11004W        W83319  36.595   4.626  11.951
11005W        W83320  41.535  12.873   3.128
11006W        W83321  15.191  36.000   0.456
11007W        W83322  20.670  13.124   1.107
11008W        W83323  23.105   2.835  13.870
11009W        W83324  13.322  29.326  14.392
11010W        W83325  31.484  12.617   2.366
11011W        W83326  16.775  20.585  14.491
11012W        W83327  43.414  27.116   1.973
11013W        W83328  30.499  42.027   4.211
11014W        W83329  16.098  43.744  11.647
11015W        W83330  44.203  15.546   1.792
11016W        W83331   6.877  40.612   0.476
11017W        W83332  41.423  39.216   4.471
11018W        W83333  40.680  35.017  10.535
11019W        W83334  25.125  21.663   0.376
11020W        W83335  22.652  37.842   2.858
11021W        W83336  34.565   4.474   1.267
11022W        W83337  25.899  32.631  11.850
11023W        W83338  14.782  30.948   1.891
11024W        W83339   9.141  10.400   2.958
11025W        W83340  12.062   7.612  11.073
11026W        W83341   1.925  16.866  14.032
11027W        W83342  12.103  13.780   2.846
11028W        W83343   4.988  32.565  14.507
11029W        W83344  35.615   5.822  11.510
11030W        W83345  13.842  37.838  12.961
11031W        W83346  34.921  38.378   3.667
11032W        W83347  44.455  25.224  12.983
11033W        W83348  19.103  43.536   4.877
11034W        W83349  28.127  31.970  13.481
11035W        W83350   6.500  35.499  14.821
11036W        W83351   7.621  21.213   1.419
11037W        W83352  28.593  13.888  11.948
11038W        W83353  21.300  27.572  13.312
11039W        W83354  23.640  19.474  10.114
11040W        W83355  18.228  13.330   1.700
11041W        W83356  43.246  35.303  11.953
11042W        W83357  27.597  15.019   4.457
11043W        W83358  44.003   0.887   2.635
11044W        W83359  24.779  11.642  11.496
11045W        W83360   4.351  42.222  11.124
11046W        W83361  19.561   1.313   3.890
11047W        W83362  30.002   4.743   2.547
11048W        W83363  15.801  35.426  13.766
11049W        W83364  30.985  39.236   3.549
11050W        W83365   8.858  12.268   0.901
11051W        W83366  17.520  30.512  10.031
11052W        W83367  32.088  28.943   0.700
11053W        W83368   7.549  41.591  11.642
11054W        W83369  39.390   6.026  12.866
11055W        W83370  33.702  21.937   4.869
11056W        W83371  28.457   9.082   0.463
11057W        W83372  14.735  13.705   1.266
11058W        W83373  36.408  24.628   0.861
11059W        W83374  37.620  44.450  11.288
11060W        W83375  24.095   3.671  12.608
11061W        W83376  12.834  29.943   1.790
11062W        W83377  25.751  26.671  14.584
11063W        W83378  15.547  37.454  10.725
11064W        W83379  14.689  27.561   3.329
11065W        W83380  15.149  38.890   2.627
11066W        W83381  14.453   8.634   0.858
11067W        W83382  20.247  25.164   0.450
11068W        W83383  12.572   1.027   4.194
11069W        W83384  10.642  41.473  13.495
11070W        W83385  12.181   6.680   1.452
11071W        W83386   6.440  41.304   0.009
11072W        W83387  44.268  17.609   3.849
11073W        W83388  25.014  33.985  12.835
11074W        W83389  20.782  13.104  11.585
11075W        W83390  11.229  11.621   2.235
11076W        W83391  26.036   1.922   3.968
11077W        W83392  28.100  20.222  12.568
11078W        W83393   7.482   6.576   1.251
11079W        W83394  13.348  18.334   0.346
11080W        W83395  27.599  20.607   3.280
11081W        W83396  17.591  30.823   0.267
11082W        W83397  43.164  42.241  13.300
11083W        W83398  30.025  25.116   1.327
11084W        W83399  21.149  14.838   2.261
11085W        W83400  41.384  30.535  13.021
11086W        W83401  40.472   3.730  12.525
11087W        W83402   7.768  14.744  14.790
11088W        W83403  23.211  35.952  13.100
11089W        W83404  38.793  41.437  11.616
11090W        W83405   6.285   0.504  13.055
11091W        W83406   3.349  20.339  14.895
11092W        W83407  30.407   2.054  11.261
11093W        W83408   5.720   9.383  10.521
11094W        W83409  18.121   6.295  14.006
11095W        W83410  20.639  13.646   4.584
11096W        W83411  12.372  32.004  13.836
11097W        W83412  24.221   0.955   1.850
11098W        W83413  28.516  38.021   1.423
11099W        W83414  28.809   4.920   5.474
11100W        W83415   2.037  31.671   2.688
11101W        W83416  11.165  20.198   4.128
11102W        W83417  29.972  11.342  10.674
11103W        W83418  28.071   4.335  13.595
11104W        W83419  44.001  11.903  14.384
11105W        W83420  13.089  33.458  14.567
11106W        W83421  35.879  33.864  12.932
11107W        W83422  30.524  43.906   0.217
11108W        W83423  19.647  29.982   0.314
11109W        W83424  19.974  11.352   5.492
11110W        W83425  33.356  21.068  11.445
11111W        W83426  14.193   5.896  13.484
11112W        W83427  32.333   3.722  13.580
11113W        W83428  13.516  33.484  13.849
11114W        W83429  16.941  15.094  11.778
11115W        W83430  36.035  35.061   2.647
11116W        W83431  19.258  14.250   1.312
11117W        W83432  12.122  40.003   1.289
11118W        W83433  33.472  29.500  11.456
11119W        W83434   4.879  31.630  11.463
11120W        W83435   2.698   3.191   1.247
11121W        W83436  14.684  27.872   1.297
11122W        W83437  26.080  23.934   1.480
11123W        W83438  35.134   5.856  11.267
11124W        W83439  32.040  11.912  14.915
11125W        W83440  13.192  32.807   2.574
11126W        W83441  34.463  36.055  13.835
11127W        W83442   5.472  41.839  10.746
11128W        W83443  10.654  34.593   2.762
11129W        W83444  25.538  10.161   4.246
11130W        W83445  38.432  29.305   4.633
11131W        W83446  32.668  22.081  11.847
11132W        W83447   6.730  11.085  14.218
11133W        W83448  27.931  21.529  12.778
11134W        W83449  28.926   0.726  11.536
11135W        W83450  23.551  29.875  11.640
11136W        W83451  16.811  37.816   0.925
11137W        W83452  34.771   4.326   0.795
11138W        W83453  21.759  34.661  12.965
11139W        W83454  23.805  25.378  13.907
11140W        W83455   0.307  30.518   3.796
11141W        W83456  36.596  10.188  12.934
11142W        W83457   9.681  27.300  13.064
11143W        W83458  23.240   2.939   0.817
11144W        W83459  12.305  42.861   0.881
11145W        W83460  18.169  44.397   1.842
11146W        W83461  18.928  36.106   5.101
11147W        W83462  24.849  13.008   3.694
11148W        W83463   3.462   8.923   2.221
11149W        W83464  22.161  37.752   2.690
11150W        W83465  33.887   4.920   0.803
11151W        W83466   9.598  16.228   2.890
11152W        W83467  35.953  28.497   2.220
11153W        W83468  21.762  34.951  14.559
11154W        W83469  41.413  13.977  14.503
11155W        W83470  11.846   4.991   3.743
11156W        W83471  20.050  33.757  13.845
11157W        W83472  25.524  16.692  12.080
11158W        W83473  20.207  30.428  11.604
11159W        W83474   5.358  20.226  13.035
11160W        W83475  28.182  17.781   4.597
11161W        W83476   2.288   7.368   1.940
11162W        W83477  34.720  14.510  14.531
11163W        W83478   2.021  43.261   4.833
11164W        W83479  20.155  39.426   4.151
11165W        W83480  11.528  31.999   2.504
11166W        W83481  41.531   0.434   1.841
11167W        W83482  42.995  22.072   3.800
11168W        W83483  35.999  34.971   1.738
11169W        W83484  19.049  35.044  11.541
11170W        W83485  13.213  25.630   2.489
11171W        W83486  31.113  11.484  13.101
11172W        W83487  13.783  31.013   0.416
11173W        W83488  19.116  24.645  11.767
11174W        W83489  36.419  21.442   1.548
11175W        W83490  32.119  11.614  12.798
11176W        W83491  37.308  12.318   0.480
11177W        W83492   0.766  43.347   1.905
11178W        W83493  16.720  37.819  12.882
11179W        W83494   9.310   8.128   3.161
11180W        W83495  16.739  11.281  14.765
11181W        W83496   9.448  43.227   0.432
11182W        W83497   5.582  23.749   0.458
11183W        W83498   6.932  43.427  13.263
11184W        W83499   1.497  41.399   3.884
11185W        W83500   2.155  37.556  12.957
11186W        W83501  11.168   1.211   4.019
11187W        W83502   1.353  32.486   4.890
11188W        W83503  36.482  23.248   2.765
11189W        W83504  43.302  18.569   5.020
11190W        W83505  28.561  23.425   4.486
11191W        W83506   4.866  13.910   4.158
11192W        W83507  33.487  39.839   4.886
11193W        W83508  37.980  42.043  12.102
11194W        W83509   8.524   9.192   1.349
11195W        W83510  23.777   5.041  14.847
11196W        W83511  15.652  12.552  10.044
11197W        W83512  29.353   7.584   2.634
11198W        W83513  12.218  43.830  14.469
11199W        W83514  36.437  31.476   1.503
11200W        W83515  22.885  25.444   1.786
11201W        W83516  12.463  23.534  12.018
11202W        W83517   5.903  44.755  10.609
11203W        W83518  42.604  25.097   0.422
11204W        W83519  31.014   6.641   1.609
11205W        W83520   0.578   2.198  14.828
11206W        W83521  28.662  41.530  10.517
11207W        W83522   0.020  37.118  13.727
11208W        W83523  13.668  10.335  11.234
11209W        W83524   5.445  19.210   0.326
11210W        W83525  44.129  17.327   4.588
11211W        W83526  30.498  12.719  13.961
11212W        W83527  31.323  44.057  14.926
11213W        W83528  28.052   8.105  10.636
11214W        W83529  33.494  15.728   0.990
11215W        W83530  20.642  30.579  11.312
11216W        W83531  20.121  24.356   4.948
11217W        W83532  27.139   9.472  11.086
11218W        W83533   9.118  41.868  11.211
11219W        W83534  14.545  11.455   1.743
11220W        W83535   8.695  19.808  12.039
11221W        W83536  22.720  30.782  14.410
11222W        W83537  13.732   7.309  12.989
11223W        W83538  17.592   2.916  13.440
11224W        W83539  25.033  27.496  11.505
11225W        W83540   5.602   1.626  13.282
11226W        W83541  40.829   5.699   1.630
11227W        W83542  17.802  43.955   0.270
11228W        W83543  10.350  38.766   3.979
11229W        W83544  42.311  27.803   4.173
11230W        W83545  33.928  30.952  10.604
11231W        W83546  19.746  30.623   1.861
11232W        W83547   7.001  27.901  14.966
11233W        W83548  42.410  38.817  12.807
11234W        W83549  37.479  25.810   3.222
11235W        W83550  20.077  23.742   2.910
11236W        W83551  36.049  18.271   2.126
11237W        W83552  33.160  40.315   1.766
11238W        W83553  42.782   8.201  11.956
11239W        W83554  39.269  15.487   2.627
11240W        W83555  27.427  13.139  13.462
11241W        W83556  24.623   2.230  12.459
11242W        W83557  30.002   2.195  12.377
11243W        W83558  21.437  24.572  10.474
11244W        W83559  42.594   1.802  14.881
11245W        W83560  17.309  14.911   3.278
11246W        W83561  12.639  28.262  11.295
11247W        W83562  23.482  24.404  13.878
11248W        W83563  34.851  39.357  11.384
11249W        W83564   3.415  42.320   4.577
11250W        W83565  34.721   9.757   2.861
11251W        W83566   8.078  40.530  13.588
11252W        W83567  40.038  34.091  12.126
11253W        W83568  28.278  33.045   3.584
11254W        W83569  12.291   2.769   4.678
11255W        W83570  32.091   3.824   0.806
11256W        W83571   3.779   7.261   3.294
11257W        W83572  35.422  32.147  12.854
11258W        W83573  32.625  35.342   4.937
11259W        W83574   0.274  24.632   0.255
11260W        W83575  43.376  22.696   3.948
11261W        W83576   3.219  41.902   4.303
11262W        W83577   7.879  43.130  13.881
11263W        W83578   9.861  44.399  11.617
11264W        W83579  22.692  35.360   1.857
11265W        W83580  44.837   6.392  14.250
11266W        W83581  28.483  24.382   2.189
11267W        W83582  25.335   9.843  11.352
11268W        W83583  23.235  11.444   2.335
11269W        W83584  24.736  14.288  12.473
11270W        W83585  43.296  15.615   0.813
11271W        W83586  20.020   5.728  13.788
11272W        W83587   5.489  39.757   1.685
11273W        W83588  15.319   5.874  12.146
11274W        W83589   9.655  30.956  13.075
11275W        W83590  26.451  36.361  13.433
11276W        W83591  41.517  14.231  14.931
11277W        W83592  26.533  39.861  14.910
11278W        W83593   6.854  10.633  12.910
11279W        W83594  35.867  12.235   3.230
11280W        W83595  41.311  42.351  10.661
11281W        W83596  40.744   0.516   0.023
11282W        W83597   8.790  35.175   2.926
11283W        W83598  28.707  10.271  11.488
11284W        W83599  30.455  43.250   4.598
11285W        W83600  25.601  28.998  11.634
11286W        W83601  24.878  37.119   2.700
11287W        W83602   9.666  29.399  14.220
11288W        W83603  13.883  43.789   1.294
11289W        W83604   6.935  32.341  11.409
11290W        W83605  15.227  21.132   1.437
11291W        W83606  42.818  28.203  11.527
11292W        W83607  16.255  12.172   2.296
11293W        W83608  18.691  23.029  14.614
11294W        W83609  12.623  17.901   4.256
11295W        W83610  18.579   3.992   0.815
11296W        W83611  40.131  24.477  11.037
11297W        W83612   3.694  25.101   3.534
11298W        W83613  23.329  13.271  11.483
11299W        W83614  14.819  29.135  11.066
11300W        W83615  43.603  15.189   0.760
11301W        W83616  24.771  31.869  14.362
11302W        W83617   7.369  30.337  12.940
11303W        W83618  23.523  38.440  13.859
11304W        W83619  15.447  26.072   2.279
11305W        W83620   9.066  34.347  14.403
11306W        W83621  34.597  39.964  11.840
11307W        W83622  36.396   6.462   1.185
11308W        W83623   2.788  24.537   3.662
11309W        W83624   1.394  33.201  11.074
11310W        W83625  19.684   5.394   2.873
11311W        W83626  41.439  34.090   3.826
11312W        W83627   0.014  29.729  12.176
11313W        W83628  33.484  41.414  10.319
11314W        W83629  25.879  11.170  14.942
11315W        W83630  28.421  23.182  14.879
11316W        W83631  37.032  10.647  12.346
11317W        W83632  23.755  27.092  10.864
11318W        W83633  13.942  28.598  13.060
11319W        W83634  35.344  34.166   4.250
11320W        W83635  21.731  25.412   1.361
11321W        W83636  40.827   2.871   2.790
11322W        W83637  19.792  44.768   4.261
11323W        W83638  29.724  41.850   4.650
11324W        W83639   9.345  33.392  11.119
11325W        W83640  32.427  27.014  13.436
11326W        W83641  41.413  10.900   2.646
11327W        W83642  15.583   1.797   1.928
11328W        W83643  32.872  16.105   3.210
11329W        W83644  12.636  19.193  14.440
11330W        W83645  14.819  14.428   3.583
11331W        W83646  37.857  11.068   1.004
11332W        W83647  26.179   4.435   2.737
11333W        W83648  25.761   4.685  11.148
11334W        W83649  38.778   7.752  13.404
11335W        W83650  35.568  32.905   0.223
11336W        W83651  21.696  38.330  12.669
11337W        W83652  19.773   4.702   1.115
11338W        W83653  15.072  43.026  11.566
11339W        W83654  15.806  42.363  11.559
11340W        W83655   1.365  32.590   2.272
11341W        W83656  39.526  40.599   3.729
11342W        W83657  29.984  36.457  11.564
11343W        W83658  10.333  29.255  11.707
11344W        W83659  29.527  18.025  11.293
11345W        W83660  12.729   3.495   2.777
11346W        W83661  18.242  22.496   2.265
11347W        W83662  28.742   1.192   0.448
11348W        W83663   8.220  18.528   1.392
11349W        W83664  36.494  41.669  14.406
11350W        W83665  20.062  12.831   3.477
11351W        W83666  38.079  13.819  13.362
11352W        W83667  10.406  24.540  14.179
11353W        W83668  41.391   8.131   3.272
11354W        W83669  12.734  16.337   2.664
11355W        W83670   4.398  33.929  11.536
11356W        W83671   1.500  31.862  14.442
11357W        W83672  39.252  23.284   2.332
11358W        W83673  32.360  42.945   0.815
11359W        W83674   7.689  35.876  14.242
11360W        W83675  13.857   9.361  14.653
11361W        W83676  14.302  24.160  14.936
11362W        W83677   1.326  41.402  14.252
11363W        W83678  30.892  34.382   0.444
11364W        W83679   8.376   7.966   3.285
11365W        W83680  31.334  19.726  14.922
11366W        W83681  18.804   8.035   3.706
11367W        W83682  22.901  28.002   3.993
11368W        W83683   4.327  20.687  11.486
11369W        W83684  25.965  22.202  14.369
11370W        W83685  27.159  17.265   1.371
11371W        W83686  24.457  10.828  11.888
11372W        W83687  30.410  35.829  13.293
11373W        W83688  31.885  31.689  10.680
11374W        W83689  22.522  44.717   3.416
11375W        W83690  37.532  35.327   2.274
11376W        W83691  18.568   0.207   1.740
11377W        W83692  17.105   3.426  10.688
11378W        W83693  32.040  18.646   1.426
11379W        W83694  21.778  31.767   9.975
11380W        W83695  38.010  25.662  11.363
11381W        W83696   1.689   4.294  13.464
11382W        W83697  23.069  31.526  12.466
11383W        W83698  25.906   0.762  13.890
11384W        W83699  35.669  13.769  13.950
11385W        W83700  13.103   3.435  13.432
11386W        W83701  43.457  37.311  10.704
11387W        W83702  43.261   1.301  14.031
11388W        W83703   7.224  24.622  14.848
11389W        W83704  23.595  12.813   0.802
11390W        W83705  40.586  32.034   0.799
11391W        W83706  35.044  12.616  12.136
11392W        W83707  17.775  24.739  11.936
11393W        W83708  25.557  38.000   0.155
11394W        W83709  19.065  43.003   4.091
11395W        W83710  22.880  14.099  14.179
11396W        W83711  30.041  31.086   4.705
11397W        W83712  21.973  30.693   4.170
11398W        W83713  23.912  36.043  12.558
11399W        W83714  31.401  34.834  13.029
11400W        W83715  15.153  35.523  12.397
11401W        W83716  22.781   8.355   4.622
11402W        W83717  31.466   1.679  11.480
11403W        W83718  40.841  35.322  13.562
11404W        W83719  13.067  32.450  13.289
11405W        W83720  11.305  26.131  12.139
11406W        W83721  23.970  15.746   3.180
11407W        W83722  34.279  25.518  13.481
11408W        W83723  19.624   7.212  13.305
11409W        W83724  29.837  23.308  11.199
11410W        W83725  30.644  23.055   3.527
11411W        W83726   3.685  13.222   2.424
11412W        W83727  30.568  19.975  11.569
11413W        W83728  37.185  30.812   3.632
11414W        W83729  28.377  33.153  11.531
11415W        W83730  28.373  22.739   1.472
11416W        W83731  40.809  18.133  12.379
11417W        W83732  18.170  44.631  14.927
11418W        W83733  27.508  44.614  13.464
11419W        W83734   3.782  28.191  14.254
11420W        W83735  14.098  31.196  13.603
11421W        W83736  41.056  39.020  13.713
11422W        W83737  30.634   2.583  14.993
11423W        W83738   9.721   9.366   0.442
11424W        W83739   8.642   3.286  14.423
11425W        W83740  11.909  11.624   1.621
11426W        W83741  30.597   6.333  11.240
11427W        W83742  20.334  20.257   2.729
11428W        W83743   9.708  38.989   2.252
11429W        W83744  32.474  19.365   4.618
11430W        W83745   5.229  33.022   4.557
11431W        W83746  10.277  25.410   2.296
11432W        W83747  22.623  34.819  14.552
11433W        W83748  34.600  14.259  13.501
11434W        W83749  10.372   8.200  12.157
11435W        W83750  18.269  13.837  13.365
11436W        W83751  31.357  17.578   3.616
11437W        W83752  27.518  20.030  10.635
11438W        W83753  27.895   0.795  11.631
11439W        W83754  32.034  12.639   1.643
11440W        W83755  34.157  41.296  12.554
11441W        W83756  15.331  17.606  10.588
11442W        W83757  28.243   7.291   1.005
11443W        W83758  24.239  33.536   4.087
11444W        W83759  37.831  38.970   1.901
11445W        W83760  18.210  44.373   0.932
11446W        W83761   1.346   0.468  11.841
11447W        W83762  31.175  19.229  14.539
11448W        W83763  43.757  19.576  11.404
11449W        W83764  12.121  22.149  12.845
11450W        W83765  13.381  30.646   3.831
11451W        W83766  18.136  24.556  10.814
11452W        W83767  17.567  25.145  10.087
11453W        W83768   5.246  34.885   1.816
11454W        W83769   8.370  37.818  13.072
11455W        W83770  10.768  36.127  10.489
11456W        W83771  25.115  30.486  12.771
11457W        W83772  21.796  27.549  13.409
11458W        W83773  32.380  44.918   2.153
11459W        W83774  17.310  35.521  10.881
11460W        W83775  28.942  11.821   1.874
11461W        W83776   6.757   6.935   2.297
11462W        W83777   0.980   1.942  14.437
11463W        W83778  21.349  14.620  10.547
11464W        W83779  12.150   9.986   2.253
11465W        W83780  44.112  24.917  11.114
11466W        W83781   7.565  26.314  12.929
11467W        W83782  32.513  19.682  14.054
11468W        W83783  41.132  38.150   2.899
11469W        W83784  19.200  34.690  11.183
11470W        W83785  33.529  36.275  12.768
11471W        W83786   7.329  36.966  10.959
11472W        W83787   0.561  18.438  11.285
11473W        W83788   0.246  18.200  12.575
11474W        W83789  20.050  12.264   0.288
11475W        W83790  30.187  31.109  13.511
11476W        W83791  26.299  29.972  14.884
11477W        W83792  44.699  11.915  12.083
11478W        W83793  13.149  39.481  13.514
11479W        W83794  43.993  34.612   1.419
11480W        W83795  15.064  34.878  13.066
11481W        W83796  13.458  17.591   2.675
11482W        W83797   2.285   8.362  12.867
11483W        W83798   9.422  11.920  14.574
11484W        W83799  40.578  31.421   2.610
11485W        W83800   6.823  20.281  11.201
11486W        W83801  15.715   3.235  12.611
11487W        W83802  39.487   4.406  11.078
11488W        W83803  44.943  35.569   5.030
11489W        W83804  16.192   7.930  12.157
11490W        W83805  21.250  25.072   4.556
11491W        W83806   8.393  28.198   3.910
11492W        W83807  35.414   5.473   3.846
11493W        W83808   4.232  23.167   3.730
11494W        W83809   4.765  37.614  13.029
11495W        W83810  40.785  42.800  12.061
11496W        W83811  27.540  19.556   3.661
11497W        W83812  23.027  29.799   2.450
11498W        W83813  21.104   6.741   4.906
11499W        W83814   4.436  18.684  12.591
11500W        W83815  33.607  33.441  11.021
11501W        W83816   1.498  23.768   2.978
11502W        W83817  26.945  23.824   4.262
11503W        W83818  20.608   9.203   4.565
11504W        W83819  24.805  37.889  11.110
11505W        W83820  22.166  26.908  11.526
11506W        W83821  13.866   2.704  14.476
11507W        W83822   7.197  37.031   0.900
11508W        W83823  19.891  24.375  12.074
11509W        W83824  14.180   8.228   3.700
11510W        W83825   9.893  34.422   0.855
11511W        W83826  13.100  41.014   3.210
11512W        W83827  29.532  19.298  12.117
11513W        W83828  38.494  19.431   0.918
11514W        W83829  15.222  27.938  14.097
11515W        W83830  10.158  17.145  10.829
11516W        W83831  40.513  14.401  14.413
11517W        W83832  18.642   4.613  14.350
11518W        W83833  33.958   0.439  12.051
11519W        W83834  33.521   0.866  13.242
11520W        W83835   4.462  13.933   2.007
11521W        W83836  33.049  15.940  11.521
11522W        W83837  23.595  37.455   1.962
11523W        W83838  42.969  10.658   3.986
11524W        W83839  24.769  20.019  13.030
11525W        W83840   8.070  30.606   1.894
11526W        W83841  15.682   3.799   4.676
11527W        W83842  22.637  19.970   1.159
11528W        W83843  10.192  23.554  12.663
11529W        W83844  14.656  17.102   2.858
11530W        W83845  31.985  43.492  10.573
11531W        W83846  38.564   1.887   1.862
11532W        W83847  44.848  21.828  11.000
11533W        W83848  36.529  13.570   4.241
11534W        W83849   5.971  23.760   4.533
11535W        W83850  37.478   9.779  14.783
11536W        W83851  22.653   3.927   2.727
11537W        W83852  21.789  22.525  10.633
11538W        W83853  17.921  12.430  14.428
11539W        W83854   6.254   0.379  12.193
11540W        W83855  26.360  36.313   3.691
11541W        W83856   8.932   6.771  13.165
11542W        W83857   8.581  30.793  12.437
11543W        W83858  32.668  37.948  10.534
11544W        W83859  25.583  26.444  12.661
11545W        W83860  42.141  33.523   1.276
11546W        W83861  12.263  15.660   0.430
11547W        W83862   6.063   7.393  11.470
11548W        W83863  20.115  27.542   0.849
11549W        W83864  30.716  13.100   1.834
11550W        W83865   4.598  23.494   0.397
11551W        W83866  35.798  19.509   3.371
11552W        W83867  21.894   1.298   3.601
11553W        W83868  29.955   3.248   1.229
11554W        W83869  17.620  34.847  10.769
11555W        W83870  18.186  27.219   0.534
11556W        W83871  14.211  28.015   4.625
11557W        W83872  18.748  28.602   0.699
11558W        W83873  30.450  39.374   0.889
11559W        W83874  32.903  28.927   2.333
11560W        W83875   6.768  43.309   2.895
11561W        W83876  25.665  34.947  13.042
11562W        W83877  44.809  34.364   5.064
11563W        W83878  26.411  34.132   0.808
11564W        W83879  19.117   8.126   4.135
11565W        W83880  38.636  42.565   2.858
11566W        W83881  28.967   4.480  13.839
11567W        W83882  29.430  22.997  11.211
11568W        W83883  44.273  28.031   3.296
11569W        W83884   1.468  18.778   2.385
11570W        W83885  20.799   2.430   4.532
11571W        W83886  16.173  26.387  13.018
11572W        W83887  29.494  23.504  12.325
11573W        W83888  25.254   5.400   1.270
11574W        W83889   3.243  26.104  11.060
11575W        W83890  41.261  18.197  12.628
11576W        W83891  10.387  28.923  11.340
11577W        W83892   8.700  32.091  13.001
11578W        W83893  36.613  25.454  14.410
11579W        W83894  15.247  19.944  12.449
11580W        W83895  13.200  24.390  14.287
11581W        W83896  16.256  15.237  11.903
11582W        W83897  35.155  44.937   0.405
11583W        W83898  28.146  42.407  14.402
11584W        W83899  17.242  39.789  12.243
11585W        W83900  14.830  14.669   4.686
11586W        W83901  36.344  15.225   3.916
11587W        W83902  16.356  33.375  14.450
11588W        W83903  28.045  43.750   1.784
11589W        W83904   7.827  44.729  14.335
11590W        W83905  39.753  17.689   3.476
11591W        W83906  21.116  19.037   4.551
11592W        W83907  35.934  44.425  11.515
11593W        W83908  22.964  38.091   3.664
11594W        W83909  21.546  43.277   3.428
11595W        W83910   1.481  14.056   0.424
11596W        W83911  10.374  41.839   1.816
11597W        W83912   3.356  23.118  14.988
11598W        W83913  38.334  14.575   2.089
11599W        W83914  12.231  30.848  14.836
11600W        W83915   1.378  27.489   2.909
11601W        W83916  13.694  31.358  14.856
11602W        W83917  31.686  42.458  11.137
11603W        W83918  26.246  21.225  11.420
11604W        W83919   0.558  35.566   3.916
11605W        W83920  17.708  38.056  13.488
11606W        W83921  31.468   3.266  12.094
11607W        W83922  23.742  42.458   2.213
11608W        W83923  12.416  27.117   2.062
11609W        W83924  42.859  31.134  13.344
11610W        W83925  15.545  10.328   4.424
11611W        W83926   1.359   2.483   4.344
11612W        W83927  24.052  44.759  14.399
11613W        W83928  25.596  21.518  11.516
11614W        W83929  43.864  24.042  11.075
11615W        W83930   2.046  13.807   1.518
11616W        W83931  25.092  35.343   2.843
11617W        W83932  37.950  30.474   0.166
11618W        W83933  18.099  38.556   4.220
11619W        W83934  16.820  22.936  14.018
11620W        W83935  31.897  42.299  13.987
11621W        W83936  23.642  38.611   0.175
11622W        W83937  17.101  13.697  10.963
11623W        W83938  18.715  33.672   2.673
11624W        W83939  17.818   8.955  11.517
11625W        W83940  36.974   0.287   4.608
11626W        W83941   7.726  28.244  13.511
11627W        W83942   5.186   0.332   2.315
11628W        W83943   5.712  26.566   4.217
11629W        W83944  25.132  34.325   1.296
11630W        W83945  28.015  17.530  14.081
11631W        W83946  42.255  21.131   2.480
11632W        W83947  35.016   6.383  14.422
11633W        W83948  30.629  15.266  14.276
11634W        W83949  26.986  14.510  12.158
11635W        W83950   0.908   6.709   4.350
11636W        W83951   9.743  38.597  14.527
11637W        W83952   1.905   8.967   3.688
11638W        W83953  40.463  39.534  13.904
11639W        W83954   7.393   4.258  12.869
11640W        W83955  43.661  36.809  11.522
11641W        W83956  14.801  42.535  11.454
11642W        W83957  36.618   2.501   1.288
11643W        W83958  36.536  24.795  11.915
11644W        W83959  27.114  32.378  11.855
11645W        W83960  10.608  43.285  12.862
11646W        W83961  16.097   9.375   0.471
11647W        W83962  12.708  40.331  13.343
11648W        W83963   7.212  22.443   2.983
11649W        W83964   9.441   5.323  13.359
11650W        W83965  31.534  18.772  10.610
11651W        W83966  21.641  29.338  10.781
11652W        W83967   0.266  21.883   3.673
11653W        W83968  21.596   2.230  10.809
11654W        W83969  32.395  16.866   4.137
11655W        W83970  26.378  36.854  14.341
11656W        W83971  14.543  32.509  13.563
11657W        W83972  43.979  11.739   4.941
11658W        W83973  26.055  34.700  13.254
11659W        W83974  13.104  14.780   3.687
11660W        W83975  16.303  37.752  14.188
11661W        W83976  12.087  38.288   3.860
11662W        W83977   5.313  40.441   2.453
11663W        W83978   1.816  25.169   3.691
11664W        W83979  38.952  12.380   3.216
11665W        W83980  26.049  40.118   3.878
11666W        W83981  33.706  35.370   1.964
11667W        W83982  12.558  40.880  10.614
11668W        W83983   2.934   0.299   1.780
11669W        W83984   2.091   6.015  11.897
11670W        W83985  31.037  10.826  12.235
11671W        W83986   1.531  32.599   0.982
11672W        W83987  43.907  44.272   1.051
11673W        W83988  36.177  39.444   1.138
11674W        W83989   3.663  37.493  10.693
11675W        W83990  39.926  32.117   3.574
11676W        W83991  29.799  39.369  14.839
11677W        W83992  18.133  35.953   2.417
11678W        W83993   1.720  31.485   3.076
11679W        W83994   8.184  39.041   3.151
11680W        W83995  12.851  34.979   0.302
11681W        W83996  36.051  27.995  12.149
11682W        W83997  15.704  36.976  10.578
11683W        W83998  24.072  10.828  12.991
11684W        W83999  27.227  12.808   0.275
11685W        W84000  40.542  24.640  14.942
11686W        W84001  37.642  24.140  14.763
11687W        W84002  32.434  12.823  11.042
11688W        W84003  20.668  28.008  14.925
11689W        W84004   4.106   6.665  14.950
11690W        W84005   5.718  11.366  12.679
11691W        W84006  22.226  18.515   1.373
11692W        W84007   3.151  14.964  12.090
11693W        W84008  29.454   3.167  11.195
11694W        W84009   3.680  29.596   2.275
11695W        W84010  37.093  24.157   1.792
11696W        W84011  30.912  25.679  10.734
11697W        W84012  15.763  14.772  13.898
11698W        W84013  35.129  43.075  12.118
11699W        W84014  31.990  23.255   2.292
11700W        W84015   3.364   5.490   3.134
11701W        W84016  44.624   3.703   4.331
11702W        W84017  18.124  27.429  13.733
11703W        W84018  17.729   2.965   3.266
11704W        W84019  34.235   0.130  11.153
11705W        W84020  18.321  10.858   5.006
11706W        W84021  32.449  35.959  13.937
11707W        W84022  37.608  11.733  14.361
11708W        W84023   3.349  13.855  12.459
11709W        W84024  16.724  40.881  13.863
11710W        W84025  33.292   8.784  10.765
11711W        W84026  40.999  13.330  11.193
11712W        W84027  38.497  12.124   3.272
11713W        W84028  36.920  11.120   0.391
11714W        W84029   4.018   3.266   2.709
11715W        W84030  33.125   2.828  12.557
11716W        W84031  34.849  37.142  10.698
11717W        W84032  10.288   5.814   3.832
11718W        W84033  27.889  34.878   5.028
11719W        W84034  34.746  33.144   3.695
11720W        W84035  44.755  33.607  10.698
11721W        W84036  33.334  12.322   3.181
11722W        W84037  13.377  15.678  10.665
11723W        W84038  28.753   6.423   1.269
11724W        W84039   7.223  40.531   1.390
11725W        W84040  23.173  34.121   3.549
11726W        W84041  11.363   4.436  14.977
11727W        W84042  15.144  16.033  12.529
11728W        W84043  11.106  17.250   0.858
11729W        W84044  28.466  10.804  10.848
11730W        W84045  25.180  42.342   3.687
11731W        W84046   4.249   9.447  14.468
11732W        W84047  18.214  28.187   2.823
11733W        W84048  34.977  31.895   1.889
11734W        W84049  13.061  26.304  11.725
11735W        W84050  40.526   3.685  10.816
11736W        W84051  27.795  44.792  14.319
11737W        W84052   4.639   9.748  14.651
11738W        W84053  43.974  18.689   4.292
11739W        W84054  11.269  10.127  12.038
11740W        W84055   7.229   7.844  14.967
11741W        W84056   6.672  35.079   3.241
11742W        W84057   7.246  32.367  14.814
11743W        W84058   0.944   7.602   4.061
11744W        W84059  39.957  10.785  14.240
11745W        W84060  18.351  20.750  12.521
11746W        W84061  11.764   0.904  11.198
11747W        W84062  42.303  40.379   0.015
11748W        W84063  18.994  19.912  11.192
11749W        W84064  15.457  35.655   1.111
11750W        W84065  11.572  10.338  14.453
11751W        W84066  24.283   5.363  11.097
11752W        W84067  28.166   1.002  11.222
11753W        W84068  25.673   9.774  10.860
11754W        W84069  12.753  27.511  12.540
11755W        W84070  19.079  20.925  13.894
11756W        W84071   1.479  10.326  12.911
11757W        W84072  35.310   1.948  11.580
11758W        W84073  26.793   3.985   3.980
11759W        W84074  27.649  35.372  11.638
11760W        W84075  17.815   4.400   4.375
11761W        W84076  24.181  10.845   0.483
11762W        W84077   7.690  40.819  12.126
11763W        W84078  21.357  34.890  13.819
11764W        W84079  13.205  21.511  10.640
11765W        W84080   0.312  35.392  11.561
11766W        W84081  44.259  40.731   5.102
11767W        W84082  36.656  13.727   0.160
11768W        W84083  39.646  35.875  14.692
11769W        W84084   2.173  17.228  10.750
11770W        W84085   2.213   7.850   0.378
11771W        W84086  33.463  43.884  11.488
11772W        W84087  20.208  40.232   0.867
11773W        W84088  20.375  11.231   0.419
11774W        W84089  26.505  32.659   1.732
11775W        W84090  17.588  22.528  14.291
11776W        W84091   4.838  44.224   4.416
11777W        W84092  17.560  37.053   0.945
11778W        W84093  12.785  32.980  13.687
11779W        W84094  18.087  21.131   4.394
11780W        W84095   2.973  29.070   4.543
11781W        W84096   0.318  14.788  14.038
11782W        W84097  16.572  22.178  11.923
11783W        W84098  44.961  16.642  10.862
11784W        W84099  32.807  11.784   3.583
11785W        W84100  19.132  27.247  12.006
11786W        W84101   1.463  19.369   1.737
11787W        W84102   6.661  39.587  11.047
11788W        W84103   5.812   7.296   4.108
11789W        W84104  22.358   0.309  14.799
11790W        W84105   4.948  16.697  11.703
11791W        W84106  30.452  21.596  13.920
11792W        W84107  41.961   7.539   9.981
11793W        W84108   8.252  12.113   2.226
11794W        W84109  36.578  21.581  12.400
11795W        W84110   1.919  15.240  10.612
11796W        W84111  36.804   0.365   2.838
11797W        W84112  12.433  13.229   5.105
11798W        W84113  37.004  43.210  10.805
11799W        W84114  37.484   2.936   2.239
11800W        W84115  16.129   4.808  15.000
11801W        W84116  29.954  23.595  12.795
11802W        W84117  37.457   5.251  14.402
11803W        W84118  42.725  19.270   0.475
11804W        W84119   8.640  38.530   4.191
11805W        W84120   7.813   8.961  14.312
11806W        W84121   1.430  24.233   2.709
11807W        W84122  15.695   2.274   4.648
11808W        W84123  43.273  31.921  13.338
11809W        W84124   2.455   3.123  14.104
11810W        W84125  22.668   7.250   0.166
11811W        W84126  27.231  11.662  12.827
11812W        W84127   0.528  35.776  11.324
11813W        W84128  15.829   4.412   4.277
11814W        W84129   9.718  42.037  14.508
11815W        W84130  28.655  42.003   3.247
11816W        W84131  37.897  21.559  11.482
11817W        W84132  39.432  18.737   4.945
11818W        W84133   0.161  34.024  14.736
11819W        W84134   1.779  41.245   0.417
11820W        W84135   9.901  17.759  10.744
11821W        W84136   3.547  13.355   3.235
11822W        W84137  30.830  29.987  13.483
11823W        W84138  32.957   7.631   4.934
11824W        W84139  38.346  15.556  11.097
11825W        W84140  44.253  26.539  10.534
11826W        W84141  38.473  19.959  13.944
11827W        W84142   2.913  36.064  13.098
11828W        W84143  10.288  19.550   4.901
11829W        W84144  29.741  21.277  12.014
11830W        W84145  35.384  24.247  13.296
11831W        W84146  37.522  30.129   4.635
11832W        W84147  18.054  29.543   0.509
11833W        W84148  40.260  29.894   4.235
11834W        W84149  29.111  11.572   3.277
11835W        W84150  15.298  22.879  11.281
11836W        W84151  18.460  29.093  11.172
11837W        W84152  14.841  44.326   3.283
11838W        W84153   5.493  22.585   4.683
11839W        W84154  40.897  18.089  14.065
11840W        W84155  10.612  44.414  12.948
11841W        W84156  38.619  29.961   0.821
11842W        W84157  44.566  12.205   2.877
11843W        W84158  39.822  24.254   0.428
11844W        W84159  10.578   7.273   1.849
11845W        W84160   7.796  27.163  11.051
11846W        W84161  33.462  23.728  12.479
11847W        W84162   4.487  43.850   4.296
11848W        W84163  41.892   7.274  11.443
11849W        W84164  19.128  15.153   1.348
11850W        W84165   2.792  33.997  10.902
11851W        W84166  36.164   4.308   2.765
11852W        W84167  41.661   1.394  13.104
11853W        W84168  25.631  23.760   4.732
11854W        W84169  29.113  33.934   4.992
11855W        W84170   6.387  19.008  11.244
11856W        W84171  40.914  30.437   0.683
11857W        W84172   3.498   7.403  13.607
11858W        W84173  25.234  26.546  14.755
11859W        W84174  33.874   7.176  14.793
11860W        W84175  34.680  18.085   2.873
11861W        W84176  13.920  22.297  12.159
11862W        W84177  39.351  24.956   2.181
11863W        W84178  25.512  34.855  10.666
11864W        W84179  37.012  10.187  12.609
11865W        W84180  13.784  26.355   1.246
11866W        W84181  33.319  15.840   1.891
11867W        W84182  30.853   5.665  14.055
11868W        W84183  31.443  24.530  14.498
11869W        W84184   6.593  10.111   0.140
11870W        W84185  42.180  44.081  12.536
11871W        W84186   4.289  31.592   2.452
11872W        W84187  15.364  35.112  12.694
11873W        W84188  34.042  44.700  10.886
11874W        W84189  27.316  24.597   2.735
11875W        W84190  12.539   7.887  12.964
11876W        W84191  41.774  12.194   0.649
11877W        W84192  26.674  20.161  11.006
11878W        W84193  27.088   9.048  13.110
11879W        W84194  39.115   2.004   4.081
11880W        W84195  37.255  30.827   2.693
11881W        W84196  38.593  17.638  13.931
11882W        W84197  43.919  41.553   4.087
11883W        W84198  30.715  26.558   3.846
11884W        W84199  23.556   0.070   2.867
11885W        W84200  19.958  13.660   3.314
11886W        W84201  30.016   5.643   0.288
11887W        W84202   7.348  18.974  12.212
11888W        W84203   5.418  34.128  14.423
11889W        W84204  29.921  20.106   4.660
11890W        W84205  14.057   3.321  10.705
11891W        W84206  24.694  35.558  12.504
11892W        W84207   1.911  43.398  13.535
11893W        W84208   2.947   6.230   1.845
11894W        W84209  11.124   6.782  14.836
11895W        W84210  31.205  25.775   3.053
11896W        W84211   7.182  16.331  13.977
11897W        W84212  22.545  26.249  14.772
11898W        W84213  29.944  35.974  14.071
11899W        W84214  39.246  25.613   2.348
11900W        W84215  32.140  43.883   0.223
11901W        W84216  14.561   1.168  14.396
11902W        W84217   3.423  41.360  12.590
11903W        W84218  22.713  15.041  11.886
11904W        W84219  17.558   1.030  12.609
11905W        W84220   3.846   7.797  13.926
11906W        W84221  29.717  41.624  14.385
11907W        W84222  25.784   7.627   0.937
11908W        W84223   8.559  25.224  12.056
11909W        W84224  33.661  40.274  14.914
11910W        W84225  13.293  17.725  10.435
11911W        W84226  11.806  30.189  12.257
11912W        W84227   5.977   2.034  10.825
11913W        W84228  26.748  42.267  11.192
11914W        W84229  38.250   7.302  14.777
11915W        W84230  38.577   2.789  10.672
11916W        W84231  17.256  24.919   4.200
11917W        W84232  23.277  24.765  14.767
11918W        W84233   7.761  25.954  11.984
11919W        W84234  40.468   0.268   2.666
11920W        W84235   9.830   3.857   1.897
11921W        W84236  20.441  24.025   1.072
11922W        W84237  41.897   0.801  14.292
11923W        W84238  30.684  20.330  12.587
11924W        W84239  43.650  23.412   0.813
11925W        W84240  13.059  10.144  14.342
11926W        W84241  18.978  16.544   2.982
11927W        W84242  12.589  22.180   1.798
11928W        W84243  38.396  43.059   0.812
11929W        W84244  11.431  10.259  13.960
11930W        W84245  25.659  24.491  12.525
11931W        W84246  41.854  32.384   3.802
11932W        W84247   7.784  18.299   4.619
11933W        W84248  15.521  30.442   3.948
11934W        W84249   0.498   6.242  11.290
11935W        W84250  29.347   2.251  14.817
11936W        W84251   8.105  30.849  13.345
11937W        W84252  14.587   9.174  10.542
11938W        W84253  21.801  11.078   3.179
11939W        W84254  12.373   5.706  14.142
11940W        W84255   5.272  34.812   2.799
11941W        W84256  10.578   1.305  11.345
11942W        W84257  35.355  40.370  11.728
11943W        W84258  28.084  27.546   1.862
11944W        W84259  18.829   0.896  10.870
11945W        W84260  26.397   2.431   4.657
11946W        W84261  21.978  16.342  12.786
11947W        W84262  12.397  27.903  14.784
11948W        W84263   5.914  30.051  11.965
11949W        W84264  24.116  23.173   3.385
11950W        W84265  19.353  44.989   2.865
11951W        W84266  21.331   6.991  11.804
11952W        W84267   3.856  28.654   4.091
11953W        W84268  16.837  38.454  14.785
11954W        W84269  37.509  23.780  12.043
11955W        W84270  37.936  42.841   0.895
11956W        W84271  35.856  28.635   3.209
11957W        W84272  40.280  19.729  11.158
11958W        W84273  30.701  31.449   2.182
11959W        W84274  13.485  12.281   1.380
11960W        W84275  38.434  19.151   4.678
11961W        W84276  24.721  27.150  10.444
11962W        W84277  17.042  43.783   2.470
11963W        W84278  28.617  41.209   2.762
11964W        W84279  20.216  12.975   5.076
11965W        W84280  17.125   5.524  13.697
11966W        W84281  26.011  40.557  12.694
11967W        W84282  22.908  23.549  14.662
11968W        W84283  32.333   4.231  13.364
11969W        W84284  44.423  14.552   0.346
11970W        W84285  43.485   9.288  12.399
11971W        W84286  32.097  39.243   2.787
11972W        W84287  12.667   6.798  12.346
11973W        W84288   3.846  31.002  14.535
11974W        W84289  20.252  20.578  10.478
11975W        W84290  11.230  13.210  14.508
11976W        W84291  28.923  32.652   4.209
11977W        W84292  11.610  30.969  11.525
11978W        W84293  27.395  18.585  11.443
11979W        W84294  34.146   2.756  10.791
11980W        W84295   3.453  28.829   1.898
11981W        W84296   9.822  18.020  11.220
11982W        W84297  11.885  13.674   0.772
11983W        W84298  24.412   0.784  12.453
11984W        W84299  24.128  39.510   0.925
11985W        W84300  25.574  38.032   4.504
11986W        W84301   5.838  36.735   2.814
11987W        W84302  32.080   9.914  11.898
11988W        W84303   7.662  30.480   3.963
11989W        W84304  21.403  39.913   4.065
11990W        W84305  35.960  37.876   4.222
11991W        W84306  28.081   9.377  11.850
11992W        W84307  19.361   5.461   1.378
11993W        W84308  18.264  39.027  11.983
11994W        W84309   0.411   6.799  13.566
11995W        W84310   1.737  20.170  11.991
11996W        W84311  18.986  31.500  14.764
11997W        W84312  12.857   4.403  11.641
11998W        W84313  16.322  17.017  12.481
11999W        W84314  43.391   2.098  10.577
12000W        W84315   7.465  13.100  11.881
12001W        W84316   0.876  23.827  14.820
12002W        W84317  28.562  16.669  13.859
12003W        W84318  37.910  27.969  14.020
12004W        W84319   0.413  20.464  14.768
12005W        W84320  40.071  44.359  11.818
12006W        W84321   7.601   3.833  11.558
12007W        W84322   1.408  25.473  14.286
12008W        W84323   4.350  31.421   1.970
12009W        W84324  23.510  22.044   1.675
12010W        W84325   9.951   7.676   0.316
12011W        W84326  34.166  38.994  10.608
12012W        W84327  41.867  34.312  12.139
12013W        W84328   7.308  42.949  14.301
12014W        W84329  42.971  39.595   0.562
12015W        W84330   7.225  35.170   2.219
12016W        W84331   6.724  31.275  10.804
12017W        W84332  14.746  24.840   3.211
12018W        W84333  17.102   6.914   0.418
12019W        W84334  29.551  17.282  14.518
12020W        W84335   0.255   2.544   4.435
12021W        W84336   8.042  29.293   2.351
12022W        W84337  24.800  26.827  14.941
12023W        W84338   1.258  27.631  14.111
12024W        W84339  41.810  20.435  11.928
12025W        W84340  34.847  40.317  12.164
12026W        W84341  31.506  26.271   2.358
12027W        W84342  43.944  41.024   4.040
12028W        W84343  16.192  19.257   3.638
12029W        W84344  17.092  39.759   2.256
12030W        W84345  11.338  13.510   0.407
12031W        W84346  28.618  11.870  11.533
12032W        W84347  26.889  19.173   0.366
12033W        W84348  14.905  15.388  10.406
12034W        W84349  10.539  24.486   4.088
12035W        W84350  30.030  24.698  12.881
12036W        W84351  27.685  20.524  10.648
12037W        W84352  43.747  15.271  10.875
12038W        W84353  12.265   1.524   2.170
12039W        W84354  26.171  34.400   3.981
12040W        W84355  38.065  37.536  13.236
12041W        W84356   7.325   1.508  10.804
12042W        W84357  36.288  17.862  10.674
12043W        W84358   8.758  35.814  14.413
12044W        W84359  23.677  40.924   1.666
12045W        W84360   0.878   6.780   0.865
12046W        W84361  17.563  12.158   1.835
12047W        W84362  41.186  15.391   1.328
12048W        W84363  40.827  15.586   0.877
12049W        W84364   9.326  40.341  13.052
12050W        W84365  16.628  34.934   3.871
12051W        W84366  33.461  33.605   4.573
12052W        W84367  12.520  16.795   4.917
12053W        W84368  11.665  31.647   0.753
12054W        W84369  38.889  19.085   0.421
12055W        W84370  25.233  14.427  12.374
12056W        W84371  11.147   1.521  14.508
12057W        W84372  12.112  19.858  13.026
12058W        W84373  34.536  15.096   0.441
12059W        W84374  11.071   5.183   0.448
12060W        W84375  23.918  17.275   1.891
12061W        W84376  32.879  33.967   1.219
12062W        W84377  37.141  34.981  12.884
12063W        W84378   9.571  14.219   1.017
12064W        W84379  18.561   1.250   1.766
12065W        W84380  26.120  40.922   0.496
12066W        W84381  26.090   3.484   4.081
12067W        W84382  21.584  19.152   4.362
12068W        W84383  15.676  40.686   4.106
12069W        W84384  14.807  34.938   1.807
12070W        W84385   4.270  12.817  11.871
12071W        W84386  11.845   1.523   1.850
12072W        W84387  28.565  43.530  13.412
12073W        W84388  32.966   2.497  13.471
12074W        W84389   2.125  19.571  11.661
12075W        W84390  18.657  37.101  13.896
12076W        W84391  30.605   1.682   2.276
12077W        W84392  38.783  15.739  10.566
12078W        W84393   2.998  20.193   4.964
12079W        W84394  23.260  27.752   0.268
12080W        W84395  26.441  20.152   0.739
12081W        W84396  19.176  23.189   4.018
12082W        W84397  20.282  34.895  11.924
12083W        W84398   0.783  10.146  12.317
12084W        W84399  24.631  18.690  12.529
12085W        W84400  36.012  17.274   4.768
12086W        W84401   8.405  29.802  11.199
12087W        W84402  23.726  41.595   2.923
12088W        W84403  30.722  10.697   2.634
12089W        W84404  24.496  41.546   4.626
12090W        W84405  44.436  34.416   3.716
12091W        W84406   3.976   0.271  13.336
12092W        W84407   5.783  11.351  13.215
12093W        W84408  29.580  31.183   0.423
12094W        W84409  41.848  35.511   0.274
12095W        W84410  41.562  26.708  14.441
12096W        W84411   1.173  26.525  10.717
12097W        W84412  16.364  24.157   3.547
12098W        W84413   9.600   6.430  14.987
12099W        W84414   4.039   0.082   3.620
12100W        W84415   7.273  43.344   2.284
12101W        W84416  17.684   6.318  13.443
12102W        W84417  23.723  14.103  11.941
12103W        W84418  11.508  20.016   4.509
12104W        W84419  42.404  21.163  10.701
12105W        W84420   8.224  21.953  12.142
12106W        W84421  34.847  40.329   0.916
12107W        W84422  34.887  42.810  14.337
12108W        W84423  22.816  30.832   1.892
12109W        W84424   9.719  40.522   1.479
12110W        W84425  27.030  28.037  12.801
12111W        W84426  21.241  12.517   0.499
12112W        W84427  41.566  41.370   0.157
12113W        W84428  36.124   3.393  10.584
12114W        W84429  26.627  11.658   3.095
12115W        W84430   4.248  22.618   0.014
12116W        W84431  13.918  44.212   0.849
12117W        W84432  35.549  18.324  13.559
12118W        W84433  25.614  21.159  14.874
12119W        W84434  12.592  39.365  11.191
12120W        W84435  16.537  34.504   0.205
12121W        W84436  39.455  26.867   3.380
12122W        W84437  35.484   6.509   1.652
12123W        W84438  39.897   2.533  12.587
12124W        W84439  29.528  33.377  12.389
12125W        W84440  38.910  16.657   3.787
12126W        W84441  12.424  32.534  10.721
12127W        W84442  22.012  24.557  12.219
12128W        W84443   9.137   8.259   3.704
12129W        W84444  13.543  10.262   2.328
12130W        W84445   0.267  29.040   2.817
12131W        W84446   9.828  36.748  14.482
12132W        W84447  35.306   4.783   0.951
12133W        W84448  23.305   0.273   4.237
12134W        W84449  35.296  38.536  10.542
12135W        W84450  16.923  20.598  10.685
12136W        W84451  36.733  15.886  10.421
12137W        W84452  43.917  17.825   4.227
12138W        W84453  33.716  22.207   3.684
12139W        W84454  20.476  10.237   4.735
12140W        W84455   9.347   3.175  11.826
12141W        W84456  34.189  18.539   3.676
12142W        W84457  31.896  31.218  13.813
12143W        W84458  22.712  37.502  11.243
12144W        W84459  29.281   0.746  12.817
12145W        W84460  28.306  36.270   5.157
12146W        W84461  14.817  25.600  13.275
12147W        W84462  18.479  20.093   5.027
12148W        W84463  30.426  29.942   0.890
12149W        W84464  11.407  25.101   0.482
12150W        W84465  20.212  40.444  12.025
12151W        W84466   8.739  42.802   3.174
12152W        W84467   5.609  27.973  14.844
12153W        W84468   1.473  18.239   3.267
12154W        W84469   7.711  32.954   4.212
12155W        W84470  13.645  43.175   2.004
12156W        W84471  20.088  30.822   1.480
12157W        W84472  17.438  22.202  12.446
12158W        W84473   1.335  28.812   0.787
12159W        W84474   0.426  29.236  10.768
12160W        W84475   3.342  13.721   0.435
12161W        W84476  33.741  12.539  12.623
12162W        W84477   0.797   0.690   1.456
12163W        W84478  21.275  10.249  11.175
12164W        W84479   2.995   6.313  14.415
12165W        W84480  23.419  24.748   2.742
12166W        W84481   4.181  42.968   2.849
12167W        W84482  43.548  35.866  11.731
12168W        W84483  31.695  22.539  13.838
12169W        W84484   6.849   4.741   0.219
12170W        W84485  44.910  42.922   4.298
12171W        W84486   9.602  18.125   3.801
12172W        W84487  20.051  11.403  11.606
12173W        W84488  31.787   7.848   1.013
12174W        W84489  23.917   1.525  13.705
12175W        W84490  16.671  11.906  12.920
12176W        W84491  31.316  10.292   4.747
12177W        W84492  33.524   7.723  12.056
12178W        W84493  39.935  25.680   5.079
12179W        W84494  23.714  16.908   4.080
12180W        W84495  17.072  16.838   4.551
12181W        W84496  23.740  36.093   1.727
12182W        W84497   9.422  38.539   2.249
12183W        W84498  34.518  40.433   4.613
12184W        W84499  28.858  27.496   2.805
12185W        W84500  31.949   7.920  11.873
12186W        W84501  44.481  43.382  14.461
12187W        W84502   1.777   7.625   4.063
12188W        W84503  28.218  32.449   0.394
12189W        W84504  11.823  22.699   4.049
12190W        W84505  32.202   2.869   1.114
12191W        W84506  14.254  36.077   2.805
12192W        W84507  16.871  16.109   0.711
12193W        W84508  40.244  16.730  12.511
12194W        W84509  12.264  21.147  11.524
12195W        W84510  43.988  34.184   0.748
12196W        W84511   6.879  10.064  11.606
12197W        W84512  36.901  39.259  13.463
12198W        W84513   0.099   8.880   3.746
12199W        W84514  30.011  19.468  11.971
12200W        W84515  39.332  33.028   3.683
12201W        W84516  20.187  40.626  12.927
12202W        W84517  22.743  25.116   4.076
12203W        W84518  42.004  16.636   4.249
12204W        W84519  38.378  22.119   1.944
12205W        W84520   1.669  29.469  13.392
12206W        W84521  43.396  38.776  12.965
12207W        W84522  38.491  30.982   3.099
12208W        W84523  23.215  19.527  11.769
12209W        W84524  12.038  29.036   0.098
12210W        W84525  20.158  26.549   4.754
12211W        W84526   3.411  41.270   0.790
12212W        W84527  33.725   8.642   2.197
12213W        W84528  12.155   9.341   1.795
12214W        W84529  26.765  19.576  13.389
12215W        W84530  30.549  15.742   5.111
12216W        W84531  10.257  11.007   1.960
12217W        W84532  42.755  24.135   4.586
12218W        W84533  22.316  14.387  12.566
12219W        W84534   8.764  10.444   1.326
12220W        W84535  23.643  25.602  11.562
12221W        W84536  29.401  31.177  11.035
12222W        W84537  19.624   4.368   4.908
12223W        W84538  39.935  29.031  12.405
12224W        W84539  34.034   5.615   3.155
12225W        W84540  25.705  29.513   1.760
12226W        W84541  24.252  42.232  13.855
12227W        W84542  31.374  37.477   2.584
12228W        W84543  16.557   7.977  10.620
12229W        W84544  39.753  35.379   2.814
12230W        W84545  10.328  21.249   1.921
12231W        W84546  15.225  20.656  11.360
12232W        W84547  34.867  19.974   1.793
12233W        W84548   2.183  36.471  13.395
12234W        W84549  27.915  40.483  11.944
12235W        W84550  14.829   3.962  13.346
12236W        W84551  22.281  32.904   4.066
12237W        W84552  40.902  43.719   3.456
12238W        W84553   0.258  16.269  10.539
12239W        W84554   2.049  41.524   4.675
12240W        W84555  40.845  16.425  10.773
12241W        W84556  20.080  19.103  13.754
12242W        W84557  34.315  13.812  11.125
12243W        W84558  36.496   9.832  11.598
12244W        W84559  14.902  34.810   3.225
12245W        W84560   1.476  44.818  12.151
12246W        W84561  25.267  33.835   1.691
12247W        W84562  35.804  19.396   4.309
12248W        W84563  27.203  35.130  13.585
12249W        W84564   9.017   2.749   3.448
12250W        W84565   2.289  16.933   4.519
12251W        W84566  44.315  16.577   1.852
12252W        W84567   3.301  42.782   0.930
12253W        W84568  27.863  20.652  11.957
12254W        W84569  32.723  18.036  12.951
12255W        W84570  40.281  20.061   0.208
12256W        W84571  16.131  35.683  12.623
12257W        W84572  20.735  35.199   1.546
12258W        W84573   4.339   8.854  12.467
12259W        W84574  36.602   4.020  13.311
12260W        W84575  19.805   8.725   4.243
12261W        W84576   7.408  39.301  11.643
12262W        W84577  15.391  44.810   1.287
12263W        W84578  28.577  26.098  14.351
12264W        W84579  36.392   1.289   0.473
12265W        W84580   2.437  29.917  12.049
12266W        W84581  12.023  18.625   1.398
12267W        W84582  24.076  25.911   3.655
12268W        W84583  12.653  27.117  14.326
12269W        W84584  35.807  17.234   1.879
12270W        W84585  25.950  36.077  14.859
12271W        W84586  26.204   6.232   2.931
12272W        W84587   0.965  17.695  12.912
12273W        W84588  42.893  40.375  12.268
12274W        W84589  38.087   9.614  10.949
12275W        W84590  22.890   9.632   1.574
12276W        W84591  26.096  18.980  14.825
12277W        W84592  31.155  20.380   4.202
12278W        W84593  28.619  39.607  10.608
12279W        W84594  27.423   8.662  13.406
12280W        W84595  10.733  30.405   3.010
12281W        W84596  39.317  27.934   4.335
12282W        W84597  37.946   7.287   3.198
12283W        W84598  21.626  10.136   2.881
12284W        W84599  15.062   7.634  11.605
12285W        W84600  38.842  42.045   1.815
12286W        W84601  23.503  13.021  13.477
12287W        W84602   5.517  37.084   3.020
12288W        W84603  30.165   3.288  11.858
12289W        W84604  32.710   1.060   3.278
12290W        W84605  20.635  25.552  14.265
12291W        W84606  30.631   9.242  12.082
12292W        W84607  17.545  24.960  14.464
12293W        W84608  23.543  18.407  14.565
12294W        W84609   0.902  37.112   0.214
12295W        W84610   7.293  34.381  12.919
12296W        W84611  33.755  15.151  12.864
12297W        W84612  18.015  16.729  13.510
12298W        W84613  29.264  38.783  14.345
12299W        W84614  11.231   8.785  13.858
12300W        W84615  28.085  40.981   3.605
12301W        W84616  43.815  43.811   1.877
12302W        W84617  16.750  18.684  13.057
12303W        W84618  29.539  23.651   3.203
12304W        W84619  38.735   9.897   2.621
12305W        W84620   5.618  36.455   0.492
12306W        W84621  42.026  27.968  14.442
12307W        W84622  15.520  32.633   1.836
12308W        W84623  31.181  16.567   2.889
12309W        W84624  10.162   8.576   1.001
12310W        W84625  32.161  27.675   1.673
12311W        W84626  44.944  31.446   3.687
12312W        W84627   3.799  26.736   2.765
12313W        W84628   4.279  36.704   1.188
12314W        W84629  34.807   3.918  14.413
12315W        W84630  25.268   2.924   0.751
12316W        W84631   9.439  36.441   1.297
12317W        W84632  21.173  38.081   1.417
12318W        W84633  17.165  33.180  10.607
12319W        W84634   7.335   2.900   1.756
12320W        W84635  37.560  34.545   1.048
12321W        W84636  36.566  16.924  13.920
12322W        W84637  38.626  16.552  13.444
12323W        W84638   8.197  33.104   1.893
12324W        W84639   2.248  24.019   4.309
12325W        W84640   4.142  17.022   0.770
12326W        W84641  16.748  10.907   5.489
12327W        W84642  33.655   1.362  13.317
12328W        W84643  26.586  30.142   1.826
12329W        W84644   3.276  12.094   0.390
12330W        W84645   5.036  19.205   2.035
12331W        W84646  32.489  36.882  14.941
12332W        W84647  30.793   6.011  14.858
12333W        W84648  15.737  35.011  11.010
12334W        W84649   8.202  20.716  10.985
12335W        W84650  32.174  29.672  12.002
12336W        W84651   8.412  38.584   4.944
12337W        W84652  16.812  20.101   0.454
12338W        W84653  32.135  25.985  12.067
12339W        W84654   1.020  42.413   4.380
12340W        W84655  31.141  33.138   1.665
12341W        W84656  12.624  24.229   1.447
12342W        W84657   9.376  19.325  14.909
12343W        W84658  32.498   7.864   2.206
12344W        W84659  34.128  43.309   1.798
12345W        W84660  22.542  41.868  13.052
12346W        W84661   6.872   4.979  14.309
12347W        W84662   6.756  12.315  13.142
12348W        W84663  15.745   0.507   2.314
12349W        W84664   9.233  39.248   3.822
12350W        W84665  20.607  10.212  13.846
12351W        W84666  39.594  23.934   3.626
12352W        W84667  40.102  17.623   3.824
12353W        W84668  18.165  28.174   4.158
12354W        W84669  31.786   3.282  10.824
12355W        W84670   5.396  37.907  10.680
12356W        W84671  19.766   8.304  11.502
12357W        W84672   9.477  43.381   3.101
12358W        W84673  34.588   9.763   3.351
12359W        W84674   5.842   7.155   3.224
12360W        W84675  19.312  42.891   0.715
12361W        W84676   3.724  30.960  10.813
12362W        W84677  28.181  14.708   4.650
12363W        W84678  34.917  44.882  10.682
12364W        W84679  23.992   9.296   3.223
12365W        W84680   6.656  40.903   0.861
12366W        W84681  30.346  32.917  11.537
12367W        W84682  24.482  27.529  14.984
12368W        W84683  27.632  19.159  12.330
12369W        W84684  32.001  33.931  13.916
12370W        W84685  14.637  27.388   1.483
12371W        W84686  39.671  33.969  14.580
12372W        W84687  10.530  37.300   4.964
12373W        W84688   4.569  14.675  13.056
12374W        W84689   2.987   7.735  12.934
12375W        W84690  16.552  19.154  13.906
12376W        W84691  25.714  25.313  12.847
12377W        W84692  15.696  10.894   1.010
12378W        W84693  24.983  32.427  12.601
12379W        W84694  33.029  35.630  13.357
12380W        W84695  27.497  39.591  13.901
12381W        W84696   1.969   3.176   2.722
12382W        W84697  17.664  39.001  10.478
12383W        W84698  24.030  20.134  13.696
12384W        W84699  24.968  35.842   1.444
12385W        W84700  15.054  19.938   2.899
12386W        W84701   1.526  31.189   0.681
12387W        W84702   1.032  11.593   3.256
12388W        W84703  27.623  39.647   3.382
12389W        W84704  27.442   8.823  12.786
12390W        W84705  39.803  21.313   1.275
12391W        W84706  21.387   6.782   2.471
12392W        W84707   2.456  17.172   1.802
12393W        W84708  27.607   1.525  11.059
12394W        W84709  29.017   5.637   5.294
12395W        W84710  18.048  13.999  13.819
12396W        W84711   5.707   5.730   3.137
12397W        W84712  28.017   2.894  12.465
12398W        W84713   7.741  10.763  14.925
12399W        W84714   2.493   6.580  10.956
12400W        W84715  16.018  31.251   2.965
12401W        W84716  22.629  33.638  10.639
12402W        W84717   1.866  15.111   4.639
12403W        W84718  42.716  13.829  11.569
12404W        W84719   2.888  19.972   3.706
12405W        W84720  23.003  19.084   2.206
12406W        W84721  13.108  13.654   3.652
12407W        W84722   4.129  13.405   3.360
12408W        W84723  24.351  34.973   4.756
12409W        W84724  23.376  32.623   0.363
12410W        W84725  19.929  23.983   1.156
12411W        W84726  17.348  33.041   3.179
12412W        W84727   0.366  26.008   4.232
12413W        W84728  12.624   9.075   4.046
12414W        W84729  24.599  12.853  14.852
12415W        W84730  27.671   0.449  14.918
12416W        W84731  18.348  32.836  12.838
12417W        W84732   3.896  39.288  10.904
12418W        W84733  39.291  29.005  11.015
12419W        W84734  35.402  35.141   3.383
12420W        W84735  32.988  30.650  14.402
12421W        W84736   0.187  26.533   3.066
12422W        W84737   3.040  10.184  13.350
12423W        W84738  36.773  36.325  13.960
12424W        W84739   1.425  23.494   0.009
12425W        W84740  36.434  18.793  12.391
12426W        W84741  16.031   6.288   2.719
12427W        W84742  19.171  35.322  13.163
12428W        W84743   4.931  26.566   0.908
12429W        W84744  31.975   4.572   0.397
12430W        W84745  21.854  25.698  14.808
12431W        W84746  11.652  35.185   0.813
12432W        W84747   8.958  40.381  14.888
12433W        W84748  30.022   6.375   1.982
12434W        W84749  30.898  17.128  12.956
12435W        W84750  43.915  13.878   3.266
12436W        W84751  21.525  42.839   3.706
12437W        W84752  16.250  21.201  10.366
12438W        W84753  35.631  27.126   1.377
12439W        W84754  14.827  23.930   4.949
12440W        W84755  43.329  11.303   1.143
12441W        W84756   2.347  36.358   0.869
12442W        W84757  14.690  27.709  12.013
12443W        W84758  26.790   6.271   1.217
12444W        W84759  14.439   2.175   0.699
12445W        W84760  27.046  13.207   0.904
12446W        W84761  33.221   4.711  13.209
12447W        W84762  37.764  26.388   4.646
12448W        W84763  13.169  22.879   3.567
12449W        W84764   0.474   1.284   0.955
12450W        W84765  27.551  14.348  10.285
12451W        W84766  25.392  44.606   2.320
12452W        W84767  39.924   5.195  14.228
12453W        W84768  22.092  16.768  14.385
12454W        W84769   2.398  17.182   1.275
12455W        W84770  44.754  41.719   2.845
12456W        W84771  14.279  36.016   4.971
12457W        W84772  18.656  36.334  14.480
12458W        W84773   3.451  41.305   1.798
12459W        W84774  12.351  30.487  13.395
12460W        W84775  41.481   9.725  13.513
12461W        W84776   9.826  34.630   2.272
12462W        W84777  24.646  10.156   1.127
12463W        W84778  40.817  39.410  13.484
12464W        W84779  26.027  17.871   3.826
12465W        W84780  27.035  32.418  14.757
12466W        W84781  15.097  38.010  13.333
12467W        W84782  11.418  21.707  11.738
12468W        W84783  16.715  15.517  11.963
12469W        W84784   2.855  26.022  12.441
12470W        W84785  11.693  35.085  11.281
12471W        W84786  26.747  36.612  13.073
12472W        W84787  19.473  11.711   4.022
12473W        W84788   8.017  31.018   0.153
12474W        W84789  28.742  20.131   3.730
12475W        W84790  27.918   4.280  11.059
12476W        W84791  17.212  11.637   3.752
12477W        W84792  38.085  10.231   2.100
12478W        W84793  20.776   2.960   4.492
12479W        W84794  26.893   7.115  10.877
12480W        W84795   4.036  14.673  13.958
12481W        W84796  29.404  36.426  14.364
12482W        W84797  41.344   9.820   2.001
12483W        W84798   4.710  19.788  12.904
12484W        W84799  41.023  40.475  13.564
12485W        W84800  37.820   4.921   3.396
12486W        W84801   0.137  29.231  12.165
12487W        W84802  11.136   5.798   0.752
12488W        W84803  25.461  30.397  10.650
12489W        W84804   5.608  21.109  13.429
12490W        W84805  32.663  33.826   3.598
12491W        W84806   3.661  40.246  12.437
12492W        W84807   0.033  38.527   0.999
12493W        W84808  23.293  12.043   1.342
12494W        W84809  34.578  23.281   1.947
12495W        W84810  27.006  41.284   2.973
12496W        W84811  12.818  27.315  11.083
12497W        W84812  39.256  24.325   3.706
12498W        W84813   1.235  28.956   3.098
12499W        W84814  37.481  31.615   4.192
12500W        W84815  19.193   8.788   2.175
12501W        W84816  27.126  41.941  13.055
12502W        W84817  28.656   1.320  13.818
12503W        W84818  30.624  36.165  11.515
12504W        W84819  33.074  25.952   1.408
12505W        W84820  12.155  44.850   3.762
12506W        W84821   2.035   5.810  10.801
12507W        W84822  10.664  24.205   4.541
12508W        W84823  25.065   4.176   1.835
12509W        W84824  28.639  14.997  13.471
12510W        W84825  20.326   8.671   4.103
12511W        W84826  11.104  24.492  13.376
12512W        W84827  32.020   0.976  11.666
12513W        W84828  34.953  17.705   4.272
12514W        W84829   2.417  34.320  10.994
12515W        W84830  18.640  21.738   1.265
12516W        W84831  28.062  42.729   1.687
12517W        W84832  14.533   0.832   0.789
12518W        W84833  21.080  43.260   3.237
12519W        W84834   5.758  43.008  14.302
12520W        W84835  19.768  37.996  11.494
12521W        W84836   3.290  35.826  11.179
12522W        W84837  42.185  18.903   3.133
12523W        W84838   5.923  14.734  13.736
12524W        W84839  23.292  10.661  12.470
12525W        W84840  23.928  19.254   2.138
12526W        W84841  13.708   1.038   1.005
12527W        W84842  30.394   3.019  11.074
12528W        W84843   0.326  42.027   4.518
12529W        W84844  23.345  28.117  12.716
12530W        W84845  11.851  24.451  12.876
12531W        W84846  13.251  38.962  14.369
12532W        W84847  23.640  23.493   4.970
12533W        W84848  15.771  33.019   3.219
12534W        W84849  32.988   1.267  11.628
12535W        W84850  33.183  19.890  13.412
12536W        W84851  18.133  43.754   3.620
12537W        W84852  20.108   2.896  14.065
12538W        W84853   9.297  13.040  11.727
12539W        W84854  44.716  25.034   0.962
12540W        W84855  41.038  31.461  12.676
12541W        W84856  12.331  39.821   2.076
12542W        W84857  25.936  33.369   0.447
12543W        W84858   8.905   2.547   4.518
12544W        W84859  11.935  20.056  10.051
12545W        W84860  20.299  29.367  10.313
12546W        W84861  13.930  28.010  14.915
12547W        W84862   2.916   0.899  12.685
12548W        W84863  14.788  28.209  14.035
12549W        W84864  44.288   7.658  13.823
12550W        W84865   4.458  19.095  13.294
12551W        W84866  29.216  11.315  13.500
12552W        W84867  23.320  18.439  11.873
12553W        W84868  31.769  11.331   3.252
12554W        W84869  37.043  26.841   4.192
12555W        W84870  35.056  16.669  14.285
12556W        W84871  16.579   4.693  11.606
12557W        W84872  27.760  36.936   3.834
12558W        W84873  36.326   0.492   3.796
12559W        W84874  11.734  26.858  13.351
12560W        W84875   9.341   9.897  11.165
12561W        W84876  35.655   5.320  14.237
12562W        W84877  17.838  29.067  10.440
12563W        W84878  15.252  35.503   2.311
12564W        W84879  34.547  17.268  14.279
12565W        W84880  10.381  15.720   2.327
12566W        W84881  16.651  39.932   0.820
12567W        W84882  43.483  42.894   2.070
12568W        W84883  35.217   3.268  11.922
12569W        W84884  38.828  24.458   0.477
12570W        W84885  35.497  13.534   3.236
12571W        W84886   6.140  15.783  12.549
12572W        W84887  36.990  26.660  10.298
12573W        W84888  30.974  40.592  11.554
12574W        W84889  14.110   2.895   4.629
12575W        W84890  14.447   8.535   4.124
12576W        W84891   3.184  29.019   0.689
12577W        W84892  18.032  36.018  13.793
12578W        W84893  34.509  38.796  13.845
12579W        W84894  10.391  16.154   2.629
12580W        W84895  31.946  25.037   2.764
12581W        W84896  16.526  13.763   0.951
12582W        W84897  35.525  42.807   2.529
12583W        W84898  26.618  12.939   5.038
12584W        W84899  23.079  40.364  11.269
12585W        W84900   8.696  37.583  13.911
12586W        W84901   7.987  30.116  13.998
12587W        W84902   5.481  28.058  12.226
12588W        W84903  10.790  34.991  13.842
12589W        W84904  44.272  34.513  11.438
12590W        W84905  22.727  12.590   4.269
12591W        W84906   6.215   3.800  12.654
12592W        W84907  13.590  13.120  11.145
12593W        W84908   2.257  35.176  13.925
12594W        W84909  21.272  39.633   2.400
12595W        W84910   6.203  31.616  12.464
12596W        W84911  28.158  40.836   1.179
12597W        W84912  11.737  39.153  11.112
12598W        W84913  42.044  41.597   0.026
12599W        W84914  16.970  21.142   2.401
12600W        W84915  24.616  33.403   0.858
12601W        W84916  17.625  20.370  14.923
12602W        W84917  15.836  33.631   4.102
12603W        W84918  24.712  36.862  12.931
12604W        W84919   5.046  16.632   1.475
12605W        W84920  15.115   9.829   2.720
12606W        W84921  26.846   3.270   2.303
12607W        W84922   3.919  36.331   2.323
12608W        W84923   2.182  33.976  14.421
12609W        W84924  16.115  17.999  12.546
12610W        W84925  13.654   4.700   4.753
12611W        W84926  23.015  29.892  12.450
12612W        W84927  15.325  19.071   0.471
12613W        W84928   5.210  43.384   1.347
12614W        W84929  13.370  29.174   2.772
12615W        W84930  26.428  31.026  11.483
12616W        W84931   0.789  25.743   4.086
12617W        W84932   6.328  30.332  13.468
12618W        W84933  23.225   5.931  13.045
12619W        W84934   6.332  27.374   0.641
12620W        W84935  31.576  17.914   0.106
12621W        W84936  22.393  36.550   0.577
12622W        W84937  27.372  17.672  12.806
12623W        W84938   0.805  24.195   3.216
12624W        W84939  10.772  15.230  13.639
12625W        W84940  19.286  39.123   3.288
12626W        W84941   9.956  25.770  11.182
12627W        W84942  13.365  42.557   2.317
12628W        W84943  10.686  23.528  12.094
12629W        W84944   2.312  40.694  11.173
12630W        W84945  38.830   2.744  13.081
12631W        W84946  22.272  16.544   4.060
12632W        W84947  39.516  24.136   5.006
12633W        W84948  43.312   9.571  11.087
12634W        W84949  18.808  40.963  13.076
12635W        W84950  28.285   6.933  12.305
12636W        W84951  44.515  43.442  10.745
12637W        W84952  21.085  44.017   1.368
12638W        W84953  29.675   8.264   3.767
12639W        W84954   7.670  28.755  13.610
12640W        W84955  37.873   7.740  10.504
12641W        W84956  15.598  40.030  14.406
12642W        W84957  16.320  35.365   4.402
12643W        W84958  10.903  17.667   1.058
12644W        W84959  14.363  30.663  11.108
12645W        W84960  40.643  15.727  14.446
12646W        W84961  34.209  33.057   3.706
12647W        W84962   6.635  21.899  14.812
12648W        W84963  10.929  27.325  13.654
12649W        W84964  22.278   3.317   1.215
12650W        W84965  43.453  37.202  14.842
12651W        W84966  17.176   0.965   0.222
12652W        W84967  25.146  13.752  11.709
12653W        W84968  35.889  37.057   3.838
12654W        W84969  11.362  29.488  13.090
12655W        W84970  15.655  40.840   0.754
12656W        W84971  21.240  30.566   2.006
12657W        W84972  20.508   8.560  10.242
12658W        W84973  41.113  10.646   2.322
12659W        W84974  40.227  17.906   3.215
12660W        W84975  42.442   6.800  14.200
12661W        W84976  28.514  16.559  12.024
12662W        W84977  36.769   4.778  10.163
12663W        W84978  38.341  27.789  12.595
12664W        W84979  13.638  28.435   0.029
12665W        W84980  32.349   6.283  14.934
12666W        W84981  18.287  44.652  11.494
12667W        W84982  13.422   2.258   1.403
12668W        W84983  32.496  30.875   2.678
12669W        W84984  13.382  39.854   1.799
12670W        W84985   2.943   2.269  11.405
12671W        W84986  16.842   1.233   1.745
12672W        W84987  16.255  39.043   9.708
12673W        W84988  25.949  29.105  13.945
12674W        W84989  35.127  14.148  11.473
12675W        W84990   4.013  42.555  12.425
12676W        W84991   7.948  18.021  12.465
12677W        W84992  24.795  36.983   1.821
12678W        W84993  18.559  42.086  10.150
12679W        W84994  22.042   9.820   2.922
12680W        W84995   6.210  30.103   0.252
12681W        W84996   1.959   4.869  13.925
12682W        W84997  10.184  10.039   2.924
12683W        W84998  35.481  12.284   1.983
12684W        W84999  25.566  11.155   2.109
12685W        W85000  34.977  25.212  13.928
12686W        W85001   6.872   1.949   4.189
12687W        W85002  37.664  23.513  13.835
12688W        W85003  24.851  39.683   1.417
12689W        W85004  40.827   6.220  11.641
12690W        W85005  26.782  44.435  13.983
12691W        W85006  22.575   2.968   1.503
12692W        W85007   2.263   7.105  13.575
12693W        W85008  19.019  27.533   1.754
12694W        W85009  25.958  17.980   1.131
12695W        W85010  17.596  30.430   1.727
12696W        W85011  25.342  33.442   1.249
12697W        W85012   7.238  16.747   0.768
12698W        W85013  28.397  33.432   4.188
12699W        W85014  14.216  30.141   4.724
12700W        W85015  10.781  20.504  12.250
12701W        W85016  43.877   5.623   2.207
12702W        W85017   7.291   4.954   5.099
12703W        W85018   8.075  36.468  11.607
12704W        W85019   9.378  14.903   1.604
12705W        W85020  35.313  15.583   0.557
12706W        W85021   2.250  16.640   0.392
12707W        W85022   8.082  13.707  13.004
12708W        W85023  36.630  13.101  12.541
12709W        W85024  10.624  31.341   3.260
12710W        W85025  37.977  41.849   1.227
12711W        W85026  42.958  22.752   0.198
12712W        W85027  30.065  26.633  13.607
12713W        W85028  20.612   6.316  14.985
12714W        W85029  11.366  13.071  13.100
12715W        W85030   6.800  19.505  12.495
12716W        W85031   8.285   9.314   0.887
12717W        W85032  39.420  25.962  13.310
12718W        W85033  11.887  17.209  10.048
12719W        W85034   8.304  44.794  12.420
12720W        W85035   0.057  12.218   2.643
12721W        W85036  42.891  41.048   4.862
12722W        W85037  39.031  25.801  13.621
12723W        W85038  37.689   6.552   1.115
12724W        W85039  16.505  24.615   0.381
12725W        W85040  16.739  34.512   2.632
12726W        W85041  17.671   1.231   3.805
12727W        W85042  27.410  38.808  10.963
12728W        W85043  22.701   7.322   0.671
12729W        W85044  27.913  17.165   1.838
12730W        W85045  30.665   2.861   2.191
12731W        W85046  31.871  30.341  11.520
12732W        W85047   8.646  15.728   4.596
12733W        W85048  28.884  34.358   4.208
12734W        W85049  37.586  35.391  11.549
12735W        W85050  37.029  44.605  12.311
12736W        W85051  22.656   8.399   1.686
12737W        W85052   7.007   9.108   3.843
12738W        W85053  24.427  28.166  13.839
12739W        W85054  14.884  14.753   1.974
12740W        W85055  42.074  23.208  13.822
12741W        W85056  33.797   5.004   3.686
12742W        W85057  22.931  34.151   2.217
12743W        W85058  20.279  18.063   2.965
12744W        W85059  17.745  12.284  14.929
12745W        W85060  25.747  32.870   4.900
12746W        W85061   3.186  36.962   0.059
12747W        W85062  25.239  15.528   0.321
12748W        W85063   1.009   6.502   4.997
12749W        W85064   0.825   7.325   3.112
12750W        W85065   1.820  39.768  12.396
12751W        W85066  19.286  14.190  14.064
12752W        W85067  40.285   4.159   0.352
12753W        W85068  17.708  31.341   0.207
12754W        W85069   7.956  41.727  12.052
12755W        W85070  11.884   4.743  13.269
12756W        W85071  36.892  11.110  13.088
12757W        W85072  22.991  28.672  11.246
12758W        W85073   7.440  14.869   0.795
12759W        W85074  30.494  44.516  13.400
12760W        W85075   9.931  36.040  11.620
12761W        W85076  30.709  20.568   4.700
12762W        W85077  20.479  36.312  13.053
12763W        W85078  37.798   3.901   1.895
12764W        W85079   2.564  39.698  11.167
12765W        W85080  44.378   8.893   3.156
12766W        W85081   0.298  25.527  13.517
12767W        W85082  36.347   5.823  14.885
12768W        W85083  22.169  37.402   3.697
12769W        W85084  26.756   0.243  11.258
12770W        W85085  22.149  33.107  12.534
12771W        W85086   0.339  16.617   1.379
12772W        W85087  22.294   8.878  11.491
12773W        W85088   9.810  17.258   4.842
12774W        W85089  44.740  21.198  12.404
12775W        W85090   4.482   8.381   1.194
12776W        W85091  16.204  19.581   4.889
12777W        W85092  25.548  16.254  13.073
12778W        W85093  31.717  20.536  12.928
12779W        W85094  14.302   7.173   3.741
12780W        W85095  36.961  14.158   2.235
12781W        W85096  38.459  23.716   4.562
12782W        W85097  43.700   1.817  11.220
12783W        W85098  15.220  27.656   2.234
12784W        W85099  35.793  16.617  13.920
12785W        W85100   1.701   5.716  11.176
12786W        W85101   8.600  25.859   0.406
12787W        W85102  28.221  12.312  14.377
12788W        W85103  44.798   3.554  14.893
12789W        W85104   6.485  29.640   1.017
12790W        W85105  25.963  34.169  13.326
12791W        W85106   7.613   2.457  10.583
12792W        W85107  16.765  24.633   4.242
12793W        W85108  37.907  41.971   4.697
12794W        W85109  18.006  10.315   1.694
12795W        W85110  41.465  37.378  13.990
12796W        W85111  14.715   5.820  13.593
12797W        W85112  11.225   1.681  11.372
12798W        W85113  42.185  27.439  14.359
12799W        W85114  25.580   2.572  14.465
12800W        W85115  42.361  12.194  13.558
12801W        W85116  37.889   4.872   4.894
12802W        W85117   4.328  17.587   3.645
12803W        W85118  28.616  25.744  11.070
12804W        W85119  37.937  30.989   4.653
12805W        W85120  30.048  43.523  14.526
12806W        W85121   4.667  43.168   2.775
12807W        W85122  35.907  40.842   3.563
12808W        W85123  17.168  10.816  11.110
12809W        W85124  28.729   9.457  12.142
12810W        W85125  36.885  20.554  12.898
12811W        W85126  44.951   4.297  11.007
12812W        W85127  40.816  13.951   4.821
12813W        W85128  10.948   4.165   4.193
12814W        W85129  32.534  32.154   4.889
12815W        W85130  43.565  10.822   2.276
12816W        W85131  22.414  37.404  10.559
12817W        W85132  42.823  15.862   0.003
12818W        W85133  12.656  12.704   4.629
12819W        W85134  18.832   9.056  10.489
12820W        W85135  39.259  27.389  11.647
12821W        W85136  44.714  16.206  10.756
12822W        W85137  42.522  33.062  12.038
12823W        W85138  36.503   5.702   0.393
12824W        W85139  31.916  21.595   3.800
12825W        W85140  28.895  41.026   4.084
12826W        W85141  28.454   5.774  12.351
12827W        W85142  19.498  25.629  11.578
12828W        W85143  22.001   3.858  11.446
12829W        W85144  24.147  28.129   4.516
12830W        W85145  14.963  13.923  12.206
12831W        W85146  27.482   3.745  12.960
12832W        W85147   1.705  38.489  13.152
12833W        W85148  24.480   4.292  12.673
12834W        W85149  10.787  21.442   0.328
12835W        W85150  37.318  21.119   4.134
12836W        W85151  29.517  39.035   2.306
12837W        W85152   8.329  32.956  11.017
12838W        W85153  25.097  20.169  11.420
12839W        W85154  26.261  27.620   0.485
12840W        W85155  21.781   5.115  11.116
12841W        W85156  12.951  25.644  14.830
12842W        W85157  43.137   9.019  14.383
12843W        W85158  35.878  27.141   0.918
12844W        W85159   2.878  26.721   3.246
12845W        W85160  29.680  43.636  12.435
12846W        W85161  23.438  24.977  11.173
12847W        W85162  35.444  43.005   3.021
12848W        W85163  12.533  40.350   2.497
12849W        W85164  24.135  43.329   3.367
12850W        W85165  22.082  39.474   2.427
12851W        W85166  36.435   3.646   1.674
12852W        W85167  43.243  40.326  10.588
12853W        W85168  19.076  14.118   4.609
12854W        W85169   7.368  25.811  14.949
12855W        W85170  11.806  33.926  12.613
12856W        W85171  21.964   3.721   1.372
12857W        W85172  43.000  44.846   2.080
12858W        W85173  27.986   2.209   4.612
12859W        W85174  28.529  38.626  14.469
12860W        W85175  17.539  10.325  10.093
12861W        W85176  44.680  36.876   1.406
12862W        W85177  11.363  43.358  11.674
12863W        W85178  10.433   7.421  11.044
12864W        W85179  22.497  25.349  12.304
12865W        W85180  23.665   9.724  10.955
12866W        W85181  41.824  16.736   1.828
12867W        W85182  25.357  13.687   0.325
12868W        W85183  36.482  18.459   2.358
12869W        W85184  36.416  11.228   4.081
12870W        W85185  41.334  11.746  12.435
12871W        W85186   0.887  41.540  14.541
12872W        W85187  39.698  32.211  11.289
12873W        W85188  12.116  10.972  11.689
12874W        W85189   8.796  39.507  14.788
12875W        W85190  11.269   1.611  13.958
12876W        W85191   7.653  26.921   0.194
12877W        W85192  15.227  26.717   3.345
12878W        W85193  31.462  32.344  10.986
12879W        W85194   8.378  11.217  14.406
12880W        W85195  14.698  26.580   3.337
12881W        W85196  12.846  10.824   2.281
12882W        W85197  20.926  44.758   0.528
12883W        W85198   2.351   9.405   4.713
12884W        W85199  30.595  24.882   0.129
12885W        W85200  16.627  23.358  12.835
12886W        W85201   2.558  17.834   0.803
12887W        W85202   8.941  12.662  14.018
12888W        W85203  17.011  44.181   9.934
12889W        W85204   9.141  31.504   3.908
12890W        W85205   7.222   6.806   0.838
12891W        W85206  21.976  14.146  12.954
12892W        W85207  16.676  11.204  14.256
12893W        W85208  41.279  32.372  13.321
12894W        W85209  30.688   8.173  11.582
12895W        W85210  40.343  43.086  12.020
12896W        W85211  29.026   0.901  12.382
12897W        W85212  12.081  15.181  12.628
12898W        W85213  14.418  14.202  14.781
12899W        W85214  22.926  31.475   1.688
12900W        W85215  44.778  31.912   2.798
12901W        W85216   7.521  18.240   1.107
12902W        W85217  44.523  10.557  11.048
12903W        W85218  34.100  41.678  13.398
12904W        W85219  27.965  25.266  10.456
12905W        W85220  43.082  21.714   4.713
12906W        W85221  35.031  10.658  14.291
12907W        W85222  41.870  17.717   1.078
12908W        W85223   0.192  29.027   0.782
12909W        W85224  26.217   3.013   2.645
12910W        W85225  31.441  42.190   1.134
12911W        W85226  34.067  26.201   2.803
12912W        W85227  13.294  44.517  13.417
12913W        W85228   0.809  44.812   3.261
12914W        W85229  43.526  28.439   2.853
12915W        W85230   2.376  36.112   1.339
12916W        W85231  42.886  21.767   1.144
12917W        W85232  31.986  36.431  12.057
12918W        W85233  23.191  27.086   1.365
12919W        W85234  44.942  41.019   3.549
12920W        W85235  21.539  41.426   0.947
12921W        W85236   1.846  14.699  11.186
12922W        W85237  23.788   9.907   0.317
12923W        W85238  36.969  29.225   1.879
12924W        W85239  15.645  23.502   1.922
12925W        W85240  35.569  37.515  13.286
12926W        W85241  31.087  36.150  11.727
12927W        W85242  38.804  20.659  13.859
12928W        W85243   7.895  38.113  14.883
12929W        W85244  19.178  39.402   5.024
12930W        W85245  17.178  22.442  10.565
12931W        W85246  20.296   6.750  14.891
12932W        W85247  10.418  13.636   0.839
12933W        W85248  11.749  15.337  11.280
12934W        W85249  20.923  22.293  13.059
12935W        W85250   1.237  28.022  14.516
12936W        W85251  14.538  42.991  11.511
12937W        W85252  44.511  28.356  13.901
12938W        W85253  40.740   0.206  12.029
12939W        W85254  43.327   2.496   2.362
12940W        W85255  24.991  10.224  13.562
12941W        W85256  29.023   3.661  10.603
12942W        W85257  28.520  27.982   4.665
12943W        W85258  19.346  26.987   2.784
12944W        W85259  28.574  35.304  11.646
12945W        W85260   9.164  12.421  12.033
12946W        W85261   7.435  44.966   3.227
12947W        W85262   7.456  36.918  10.457
12948W        W85263  28.644  36.251   3.866
12949W        W85264  33.398  34.458   5.023
12950W        W85265   8.068  21.292  13.359
12951W        W85266  30.406   1.184  14.151
12952W        W85267   5.720  14.788  12.412
12953W        W85268  32.492   8.941  13.374
12954W        W85269   0.143   8.383   3.128
12955W        W85270  19.577   6.197  10.765
12956W        W85271  29.972  26.290   3.631
12957W        W85272  34.079  42.961   0.796
12958W        W85273  24.557  29.039   1.434
12959W        W85274  30.931  16.080  12.121
12960W        W85275   0.059  35.854  11.562
12961W        W85276  25.205  27.505   3.367
12962W        W85277  22.498  13.851   0.298
12963W        W85278  17.277  32.086   1.306
12964W        W85279   7.584  15.122   2.688
12965W        W85280  33.448  21.756  10.681
12966W        W85281  36.978  19.155  11.782
12967W        W85282  38.979  19.866   1.852
12968W        W85283  35.842  36.513   2.241
12969W        W85284  32.097   1.475   2.294
12970W        W85285   8.376  15.116  13.239
12971W        W85286  41.445  17.276   4.662
12972W        W85287   4.523  30.440  10.810
12973W        W85288  31.814  27.146  10.442
12974W        W85289  11.899  26.448   1.396
12975W        W85290   3.804  18.626   3.193
12976W        W85291  38.339  40.738  12.010
12977W        W85292  22.547  25.217  11.182
12978W        W85293  28.937  32.026   0.934
12979W        W85294  31.703  33.017   3.357
12980W        W85295  42.821  15.802   0.932
12981W        W85296  10.180   1.654  14.481
12982W        W85297   7.196  44.211  10.111
12983W        W85298  34.391  42.696   4.228
12984W        W85299  26.457   1.669  11.598
12985W        W85300  30.763  44.843   4.865
12986W        W85301   0.942   5.186   3.203
12987W        W85302  12.659  34.927  11.626
12988W        W85303  14.548   8.133   0.856
12989W        W85304   5.872   8.374  14.023
12990W        W85305   6.975   1.741   2.845
12991W        W85306  19.014  26.592   2.690
12992W        W85307  22.691   3.132  13.961
12993W        W85308   5.003  13.062  12.194
12994W        W85309  37.456  30.094   3.230
12995W        W85310   1.216  18.360   4.530
12996W        W85311   2.694  13.053   3.177
12997W        W85312  12.339  12.207  12.879
12998W        W85313  26.932   4.715  12.493
12999W        W85314  41.747  26.529  12.205
13000W        W85315  27.025  44.434   0.678
13001W        W85316  28.107  30.873  10.522
13002W        W85317  37.935  18.580  12.407
13003W        W85318  27.399  26.473  12.438
13004W        W85319  14.668  20.032  13.877
13005W        W85320  41.364  25.963  11.311
13006W        W85321  26.674  24.278  12.939
13007W        W85322  12.155   7.552  12.839
13008W        W85323  16.306  21.242  12.417
13009W        W85324  25.444  21.666   9.737
13010W        W85325  21.609  21.261   3.547
13011W        W85326  21.209   3.418  14.383
13012W        W85327  32.178  28.520  12.969
13013W        W85328  34.679  18.720  12.999
13014W        W85329   5.405  14.076   4.277
13015W        W85330  33.114   3.423   1.859
13016W        W85331  32.959  43.407  14.334
13017W        W85332   0.427  32.418  13.412
13018W        W85333  32.640  39.523  11.089
13019W        W85334   3.261   1.446   0.280
13020W        W85335  35.541  29.589   3.593
13021W        W85336  12.514   8.387  13.183
13022W        W85337   6.407  33.396  10.707
13023W        W85338  14.654  17.604   4.049
13024W        W85339  14.320  28.410   2.404
13025W        W85340   3.802  23.073   3.390
13026W        W85341   8.501   6.593  13.397
13027W        W85342  20.511  30.524   0.234
13028W        W85343  39.602  36.471   0.384
13029W        W85344  28.107  25.708   1.400
13030W        W85345   1.797  13.509   2.451
13031W        W85346   8.734  16.284  12.822
13032W        W85347  12.984  36.631   3.186
13033W        W85348  27.524  16.261  11.688
13034W        W85349  16.609  23.379  14.173
13035W        W85350  11.961  18.532  13.527
13036W        W85351   9.688  34.592   4.807
13037W        W85352  23.116  14.770  12.488
13038W        W85353  27.651  41.789   0.922
13039W        W85354  24.112  32.625   1.947
13040W        W85355  33.974  14.764   2.185
13041W        W85356  20.713  19.859  11.531
13042W        W85357  11.021   0.268   2.552
13043W        W85358  22.626  40.283   2.489
13044W        W85359   5.664   9.287   4.545
13045W        W85360  29.076  25.025   2.285
13046W        W85361  11.841  31.211  13.549
13047W        W85362  18.757  20.660  10.993
13048W        W85363  14.320  13.603  11.594
13049W        W85364  30.084   8.387  12.881
13050W        W85365  13.284  43.949  12.066
13051W        W85366  13.055   3.599  12.969
13052W        W85367  32.929  31.425   3.176
13053W        W85368  12.864  39.801  13.001
13054W        W85369  19.098   7.258  11.859
13055W        W85370   4.510  44.368   1.278
13056W        W85371   4.318   9.936  12.438
13057W        W85372  29.446   1.284   1.496
13058W        W85373  28.488  27.068   1.435
13059W        W85374   5.397  12.286   0.388
13060W        W85375   7.087   3.737   3.588
13061W        W85376  33.900   3.280   3.741
13062W        W85377  21.134   0.684  12.481
13063W        W85378  44.938  14.831  13.660
13064W        W85379  17.178  27.336  10.154
13065W        W85380  26.798  35.101   4.133
13066W        W85381  26.909  18.596   1.672
13067W        W85382  39.586   5.275   2.286
13068W        W85383  36.194  39.065   5.282
13069W        W85384  19.207  38.826   3.731
13070W        W85385   5.436  39.367  11.870
13071W        W85386  21.114   5.759  12.136
13072W        W85387  30.507  11.884  11.579
13073W        W85388  43.503   1.383   3.747
13074W        W85389  29.936  20.370   1.390
13075W        W85390  26.226  21.676  10.409
13076W        W85391  22.189  18.123   3.533
13077W        W85392  44.823   4.162   4.510
13078W        W85393   4.276   6.976  10.998
13079W        W85394   5.238  19.210   0.790
13080W        W85395  44.816  33.790  14.423
13081W        W85396  17.793  27.501  13.340
13082W        W85397   4.042  10.121  13.551
13083W        W85398   7.994  30.125  14.923
13084W        W85399  35.527  24.788   0.314
13085W        W85400  26.590   3.810   9.889
13086W        W85401  21.501  44.411  12.456
13087W        W85402  27.432  23.951  14.916
13088W        W85403  16.114  33.955  12.311
13089W        W85404  17.468   9.198   9.901
13090W        W85405  36.909  31.703  14.781
13091W        W85406   6.071   1.822   3.567
13092W        W85407  43.892  23.678   1.197
13093W        W85408  27.960  15.824   0.841
13094W        W85409  35.900   6.759  12.060
13095W        W85410  34.144  34.949   2.003
13096W        W85411  27.989  41.917  14.419
13097W        W85412  24.141  25.048  10.174
13098W        W85413  25.117  37.269  14.744
13099W        W85414  24.500  43.473   0.016
13100W        W85415  25.494  38.948   3.945
13101W        W85416   7.076   3.482  14.554
13102W        W85417   1.864  37.989  13.051
13103W        W85418  12.667  32.699   4.634
13104W        W85419  12.842  44.937  14.137
13105W        W85420  10.105   4.891   2.019
13106W        W85421  26.139  28.045   1.389
13107W        W85422   8.201  14.537   1.357
13108W        W85423   8.202   8.654  13.412
13109W        W85424  26.030  16.336   2.744
13110W        W85425  28.917  18.843  12.161
13111W        W85426  36.896  11.591   3.694
13112W        W85427  21.273  26.061   1.662
13113W        W85428  43.850  43.980  12.036
13114W        W85429   2.842  32.598   1.531
13115W        W85430  17.251   5.878  12.253
13116W        W85431   2.380  11.672   3.133
13117W        W85432  43.703  17.211  11.122
13118W        W85433   5.910  16.598  14.966
13119W        W85434  34.041   8.454   1.732
13120W        W85435   4.337  37.867  13.152
13121W        W85436  10.906  22.958  14.024
13122W        W85437   3.395  40.234  13.442
13123W        W85438   7.846  26.285  13.403
13124W        W85439  43.224  13.445   0.244
13125W        W85440  33.543  41.412   2.478
13126W        W85441  26.606   9.659  14.050
13127W        W85442  30.168  40.448  12.074
13128W        W85443  33.975  34.993  13.778
13129W        W85444  36.394  43.766   3.676
13130W        W85445  11.642  44.962   3.641
13131W        W85446   9.422  32.621  10.548
13132W        W85447  40.458  19.039   4.056
13133W        W85448  17.750  32.009  11.108
13134W        W85449  21.781   5.143  14.352
13135W        W85450  29.676  11.679   1.248
13136W        W85451  25.184  34.132  11.819
13137W        W85452  20.467  10.758   3.343
13138W        W85453   9.294  14.332  10.345
13139W        W85454   3.200  14.106   2.237
13140W        W85455  44.758  40.214  11.571
13141W        W85456  43.644  41.665  11.692
13142W        W85457  10.635   3.515   0.906
13143W        W85458  11.841  35.236   3.509
13144W        W85459  43.061  27.057   4.956
13145W        W85460  33.937   5.197  12.880
13146W        W85461  21.037   3.383   4.604
13147W        W85462  13.528  36.765  14.925
13148W        W85463  10.391  43.996  10.794
13149W        W85464   7.021  34.478  11.206
13150W        W85465  12.259  21.284   1.393
13151W        W85466  44.571  41.560  12.468
13152W        W85467  23.442  17.212   3.757
13153W        W85468  30.141  23.096   3.321
13154W        W85469   5.782   9.555   1.166
13155W        W85470  39.365  41.656  14.103
13156W        W85471   1.368   8.547  14.062
13157W        W85472  44.794  10.564   0.856
13158W        W85473  26.288  38.615  10.674
13159W        W85474  18.689  37.597   2.612
13160W        W85475  32.098  27.714  11.267
13161W        W85476  24.280  16.790  11.172
13162W        W85477   1.445   3.708   1.715
13163W        W85478  29.323  13.050  14.607
13164W        W85479  24.601   8.274  12.550
13165W        W85480   8.055  33.266   3.988
13166W        W85481  37.078  25.037  12.465
13167W        W85482  21.194   8.532   4.490
13168W        W85483   0.245  36.976  12.605
13169W        W85484   8.417   6.845  11.100
13170W        W85485   9.397   7.678  13.284
13171W        W85486   1.005  41.001   1.889
13172W        W85487  13.091  28.978   4.182
13173W        W85488   8.194  42.013   3.744
13174W        W85489  44.763  17.809  11.481
13175W        W85490   4.742   8.824   0.967
13176W        W85491   7.114   0.771  12.443
13177W        W85492  35.600  15.049   3.220
13178W        W85493  28.204  34.444  11.825
13179W        W85494  16.291   4.754   3.337
13180W        W85495  13.824  24.553   2.133
13181W        W85496  11.779  13.703   2.414
13182W        W85497  13.139  43.321   2.813
13183W        W85498  27.651  16.650  12.908
13184W        W85499  22.742  12.256  12.095
13185W        W85500  12.069  24.977   1.873
13186W        W85501  41.861  16.328   3.624
13187W        W85502  40.454  22.314  10.710
13188W        W85503  35.982   1.773   4.693
13189W        W85504   1.834  18.361  13.348
13190W        W85505  33.667  18.165  13.545
13191W        W85506  32.488  29.059  12.496
13192W        W85507  43.893  18.689   0.739
13193W        W85508  19.156  29.370  13.911
13194W        W85509  42.873  35.792   0.673
13195W        W85510  42.387  13.996  10.285
13196W        W85511   9.186  27.121   2.208
13197W        W85512  42.413  19.029   4.555
13198W        W85513  33.946  34.993   0.200
13199W        W85514  11.664  28.656   3.227
13200W        W85515  18.349  27.187   4.438
13201W        W85516  23.753  15.649   3.698
13202W        W85517  31.714  16.119  11.748
13203W        W85518  36.851  11.770  13.337
13204W        W85519  38.673  13.446   3.381
13205W        W85520  42.923   1.673   1.199
13206W        W85521  11.261  39.533  14.266
13207W        W85522   5.160  28.386  11.084
13208W        W85523  14.725  26.132  13.974
13209W        W85524  39.871  34.924   3.099
13210W        W85525   4.652  32.212  10.785
13211W        W85526  32.162   0.596  14.417
13212W        W85527  40.416   5.088  11.957
13213W        W85528  10.489  32.914   4.142
13214W        W85529  29.003   0.442  10.359
13215W        W85530  20.229  40.915  14.497
13216W        W85531  41.563  12.097   4.989
13217W        W85532   5.334  32.106  14.477
13218W        W85533  37.006  20.651   4.987
13219W        W85534   8.447  43.872   0.943
13220W        W85535  26.825  15.928   2.549
13221W        W85536  18.519  19.349   2.914
13222W        W85537   5.305   8.023  11.994
13223W        W85538   2.373  29.469   2.804
13224W        W85539  25.005  13.380   0.902
13225W        W85540  20.034  23.826   2.394
13226W        W85541  26.859  41.586  13.323
13227W        W85542  18.394  33.278   2.412
13228W        W85543  20.120  18.524  10.362
13229W        W85544  18.210  11.445   2.120
13230W        W85545   0.589  13.438  12.347
13231W        W85546  20.062  29.690   3.678
13232W        W85547  32.080  23.698  13.380
13233W        W85548   9.153  18.857  13.966
13234W        W85549  24.666  18.823  14.856
13235W        W85550  20.789  14.069   4.869
13236W        W85551  13.849   7.370   4.934
13237W        W85552  33.114  14.576  13.021
13238W        W85553  12.019   8.714  11.142
13239W        W85554  29.376   0.330  10.722
13240W        W85555  17.289  35.543  10.359
13241W        W85556  15.046  42.742   2.731
13242W        W85557   9.325  20.847  14.312
13243W        W85558  28.467  10.354  14.865
13244W        W85559  43.774  29.016   0.844
13245W        W85560  36.037  25.019   3.277
13246W        W85561  33.187  31.873   3.167
13247W        W85562  29.453  12.337  11.761
13248W        W85563   4.056   3.499   0.202
13249W        W85564  19.135  29.248  11.983
13250W        W85565  25.289   1.161   4.103
13251W        W85566  31.317  26.139  14.290
13252W        W85567  20.700  34.044  12.597
13253W        W85568   2.255  37.335  10.676
13254W        W85569  26.973   6.230  10.646
13255W        W85570   2.071  33.080   4.131
13256W        W85571  13.971  24.127   4.611
13257W        W85572  25.498   6.726   0.524
13258W        W85573   7.435  42.731  12.473
13259W        W85574  24.037   6.816  11.121
13260W        W85575   9.999  25.782  12.878
13261W        W85576   9.107   9.965   0.792
13262W        W85577  19.719   2.371  12.445
13263W        W85578  34.845   0.950  10.769
13264W        W85579  12.798  22.821  13.538
13265W        W85580  31.464  27.103   2.603
13266W        W85581  29.992   8.916  11.664
13267W        W85582  24.326  19.934  11.933
13268W        W85583  43.001  28.048   0.316
13269W        W85584  10.357  39.109  13.312
13270W        W85585  39.324  10.613  11.995
13271W        W85586  31.253   1.385  11.083
13272W        W85587  35.584  28.736  14.955
13273W        W85588  30.639   1.618  14.381
13274W        W85589  43.858  28.901  12.512
13275W        W85590  44.230  42.978   0.794
13276W        W85591  32.913  33.174  13.456
13277W        W85592  30.106  43.396  11.583
13278W        W85593  35.183  29.461   1.644
13279W        W85594  24.572  26.115   3.583
13280W        W85595  31.072  12.859  13.101
13281W        W85596  34.784  43.579  14.757
13282W        W85597  32.828  22.037  12.868
13283W        W85598  44.674  25.919   1.029
13284W        W85599  22.035  20.544  12.096
13285W        W85600  25.118  25.226   1.809
13286W        W85601  24.187  13.586  12.529
13287W        W85602   2.714  24.265  11.395
13288W        W85603  18.755  13.281   2.372
13289W        W85604  25.718   6.306  13.445
13290W        W85605  38.437  35.727   0.870
13291W        W85606  23.969  22.883   4.332
13292W        W85607  31.715  19.052   1.292
13293W        W85608  32.292  31.029   2.220
13294W        W85609  13.742  40.853  14.672
13295W        W85610  44.565  10.891   2.234
13296W        W85611   9.254  13.898   2.265
13297W        W85612  37.294  35.838   1.411
13298W        W85613  19.355  13.522   4.195
13299W        W85614  14.695  23.618   0.982
13300W        W85615   2.784  33.129   3.685
13301W        W85616  16.704  29.077   1.480
13302W        W85617  19.222  21.813   3.687
13303W        W85618  23.419  38.240   3.412
13304W        W85619  19.223  22.821   0.475
13305W        W85620   5.718  19.118  14.897
13306W        W85621  36.735  12.642   4.173
13307W        W85622  44.924  38.592   2.389
13308W        W85623  32.728  11.671  12.159
13309W        W85624   3.772  10.290   1.109
13310W        W85625  10.767  30.020   4.244
13311W        W85626  12.350  21.743  14.362
13312W        W85627  21.277   8.664   5.000
13313W        W85628   5.384  41.344   1.474
13314W        W85629  11.725  38.574   0.932
13315W        W85630  34.440  14.663   1.970
13316W        W85631  37.572  43.005   3.835
13317W        W85632  16.252  32.954  11.998
13318W        W85633   7.848  26.005   3.409
13319W        W85634  22.464  19.621   4.573
13320W        W85635  39.230  39.265  11.986
13321W        W85636  30.831  14.323  10.621
13322W        W85637  28.182   9.268  11.356
13323W        W85638   7.700  37.395   4.871
13324W        W85639  44.828  27.628   4.818
13325W        W85640  39.424  32.359   0.276
13326W        W85641   2.704  41.006  11.021
13327W        W85642  18.160  19.215  14.801
13328W        W85643  28.714  28.422  13.735
13329W        W85644  10.653  21.977  13.874
13330W        W85645  17.605  43.016   3.822
13331W        W85646  40.343  42.816  14.950
13332W        W85647   0.883   1.743   1.610
13333W        W85648  40.863   5.478  13.446
13334W        W85649  32.627  39.960  14.330
13335W        W85650  11.436   0.469   3.654
13336W        W85651   3.854  42.037   1.675
13337W        W85652  41.068  21.059  11.141
13338W        W85653  42.518   7.824   3.172
13339W        W85654  25.235  31.424  11.118
13340W        W85655  10.062  36.689  13.822
13341W        W85656   4.477  24.111  13.473
13342W        W85657  34.144  20.714  12.161
13343W        W85658  17.755  31.372   5.576
13344W        W85659   4.402  37.024  14.825
13345W        W85660  37.963  43.734   1.351
13346W        W85661   8.946  25.517   0.233
13347W        W85662  36.932  28.379   3.692
13348W        W85663  17.608  33.538   4.327
13349W        W85664  14.310  21.301  14.909
13350W        W85665  18.497  30.439   4.167
13351W        W85666  30.019  19.856  12.438
13352W        W85667  26.664  29.482  10.696
13353W        W85668  24.673  38.153   4.248
13354W        W85669  36.643   7.237   2.793
13355W        W85670  24.775  41.940  12.054
13356W        W85671  18.161   4.954   0.192
13357W        W85672  28.107  33.812  10.961
13358W        W85673  26.092  20.573  13.528
13359W        W85674   8.754   5.885   4.710
13360W        W85675  17.754  17.664  13.841
13361W        W85676  18.306   7.379   3.339
13362W        W85677   7.429  37.857   3.303
13363W        W85678  19.272  43.501  10.747
13364W        W85679  27.754  21.573  10.687
13365W        W85680   0.457   5.436   3.259
13366W        W85681  39.485  25.119   0.256
13367W        W85682  12.777   0.755  14.795
13368W        W85683  19.838  20.829  14.366
13369W        W85684   9.474  40.986   1.451
13370W        W85685   0.701  28.047  10.172
13371W        W85686  12.793  33.550  12.914
13372W        W85687   6.508  19.570  14.961
13373W        W85688  17.707  37.537  13.449
13374W        W85689   2.147  16.964  11.575
13375W        W85690   0.654   6.918  12.514
13376W        W85691   7.853  16.736   0.346
13377W        W85692  40.957  21.019   1.850
13378W        W85693  28.559  18.806  14.823
13379W        W85694   3.706   6.511   0.290
13380W        W85695  35.114  16.312   2.718
13381W        W85696  24.762  40.841  14.717
13382W        W85697  23.414  13.540  13.676
13383W        W85698  31.759   0.957   3.617
13384W        W85699  17.757  23.394  14.244
13385W        W85700  41.733   3.407   0.260
13386W        W85701   0.077   0.242  13.588
13387W        W85702  23.854  19.136  12.410
13388W        W85703   1.322  36.149  11.536
13389W        W85704  36.351  22.743   1.348
13390W        W85705  31.110  13.094   0.402
13391W        W85706  22.390   8.090   4.420
13392W        W85707   1.723  30.494   4.875
13393W        W85708  34.589  39.591  14.486
13394W        W85709   3.918   9.218   1.762
13395W        W85710  16.351   1.756  10.662
13396W        W85711  30.895  33.558   1.485
13397W        W85712   0.203  42.918  10.837
13398W        W85713   3.395   3.280   4.106
13399W        W85714  15.514   3.352  10.298
13400W        W85715  18.393   7.204   1.261
13401W        W85716  28.053  11.196   0.443
13402W        W85717   9.368  10.791   3.206
13403W        W85718  35.516  28.719   2.379
13404W        W85719  33.539  10.634   2.397
13405W        W85720   7.903  14.623  12.541
13406W        W85721  23.810  19.966  10.279
13407W        W85722  12.590  29.519   3.583
13408W        W85723  16.865   3.156   4.954
13409W        W85724  35.004  15.149   3.697
13410W        W85725   5.464  21.073  11.647
13411W        W85726  33.485  20.358   3.148
13412W        W85727  18.028   6.344  13.003
13413W        W85728   1.434  18.121  14.449
13414W        W85729   7.234  38.382  12.625
13415W        W85730  39.017  28.473  10.715
13416W        W85731  37.472   3.650   1.416
13417W        W85732  29.983  40.636   1.928
13418W        W85733   4.836  43.004  10.792
13419W        W85734  31.951  23.741   3.232
13420W        W85735   2.779   3.792  10.787
13421W        W85736   5.477  33.910   4.060
13422W        W85737  33.350  38.004   4.049
13423W        W85738  42.757  16.253  12.999
13424W        W85739  30.174  25.703  14.812
13425W        W85740  29.537  31.693   0.386
13426W        W85741   4.692   7.431  11.532
13427W        W85742  42.999  21.049  11.446
13428W        W85743   6.341   4.576   4.910
13429W        W85744  32.845  43.295   1.280
13430W        W85745  20.221  36.126  10.640
13431W        W85746  30.664  38.292   1.709
13432W        W85747  18.330  40.089  14.710
13433W        W85748   6.518   6.747   4.348
13434W        W85749  21.091  43.400  12.644
13435W        W85750   7.671  36.469  10.617
13436W        W85751  40.011  20.233  13.838
13437W        W85752  18.311  28.213   1.903
13438W        W85753  34.999  27.562  11.182
13439W        W85754  35.485  41.824  13.952
13440W        W85755  17.332   9.722   2.828
13441W        W85756  32.596   7.167  13.989
13442W        W85757  10.860   0.545   0.897
13443W        W85758  17.837  17.626  12.885
13444W        W85759  33.628  19.651   2.190
13445W        W85760  37.404  30.075   0.356
13446W        W85761  18.843  26.273  12.078
13447W        W85762  15.736   5.770  13.556
13448W        W85763  12.795   2.679   0.336
13449W        W85764  26.877  20.776  12.867
13450W        W85765  19.191   8.085   9.826
13451W        W85766   3.403  36.053  10.717
13452W        W85767  42.559  29.045   3.738
13453W        W85768  44.352   2.899   1.508
13454W        W85769  20.258  24.150  12.872
13455W        W85770  26.836  17.257   0.475
13456W        W85771  25.972  32.613   2.095
13457W        W85772  20.968  40.310   4.063
13458W        W85773  25.445  36.674   2.398
13459W        W85774  28.400  33.920   3.578
13460W        W85775  33.645   9.631   2.445
13461W        W85776  21.963  16.312   1.183
13462W        W85777   9.764  25.766  14.421
13463W        W85778  31.758  30.986   4.692
13464W        W85779  21.527   5.122  10.257
13465W        W85780  10.788  23.533   4.025
13466W        W85781  27.487  27.959  11.990
13467W        W85782   1.856  29.676  13.831
13468W        W85783  24.757  29.582  10.773
13469W        W85784   3.201   7.205   4.470
13470W        W85785  10.647   6.397   1.359
13471W        W85786   7.829   9.786   4.538
13472W        W85787  29.558  16.234   4.705
13473W        W85788  22.479   2.737   2.466
13474W        W85789  24.472  36.313  13.893
13475W        W85790  34.600  31.537   1.830
13476W        W85791  44.283  38.315  11.726
13477W        W85792  13.099  28.894  12.394
13478W        W85793  38.382   4.724   2.721
13479W        W85794  13.073  42.853  11.292
13480W        W85795  25.190   9.639   0.326
13481W        W85796  41.362  41.897   1.073
13482W        W85797  21.534  37.065  11.577
13483W        W85798   7.405  15.089   1.275
13484W        W85799  19.047  25.700  12.786
13485W        W85800  38.489  37.980   4.201
13486W        W85801  20.549  28.949   3.711
13487W        W85802  29.655  26.560  11.771
13488W        W85803  23.291  29.618   4.323
13489W        W85804  30.754  12.743   3.790
13490W        W85805  35.395   0.813  12.996
13491W        W85806  41.227  19.128   3.546
13492W        W85807  35.607  24.671  10.914
13493W        W85808   4.425  26.831   0.244
13494W        W85809   6.265   6.800   2.445
13495W        W85810   2.643  26.270   1.390
13496W        W85811  20.214   4.820   4.450
13497W        W85812  33.691  26.606  14.799
13498W        W85813  29.557  40.060  14.181
13499W        W85814  33.967  21.723   2.043
13500W        W85815  18.061  38.551  11.903
13501W        W85816  13.068  39.346  11.034
13502W        W85817  30.433   2.906  12.417
13503W        W85818  30.528  37.149  13.144
13504W        W85819  26.674   0.353   3.371
13505W        W85820  18.078  19.492   4.616
13506W        W85821  36.949   3.689  13.940
13507W        W85822  10.701  35.958   4.399
13508W        W85823  10.463   2.280   3.672
13509W        W85824  37.356  35.550   2.732
13510W        W85825  36.849  16.747  11.814
13511W        W85826  14.348  44.495   1.676
13512W        W85827  38.782  11.778  14.855
13513W        W85828  43.890  27.700  13.180
13514W        W85829  36.717   6.418  12.211
13515W        W85830  43.346   4.989  12.039
13516W        W85831  16.618  23.725  13.801
13517W        W85832  11.766  19.536  10.941
13518W        W85833  12.601  40.918  11.511
13519W        W85834  39.794  36.526   0.877
13520W        W85835   1.170  11.296  10.709
13521W        W85836  39.240  23.882   1.769
13522W        W85837  13.787  43.870   1.797
13523W        W85838   5.758  26.812  12.480
13524W        W85839  44.363   9.352  13.074
13525W        W85840  14.816  13.184   1.890
13526W        W85841  34.290  34.014   1.283
13527W        W85842   0.782  29.578   3.164
13528W        W85843   1.826  14.999   3.209
13529W        W85844  28.563   7.706   0.639
13530W        W85845  44.745  39.885   1.546
13531W        W85846  24.434  23.659   0.785
13532W        W85847  13.120  36.912  13.389
13533W        W85848  40.319   0.284  10.651
13534W        W85849  44.822  19.498   4.556
13535W        W85850  37.220  20.592  14.354
13536W        W85851  43.753  19.536   1.872
13537W        W85852  12.974  18.192   3.227
13538W        W85853  20.594  39.895   2.319
13539W        W85854  24.997  25.536   4.487
13540W        W85855  35.518   1.858   2.843
13541W        W85856  39.070  12.218  14.811
13542W        W85857  36.325  16.327  12.414
13543W        W85858  25.512  19.842  10.166
13544W        W85859  19.251  44.692   0.763
13545W        W85860  40.561  12.722  11.249
13546W        W85861   7.647  10.239   4.702
13547W        W85862  30.482   4.397  13.324
13548W        W85863   8.222  20.787   2.174
13549W        W85864  22.204  44.990  12.934
13550W        W85865  15.723  39.572   3.221
13551W        W85866  20.472  21.717   3.137
13552W        W85867  44.430  28.699  14.875
13553W        W85868   5.215  13.123  13.649
13554W        W85869  11.863   1.033   1.728
13555W        W85870  14.260   1.318  11.628
13556W        W85871  13.559  10.863  12.973
13557W        W85872  25.938  29.254  14.834
13558W        W85873  13.712   6.283   4.693
13559W        W85874  26.136  29.985  11.176
13560W        W85875  30.094  12.056   3.589
13561W        W85876  27.266  23.281   3.845
13562W        W85877   3.030  11.724  14.495
13563W        W85878  28.140  26.228   0.640
13564W        W85879  34.522  27.557   0.871
13565W        W85880   0.534  38.511   4.113
13566W        W85881  28.194   6.081  13.451
13567W        W85882  44.759  30.381  14.395
13568W        W85883   2.467  35.553   5.088
13569W        W85884  25.499  35.619  11.999
13570W        W85885   2.806  36.637   0.226
13571W        W85886  17.031  27.066   4.243
13572W        W85887  40.018   8.915   3.208
13573W        W85888  33.412  12.229  12.369
13574W        W85889  44.698  27.855   3.049
13575W        W85890  35.866  41.118   1.317
13576W        W85891  38.814  13.090  13.961
13577W        W85892  42.206   5.226   0.802
13578W        W85893  28.472  24.291   4.944
13579W        W85894  33.946   5.910   0.479
13580W        W85895  40.167  27.560   0.376
13581W        W85896  39.348  19.538  12.353
13582W        W85897  36.095   0.931  14.396
13583W        W85898  38.586  32.636  11.551
13584W        W85899  22.771  10.883  13.075
13585W        W85900   3.289  43.305   2.837
13586W        W85901   5.219  13.822  14.382
13587W        W85902   8.247  12.865  10.641
13588W        W85903  13.321   1.951   2.923
13589W        W85904   1.739   5.828   3.547
13590W        W85905  36.985  28.718   2.669
13591W        W85906  13.045  25.279  14.453
13592W        W85907  33.404   7.308   1.476
13593W        W85908  27.884   5.837  10.120
13594W        W85909   3.338  29.674   4.765
13595W        W85910  26.614  20.271  14.820
13596W        W85911  26.693  18.777  10.416
13597W        W85912   4.909  26.204   4.636
13598W        W85913  41.824  14.477   0.268
13599W        W85914  24.124  40.239  13.720
13600W        W85915   7.200  38.911  11.280
13601W        W85916   8.065  41.104   1.057
13602W        W85917  11.847   3.852  14.302
13603W        W85918  43.817  32.082  13.880
13604W        W85919   5.849  13.720  10.690
13605W        W85920  38.905  34.098   1.955
13606W        W85921  28.539  18.444  14.476
13607W        W85922  19.345  30.925  12.977
13608W        W85923  19.292   7.342  12.389
13609W        W85924   4.729  29.535  13.932
13610W        W85925  29.263  31.692   1.169
13611W        W85926  27.082   7.916  12.056
13612W        W85927  21.232  39.449   3.915
13613W        W85928   2.303  14.031   4.044
13614W        W85929   9.195  12.276  11.156
13615W        W85930  11.859  44.500   3.528
13616W        W85931  43.757  35.963   1.024
13617W        W85932  38.601   4.860  12.621
13618W        W85933  17.240   6.601  13.512
13619W        W85934   5.877  11.840  14.300
13620W        W85935   3.249  14.989   2.581
13621W        W85936   1.615   2.915  11.905
13622W        W85937  32.812  36.784   0.696
13623W        W85938   1.504  33.180  11.579
13624W        W85939  21.632  33.866  10.716
13625W        W85940  29.446  25.294  11.581
13626W        W85941  10.842   0.370   4.068
13627W        W85942  30.828  17.622   1.957
13628W        W85943  33.705   6.319   4.568
13629W        W85944  28.793  40.288   2.777
13630W        W85945  27.899  33.393   4.207
13631W        W85946  29.740  25.630   2.563
13632W        W85947   6.158  28.972  12.338
13633W        W85948  14.749  27.732  14.952
13634W        W85949  10.121   8.777   3.305
13635W        W85950  43.868   7.206   4.829
13636W        W85951  35.628  22.019   1.436
13637W        W85952  27.224  27.419   2.269
13638W        W85953  10.475  39.603  12.455
13639W        W85954  31.407  27.507  13.461
13640W        W85955  20.734  27.163  11.941
13641W        W85956  22.935  20.882   3.705
13642W        W85957  24.089  29.258  12.922
13643W        W85958  23.759  25.665   1.791
13644W        W85959  12.207   3.286  12.453
13645W        W85960   9.984  33.950  10.681
13646W        W85961  12.009  17.289  12.240
13647W        W85962  14.047  25.507   3.559
13648W        W85963  42.742   3.445  10.604
13649W        W85964  31.532   5.942   3.704
13650W        W85965   4.955  20.833  12.117
13651W        W85966  23.274  33.389  12.044
13652W        W85967  14.026  20.098  12.977
13653W        W85968   7.359  16.576  11.673
13654W        W85969  32.632  25.988  12.966
13655W        W85970  26.557  27.884  10.321
13656W        W85971  11.648  21.077  10.901
13657W        W85972  43.397  29.214  12.385
13658W        W85973  21.077  19.233  14.985
13659W        W85974  30.927  39.991   3.566
13660W        W85975   3.434  29.154   2.282
13661W        W85976  25.213  35.972   2.871
13662W        W85977   0.799  10.403   4.532
13663W        W85978  12.781  30.584   0.860
13664W        W85979  11.567  24.744  10.701
13665W        W85980  16.206  34.348  10.611
13666W        W85981   2.779   9.052   0.823
13667W        W85982  44.848  13.654   2.768
13668W        W85983  34.566  26.400   2.733
13669W        W85984  11.141  22.502  11.402
13670W        W85985  33.474  44.463   5.244
13671W        W85986  11.692  20.957   2.377
13672W        W85987  15.163  19.162  13.801
13673W        W85988   2.778   2.224  10.689
13674W        W85989  28.451   5.807   4.442
13675W        W85990  26.493  25.150   2.595
13676W        W85991  23.128  43.872   2.761
13677W        W85992   1.471  18.807  11.437
13678W        W85993  36.102  30.348   3.653
13679W        W85994  36.110   6.498   4.206
13680W        W85995  21.495  23.731  11.490
13681W        W85996  18.173  15.799  13.908
13682W        W85997  32.315  34.683   1.494
13683W        W85998  38.706  30.360  14.987
13684W        W85999  36.438  31.443  12.583
13685W        W86000   0.455  27.832   2.706
13686W        W86001   3.899  17.543   3.285
13687W        W86002   1.801  31.441   1.266
13688W        W86003  33.633  14.222  13.377
13689W        W86004  26.310   5.638  13.140
13690W        W86005  33.851   3.030  11.113
13691W        W86006   5.583  16.628  12.587
13692W        W86007  40.551  27.749  13.857
13693W        W86008  11.253  32.915   3.803
13694W        W86009  37.262  31.954   4.527
13695W        W86010  44.525   3.385  10.120
13696W        W86011   1.292  15.287  14.022
13697W        W86012  17.691  29.036  11.887
13698W        W86013  19.861  35.362   2.689
13699W        W86014   7.400  10.711   0.346
13700W        W86015  15.721   9.604   2.638
13701W        W86016  31.128   8.380  10.726
13702W        W86017  27.300   8.968   0.899
13703W        W86018   0.045  35.889  10.177
13704W        W86019   4.855   3.907  12.828
13705W        W86020  14.137  16.849   0.463
13706W        W86021  22.044  29.373  11.152
13707W        W86022  36.668  25.108   1.671
13708W        W86023  31.677  25.512  14.784
13709W        W86024   0.412  38.417   0.346
13710W        W86025  24.175  12.103   3.219
13711W        W86026  33.836  43.472  12.051
13712W        W86027   2.864  28.846  13.368
13713W        W86028  41.536  33.383   1.919
13714W        W86029  19.202  44.573   3.681
13715W        W86030  44.549  12.248  12.475
13716W        W86031  28.119   0.103  14.024
13717W        W86032  26.036  19.615   0.322
13718W        W86033   8.776   1.232   1.656
13719W        W86034  23.941  30.655  12.958
13720W        W86035  24.193  10.423  11.699
13721W        W86036   1.555  21.445  14.273
13722W        W86037  15.624  33.572   0.763
13723W        W86038  40.463  29.885   1.880
13724W        W86039  35.992  27.158   2.812
13725W        W86040  13.899  31.621  14.435
13726W        W86041  35.188  21.857   3.879
13727W        W86042   2.995   6.654   1.463
13728W        W86043   1.132   3.739  14.291
13729W        W86044  30.219  40.947   0.202
13730W        W86045  42.462  14.531  13.606
13731W        W86046  24.122  13.393   4.142
13732W        W86047   2.333  16.870   3.266
13733W        W86048   8.275  36.896   1.194
13734W        W86049  37.559   5.546  12.950
13735W        W86050  13.318  39.527  11.504
13736W        W86051  12.392  37.130  12.485
13737W        W86052  23.616  24.410   3.093
13738W        W86053  31.161  12.949   5.052
13739W        W86054  10.785  34.591  12.832
13740W        W86055  18.152  36.582   4.031
13741W        W86056  22.161   3.002   0.807
13742W        W86057  28.473  14.242   0.239
13743W        W86058  34.734  27.591  14.547
13744W        W86059  12.418  31.157   2.880
13745W        W86060   0.882  14.581  10.444
13746W        W86061  30.571  24.436  11.984
13747W        W86062  39.004  40.857   1.884
13748W        W86063  41.586  14.700  11.155
13749W        W86064  39.486  33.203  11.628
13750W        W86065   8.228   4.961  10.937
13751W        W86066  15.154  39.157  14.815
13752W        W86067   6.152   8.087   0.462
13753W        W86068  36.957  13.068   4.865
13754W        W86069  38.692  20.739   9.819
13755W        W86070   1.553   9.519   4.963
13756W        W86071   2.601  26.143  14.250
13757W        W86072   1.467  16.712  14.191
13758W        W86073  27.303  34.672  10.238
13759W        W86074  42.418   8.690   1.792
13760W        W86075  42.383   6.194  12.047
13761W        W86076  13.788  15.837   2.683
13762W        W86077  29.582   6.127   0.308
13763W        W86078  27.662   5.818   5.078
13764W        W86079  35.857  35.911   3.829
13765W        W86080   9.640  30.070   4.674
13766W        W86081  24.990  32.173   3.775
13767W        W86082  11.827   8.132  11.594
13768W        W86083  30.025  30.604   4.082
13769W        W86084   2.215  17.719   1.764
13770W        W86085   4.720  11.111  10.519
13771W        W86086  12.305  41.266   2.701
13772W        W86087  13.829  14.724  12.209
13773W        W86088   7.543  17.806  12.805
13774W        W86089  21.949  27.438   2.285
13775W        W86090  41.248  32.021   2.216
13776W        W86091   6.279  21.408   2.168
13777W        W86092  20.790   5.929  11.754
13778W        W86093  32.833  41.689  11.056
13779W        W86094   2.015  27.942  12.469
13780W        W86095  14.501  22.872  11.558
13781W        W86096  37.072  28.699   4.172
13782W        W86097  31.990  14.222  13.097
13783W        W86098  23.483  34.657  14.909
13784W        W86099  39.686  22.563  11.677
13785W        W86100   8.669  44.703   4.109
13786W        W86101  20.783  44.869  11.988
13787W        W86102  35.147  18.868  12.829
13788W        W86103   9.905  17.772   4.007
13789W        W86104  43.893  27.138  11.908
13790W        W86105   6.903  41.120  10.645
13791W        W86106   8.913  32.611   1.762
13792W        W86107  30.104  42.813   1.258
13793W        W86108  34.515  22.105  12.895
13794W        W86109  23.670  44.422  10.184
13795W        W86110  23.277  43.323  11.829
13796W        W86111  22.198   7.229  11.700
13797W        W86112  16.871  39.941  11.105
13798W        W86113  11.336  42.956   1.346
13799W        W86114  42.626  25.323   2.760
13800W        W86115  29.445  27.559   4.097
13801W        W86116   9.775   6.386  13.420
13802W        W86117  19.163  32.203   3.577
13803W        W86118  43.468  27.085  11.602
13804W        W86119  36.123  36.577  11.985
13805W        W86120  20.757   6.225   0.468
13806W        W86121  16.141  22.583   3.373
13807W        W86122  12.415  26.598  12.541
13808W        W86123  27.618  10.176   4.104
13809W        W86124  26.727  26.839   1.710
13810W        W86125  12.266  14.284   1.223
13811W        W86126  31.680   5.886  13.655
13812W        W86127  11.203  23.069   2.826
13813W        W86128   8.189  20.846   0.733
13814W        W86129  44.499  26.054   2.360
13815W        W86130  25.731  34.540   0.424
13816W        W86131  39.494  42.203  11.452
13817W        W86132  33.665  18.537  12.935
13818W        W86133  12.390  24.947  13.328
13819W        W86134   7.451   4.784  11.522
13820W        W86135  30.850  36.991   3.661
13821W        W86136  11.204  32.489  13.868
13822W        W86137  24.771  31.236   4.081
13823W        W86138  31.886  15.160   4.808
13824W        W86139  31.159  16.342  11.728
13825W        W86140  22.593  25.385   0.032
13826W        W86141  44.686   9.200  12.301
13827W        W86142  35.454   8.113  12.613
13828W        W86143   7.508  19.378  14.815
13829W        W86144   7.582  13.661  12.910
13830W        W86145  14.165  30.109   4.187
13831W        W86146   5.049  17.032   2.212
13832W        W86147  21.600  15.623  10.793
13833W        W86148   9.902  13.204   4.209
13834W        W86149  36.599  32.610   3.800
13835W        W86150   0.343  12.272   2.182
13836W        W86151  12.633  17.496   2.813
13837W        W86152  20.645  26.107   2.321
13838W        W86153  22.203  41.073  12.071
13839W        W86154  28.405  24.553  10.633
13840W        W86155  34.464  15.231  12.545
13841W        W86156  29.750  23.380   3.610
13842W        W86157  30.574  20.842  11.156
13843W        W86158  13.137  23.503  13.932
13844W        W86159   8.121  40.081  14.946
13845W        W86160  18.162  28.492   2.340
13846W        W86161  35.800  42.482  12.435
13847W        W86162  36.527  35.862  13.331
13848W        W86163  36.044  28.461   1.715
13849W        W86164  33.150  23.641   2.740
13850W        W86165  31.962  25.518  11.315
13851W        W86166   0.362  29.850   4.433
13852W        W86167  12.535  11.342  12.417
13853W        W86168  23.245   7.878   2.430
13854W        W86169  38.836  20.788   1.733
13855W        W86170  13.216  10.590   0.862
13856W        W86171  18.974  38.840   5.198
13857W        W86172   6.184  13.524  13.429
13858W        W86173  25.914  32.041  12.344
13859W        W86174  19.276  10.087   2.817
13860W        W86175  43.030  39.934  12.007
13861W        W86176  32.961  37.336   1.860
13862W        W86177  36.337  43.157   2.350
13863W        W86178  11.649  27.678   1.783
13864W        W86179  14.281  44.618  14.975
13865W        W86180  31.107  37.579   0.158
13866W        W86181  39.563  11.134   0.798
13867W        W86182  15.230  29.585  12.045
13868W        W86183  23.202  20.035   3.347
13869W        W86184  38.892  16.332  14.543
13870W        W86185  12.251  40.802  11.057
13871W        W86186  16.844   6.134  12.463
13872W        W86187  40.442  13.883  14.389
13873W        W86188  29.231   3.759  11.103
13874W        W86189  23.675  27.621   2.052
13875W        W86190   6.852   4.468   3.722
13876W        W86191   4.991   8.418  14.925
13877W        W86192  20.201   1.861   3.077
13878W        W86193  12.291  19.349   4.997
13879W        W86194  40.404  38.432   3.611
13880W        W86195  42.079  35.508   2.209
13881W        W86196  42.843   6.385  10.826
13882W        W86197  12.099  42.728  11.531
13883W        W86198  40.895   6.078   2.023
13884W        W86199  22.125  40.317   0.710
13885W        W86200  38.030   4.416  10.823
13886W        W86201   1.760  24.637  12.881
13887W        W86202  35.753  27.144   4.179
13888W        W86203  23.222  18.636   1.318
13889W        W86204   4.104  33.361  11.064
13890W        W86205  16.190   1.432   0.378
13891W        W86206  22.168  12.887   1.346
13892W        W86207  39.432   6.955  14.274
13893W        W86208  40.223  10.116   0.913
13894W        W86209  21.550  34.874  10.704
13895W        W86210  21.989  25.817   4.730
13896W        W86211  41.908  32.865   3.665
13897W        W86212   4.683  24.256  11.472
13898W        W86213   2.758   3.671  11.920
13899W        W86214   3.257   6.203   1.433
13900W        W86215  31.402  17.132  12.903
13901W        W86216  16.493  38.364   0.316
13902W        W86217  36.012  28.416  11.848
13903W        W86218  28.803  18.077   4.616
13904W        W86219  12.040  37.592  11.938
13905W        W86220  31.385   8.572  11.973
13906W        W86221  16.766   9.694   5.035
13907W        W86222  31.103  25.671   4.846
13908W        W86223  13.414  19.993   4.966
13909W        W86224  32.964  12.886  10.319
13910W        W86225   6.027  34.901   0.917
13911W        W86226   2.721  42.763   3.392
13912W        W86227  29.540  42.241  12.063
13913W        W86228  14.331   2.494  14.499
13914W        W86229  37.111  35.873   3.850
13915W        W86230  31.823   6.926  13.049
13916W        W86231   8.932   7.362  14.899
13917W        W86232  24.085  23.506  12.408
13918W        W86233   2.760  25.476  11.828
13919W        W86234   5.613  21.117  14.628
13920W        W86235  21.166  36.980  13.339
13921W        W86236   8.119  21.709  10.989
13922W        W86237   8.448   1.142  13.594
13923W        W86238  25.181  12.379   4.064
13924W        W86239  37.126  32.315  11.682
13925W        W86240  20.850  36.548  14.873
13926W        W86241  32.301  26.844   0.935
13927W        W86242  44.706  35.803  12.889
13928W        W86243   3.288  17.286  11.105
13929W        W86244  20.114  34.786   0.694
13930W        W86245   0.020   8.831  11.026
13931W        W86246  20.716  43.770  12.435
13932W        W86247   2.191  31.021   2.311
13933W        W86248  37.832  10.289   3.590
13934W        W86249  21.798  21.299  13.400
13935W        W86250   7.275  12.963   1.192
13936W        W86251  25.883   8.707   5.030
13937W        W86252  30.909  40.291  13.872
13938W        W86253  20.717   8.222  12.852
13939W        W86254  39.291  31.924   3.907
13940W        W86255  37.282  21.303   2.716
13941W        W86256  22.963  39.352   2.326
13942W        W86257   9.760  33.057   4.579
13943W        W86258   2.958   4.289  13.918
13944W        W86259   4.914  20.121  11.494
13945W        W86260   0.793  12.707   1.910
13946W        W86261  12.240  18.393   0.001
13947W        W86262  37.952  23.700   4.639
13948W        W86263  10.676  18.606   9.857
13949W        W86264  24.405  37.054  14.428
13950W        W86265  16.507   5.733   4.603
13951W        W86266  36.863  28.407  12.952
13952W        W86267  43.570  21.553   4.882
13953W        W86268   3.185   3.296   3.653
13954W        W86269  21.290  25.674   1.308
13955W        W86270  16.688   7.459  14.609
13956W        W86271   7.751  43.002  13.403
13957W        W86272   7.453  27.433  12.075
13958W        W86273  14.857  44.814   1.285
13959W        W86274  29.593  19.066  14.739
13960W        W86275  41.979  26.960  11.963
13961W        W86276  16.270  15.561  10.692
13962W        W86277  24.752   2.921   0.696
13963W        W86278   4.425  10.409   2.407
13964W        W86279  28.809   0.566   4.492
13965W        W86280  16.302   6.078  10.393
13966W        W86281  13.043  42.045   1.846
13967W        W86282  38.074  43.927   0.714
13968W        W86283   6.179   3.292  10.846
13969W        W86284  23.990   4.932   4.630
13970W        W86285  33.986   8.207  12.461
13971W        W86286  38.353  30.196   0.373
13972W        W86287  17.624  41.924   9.808
13973W        W86288  17.557   8.267  11.575
13974W        W86289  44.840   1.218   3.186
13975W        W86290  18.875  24.902  12.526
13976W        W86291  13.164  16.399   1.353
13977W        W86292  10.760  17.039  13.825
13978W        W86293  16.239  16.187  11.886
13979W        W86294  14.817  41.417   0.333
13980W        W86295  23.244   6.304   4.617
13981W        W86296  33.658  42.780   2.005
13982W        W86297  20.193  23.443  14.094
13983W        W86298  16.361  10.897  12.058
13984W        W86299  37.741   7.449  14.940
13985W        W86300   9.838  41.189   2.368
13986W        W86301  21.583  17.115  11.013
13987W        W86302   4.694   0.384  12.155
13988W        W86303  13.647  19.229  14.934
13989W        W86304   0.989  19.503  12.984
13990W        W86305   7.883  21.177  13.832
13991W        W86306  15.284  13.216   2.796
13992W        W86307  25.658   2.122  12.043
13993W        W86308  42.890  20.839  14.803
13994W        W86309  17.537  33.996   4.586
13995W        W86310  34.079  32.259  11.578
13996W        W86311  37.008  28.399   2.247
13997W        W86312  23.716  12.819  12.585
13998W        W86313  23.685  20.032   3.618
13999W        W86314  11.395   0.077  14.356
14000W        W86315  34.660  27.113  13.777
14001W        W86316  43.921   2.173   0.897
14002W        W86317   5.767  40.538   1.363
14003W        W86318  38.128  16.323   5.020
14004W        W86319  22.292  33.967   1.107
14005W        W86320   4.684  10.742   1.210
14006W        W86321  17.700   2.745  12.945
14007W        W86322   8.921  28.542   0.303
14008W        W86323   3.726  36.117   1.883
14009W        W86324  11.675  40.539  10.832
14010W        W86325  38.853  30.510  12.136
14011W        W86326  37.458  37.855  14.814
14012W        W86327  22.223  10.570  12.453
14013W        W86328  17.890   5.789   1.428
14014W        W86329  32.236   4.877  14.509
14015W        W86330  10.517   0.113   2.658
14016W        W86331  22.840   7.819   4.594
14017W        W86332  41.932   9.380   4.603
14018W        W86333  17.345  13.293  13.298
14019W        W86334  34.465  13.155   2.218
14020W        W86335  15.868  37.552   2.922
14021W        W86336  10.027  30.251  14.058
14022W        W86337   2.379  23.726   0.392
14023W        W86338  26.974  33.909   0.013
14024W        W86339  31.101   3.893   4.484
14025W        W86340  39.776  16.587   0.853
14026W        W86341  11.271  31.377  11.614
14027W        W86342  24.593  39.998  10.538
14028W        W86343  21.336  27.610   0.279
14029W        W86344  25.147  17.590   4.753
14030W        W86345  23.128  23.313   0.911
14031W        W86346  24.942  37.458   1.666
14032W        W86347  35.421  13.604  13.519
14033W        W86348   2.937  35.781   3.100
14034W        W86349  10.903  18.692  12.551
14035W        W86350  32.861  23.331  13.082
14036W        W86351  15.831  36.667   1.774
14037W        W86352  44.246  32.867  13.886
14038W        W86353   9.784  26.708  11.231
14039W        W86354  19.917  38.474   2.162
14040W        W86355   8.104   0.904   1.310
14041W        W86356  19.595   7.962  13.939
14042W        W86357  32.054   7.027  14.012
14043W        W86358  12.108  25.056  14.236
14044W        W86359  17.538   9.135  10.396
14045W        W86360   2.521  22.149   1.697
14046W        W86361  24.641  44.837  13.082
14047W        W86362  41.608   1.323   1.809
14048W        W86363  42.004  26.618  13.888
14049W        W86364  11.892  28.148   1.861
14050W        W86365   7.813  40.132   0.367
14051W        W86366  42.775   5.495  11.135
14052W        W86367  41.983  40.719   4.214
14053W        W86368   3.042   5.190   2.239
14054W        W86369  24.705  25.438  12.291
14055W        W86370  35.657  20.529   2.131
14056W        W86371  43.299   3.205   3.698
14057W        W86372   9.200  31.021   3.210
14058W        W86373  38.928  25.013  14.499
14059W        W86374  26.830  36.906  13.485
14060W        W86375  38.531   0.498  11.907
14061W        W86376   1.765   2.692   4.621
14062W        W86377  31.650   4.282   2.896
14063W        W86378  10.808  44.511   4.673
14064W        W86379  42.430  41.461  11.382
14065W        W86380  36.070  23.575   4.278
14066W        W86381  18.240   7.387  12.057
14067W        W86382   6.442  43.915  10.474
14068W        W86383  15.831   6.840   2.787
14069W        W86384  22.056  20.883   4.974
14070W        W86385  42.496  23.904  11.796
14071W        W86386  37.355  28.267   3.328
14072W        W86387  41.916  42.674  14.109
14073W        W86388  36.448  38.803  11.689
14074W        W86389  27.433  27.868   3.599
14075W        W86390  38.216  10.065   2.812
14076W        W86391  29.646  19.630  13.982
14077W        W86392   5.666   3.420  13.362
14078W        W86393  38.868  21.471   0.370
14079W        W86394  34.022  38.978   0.857
14080W        W86395   0.685  26.412   5.281
14081W        W86396   8.211  26.634  14.924
14082W        W86397  36.363  43.608   1.427
14083W        W86398  37.928  15.688  11.906
14084W        W86399  42.992  12.525   4.074
14085W        W86400  11.976   6.331  12.839
14086W        W86401  12.269  31.894   4.625
14087W        W86402  24.746  42.827  12.048
14088W        W86403  26.427  31.297  12.309
14089W        W86404  13.361  12.190   4.580
14090W        W86405  15.631  21.886   2.779
14091W        W86406   6.245   3.845  11.644
14092W        W86407  16.341   5.458  14.942
14093W        W86408  15.578  42.223   5.065
14094W        W86409  15.587  17.850  12.024
14095W        W86410  26.973  20.062  10.603
14096W        W86411  10.093  44.620  13.859
14097W        W86412  28.625  21.561  10.422
14098W        W86413   1.044  20.108   1.148
14099W        W86414   1.373  43.300  14.762
14100W        W86415  31.358  15.808  11.948
14101W        W86416   3.383   6.222   4.620
14102W        W86417  25.478  28.715   1.159
14103W        W86418   7.313  15.232   2.245
14104W        W86419  43.400  24.084  11.300
14105W        W86420  17.241  19.615   0.772
14106W        W86421  18.287  39.936   4.126
14107W        W86422  10.515  13.940  14.506
14108W        W86423  11.446  31.681  12.479
14109W        W86424  16.094  40.904  11.627
14110W        W86425   5.087   9.453  11.483
14111W        W86426   6.290  28.523   4.588
14112W        W86427  25.662  13.353   4.669
14113W        W86428   8.660   3.309   1.293
14114W        W86429  43.307  13.711   4.467
14115W        W86430   6.657  40.291  14.819
14116W        W86431  43.876  32.794   3.738
14117W        W86432  27.572  38.640   3.303
14118W        W86433  10.271  24.040  12.897
14119W        W86434  37.992  19.390   2.837
14120W        W86435  14.555  42.500   0.783
14121W        W86436  42.899   9.650  14.001
14122W        W86437  37.770  32.073   3.137
14123W        W86438   5.300  28.260   1.693
14124W        W86439   8.641   3.273  10.590
14125W        W86440  29.264   7.592  13.740
14126W        W86441  44.467  17.170   2.197
14127W        W86442  41.844   8.770  10.706
14128W        W86443  44.010  16.600   3.329
14129W        W86444   3.696  21.047   0.905
14130W        W86445   9.022  29.259   9.959
14131W        W86446  18.842  25.742   1.404
14132W        W86447  33.538  19.799   0.807
14133W        W86448  15.119  39.249   1.133
14134W        W86449  22.693  32.051   1.856
14135W        W86450  36.899  32.811  11.736
14136W        W86451  19.350   1.230   0.542
14137W        W86452  27.465  39.234   1.471
14138W        W86453   0.811  12.214  11.133
14139W        W86454  35.608   0.770  12.515
14140W        W86455  17.721  11.856   3.781
14141W        W86456  25.530  36.801  13.123
14142W        W86457  15.223  15.109   1.820
14143W        W86458  18.845  39.423   1.362
14144W        W86459  30.442  32.940  14.516
14145W        W86460  15.009  39.321   4.600
14146W        W86461  40.113  13.743  14.804
14147W        W86462  25.435  36.037   1.333
14148W        W86463   9.614   0.839  14.439
14149W        W86464  28.452  21.905  13.991
14150W        W86465  42.330  20.003  11.086
14151W        W86466   8.402  15.672   0.449
14152W        W86467  28.945  41.843  11.611
14153W        W86468   7.188  43.461   3.457
14154W        W86469   2.275  25.296  11.998
14155W        W86470   6.859   0.830   0.839
14156W        W86471  26.000  12.336  14.099
14157W        W86472   1.805  18.118  11.992
14158W        W86473  21.943  10.550   0.988
14159W        W86474  23.572   7.355   3.219
14160W        W86475  34.013  32.007  13.065
14161W        W86476  13.058   0.924   3.349
14162W        W86477   0.390  18.089   2.790
14163W        W86478  39.370  29.699   2.909
14164W        W86479  11.231  33.055  12.703
14165W        W86480  12.220  31.596  10.660
14166W        W86481  41.860  28.648  13.559
14167W        W86482  39.806  30.549  13.867
14168W        W86483  39.025   1.524  14.277
14169W        W86484   3.036   8.864   4.471
14170W        W86485  11.068   0.402  13.406
14171W        W86486   6.685  34.743   4.086
14172W        W86487  42.305  32.628   4.419
14173W        W86488  40.289  27.500  12.608
14174W        W86489  12.963  15.112  12.884
14175W        W86490  27.009  29.159  14.157
14176W        W86491  12.318   0.452   0.956
14177W        W86492  20.264  32.514   2.252
14178W        W86493  37.123  31.072  13.031
14179W        W86494   5.651  24.295   3.342
14180W        W86495  40.358  21.728  11.575
14181W        W86496   0.946  11.724  14.301
14182W        W86497   2.853   5.350   1.336
14183W        W86498  23.939   0.416  11.991
14184W        W86499  40.089  31.985  13.985
14185W        W86500  22.636  38.420   4.636
14186W        W86501  44.067  23.474   1.644
14187W        W86502   5.476  41.272   3.963
14188W        W86503  33.894  26.652   4.095
14189W        W86504  37.932  18.639   0.573
14190W        W86505  23.109  21.888  13.392
14191W        W86506  34.327   5.117   0.972
14192W        W86507  27.793  19.659   0.304
14193W        W86508  15.315  29.037   3.577
14194W        W86509   5.378  26.480   4.611
14195W        W86510  34.174  39.791  13.094
14196W        W86511   2.890  24.933   4.467
14197W        W86512   9.419  37.568  13.535
14198W        W86513  28.293  23.988   1.908
14199W        W86514  12.384  26.616   1.317
14200W        W86515  33.099  25.078  14.739
14201W        W86516  41.775  10.249  12.653
14202W        W86517   5.945   2.835  14.547
14203W        W86518  32.885  37.843  11.488
14204W        W86519  38.510   0.564  14.570
14205W        W86520   9.217  11.712  13.602
14206W        W86521  38.432   1.448   2.088
14207W        W86522  32.158   0.219  12.131
14208W        W86523  35.911  36.540  10.731
14209W        W86524  18.993  13.926   1.600
14210W        W86525  33.752  12.808   3.642
14211W        W86526  14.158  12.741   3.368
14212W        W86527   3.538  44.344   3.306
14213W        W86528  44.620  34.886  10.311
14214W        W86529   4.824   8.325   0.789
14215W        W86530   6.280   8.649   1.922
14216W        W86531  19.144   2.792  14.360
14217W        W86532  42.993   4.210  11.174
14218W        W86533  37.997  31.551   4.088
14219W        W86534  39.738  21.650  13.782
14220W        W86535   3.883  12.337  11.527
14221W        W86536  21.449  22.191  13.087
14222W        W86537   3.750   4.382   3.586
14223W        W86538  20.640  19.004  12.420
14224W        W86539  29.687  21.789   1.297
14225W        W86540  42.570  18.453  12.882
14226W        W86541  15.901  22.228   3.043
14227W        W86542  17.026  40.021   4.971
14228W        W86543  11.791  28.119   2.848
14229W        W86544  13.353  18.793   1.885
14230W        W86545  36.064  29.889   1.841
14231W        W86546  41.421  25.798   2.486
14232W        W86547  26.009  25.469  12.055
14233W        W86548   5.483   7.818  14.842
14234W        W86549  22.183  36.951  10.608
14235W        W86550   0.405  14.585  13.564
14236W        W86551  19.868   7.777   0.364
14237W        W86552  23.445   7.914  10.715
14238W        W86553   1.372  40.251   3.159
14239W        W86554  36.690   1.196  13.394
14240W        W86555  28.160  29.018   1.655
14241W        W86556  42.874  26.989   1.334
14242W        W86557  35.062  12.675  11.274
14243W        W86558   6.038  36.047  13.328
14244W        W86559  44.755   9.148   3.376
14245W        W86560   0.744   0.967  13.479
14246W        W86561  31.564  40.230  10.306
14247W        W86562  16.025  17.313   3.262
14248W        W86563  21.880   6.185   1.158
14249W        W86564  42.423  25.612   2.176
14250W        W86565   8.422  12.821   0.843
14251W        W86566  30.881  31.565   2.665
14252W        W86567   8.208   7.793  12.014
14253W        W86568  39.894   2.002  12.587
14254W        W86569  25.157  30.106   1.857
14255W        W86570  27.674  12.183   3.640
14256W        W86571  18.593  28.457   4.061
14257W        W86572  30.957  44.733   2.420
14258W        W86573  33.803  32.618   3.155
14259W        W86574  25.458  30.156   4.781
14260W        W86575  11.892  40.552  13.051
14261W        W86576  21.095  26.483   3.345
14262W        W86577   7.406  27.630   1.484
14263W        W86578  22.104  20.549  12.603
14264W        W86579  22.806  18.648   4.046
14265W        W86580  32.328  44.541  10.952
14266W        W86581  29.849  19.973  10.380
14267W        W86582  14.342   6.217  14.319
14268W        W86583  30.627  37.587   3.371
14269W        W86584   1.601  16.310  13.162
14270W        W86585   6.870  33.995  11.159
14271W        W86586  37.324   7.924   2.738
14272W        W86587   8.677  25.063  10.727
14273W        W86588   1.406   6.990  13.773
14274W        W86589  15.209   4.161  13.623
14275W        W86590  21.258   7.427  11.321
14276W        W86591  23.028  27.976   0.931
14277W        W86592  32.022   8.100  11.319
14278W        W86593  10.802   1.886   3.072
14279W        W86594   1.611  38.130  14.005
14280W        W86595  35.404  36.420  10.642
14281W        W86596  39.292   3.126   4.108
14282W        W86597  11.087   7.856  12.859
14283W        W86598   3.834  18.065   3.241
14284W        W86599   6.127  27.959  14.850
14285W        W86600  16.265  20.811   3.799
14286W        W86601  21.629  33.508  11.071
14287W        W86602   3.179   7.709  14.483
14288W        W86603  35.165  26.826  12.366
14289W        W86604  30.864  21.545   0.812
14290W        W86605   7.005  12.271  13.588
14291W        W86606  20.915  15.732   2.848
14292W        W86607  13.621  26.202  13.092
14293W        W86608  43.425  39.310   4.575
14294W        W86609  31.649  33.007   4.406
14295W        W86610   6.457   6.315  14.961
14296W        W86611  13.200   5.401  14.391
14297W        W86612   9.080  35.882  13.596
14298W        W86613   0.188   6.343  11.670
14299W        W86614   6.700  12.237   4.862
14300W        W86615  23.445  22.056  12.921
14301W        W86616  25.918   7.943   3.847
14302W        W86617  32.168  27.789  12.187
14303W        W86618  33.459   0.909   2.437
14304W        W86619  39.885  12.469  13.336
14305W        W86620  21.835  36.204  11.116
14306W        W86621  32.379  32.124  10.662
14307W        W86622  44.737  32.702  13.874
14308W        W86623  19.128  31.547  10.973
14309W        W86624  40.056   2.828  12.998
14310W        W86625   1.831  16.042  13.588
14311W        W86626  39.210  33.343  12.896
14312W        W86627   8.095  23.759  14.211
14313W        W86628   2.714  10.422  11.084
14314W        W86629  36.576  16.671  13.458
14315W        W86630  14.126  12.986  12.470
14316W        W86631  14.336  26.326   0.874
14317W        W86632  28.662   0.982   0.894
14318W        W86633  35.345   7.644   4.566
14319W        W86634  22.152  12.377   2.975
14320W        W86635  15.597  40.346  11.078
14321W        W86636  28.665  21.555   2.290
14322W        W86637  23.116  33.663  12.482
14323W        W86638   0.247  10.397   1.020
14324W        W86639  10.636  20.946   1.658
14325W        W86640   9.346  34.767   0.598
14326W        W86641  41.698   8.108   4.105
14327W        W86642  28.384  40.246   3.694
14328W        W86643   9.737  26.156  13.673
14329W        W86644   4.922  27.960   4.668
14330W        W86645  11.098  31.116  13.027
14331W        W86646   1.465  36.917   2.804
14332W        W86647  42.325  35.851  13.042
14333W        W86648  19.220  11.734  10.194
14334W        W86649  26.719  21.385  11.462
14335W        W86650   6.605  30.438   4.422
14336W        W86651  40.400  44.523  13.304
14337W        W86652  17.514   2.077   2.210
14338W        W86653  42.965  38.740   1.885
14339W        W86654   4.452   5.362   1.221
14340W        W86655  28.133  24.964  10.850
14341W        W86656  38.807  29.569  13.604
14342W        W86657  34.268   2.866   0.120
14343W        W86658  24.301  10.267   3.015
14344W        W86659  12.022   2.855   4.253
14345W        W86660  43.396  28.077   5.025
14346W        W86661  20.307  12.690   4.635
14347W        W86662  18.110   6.796   1.077
14348W        W86663  12.425  12.874  11.584
14349W        W86664  22.842  26.645  14.922
14350W        W86665   1.729  29.515   0.193
14351W        W86666  35.440   7.345  13.749
14352W        W86667   1.260  11.248  13.594
14353W        W86668  21.504  35.043  12.700
14354W        W86669   9.881  33.844   0.303
14355W        W86670   9.710  34.930  11.886
14356W        W86671  27.608   8.391  14.989
14357W        W86672  29.009  35.489   0.747
14358W        W86673  20.959  28.612   3.674
14359W        W86674  22.395  39.868   4.156
14360W        W86675  41.969  13.712  10.418
14361W        W86676  17.679  12.700  12.587
14362W        W86677  15.662  33.630  10.412
14363W        W86678  18.398  20.110   3.625
14364W        W86679  36.882  18.662   3.217
14365W        W86680  22.022  31.610   4.257
14366W        W86681   0.789  28.688  12.522
14367W        W86682  14.334  15.276   3.199
14368W        W86683  40.874  33.425  14.826
14369W        W86684  27.487   1.739   0.305
14370W        W86685  17.351  35.500   3.535
14371W        W86686  32.047   7.471   0.729
14372W        W86687  21.972  22.991  10.714
14373W        W86688  23.100  26.198   4.490
14374W        W86689  19.094  22.915  14.959
14375W        W86690  42.065  17.077  14.897
14376W        W86691  42.502  39.589   1.815
14377W        W86692  10.721  25.181  10.772
14378W        W86693   6.320  19.748  11.591
14379W        W86694   6.859   1.919  13.776
14380W        W86695  41.275  40.866   0.235
14381W        W86696  18.076  26.362   1.841
14382W        W86697  29.705  30.486   5.028
14383W        W86698  23.042  40.103   0.990
14384W        W86699   5.884   6.980  10.745
14385W        W86700  23.449  20.820   4.648
14386W        W86701  25.987  16.514   1.640
14387W        W86702   2.329  24.339   4.799
14388W        W86703   2.715   7.757  10.774
14389W        W86704  42.335  28.464   3.721
14390W        W86705  40.909  18.382  11.823
14391W        W86706  27.758   9.880  12.042
14392W        W86707  16.838  42.186   0.457
14393W        W86708   0.727  16.014   4.789
14394W        W86709  33.479  12.108  14.560
14395W        W86710  12.084  18.410   3.241
14396W        W86711  10.859  12.718   3.682
14397W        W86712  19.776  11.633  12.876
14398W        W86713  31.742  36.714  11.277
14399W        W86714  10.294  42.245   4.531
14400W        W86715   4.970  37.678   4.139
14401W        W86716  35.503  30.480  14.330
14402W        W86717   8.558  41.650   0.578
14403W        W86718  33.395  26.263   0.570
14404W        W86719  20.692  29.866  13.046
14405W        W86720  12.369  20.138   3.541
14406W        W86721  25.947  18.704   4.193
14407W        W86722  24.060   2.477   0.523
14408W        W86723  33.151  19.062   1.712
14409W        W86724   8.834  36.984  12.668
14410W        W86725  17.217  35.628   3.046
14411W        W86726  34.640   5.685  11.363
14412W        W86727  40.634   2.195  11.562
14413W        W86728  19.972  41.476   1.852
14414W        W86729  33.611  25.070  11.062
14415W        W86730  12.101  15.901  14.997
14416W        W86731   0.013  43.771  11.228
14417W        W86732  35.236   6.731   4.032
14418W        W86733   8.154  18.733   3.681
14419W        W86734   2.391  32.889   2.728
14420W        W86735   3.412  42.812  12.036
14421W        W86736  32.809  15.611   2.963
14422W        W86737  18.831   9.733  14.274
14423W        W86738   8.699   5.389   3.623
14424W        W86739  10.694  42.983   4.646
14425W        W86740  36.013  15.580   1.856
14426W        W86741  39.405  14.859  13.589
14427W        W86742  44.877  40.137   3.795
14428W        W86743  38.842  44.738  12.702
14429W        W86744  16.673  12.406  12.856
14430W        W86745   2.383  32.526  11.456
14431W        W86746  15.977   9.723   3.964
14432W        W86747   8.741  35.414   3.916
14433W        W86748  18.038  40.558   3.207
14434W        W86749  42.318  42.810   0.918
14435W        W86750  22.650  20.858   1.296
14436W        W86751  17.558  28.634  10.542
14437W        W86752  22.263  27.045   2.179
14438W        W86753  38.758  17.204  11.098
14439W        W86754  35.872  19.259   0.261
14440W        W86755   2.916  40.461   3.263
14441W        W86756  12.116  44.471   1.326
14442W        W86757  40.686  17.592  12.449
14443W        W86758  37.132  39.849   0.961
14444W        W86759   5.318   4.443  14.944
14445W        W86760  22.221   3.891   0.940
14446W        W86761  41.413  36.128  10.722
14447W        W86762  21.607  40.127   0.696
14448W        W86763  37.450  26.581  14.200
14449W        W86764  36.563  37.884   2.508
14450W        W86765  28.944  12.276  13.168
14451W        W86766  43.568   4.283   1.727
14452W        W86767   9.876   8.776  13.469
14453W        W86768   4.822  41.508   1.783
14454W        W86769   1.508  16.976  13.707
14455W        W86770  13.063   2.580   1.803
14456W        W86771  30.909  23.257  11.916
14457W        W86772   3.837  28.556   0.913
14458W        W86773  27.528  42.569   1.193
14459W        W86774  31.719  43.469   4.255
14460W        W86775  44.457  30.925  11.910
14461W        W86776  24.470  11.983  11.156
14462W        W86777  43.756   0.838   2.137
14463W        W86778  24.125  43.935  14.233
14464W        W86779   4.253  40.568  14.953
14465W        W86780  20.972  41.424  12.292
14466W        W86781  17.531  12.149   4.903
14467W        W86782  14.337  31.504  10.987
14468W        W86783  17.332  10.340   1.970
14469W        W86784  10.014  19.626  11.580
14470W        W86785  20.581   4.190  10.649
14471W        W86786  14.723  11.446  14.912
14472W        W86787  25.194  33.443   3.611
14473W        W86788   4.263  37.363   0.370
14474W        W86789  30.542  35.511  12.345
14475W        W86790  20.104   9.153   4.136
14476W        W86791  30.275  31.869  14.798
14477W        W86792  34.189  25.583   0.243
14478W        W86793   1.703  10.933  11.963
14479W        W86794  30.074  11.685   3.216
14480W        W86795  16.395  17.782   2.787
14481W        W86796  33.946  14.700   4.515
14482W        W86797   4.969  19.060  13.364
14483W        W86798   1.683  18.159  13.820
14484W        W86799  32.156   0.333   1.333
14485W        W86800   3.835   8.276  11.604
14486W        W86801  36.948  21.509  12.017
14487W        W86802  30.803  39.785  11.906
14488W        W86803  25.325  43.837  12.605
14489W        W86804  10.650  18.621   1.483
14490W        W86805   0.124  10.724  11.800
14491W        W86806  38.578   9.811  14.056
14492W        W86807  12.167  39.623   1.634
14493W        W86808  44.081   6.820   5.082
14494W        W86809  32.970  38.324  13.942
14495W        W86810  41.971  17.794   3.749
14496W        W86811  29.373  31.878   2.190
14497W        W86812  19.080  11.231  12.824
14498W        W86813   4.383  34.067   4.681
14499W        W86814  37.796  43.750   0.309
14500W        W86815  10.139  10.064  14.003
14501W        W86816  19.592  12.303   4.127
14502W        W86817  29.516   8.429  14.653
14503W        W86818  10.977  28.713  12.580
14504W        W86819  12.806  33.881  14.518
14505W        W86820  41.947  20.790  11.470
14506W        W86821  34.889  34.403   4.214
14507W        W86822   0.330  27.903   3.770
14508W        W86823  21.929  37.060  11.082
14509W        W86824   9.746   5.744   0.255
14510W        W86825   9.855  31.582   2.799
14511W        W86826  24.065   3.400  14.373
14512W        W86827  43.513  32.404   0.033
14513W        W86828  31.937  40.391  10.674
14514W        W86829  11.764  29.088  10.105
14515W        W86830  16.263  34.505   4.970
14516W        W86831  27.873   3.916   4.759
14517W        W86832  17.069  12.109   3.548
14518W        W86833  23.526  21.584  13.465
14519W        W86834  20.373  21.762  11.660
14520W        W86835  37.080  42.830   5.154
14521W        W86836  12.811  35.479  13.934
14522W        W86837  21.704  17.547  13.408
14523W        W86838  36.330  13.871  14.796
14524W        W86839  10.431  18.248  13.926
14525W        W86840  22.574  15.167  13.717
14526W        W86841  37.248  12.043   3.661
14527W        W86842   7.494  14.068   2.735
14528W        W86843  16.404  35.046   3.309
14529W        W86844  35.029  29.932   1.822
14530W        W86845   0.744   3.829   2.257
14531W        W86846  22.535  38.075  12.605
14532W        W86847  23.692  14.591  10.593
14533W        W86848   0.908  19.857  12.379
14534W        W86849  43.733  34.064   0.300
14535W        W86850   0.499  36.023   2.224
14536W        W86851  37.984   8.206   4.658
14537W        W86852  39.405  32.171  13.435
14538W        W86853  13.156  37.077  14.451
14539W        W86854  23.049  23.690  12.339
14540W        W86855  10.258  25.780   0.721
14541W        W86856  40.917  42.860  11.192
14542W        W86857  21.211  31.540   2.108
14543W        W86858  13.323  14.773   4.581
14544W        W86859  32.611  14.324  12.421
14545W        W86860  25.959  31.519  12.494
14546W        W86861  36.932  23.185  13.434
14547W        W86862  31.958   4.062   0.391
14548W        W86863  17.240  19.297   0.298
14549W        W86864  22.018  43.941  14.042
14550W        W86865   3.247  27.999  12.840
14551W        W86866  11.301  42.503  14.805
14552W        W86867   0.945  43.016   3.289
14553W        W86868  15.760   4.461   1.300
14554W        W86869  29.139  13.233  10.660
14555W        W86870  39.957   8.012  11.953
14556W        W86871  29.543  12.627   1.716
14557W        W86872  30.389  41.228  13.550
14558W        W86873  28.252   5.630  13.677
14559W        W86874  29.532  18.841   3.161
14560W        W86875  28.538  21.248  10.006
14561W        W86876  14.133  41.467  11.336
14562W        W86877  20.681  41.046   0.436
14563W        W86878  15.353   9.118  14.925
14564W        W86879  42.955  30.584  11.962
14565W        W86880   0.590   5.181   3.693
14566W        W86881   5.177  20.315  11.921
14567W        W86882  27.461  36.132   0.267
14568W        W86883  10.180  30.188  10.650
14569W        W86884  27.493  13.055  14.898
14570W        W86885  44.382   7.478  13.318
14571W        W86886   4.141  42.532  14.912
14572W        W86887  16.250  35.203  13.478
14573W        W86888   4.214  21.049   0.862
14574W        W86889  10.255   7.878   4.388
14575W        W86890  18.810   5.277   3.736
14576W        W86891  16.778   2.797  12.720
14577W        W86892  42.265  32.033   2.388
14578W        W86893  23.729  14.708   0.908
14579W        W86894  15.995  26.773   4.308
14580W        W86895  28.255  20.283  11.964
14581W        W86896  28.003  36.461  12.532
14582W        W86897  20.433  21.229  13.280
14583W        W86898  16.351  18.601   4.534
14584W        W86899  10.109  27.608   1.790
14585W        W86900  12.579  38.034  11.557
14586W        W86901   4.188  24.980   3.656
14587W        W86902  18.148  21.213   3.876
14588W        W86903   4.803   0.694   1.210
14589W        W86904  11.112  34.539  14.447
14590W        W86905  13.715  13.514  12.375
14591W        W86906  38.049  22.782  12.541
14592W        W86907  34.491  23.883   1.432
14593W        W86908   5.032   9.136   4.896
14594W        W86909   7.277  12.586   4.876
14595W        W86910  39.944  28.132  11.548
14596W        W86911  42.988  34.833   2.856
14597W        W86912   7.414  32.105   0.967
14598W        W86913  24.042  42.813   1.154
14599W        W86914   2.769  19.601  14.886
14600W        W86915  21.210  44.002   4.399
14601W        W86916  10.994  32.634   1.399
14602W        W86917   7.340   7.704  14.462
14603W        W86918  16.193   7.167  14.419
14604W        W86919  40.364   8.866  12.814
14605W        W86920  31.636   0.878   0.644
14606W        W86921  27.165  19.336  12.989
14607W        W86922   6.856  28.184  14.045
14608W        W86923  39.302  17.201   1.300
14609W        W86924  30.631  10.378  14.442
14610W        W86925  18.374  33.546  11.553
14611W        W86926  11.332   5.472  11.147
14612W        W86927  34.185   4.315   4.706
14613W        W86928  10.749  32.152   3.656
14614W        W86929  17.173   5.254   4.103
14615W        W86930  33.118  32.683   2.925
14616W        W86931  15.109  11.533   3.336
14617W        W86932  13.645  32.741   0.886
14618W        W86933  16.114   6.671   1.414
14619W        W86934   0.659  41.394   3.687
14620W        W86935  35.103  11.796  12.634
14621W        W86936  43.289   2.213  14.437
14622W        W86937   3.843   9.321  11.128
14623W        W86938  25.119  32.157  12.127
14624W        W86939   1.355  39.226   3.087
14625W        W86940  41.547  29.727  14.604
14626W        W86941  39.410  14.660  10.978
14627W        W86942  44.561   8.009   1.360
14628W        W86943   9.091  34.402   1.955
14629W        W86944  37.297  13.672  10.532
14630W        W86945  21.037   8.830  13.942
14631W        W86946  10.532  27.217  14.079
14632W        W86947  36.338   7.339   1.485
14633W        W86948   1.784   0.772   3.981
14634W        W86949  12.717  18.690  10.742
14635W        W86950  40.906  41.126  14.389
14636W        W86951  14.870  17.483   1.878
14637W        W86952  21.353  31.482  14.881
14638W        W86953   5.185  28.487   3.717
14639W        W86954  22.680  35.601   4.707
14640W        W86955  17.300   8.707   3.155
14641W        W86956  36.789  13.449   0.578
14642W        W86957  39.854   4.824  14.988
14643W        W86958   6.178  43.516   2.308
14644W        W86959  19.583  29.867   3.592
14645W        W86960  30.491   0.237   2.813
14646W        W86961   5.605  39.265  12.982
14647W        W86962  39.298  29.292  13.129
14648W        W86963   0.713  23.528  14.410
14649W        W86964  10.653  30.147   0.443
14650W        W86965  30.411   6.066  12.657
14651W        W86966  16.182  29.378   4.939
14652W        W86967   2.871   7.881   0.048
14653W        W86968  39.421  32.845  12.004
14654W        W86969  23.243  13.876  14.940
14655W        W86970  13.308  21.187  13.938
14656W        W86971  41.264  43.449  10.950
14657W        W86972   7.607   3.762   3.648
14658W        W86973   1.118  25.865   3.683
14659W        W86974  40.303  17.659   2.187
14660W        W86975  20.237  35.902  13.960
14661W        W86976  40.539  26.573  12.896
14662W        W86977  12.783  14.168  14.950
14663W        W86978  21.652   4.438  11.930
14664W        W86979  37.749  10.354  14.359
14665W        W86980   2.894  10.392  12.886
14666W        W86981   5.930  36.985  10.731
14667W        W86982   7.320  26.564  11.576
14668W        W86983  24.195  14.343  12.041
14669W        W86984   0.444  39.603  11.193
14670W        W86985  24.212  20.045  12.431
14671W        W86986  13.865   7.500  11.173
14672W        W86987  28.367  26.986  13.332
14673W        W86988  27.576  24.239  11.185
14674W        W86989  33.514  27.441   2.634
14675W        W86990  13.140  32.069   4.106
14676W        W86991  17.382  36.055  10.169
14677W        W86992   0.534  15.685  12.134
14678W        W86993  15.564  33.911   4.941
14679W        W86994   2.613   5.025  10.245
14680W        W86995  14.865  20.514  12.926
14681W        W86996   2.798  27.010  14.464
14682W        W86997  42.069  13.863   0.928
14683W        W86998   6.426  33.180   2.362
14684W        W86999  11.197  22.326   1.771
14685W        W87000  26.054   6.933  12.862
14686W        W87001   5.744  27.208   0.254
14687W        W87002  41.505   9.426   1.273
14688W        W87003  25.517  22.431  12.388
14689W        W87004  33.388  12.618  10.145
14690W        W87005   3.997  42.249   0.296
14691W        W87006  36.507   7.320   2.308
14692W        W87007  33.930   3.254  11.584
14693W        W87008   4.802  33.686   4.080
14694W        W87009  19.495  18.200  13.965
14695W        W87010  33.639  43.400  13.191
14696W        W87011  37.501  17.312   3.654
14697W        W87012   0.580  19.024   3.347
14698W        W87013  15.842  35.683  14.236
14699W        W87014  35.365  21.185  11.688
14700W        W87015   3.775  29.531  12.125
14701W        W87016  25.618  25.427   2.267
14702W        W87017  34.583   2.810   1.785
14703W        W87018  33.763   4.720  10.761
14704W        W87019  36.792  27.241   4.474
14705W        W87020  23.926  44.743  13.884
14706W        W87021  25.994  14.613   3.207
14707W        W87022  26.444  19.868   2.897
14708W        W87023  35.480   1.012   2.476
14709W        W87024  25.444  42.390   0.952
14710W        W87025  43.361   3.552  14.977
14711W        W87026  18.818  14.052  14.329
14712W        W87027  19.485  16.876   4.405
14713W        W87028  21.154  36.269   4.536
14714W        W87029  33.430   2.816   4.926
14715W        W87030   3.309  15.376   3.448
14716W        W87031  20.715  38.866  10.566
14717W        W87032   9.799  24.736   0.397
14718W        W87033  16.569   6.677   4.598
14719W        W87034  27.628  27.541  14.944
14720W        W87035  13.341  29.397   4.752
14721W        W87036  40.384  18.369   1.474
14722W        W87037  33.593   4.736   2.767
14723W        W87038  12.134  40.288   2.181
14724W        W87039  36.592  30.420  11.493
14725W        W87040   2.233  13.916  11.123
14726W        W87041  38.885  22.934   0.392
14727W        W87042  43.179  40.385   5.539
14728W        W87043  44.970  33.591   0.886
14729W        W87044   9.285  32.902  10.951
14730W        W87045  31.635  38.865   2.842
14731W        W87046   0.053  19.180   1.921
14732W        W87047  33.337  24.711  12.495
14733W        W87048  14.046  33.839   3.154
14734W        W87049  36.525  11.577   1.402
14735W        W87050  10.662  41.363   5.015
14736W        W87051  11.283   9.600   1.244
14737W        W87052   6.252  30.132  11.156
14738W        W87053  40.313  38.754   2.741
14739W        W87054  29.446   0.852  14.546
14740W        W87055  36.103  36.833   3.424
14741W        W87056   8.623  31.515  14.156
14742W        W87057  30.631  29.575   1.222
14743W        W87058  42.083   5.470  13.861
14744W        W87059  29.517  42.026   4.191
14745W        W87060  12.839  38.300   2.845
14746W        W87061   0.410  39.472  10.666
14747W        W87062   1.933  29.278  12.693
14748W        W87063  30.586  34.052  12.175
14749W        W87064  39.228  36.456   1.759
14750W        W87065  40.340  16.695   1.742
14751W        W87066  30.529  14.096   2.705
14752W        W87067  13.413   2.692  10.907
14753W        W87068  16.604  25.514  11.985
14754W        W87069  44.247  10.996  14.017
14755W        W87070   3.913  12.141  14.875
14756W        W87071  31.903   4.383   2.475
14757W        W87072  21.176  21.653   4.121
14758W        W87073  23.247  35.320  13.368
14759W        W87074  41.011  43.380   0.323
14760W        W87075  28.252   1.632  13.937
14761W        W87076   4.874  23.697  10.557
14762W        W87077  29.738   0.933   1.810
14763W        W87078  39.014  39.325  11.125
14764W        W87079   6.551  31.387   4.374
14765W        W87080  22.184   4.993   2.398
14766W        W87081  20.397  37.090  10.985
14767W        W87082  14.251  32.476  10.834
14768W        W87083   3.322  35.548   2.255
14769W        W87084   6.717  31.112   1.628
14770W        W87085  32.738  24.979  10.468
14771W        W87086  26.435  19.213   4.190
14772W        W87087   0.031  37.247  14.991
14773W        W87088   7.797   3.459   4.031
14774W        W87089  30.036  34.481   3.177
14775W        W87090  18.801  42.009   1.643
14776W        W87091  30.727  18.412   4.245
14777W        W87092  39.225  39.557  11.550
14778W        W87093  26.681   0.354  13.975
14779W        W87094  23.836  39.399  11.135
14780W        W87095   5.907  35.859  11.741
14781W        W87096  18.073   4.881   1.332
14782W        W87097  15.173  20.040   3.914
14783W        W87098   1.346  35.358  14.884
14784W        W87099  33.528  26.865   2.725
14785W        W87100   3.651  23.782  11.090
14786W        W87101  39.559  38.010  13.954
14787W        W87102  31.893   0.328   1.781
14788W        W87103  10.845  32.763  13.553
14789W        W87104  32.283  24.746  10.343
14790W        W87105   9.092  40.016  12.607
14791W        W87106  18.729  32.616   4.071
14792W        W87107  41.540  43.294  10.523
14793W        W87108  41.298  39.465   2.396
14794W        W87109  44.212  11.817  10.665
14795W        W87110   1.024   2.902   3.165
14796W        W87111  25.805  16.241  12.174
14797W        W87112  11.017   1.230  11.585
14798W        W87113  26.239  26.738   3.275
14799W        W87114  10.442  12.564  11.544
14800W        W87115  24.764  17.198  11.952
14801W        W87116  24.604  18.066   3.700
14802W        W87117   3.668  44.408  11.420
14803W        W87118  37.563  19.136   3.609
14804W        W87119  22.779  32.063   0.497
14805W        W87120  38.504  23.972  11.117
14806W        W87121  37.334  27.731   4.329
14807W        W87122  39.514  41.041   2.915
14808W        W87123  41.968   9.674  10.942
14809W        W87124  22.442  24.565  10.762
14810W        W87125  35.768  34.034   1.500
14811W        W87126   7.543  27.236  14.780
14812W        W87127  13.114   4.250   1.462
14813W        W87128  18.005  34.258   3.854
14814W        W87129  33.856  14.933  12.407
14815W        W87130  44.813  12.294   2.186
14816W        W87131   5.187  12.380   2.376
14817W        W87132   8.432  34.982   0.403
14818W        W87133  44.649  38.667  11.558
14819W        W87134   2.478  23.240   2.927
14820W        W87135   1.555  43.942  13.858
14821W        W87136  10.342   1.943  11.648
14822W        W87137  43.006  32.413   3.656
14823W        W87138  28.838  12.838  13.468
14824W        W87139   4.043  36.637   0.735
14825W        W87140  17.745  19.536  12.599
14826W        W87141   8.453   6.786  14.436
14827W        W87142  38.403  26.613  13.784
14828W        W87143  42.026   8.162  14.180
14829W        W87144  29.079  32.934   0.390
14830W        W87145   6.911   7.839  11.531
14831W        W87146  14.308  31.467   3.744
14832W        W87147  22.459  42.010  13.543
14833W        W87148  42.255   2.918  11.633
14834W        W87149  27.187  22.985   0.218
14835W        W87150  33.904   0.193  11.582
14836W        W87151  14.035  13.302   2.276
14837W        W87152   7.420  26.090   3.699
14838W        W87153  20.263  26.335   3.390
14839W        W87154   2.961  31.880   4.514
14840W        W87155  32.274   1.724  14.414
14841W        W87156   6.288  16.309  13.844
14842W        W87157   5.597  15.176  10.663
14843W        W87158  34.028  32.513   3.646
14844W        W87159  30.391  11.168  13.561
14845W        W87160  16.226   4.350   1.842
14846W        W87161  43.562  18.742  14.774
14847W        W87162  37.706  31.576   2.145
14848W        W87163  15.393  23.229   1.442
14849W        W87164  37.012  22.027  11.964
14850W        W87165  32.030  43.142   4.543
14851W        W87166   5.422  33.030   1.207
14852W        W87167  33.861   0.489  12.919
14853W        W87168  11.262  44.753   1.826
14854W        W87169  11.045  36.114   3.482
14855W        W87170   8.907  42.930   4.641
14856W        W87171  42.806  37.756   0.941
14857W        W87172  41.409  30.325   1.408
14858W        W87173  24.107   3.493   4.580
14859W        W87174   9.389  43.939   3.900
14860W        W87175  37.010  10.605   3.743
14861W        W87176  37.624  29.594  10.728
14862W        W87177  38.923  16.244   4.614
14863W        W87178  17.203  25.651   3.592
14864W        W87179  15.636  33.633  10.949
14865W        W87180  27.391  23.469  12.497
14866W        W87181  37.941  17.051   3.532
14867W        W87182  31.334  18.685   1.143
14868W        W87183   6.977  26.469  13.450
14869W        W87184  43.613  34.810   4.887
14870W        W87185  19.076  36.392   2.518
14871W        W87186  31.906  11.733   0.393
14872W        W87187  44.492  13.260   1.347
14873W        W87188   0.828  16.820   1.293
14874W        W87189  39.602   9.046   2.137
14875W        W87190   9.402   5.404   0.715
14876W        W87191  26.637   6.290  14.245
14877W        W87192  29.363  17.341   3.842
14878W        W87193   7.519  28.677   3.536
14879W        W87194   6.870  21.298   1.932
14880W        W87195   4.235  16.183  13.773
14881W        W87196  16.288  43.901   2.843
14882W        W87197  32.513  15.232   2.176
14883W        W87198  29.939   1.454   0.382
14884W        W87199  42.052  30.931  10.679
14885W        W87200   6.503  20.300  10.791
14886W        W87201  27.631   6.291   5.279
14887W        W87202  34.432  31.122  14.586
14888W        W87203  29.474  13.247   3.590
14889W        W87204   3.613   1.988   4.106
14890W        W87205  26.583   8.948   1.415
14891W        W87206  13.199  34.085   0.323
14892W        W87207  33.465  28.018   1.880
14893W        W87208  33.433  28.830   3.310
14894W        W87209  21.309   5.458   1.387
14895W        W87210  13.353  35.089  12.699
14896W        W87211  43.402  20.088  14.842
14897W        W87212  43.067  42.584   3.726
14898W        W87213  26.156  12.244  13.611
14899W        W87214  25.778  12.037   0.797
14900W        W87215  17.287  42.283  10.732
14901W        W87216  28.154  11.685  13.826
14902W        W87217  12.819   8.900   3.603
14903W        W87218   5.440  30.854  14.851
14904W        W87219  22.627  33.430  14.424
14905W        W87220  23.240  34.202  12.460
14906W        W87221  18.802  32.461   0.574
14907W        W87222  30.166   2.755  12.011
14908W        W87223  42.039  17.982  13.362
14909W        W87224  21.373  35.448  11.553
14910W        W87225  19.281  33.136   0.864
14911W        W87226  29.503  18.694   0.976
14912W        W87227   5.701  13.752  12.505
14913W        W87228  21.464  36.419  12.965
14914W        W87229  36.520  43.003  10.843
14915W        W87230  31.325  35.105   3.101
14916W        W87231   7.920  22.100  13.923
14917W        W87232  21.473  22.526   4.958
14918W        W87233  17.149  32.263   2.891
14919W        W87234  16.652  30.095   3.816
14920W        W87235   8.793  26.113  12.453
14921W        W87236  19.287  41.656   4.814
14922W        W87237  17.769  13.352   1.950
14923W        W87238   4.495   2.822  14.756
14924W        W87239  37.323  38.007  12.850
14925W        W87240   3.362  38.355   4.707
14926W        W87241  30.384  17.082  12.967
14927W        W87242  16.664   1.498   2.349
14928W        W87243   8.697  13.726   3.955
14929W        W87244   7.293  28.595  12.772
14930W        W87245   2.905  37.101   0.472
14931W        W87246  19.568  16.043  14.572
14932W        W87247  31.163  27.328  11.213
14933W        W87248   5.355   0.450   0.430
14934W        W87249  34.138  39.047   2.137
14935W        W87250   8.126  10.346   0.763
14936W        W87251   2.085  44.723  14.079
14937W        W87252   8.219   2.185   1.621
14938W        W87253  19.654  15.814  11.587
14939W        W87254  31.086  20.561  12.375
14940W        W87255  33.693  30.231  12.572
14941W        W87256  38.040  20.174   0.919
14942W        W87257  15.588  41.909  10.694
14943W        W87258  13.677  22.756   3.676
14944W        W87259   2.521  30.996   0.834
14945W        W87260  23.719  44.781   0.850
14946W        W87261   7.841   6.968   4.182
14947W        W87262  22.406   0.460   1.637
14948W        W87263  27.596  44.377  11.415
14949W        W87264  43.035  28.580  13.110
14950W        W87265  15.657  27.602  13.537
14951W        W87266  23.434  31.368  11.695
14952W        W87267   4.677   5.219  11.965
14953W        W87268  41.487  33.877   0.987
14954W        W87269  11.764  16.308  14.979
14955W        W87270  42.824  39.041  10.891
14956W        W87271  13.830  36.315  14.062
14957W        W87272  33.639  26.044   3.904
14958W        W87273  32.329  43.323   1.244
14959W        W87274   7.377  34.422   2.198
14960W        W87275  37.889   4.884  11.670
14961W        W87276  43.908  38.586  11.472
14962W        W87277   5.720  36.859  12.845
14963W        W87278  35.985  30.521  11.067
14964W        W87279  43.537  27.248   4.356
14965W        W87280  13.362   8.377   3.245
14966W        W87281  32.430  15.317  13.920
14967W        W87282  12.201  32.061  12.825
14968W        W87283  12.327   1.920  12.363
14969W        W87284   9.114  32.880   0.324
14970W        W87285  43.835  26.681   2.309
14971W        W87286  22.237  44.288  13.726
14972W        W87287  12.106  42.537  13.831
14973W        W87288  41.831  27.633   4.163
14974W        W87289  30.453  15.538  11.559
14975W        W87290  11.773  20.545   9.959
14976W        W87291  25.975   8.375   2.413
14977W        W87292  14.365   7.189  14.307
14978W        W87293  22.826  32.174  11.598
14979W        W87294  18.241  30.861  11.987
14980W        W87295  24.183  18.236   9.991
14981W        W87296  19.165   8.083  13.447
14982W        W87297  39.769  10.382   3.800
14983W        W87298   2.653   7.116  14.822
14984W        W87299  27.124   0.353  14.925
14985W        W87300  30.517  10.206  13.959
14986W        W87301  31.087  37.421   1.272
14987W        W87302  39.262  24.170   2.187
14988W        W87303  17.570  24.074   4.956
14989W        W87304   9.041  26.698   1.361
14990W        W87305  16.363   9.836   0.450
14991W        W87306  17.073  25.145  14.383
14992W        W87307  40.090   8.153  14.408
14993W        W87308   5.686   7.895  12.312
14994W        W87309  26.052  14.838   2.724
14995W        W87310  27.436   9.878   0.104
14996W        W87311  42.501  36.576  13.542
14997W        W87312  16.222  13.694   1.372
14998W        W87313  32.919  19.275  14.873
14999W        W87314   3.770  15.067   2.719
15000W        W87315   2.350   8.689   3.608
15001W        W87316   2.313   1.262  11.610
15002W        W87317  32.561  33.975   0.809
15003W        W87318  34.040   1.179   3.646
15004W        W87319  13.463  37.250  11.051
15005W        W87320  39.316  36.767  13.355
15006W        W87321  30.969   6.188   2.136
15007W        W87322   0.081  28.006  13.431
15008W        W87323  16.823  22.103   4.156
15009W        W87324  27.130  36.305  11.107
15010W        W87325  18.107  40.280   2.750
15011W        W87326  17.340  29.995   1.927
15012W        W87327  42.000  21.207   1.233
15013W        W87328   5.282  35.365   4.192
15014W        W87329   0.937  24.497   0.758
15015W        W87330  40.382  11.374   1.903
15016W        W87331  24.001  37.578   3.623
15017W        W87332  11.233   1.968  14.857
15018W        W87333  16.581  26.611  10.142
15019W        W87334   1.299  38.234   3.192
15020W        W87335  23.091  12.794  11.583
15021W        W87336  19.440  14.184   4.974
15022W        W87337  14.520  22.193   0.739
15023W        W87338   8.781  28.670  12.897
15024W        W87339  39.335  26.645   3.839
15025W        W87340  14.895  16.634   2.809
15026W        W87341  12.318  41.521   3.783
15027W        W87342  31.988  38.814  13.856
15028W        W87343   7.961  39.052  12.766
15029W        W87344  33.622  42.171   0.748
15030W        W87345  17.610   8.567   5.520
15031W        W87346  31.864  21.771   1.005
15032W        W87347  30.577  38.577   4.556
15033W        W87348  15.595  13.404  11.119
15034W        W87349   4.426   0.885  10.943
15035W        W87350  40.736  28.055   0.818
15036W        W87351  31.408  14.321  12.878
15037W        W87352  42.852  40.916   3.124
15038W        W87353   3.702  43.021   3.097
15039W        W87354  28.961  20.003   2.194
15040W        W87355  18.718   0.086  10.515
15041W        W87356  27.038  24.048  13.884
15042W        W87357  20.219  15.305   1.843
15043W        W87358   9.177  39.193  10.196
15044W        W87359   4.419  42.035   2.438
15045W        W87360  41.461  23.324  10.756
15046W        W87361  43.412  18.602  12.953
15047W        W87362   9.467  18.772  11.072
15048W        W87363   1.346   4.723  10.130
15049W        W87364   0.402  11.782  12.666
15050W        W87365  42.803   6.892   1.283
15051W        W87366  30.075  37.501   1.741
15052W        W87367  25.814  26.563  13.426
15053W        W87368  22.120  27.605  14.016
15054W        W87369  13.325  43.617   1.842
15055W        W87370  36.878  38.098  11.829
15056W        W87371   8.652  42.734  13.123
15057W        W87372  38.482  42.843   3.654
15058W        W87373  10.895   9.844  11.199
15059W        W87374  12.779  33.296   1.999
15060W        W87375  35.842  33.627  12.073
15061W        W87376  25.999   0.948  14.471
15062W        W87377  17.195  38.677   3.701
15063W        W87378  32.492   8.911  10.248
15064W        W87379  23.760  18.099   1.733
15065W        W87380  18.021  10.465   0.846
15066W        W87381   9.869  15.619   2.228
15067W        W87382  29.686  15.217   1.756
15068W        W87383  27.464  24.760  13.812
15069W        W87384  40.873  14.088   3.630
15070W        W87385  44.414  34.252   2.843
15071W        W87386  13.654  40.209  11.036
15072W        W87387   8.392  12.897  11.521
15073W        W87388  31.357  11.710  12.122
15074W        W87389  41.874  44.487   3.554
15075W        W87390  26.668  44.358  10.231
15076W        W87391  43.426   4.913  10.702
15077W        W87392  24.218  29.973  14.339
15078W        W87393  15.892  44.948  14.079
15079W        W87394  34.967  38.133  10.496
15080W        W87395  18.538  24.617  14.412
15081W        W87396  43.814  38.016  12.877
15082W        W87397  31.621  12.866   4.374
15083W        W87398  20.221  15.851  11.101
15084W        W87399   0.862  18.368  11.946
15085W        W87400  37.773  30.953   2.717
15086W        W87401  22.334  29.774  14.365
15087W        W87402  30.603  11.454   1.296
15088W        W87403   9.363   2.584   1.218
15089W        W87404  27.601  44.389  15.000
15090W        W87405  12.212   7.421   1.871
15091W        W87406  33.960  30.486  13.441
15092W        W87407  31.451  42.043  13.879
15093W        W87408  16.176   0.808   4.114
15094W        W87409  35.610   5.127   1.846
15095W        W87410  31.977  15.089  12.606
15096W        W87411  31.137  30.877   3.279
15097W        W87412  42.779  14.696  14.364
15098W        W87413   6.980  15.948  13.634
15099W        W87414   4.766  17.883   3.847
15100W        W87415   0.458  35.791  11.895
15101W        W87416  19.203   4.427  14.995
15102W        W87417  24.131  12.362   1.833
15103W        W87418  29.733  28.490  11.610
15104W        W87419  19.401  42.081   2.472
15105W        W87420  34.376  10.798  13.024
15106W        W87421  41.574   9.877   1.535
15107W        W87422  10.414  25.642  13.832
15108W        W87423  11.761  38.082   0.051
15109W        W87424  32.720  23.415  12.099
15110W        W87425  18.088  20.982   1.223
15111W        W87426  40.051  11.904   0.692
15112W        W87427  15.863  20.105  14.183
15113W        W87428  36.113  42.567  13.956
15114W        W87429  14.413  42.977   3.153
15115W        W87430  15.350  32.036  12.512
15116W        W87431  43.344   4.186  12.471
15117W        W87432  14.227  17.173   0.881
15118W        W87433  16.220   9.403  11.893
15119W        W87434  42.035  44.663   2.657
15120W        W87435  36.843  24.658  14.934
15121W        W87436  42.480  32.995  13.962
15122W        W87437  16.797  11.762  12.436
15123W        W87438  40.248  43.572  11.166
15124W        W87439   6.696  10.182   4.923
15125W        W87440  33.000  28.375   4.122
15126W        W87441   3.900  39.367   3.311
15127W        W87442  23.203  13.144  10.738
15128W        W87443  36.402  29.277   2.243
15129W        W87444  20.064  24.662   0.361
15130W        W87445  44.637  10.877  11.609
15131W        W87446  12.095  29.454   4.295
15132W        W87447  44.830   1.032   3.681
15133W        W87448   7.014  37.121  12.592
15134W        W87449  29.949   6.772   0.178
15135W        W87450  14.055  41.537   3.211
15136W        W87451  25.123  42.519  13.797
15137W        W87452  37.042  23.694   5.515
15138W        W87453  23.731  18.383   2.166
15139W        W87454   1.739  39.525   4.519
15140W        W87455  34.326  31.777   2.862
15141W        W87456  44.783  41.772   2.332
15142W        W87457  18.115   9.477   2.315
15143W        W87458  37.593  10.259   2.731
15144W        W87459  21.527  26.034   2.532
15145W        W87460   3.264  42.407   3.083
15146W        W87461  39.881  21.711   2.123
15147W        W87462  21.274  16.729   4.220
15148W        W87463  15.128  12.715  10.933
15149W        W87464   9.090  36.488  11.614
15150W        W87465   2.677  40.644  13.363
15151W        W87466  41.835  41.541   0.883
15152W        W87467  38.960  30.016  11.554
15153W        W87468   3.303  10.436  14.414
15154W        W87469  22.684  25.080   0.450
15155W        W87470  10.210  10.574  14.862
15156W        W87471   4.869  25.510  12.066
15157W        W87472   5.215  17.610   3.833
15158W        W87473  40.000  32.476  11.615
15159W        W87474  28.678  42.240   1.804
15160W        W87475  21.486  14.151  14.513
15161W        W87476   6.647   3.263  11.083
15162W        W87477  40.493  39.060  11.110
15163W        W87478  30.640  34.201   2.754
15164W        W87479  19.609   9.181  13.296
15165W        W87480   9.666  24.909  13.878
15166W        W87481  38.402  44.355  13.882
15167W        W87482  40.244   5.881   0.309
15168W        W87483  36.098  19.709  10.562
15169W        W87484  15.646  28.115   3.860
15170W        W87485  15.737   2.773  12.000
15171W        W87486  10.971  32.468   1.907
15172W        W87487  31.677  31.450  14.910
15173W        W87488  14.653   2.203  12.139
15174W        W87489  42.028  40.940  14.838
15175W        W87490  30.045  22.798   0.402
15176W        W87491   3.876  29.063  11.337
15177W        W87492  16.375   6.892   3.733
15178W        W87493   5.754  20.626   1.785
15179W        W87494  43.286   8.460   4.126
15180W        W87495  19.314  12.762   0.949
15181W        W87496  21.727   3.413   4.882
15182W        W87497  34.516   9.851  14.197
15183W        W87498  12.316  10.565  14.886
15184W        W87499  21.224   3.625  12.338
15185W        W87500  41.436  43.318   4.894
15186W        W87501  32.539  16.826   3.183
15187W        W87502   4.904  38.555  14.234
15188W        W87503  44.390  13.060   3.551
15189W        W87504   8.948   6.841  14.212
15190W        W87505  43.677  12.810  14.885
15191W        W87506  21.290  43.399  11.463
15192W        W87507  23.029  24.761   2.095
15193W        W87508  17.964   3.908  11.947
15194W        W87509  35.907  33.579  13.490
15195W        W87510  26.668  36.505  11.254
15196W        W87511   1.704   4.877  10.930
15197W        W87512  38.291  28.013   4.258
15198W        W87513  11.518  27.486   0.019
15199W        W87514   6.674  41.771  14.709
15200W        W87515  30.039  23.051  14.073
15201W        W87516  14.724  31.591  11.996
15202W        W87517  20.635  41.905  14.382
15203W        W87518  20.271   8.191   3.786
15204W        W87519   5.492  34.474   1.331
15205W        W87520   0.265  32.569   1.909
15206W        W87521   0.788  25.311  11.647
15207W        W87522  41.948  23.812   0.309
15208W        W87523  42.023  25.139  12.018
15209W        W87524   2.029  32.238   0.234
15210W        W87525   2.528  41.338   4.759
15211W        W87526  26.073   4.402   0.660
15212W        W87527  28.372  36.441  10.758
15213W        W87528  26.454  33.862   3.648
15214W        W87529  38.180  23.900  11.978
15215W        W87530  29.430  19.548   1.476
15216W        W87531  26.379  44.807  11.007
15217W        W87532  38.933  37.495  13.154
15218W        W87533  14.211  38.663  13.043
15219W        W87534   8.740  19.048   3.405
15220W        W87535  14.135  35.880  14.111
15221W        W87536  25.628  21.901  13.567
15222W        W87537  38.064  21.763  13.428
15223W        W87538  19.264  21.594   4.169
15224W        W87539  35.070  33.319  13.902
15225W        W87540  35.007   5.982   0.405
15226W        W87541  21.475  21.478   2.247
15227W        W87542  10.894  16.741   0.934
15228W        W87543  22.716  26.084   3.613
15229W        W87544   2.817  13.360  10.638
15230W        W87545   7.963  13.084   0.725
15231W        W87546  16.107  22.248  12.591
15232W        W87547   0.176  26.558  10.723
15233W        W87548   9.881  43.525  14.692
15234W        W87549  43.306  19.763  11.553
15235W        W87550   4.181  23.894  11.113
15236W        W87551  26.977   1.706   2.143
15237W        W87552  13.179  10.767  13.834
15238W        W87553  42.864   9.070  13.817
15239W        W87554  16.146  32.892  13.822
15240W        W87555  18.600  29.157   4.578
15241W        W87556  37.927   0.696   0.250
15242W        W87557  13.309  13.576  11.101
15243W        W87558   8.605  37.430  11.850
15244W        W87559  27.700  35.712   1.045
15245W        W87560  33.837  10.760   2.802
15246W        W87561   3.329  40.355   1.914
15247W        W87562  12.796  24.686   4.804
15248W        W87563  10.774  21.448   1.692
15249W        W87564  28.450  12.382   4.120
15250W        W87565  41.394  15.001   2.849
15251W        W87566  38.516  19.083   1.682
15252W        W87567  15.534  36.777   3.119
15253W        W87568   1.459  36.465   3.768
15254W        W87569  27.682  29.505   4.172
15255W        W87570  40.255  38.117  14.412
15256W        W87571   5.915  44.471   4.294
15257W        W87572  11.831   7.905   1.332
15258W        W87573  18.663  27.970  13.537
15259W        W87574  20.787  38.480  12.590
15260W        W87575  35.499  35.639   2.229
15261W        W87576  13.307  22.079   2.399
15262W        W87577  19.685  30.809  12.619
15263W        W87578  14.294   5.409   0.770
15264W        W87579  28.385  44.967  13.075
15265W        W87580  25.035  26.595  11.965
15266W        W87581  10.595  17.115   0.771
15267W        W87582   2.777  10.662  13.303
15268W        W87583  35.527  23.402  10.366
15269W        W87584  18.047  42.035  14.355
15270W        W87585  33.824  36.371   3.749
15271W        W87586  24.955  34.146   0.834
15272W        W87587  16.673  27.137  13.940
15273W        W87588  14.821  31.364   3.309
15274W        W87589  38.334  34.708  11.709
15275W        W87590  29.924   1.316   1.297
15276W        W87591  31.690  23.298  12.512
15277W        W87592  27.647   3.796   2.233
15278W        W87593   9.312   5.237   1.780
15279W        W87594  17.353  18.499   1.269
15280W        W87595  24.396  11.669   0.899
15281W        W87596   9.873   8.204  12.796
15282W        W87597   7.160  27.380   2.335
15283W        W87598  10.253  36.851   1.865
15284W        W87599  11.368   3.672   2.260
15285W        W87600  30.071  39.838  11.279
15286W        W87601   0.347   3.159   3.194
15287W        W87602  26.979  33.615  10.578
15288W        W87603  41.404   4.678  13.419
15289W        W87604  44.859  33.302   2.732
15290W        W87605  15.575   9.603  10.629
15291W        W87606  18.689  19.585  13.411
15292W        W87607  30.479  42.986   3.185
15293W        W87608  31.071  18.813   2.930
15294W        W87609  17.214  11.487   9.923
15295W        W87610   7.172  15.136   0.368
15296W        W87611  23.230   2.460   2.300
15297W        W87612   5.142  29.962  13.284
15298W        W87613  44.648  10.144  10.716
15299W        W87614  29.585  43.174  14.248
15300W        W87615   2.818  32.304  14.917
15301W        W87616  13.178   4.297   0.958
15302W        W87617  16.401  44.319   1.956
15303W        W87618  12.392  17.556  13.549
15304W        W87619  29.684   3.184   4.549
15305W        W87620   0.101  23.026  11.584
15306W        W87621  42.575  39.077   1.890
15307W        W87622  20.474   8.268   2.240
15308W        W87623   6.698  25.012  12.966
15309W        W87624   1.514  20.652  11.930
15310W        W87625  42.375  17.957   0.668
15311W        W87626  35.821  40.855   4.736
15312W        W87627  41.994  27.678   2.119
15313W        W87628  15.534  37.186   4.321
15314W        W87629  41.103  22.482   3.193
15315W        W87630   2.918  36.963  10.716
15316W        W87631  23.197  30.314  13.139
15317W        W87632   5.941  30.483   2.790
15318W        W87633  20.768  24.475  11.591
15319W        W87634   3.594  34.987  12.145
15320W        W87635  21.535  37.149  12.503
15321W        W87636  26.943   0.833  14.836
15322W        W87637   6.180  29.258  12.754
15323W        W87638  26.430   7.240  11.055
15324W        W87639  31.203  22.624  13.894
15325W        W87640  33.376  37.342   3.655
15326W        W87641   6.807  37.525  10.900
15327W        W87642  31.113  24.704   0.361
15328W        W87643  11.354  31.938  13.570
15329W        W87644  28.555   4.447   3.921
15330W        W87645  12.637   8.333  12.676
15331W        W87646  16.261  30.801   1.363
15332W        W87647  37.407  39.331  13.305
15333W        W87648  37.839   6.767   3.875
15334W        W87649  41.594  31.563  11.073
15335W        W87650  31.221  16.316   2.403
15336W        W87651  38.340  37.751   0.486
15337W        W87652  12.426  25.112   0.373
15338W        W87653  11.321  29.013   1.487
15339W        W87654  40.420  14.732   4.742
15340W        W87655  38.417  28.089   2.669
15341W        W87656  16.535  26.527   1.842
15342W        W87657  21.548   8.335  10.733
15343W        W87658   2.239  31.744  14.532
15344W        W87659  35.135   3.940  14.860
15345W        W87660   7.891  44.469   1.387
15346W        W87661  33.595  37.782  12.507
15347W        W87662  10.436  37.572   1.438
15348W        W87663  16.235  34.360   4.429
15349W        W87664  40.595  44.221   4.573
15350W        W87665  39.434  44.754  14.650
15351W        W87666   6.124  26.203  12.053
15352W        W87667  29.632  20.971   0.503
15353W        W87668  32.010  16.118   4.508
15354W        W87669  34.876  18.200  12.205
15355W        W87670  39.918  33.512   3.299
15356W        W87671  44.870  13.133   5.784
15357W        W87672   5.770   6.303   1.759
15358W        W87673  16.964   9.759   0.677
15359W        W87674  18.338   4.271  12.492
15360W        W87675   8.244  21.343   3.223
15361W        W87676   9.349  38.615  10.916
15362W        W87677   9.557  22.451   3.119
15363W        W87678  12.329  40.271  14.030
15364W        W87679  36.304  16.242  13.417
15365W        W87680  37.328  22.650  13.870
15366W        W87681  43.929  36.462  13.645
15367W        W87682  44.380  28.543  10.470
15368W        W87683   2.393  41.688  11.298
15369W        W87684   7.391  42.438  10.800
15370W        W87685  21.087  27.023   3.725
15371W        W87686  36.473  29.053   3.636
15372W        W87687  11.410  22.821  13.861
15373W        W87688   0.319  41.303   3.297
15374W        W87689  17.160  28.765  14.326
15375W        W87690  16.907  40.279  10.729
15376W        W87691  33.622  42.495   3.762
15377W        W87692  30.160  42.956   2.706
15378W        W87693   1.951  24.702  13.831
15379W        W87694  37.768  33.860  12.557
15380W        W87695   9.708  26.114   1.863
15381W        W87696   6.200  15.918   1.678
15382W        W87697   7.793  42.858  12.071
15383W        W87698  25.408  42.431  12.529
15384W        W87699  31.714   1.400   3.941
15385W        W87700  38.553  35.052  11.417
15386W        W87701   0.765   1.111   2.411
15387W        W87702  38.850  16.110  13.044
15388W        W87703  43.409  31.541   3.777
15389W        W87704  32.635  25.956   2.203
15390W        W87705   4.627  36.175  14.029
15391W        W87706  23.181   1.974  10.727
15392W        W87707   3.695  22.394  11.599
15393W        W87708  33.000  26.460   3.235
15394W        W87709  10.154  35.136  11.606
15395W        W87710  24.567   7.177  12.491
15396W        W87711  12.159  33.449  14.579
15397W        W87712  41.460   8.826   1.060
15398W        W87713  32.083  31.524   2.240
15399W        W87714  39.368  32.121   1.223
15400W        W87715  33.943  36.300   1.744
15401W        W87716  35.357  39.605   3.306
15402W        W87717   1.443  20.981   1.519
15403W        W87718  36.739  32.993   2.210
15404W        W87719  42.727  22.016  13.880
15405W        W87720  25.466  25.092  14.433
15406W        W87721  26.003   0.287   2.382
15407W        W87722  18.365  30.407  12.284
15408W        W87723   0.522   4.536   4.273
15409W        W87724   9.620  13.709   4.329
15410W        W87725  36.926  36.316  14.471
15411W        W87726  40.764  36.018   4.640
15412W        W87727  27.641  35.499   2.647
15413W        W87728  38.894  26.694  12.150
15414W        W87729  23.935  38.266   1.761
15415W        W87730  34.273  25.147   2.037
15416W        W87731   7.092  29.581   4.074
15417W        W87732  43.399  21.195   1.953
15418W        W87733  20.620  31.065   2.803
15419W        W87734   3.858  42.023   1.173
15420W        W87735   5.736   4.383   4.556
15421W        W87736   4.960  29.451   0.375
15422W        W87737  11.907  17.235   4.528
15423W        W87738  20.089  33.243   0.802
15424W        W87739  11.853  30.875  10.659
15425W        W87740  11.393  18.142  12.902
15426W        W87741   5.676   5.072   4.190
15427W        W87742  20.790  40.206  12.425
15428W        W87743  31.023  43.760   2.359
15429W        W87744   2.147  42.269   1.343
15430W        W87745  32.417  33.371   3.765
15431W        W87746  22.016  40.281  12.928
15432W        W87747  11.823   5.680   9.993
15433W        W87748  44.100  15.662   3.281
15434W        W87749  30.454  30.145   1.909
15435W        W87750  34.375  26.540   0.440
15436W        W87751  16.681   1.013   3.334
15437W        W87752  35.922  40.754   1.698
15438W        W87753  15.756  36.339  11.386
15439W        W87754   7.287  19.656   2.404
15440W        W87755  42.133  41.838  10.397
15441W        W87756  22.694   5.695   4.204
15442W        W87757  19.205  22.518   0.938
15443W        W87758   0.496  21.033   0.936
15444W        W87759   7.431   7.742  10.882
15445W        W87760  43.691   0.885  12.186
15446W        W87761  26.932  24.130  13.383
15447W        W87762  32.779  25.185   4.827
15448W        W87763  29.552   4.151   3.232
15449W        W87764   1.457  10.183  11.636
15450W        W87765  36.628  23.570  13.603
15451W        W87766  34.525   8.337   3.770
15452W        W87767  28.508  38.335  12.017
15453W        W87768  43.792   3.976  12.622
15454W        W87769   1.753   4.879  10.414
15455W        W87770  40.853  25.382  14.542
15456W        W87771   4.648  19.002  11.160
15457W        W87772   2.076  27.211  14.949
15458W        W87773  25.569   9.718   3.495
15459W        W87774  22.532  31.667   0.755
15460W        W87775   8.218  12.107   4.716
15461W        W87776  32.146  15.175   0.539
15462W        W87777  25.691  32.159   1.378
15463W        W87778  26.388  14.422   4.589
15464W        W87779  12.112  27.045  10.677
15465W        W87780  14.412  35.555   4.202
15466W        W87781  27.608  32.331  12.005
15467W        W87782  36.149   8.814   5.059
15468W        W87783  22.828  38.935  13.062
15469W        W87784  43.515  33.648  14.434
15470W        W87785  11.266  26.469   4.016
15471W        W87786   2.179  36.455   3.292
15472W        W87787  10.925  18.497   2.812
15473W        W87788  37.682  42.887  13.734
15474W        W87789  11.548  36.675  14.984
15475W        W87790   9.838  38.826  11.559
15476W        W87791  42.831  37.284   1.876
15477W        W87792  32.014  41.540   3.922
15478W        W87793  10.714   8.631  13.850
15479W        W87794  19.262  40.499   5.028
15480W        W87795  25.671  25.970   4.103
15481W        W87796  22.566  31.320  11.704
15482W        W87797  26.613   7.191  14.256
15483W        W87798  30.313  12.555  13.524
15484W        W87799  19.703  32.317  13.977
15485W        W87800   3.380  22.276   2.715
15486W        W87801  33.579   2.298  13.278
15487W        W87802   2.919  16.641  14.902
15488W        W87803   4.514  14.153  12.913
15489W        W87804  37.388   8.948  14.780
15490W        W87805  10.176  38.500   0.378
15491W        W87806  31.718   3.339  11.340
15492W        W87807  14.935  12.721  12.824
15493W        W87808  14.051  23.110   1.580
15494W        W87809  37.802  33.694   3.609
15495W        W87810  44.791  13.732  10.697
15496W        W87811  24.130  44.205   3.360
15497W        W87812  20.488  12.596   1.702
15498W        W87813  12.818  22.560  12.557
15499W        W87814  39.818  34.946  12.827
15500W        W87815  23.783  11.599  11.574
15501W        W87816   0.797  34.690   1.656
15502W        W87817  24.142   6.935  12.696
15503W        W87818  44.188  10.686   1.936
15504W        W87819  37.962  13.170   3.748
15505W        W87820  37.905  34.471  14.177
15506W        W87821  44.911  30.705   2.347
15507W        W87822  36.123   6.861   1.398
15508W        W87823  32.628  22.131   2.887
15509W        W87824  34.199  41.624  10.864
15510W        W87825  25.922  40.396   0.771
15511W        W87826  43.981  38.601   2.851
15512W        W87827  40.987  34.654  11.476
15513W        W87828  21.886  17.322   2.752
15514W        W87829  19.280  38.207   2.701
15515W        W87830  19.035  43.752   0.326
15516W        W87831  43.333  38.518  11.169
15517W        W87832  44.283   3.805   1.312
15518W        W87833  31.289  25.493   1.724
15519W        W87834  37.413   1.609   4.458
15520W        W87835  24.273  35.823   4.972
15521W        W87836  22.770  17.718  14.031
15522W        W87837  19.171  12.306   3.347
15523W        W87838   4.984  37.809  14.597
15524W        W87839  28.585  11.851   4.096
15525W        W87840  26.068   0.892   1.953
15526W        W87841   9.380  44.124  13.349
15527W        W87842  26.029  23.474   2.300
15528W        W87843  35.519  42.474  10.728
15529W        W87844  30.748  11.394  14.453
15530W        W87845  12.046  36.841   1.352
15531W        W87846  43.210  13.710  14.776
15532W        W87847   8.790  41.030  11.098
15533W        W87848   5.789  27.723   0.276
15534W        W87849  13.343  42.264  11.536
15535W        W87850  29.638  10.115   2.624
15536W        W87851  16.073  25.478   1.864
15537W        W87852  40.435   7.204  13.972
15538W        W87853   3.650  37.008  13.883
15539W        W87854  25.474  42.051   3.373
15540W        W87855  22.206  31.437   2.453
15541W        W87856  14.853   1.940  11.521
15542W        W87857   7.819  28.358  14.554
15543W        W87858  16.637   4.385   3.338
15544W        W87859  19.425  39.839   9.739
15545W        W87860  16.812  19.642  12.056
15546W        W87861   1.499  24.674  12.431
15547W        W87862  37.483  40.893  10.712
15548W        W87863  21.583  34.495   2.762
15549W        W87864  32.113  18.088   4.510
15550W        W87865  34.780  37.913  13.273
15551W        W87866  15.055  37.853   4.082
15552W        W87867   9.299  15.834  11.906
15553W        W87868   4.675  24.760   2.898
15554W        W87869  43.818  41.427   2.797
15555W        W87870  42.460  29.937   4.974
15556W        W87871   1.372   5.476   3.379
15557W        W87872  20.611  39.550   1.927
15558W        W87873   0.279   9.278  12.699
15559W        W87874   9.803  43.000  14.199
15560W        W87875  23.029  43.242  11.367
15561W        W87876  34.664  15.350  15.000
15562W        W87877  28.044  26.388  14.448
15563W        W87878   8.615  11.897   2.837
15564W        W87879  14.028  24.524  12.439
15565W        W87880  37.523  44.369   1.965
15566W        W87881  28.161   0.300  11.532
15567W        W87882   5.296  24.726   3.342
15568W        W87883  14.065  33.728  12.532
15569W        W87884   0.630   7.657  12.021
15570W        W87885  27.310  26.229  14.000
15571W        W87886  39.968  14.311   3.232
15572W        W87887  32.226   6.995   0.919
15573W        W87888  19.811  38.321  12.899
15574W        W87889  26.760  21.808   2.041
15575W        W87890   1.261  25.944  11.111
15576W        W87891  41.507  13.680  14.931
15577W        W87892   8.674  18.105  11.918
15578W        W87893  25.626  23.005  14.338
15579W        W87894  27.194  42.084  11.573
15580W        W87895  23.816  35.992   2.656
15581W        W87896  31.425   6.342   3.357
15582W        W87897  10.117  44.365  11.129
15583W        W87898   4.573  16.844   2.949
15584W        W87899  20.736  44.313   4.920
15585W        W87900  20.706   8.749  12.794
15586W        W87901  35.342  29.977  14.359
15587W        W87902  26.537   4.780   4.073
15588W        W87903  42.994  20.019  14.558
15589W        W87904  24.290  26.494  13.497
15590W        W87905  18.500  12.802  11.180
15591W        W87906  31.144  35.766  12.138
15592W        W87907   3.240   8.709   2.673
15593W        W87908  31.246   3.296  14.541
15594W        W87909   7.693  17.566  11.173
15595W        W87910  11.235  14.010   0.490
15596W        W87911   5.465   4.837   3.766
15597W        W87912  14.982  25.018   4.962
15598W        W87913  41.271  40.475   0.907
15599W        W87914  40.512   9.783   0.663
15600W        W87915  19.222   6.842  13.174
15601W        W87916   1.467   5.021   3.174
15602W        W87917   4.516   5.649  10.593
15603W        W87918  35.890  22.230  10.755
15604W        W87919   3.039  23.888   4.933
15605W        W87920  37.386  44.965   1.440
15606W        W87921  22.789  28.337  10.692
15607W        W87922  24.575  22.533  11.011
15608W        W87923  35.977  13.619  12.151
15609W        W87924   1.731  21.644   0.502
15610W        W87925   7.726  22.855   0.851
15611W        W87926  16.629  40.293  12.533
15612W        W87927  42.990  14.731  11.220
15613W        W87928   0.782  24.189   1.471
15614W        W87929  39.285   7.364  11.138
15615W        W87930  36.882  25.465   0.968
15616W        W87931  16.725   7.089  14.193
15617W        W87932  18.346  19.740   4.261
15618W        W87933  34.161  10.322   4.606
15619W        W87934   9.380  41.302  12.659
15620W        W87935  15.615  30.981   3.614
15621W        W87936  34.901  11.262  10.823
15622W        W87937  10.624  32.059  10.714
15623W        W87938  23.911  30.406   4.158
15624W        W87939   4.286  26.085   0.044
15625W        W87940  31.542  36.079  10.701
15626W        W87941  44.901   9.925   3.735
15627W        W87942   5.684  21.918   4.109
15628W        W87943   5.156  13.375   1.306
15629W        W87944  38.532  40.760   0.945
15630W        W87945  29.451   0.891   3.607
15631W        W87946  17.259  31.454   3.562
15632W        W87947   0.083  11.349  14.096
15633W        W87948  23.007  11.788   4.695
15634W        W87949  13.639   6.755  10.762
15635W        W87950  16.059  24.678   2.905
15636W        W87951  22.545  26.005  10.712
15637W        W87952   3.414  10.387  12.317
15638W        W87953  42.337  11.365   1.951
15639W        W87954  33.639  35.135  13.412
15640W        W87955  27.118  18.642   3.231
15641W        W87956  24.469  35.515  10.685
15642W        W87957  28.262   9.301   0.029
15643W        W87958  34.436  42.435   1.732
15644W        W87959  42.451  20.662   3.840
15645W        W87960  15.171  25.428  10.856
15646W        W87961  34.667  24.449  11.131
15647W        W87962  34.493  14.485   4.096
15648W        W87963  11.522  35.334  12.620
15649W        W87964  10.227  40.349  10.426
15650W        W87965  34.739  44.917  14.855
15651W        W87966   1.990  23.155  12.947
15652W        W87967  15.594  28.236   2.856
15653W        W87968   1.753  37.044   2.375
15654W        W87969  21.839   6.958  11.946
15655W        W87970  19.174  29.742   0.528
15656W        W87971  29.093   1.443  14.519
15657W        W87972  29.261  23.509   3.631
15658W        W87973   7.581  10.744  11.491
15659W        W87974  16.749  14.249   2.266
15660W        W87975   1.259  10.735  13.450
15661W        W87976  13.686  33.544  10.662
15662W        W87977  44.437  12.647  10.234
15663W        W87978  10.770   8.461  11.993
15664W        W87979  42.656   8.867  14.238
15665W        W87980  31.881  20.505  14.618
15666W        W87981  30.853   3.262   3.818
15667W        W87982  20.070  31.867   4.686
15668W        W87983   5.764  43.229  13.830
15669W        W87984   0.938  34.863   4.571
15670W        W87985   1.544  25.214  13.047
15671W        W87986   0.469  34.122  12.908
15672W        W87987  23.360  20.280  12.012
15673W        W87988   9.780  39.254   3.928
15674W        W87989   9.219   3.393   2.872
15675W        W87990  15.722  19.313  13.544
15676W        W87991  20.101  36.296  12.399
15677W        W87992  25.077  20.670   0.766
15678W        W87993  44.927  25.256  13.244
15679W        W87994  14.166   4.359  14.863
15680W        W87995  36.451  13.006   5.114
15681W        W87996  37.492  34.581  13.867
15682W        W87997  33.514  26.809   0.304
15683W        W87998  35.041   5.371   2.551
15684W        W87999  23.445  22.348   2.647
15685W        W88000  34.828  41.125  11.525
15686W        W88001  17.648  21.704   3.958
15687W        W88002  41.892  12.628  12.476
15688W        W88003  24.072  43.447   0.882
15689W        W88004  13.503  21.141  12.427
15690W        W88005  14.511  22.542  13.129
15691W        W88006  43.851  41.250  13.417
15692W        W88007   3.050  24.095  13.266
15693W        W88008   2.788   3.435   1.712
15694W        W88009  23.949  27.560  10.646
15695W        W88010  16.782  31.362   5.780
15696W        W88011   5.856   4.480  10.693
15697W        W88012   2.673   6.273   1.392
15698W        W88013  18.717  17.260   2.303
15699W        W88014  20.762  35.059  12.149
15700W        W88015  29.732  29.013   2.174
15701W        W88016  37.336  20.714   0.250
15702W        W88017  22.281  21.600  10.625
15703W        W88018  18.021  42.734   3.655
15704W        W88019  34.786  30.780   2.801
15705W        W88020  42.402   6.677   0.204
15706W        W88021  38.043  30.681  13.234
15707W        W88022   5.797  11.662   1.995
15708W        W88023  28.990  15.727  11.613
15709W        W88024  27.922   8.793   3.619
15710W        W88025   5.557  13.278   3.834
15711W        W88026  15.558  13.682   1.692
15712W        W88027  19.035  34.415   3.808
15713W        W88028  35.994  26.245   1.010
15714W        W88029  16.287   1.497   3.574
15715W        W88030  21.009   8.457   2.710
15716W        W88031  38.629  41.183   1.736
15717W        W88032  26.714  21.012   4.072
15718W        W88033  26.317  24.626   0.909
15719W        W88034  25.636  28.194   4.619
15720W        W88035   4.908  35.013   3.800
15721W        W88036  26.858  44.862   3.241
15722W        W88037  20.266  13.239  11.608
15723W        W88038  38.130  33.020  13.857
15724W        W88039  14.458  37.639   3.424
15725W        W88040  33.963  24.504  10.470
15726W        W88041  21.299  28.550   1.769
15727W        W88042   0.145   0.328   4.524
15728W        W88043  38.798  39.303  10.625
15729W        W88044  14.358   4.296  13.950
15730W        W88045  43.545  39.338   1.834
15731W        W88046   2.693   9.764   4.879
15732W        W88047   3.401  33.645   4.610
15733W        W88048   7.298   7.739  11.877
15734W        W88049  12.613  18.335   4.536
15735W        W88050   5.231  24.236  12.892
15736W        W88051  18.067  11.676   3.021
15737W        W88052  23.245  35.920   1.782
15738W        W88053  35.358  36.571  13.441
15739W        W88054  42.471  24.598   4.772
15740W        W88055   3.976   3.774   1.324
15741W        W88056  42.013  41.516   2.286
15742W        W88057  26.739  20.759  14.910
15743W        W88058   1.370  20.088  10.713
15744W        W88059  10.059  44.755   2.810
15745W        W88060   8.927   4.430  10.451
15746W        W88061  31.213  43.005  12.985
15747W        W88062  30.395   6.376  14.756
15748W        W88063  30.111   6.388   1.479
15749W        W88064  29.058  31.666  10.262
15750W        W88065  43.834  19.062   2.277
15751W        W88066   7.375   9.915   3.804
15752W        W88067  21.503  43.014   2.167
15753W        W88068  32.925  12.402   2.546
15754W        W88069  26.657  15.171  11.505
15755W        W88070  38.219  18.698   1.862
15756W        W88071   1.263  15.532   1.224
15757W        W88072  17.750  14.786   4.116
15758W        W88073  29.240  35.932  12.114
15759W        W88074  20.548   8.687   2.751
15760W        W88075  34.064   0.376  10.715
15761W        W88076  42.464  21.995   1.368
15762W        W88077  20.588  38.140  14.901
15763W        W88078  41.252   4.774   4.792
15764W        W88079  16.350  39.829  11.981
15765W        W88080  39.537  14.258  14.480
15766W        W88081  39.137   2.521   4.206
15767W        W88082  31.514  23.430   3.252
15768W        W88083  42.431  25.573  13.341
15769W        W88084  22.099  26.209   4.303
15770W        W88085  28.719  28.659  10.777
15771W        W88086   3.772  16.742  14.319
15772W        W88087  12.259  34.342   4.310
15773W        W88088  10.481  11.772  12.051
15774W        W88089  17.606  44.669  10.333
15775W        W88090   6.440  19.724   0.963
15776W        W88091  37.339  31.454  11.908
15777W        W88092   9.699   7.201   0.351
15778W        W88093  41.313   5.697   4.354
15779W        W88094  31.524  24.761   3.740
15780W        W88095  29.071  24.073  10.990
15781W        W88096   0.970   9.432   3.736
15782W        W88097   0.926  39.826   0.789
15783W        W88098  40.978  36.361   4.321
15784W        W88099  29.711  16.229  13.938
15785W        W88100  17.800   4.849   1.810
15786W        W88101  44.431  22.531  12.085
15787W        W88102  37.854   7.430  11.993
15788W        W88103  28.428   3.191  13.557
15789W        W88104  22.952   7.522  11.544
15790W        W88105  40.011  22.812  12.438
15791W        W88106  31.092  37.741  12.956
15792W        W88107   4.721  28.928  12.477
15793W        W88108  32.428  23.738  12.535
15794W        W88109  18.787  27.995   1.844
15795W        W88110   6.832  37.937   1.390
15796W        W88111  38.369  16.757   1.280
15797W        W88112  26.867  25.946   2.858
15798W        W88113  35.424  13.313  13.965
15799W        W88114   1.729  24.004   2.172
15800W        W88115  18.542  25.060   4.829
15801W        W88116  18.723  37.654  10.221
15802W        W88117  21.598  13.270   4.859
15803W        W88118  12.376   9.495   2.261
15804W        W88119  40.495  34.896   0.354
15805W        W88120   3.928  23.222  13.379
15806W        W88121  18.705   1.335  10.620
15807W        W88122  15.765  16.824   1.241
15808W        W88123  10.759  14.502   4.417
15809W        W88124  25.130  11.849  13.306
15810W        W88125   8.163  22.726   2.464
15811W        W88126  10.100  18.314  10.566
15812W        W88127   0.686  29.587  12.408
15813W        W88128  20.769  22.021  12.416
15814W        W88129  41.528   5.560  11.468
15815W        W88130  33.561  30.977   0.958
15816W        W88131   5.153  29.620   1.320
15817W        W88132   6.293  21.455  14.220
15818W        W88133  31.861  44.993   2.184
15819W        W88134  14.256   9.299   3.625
15820W        W88135  16.287  38.861  11.116
15821W        W88136  42.458  23.511  12.293
15822W        W88137   8.118  11.027  13.987
15823W        W88138   5.459  12.839   2.419
15824W        W88139   3.996  42.368  11.528
15825W        W88140  40.053   2.199  10.708
15826W        W88141   4.322  13.241   4.435
15827W        W88142  22.622  16.111  11.235
15828W        W88143  37.387  13.703   3.274
15829W        W88144  43.562   6.104  12.475
15830W        W88145  15.197  25.559  12.029
15831W        W88146   4.088  33.144  12.800
15832W        W88147   3.912  14.587   1.830
15833W        W88148   1.719  40.030  10.730
15834W        W88149  12.070  16.629   5.131
15835W        W88150  24.564   6.856  11.034
15836W        W88151  12.182  34.909  14.110
15837W        W88152  32.296  12.598  12.349
15838W        W88153   6.946  32.317   0.795
15839W        W88154  27.231  18.578  12.508
15840W        W88155  39.830  25.013  13.191
15841W        W88156  20.624  39.765   1.452
15842W        W88157  27.518  25.454  10.692
15843W        W88158  19.086  25.039   4.740
15844W        W88159   7.172   6.897   2.588
15845W        W88160  18.072  29.019   2.232
15846W        W88161  44.561  30.106  11.243
15847W        W88162  28.703  41.998   0.423
15848W        W88163  29.469  26.171  10.988
15849W        W88164  17.751  36.398  11.472
15850W        W88165  38.034   2.442  12.553
15851W        W88166  43.079  21.985  14.884
15852W        W88167  33.093  25.046   3.298
15853W        W88168  16.202  10.361  10.378
15854W        W88169  38.404   5.970  14.541
15855W        W88170   8.410  25.069   1.221
15856W        W88171  16.179  29.411   1.111
15857W        W88172  20.104  41.455   2.373
15858W        W88173   1.622  20.290   4.643
15859W        W88174   2.900   5.326  11.970
15860W        W88175  18.249  20.971  13.855
15861W        W88176  41.015   0.783  10.639
15862W        W88177  23.240   1.707  14.457
15863W        W88178  39.088   4.483   3.709
15864W        W88179  37.765  35.791   0.434
15865W        W88180   9.942  43.019  13.339
15866W        W88181   2.464   3.266   4.280
15867W        W88182  23.013   8.171  13.396
15868W        W88183  29.450  32.019   0.807
15869W        W88184  19.579  12.783  12.869
15870W        W88185  30.118  39.903  10.725
15871W        W88186  43.305  15.711   9.844
15872W        W88187   9.930  42.355  10.808
15873W        W88188  44.390   1.001   1.226
15874W        W88189   9.254  19.247  13.493
15875W        W88190   1.398   7.023  11.933
15876W        W88191  38.312   6.369   3.418
15877W        W88192  22.634   6.880   9.963
15878W        W88193   2.714   5.768   0.564
15879W        W88194  11.481   5.461   0.526
15880W        W88195  35.439  30.979  12.782
15881W        W88196   9.157  37.014   4.359
15882W        W88197  35.655  29.659  11.963
15883W        W88198  23.206  32.485  14.809
15884W        W88199  30.401  38.365   3.718
15885W        W88200   7.912  32.214  14.350
15886W        W88201  31.897  18.300  13.397
15887W        W88202  34.590  24.110   0.973
15888W        W88203  37.976   9.593  14.817
15889W        W88204  21.029   9.423   2.762
15890W        W88205   8.094  38.552  11.361
15891W        W88206  26.892  23.172   3.482
15892W        W88207  11.336   6.967   3.358
15893W        W88208  42.920   6.902  11.871
15894W        W88209   0.422  20.571  13.389
15895W        W88210  21.338   0.432  11.883
15896W        W88211  23.030  41.329   4.549
15897W        W88212  42.881   0.468  11.227
15898W        W88213  35.918  38.304   3.319
15899W        W88214  26.486   4.829   1.204
15900W        W88215  25.598  10.600   3.975
15901W        W88216  15.074   7.321   0.851
15902W        W88217  12.818  22.684   2.716
15903W        W88218  33.101  29.361   1.489
15904W        W88219   8.116   9.667  13.596
15905W        W88220   8.691  29.439   4.448
15906W        W88221  33.139  22.142  13.353
15907W        W88222  24.931  17.625  13.579
15908W        W88223  32.542   5.881   3.756
15909W        W88224  44.379  12.957   1.762
15910W        W88225   9.804  26.780  14.486
15911W        W88226   0.774  19.665   1.258
15912W        W88227  33.206  40.404  11.070
15913W        W88228  16.145  42.495   3.251
15914W        W88229  44.489  11.741  10.253
15915W        W88230   3.825  30.993   3.319
15916W        W88231  37.968  25.682  14.039
15917W        W88232  38.181  44.425  12.469
15918W        W88233  20.598   9.697   2.791
15919W        W88234  17.733  10.145  14.758
15920W        W88235  25.005  29.417  13.868
15921W        W88236   9.864  10.123   1.659
15922W        W88237  34.701  12.578   3.334
15923W        W88238  21.736  41.032   3.288
15924W        W88239  25.458  10.866  11.919
15925W        W88240  28.040   3.247   3.585
15926W        W88241   9.362   5.471   4.111
15927W        W88242  21.222  25.015   2.475
15928W        W88243  34.520   1.685  11.150
15929W        W88244  12.380  44.515  14.987
15930W        W88245  43.777  41.266  11.979
15931W        W88246  34.996   1.394  10.976
15932W        W88247  33.469  21.506  14.288
15933W        W88248  11.835  22.474   5.064
15934W        W88249  18.134   2.402  10.374
15935W        W88250  44.959  27.054   1.773
15936W        W88251  15.321  43.924   0.783
15937W        W88252  17.790   3.884   1.248
15938W        W88253  24.701  42.839  13.734
15939W        W88254  31.176  38.867  10.511
15940W        W88255  35.508  12.879  12.116
15941W        W88256  25.490  19.262   3.667
15942W        W88257  24.178  37.553  14.265
15943W        W88258   4.840  33.047  11.341
15944W        W88259  29.563   5.934   3.604
15945W        W88260  36.973  17.778  14.802
15946W        W88261  43.474  22.126   1.793
15947W        W88262  43.371  19.926  12.031
15948W        W88263  15.879  25.996   4.843
15949W        W88264  39.547   8.168  13.523
15950W        W88265  41.100  35.064  12.547
15951W        W88266  34.570  14.347  12.984
15952W        W88267  12.880   2.767   2.300
15953W        W88268  25.382  34.778   2.202
15954W        W88269   0.681  24.455  14.386
15955W        W88270  30.494   0.965   4.031
15956W        W88271  21.561   1.391   1.934
15957W        W88272  41.226   3.214  12.663
15958W        W88273   0.436  15.246   0.316
15959W        W88274  42.094  12.305   4.221
15960W        W88275  14.551  19.522  11.171
15961W        W88276  41.496  37.624  10.547
15962W        W88277   4.804  24.341  14.917
15963W        W88278   1.279   3.018   2.726
15964W        W88279   0.982  14.211   0.301
15965W        W88280  18.054   7.592  13.840
15966W        W88281  14.486  26.505  13.291
15967W        W88282  12.520  12.423  11.803
15968W        W88283  35.197  30.933   1.602
15969W        W88284  36.414   8.358   1.280
15970W        W88285  14.597   3.519   3.808
15971W        W88286  25.624  14.462   1.884
15972W        W88287  16.569  15.929   3.040
15973W        W88288   1.215  44.234   4.185
15974W        W88289  33.060   7.306  11.599
15975W        W88290  35.491  20.065  12.054
15976W        W88291  43.769  10.974  11.580
15977W        W88292  33.921  41.553   0.923
15978W        W88293  17.538  24.548  10.989
15979W        W88294  40.156  28.653  13.606
15980W        W88295  30.021  11.877   2.652
15981W        W88296  40.570  36.519  12.171
15982W        W88297  12.641   3.599   0.310
15983W        W88298  29.672  37.787  14.342
15984W        W88299  25.214  22.216   0.693
15985W        W88300  31.382  17.051   4.695
15986W        W88301  37.232  43.505  13.382
15987W        W88302  24.693  17.627   1.121
15988W        W88303  31.210  14.571  14.648
15989W        W88304  32.179   3.126   4.263
15990W        W88305  26.674  38.634   3.322
15991W        W88306  27.494  30.585   2.768
15992W        W88307  17.815   3.491   2.524
15993W        W88308  44.816  10.443  12.250
15994W        W88309  14.374  24.666  11.462
15995W        W88310  22.055  35.198  10.970
15996W        W88311  33.312  12.801  11.634
15997W        W88312  25.162   6.351   0.264
15998W        W88313  20.273  10.922   5.588
15999W        W88314   7.204   7.319  10.689
16000W        W88315  34.455  25.994  13.697
16001W        W88316  39.106  14.679  14.002
16002W        W88317   7.631  32.023  14.766
16003W        W88318  34.932  19.288   4.794
16004W        W88319  19.171   4.332  10.767
16005W        W88320   6.222   6.805   4.753
16006W        W88321  25.911  25.241  13.306
16007W        W88322   1.773  12.248   0.351
16008W        W88323  33.436   1.552   2.300
16009W        W88324  16.836  22.763   1.729
16010W        W88325  33.168  43.757   0.384
16011W        W88326  10.378  16.028  10.182
16012W        W88327  26.170   0.577  10.573
16013W        W88328  39.660   2.147  13.468
16014W        W88329  37.018  16.738  13.765
16015W        W88330  15.677  42.518   2.261
16016W        W88331   6.223   1.920  13.035
16017W        W88332   0.867  14.773  12.305
16018W        W88333  12.227  30.785  12.013
16019W        W88334  18.484   2.960   2.944
16020W        W88335  33.973  34.014   2.824
16021W        W88336   0.982   8.295  11.516
16022W        W88337  33.447  34.685   4.041
16023W        W88338   6.859   0.580   2.659
16024W        W88339   6.550  13.074   0.697
16025W        W88340  26.945  23.578  11.145
16026W        W88341  43.282  39.605   2.193
16027W        W88342   0.672  30.071   3.425
16028W        W88343   2.822  23.227  11.199
16029W        W88344   8.810   7.223  10.257
16030W        W88345  32.998  30.683   1.779
16031W        W88346  23.051  27.904  13.050
16032W        W88347  25.767  23.349  10.114
16033W        W88348  14.338  29.235  12.559
16034W        W88349   7.411  12.612   1.870
16035W        W88350   3.154  21.290   3.390
16036W        W88351   3.898  32.559  10.301
16037W        W88352   2.006   2.288   0.125
16038W        W88353  34.100  22.194   0.773
16039W        W88354   1.506  10.195   0.141
16040W        W88355  32.504  22.480  14.517
16041W        W88356  28.992  29.023  11.716
16042W        W88357   6.797   4.969   3.639
16043W        W88358  14.658   6.251  13.876
16044W        W88359  39.866  44.323   3.144
16045W        W88360  44.275  18.763  14.036
16046W        W88361  32.649  20.718   1.679
16047W        W88362  31.840  44.573  10.842
16048W        W88363  43.506   7.931  14.915
16049W        W88364   5.854  12.679   0.350
16050W        W88365   9.298  38.407   3.251
16051W        W88366  38.288  25.470  12.905
16052W        W88367   6.171  27.921  12.827
16053W        W88368  28.013  37.310   3.180
16054W        W88369  26.250  40.626  11.056
16055W        W88370  29.708   6.999   2.550
16056W        W88371  25.107  31.872   2.038
16057W        W88372  19.724  34.114  10.782
16058W        W88373  43.329  13.531   2.731
16059W        W88374  28.981  36.936  13.947
16060W        W88375   8.386  12.217   1.713
16061W        W88376  28.162   9.620   0.948
16062W        W88377  21.983  23.212  12.518
16063W        W88378  39.274  30.206   3.545
16064W        W88379  24.438  42.052   4.647
16065W        W88380  43.247  24.799   4.416
16066W        W88381  39.067  14.299  12.077
16067W        W88382  35.347   6.131  12.425
16068W        W88383   6.092  13.039  13.589
16069W        W88384  26.184  26.128   2.109
16070W        W88385  10.054  39.703   3.842
16071W        W88386  13.624  22.998  10.735
16072W        W88387  36.453  34.604  14.990
16073W        W88388  30.617   3.204  13.205
16074W        W88389  14.297  38.470  10.589
16075W        W88390  22.605  10.376   0.360
16076W        W88391   1.366  37.564  10.627
16077W        W88392   9.631  12.568   2.321
16078W        W88393  24.268   9.262   4.581
16079W        W88394  25.277   9.261  14.975
16080W        W88395  44.411  30.266  14.774
16081W        W88396  27.116  33.984   4.132
16082W        W88397  10.263  25.952  10.744
16083W        W88398  33.394  22.531  11.224
16084W        W88399  30.983  18.079   0.603
16085W        W88400  44.711  29.102   1.692
16086W        W88401   0.514  43.822  11.288
16087W        W88402   5.776  17.056  13.886
16088W        W88403  12.167   6.138   1.422
16089W        W88404  23.119  22.783   0.890
16090W        W88405  23.024   3.820   1.395
16091W        W88406   8.245  39.927  11.534
16092W        W88407  11.756  33.711  13.269
16093W        W88408  38.339   2.718  12.923
16094W        W88409  20.591  37.451   0.927
16095W        W88410  40.339  11.962   3.263
16096W        W88411  31.834  10.693  12.733
16097W        W88412  12.152  39.035  14.496
16098W        W88413  40.840  44.375  10.904
16099W        W88414  31.473  28.145   4.563
16100W        W88415  27.109   8.278   4.087
16101W        W88416  37.580  43.598  10.638
16102W        W88417   2.502  30.183   3.788
16103W        W88418   9.217  12.911  12.206
16104W        W88419  38.925  26.067  13.162
16105W        W88420  39.785  19.239  13.160
16106W        W88421  24.065  32.095   3.637
16107W        W88422   2.335  34.579  10.565
16108W        W88423   0.556  32.111  13.821
16109W        W88424  44.385  23.309   4.485
16110W        W88425  40.519  42.527  12.879
16111W        W88426  26.762  40.733   4.901
16112W        W88427  13.259  41.730   0.386
16113W        W88428  25.118  30.883  12.416
16114W        W88429  41.818   9.316  13.946
16115W        W88430   1.895   2.012   1.477
16116W        W88431  37.030  16.832  14.275
16117W        W88432  17.835  40.504  14.441
16118W        W88433  30.699  30.606  10.933
16119W        W88434  15.095  38.858   4.165
16120W        W88435   0.797  25.041   0.902
16121W        W88436   5.250  32.384  10.369
16122W        W88437  25.930  17.790  13.609
16123W        W88438  28.567   0.854  13.595
16124W        W88439  39.986  27.925  14.413
16125W        W88440   4.887   7.806  14.571
16126W        W88441   9.040  23.456  14.592
16127W        W88442  42.085  15.270  12.527
16128W        W88443  32.261  13.437   4.084
16129W        W88444  10.735  29.347  14.790
16130W        W88445  15.827  19.727  13.832
16131W        W88446   5.823  26.752   4.678
16132W        W88447  35.428  35.356  11.552
16133W        W88448  32.898  22.989  14.795
16134W        W88449  37.929  18.633  11.903
16135W        W88450  40.918  39.099   9.976
16136W        W88451   2.458  28.503  14.503
16137W        W88452  42.374  40.920   3.936
16138W        W88453  23.957   8.703   2.811
16139W        W88454  13.773  16.738  12.969
16140W        W88455  32.363  34.107  12.918
16141W        W88456   8.437  15.414   4.990
16142W        W88457  31.029  20.579  12.899
16143W        W88458  24.101  28.959   0.864
16144W        W88459  19.477  31.915   2.577
16145W        W88460  31.724  40.978   2.772
16146W        W88461   1.558  33.020   2.923
16147W        W88462  17.016   7.794  12.990
16148W        W88463  38.860  24.621   4.319
16149W        W88464  18.781  15.342   1.778
16150W        W88465   9.388  25.114  14.864
16151W        W88466   1.890  17.324  12.549
16152W        W88467  18.150  10.213   0.409
16153W        W88468  15.692  31.900  10.362
16154W        W88469  18.436  30.414  10.240
16155W        W88470  23.092   8.395  11.413
16156W        W88471  23.423  36.909   1.170
16157W        W88472  21.191   8.262   0.421
16158W        W88473  37.845  13.406   3.257
16159W        W88474  43.647  19.096   0.942
16160W        W88475  31.449  18.336  14.817
16161W        W88476  35.041  13.135  10.975
16162W        W88477  36.662  19.110  14.932
16163W        W88478  26.228  31.885  14.891
16164W        W88479  40.958  28.857  13.300
16165W        W88480   7.755  12.998  12.286
16166W        W88481  34.322  41.646  12.922
16167W        W88482  14.458  25.158  11.620
16168W        W88483   0.218  18.157  10.853
16169W        W88484  38.565  28.691  10.907
16170W        W88485   1.769  35.055  11.169
16171W        W88486  15.144   4.974  12.935
16172W        W88487  40.932  15.276  13.391
16173W        W88488  44.502  18.998  11.829
16174W        W88489   4.990  20.155  10.554
16175W        W88490  23.595  15.141   0.673
16176W        W88491   7.367  14.520   3.684
16177W        W88492  42.482   0.303  14.409
16178W        W88493  10.372  32.578   1.377
16179W        W88494  18.803  41.499  10.304
16180W        W88495  27.426   5.269   3.815
16181W        W88496  10.843  42.842   5.095
16182W        W88497  32.645  26.555   4.831
16183W        W88498   6.415  17.754  11.456
16184W        W88499  14.523  16.233   4.061
16185W        W88500  28.967  24.963  11.287
16186W        W88501   3.360  37.838   0.382
16187W        W88502  15.416  20.826  10.448
16188W        W88503   5.215  11.440  13.377
16189W        W88504   7.928  18.584  13.534
16190W        W88505   8.778   0.228   4.180
16191W        W88506  31.086  19.169  13.994
16192W        W88507  12.820  20.064   0.881
16193W        W88508  30.385  24.727   3.711
16194W        W88509  13.812  38.525  10.396
16195W        W88510   7.242   9.709  13.426
16196W        W88511  38.985  23.315  13.477
16197W        W88512   0.850  23.400   4.632
16198W        W88513  19.578  44.252   4.198
16199W        W88514  30.046   5.222   0.830
16200W        W88515  29.976  12.612  14.483
16201W        W88516   1.195  30.806   3.851
16202W        W88517  40.890  42.520  14.280
16203W        W88518   7.723   7.446  12.063
16204W        W88519  11.392   5.187   1.377
16205W        W88520  40.434   7.827   2.167
16206W        W88521  36.347  18.591  11.513
16207W        W88522  42.993  39.541   4.402
16208W        W88523   0.575  42.969  14.841
16209W        W88524  31.506  44.224  10.672
16210W        W88525  11.833  26.946  11.110
16211W        W88526   0.925  31.957   0.246
16212W        W88527  13.369  39.087   5.025
16213W        W88528  26.728  18.455  12.626
16214W        W88529  25.805  43.748  14.926
16215W        W88530  15.315  21.926   2.350
16216W        W88531  41.022  33.712   3.754
16217W        W88532  22.093  27.092  14.809
16218W        W88533  33.475  34.906   1.190
16219W        W88534  40.699  15.295  11.230
16220W        W88535  17.682  32.878   0.255
16221W        W88536  30.195  11.149   4.440
16222W        W88537  31.432  17.792   0.594
16223W        W88538  13.333  24.540   1.952
16224W        W88539  38.338   2.672   1.211
16225W        W88540  28.892  44.872  13.067
16226W        W88541  14.336  29.185  11.192
16227W        W88542  17.019   8.317  11.519
16228W        W88543   6.705   9.654   2.771
16229W        W88544  39.098   3.268  13.761
16230W        W88545  17.191  22.764   2.176
16231W        W88546  40.323  26.438  14.301
16232W        W88547  15.140  30.777   3.854
16233W        W88548  12.923  35.079   3.396
16234W        W88549  24.229  44.344   0.451
16235W        W88550  41.825  37.275  14.319
16236W        W88551  44.661  26.381  14.886
16237W        W88552   1.355   8.552  10.604
16238W        W88553  11.890  36.082   4.618
16239W        W88554  41.581  31.980   1.814
16240W        W88555  37.438  41.980   1.985
16241W        W88556  13.732  15.156  10.887
16242W        W88557   4.735  39.610  13.103
16243W        W88558  24.578  34.476   4.947
16244W        W88559  41.183  37.913  12.280
16245W        W88560  17.103  36.662   2.920
16246W        W88561  43.816  19.099  10.700
16247W        W88562   9.674  17.635  14.467
16248W        W88563  30.849  12.168  11.259
16249W        W88564  30.853  44.840  12.340
16250W        W88565  24.120   7.611   0.460
16251W        W88566  18.029  42.392   0.657
16252W        W88567  16.268  18.527   1.001
16253W        W88568  16.091  12.896   3.740
16254W        W88569   0.043  38.405   4.079
16255W        W88570  25.152  14.302  14.782
16256W        W88571  35.060  24.932   2.168
16257W        W88572  36.527   3.156  10.243
16258W        W88573  37.847  18.221   0.984
16259W        W88574  28.389  18.106   4.975
16260W        W88575  32.258  37.992  10.849
16261W        W88576  35.544  34.876  13.526
16262W        W88577  22.525  29.662  11.214
16263W        W88578  21.944  35.898  12.446
16264W        W88579  13.256  26.543   2.851
16265W        W88580  34.330  16.900  13.513
16266W        W88581  13.089  44.460   0.338
16267W        W88582  39.408  42.974  13.324
16268W        W88583  34.876   1.517   1.698
16269W        W88584  15.842   4.442  14.799
16270W        W88585   3.869   4.376  10.765
16271W        W88586  38.446  10.850   4.700
16272W        W88587  14.842  43.935   2.054
16273W        W88588  31.010  43.047  14.382
16274W        W88589  36.084  17.000   0.944
16275W        W88590  26.541   0.780  14.518
16276W        W88591  11.866  40.868  13.463
16277W        W88592  26.091  42.743   5.025
16278W        W88593  26.595   4.529  14.476
16279W        W88594   3.914  11.801  14.426
16280W        W88595  13.353   4.412   2.672
16281W        W88596   6.467  11.887  12.370
16282W        W88597   1.343  25.950  12.015
16283W        W88598  30.114   5.245   1.777
16284W        W88599  31.684  23.569  14.243
16285W        W88600   9.695  33.369  12.487
16286W        W88601  20.501  34.185  14.501
16287W        W88602   9.907  40.018  13.558
16288W        W88603  33.344   3.795  10.641
16289W        W88604  28.907  26.099   1.499
16290W        W88605   5.008  16.704   0.950
16291W        W88606   3.238  15.143   4.417
16292W        W88607   6.212   4.949   2.869
16293W        W88608  43.732  35.572   2.175
16294W        W88609  29.401  41.474  11.594
16295W        W88610  13.420  25.905   4.317
16296W        W88611   2.317   1.882  14.982
16297W        W88612  36.924  30.996   3.193
16298W        W88613  21.612  44.233   3.795
16299W        W88614   2.396   5.077   1.306
16300W        W88615  35.816  37.717   1.754
16301W        W88616   4.717   4.480   4.516
16302W        W88617   6.641  44.422  14.316
16303W        W88618  43.174  12.289  11.595
16304W        W88619  19.748  33.031   1.150
16305W        W88620  19.322  22.636  11.613
16306W        W88621  30.893  38.640   4.142
16307W        W88622   3.318  36.895   1.556
16308W        W88623  10.046  42.597  11.564
16309W        W88624  38.531  30.501   1.852
16310W        W88625  44.800  16.185   4.363
16311W        W88626   5.920  39.466  11.548
16312W        W88627  37.340  33.430   1.864
16313W        W88628   9.778   4.177  10.718
16314W        W88629  11.864   2.343  11.706
16315W        W88630  31.335  14.555   3.865
16316W        W88631   9.703  35.255   0.462
16317W        W88632  11.579  42.932  10.264
16318W        W88633  23.578  26.965   4.864
16319W        W88634  25.431  33.894   0.487
16320W        W88635  14.201   1.963  12.261
16321W        W88636  17.792  22.670  10.979
16322W        W88637   3.906  24.140   1.948
16323W        W88638  10.718  32.565   2.350
16324W        W88639  32.195  16.640  10.641
16325W        W88640  30.193  25.732   4.508
16326W        W88641  29.524   2.412   3.591
16327W        W88642  26.041   6.905  10.984
16328W        W88643  23.103  18.670  11.456
16329W        W88644  27.438  35.991   2.775
16330W        W88645   6.448  35.510   2.413
16331W        W88646  33.122  33.083   3.274
16332W        W88647  16.248  32.623  14.700
16333W        W88648  14.186  21.230  10.649
16334W        W88649  36.817   7.451  12.064
16335W        W88650  43.564  17.222  12.962
16336W        W88651  40.867  10.857  11.459
16337W        W88652  34.572  27.675  11.452
16338W        W88653   6.785  38.550  11.163
16339W        W88654   7.811  39.482   1.502
16340W        W88655  39.994  28.929   3.737
16341W        W88656  21.899  44.137  14.496
16342W        W88657  17.117  30.244   3.163
16343W        W88658  40.206  34.770  12.569
16344W        W88659  23.070  25.285  14.763
16345W        W88660  12.264  17.607  14.446
16346W        W88661  17.363  27.202  13.362
16347W        W88662  37.793  14.571  14.382
16348W        W88663  36.236  12.369   1.157
16349W        W88664  24.994  32.367   2.205
16350W        W88665  44.333  21.507   0.823
16351W        W88666  38.935  10.495  13.582
16352W        W88667  25.988  38.783   2.776
16353W        W88668  27.499  20.179  13.424
16354W        W88669   5.946  20.096  11.577
16355W        W88670  41.950   1.788  10.933
16356W        W88671  26.670  44.233   0.277
16357W        W88672  26.888   0.828  12.658
16358W        W88673  19.015  43.930  13.407
16359W        W88674  17.749  35.064  13.037
16360W        W88675  23.094  19.453  11.052
16361W        W88676  36.880  24.029  12.348
16362W        W88677   7.363  44.519   1.385
16363W        W88678   0.757  33.948  13.491
16364W        W88679   8.373  20.780  14.517
16365W        W88680   0.562  32.736   0.737
16366W        W88681   7.156  21.643   2.685
16367W        W88682  13.793  22.256   3.737
16368W        W88683  33.624  19.200  14.530
16369W        W88684  32.754   5.999   4.589
16370W        W88685  41.183  11.197   1.288
16371W        W88686  24.717  17.366  13.968
16372W        W88687  18.292  24.492   1.491
16373W        W88688  29.740  34.552  12.039
16374W        W88689   4.944  43.927   3.043
16375W        W88690  30.178  44.572  14.381
16376W        W88691  38.638  16.546  11.058
16377W        W88692  18.627  29.091  12.040
16378W        W88693  40.637  26.691   0.750
16379W        W88694  25.950   9.959   3.728
16380W        W88695  28.593   2.045   0.400
16381W        W88696  12.752   9.130  11.959
16382W        W88697  16.819  12.135   3.093
16383W        W88698   7.875   9.197  12.985
16384W        W88699  26.218   6.654   3.766
16385W        W88700  15.325  16.577   4.808
16386W        W88701  12.161  39.496   4.731
16387W        W88702  11.369   1.298  12.121
16388W        W88703  22.231   7.606   3.213
16389W        W88704  12.380  27.935   3.178
16390W        W88705  21.178   0.300   3.668
16391W        W88706  32.142  23.271  11.652
16392W        W88707  23.645  26.792   2.673
16393W        W88708  42.544  10.922  13.049
16394W        W88709   6.927   1.426  13.977
16395W        W88710  12.936   8.177   4.300
16396W        W88711  30.662  29.104   1.022
16397W        W88712  38.591   1.038  14.390
16398W        W88713   0.842  44.958   0.710
16399W        W88714  41.348  14.417   3.809
16400W        W88715  10.612  14.101   3.756
16401W        W88716  22.619  32.939   2.294
16402W        W88717   4.270  37.531   2.901
16403W        W88718   1.915  31.243  13.066
16404W        W88719  44.213  40.405  13.908
16405W        W88720   7.920  15.556   1.858
16406W        W88721   7.289  38.339   0.356
16407W        W88722  29.509  24.083   0.418
16408W        W88723  40.872  42.082   1.158
16409W        W88724  19.969  29.996  13.474
16410W        W88725  43.015  15.401  12.368
16411W        W88726   9.929   5.455  14.862
16412W        W88727  15.305  18.055   3.609
16413W        W88728  16.165   8.164   3.163
16414W        W88729   6.195  43.490   4.518
16415W        W88730  41.327  10.907   3.145
16416W        W88731  22.476  27.862  11.459
16417W        W88732  35.468  19.496  12.577
16418W        W88733  33.395   1.444  13.767
16419W        W88734  40.793  32.515   0.659
16420W        W88735  36.679   3.928   4.644
16421W        W88736  42.522  12.736   2.236
16422W        W88737   9.273   7.879  11.959
16423W        W88738  33.690  19.665   0.286
16424W        W88739  44.452   0.760   1.693
16425W        W88740  26.085  16.105   2.263
16426W        W88741  25.704  22.830  10.991
16427W        W88742  12.827  18.485   5.343
16428W        W88743  25.967  17.918   2.902
16429W        W88744   0.816  15.613   4.450
16430W        W88745  39.060   6.955   5.052
16431W        W88746  27.730  32.376   3.268
16432W        W88747  16.253  32.498   0.219
16433W        W88748  32.911   0.927  12.872
16434W        W88749  36.052   9.776  10.601
16435W        W88750   4.633  17.576   4.711
16436W        W88751  35.014  18.972  14.297
16437W        W88752   7.230  10.408  12.333
16438W        W88753  33.906  26.866  13.520
16439W        W88754   0.834   5.329  13.402
16440W        W88755   1.995  11.741  14.262
16441W        W88756  21.275   3.336   2.772
16442W        W88757  42.515  10.187   2.124
16443W        W88758  44.009   9.873  13.501
16444W        W88759  29.567  28.108   1.386
16445W        W88760  40.831  33.062   4.169
16446W        W88761  36.677  33.984   3.255
16447W        W88762  44.013  16.893  12.092
16448W        W88763   3.865   0.299  10.904
16449W        W88764  44.477   4.275   3.185
16450W        W88765  18.665  30.485   3.644
16451W        W88766  16.383   5.130  12.691
16452W        W88767  14.096   5.026  12.005
16453W        W88768  31.079  11.708  11.306
16454W        W88769   2.988  27.901  11.104
16455W        W88770  19.711  43.812   3.214
16456W        W88771  28.523   7.336   2.718
16457W        W88772   4.235  16.375  12.761
16458W        W88773  20.766  12.208  14.542
16459W        W88774  10.286  28.035   2.767
16460W        W88775  22.690   3.934  12.516
16461W        W88776  18.737  25.027   3.177
16462W        W88777   2.503  40.255  14.044
16463W        W88778   0.586  38.504   1.793
16464W        W88779  32.198  18.984  11.603
16465W        W88780  40.258  14.539  14.858
16466W        W88781  41.388  11.230  12.459
16467W        W88782  28.594  39.370  11.067
16468W        W88783   7.021  33.113   1.263
16469W        W88784   0.260  20.065  11.109
16470W        W88785  23.511  22.186  10.776
16471W        W88786   6.639  21.682   2.891
16472W        W88787  43.527  24.723   3.694
16473W        W88788  18.335  28.660  11.836
16474W        W88789  17.295  36.785  13.498
16475W        W88790  18.936  18.537   3.295
16476W        W88791  16.186  39.815   3.226
16477W        W88792   2.013  42.395   4.487
16478W        W88793  14.205  35.784  11.598
16479W        W88794  21.214   2.028  12.939
16480W        W88795  10.291  14.711  14.814
16481W        W88796  19.693  27.623  14.225
16482W        W88797  21.166   4.726   0.952
16483W        W88798  19.629   1.446  10.547
16484W        W88799  23.569  29.024   2.192
16485W        W88800  42.837  35.700   3.322
16486W        W88801  19.174  27.154  12.964
16487W        W88802  40.346   3.254  14.716
16488W        W88803  25.159  29.692  11.088
16489W        W88804  19.947  32.718  13.726
16490W        W88805  21.403   0.688  10.627
16491W        W88806  33.084   4.824  12.481
16492W        W88807  15.293  29.615  11.171
16493W        W88808   9.818  23.727  14.802
16494W        W88809  23.105  39.567  14.537
16495W        W88810   7.140  31.132  12.463
16496W        W88811  18.597   5.314   0.698
16497W        W88812  13.561   1.945   4.659
16498W        W88813   7.050  43.372   0.490
16499W        W88814  14.330  16.625   0.893
16500W        W88815  39.157  25.280   5.050
16501W        W88816   4.935  14.870   4.128
16502W        W88817  41.395  26.624   3.447
16503W        W88818  14.275   0.926  13.026
16504W        W88819   6.714  34.343   2.659
16505W        W88820  44.783   0.694  11.012
16506W        W88821  27.411   8.583   1.805
16507W        W88822  24.763  44.010  13.467
16508W        W88823  19.831   0.971  13.397
16509W        W88824  27.685  41.169  10.578
16510W        W88825  23.619   7.606  11.114
16511W        W88826  33.710   7.835  11.123
16512W        W88827  12.433  24.959   4.503
16513W        W88828  22.412   1.398   3.573
16514W        W88829   7.120   7.450  13.024
16515W        W88830  33.843  34.893   0.694
16516W        W88831   9.702  43.079   3.449
16517W        W88832   8.362  41.634   4.198
16518W        W88833  23.278  25.028  12.984
16519W        W88834  20.844  40.912  14.753
16520W        W88835  42.307  12.315  12.005
16521W        W88836   7.295  31.839  13.012
16522W        W88837  12.762  10.824   0.009
16523W        W88838  38.573  10.441   2.003
16524W        W88839  35.101  25.645   0.404
16525W        W88840  43.271   7.806   0.426
16526W        W88841   9.802  11.250   1.834
16527W        W88842  34.013  34.044   2.291
16528W        W88843  33.137  30.490  10.674
16529W        W88844   8.194  23.312   3.800
16530W        W88845   8.969  39.490   2.297
16531W        W88846  31.108  22.812   3.604
16532W        W88847  32.859  27.590  12.928
16533W        W88848  35.313  15.649  10.732
16534W        W88849  11.080  44.406   1.443
16535W        W88850  37.375  27.915   5.021
16536W        W88851  23.645  16.122  12.128
16537W        W88852  34.588  36.577   0.541
16538W        W88853   2.883  42.526  11.134
16539W        W88854   6.731  15.062   4.121
16540W        W88855   7.942  24.581  12.076
16541W        W88856   9.800  28.405  11.975
16542W        W88857  13.619   3.777  13.811
16543W        W88858  19.272  36.385  11.414
16544W        W88859  30.614  43.369  11.432
16545W        W88860  14.202  34.121  12.192
16546W        W88861   9.821  39.362  11.658
16547W        W88862  43.819  13.847   1.825
16548W        W88863  32.064  30.092  11.093
16549W        W88864  27.028  30.492   4.421
16550W        W88865  17.559  28.358   0.051
16551W        W88866  16.522  18.792  12.547
16552W        W88867  30.511  36.385  11.977
16553W        W88868  35.050  24.669   3.322
16554W        W88869   5.276  18.751   3.251
16555W        W88870  12.409  42.207   3.129
16556W        W88871  27.064  18.568  14.779
16557W        W88872   6.414   8.488  14.846
16558W        W88873   6.955  20.164   1.311
16559W        W88874  44.073  31.663  12.095
16560W        W88875  28.194  35.802  11.066
16561W        W88876  40.074  14.111  10.677
16562W        W88877  26.962  29.967   4.446
16563W        W88878  11.885  38.481  11.832
16564W        W88879  24.686   9.400  13.514
16565W        W88880  26.704  24.075   2.649
16566W        W88881  40.217  35.326   4.288
16567W        W88882  14.632   3.434   1.389
16568W        W88883  21.574  23.681   4.141
16569W        W88884   7.508  12.111  13.548
16570W        W88885  21.534   1.059   0.455
16571W        W88886  36.507  41.838  14.970
16572W        W88887   5.738  20.788   0.024
16573W        W88888  28.558  11.246   0.258
16574W        W88889  27.547  36.092   2.275
16575W        W88890  38.975  29.016  14.357
16576W        W88891  28.176   0.945  10.719
16577W        W88892  31.492  18.465   4.240
16578W        W88893  22.819   4.038   3.612
16579W        W88894  35.364   7.012   1.719
16580W        W88895  38.865  43.331  14.380
16581W        W88896  42.390  16.619  13.516
16582W        W88897   6.542  36.115   0.451
16583W        W88898  23.932  14.344  13.431
16584W        W88899   2.833   3.958   3.339
16585W        W88900  31.387   9.916   0.297
16586W        W88901  42.023  38.530   0.445
16587W        W88902  16.537  35.113  10.796
16588W        W88903  39.335  28.255  11.989
16589W        W88904  15.599  10.836   4.555
16590W        W88905  41.509   0.816   3.363
16591W        W88906  33.071  34.430  14.686
16592W        W88907  25.799  24.580   0.823
16593W        W88908  25.638  43.015  10.849
16594W        W88909  11.649  20.614  13.546
16595W        W88910  38.997  25.989  11.466
16596W        W88911  26.416  42.374  12.413
16597W        W88912  29.745  41.828  12.913
16598W        W88913  11.052  16.571  12.989
16599W        W88914   9.457   0.781   2.801
16600W        W88915   7.471   0.660   4.240
16601W        W88916  44.734  15.513   3.776
16602W        W88917   6.421  22.274  12.945
16603W        W88918   6.176  30.714  14.893
16604W        W88919  31.378  30.999  12.918
16605W        W88920  14.704  23.119  14.895
16606W        W88921   2.325  33.610   4.638
16607W        W88922  20.097  32.990  11.630
16608W        W88923  12.142  32.426  12.359
16609W        W88924   0.860  33.870   2.710
16610W        W88925  44.834   1.770   4.150
16611W        W88926  35.916   2.474  10.345
16612W        W88927  36.486  14.787  12.863
16613W        W88928  13.923  39.436   2.199
16614W        W88929  15.153  31.075  11.200
16615W        W88930  42.238  17.629   4.417
16616W        W88931  37.488  18.736  12.166
16617W        W88932  21.572  23.306  14.967
16618W        W88933   1.092  15.106   1.577
16619W        W88934  14.789  30.686  12.048
16620W        W88935  42.100   7.303  12.365
16621W        W88936   0.998  35.918  10.269
16622W        W88937  40.833   0.324  10.820
16623W        W88938  37.143  37.095  11.914
16624W        W88939  33.577  32.147   2.453
16625W        W88940  30.256  36.933   2.414
16626W        W88941  25.892  35.958  11.286
16627W        W88942  21.544  28.938   0.335
16628W        W88943  22.670  44.381   2.466
16629W        W88944   8.864   8.246   2.655
16630W        W88945  31.817  22.979   2.743
16631W        W88946  36.837  24.029  14.471
16632W        W88947  20.108   2.196  12.718
16633W        W88948  39.974   8.834   4.621
16634W        W88949  21.222  19.014   2.023
16635W        W88950  19.216  13.375  13.586
16636W        W88951   6.830  14.066   4.248
16637W        W88952  27.997  21.817   4.307
16638W        W88953  32.353  12.687  11.524
16639W        W88954  15.311  24.157   4.841
16640W        W88955   2.226  15.717   2.193
16641W        W88956  42.295  37.150   2.196
16642W        W88957  16.636   6.399  14.224
16643W        W88958  35.480  30.609   1.880
16644W        W88959  11.232  36.003   1.320
16645W        W88960  28.604  26.420  12.016
16646W        W88961   1.107  15.721  10.026
16647W        W88962  31.625   3.401   2.686
16648W        W88963  20.975  35.428  12.891
16649W        W88964  32.180  31.969  14.332
16650W        W88965  22.314  43.228   0.375
16651W        W88966  13.853  27.544   2.286
16652W        W88967  40.899  16.840   0.466
16653W        W88968   8.850  37.177   2.862
16654W        W88969   5.505  23.147   3.395
16655W        W88970  37.364  12.143  13.087
16656W        W88971  17.123  10.926  13.398
16657W        W88972  33.902  17.119  11.863
16658W        W88973  21.630  38.361   4.741
16659W        W88974   8.543  41.274  11.487
16660W        W88975  17.800  17.550   1.382
16661W        W88976  30.684  31.946   2.267
16662W        W88977  29.357  27.597   2.821
16663W        W88978  34.280  20.583   3.786
16664W        W88979  22.847   1.573   2.213
16665W        W88980  33.475  24.092  10.084
16666W        W88981   5.169  10.722  13.806
16667W        W88982   9.520  20.605   4.589
16668W        W88983  15.536  40.488  14.818
16669W        W88984  24.511  39.928   2.359
16670W        W88985  26.161  10.528   4.548
16671W        W88986  34.234   7.449   2.571
16672W        W88987  32.844   6.741   3.165
16673W        W88988  39.939   8.623   0.176
16674W        W88989  30.334  40.486   5.041
16675W        W88990  27.020   6.727   0.966
16676W        W88991  21.762   0.403  12.858
16677W        W88992  30.565  42.778  14.412
16678W        W88993  20.132  13.780  12.512
16679W        W88994  25.590  30.711  12.630
16680W        W88995  14.807   8.341   2.166
16681W        W88996  20.821  10.126  10.936
16682W        W88997  37.983   5.219  12.060
16683W        W88998  23.983  27.855  13.884
16684W        W88999   9.218  41.356  13.513
16685W        W89000  27.233  14.800   4.009
16686W        W89001  36.044  22.565   3.078
16687W        W89002  12.105   0.462  13.907
16688W        W89003  25.717  44.750  14.735
16689W        W89004   7.185  15.980   1.849
16690W        W89005   7.333   1.747  13.913
16691W        W89006  23.864  12.706  11.165
16692W        W89007  37.621  10.552   4.172
16693W        W89008  37.996  40.950  10.742
16694W        W89009  26.891  20.184   0.465
16695W        W89010  32.336  27.063   2.215
16696W        W89011  18.706  24.731   1.284
16697W        W89012   0.087  43.478   3.631
16698W        W89013  15.166  27.904   4.029
16699W        W89014   0.323  23.702   0.892
16700W        W89015  42.554   4.282  14.102
16701W        W89016   6.711  32.449   3.743
16702W        W89017  37.981   6.045  14.818
16703W        W89018  15.268  34.568   4.563
16704W        W89019  43.279  31.755  12.426
16705W        W89020   3.014  32.002   2.272
16706W        W89021  20.765   1.744  12.965
16707W        W89022  14.326  40.597  11.486
16708W        W89023  37.681  19.518   3.225
16709W        W89024  20.820  32.910  14.912
16710W        W89025  36.559  28.604   3.399
16711W        W89026  21.703  26.740  13.600
16712W        W89027  38.052  39.309  11.124
16713W        W89028  38.843  43.419   4.235
16714W        W89029  23.993   9.402   4.155
16715W        W89030  19.546  13.518   0.248
16716W        W89031  13.111   3.206  14.449
16717W        W89032   4.549  34.024   3.642
16718W        W89033  12.587  43.787  10.603
16719W        W89034   2.869  13.853  13.313
16720W        W89035  27.023  38.844   4.279
16721W        W89036  25.544  14.773  12.121
16722W        W89037  10.181   5.610   2.330
16723W        W89038  33.386  11.310  14.940
16724W        W89039  36.004  21.107   4.248
16725W        W89040  29.452   9.797   3.008
16726W        W89041  17.757   4.930   4.280
16727W        W89042   2.937  41.369   3.174
16728W        W89043   4.639  42.554  14.847
16729W        W89044  13.009  31.896   2.127
16730W        W89045  17.640  21.980  11.556
16731W        W89046  34.923  13.263   0.321
16732W        W89047  10.153  10.052  14.802
16733W        W89048  32.868  22.937  12.285
16734W        W89049   8.246  35.181   4.255
16735W        W89050  12.139   7.771  10.589
16736W        W89051   1.005  36.039  13.798
16737W        W89052  14.909  30.723  14.480
16738W        W89053  36.766  13.697  10.505
16739W        W89054  43.784  16.091  12.934
16740W        W89055   1.043   0.716  14.961
16741W        W89056  38.552  33.616  12.831
16742W        W89057  23.728   6.400   0.517
16743W        W89058   2.882   9.902  13.821
16744W        W89059  44.978   7.854   0.712
16745W        W89060   3.028   9.790   3.043
16746W        W89061  22.095  16.979   3.812
16747W        W89062   1.801   2.959  12.916
16748W        W89063  41.551  12.862   1.704
16749W        W89064  30.113  41.480  12.728
16750W        W89065  10.375  36.443   2.164
16751W        W89066   3.754  34.695   0.882
16752W        W89067  17.136  43.042  12.757
16753W        W89068  12.593  30.561  11.463
16754W        W89069  14.823   0.950  11.483
16755W        W89070  12.204  10.151  13.021
16756W        W89071  42.070   6.359  12.445
16757W        W89072  35.876  41.435   2.221
16758W        W89073   8.927  28.947  13.901
16759W        W89074  42.755   4.949   3.558
16760W        W89075  27.716  37.563  12.073
16761W        W89076  19.360  38.900  11.062
16762W        W89077  44.894  11.253   2.886
16763W        W89078   0.808  37.791   3.768
16764W        W89079  25.717  15.746   0.243
16765W        W89080   7.932   0.007  13.079
16766W        W89081  38.337  33.538   1.819
16767W        W89082  27.066  26.661  14.943
16768W        W89083  43.114   0.463   3.193
16769W        W89084  34.684  44.401   3.229
16770W        W89085  34.595  40.255  13.308
16771W        W89086  31.644  26.722   2.897
16772W        W89087  33.486  17.345   4.411
16773W        W89088  17.812  40.922  13.809
16774W        W89089  40.751  29.031   4.150
16775W        W89090   4.949  19.014  14.430
16776W        W89091  12.019  29.811   4.674
16777W        W89092  26.469  16.650  12.393
16778W        W89093  28.585  38.824   4.947
16779W        W89094   9.989  27.582  13.360
16780W        W89095  17.747  42.349   0.226
16781W        W89096   1.554   1.801  12.412
16782W        W89097  17.316  44.368  12.539
16783W        W89098  43.740  26.076  14.562
16784W        W89099  25.201   8.463   2.372
16785W        W89100   0.481  38.314  14.830
16786W        W89101  43.916   5.661  10.994
16787W        W89102  39.241   4.654  12.669
16788W        W89103  17.584  18.268   3.327
16789W        W89104  22.497  14.204  11.753
16790W        W89105   3.861  39.813  14.046
16791W        W89106  40.911  42.544  12.488
16792W        W89107  37.876  27.619  12.360
16793W        W89108  26.732  26.631   1.220
16794W        W89109  38.715  32.584  12.401
16795W        W89110   1.846  26.255  12.016
16796W        W89111  22.976  36.406   4.939
16797W        W89112  15.427   7.702   0.760
16798W        W89113  28.139   2.397   2.803
16799W        W89114  25.557  36.046  13.793
16800W        W89115  14.585  14.223   1.307
16801W        W89116  42.516   4.841   2.230
16802W        W89117  42.451  20.198   4.075
16803W        W89118   0.934  32.913   0.399
16804W        W89119   6.183  27.675   3.664
16805W        W89120  19.037   6.795   2.229
16806W        W89121  42.391  13.584  10.688
16807W        W89122  31.242  30.145   2.191
16808W        W89123   9.220  12.180   3.137
16809W        W89124  35.016  10.130   3.129
16810W        W89125  41.002  29.078   3.690
16811W        W89126   9.117  25.364   2.006
16812W        W89127   1.015  22.515  11.586
16813W        W89128  31.703  12.644   0.740
16814W        W89129  12.763  42.244   3.537
16815W        W89130   8.366  31.158  14.764
16816W        W89131  20.140  17.803   1.724
16817W        W89132  18.812   5.728   2.740
16818W        W89133  34.185  32.087  12.068
16819W        W89134  22.549  41.526  14.940
16820W        W89135  23.507  15.172   2.840
16821W        W89136  44.058  14.860  13.317
16822W        W89137  19.104  18.528   4.556
16823W        W89138   5.871  41.834   4.464
16824W        W89139   6.259  44.445  10.143
16825W        W89140  33.556  11.754  13.872
16826W        W89141   5.891  42.504  14.348
16827W        W89142  20.742  40.947   1.788
16828W        W89143   9.882  28.014  10.436
16829W        W89144   4.747  20.274  13.805
16830W        W89145   5.436  21.141   3.739
16831W        W89146  27.047   5.913  13.710
16832W        W89147  25.809  44.719  13.472
16833W        W89148  17.155  32.168  13.790
16834W        W89149  34.507  28.931   4.417
16835W        W89150   1.926  13.575  11.724
16836W        W89151  22.635  41.338  14.408
16837W        W89152   7.673  16.750   2.196
16838W        W89153  25.145  25.713  12.363
16839W        W89154   1.810   9.457  10.653
16840W        W89155  32.408  22.023  14.076
16841W        W89156   2.021   7.330  12.127
16842W        W89157  32.333   6.200   2.572
16843W        W89158  29.240  44.321   3.983
16844W        W89159  24.197  43.293  13.942
16845W        W89160   6.772  32.580  12.965
16846W        W89161  19.640   1.881  14.773
16847W        W89162  19.820  17.152  13.453
16848W        W89163  10.487  23.024  14.892
16849W        W89164   6.508   0.842  12.207
16850W        W89165  20.083  22.359   0.357
16851W        W89166  15.593  41.015   3.217
16852W        W89167  15.404  10.806   1.847
16853W        W89168   6.333  41.833  14.311
16854W        W89169  44.816  17.811   1.783
16855W        W89170  43.018   5.469  14.730
16856W        W89171  25.068  26.280   2.874
16857W        W89172   6.380  25.126  11.146
16858W        W89173   5.521   1.562   3.741
16859W        W89174   9.843  28.495   1.310
16860W        W89175  36.980  17.038  10.659
16861W        W89176   7.834  41.940   3.199
16862W        W89177  14.305  26.993   1.717
16863W        W89178  19.226  17.315   4.481
16864W        W89179  27.153  14.260   0.931
16865W        W89180   1.402   9.710   2.364
16866W        W89181  22.697  33.134   4.278
16867W        W89182   2.414  19.017  14.108
16868W        W89183  34.526  30.095   2.710
16869W        W89184  44.292   4.248  14.807
16870W        W89185   8.102   1.897   3.591
16871W        W89186  21.492   4.749  14.557
16872W        W89187  38.827  37.028  14.464
16873W        W89188   4.263   1.884   3.077
16874W        W89189  21.478  22.391   1.689
16875W        W89190   7.258  37.816   0.362
16876W        W89191  34.275  25.558  12.597
16877W        W89192  42.962   7.214  13.900
16878W        W89193  35.734  20.503  11.165
16879W        W89194  28.479   8.948   4.157
16880W        W89195  36.900   2.696   0.035
16881W        W89196  17.909  21.507  14.403
16882W        W89197  28.448  31.439   9.648
16883W        W89198  17.492  22.326  13.009
16884W        W89199   9.119  13.705   4.252
16885W        W89200  22.751  43.583   2.587
16886W        W89201   2.689  37.084  14.999
16887W        W89202  13.551  42.755   1.625
16888W        W89203  25.529  43.060  10.358
16889W        W89204  34.885  18.739  14.907
16890W        W89205   7.369  44.395  13.487
16891W        W89206  34.856  24.055  12.415
16892W        W89207   2.551  10.771  13.777
16893W        W89208  20.095  25.714   0.086
16894W        W89209  29.677   3.465  11.796
16895W        W89210  34.815   7.947   3.600
16896W        W89211  41.083  36.283   0.242
16897W        W89212  43.348  10.901   1.801
16898W        W89213  26.642  25.058  14.544
16899W        W89214  28.423   0.752   0.447
16900W        W89215   6.246  22.753   2.736
16901W        W89216  41.997   4.078   4.125
16902W        W89217   4.920  19.634   2.819
16903W        W89218  36.659  23.646   0.035
16904W        W89219  32.184   4.679   4.940
16905W        W89220  13.494   8.580  10.140
16906W        W89221  39.567   4.411   3.291
16907W        W89222  38.589   7.151  11.548
16908W        W89223  42.803   1.753   2.852
16909W        W89224  14.983  30.014  12.305
16910W        W89225  32.422  15.739   1.977
16911W        W89226  15.793  44.908   2.718
16912W        W89227  29.886  13.644   0.301
16913W        W89228  18.802  11.841  13.915
16914W        W89229  39.982  10.734  11.892
16915W        W89230   7.689   3.939   0.031
16916W        W89231   9.952  33.176   4.101
16917W        W89232  37.387   5.621  11.179
16918W        W89233   9.975  26.616  13.572
16919W        W89234  24.481  27.740  11.555
16920W        W89235   4.720  17.661  11.902
16921W        W89236  33.644  20.199   4.062
16922W        W89237  39.332  32.862  12.900
16923W        W89238  23.669  35.828   3.664
16924W        W89239  33.873  42.599   2.488
16925W        W89240   5.721  32.841   4.541
16926W        W89241  34.515   9.150  12.887
16927W        W89242  44.039   5.249   2.967
16928W        W89243  39.770   5.280   3.668
16929W        W89244  36.938  41.528  13.855
16930W        W89245  36.404  23.047  10.747
16931W        W89246  21.973  20.306  11.009
16932W        W89247   7.413   7.824  11.378
16933W        W89248   2.617   2.875  12.011
16934W        W89249  33.390  18.566  13.349
16935W        W89250  19.694  22.223  11.088
16936W        W89251  41.635  26.756   0.855
16937W        W89252   4.829   1.936  10.733
16938W        W89253  36.049  42.061   0.276
16939W        W89254   8.989  30.083   2.570
16940W        W89255  27.168  20.246   4.433
16941W        W89256  27.109  31.420   2.826
16942W        W89257   7.904  25.146   9.982
16943W        W89258  42.001  34.496   0.368
16944W        W89259  26.180  32.374   3.529
16945W        W89260  17.731  11.693   2.206
16946W        W89261  35.430   9.022  11.430
16947W        W89262  37.958  44.877  14.919
16948W        W89263  21.331  21.748   5.504
16949W        W89264  18.180  35.511  10.677
16950W        W89265  41.888  39.508   1.408
16951W        W89266  35.362  40.028   1.243
16952W        W89267  38.910   9.737  14.904
16953W        W89268  41.538   4.525   3.606
16954W        W89269   3.621  18.042  13.886
16955W        W89270  18.731  13.176   1.392
16956W        W89271  23.760  22.485   1.807
16957W        W89272  41.476   7.008  13.974
16958W        W89273  13.731  16.764   4.562
16959W        W89274   2.712  32.126   4.093
16960W        W89275  38.798  33.542   2.746
16961W        W89276  17.638  16.237  14.370
16962W        W89277  39.054  32.835   1.673
16963W        W89278   1.397  42.836   4.565
16964W        W89279  24.964   2.239  10.670
16965W        W89280   8.913  25.122   2.460
16966W        W89281  32.396  12.314  11.157
16967W        W89282  17.096  19.791  14.363
16968W        W89283  43.496  14.767   4.699
16969W        W89284  18.252  10.284  11.613
16970W        W89285  28.226   1.964  10.864
16971W        W89286  21.995   2.501   0.862
16972W        W89287   2.426  42.153   2.725
16973W        W89288  19.660  39.483   4.381
16974W        W89289   4.211  29.121  12.367
16975W        W89290  34.440   1.236   1.862
16976W        W89291  22.085   1.547  11.971
16977W        W89292  24.285  18.314   5.118
16978W        W89293  36.518  30.307  14.696
16979W        W89294   7.192  40.056   0.687
16980W        W89295  41.299  13.911  11.647
16981W        W89296  26.722  22.376   3.886
16982W        W89297  27.157  26.554   2.406
16983W        W89298  31.713  19.269   3.334
16984W        W89299  42.072  21.281  14.778
16985W        W89300  13.177  13.862  13.505
16986W        W89301  17.687   7.846   1.838
16987W        W89302  20.188   6.468   2.209
16988W        W89303  31.994   6.879   3.694
16989W        W89304  14.668  10.108   4.151
16990W        W89305  20.500   0.545   3.159
16991W        W89306  27.600  17.638   0.724
16992W        W89307  16.477  29.534  12.895
16993W        W89308  32.603   2.359   3.413
16994W        W89309  41.231  18.207  14.472
16995W        W89310  38.118  16.641   1.990
16996W        W89311   8.229  13.750  11.049
16997W        W89312  34.349  27.935  14.636
16998W        W89313   6.636  42.874  10.458
16999W        W89314  39.287  29.324   4.693
17000W        W89315   3.878   6.887   2.733
17001W        W89316  44.823   9.727  11.048
17002W        W89317  21.953   6.712   1.185
17003W        W89318  31.836  19.143   0.785
17004W        W89319  21.535  30.953   4.613
17005W        W89320  42.058  10.195   4.225
17006W        W89321  21.980  18.849   4.470
17007W        W89322  33.145  13.764  14.090
17008W        W89323  30.889  19.000   3.650
17009W        W89324  32.047  14.187   0.523
17010W        W89325  43.939  24.071  10.557
17011W        W89326  33.938  28.027  11.169
17012W        W89327  25.986  30.135   2.797
17013W        W89328   2.859  13.881   3.400
17014W        W89329   2.182   1.044   3.698
17015W        W89330  17.800  12.269  10.668
17016W        W89331  36.596  24.279  11.931
17017W        W89332   7.266  23.082   0.821
17018W        W89333  29.397   4.474   2.405
17019W        W89334  33.653  27.597  11.179
17020W        W89335  24.064  20.299   3.324
17021W        W89336  28.924  10.255  12.584
17022W        W89337   9.575   3.282  11.150
17023W        W89338  20.597  41.091   3.788
17024W        W89339  26.490  19.993   4.200
17025W        W89340   5.478  13.353  10.810
17026W        W89341  13.372  29.908   1.759
17027W        W89342  44.322  44.357  14.058
17028W        W89343  35.441   1.928   0.059
17029W        W89344  36.913  13.980   3.240
17030W        W89345  15.897  41.883   3.353
17031W        W89346  12.829   3.111   1.798
17032W        W89347  36.225  12.366   1.691
17033W        W89348  43.734  30.605   1.674
17034W        W89349  10.867  41.004   0.067
17035W        W89350   2.017   6.675  10.797
17036W        W89351  35.520   8.725   3.780
17037W        W89352  30.604  26.252  11.550
17038W        W89353  29.800  35.325   0.187
17039W        W89354  35.889  27.629   4.809
17040W        W89355  39.557   1.257  12.499
17041W        W89356   2.153  28.026   4.497
17042W        W89357  14.126   7.887   1.493
17043W        W89358  33.562  31.500   0.211
17044W        W89359  20.612  44.273   2.944
17045W        W89360  39.897  11.449   0.504
17046W        W89361  32.622  43.841  14.372
17047W        W89362  11.810  34.182  13.047
17048W        W89363  13.564  41.389   4.365
17049W        W89364  19.235   3.168   0.352
17050W        W89365  30.565  33.425   2.296
17051W        W89366   0.285  44.276  11.171
17052W        W89367  38.773   6.682   4.114
17053W        W89368  25.156  17.203   2.319
17054W        W89369   2.441  10.733  10.614
17055W        W89370  10.274  42.076  11.071
17056W        W89371  18.734  27.600   1.144
17057W        W89372   9.820   0.355  10.764
17058W        W89373  34.156  18.848   1.504
17059W        W89374  35.289  31.049  13.266
17060W        W89375   9.409  16.237   0.778
17061W        W89376  26.305  17.995  13.914
17062W        W89377  23.522   1.691  12.034
17063W        W89378   5.244  29.187   1.691
17064W        W89379  31.727  41.487   2.184
17065W        W89380  35.916  21.192  10.616
17066W        W89381  12.437  43.348   0.662
17067W        W89382  44.511  41.259  12.881
17068W        W89383   2.903  33.447   0.487
17069W        W89384  15.443  15.680  10.748
17070W        W89385  36.000  27.666   2.751
17071W        W89386  37.508  18.572  14.850
17072W        W89387  20.987  31.609   4.174
17073W        W89388  33.678  43.158   0.515
17074W        W89389  31.396  36.377   1.814
17075W        W89390  31.528  23.116   3.657
17076W        W89391  32.469   6.246  13.605
17077W        W89392  14.259   5.654   2.314
17078W        W89393  17.870  43.942   2.797
17079W        W89394   1.543  18.159  14.957
17080W        W89395   1.664  32.588   0.486
17081W        W89396  30.188   0.140  14.385
17082W        W89397   1.959  15.080  11.554
17083W        W89398  37.467  31.429  12.393
17084W        W89399  17.326  21.165  11.775
17085W        W89400  28.616   3.953  10.670
17086W        W89401  12.131  38.579   1.740
17087W        W89402  36.486  12.970  11.171
17088W        W89403  16.139  14.502  13.627
17089W        W89404  20.769  29.953  10.656
17090W        W89405  26.963  26.012  13.085
17091W        W89406  41.118  30.590   4.681
17092W        W89407  31.143   1.292   0.055
17093W        W89408   6.349  36.777   2.746
17094W        W89409  28.609  31.505  12.867
17095W        W89410  31.751  10.112   4.521
17096W        W89411  27.138  27.157   3.213
17097W        W89412  34.844  38.521  10.818
17098W        W89413  29.263  26.043   3.559
17099W        W89414  28.702  12.295   1.746
17100W        W89415  14.091  16.064  13.577
17101W        W89416   4.297  33.328   1.339
17102W        W89417   7.398  17.518  10.748
17103W        W89418  26.771   5.376   2.585
17104W        W89419  30.118  44.376   3.151
17105W        W89420  44.324  24.976   1.320
17106W        W89421  14.506   1.775  11.852
17107W        W89422  37.803  31.833   1.457
17108W        W89423   7.681  39.406   4.530
17109W        W89424  16.658   0.839  10.978
17110W        W89425  36.429  40.611   2.839
17111W        W89426  33.369   6.820   2.329
17112W        W89427  38.348  42.348  13.560
17113W        W89428  35.207  12.291   1.527
17114W        W89429  35.315  36.659   2.167
17115W        W89430  12.183  35.009  10.548
17116W        W89431   5.253   6.887  13.892
17117W        W89432  10.259  18.018  11.501
17118W        W89433  40.787  25.573  12.542
17119W        W89434  28.607  42.495   2.262
17120W        W89435  13.048  31.342   0.267
17121W        W89436  44.356  32.254  11.083
17122W        W89437   1.985   7.171  14.017
17123W        W89438  22.465  43.275   1.680
17124W        W89439  10.889  28.498  11.710
17125W        W89440  19.076  30.159  14.538
17126W        W89441  13.649   3.242   0.377
17127W        W89442  28.408  22.977   4.777
17128W        W89443  16.839  44.466  13.785
17129W        W89444  43.599  11.530   5.474
17130W        W89445  26.185  44.202   4.592
17131W        W89446   7.905   7.414   2.682
17132W        W89447  39.366  34.155  12.437
17133W        W89448  44.332  33.607   2.336
17134W        W89449  15.113  37.993   2.761
17135W        W89450  27.161   3.319   4.626
17136W        W89451  25.052  30.442   2.277
17137W        W89452   5.132  39.514  13.980
17138W        W89453  35.640   6.525   2.776
17139W        W89454  23.647   6.405  13.868
17140W        W89455  34.983   9.914   3.645
17141W        W89456  20.252  18.716   0.002
17142W        W89457  27.048   6.857  12.010
17143W        W89458  43.384   9.420   4.043
17144W        W89459  15.784  13.089   2.746
17145W        W89460   7.791  37.075  14.767
17146W        W89461  24.122  25.649  10.895
17147W        W89462  12.126  33.535  11.484
17148W        W89463  28.052  44.461  10.560
17149W        W89464   3.137   4.327  12.445
17150W        W89465   1.935  19.208  14.270
17151W        W89466  44.892  14.688   2.854
17152W        W89467  28.334  21.024  10.992
17153W        W89468  31.456   1.262   2.927
17154W        W89469  42.347  33.656   4.287
17155W        W89470   0.837  43.815   2.790
17156W        W89471  43.144  18.122  14.044
17157W        W89472  37.020  35.377   3.671
17158W        W89473  36.160   6.955  10.754
17159W        W89474  37.223  42.776  11.032
17160W        W89475  26.301  29.147  12.986
17161W        W89476  10.793  41.800   1.355
17162W        W89477  21.023  20.363   0.704
17163W        W89478  42.089  31.570   1.384
17164W        W89479   3.943  26.624  11.943
17165W        W89480  35.329  35.984  11.798
17166W        W89481  14.668  17.801   2.291
17167W        W89482  17.127   0.581   4.938
17168W        W89483   7.965  40.373  12.011
17169W        W89484  14.025   6.197   3.678
17170W        W89485  13.535  14.772   2.498
17171W        W89486   2.173  22.267   4.607
17172W        W89487  20.485  19.939  13.229
17173W        W89488  23.320  21.141   1.813
17174W        W89489  26.112  35.112   4.221
17175W        W89490  39.308  27.886   2.332
17176W        W89491  35.974  43.219  13.086
17177W        W89492   1.286  40.426  10.813
17178W        W89493  26.391  10.438  12.882
17179W        W89494   0.635   5.488  12.334
17180W        W89495  23.995   8.268   2.255
17181W        W89496   2.346  29.762  10.360
17182W        W89497  25.667  41.294  13.926
17183W        W89498  36.334  36.536  13.331
17184W        W89499  19.626   6.819   3.598
17185W        W89500  41.337  16.571   2.673
17186W        W89501  27.977  23.141   0.775
17187W        W89502   4.414   9.897   0.471
17188W        W89503  34.918   6.658   4.800
17189W        W89504   6.142  29.619  11.130
17190W        W89505  28.383  22.099   3.084
17191W        W89506  35.363  32.669  12.842
17192W        W89507  10.355  44.398  14.771
17193W        W89508  15.780   4.876  11.448
17194W        W89509  16.065  15.033   2.134
17195W        W89510   2.877  41.903  12.781
17196W        W89511  32.430  19.822  12.397
17197W        W89512  15.266  29.311  13.375
17198W        W89513  39.045  23.585  13.033
17199W        W89514  12.088   3.768  10.692
17200W        W89515   0.824   9.651  11.085
17201W        W89516  33.452  34.904  12.947
17202W        W89517   1.630  25.564  12.481
17203W        W89518  10.608   1.403  12.540
17204W        W89519   6.257  24.195   3.236
17205W        W89520  31.376  40.503   4.749
17206W        W89521  27.294  10.202  12.072
17207W        W89522  28.074  21.560  14.062
17208W        W89523  12.615   2.685  10.625
17209W        W89524  14.960  10.345  11.573
17210W        W89525   2.227   9.879   4.370
17211W        W89526  31.064  43.981   1.005
17212W        W89527  24.738  34.322   2.664
17213W        W89528   4.364  39.310  11.123
17214W        W89529  22.855  29.933  13.008
17215W        W89530  16.281  25.502   1.374
17216W        W89531  44.392  35.484   1.708
17217W        W89532  21.033  12.062   1.224
17218W        W89533   0.733  42.551   2.340
17219W        W89534  22.010  14.786  11.707
17220W        W89535  28.478  18.191  12.647
17221W        W89536   5.704  40.927   3.595
17222W        W89537  11.089   6.661  12.746
17223W        W89538  40.336  16.859  13.536
17224W        W89539  43.817  30.887   2.847
17225W        W89540   1.117  42.490  12.467
17226W        W89541  20.729  16.607  11.192
17227W        W89542  35.254  43.342   4.589
17228W        W89543  39.739  26.177   2.231
17229W        W89544  11.490  41.767  12.626
17230W        W89545  18.507  16.171   1.381
17231W        W89546  27.516  23.435   2.236
17232W        W89547  28.082  24.427   3.583
17233W        W89548  11.150  40.420   3.572
17234W        W89549  29.584  41.631  13.892
17235W        W89550  21.779  23.985   4.543
17236W        W89551  11.661  19.518   0.399
17237W        W89552  43.394   9.450  13.457
17238W        W89553  16.982   8.366   1.972
17239W        W89554  12.126  23.148  12.424
17240W        W89555  31.741  38.383  13.388
17241W        W89556  30.886  27.538   3.306
17242W        W89557   2.236  20.531   4.295
17243W        W89558   9.038  43.599   1.304
17244W        W89559  13.645  13.706   4.511
17245W        W89560   8.360  24.211   4.377
17246W        W89561  15.622  32.750  14.570
17247W        W89562  42.381  36.538   0.328
17248W        W89563  34.279  41.992  14.099
17249W        W89564   3.865  31.645   1.754
17250W        W89565   9.158  18.063  14.315
17251W        W89566   1.263  21.631   0.289
17252W        W89567  44.435   7.757   1.923
17253W        W89568   2.750   9.417   3.305
17254W        W89569  19.545   4.162   4.025
17255W        W89570  36.494  44.006  12.877
17256W        W89571  28.004  10.399  14.204
17257W        W89572  39.871  14.864  12.416
17258W        W89573  34.939   9.693  13.906
17259W        W89574  38.533  43.173   3.214
17260W        W89575  42.818   7.415  13.073
17261W        W89576  14.559   6.374   2.666
17262W        W89577  39.194  35.661   0.914
17263W        W89578  26.108   1.947  14.281
17264W        W89579  36.660  27.994  13.508
17265W        W89580  25.111  42.100  13.328
17266W        W89581  16.310   4.871   1.938
17267W        W89582  16.602  28.974  11.223
17268W        W89583  14.790  22.828  10.301
17269W        W89584  20.204  15.786   4.824
17270W        W89585   1.511  24.628   1.702
17271W        W89586  25.703   4.799   3.197
17272W        W89587  43.522  17.514  14.235
17273W        W89588  16.263  43.511  12.407
17274W        W89589  27.223  16.649   4.561
17275W        W89590  24.621  36.544  14.406
17276W        W89591  29.567  34.754   3.101
17277W        W89592   3.402  32.367  10.397
17278W        W89593   7.909  42.403   3.568
17279W        W89594  44.294  25.163  14.940
17280W        W89595  13.812  35.358   1.743
17281W        W89596  26.727  42.036  13.682
17282W        W89597  25.343   3.811  11.125
17283W        W89598  30.108  23.022  10.729
17284W        W89599   0.670   9.954  14.625
17285W        W89600   0.418  20.052   2.974
17286W        W89601  36.157   4.295   2.163
17287W        W89602  41.089  20.738  13.494
17288W        W89603  35.437  25.021   0.790
17289W        W89604   8.441   8.426  12.629
17290W        W89605  36.097  36.397   0.341
17291W        W89606  37.711  18.808  14.431
17292W        W89607  41.787  10.156  13.151
17293W        W89608  29.516  40.873   2.697
17294W        W89609  36.382  20.630   1.221
17295W        W89610  25.236   8.703   3.296
17296W        W89611   8.294  12.218  10.714
17297W        W89612  36.568  33.139  13.060
17298W        W89613  27.145  11.385   0.009
17299W        W89614  27.594  36.107  10.865
17300W        W89615  15.745   0.489   4.198
17301W        W89616  25.638  39.157  11.993
17302W        W89617  19.179  10.836   5.377
17303W        W89618  23.596  38.994  11.345
17304W        W89619  38.356  13.373  13.974
17305W        W89620   3.181  29.577  13.875
17306W        W89621  33.872  30.858   4.517
17307W        W89622  42.997   5.319   3.184
17308W        W89623   4.826  25.622   3.642
17309W        W89624  11.659  39.861   4.097
17310W        W89625  20.072   7.700   4.352
17311W        W89626  17.594  16.661   2.538
17312W        W89627  11.242   7.760   1.881
17313W        W89628  12.557   7.941   2.228
17314W        W89629  18.653  23.273   4.060
17315W        W89630  41.235  25.386  13.841
17316W        W89631  11.870  21.464   2.283
17317W        W89632  10.298  31.827   1.373
17318W        W89633  41.950  13.145   4.559
17319W        W89634  20.534  33.493  13.880
17320W        W89635  19.082  14.383   2.518
17321W        W89636   8.194  11.514  13.862
17322W        W89637  16.294  14.159  12.858
17323W        W89638   8.374  15.579   2.773
17324W        W89639  29.552  35.454  12.391
17325W        W89640   3.803   6.990  13.480
17326W        W89641  11.381  38.536   4.705
17327W        W89642   0.394  15.238  10.566
17328W        W89643  32.408  30.482  12.312
17329W        W89644  17.834   9.420  12.604
17330W        W89645  10.452  23.238  13.911
17331W        W89646   5.789   3.527  10.576
17332W        W89647  42.612   0.463  13.046
17333W        W89648  41.424  36.949   1.416
17334W        W89649  38.891  18.626  12.363
17335W        W89650   9.360  41.083  11.928
17336W        W89651  15.777  23.227   0.409
17337W        W89652  42.073   0.292  11.556
17338W        W89653  44.448  22.575   3.348
17339W        W89654  41.329  10.428  12.846
17340W        W89655  35.516  22.195   3.663
17341W        W89656  15.597  42.631   0.015
17342W        W89657  41.973  10.190   1.408
17343W        W89658  42.190   9.114   3.691
17344W        W89659  36.144  19.736  11.081
17345W        W89660   8.515  21.318   5.258
17346W        W89661  15.322   9.399  13.593
17347W        W89662   3.418   1.069  11.109
17348W        W89663  44.454  12.712   0.283
17349W        W89664  13.189  25.646   1.239
17350W        W89665  39.764   5.663  14.419
17351W        W89666  27.506   2.043  11.000
17352W        W89667   8.275  26.022  12.481
17353W        W89668   4.384  19.212   2.076
17354W        W89669  14.393  23.624  12.317
17355W        W89670  38.915  13.346  11.393
17356W        W89671  41.812  44.012   3.799
17357W        W89672  33.801  15.148   2.918
17358W        W89673  23.254  41.054   4.134
17359W        W89674  29.609  35.554   1.393
17360W        W89675  16.788   4.168  10.751
17361W        W89676  44.201  17.248   5.130
17362W        W89677  33.704   2.292  11.960
17363W        W89678   3.365  42.065   1.356
17364W        W89679  31.699  29.926   3.217
17365W        W89680  28.995  44.877  12.035
17366W        W89681  43.469   6.882   4.947
17367W        W89682  37.988  25.639   1.405
17368W        W89683   4.992   9.333  10.490
17369W        W89684  18.542  31.503   0.739
17370W        W89685  36.612  16.327   2.821
17371W        W89686  22.487  21.703   3.788
17372W        W89687  18.363  29.020  10.561
17373W        W89688   5.330  36.463  11.389
17374W        W89689  13.634  28.620  13.471
17375W        W89690   5.437  26.643   1.012
17376W        W89691  37.956  17.742  11.225
17377W        W89692  11.285  23.792   4.005
17378W        W89693  24.151   8.396  12.363
17379W        W89694  32.124   2.074  12.700
17380W        W89695  43.818   4.811  13.686
17381W        W89696  36.835  29.564  13.941
17382W        W89697  38.071  20.204  12.537
17383W        W89698  25.453  10.715   0.807
17384W        W89699  23.941  29.745   1.285
17385W        W89700  17.802  12.803   0.799
17386W        W89701  42.192  43.704   3.581
17387W        W89702  39.400  36.981  12.900
17388W        W89703  42.488  31.781   3.506
17389W        W89704  22.563  44.513  13.379
17390W        W89705  32.154  20.549   1.773
17391W        W89706  15.618  14.817   1.958
17392W        W89707  41.497   3.787   4.566
17393W        W89708  42.854  25.880   1.980
17394W        W89709  23.064  13.322  13.330
17395W        W89710  11.771  13.575  12.077
17396W        W89711  36.023   0.412   3.378
17397W        W89712  12.160   3.529   1.691
17398W        W89713  40.012   9.713   4.672
17399W        W89714  25.650  24.054   1.197
17400W        W89715   4.705  19.827   4.352
17401W        W89716  11.235  33.880   2.681
17402W        W89717  11.833  41.024   2.712
17403W        W89718  36.577   2.383  13.867
17404W        W89719  23.601  42.312  14.551
17405W        W89720  31.454  35.323  12.896
17406W        W89721  12.829  39.888  13.628
17407W        W89722  28.013  17.400   0.948
17408W        W89723   6.891  38.233   4.042
17409W        W89724  26.662  32.544  13.390
17410W        W89725  15.075  19.624   1.298
17411W        W89726  12.374  18.191   1.389
17412W        W89727   3.878  20.670   0.574
17413W        W89728  28.346   5.411   3.701
17414W        W89729  43.417   1.937   4.182
17415W        W89730  18.347  12.248  10.318
17416W        W89731  27.149  31.300  13.060
17417W        W89732  40.256   2.360  11.219
17418W        W89733   0.773  25.091   1.824
17419W        W89734  44.807   2.536   2.059
17420W        W89735  15.007   4.946  11.144
17421W        W89736  39.280  43.436  14.064
17422W        W89737   4.140   4.909   4.218
17423W        W89738   2.680  31.133  11.562
17424W        W89739   0.351  37.560  14.431
17425W        W89740  32.076   2.791   2.908
17426W        W89741   7.536  34.878   0.922
17427W        W89742   9.982   4.679   3.274
17428W        W89743  42.866  29.550   1.726
17429W        W89744  25.258   6.263  12.980
17430W        W89745  26.791  44.446   5.148
17431W        W89746  43.994   2.581   3.144
17432W        W89747  34.862  27.984  12.041
17433W        W89748   1.750  35.174   4.176
17434W        W89749  13.240   5.222  11.922
17435W        W89750  29.051  15.099   2.275
17436W        W89751  20.612   7.125  12.986
17437W        W89752  29.671  34.051   4.159
17438W        W89753   9.339  31.111  11.689
17439W        W89754  26.216  30.186  12.013
17440W        W89755  21.665  23.941   1.350
17441W        W89756   2.788  29.357   1.926
17442W        W89757  43.235  23.719   0.911
17443W        W89758  10.266  38.452  10.110
17444W        W89759   7.481  43.866   2.364
17445W        W89760  34.862  41.268   1.322
17446W        W89761   3.313  19.383  11.044
17447W        W89762   3.253  34.377  13.819
17448W        W89763  25.194  44.149  11.551
17449W        W89764  33.520   0.415   3.174
17450W        W89765   9.401   7.403   2.769
17451W        W89766  44.146  39.785   2.402
17452W        W89767  25.545  31.195  12.446
17453W        W89768  42.224  22.290   5.169
17454W        W89769  41.857  21.151  10.672
17455W        W89770  29.806  33.683  12.885
17456W        W89771  27.566  10.250  13.882
17457W        W89772  35.088  14.056  10.956
17458W        W89773  11.361  44.424  14.479
17459W        W89774  10.759   4.494  13.862
17460W        W89775  10.705   2.734   2.861
17461W        W89776  13.856  21.496  14.785
17462W        W89777  16.045  38.464  12.023
17463W        W89778  44.469  41.989  13.463
17464W        W89779  14.331  27.974   1.673
17465W        W89780  33.550  11.334  10.169
17466W        W89781  38.517  15.199   3.758
17467W        W89782  44.211   1.742  11.230
17468W        W89783  17.898  19.348  11.700
17469W        W89784  10.594  40.287  10.029
17470W        W89785  40.293  35.563   1.732
17471W        W89786   3.890  15.618   2.361
17472W        W89787   7.281  19.329  12.583
17473W        W89788  18.122   8.970  13.981
17474W        W89789  25.300  25.075  13.041
17475W        W89790  15.439  39.397   1.809
17476W        W89791  14.259  19.615   4.671
17477W        W89792  15.798  28.472  14.344
17478W        W89793  27.288  36.713   3.716
17479W        W89794  37.997  16.498   1.019
17480W        W89795   1.237  43.266  13.907
17481W        W89796  44.453   4.269  14.305
17482W        W89797  33.394  29.308  14.397
17483W        W89798   1.339  20.479  13.074
17484W        W89799  22.025  21.293  14.066
17485W        W89800  25.423  25.751   3.625
17486W        W89801  24.553  35.485   1.705
17487W        W89802  43.569   8.272   2.192
17488W        W89803   7.380  14.609   2.773
17489W        W89804  27.154  18.715   0.274
17490W        W89805  31.620  26.987   1.703
17491W        W89806  22.006  34.499   1.925
17492W        W89807   8.619  17.845   4.871
17493W        W89808  37.282  28.726  14.869
17494W        W89809  16.635  39.360   0.304
17495W        W89810   2.242  28.542   3.650
17496W        W89811  44.987  18.593   4.357
17497W        W89812  23.438  34.423   0.364
17498W        W89813   5.686  13.742   0.769
17499W        W89814  39.609   2.307   0.716
17500W        W89815  33.410  34.031   3.231
17501W        W89816  31.645  30.901   3.195
17502W        W89817  30.763   0.380  14.080
17503W        W89818   1.351  39.917  13.053
17504W        W89819  34.261   3.954  11.192
17505W        W89820  12.574   1.238   2.919
17506W        W89821  21.610  24.540  13.570
17507W        W89822  35.827  21.740  12.408
17508W        W89823  19.137  26.730   0.311
17509W        W89824  27.061  39.258   4.631
17510W        W89825  23.985   5.250   3.558
17511W        W89826  32.966  17.258   4.525
17512W        W89827  10.707  37.249   1.134
17513W        W89828   8.163  27.075   2.247
17514W        W89829   1.482  34.571   2.184
17515W        W89830   5.488  22.171   1.209
17516W        W89831  27.150  14.581   3.502
17517W        W89832  38.057  44.455   2.204
17518W        W89833  24.492   2.696   0.293
17519W        W89834  17.063  29.631  10.267
17520W        W89835   3.875   0.926  13.090
17521W        W89836  43.541  27.174   3.813
17522W        W89837  38.034  13.281  11.489
17523W        W89838  20.354  15.716  14.492
17524W        W89839  24.150   5.926   1.182
17525W        W89840  20.832   7.126   0.865
17526W        W89841   6.902  16.814   0.382
17527W        W89842  15.391  32.146  13.436
17528W        W89843   9.255  33.741  11.550
17529W        W89844  15.111  40.311   2.825
17530W        W89845  37.063   7.186  12.501
17531W        W89846  40.664  16.387   3.231
17532W        W89847  15.055  21.123  10.726
17533W        W89848  23.537   1.834   4.184
17534W        W89849  36.541   4.997   4.598
17535W        W89850  17.652   1.496   1.330
17536W        W89851  10.293  27.018   3.065
17537W        W89852  20.758   9.356  13.358
17538W        W89853  44.282   2.784  12.461
17539W        W89854  18.766  29.301  10.706
17540W        W89855  30.924   8.676  10.340
17541W        W89856  12.311  21.670  10.566
17542W        W89857   0.315   3.303   4.590
17543W        W89858  12.013  41.164   1.010
17544W        W89859  18.456  36.924   1.388
17545W        W89860  19.053  35.667  13.583
17546W        W89861  33.961  12.047   0.940
17547W        W89862   3.380  19.257   4.656
17548W        W89863  11.690  40.503   1.895
17549W        W89864  20.773  39.354   3.120
17550W        W89865   3.019  14.244   3.042
17551W        W89866  37.455  30.963   3.176
17552W        W89867  11.110  24.037  12.463
17553W        W89868  30.408   2.936   3.901
17554W        W89869  38.599  31.706  14.375
17555W        W89870  42.323  22.512   0.418
17556W        W89871  23.963  33.153  11.208
17557W        W89872  15.707  32.171   1.978
17558W        W89873  26.447  21.804  11.596
17559W        W89874   7.236  14.142   1.342
17560W        W89875  43.838  28.063   2.093
17561W        W89876   3.334   7.523   3.203
17562W        W89877  33.530   6.277   3.657
17563W        W89878  42.407  33.557   0.364
17564W        W89879  35.039  28.626   0.399
17565W        W89880  32.944  23.747  12.527
17566W        W89881   4.176  43.663  14.475
17567W        W89882  36.905  32.474  12.125
17568W        W89883  40.528  28.949   1.810
17569W        W89884  33.851  22.831  14.752
17570W        W89885  31.536  10.603  10.214
17571W        W89886  12.119  10.932  14.545
17572W        W89887  25.690   0.947   2.869
17573W        W89888  32.663   1.041  13.772
17574W        W89889  25.569   7.615  10.674
17575W        W89890  26.858  18.176   3.338
17576W        W89891   6.649  23.607   1.274
17577W        W89892   5.104  30.414  14.018
17578W        W89893  19.765  24.522  12.977
17579W        W89894  41.844  27.170   3.928
17580W        W89895   1.466  27.461   0.470
17581W        W89896  35.150  11.206   4.538
17582W        W89897  21.754   7.277   1.911
17583W        W89898  31.649   4.772   0.040
17584W        W89899  16.327   4.298   4.279
17585W        W89900  19.185  28.151   0.251
17586W        W89901  36.521  19.742  13.827
17587W        W89902  15.779  31.899   3.756
17588W        W89903  34.369  42.448   4.686
17589W        W89904  43.044   7.675   3.170
17590W        W89905  30.919   4.482  11.990
17591W        W89906   3.697  27.528   0.984
17592W        W89907   0.869  29.625   3.658
17593W        W89908  25.152  41.888  14.341
17594W        W89909  23.695   5.418   1.367
17595W        W89910  22.306   8.291  13.773
17596W        W89911  24.744   4.221  10.533
17597W        W89912  41.778  43.450  11.076
17598W        W89913  31.882  29.708   3.762
17599W        W89914   9.863  14.133   1.452
17600W        W89915  30.872  14.246   4.633
17601W        W89916  34.629  20.651  13.845
17602W        W89917  13.201  21.288   1.929
17603W        W89918  43.834   7.261  11.116
17604W        W89919   0.865  41.002   1.382
17605W        W89920  32.089   2.934  13.029
17606W        W89921  13.277   9.591  14.943
17607W        W89922   1.306  40.992  14.569
17608W        W89923  18.251  33.385   3.738
17609W        W89924   7.518  35.659  14.961
17610W        W89925   2.988  14.095   0.812
17611W        W89926  22.165  15.513   3.204
17612W        W89927  12.742  42.822  10.569
17613W        W89928   2.693  31.516   3.351
17614W        W89929   8.879  32.405   0.427
17615W        W89930  42.677   7.179  10.570
17616W        W89931  23.820  32.938  14.435
17617W        W89932  43.840  39.409   4.869
17618W        W89933  38.416  35.407  14.980
17619W        W89934  13.779   8.008  13.040
17620W        W89935  36.780   3.300   3.599
17621W        W89936   9.342   8.860   1.943
17622W        W89937   5.832  33.868   0.450
17623W        W89938   0.165  37.341  13.230
17624W        W89939  29.763  35.415   4.132
17625W        W89940  34.882  13.430   2.360
17626W        W89941   3.464  44.125   1.215
17627W        W89942  41.288  23.516  11.215
17628W        W89943   8.394   9.299   1.856
17629W        W89944   6.826   6.665  11.555
17630W        W89945  44.002  10.740   5.019
17631W        W89946  17.055   1.877  13.611
17632W        W89947  29.426  39.365  12.129
17633W        W89948  42.035  30.257  13.343
17634W        W89949  23.675   2.450  13.482
17635W        W89950  34.564  12.417  12.831
17636W        W89951  15.870  15.365  14.934
17637W        W89952  19.514   8.888   0.920
17638W        W89953  37.309  38.902   1.877
17639W        W89954   9.069   5.334   0.242
17640W        W89955  12.173   3.312  10.101
17641W        W89956  36.007  38.523  14.017
17642W        W89957   3.291  25.439  11.965
17643W        W89958  16.103  33.608   0.939
17644W        W89959  24.648  11.306  11.916
17645W        W89960  31.544  11.784   1.330
17646W        W89961  21.029   6.177   4.236
17647W        W89962  13.901  13.225   4.661
17648W        W89963   4.412  31.030   4.524
17649W        W89964  39.618  22.228   2.365
17650W        W89965   0.349  37.559  11.282
17651W        W89966   0.577   5.432   0.965
17652W        W89967  20.114  28.430  14.384
17653W        W89968  29.656  19.043  12.544
17654W        W89969  33.129   8.581  11.486
17655W        W89970  39.559  25.586   0.542
17656W        W89971  22.074  32.985   0.788
17657W        W89972  22.018   3.144   4.568
17658W        W89973  28.943  10.064  13.410
17659W        W89974   6.206  44.946   0.230
17660W        W89975  17.575  29.413   1.382
17661W        W89976   5.344  38.202   2.179
17662W        W89977  15.157  13.960   4.145
17663W        W89978   3.923   1.693  12.080
17664W        W89979   5.656  13.080  13.034
17665W        W89980   5.863  25.865  11.162
17666W        W89981  38.263  44.084   4.164
17667W        W89982   1.473  15.670   2.709
17668W        W89983   6.932  17.402  12.069
17669W        W89984   5.929   1.349  12.483
17670W        W89985   3.950  33.574   0.450
17671W        W89986   3.599   2.461   2.823
17672W        W89987   8.244  12.327   2.733
17673W        W89988  37.856   2.556  13.060
17674W        W89989  13.819  42.825   2.335
17675W        W89990  39.272  41.008   1.436
17676W        W89991  41.300  19.144   0.456
17677W        W89992  43.727   1.169   4.150
17678W        W89993  15.089  19.556  12.170
17679W        W89994  17.379   3.261   5.000
17680W        W89995  23.252   9.166   4.624
17681W        W89996   7.297  20.022   0.881
17682W        W89997  13.272   8.172   4.717
17683W        W89998  44.324  15.637  14.839
17684W        W89999  32.854  17.521  12.482
17685W        W90000  33.968  37.653  10.726
17686W        W90001  36.298  25.866  11.058
17687W        W90002  10.622  27.556  10.063
17688W        W90003  29.006   1.406  12.435
17689W        W90004  11.066  38.730   3.385
17690W        W90005  16.630  36.277   3.722
17691W        W90006  17.807  41.350  10.736
17692W        W90007  40.299  10.585  11.122
17693W        W90008  23.016  17.373   2.498
17694W        W90009   1.392  35.134   4.583
17695W        W90010  10.187   0.208  13.307
17696W        W90011  23.528  37.944   2.924
17697W        W90012  30.203  24.111  12.121
17698W        W90013  10.706  32.038   1.797
17699W        W90014  12.076  10.436  14.441
17700W        W90015  12.234  39.521  14.202
17701W        W90016  43.213   5.133  10.275
17702W        W90017  12.713  19.718  14.405
17703W        W90018   5.392   5.740   0.374
17704W        W90019  27.179   2.310   4.304
17705W        W90020  14.434  22.762   4.139
17706W        W90021   1.067  22.138  14.320
17707W        W90022  35.633  39.690   4.081
17708W        W90023  27.073  18.058  14.912
17709W        W90024  41.360  34.497  13.432
17710W        W90025  34.541   1.701  12.083
17711W        W90026  30.625  37.684  13.249
17712W        W90027   9.586  13.812   2.952
17713W        W90028  24.011   7.367  14.154
17714W        W90029  11.820  32.026  12.399
17715W        W90030  25.005  39.795   4.711
17716W        W90031  20.516   5.305  13.070
17717W        W90032  43.245  34.462  14.697
17718W        W90033  32.029  19.612   0.645
17719W        W90034   4.223  10.689  14.938
17720W        W90035  32.093  21.591  10.712
17721W        W90036  14.146  10.242  12.682
17722W        W90037  14.092  32.101   1.283
17723W        W90038  21.706  29.269   4.140
17724W        W90039   1.253  26.381   3.674
17725W        W90040   5.460  16.495  10.411
17726W        W90041   1.160  40.342   4.550
17727W        W90042  37.973  42.722  14.515
17728W        W90043   2.833  12.379   0.339
17729W        W90044  40.919  20.166   4.866
17730W        W90045  16.701  33.623   4.927
17731W        W90046  23.450  23.646  11.412
17732W        W90047  43.247  37.465   0.906
17733W        W90048  29.013  27.519   1.928
17734W        W90049  44.754  34.518   4.535
17735W        W90050  43.505   2.615   1.777
17736W        W90051   9.155  21.183  14.679
17737W        W90052  26.859  25.531  14.458
17738W        W90053  40.822  25.175   0.792
17739W        W90054  37.769  42.054  13.858
17740W        W90055  31.316  19.278   3.666
17741W        W90056  34.445  39.504  12.043
17742W        W90057  44.020   3.944   2.980
17743W        W90058  39.168  38.566   5.018
17744W        W90059   7.295  15.025  14.322
17745W        W90060  11.384  25.539   4.298
17746W        W90061  37.488  21.267  13.943
17747W        W90062   3.164  17.208   2.346
17748W        W90063  30.879  42.645  13.367
17749W        W90064  29.965  24.306   0.238
17750W        W90065   6.105  22.670  11.451
17751W        W90066   0.523  22.713  12.461
17752W        W90067   0.938   7.796   4.527
17753W        W90068  38.129   8.668   0.100
17754W        W90069   8.908  41.412  12.460
17755W        W90070  15.697  30.678  13.514
17756W        W90071  20.834   7.401   3.250
17757W        W90072  31.566  14.185   2.452
17758W        W90073  13.193  44.573   1.965
17759W        W90074  39.435  38.504  14.077
17760W        W90075  32.208  18.046  13.045
17761W        W90076  26.845  15.605   2.148
17762W        W90077  14.094  17.173  11.655
17763W        W90078   2.701  23.725  12.058
17764W        W90079  25.427  42.000   2.251
17765W        W90080  21.676  41.569   0.260
17766W        W90081  19.654  22.603   3.892
17767W        W90082  30.512  18.765  13.029
17768W        W90083  18.339   6.337  10.440
17769W        W90084  13.818  18.163   3.912
17770W        W90085  15.852  22.967   3.961
17771W        W90086  33.375  32.929  13.434
17772W        W90087   1.757  27.093  14.568
17773W        W90088  21.017  17.195  14.875
17774W        W90089  28.134  28.145   4.212
17775W        W90090   7.173  44.954   0.402
17776W        W90091  44.708  32.202  14.030
17777W        W90092  32.339  26.580  13.754
17778W        W90093  40.338   3.814  14.039
17779W        W90094  40.794  34.659  14.246
17780W        W90095  35.463  31.083  14.997
17781W        W90096  18.245  34.069  14.145
17782W        W90097  28.131  20.650   3.267
17783W        W90098  20.491  41.445  13.523
17784W        W90099  25.668  42.820  13.353
17785W        W90100  39.915  25.703  13.698
17786W        W90101  12.147   1.478  12.600
17787W        W90102  11.915   0.993  13.983
17788W        W90103   6.422  15.742  12.990
17789W        W90104   7.820  13.328   4.580
17790W        W90105   2.648  24.141   3.972
17791W        W90106   9.206  24.136  13.845
17792W        W90107  35.515  24.556   2.511
17793W        W90108   2.796  41.491   0.469
17794W        W90109  34.449  10.346   0.858
17795W        W90110  36.876  27.083  14.832
17796W        W90111  22.092  38.285   3.980
17797W        W90112  16.619   8.480  10.676
17798W        W90113  41.395  44.578   1.758
17799W        W90114  40.496  33.001   3.755
17800W        W90115  26.586  15.685   4.954
17801W        W90116  29.569  32.697   3.708
17802W        W90117  35.490  19.479  12.069
17803W        W90118  23.157  37.534  10.946
17804W        W90119  24.531  12.609   0.402
17805W        W90120  23.008  34.924   1.705
17806W        W90121  25.025  14.073  14.291
17807W        W90122  23.221  41.847  12.914
17808W        W90123   2.814  17.829  14.459
17809W        W90124   5.932  40.892   1.811
17810W        W90125  26.761  35.850   1.901
17811W        W90126  26.191  25.170  10.674
17812W        W90127   7.448  15.048   3.636
17813W        W90128  12.547  27.119  12.830
17814W        W90129  25.228   6.890   2.892
17815W        W90130  14.019  15.540   4.506
17816W        W90131  25.639  14.529   2.780
17817W        W90132  19.721  34.527  14.886
17818W        W90133  17.514  27.797  14.281
17819W        W90134  34.986  15.660  11.157
17820W        W90135  24.932  29.603  12.994
17821W        W90136  27.074  44.818  13.801
17822W        W90137  27.175  40.574  10.658
17823W        W90138   7.057  17.060  12.475
17824W        W90139  21.052  33.890   2.359
17825W        W90140  15.229  33.145   1.264
17826W        W90141   6.382  25.028  13.476
17827W        W90142  30.584  14.333   2.238
17828W        W90143  43.287  29.047   0.708
17829W        W90144  34.581   4.906  11.095
17830W        W90145  42.980  38.881   3.656
17831W        W90146  36.551  12.663   1.445
17832W        W90147  32.987  44.861   0.444
17833W        W90148   4.901  41.926  11.588
17834W        W90149   5.698   1.226   3.401
17835W        W90150  43.206  17.163  11.237
17836W        W90151  16.896  39.297   1.290
17837W        W90152  33.047  40.407   2.273
17838W        W90153  39.267   1.484  14.743
17839W        W90154   7.388   7.731   2.377
17840W        W90155  11.191  26.642   3.534
17841W        W90156  16.098   4.900   0.885
17842W        W90157   9.816  27.569  10.704
17843W        W90158   6.240  37.919   2.685
17844W        W90159  36.838  12.946   3.592
17845W        W90160   3.508  43.372  13.094
17846W        W90161   4.949  41.381  11.213
17847W        W90162   9.322  27.436  10.931
17848W        W90163  13.881   7.214  10.765
17849W        W90164  43.848   8.851   3.340
17850W        W90165  36.446  11.681   2.772
17851W        W90166  11.394  28.546  11.661
17852W        W90167  26.481  36.541   4.518
17853W        W90168  24.019  16.634  10.745
17854W        W90169  35.555   3.389   1.322
17855W        W90170  39.746  29.203   0.678
17856W        W90171  23.201  18.447  10.974
17857W        W90172  27.404  38.419  11.522
17858W        W90173  25.573  26.857  10.224
17859W        W90174  17.596  39.591  11.753
17860W        W90175  32.479  21.951  14.588
17861W        W90176  14.324  11.196  10.667
17862W        W90177  36.570  39.090   3.308
17863W        W90178  23.035   2.861   1.281
17864W        W90179  44.730  22.668  12.873
17865W        W90180  19.569   4.139  14.209
17866W        W90181  34.203  28.064   0.099
17867W        W90182  37.139  30.165  11.914
17868W        W90183  35.969  38.075  11.734
17869W        W90184  19.098   3.144  10.273
17870W        W90185  26.588   3.771  13.374
17871W        W90186   5.719  19.927  11.137
17872W        W90187   7.919   0.110   2.217
17873W        W90188  37.845   8.123   3.639
17874W        W90189  14.361   9.710   4.287
17875W        W90190  10.560   1.455   4.628
17876W        W90191  15.682  17.644   4.239
17877W        W90192  10.875   3.836  13.103
17878W        W90193  23.452  40.511  13.997
17879W        W90194  22.099  10.189  11.726
17880W        W90195   8.418  35.000  10.750
17881W        W90196   4.312  13.571  13.343
17882W        W90197  10.273   5.011  14.909
17883W        W90198  22.404   2.624  13.185
17884W        W90199  19.212  33.473   4.902
17885W        W90200  31.498  36.878   4.464
17886W        W90201  15.045  25.604   2.666
17887W        W90202   5.178  41.403  10.687
17888W        W90203  15.196   1.481   4.405
17889W        W90204  34.407  17.386  13.282
17890W        W90205  32.552  18.140   0.359
17891W        W90206  37.359  42.587   0.795
17892W        W90207  26.031  21.685  11.306
17893W        W90208  32.137  36.069  12.401
17894W        W90209  40.317  33.871   0.451
17895W        W90210  34.177  35.443  14.023
17896W        W90211  23.637  44.051   2.861
17897W        W90212  33.949  37.156  11.514
17898W        W90213  36.077  39.066  10.533
17899W        W90214  32.032   6.103  13.360
17900W        W90215  17.212  16.612   3.432
17901W        W90216  32.136  40.981   3.103
17902W        W90217  21.104  40.995  12.565
17903W        W90218  26.892  28.737   1.922
17904W        W90219   1.383  26.667  14.429
17905W        W90220  26.651   0.849   3.129
17906W        W90221  38.954   9.663   2.195
17907W        W90222  41.418  43.233  13.541
17908W        W90223  44.292  19.415  14.699
17909W        W90224  20.862  43.721  13.382
17910W        W90225  25.229  35.470  12.453
17911W        W90226  28.562  44.485   2.236
17912W        W90227  34.017  20.776  11.208
17913W        W90228  18.575  10.313   3.249
17914W        W90229  42.018  34.608   4.263
17915W        W90230  10.873  21.672  10.463
17916W        W90231   9.140  22.021   2.873
17917W        W90232   8.281  42.529  12.856
17918W        W90233   0.978   3.202  14.334
17919W        W90234  14.497  18.231   3.135
17920W        W90235   6.818  12.084   0.778
17921W        W90236  22.919   3.648  12.925
17922W        W90237  29.804   7.960  12.911
17923W        W90238  17.125  43.824  10.350
17924W        W90239  20.789   0.715  13.042
17925W        W90240  13.256   6.787  11.118
17926W        W90241  11.058  42.519   4.761
17927W        W90242   9.822   4.500   0.346
17928W        W90243  17.111   5.869   0.963
17929W        W90244  40.949  43.046  12.501
17930W        W90245   4.959   4.152   1.354
17931W        W90246  33.364   4.350  11.973
17932W        W90247  31.043   2.496   4.902
17933W        W90248  42.788  31.652  13.499
17934W        W90249  35.284   7.902  12.175
17935W        W90250  27.897  25.128  12.767
17936W        W90251  34.310  40.291  11.527
17937W        W90252  19.832   2.330   3.162
17938W        W90253  13.588   1.456   3.771
17939W        W90254  40.383  10.813  11.582
17940W        W90255  42.607  23.205  13.789
17941W        W90256  37.484  26.210   0.806
17942W        W90257   9.733  42.077   3.273
17943W        W90258  23.328  30.071  13.988
17944W        W90259   2.773  43.841   3.291
17945W        W90260   2.223  20.835   4.715
17946W        W90261  44.505  27.771   3.706
17947W        W90262   4.846   2.871   0.984
17948W        W90263  19.481  27.089  14.019
17949W        W90264  33.438  14.636   4.412
17950W        W90265   0.736  24.587  12.928
17951W        W90266   1.526  41.002   2.006
17952W        W90267   8.660  22.779  13.871
17953W        W90268   5.284  26.547  12.488
17954W        W90269  27.950  14.011   1.436
17955W        W90270  27.132  25.617  13.999
17956W        W90271  26.564  38.271  13.503
17957W        W90272  37.386   4.204  10.629
17958W        W90273   8.829  42.338   4.124
17959W        W90274  43.761  33.646   1.048
17960W        W90275   1.282  25.078   1.829
17961W        W90276  23.095   5.507   2.314
17962W        W90277  43.942  16.103   2.383
17963W        W90278  22.626  13.478  10.107
17964W        W90279  25.172  12.388   2.513
17965W        W90280  27.435   7.825   4.218
17966W        W90281   6.209  13.072   4.487
17967W        W90282  11.210  28.218   2.409
17968W        W90283  28.531  31.357   1.805
17969W        W90284  42.900  44.316  12.137
17970W        W90285  32.174  32.059  12.056
17971W        W90286   1.042  30.446   0.265
17972W        W90287  35.950  39.305  13.477
17973W        W90288  37.953  11.679   1.852
17974W        W90289  14.816   8.600   2.909
17975W        W90290  13.281  15.753  12.967
17976W        W90291  11.756  33.639  14.964
17977W        W90292   3.249   0.585  11.171
17978W        W90293   3.334  10.651   3.555
17979W        W90294  23.221  24.289  10.693
17980W        W90295   1.825  25.097  11.089
17981W        W90296   3.227  19.585  12.463
17982W        W90297  23.710   6.878  13.007
17983W        W90298  10.115  28.045  12.150
17984W        W90299  19.654  15.557  11.124
17985W        W90300   5.107  26.464  14.131
17986W        W90301  32.534  25.670  14.241
17987W        W90302  40.870  21.716   4.309
17988W        W90303   0.348  28.546  13.792
17989W        W90304  13.874  16.343  12.152
17990W        W90305  19.592  19.334   4.646
17991W        W90306  28.668  40.326   1.660
17992W        W90307   4.780  41.960   0.981
17993W        W90308   6.380   0.700   2.777
17994W        W90309   2.856  33.847  14.870
17995W        W90310  42.440  17.095   2.735
17996W        W90311  25.573   4.297   1.937
17997W        W90312   2.491  15.196  13.091
17998W        W90313  44.434  18.539  12.048
17999W        W90314  28.397   3.706  14.786
18000W        W90315  41.556  38.994   0.785
18001W        W90316  32.959   3.324  12.573
18002W        W90317  42.558  14.243   2.697
18003W        W90318  22.542  20.771   4.763
18004W        W90319  20.814   4.794  11.074
18005W        W90320   9.716  40.736   1.960
18006W        W90321  18.505  34.902   4.135
18007W        W90322  26.528  31.942   9.800
18008W        W90323   6.864  34.687   4.596
18009W        W90324   1.504  18.543  14.147
18010W        W90325  15.574  28.039   0.370
18011W        W90326   4.282  13.063  14.881
18012W        W90327  31.088  18.728   0.275
18013W        W90328  35.615  11.318  11.369
18014W        W90329  20.562   1.713   2.704
18015W        W90330  42.328  40.429   4.543
18016W        W90331  15.689  29.083  10.716
18017W        W90332   7.838  36.047   4.689
18018W        W90333  24.641  36.083   4.134
18019W        W90334   3.885  27.676  14.245
18020W        W90335  22.190  38.477   0.336
18021W        W90336  35.481  17.266  11.550
18022W        W90337  36.887  30.072  12.344
18023W        W90338  27.052  30.937   2.671
18024W        W90339  29.455  31.675   3.747
18025W        W90340  36.306  28.816   2.021
18026W        W90341  20.556   1.986   2.222
18027W        W90342  29.592  22.829  10.719
18028W        W90343  20.136  11.854  10.214
18029W        W90344   3.110   1.007  10.627
18030W        W90345  44.552   1.958  14.308
18031W        W90346  15.269  26.484   9.905
18032W        W90347   8.169  14.605   3.240
18033W        W90348   0.732   4.463  11.645
18034W        W90349  31.512   9.077  12.045
18035W        W90350  19.993  15.092   2.353
18036W        W90351  13.804   5.558   0.796
18037W        W90352  30.078  11.171   3.352
18038W        W90353   3.223  32.212   0.734
18039W        W90354  38.940  10.566  10.696
18040W        W90355   9.464  28.776  12.133
18041W        W90356  27.490  43.334  12.984
18042W        W90357  28.956  30.840  11.442
18043W        W90358  19.520  23.533   3.111
18044W        W90359  12.375  17.246  10.237
18045W        W90360  40.623  27.753   3.124
18046W        W90361  36.316  14.811   2.169
18047W        W90362   9.832  39.970   4.658
18048W        W90363  42.021  39.815   3.130
18049W        W90364  19.860  28.489  14.832
18050W        W90365  20.141   4.376   5.140
18051W        W90366   8.408  17.010  14.273
18052W        W90367  13.795   1.739  13.517
18053W        W90368  35.489  40.595   2.356
18054W        W90369  19.471  13.244   4.621
18055W        W90370  31.224  38.406  13.397
18056W        W90371   9.103  11.585  14.881
18057W        W90372   4.797   1.545   0.929
18058W        W90373  42.843  11.584   1.823
18059W        W90374   0.275  14.555   4.534
18060W        W90375  37.139  36.019   3.328
18061W        W90376   8.866  32.174  11.188
18062W        W90377   6.235   6.173   3.629
18063W        W90378  19.833   5.972   4.189
18064W        W90379  17.059  13.689  10.460
18065W        W90380   2.469   0.285   1.399
18066W        W90381  23.460  36.095   0.383
18067W        W90382  43.034   9.588   1.858
18068W        W90383  22.806  31.301  13.927
18069W        W90384  35.855  21.045   3.256
18070W        W90385  41.447   9.380  11.799
18071W        W90386  40.464  14.235   3.930
18072W        W90387  29.197  10.772   3.754
18073W        W90388  42.256   9.159  14.415
18074W        W90389  37.957  12.721   2.880
18075W        W90390  10.690  32.192   1.261
18076W        W90391  27.891  11.855  11.882
18077W        W90392  35.642  42.956   4.630
18078W        W90393   7.710  40.508  10.775
18079W        W90394   1.502  43.796   4.248
18080W        W90395  42.268  32.932   1.401
18081W        W90396  20.190  30.699   3.658
18082W        W90397  11.727  42.340   1.381
18083W        W90398  27.226  35.964  12.632
18084W        W90399  27.575  26.731  13.250
18085W        W90400  11.037   0.350  12.088
18086W        W90401  39.303  44.851  13.626
18087W        W90402  25.025   5.460  10.345
18088W        W90403  12.730  44.019  14.358
18089W        W90404  27.379  15.226  11.723
18090W        W90405  32.133  10.524   3.652
18091W        W90406  23.136   6.274  14.302
18092W        W90407  29.672  15.577  10.219
18093W        W90408  38.824  29.240  12.872
18094W        W90409   2.953   3.705  14.467
18095W        W90410  14.447  19.293  10.724
18096W        W90411  29.197  28.377   2.406
18097W        W90412   5.836   3.712   1.326
18098W        W90413  41.559  12.616   3.612
18099W        W90414   9.832  38.659   3.905
18100W        W90415  15.133  24.015   0.257
18101W        W90416  42.271  19.058  11.139
18102W        W90417  43.985  27.590  12.125
18103W        W90418  29.959  42.720  11.070
18104W        W90419   1.910  20.710  13.661
18105W        W90420  32.099  12.968   4.204
18106W        W90421  29.093  43.718   2.400
18107W        W90422   4.290   2.419   1.405
18108W        W90423  20.974  41.537  14.566
18109W        W90424   7.252  44.090   1.699
18110W        W90425  33.571  31.878   1.003
18111W        W90426  24.486  37.905   1.942
18112W        W90427  43.323  37.234   1.700
18113W        W90428  23.592   2.423  14.765
18114W        W90429   8.944  23.601  11.111
18115W        W90430  12.886  32.008  13.874
18116W        W90431  20.669   0.046   1.775
18117W        W90432   0.383  21.551   0.886
18118W        W90433  17.986  40.845   1.335
18119W        W90434  25.002  24.828  14.253
18120W        W90435   5.230  39.047  13.528
18121W        W90436  32.648  32.438   1.777
18122W        W90437  19.629   3.876   1.012
18123W        W90438  33.581  36.122   4.172
18124W        W90439   8.158  38.293   0.293
18125W        W90440  20.586  41.389  14.875
18126W        W90441  36.268  28.967  11.617
18127W        W90442  23.399  42.248  12.616
18128W        W90443  30.373  19.226  12.866
18129W        W90444  34.498  38.457  11.653
18130W        W90445  10.720  11.260  11.325
18131W        W90446   4.557   6.993  14.965
18132W        W90447  24.023  35.114  14.341
18133W        W90448  26.999   1.219  12.074
18134W        W90449   1.015  15.245   4.105
18135W        W90450  24.691  33.504   4.386
18136W        W90451  25.175   4.435   1.373
18137W        W90452   5.557  24.531  13.734
18138W        W90453  24.491  16.150  14.313
18139W        W90454  18.141   6.710  13.674
18140W        W90455  33.465  30.733   3.343
18141W        W90456  23.282  39.599  12.422
18142W        W90457  23.947  26.655   5.072
18143W        W90458  11.098  29.558   3.203
18144W        W90459  39.941  37.371   3.869
18145W        W90460  41.594  22.309  13.767
18146W        W90461  32.516   3.553  10.315
18147W        W90462   6.974  37.505   3.521
18148W        W90463  21.994  42.402  14.735
18149W        W90464   0.932   2.478  13.190
18150W        W90465   7.218  32.869  13.099
18151W        W90466  37.946  12.681  14.341
18152W        W90467  35.089  22.183  14.201
18153W        W90468  36.070  18.534   4.850
18154W        W90469  21.109  19.935   0.974
18155W        W90470  36.981  17.627   3.220
18156W        W90471   9.920  38.955  12.924
18157W        W90472  27.730  22.434  14.844
18158W        W90473  21.382  35.466   3.592
18159W        W90474  18.536  20.988   2.442
18160W        W90475  43.792  34.553   4.330
18161W        W90476  44.776   8.659  14.545
18162W        W90477  38.086   1.178  13.342
18163W        W90478   0.470  35.737  10.482
18164W        W90479   9.183  27.687   4.418
18165W        W90480  32.741  37.771  11.010
18166W        W90481  37.524  27.565   3.859
18167W        W90482  39.329  24.207  14.772
18168W        W90483   0.888  14.170  11.239
18169W        W90484  19.157   3.836  14.336
18170W        W90485  27.242   6.750   1.940
18171W        W90486   6.688  22.730   2.337
18172W        W90487  40.761  22.072   1.037
18173W        W90488  18.475  10.797   2.735
18174W        W90489  22.072  34.598   2.956
18175W        W90490   4.763  24.732  10.605
18176W        W90491   4.310   2.279   0.882
18177W        W90492  33.597  32.126  12.390
18178W        W90493  42.584  14.376  12.598
18179W        W90494  23.035  10.845  12.015
18180W        W90495  25.014   2.238   4.212
18181W        W90496   9.796  41.286  11.015
18182W        W90497  25.733  26.420   0.922
18183W        W90498   6.945   0.411   0.212
18184W        W90499  37.899  30.203   1.917
18185W        W90500   2.453  40.273   4.331
18186W        W90501  34.809  15.470   0.767
18187W        W90502  12.696  22.850   0.174
18188W        W90503  11.366  32.466   2.250
18189W        W90504  23.550  29.995   3.919
18190W        W90505  20.469   1.521  14.376
18191W        W90506   2.303  23.508   1.960
18192W        W90507  32.281  39.077  13.442
18193W        W90508  39.097  41.947   1.319
18194W        W90509  15.189  33.349  11.012
18195W        W90510  34.833  27.205   2.824
18196W        W90511  17.061  38.233  10.219
18197W        W90512  30.142  21.408   2.239
18198W        W90513   5.970  18.130   1.709
18199W        W90514  14.273  11.788  11.187
18200W        W90515  39.443   7.923  12.575
18201W        W90516  19.769  23.571   4.694
18202W        W90517   8.248  10.628   1.363
18203W        W90518  40.566   8.167  13.050
18204W        W90519  38.016  27.608  13.241
18205W        W90520  18.265   4.303  13.569
18206W        W90521  41.342  42.257   2.419
18207W        W90522   0.602  22.010   0.800
18208W        W90523  39.622   9.293  11.664
18209W        W90524  37.629  13.695   0.319
18210W        W90525  23.733  10.672  10.464
18211W        W90526  19.500  38.503  10.736
18212W        W90527  34.131  37.369   0.011
18213W        W90528  23.919  38.639  11.125
18214W        W90529  29.951  22.634   4.992
18215W        W90530  31.225  21.256  10.631
18216W        W90531  23.678  21.305  11.180
18217W        W90532  38.519  41.329  12.829
18218W        W90533   1.018  35.525   1.911
18219W        W90534  32.815  19.149  12.987
18220W        W90535  10.321  28.018  10.103
18221W        W90536  40.416  13.636   0.284
18222W        W90537   7.700  13.710  13.955
18223W        W90538   6.085   0.896   1.613
18224W        W90539  14.655  36.126  13.407
18225W        W90540  10.842   8.825  13.387
18226W        W90541  41.933  20.972   9.844
18227W        W90542  22.102  33.323  11.181
18228W        W90543  23.657  33.255  11.616
18229W        W90544  18.562  26.893   0.392
18230W        W90545  28.866  14.827   2.683
18231W        W90546  42.949  42.859   4.564
18232W        W90547  16.107  13.041  12.635
18233W        W90548  20.076  39.159  14.822
18234W        W90549  42.758  36.121   5.127
18235W        W90550  22.752   2.709   3.466
18236W        W90551  31.647   5.738   0.075
18237W        W90552   5.158   7.622  11.651
18238W        W90553  13.150   4.108   0.051
18239W        W90554   8.892   5.639   2.231
18240W        W90555  13.915  31.602   1.202
18241W        W90556   0.449  32.927  13.562
18242W        W90557  13.707  23.547   1.753
18243W        W90558  28.263  28.173   1.132
18244W        W90559   9.134  28.590   4.185
18245W        W90560  35.009  38.374  13.334
18246W        W90561   3.252  24.512  14.654
18247W        W90562  39.368  42.873  14.841
18248W        W90563  11.472  26.473  13.100
18249W        W90564  40.204  19.839   1.436
18250W        W90565  35.915  34.042  12.446
18251W        W90566  28.513  27.597  12.505
18252W        W90567  39.401  29.796  11.693
18253W        W90568  22.714  41.928   0.993
18254W        W90569  10.104  19.649  12.395
18255W        W90570  44.846  23.633   2.374
18256W        W90571  32.024  30.854  11.537
18257W        W90572  17.070  14.632   4.583
18258W        W90573   8.637  14.147  11.612
18259W        W90574  15.025  10.783  14.305
18260W        W90575  11.226   8.292  12.167
18261W        W90576  14.185   6.811  10.987
18262W        W90577  26.970  40.556   4.112
18263W        W90578   4.876   2.364  12.529
18264W        W90579   8.230  40.867   0.266
18265W        W90580   5.874   2.685   0.084
18266W        W90581  18.544  17.215  12.887
18267W        W90582  12.225  11.084  14.052
18268W        W90583  30.575  24.765   2.794
18269W        W90584  29.945   3.841  14.815
18270W        W90585  20.197  14.455   4.726
18271W        W90586   3.435  43.504   2.374
18272W        W90587  28.060  27.440  11.570
18273W        W90588  35.022  15.988  11.576
18274W        W90589  21.495  13.766  12.342
18275W        W90590  35.344  40.075   4.888
18276W        W90591   9.424  37.803   1.201
18277W        W90592  11.607  41.787  10.370
18278W        W90593  30.017  39.296   3.237
18279W        W90594  19.118  11.804   3.208
18280W        W90595  34.783  19.240   0.327
18281W        W90596  19.650  25.749   0.914
18282W        W90597  42.978  11.748   1.356
18283W        W90598  33.854  33.674  14.441
18284W        W90599  42.791   4.409   1.350
18285W        W90600  18.724   3.756   1.454
18286W        W90601  28.566  13.513   0.832
18287W        W90602  13.763  17.185   4.264
18288W        W90603  42.287  14.381  14.244
18289W        W90604  42.828  35.127   2.429
18290W        W90605  14.215  37.057   0.531
18291W        W90606  34.708  32.008  12.086
18292W        W90607  16.411  14.311   4.069
18293W        W90608  42.831  20.063   3.090
18294W        W90609   3.480  26.654   1.331
18295W        W90610   1.669  22.280  11.156
18296W        W90611  14.205   9.225  12.250
18297W        W90612  37.493  18.359   2.302
18298W        W90613  10.826  19.446  11.625
18299W        W90614  14.907  30.516   3.199
18300W        W90615   5.853  15.016   3.276
18301W        W90616  16.152  39.512  10.902
18302W        W90617  17.818  29.639   4.195
18303W        W90618   7.420  11.738  12.838
18304W        W90619   4.488  34.122  12.040
18305W        W90620  22.213  12.468   4.214
18306W        W90621   4.110  18.802  14.586
18307W        W90622  11.354   4.198   0.501
18308W        W90623  15.536  19.926  11.555
18309W        W90624  14.507  16.917  10.390
18310W        W90625  28.589   7.668  13.291
18311W        W90626   8.373  10.143  12.902
18312W        W90627   3.404  18.596   2.852
18313W        W90628   5.754  35.052   2.930
18314W        W90629  41.279  29.527   0.472
18315W        W90630  10.639  24.424  12.455
18316W        W90631   5.775  29.887   4.155
18317W        W90632  15.321   0.102  14.969
18318W        W90633  31.465  31.837   0.682
18319W        W90634   1.230   9.132   0.501
18320W        W90635  44.693  18.827   1.847
18321W        W90636  32.619  37.758  13.452
18322W        W90637   4.989  33.041  12.720
18323W        W90638  42.252   3.379   2.164
18324W        W90639  38.980  33.369   0.204
18325W        W90640  34.074  41.196  13.575
18326W        W90641  15.214   6.107   2.303
18327W        W90642  32.655  32.101  11.105
18328W        W90643  10.138   9.688  11.580
18329W        W90644  17.715   3.175  11.248
18330W        W90645  13.364  22.631   1.796
18331W        W90646  42.289  10.189  12.536
18332W        W90647  30.706  33.398   0.527
18333W        W90648  29.138   0.657   1.039
18334W        W90649  27.248  41.616   0.090
18335W        W90650  36.605  40.851   2.350
18336W        W90651  42.018   4.394   2.702
18337W        W90652  35.037  14.073  12.496
18338W        W90653  12.610  43.512  14.289
18339W        W90654   0.547   5.802   4.652
18340W        W90655  40.368  10.199  11.452
18341W        W90656  18.868  10.828  13.096
18342W        W90657   6.114  24.158  10.176
18343W        W90658  15.672   5.415  10.600
18344W        W90659  24.976  15.132   2.868
18345W        W90660  38.546  36.455   0.221
18346W        W90661  36.660   1.716  13.380
18347W        W90662   7.944   2.132  10.798
18348W        W90663   1.221  39.984  14.889
18349W        W90664  35.422  30.888   0.520
18350W        W90665  18.574  16.104   4.194
18351W        W90666  39.144  42.631  11.555
18352W        W90667  32.932  38.568   1.278
18353W        W90668   1.038  14.817  14.469
18354W        W90669  18.657  38.530   1.384
18355W        W90670  39.053  14.897   0.283
18356W        W90671  10.748   4.874   2.126
18357W        W90672   4.288  35.111   2.782
18358W        W90673  21.978  21.134   1.727
18359W        W90674  29.915  38.456   3.851
18360W        W90675   5.886  43.240   4.110
18361W        W90676  23.216  40.326   2.810
18362W        W90677  21.158  26.901   0.819
18363W        W90678  40.938  26.128  11.608
18364W        W90679  28.408  24.420   4.455
18365W        W90680   9.765  16.339  12.529
18366W        W90681   5.631  33.386  11.110
18367W        W90682  35.088  15.275   4.578
18368W        W90683  19.075  16.970  11.502
18369W        W90684   3.003   6.531   4.842
18370W        W90685  22.631  28.830  10.805
18371W        W90686  25.986  32.847  13.891
18372W        W90687  11.700  10.731  11.890
18373W        W90688  13.695  41.212  11.482
18374W        W90689   8.927   7.442  12.512
18375W        W90690  20.473  42.824  12.029
18376W        W90691  14.575  41.292  12.968
18377W        W90692  39.553  28.904  11.434
18378W        W90693   6.846  43.075   5.142
18379W        W90694  34.651  43.864  14.028
18380W        W90695  30.666  26.236   1.013
18381W        W90696  24.163   3.822  11.134
18382W        W90697  18.190  41.274  12.454
18383W        W90698  25.245  27.486  14.367
18384W        W90699   4.193  43.737  11.705
18385W        W90700  16.454  39.025   5.524
18386W        W90701  40.120  19.562  11.652
18387W        W90702  32.559  44.895   4.453
18388W        W90703  44.119   5.234   3.476
18389W        W90704  16.501   9.421   0.072
18390W        W90705   7.695  12.158   2.693
18391W        W90706  11.464  17.819   2.375
18392W        W90707  33.857  11.667   1.890
18393W        W90708  43.078  23.296   5.292
18394W        W90709  36.887   2.835  11.075
18395W        W90710  16.383  42.534   4.685
18396W        W90711  20.264  15.930  12.477
18397W        W90712  26.947  15.519  13.049
18398W        W90713  36.673  29.429   0.243
18399W        W90714  25.624  23.797   4.213
18400W        W90715   4.980  28.148  11.984
18401W        W90716  34.355   0.281  14.856
18402W        W90717  43.256  43.314  14.556
18403W        W90718  36.309  22.200   2.621
18404W        W90719   5.858   3.708  14.918
18405W        W90720   1.426  27.126   3.257
18406W        W90721  13.539  34.501  11.120
18407W        W90722  16.495  24.759  13.829
18408W        W90723  43.571  15.096   1.789
18409W        W90724  28.228  37.599   0.226
18410W        W90725  40.858  17.248  14.552
18411W        W90726  32.482  37.235   1.338
18412W        W90727  43.397  36.359  13.555
18413W        W90728  14.783  26.233  14.631
18414W        W90729  28.416  19.780   1.895
18415W        W90730  38.035  41.535  12.029
18416W        W90731   4.886   0.155  14.430
18417W        W90732  11.317   3.659   1.393
18418W        W90733   2.275  15.637   0.692
18419W        W90734   2.787  33.789  11.764
18420W        W90735  28.862  22.706   1.615
18421W        W90736  25.114  14.726  13.167
18422W        W90737  20.572  38.387  11.216
18423W        W90738  42.051  44.684  10.700
18424W        W90739  21.603  20.064  14.545
18425W        W90740  35.511  11.027   1.370
18426W        W90741  27.008  30.964  13.508
18427W        W90742   0.070   0.433  13.124
18428W        W90743  38.879  42.867  14.651
18429W        W90744  13.079  40.641   5.045
18430W        W90745  35.139  31.601   4.498
18431W        W90746  11.746  34.703  14.860
18432W        W90747  15.065  34.620   0.621
18433W        W90748   0.733  12.338   4.136
18434W        W90749   9.290   8.180  12.973
18435W        W90750   8.089  35.845  11.930
18436W        W90751  37.410  21.982  11.556
18437W        W90752   3.430  40.524  11.692
18438W        W90753   5.296   6.710   3.770
18439W        W90754  10.803  12.646   5.054
18440W        W90755  25.545  38.951   0.402
18441W        W90756  23.537  37.308   1.463
18442W        W90757   2.343  21.784   3.232
18443W        W90758   7.360  41.161  12.523
18444W        W90759  18.784   3.839  14.717
18445W        W90760  43.869  12.098   1.785
18446W        W90761  17.110  22.620  12.451
18447W        W90762  41.834  35.394   2.666
18448W        W90763  13.982  13.790  11.974
18449W        W90764  29.900  44.388   2.681
18450W        W90765  40.095   7.890   3.126
18451W        W90766   0.758  15.080  14.123
18452W        W90767  19.432   4.147   1.819
18453W        W90768  21.717  16.646   1.514
18454W        W90769  27.112   3.363  12.856
18455W        W90770   2.934  19.458   1.433
18456W        W90771  44.951   3.465  12.575
18457W        W90772  14.603  19.285  11.616
18458W        W90773  38.439  10.094  12.860
18459W        W90774  14.088  13.889   0.452
18460W        W90775  36.999  43.809  13.995
18461W        W90776  42.494  29.278   1.531
18462W        W90777  42.044  43.950  14.179
18463W        W90778  24.278  22.242  11.370
18464W        W90779  42.491  27.199  14.702
18465W        W90780  17.209  15.700  11.186
18466W        W90781  24.398   8.781   0.975
18467W        W90782  41.025  40.745  11.144
18468W        W90783  18.006  24.501  14.842
18469W        W90784  18.097  29.397   4.582
18470W        W90785  29.099  39.779   0.414
18471W        W90786  33.421  33.408  14.370
18472W        W90787  39.808  32.472   0.700
18473W        W90788  36.629  24.598   3.767
18474W        W90789  25.550  10.606   1.942
18475W        W90790   0.757   9.604  12.017
18476W        W90791  33.013  29.961   4.329
18477W        W90792  15.016   6.332  10.892
18478W        W90793  24.572  41.659   3.697
18479W        W90794   7.349  14.582  13.155
18480W        W90795  10.896  10.418  12.365
18481W        W90796  40.991  12.593  10.609
18482W        W90797  34.379  17.510  10.588
18483W        W90798  25.816  41.570  13.058
18484W        W90799  21.450   4.729  14.028
18485W        W90800  16.542  35.439   2.798
18486W        W90801   2.092  23.528   4.141
18487W        W90802  20.101  11.003   4.173
18488W        W90803  30.602  14.145   4.127
18489W        W90804  22.232   6.101  14.592
18490W        W90805   3.756  14.162  11.135
18491W        W90806  28.547  16.150  14.851
18492W        W90807  25.079   3.119   1.826
18493W        W90808   4.225   6.209   3.305
18494W        W90809  25.142  36.995   3.377
18495W        W90810  33.972  38.256  14.327
18496W        W90811  30.350   6.644  13.520
18497W        W90812   6.145   9.928   2.099
18498W        W90813  29.802   3.617  12.268
18499W        W90814   0.405  20.935   0.025
18500W        W90815  43.811   3.861   3.857
18501W        W90816  20.763  17.686  12.567
18502W        W90817  35.573  17.235  14.766
18503W        W90818  27.390  11.833   4.760
18504W        W90819  10.385  37.395  12.619
18505W        W90820  21.339   7.669  14.716
18506W        W90821  31.996  27.207   0.746
18507W        W90822   4.821  12.287  12.901
18508W        W90823  40.125  41.567  11.962
18509W        W90824  37.115  18.581   2.759
18510W        W90825  19.317  35.793  11.966
18511W        W90826   9.083  27.070  10.607
18512W        W90827  37.927  24.689  11.874
18513W        W90828  12.438  24.690  13.777
18514W        W90829  28.042  32.553  10.765
18515W        W90830   3.377  17.282   3.317
18516W        W90831   5.902  40.553  13.592
18517W        W90832  13.720  24.257   2.915
18518W        W90833  11.794   3.315   4.118
18519W        W90834  34.970  36.572   4.452
18520W        W90835  16.116  37.008  14.885
18521W        W90836   6.174  19.149  13.878
18522W        W90837  10.775   9.190   3.844
18523W        W90838  14.432  17.784   0.659
18524W        W90839  19.695  39.387   4.893
18525W        W90840  25.442  17.282   0.710
18526W        W90841  16.698  22.453   0.823
18527W        W90842   0.286   6.022   1.165
18528W        W90843  31.093  23.705  11.028
18529W        W90844  25.266   3.595  13.543
18530W        W90845  41.338  44.536  13.319
18531W        W90846  13.086  24.627  10.760
18532W        W90847  27.397  42.706  12.485
18533W        W90848   4.523  21.008   5.066
18534W        W90849  16.689  13.854  11.237
18535W        W90850  33.909  36.429   2.254
18536W        W90851  24.733   0.564   1.176
18537W        W90852  20.586  36.102  12.511
18538W        W90853  16.059  21.678  13.976
18539W        W90854  31.848  39.357  11.546
18540W        W90855   3.679  42.955  11.579
18541W        W90856  10.666   4.674  13.379
18542W        W90857  36.718   9.238  13.948
18543W        W90858  34.882  31.419  12.405
18544W        W90859  26.833   8.285   0.029
18545W        W90860   4.297  44.437   2.721
18546W        W90861  18.593  39.140  14.933
18547W        W90862  34.004  13.050   0.046
18548W        W90863   5.143   4.473  14.086
18549W        W90864   1.694  42.846   4.989
18550W        W90865  28.664  31.023   2.163
18551W        W90866  30.613   5.391  11.307
18552W        W90867  25.644  34.549   3.180
18553W        W90868  28.680  17.660  10.709
18554W        W90869   6.888  37.429   1.245
18555W        W90870  29.626   5.151   0.536
18556W        W90871  30.004  33.813   0.722
18557W        W90872  14.488   6.815   4.610
18558W        W90873  37.538  41.440  12.134
18559W        W90874   0.380  42.827  10.364
18560W        W90875  31.296   0.755  13.424
18561W        W90876  17.774  24.186  10.735
18562W        W90877  31.591  38.789  14.262
18563W        W90878  18.655  28.078  10.254
18564W        W90879  41.057  44.994   2.769
18565W        W90880  44.676   1.011  13.901
18566W        W90881   1.352  14.674   2.284
18567W        W90882  16.800   0.316   2.010
18568W        W90883  10.556  39.834  11.511
18569W        W90884  26.289  31.531   3.700
18570W        W90885  19.143  38.811  12.397
18571W        W90886   3.870  26.899   2.256
18572W        W90887  44.986  10.183   1.815
18573W        W90888  17.708  11.340  12.633
18574W        W90889  24.134  25.995  13.392
18575W        W90890  22.327   7.668  14.896
18576W        W90891   8.350  11.405  11.667
18577W        W90892  34.120  42.423   3.886
18578W        W90893   5.365   1.343   2.181
18579W        W90894   4.309  39.566  11.559
18580W        W90895  36.192  12.367   4.766
18581W        W90896  17.701  39.616  13.435
18582W        W90897  42.464  44.844   1.165
18583W        W90898   7.940   6.738  13.134
18584W        W90899   8.428   0.907   2.444
18585W        W90900  28.238  21.300   5.124
18586W        W90901  24.711  41.959  11.041
18587W        W90902  27.230   0.448   3.705
18588W        W90903  41.472  18.568  11.133
18589W        W90904  28.092   0.748   3.312
18590W        W90905   1.318  31.631   0.820
18591W        W90906   0.815  13.720   2.695
18592W        W90907  20.715  29.695  11.559
18593W        W90908  36.405   8.424   3.218
18594W        W90909   6.614  10.815   4.141
18595W        W90910  19.658  10.325  13.784
18596W        W90911   1.013  27.601   4.119
18597W        W90912  17.681  44.910   2.383
18598W        W90913   6.432  36.006  11.101
18599W        W90914   0.893  36.455   2.141
18600W        W90915  27.036  42.538   1.984
18601W        W90916   6.445  39.976   1.737
18602W        W90917  33.122  37.891  14.218
18603W        W90918  34.834  40.485   3.273
18604W        W90919   0.492  10.525   1.463
18605W        W90920  30.495  39.598   3.149
18606W        W90921  35.956  14.338   3.158
18607W        W90922  18.939  22.741  13.907
18608W        W90923   5.015  33.062   3.227
18609W        W90924  38.100   3.758   2.933
18610W        W90925  23.989  12.631   0.438
18611W        W90926   3.764  22.495   0.944
18612W        W90927  17.637  37.288  12.981
18613W        W90928  25.771  36.593   2.872
18614W        W90929  35.047  33.583  12.584
18615W        W90930  30.605   6.690   1.285
18616W        W90931   1.534  44.821   0.272
18617W        W90932  20.553   2.658   0.247
18618W        W90933  15.596   4.240  14.411
18619W        W90934  24.439  33.782   3.603
18620W        W90935  12.842   1.057  12.563
18621W        W90936  40.627  37.459  11.224
18622W        W90937  42.451  13.903  14.406
18623W        W90938  43.679  34.944  11.985
18624W        W90939  26.638  12.011   2.245
18625W        W90940  27.967   3.921  14.983
18626W        W90941   1.684  42.964  13.352
18627W        W90942  18.074  19.231   3.175
18628W        W90943  10.927   1.225  13.902
18629W        W90944  41.885  31.488  12.563
18630W        W90945  44.083  40.882   0.131
18631W        W90946  12.111  28.196   2.382
18632W        W90947  27.652  17.995   3.764
18633W        W90948  20.691   6.843  13.948
18634W        W90949  36.714  13.293  14.856
18635W        W90950  24.243  29.598   1.699
18636W        W90951  43.539  24.617   0.632
18637W        W90952  39.830  11.763   4.420
18638W        W90953  33.868  29.774  11.708
18639W        W90954  17.804  14.152   0.708
18640W        W90955  25.153  16.053   2.719
18641W        W90956  43.053  24.028   3.604
18642W        W90957   2.305  24.245   0.420
18643W        W90958   5.164  24.757  13.451
18644W        W90959  39.283  36.497   0.788
18645W        W90960  19.048  42.377  14.843
18646W        W90961  37.488  28.424   0.906
18647W        W90962  18.599  18.287  11.194
18648W        W90963  29.472  38.276  14.374
18649W        W90964  42.538  40.790  14.812
18650W        W90965  38.484  37.370  12.964
18651W        W90966  33.250  10.846  13.471
18652W        W90967  43.376   8.185  14.433
18653W        W90968  39.946  12.670   4.071
18654W        W90969   4.281  39.559  10.687
18655W        W90970  11.590  26.696   1.733
18656W        W90971  16.171  18.143  13.568
18657W        W90972   4.200  13.799  14.302
18658W        W90973   0.841  30.488   2.640
18659W        W90974  10.644  12.570   1.446
18660W        W90975  35.311   9.895   0.822
18661W        W90976  10.851  43.019   1.669
18662W        W90977  20.231   6.147   3.550
18663W        W90978  38.557  42.598  12.427
18664W        W90979   7.083  28.594   3.229
18665W        W90980  22.495  16.728   3.627
18666W        W90981  26.982  20.705   2.721
18667W        W90982   0.465  30.562   0.292
18668W        W90983  35.578   4.989   4.157
18669W        W90984  22.986   6.115   4.126
18670W        W90985  26.024  34.652  12.526
18671W        W90986  33.921  18.785   3.305
18672W        W90987  30.918  25.774   0.401
18673W        W90988  44.123  29.958   4.991
18674W        W90989  27.206  14.574   0.527
18675W        W90990  19.003  30.243   4.008
18676W        W90991  18.378  38.455   9.989
18677W        W90992   0.715  24.644   1.230
18678W        W90993  10.480   8.197   4.047
18679W        W90994  43.821   8.398  12.263
18680W        W90995  29.078  17.589   4.583
18681W        W90996  38.230  12.107   1.833
18682W        W90997  22.201   2.276   0.379
18683W        W90998  38.602  11.350  11.922
18684W        W90999  10.006  32.710  11.669
18685W        W91000  28.449  24.309   3.215
18686W        W91001  31.186  24.151  11.701
18687W        W91002  33.772   8.593  14.812
18688W        W91003  17.130   5.221  11.486
18689W        W91004   1.919   2.995  12.316
18690W        W91005   2.932   9.118  14.390
18691W        W91006  19.729  30.023  11.988
18692W        W91007  22.622  44.318   0.725
18693W        W91008  28.478   0.979   2.265
18694W        W91009  40.605   6.719   3.310
18695W        W91010   5.462  14.752   2.437
18696W        W91011  16.751  17.353   1.342
18697W        W91012  30.026  25.159  13.461
18698W        W91013  41.098   3.433  14.406
18699W        W91014   9.494  17.111  12.226
18700W        W91015   3.831  20.266  13.782
18701W        W91016  34.547   0.842   3.577
18702W        W91017  30.885   5.165  14.821
18703W        W91018  22.738  43.436  14.114
18704W        W91019  21.111  19.305  13.172
18705W        W91020  37.546  31.866   2.707
18706W        W91021  24.753  41.020   2.746
18707W        W91022  10.264   5.009  11.893
18708W        W91023  31.167  38.243   0.069
18709W        W91024  35.619  11.714   3.127
18710W        W91025   8.383  26.201   0.719
18711W        W91026  31.991   5.949  11.972
18712W        W91027  10.287  21.901  10.644
18713W        W91028  29.846  19.486  12.835
18714W        W91029  29.907  18.959  12.073
18715W        W91030  39.513  36.556   1.319
18716W        W91031  21.656  32.077  13.393
18717W        W91032  15.716  31.478  10.676
18718W        W91033  26.633  17.154  11.525
18719W        W91034  42.566  41.944  14.334
18720W        W91035  34.556  19.738   0.440
18721W        W91036   0.793  17.259   4.216
18722W        W91037  38.601  20.613  12.433
18723W        W91038  40.489  32.158  10.685
18724W        W91039  13.568  39.312  11.077
18725W        W91040  41.229  34.321  12.924
18726W        W91041  10.098  25.606   3.793
18727W        W91042  19.075  31.688  13.365
18728W        W91043   0.711  39.846   2.141
18729W        W91044  18.643  26.437  11.126
18730W        W91045  20.373  23.886   0.543
18731W        W91046   2.392  17.662   3.545
18732W        W91047  19.138  19.227   4.394
18733W        W91048  14.606  28.715  13.302
18734W        W91049  18.084   3.290   3.060
18735W        W91050  12.570  27.562   2.850
18736W        W91051  24.272  15.840  12.884
18737W        W91052  30.075  24.162  10.652
18738W        W91053  32.450   0.420   4.584
18739W        W91054  13.186  20.150  11.913
18740W        W91055  33.896  14.701   2.706
18741W        W91056  13.049  42.771   1.387
18742W        W91057  28.520  17.649  11.990
18743W        W91058  35.842  16.542   2.289
18744W        W91059  22.688   7.097  11.654
18745W        W91060  30.338  19.783   3.364
18746W        W91061  12.619   4.363   2.607
18747W        W91062  19.756  43.769   2.671
18748W        W91063  21.171  33.194  11.059
18749W        W91064  27.305   7.823   2.830
18750W        W91065  29.027  28.135   0.699
18751W        W91066  14.817   2.220   1.929
18752W        W91067  28.517  41.446   4.499
18753W        W91068  19.997  28.404   3.344
18754W        W91069  17.148  30.239  12.910
18755W        W91070  10.786  23.067   0.393
18756W        W91071  30.897  31.730  14.532
18757W        W91072  30.019   6.218   2.755
18758W        W91073   0.999   2.847   4.117
18759W        W91074  33.551   6.235   3.128
18760W        W91075  25.664  28.897   9.935
18761W        W91076  36.562  35.571   3.256
18762W        W91077  44.031  44.835  14.128
18763W        W91078  35.969   1.007   0.400
18764W        W91079  41.612  17.895  12.423
18765W        W91080  31.691  44.438  12.181
18766W        W91081  15.674  22.147  13.903
18767W        W91082  15.089   8.680  14.810
18768W        W91083  44.734  42.018  13.009
18769W        W91084  30.612  18.359  13.646
18770W        W91085   6.418  16.218  11.502
18771W        W91086  20.476  29.451   1.296
18772W        W91087  32.091  24.300   1.235
18773W        W91088  24.086  13.922  14.359
18774W        W91089  33.434  43.819   4.977
18775W        W91090  23.534   1.169  13.779
18776W        W91091  29.369   9.754  11.181
18777W        W91092  10.260  42.329  14.830
18778W        W91093   8.411  41.256  12.368
18779W        W91094  11.654   4.849   1.717
18780W        W91095  21.107  21.113   4.699
18781W        W91096   8.137  23.584   2.100
18782W        W91097   9.103  35.553   4.314
18783W        W91098  29.696  27.695   1.718
18784W        W91099  29.326  22.635   0.838
18785W        W91100  13.158  19.522   0.475
18786W        W91101  31.707   4.666   1.354
18787W        W91102  32.963  40.329   3.810
18788W        W91103  12.044  30.628   0.277
18789W        W91104   9.400  33.068   2.190
18790W        W91105  11.229  38.891   1.083
18791W        W91106  36.351  24.060  11.084
18792W        W91107  39.404  10.141  14.345
18793W        W91108  24.683  44.542  12.136
18794W        W91109  17.245  27.534   3.202
18795W        W91110  27.438  41.193  11.495
18796W        W91111  41.382   6.627   4.832
18797W        W91112  19.182  32.858  14.811
18798W        W91113  44.361  13.914   4.753
18799W        W91114  38.755   3.784  12.273
18800W        W91115   7.191   6.811  11.896
18801W        W91116  21.611  12.783  12.520
18802W        W91117  16.793  13.503  14.053
18803W        W91118  35.175  36.553  11.962
18804W        W91119  44.342  36.313   0.497
18805W        W91120  15.267  37.335   0.042
18806W        W91121  31.112  27.038   4.926
18807W        W91122   4.567  14.043  12.156
18808W        W91123  13.723   0.068   2.820
18809W        W91124   1.342  31.228   1.155
18810W        W91125  44.400  22.133  11.177
18811W        W91126  37.150  14.323   0.747
18812W        W91127   3.670   1.758  13.580
18813W        W91128  35.942  12.102  11.053
18814W        W91129  37.066  15.649  14.861
18815W        W91130   5.396  16.152  12.678
18816W        W91131  24.527  33.032  11.724
18817W        W91132  19.061   9.973  13.371
18818W        W91133  26.376  35.985  11.447
18819W        W91134  23.704  10.660   4.034
18820W        W91135  27.622  27.938  13.830
18821W        W91136   2.657  42.250  14.938
18822W        W91137  37.494  36.388  10.747
18823W        W91138  12.869  12.803   0.335
18824W        W91139  10.382  34.288   3.080
18825W        W91140  16.664  13.354  10.474
18826W        W91141  39.583  13.785  11.116
18827W        W91142  11.294   1.391  14.980
18828W        W91143  23.220  14.696   2.867
18829W        W91144   0.194  23.539  14.461
18830W        W91145  24.759  20.652  14.939
18831W        W91146   9.944  13.859  14.771
18832W        W91147   3.464  34.083   2.308
18833W        W91148  10.136  14.753  12.019
18834W        W91149  41.812  27.847  11.491
18835W        W91150  13.351   1.089  12.501
18836W        W91151  23.546  43.911   0.887
18837W        W91152  25.760  13.626  13.506
18838W        W91153   8.253  34.921  12.945
18839W        W91154  22.811  43.420   3.457
18840W        W91155  16.766  24.553  12.118
18841W        W91156  34.023  35.491  13.529
18842W        W91157  14.028   2.442  14.919
18843W        W91158  33.134   8.604   1.174
18844W        W91159  23.169  29.582  13.912
18845W        W91160   0.509  39.373  14.936
18846W        W91161  36.967   2.343  11.219
18847W        W91162  37.716  41.965  11.381
18848W        W91163   0.454  11.667  13.183
18849W        W91164  28.315  33.800   9.760
18850W        W91165  18.825  43.264  11.627
18851W        W91166  22.181  44.462  11.668
18852W        W91167  19.592  37.443   0.236
18853W        W91168  17.771  22.580   1.986
18854W        W91169  33.745  10.390   1.457
18855W        W91170  41.015   7.137  11.555
18856W        W91171  33.369  12.178   2.692
18857W        W91172  15.123  12.120  14.377
18858W        W91173  29.125   5.232   3.978
18859W        W91174  28.296  43.129   5.131
18860W        W91175  22.827  29.598  14.331
18861W        W91176  40.206  33.574  12.871
18862W        W91177  21.546  11.551   3.079
18863W        W91178   6.819  39.682  13.118
18864W        W91179  18.285   6.465  11.526
18865W        W91180  35.009  17.134  14.550
18866W        W91181  30.677   6.254  13.435
18867W        W91182  43.221   0.896   0.849
18868W        W91183  43.930  42.516  14.014
18869W        W91184  15.456   3.624   2.800
18870W        W91185  28.925   1.825   4.183
18871W        W91186  12.377   4.379  14.034
18872W        W91187  10.272  43.905  11.809
18873W        W91188  15.338  27.993  13.599
18874W        W91189  28.617   9.946   4.061
18875W        W91190  25.199  22.772   5.082
18876W        W91191  22.256  33.133   1.265
18877W        W91192  37.564  37.623   2.796
18878W        W91193   0.812  28.243   1.250
18879W        W91194  17.018   8.218   3.359
18880W        W91195  36.813  23.542   3.713
18881W        W91196  23.165  18.071   5.084
18882W        W91197   2.518  31.856   2.919
18883W        W91198  11.509  39.849   0.361
18884W        W91199  43.686  11.783   3.662
18885W        W91200   3.287   1.044   1.518
18886W        W91201  36.760  21.298   2.896
18887W        W91202  29.910  20.382   2.364
18888W        W91203  10.346   2.965   1.604
18889W        W91204  18.461  27.082  13.974
18890W        W91205  15.377  23.885   0.697
18891W        W91206   1.950   4.974   3.649
18892W        W91207  26.714  21.877   3.745
18893W        W91208   8.152  21.521  11.882
18894W        W91209   5.114  43.667  12.396
18895W        W91210  10.207   0.636   5.026
18896W        W91211  31.967  20.086  11.033
18897W        W91212  36.395  12.653   2.426
18898W        W91213  41.970  14.297  11.144
18899W        W91214  19.536  35.793   2.630
18900W        W91215  19.315   2.593  13.482
18901W        W91216  13.409  27.234  12.031
18902W        W91217   4.664  33.973  13.079
18903W        W91218  16.691  41.935   2.847
18904W        W91219   1.696   3.997  10.397
18905W        W91220   1.186  14.620   4.293
18906W        W91221   1.349  30.200  11.115
18907W        W91222  18.053  34.344   2.407
18908W        W91223  24.650  18.975  11.969
18909W        W91224  26.251  14.786  14.437
18910W        W91225  33.083  20.019  10.786
18911W        W91226   4.891   9.854   0.694
18912W        W91227  13.854  37.408   1.798
18913W        W91228   5.031  39.137   1.022
18914W        W91229  15.392  36.584  13.484
18915W        W91230  11.722  36.859  11.078
18916W        W91231   4.414  19.123   0.366
18917W        W91232  13.389   6.406  12.508
18918W        W91233  18.787   0.887  10.354
18919W        W91234  22.411  36.099   0.295
18920W        W91235  37.394  38.049  11.205
18921W        W91236  13.152  29.154   2.256
18922W        W91237  35.946  28.923   0.393
18923W        W91238  18.755  24.181  10.699
18924W        W91239  43.936  32.488   0.333
18925W        W91240  42.816   9.129   1.275
18926W        W91241   7.952  44.772  12.035
18927W        W91242  43.332  26.938  14.173
18928W        W91243   9.764  25.585  12.429
18929W        W91244  33.895  21.425   2.929
18930W        W91245  33.390  10.623  11.042
18931W        W91246  26.946  30.450   1.267
18932W        W91247  36.102   3.214  14.448
18933W        W91248  15.767  18.041  13.926
18934W        W91249  15.602   9.834  11.097
18935W        W91250  12.804  10.421  13.996
18936W        W91251  21.146  44.853   3.957
18937W        W91252  16.951  20.698   1.582
18938W        W91253  32.882  14.783  12.130
18939W        W91254  18.600  31.608  12.062
18940W        W91255  15.339  35.407   3.621
18941W        W91256  37.115  15.429  14.405
18942W        W91257  27.114  37.402   3.101
18943W        W91258  12.731   6.352   3.385
18944W        W91259  25.143  32.018   1.332
18945W        W91260   9.993   2.215   2.754
18946W        W91261  35.390  22.016  14.604
18947W        W91262   9.393  16.751   9.815
18948W        W91263   6.893  22.094   2.748
18949W        W91264  24.268   9.698  13.690
18950W        W91265   6.066   3.647   3.906
18951W        W91266  11.029  36.471  14.414
18952W        W91267  34.939  32.159   2.332
18953W        W91268  36.449   5.654   3.752
18954W        W91269  17.617  27.862   0.227
18955W        W91270  33.053  30.868  11.934
18956W        W91271  37.264  24.965   4.266
18957W        W91272  32.692   1.906  13.448
18958W        W91273  23.589  34.337   3.281
18959W        W91274  44.889  29.478  14.333
18960W        W91275  31.548  14.168  14.784
18961W        W91276   6.442  37.390   3.524
18962W        W91277  44.455  44.347  11.685
18963W        W91278  34.949  31.999  13.087
18964W        W91279  27.797   7.768   4.582
18965W        W91280  15.519  41.572   0.851
18966W        W91281  23.978  37.790   1.942
18967W        W91282   8.376  28.696   3.677
18968W        W91283   1.847  18.406   2.489
18969W        W91284  32.576  30.177  11.155
18970W        W91285  42.884   1.290   0.837
18971W        W91286  39.041   5.828   3.800
18972W        W91287  29.147  10.631  14.925
18973W        W91288   1.317  27.244  10.651
18974W        W91289  31.947  41.999  10.970
18975W        W91290   2.900  29.872  12.455
18976W        W91291  10.172  22.822  13.991
18977W        W91292  10.434  41.608   2.670
18978W        W91293  31.341  27.139   1.220
18979W        W91294  36.031  33.392   4.093
18980W        W91295  40.524  32.575  12.849
18981W        W91296  40.211  30.470   3.000
18982W        W91297   5.925  30.531   0.333
18983W        W91298  26.956  31.525  13.498
18984W        W91299   6.571  36.553   1.786
18985W        W91300  32.900  26.445   1.525
18986W        W91301  14.407  22.344   3.266
18987W        W91302  25.837   9.467   4.693
18988W        W91303  35.516  24.487   0.729
18989W        W91304  41.566  17.376  12.484
18990W        W91305  33.048  18.212   1.695
18991W        W91306  23.820  34.552  11.937
18992W        W91307  10.835  40.133  13.880
18993W        W91308   0.128  37.073  14.260
18994W        W91309  32.443  20.730  11.578
18995W        W91310  24.857  13.936  12.082
18996W        W91311  34.169  44.038  14.023
18997W        W91312  15.078  42.262   3.627
18998W        W91313  12.144   1.179   4.926
18999W        W91314  21.563  20.518   4.288
19000W        W91315   6.446  11.168   2.130
19001W        W91316  41.978  37.508   1.929
19002W        W91317  44.254  31.089  10.798
19003W        W91318  11.334   2.480   1.825
19004W        W91319   6.112  41.024  13.655
19005W        W91320   3.271  15.659   1.386
19006W        W91321  17.211  36.587   1.521
19007W        W91322  11.284  33.061   1.831
19008W        W91323  14.613   7.645  13.363
19009W        W91324  37.968   3.295   4.200
19010W        W91325  41.927  15.709   3.876
19011W        W91326  13.360   5.377   2.668
19012W        W91327  19.165  20.678   4.676
19013W        W91328   1.395  11.694  10.958
19014W        W91329   5.037   5.226  11.137
19015W        W91330  31.378  42.800  13.443
19016W        W91331  32.053  39.953   4.954
19017W        W91332  17.190  19.800  13.479
19018W        W91333  26.607  44.859   3.701
19019W        W91334  13.774   9.288   1.977
19020W        W91335   9.684   6.460   1.795
19021W        W91336  38.569  23.360   9.777
19022W        W91337  43.276  20.532   4.216
19023W        W91338  39.823  37.354   0.922
19024W        W91339  21.378  19.824  10.469
19025W        W91340  44.451  17.618  12.166
19026W        W91341   7.020  38.485  14.945
19027W        W91342   2.251  33.792   1.422
19028W        W91343  17.080   4.288  12.454
19029W        W91344   4.291  12.753  14.452
19030W        W91345  37.534  38.418  13.973
19031W        W91346   0.050   8.261   0.386
19032W        W91347  29.421   2.205   2.229
19033W        W91348   5.712  41.843   1.868
19034W        W91349  32.608   9.848  13.942
19035W        W91350  11.547   9.563   0.174
19036W        W91351  36.099  37.438  13.918
19037W        W91352  36.824  29.945  14.326
19038W        W91353  41.767   2.855  13.444
19039W        W91354  18.532   7.808  10.605
19040W        W91355  24.510  22.241   5.023
19041W        W91356  27.001  23.681  14.799
19042W        W91357  14.015  36.624  13.113
19043W        W91358  42.969  21.578   4.131
19044W        W91359  15.549   6.806   2.342
19045W        W91360  33.382  28.536  13.752
19046W        W91361   2.677  17.226  10.751
19047W        W91362  38.382  30.671  11.971
19048W        W91363   2.317  41.767   4.298
19049W        W91364  17.055  40.126   4.458
19050W        W91365  17.159  10.286  13.952
19051W        W91366  10.430  13.658  11.624
19052W        W91367  10.563  40.126   0.660
19053W        W91368  20.731  40.827  13.824
19054W        W91369  12.231  39.857   2.577
19055W        W91370  21.579  32.971  13.731
19056W        W91371   1.911  13.330   0.374
19057W        W91372  31.813  29.890  13.324
19058W        W91373   3.280  34.512  12.045
19059W        W91374  22.522  36.559   3.192
19060W        W91375  41.288  37.160  10.684
19061W        W91376  40.090  14.210  13.188
19062W        W91377  42.579  33.825  14.149
19063W        W91378  41.781   4.301   0.428
19064W        W91379  37.822  11.100  11.903
19065W        W91380  11.658   0.748  14.367
19066W        W91381  19.677  10.257   3.487
19067W        W91382  33.841  21.177  13.529
19068W        W91383  32.002   3.493   0.397
19069W        W91384  28.561  12.263  12.272
19070W        W91385  11.314  41.027  14.242
19071W        W91386   8.579  23.421   2.819
19072W        W91387  38.510  38.090   3.320
19073W        W91388  36.968  31.487  12.326
19074W        W91389  26.107  41.557   3.887
19075W        W91390   8.387  42.295  13.308
19076W        W91391   5.203   1.812  14.039
19077W        W91392  10.355   2.576   1.269
19078W        W91393  21.360  13.074   2.341
19079W        W91394  17.549  28.371  12.996
19080W        W91395  10.379  23.745   0.951
19081W        W91396  10.273  10.233   3.377
19082W        W91397  39.554  39.291   0.875
19083W        W91398  17.272  38.937  11.084
19084W        W91399  10.181   4.253  14.538
19085W        W91400  27.614   9.589   4.088
19086W        W91401  25.213  17.779  14.844
19087W        W91402  42.357  31.000   3.373
19088W        W91403   7.699  28.922  12.636
19089W        W91404  39.362  15.131  10.714
19090W        W91405  21.632  24.299  11.966
19091W        W91406  15.839  32.476  11.619
19092W        W91407   7.719  25.877   2.930
19093W        W91408  44.425  21.042  11.152
19094W        W91409   5.479  19.396   2.202
19095W        W91410   8.834  40.755  10.672
19096W        W91411  24.095  17.150  10.802
19097W        W91412   0.779  16.660   0.361
19098W        W91413  10.245  17.628   4.864
19099W        W91414   5.894   4.910  12.414
19100W        W91415  40.846  25.132   2.043
19101W        W91416  37.642  14.326   0.957
19102W        W91417  36.949  39.033  12.830
19103W        W91418  14.045  42.947   1.727
19104W        W91419  30.888   2.414  12.857
19105W        W91420  12.640  31.383   0.574
19106W        W91421  30.974  31.976  14.057
19107W        W91422  16.527   7.457  13.345
19108W        W91423   1.748  23.279   4.861
19109W        W91424  10.157  35.636  12.805
19110W        W91425   6.308   7.192  10.537
19111W        W91426  18.375  32.217   0.425
19112W        W91427  18.323  37.755   0.710
19113W        W91428  32.415   4.963   4.592
19114W        W91429   7.575  17.093  12.506
19115W        W91430  18.275  44.110  14.996
19116W        W91431  22.138  27.900  13.120
19117W        W91432  17.532  33.028   4.188
19118W        W91433  20.541  34.242  11.366
19119W        W91434  16.856  31.417   2.775
19120W        W91435   6.887  12.157  12.129
19121W        W91436  19.810  43.449  14.417
19122W        W91437  11.450  39.032   0.153
19123W        W91438  34.153  22.217   0.242
19124W        W91439  28.055  19.869  12.192
19125W        W91440  15.192  26.401   0.914
19126W        W91441   1.203   4.135  12.532
19127W        W91442   4.479  17.401   0.197
19128W        W91443  25.478  10.181   3.738
19129W        W91444  20.252  10.283   1.792
19130W        W91445  18.978  35.253   1.926
19131W        W91446  19.641   0.398  14.334
19132W        W91447  42.677   9.961   2.834
19133W        W91448  28.439  17.055   3.745
19134W        W91449  26.612  13.783   2.429
19135W        W91450  39.875   1.168   4.729
19136W        W91451  21.476  31.629  14.353
19137W        W91452   9.946  29.039   2.107
19138W        W91453  24.961  22.644   0.413
19139W        W91454   2.250   6.765  14.238
19140W        W91455  31.639   1.737   2.186
19141W        W91456  15.248   4.217  12.433
19142W        W91457   1.238  23.221  12.425
19143W        W91458  31.416  44.975   0.447
19144W        W91459  43.342  34.978  12.368
19145W        W91460  39.683  38.797  12.849
19146W        W91461  33.947   3.007   4.682
19147W        W91462   3.719  31.404   4.822
19148W        W91463   1.463   2.248   1.308
19149W        W91464  25.199  42.823  11.055
19150W        W91465   3.788  44.819  10.700
19151W        W91466  12.256  44.340   4.195
19152W        W91467  32.146  44.931  10.616
19153W        W91468  18.409  37.946   9.916
19154W        W91469  35.131  27.902   2.281
19155W        W91470  14.797   0.928  13.164
19156W        W91471  29.867  11.214  13.620
19157W        W91472  15.780  36.567   2.696
19158W        W91473  41.936  40.607  11.637
19159W        W91474  41.488  26.681  13.504
19160W        W91475  18.898  19.815  13.818
19161W        W91476  14.915  22.701   4.352
19162W        W91477   5.825  16.036  12.962
19163W        W91478  15.179   8.380  13.515
19164W        W91479   5.450  29.903   2.408
19165W        W91480  30.968  24.743   3.128
19166W        W91481  27.614  34.252  14.858
19167W        W91482   3.901  18.419  11.585
19168W        W91483  19.054   7.698  10.610
19169W        W91484   0.954  38.380   2.366
19170W        W91485  32.332   5.795  10.755
19171W        W91486  37.634  44.440   0.210
19172W        W91487   0.077   2.882   4.781
19173W        W91488  12.138  37.451  10.621
19174W        W91489  19.584  18.100  12.068
19175W        W91490   6.295  39.681  10.162
19176W        W91491  39.737  32.955   0.442
19177W        W91492  24.747  29.276   3.470
19178W        W91493  23.973  29.934  12.414
19179W        W91494  37.141  27.925   3.874
19180W        W91495  20.185  25.239  12.248
19181W        W91496   8.544   0.997   3.862
19182W        W91497  10.407   6.230   0.396
19183W        W91498  21.572   1.183  10.679
19184W        W91499  10.254  33.133  12.536
19185W        W91500  33.575   1.670   1.387
19186W        W91501  15.132   6.330   3.320
19187W        W91502   8.300  35.386   3.626
19188W        W91503  31.351  22.123  11.411
19189W        W91504  30.978   2.311  13.911
19190W        W91505  38.539  11.847  12.213
19191W        W91506  25.481  32.850  11.648
19192W        W91507  35.473  24.923  13.924
19193W        W91508   5.442   5.717  11.164
19194W        W91509  10.935   7.788  13.459
19195W        W91510   2.863  16.197   0.177
19196W        W91511   7.232  26.273  14.806
19197W        W91512  15.647  41.521   3.656
19198W        W91513  36.714  12.062   3.560
19199W        W91514  29.391  44.955   2.254
19200W        W91515  25.093  27.955   3.590
19201W        W91516   6.479  33.113   1.315
19202W        W91517  39.104  29.482  10.887
19203W        W91518   8.215  43.893   0.461
19204W        W91519  21.130  31.872  12.497
19205W        W91520  25.041  36.947  13.830
19206W        W91521  37.494  36.845  10.528
19207W        W91522  15.901  32.618   4.895
19208W        W91523  10.897  41.348   2.737
19209W        W91524  13.673   2.630   4.518
19210W        W91525  41.272  20.638  13.954
19211W        W91526  21.615   4.222   3.799
19212W        W91527  30.054  40.930  12.421
19213W        W91528  25.586  30.477   0.838
19214W        W91529  38.406   0.389   2.564
19215W        W91530  27.246  33.927  10.893
19216W        W91531  34.280  29.397  12.016
19217W        W91532  31.571  15.211  13.794
19218W        W91533  28.530  33.866   1.658
19219W        W91534  19.502  36.808   3.537
19220W        W91535   1.393  38.759   0.384
19221W        W91536  17.160  22.053   2.703
19222W        W91537   9.664  18.813   2.384
19223W        W91538  32.022  41.495  14.326
19224W        W91539   9.088  33.163  14.885
19225W        W91540   0.822  31.203  10.706
19226W        W91541  27.551  37.438  13.396
19227W        W91542  12.255   5.842   2.289
19228W        W91543   7.801  24.249   1.246
19229W        W91544  23.532  29.792   1.781
19230W        W91545  19.087  11.543  12.376
19231W        W91546  25.759  11.923  13.877
19232W        W91547  36.559  19.212   4.547
19233W        W91548  28.909  33.932   3.670
19234W        W91549   3.802  35.653  14.943
19235W        W91550   3.999  26.126  11.581
19236W        W91551   4.969  18.325  10.740
19237W        W91552   3.153  28.632   3.296
19238W        W91553  15.610  14.810  10.653
19239W        W91554  17.858   6.363  12.486
19240W        W91555  27.257  36.559  11.566
19241W        W91556  20.822  26.080   3.226
19242W        W91557   1.047  32.998  14.395
19243W        W91558   1.485   8.637   3.186
19244W        W91559  12.316  22.628   3.884
19245W        W91560  41.040  35.951  12.487
19246W        W91561   2.410  22.792  10.819
19247W        W91562   8.880   1.369   3.781
19248W        W91563  26.564  41.492   3.131
19249W        W91564  39.384  14.670  12.319
19250W        W91565  40.864  37.237   4.116
19251W        W91566  10.761   4.775   1.603
19252W        W91567  42.906  24.451   1.871
19253W        W91568  34.943  23.128   2.743
19254W        W91569  20.474   0.282   2.214
19255W        W91570  43.304  11.583   0.410
19256W        W91571  30.088   6.247  11.523
19257W        W91572   0.986  21.668  11.688
19258W        W91573  13.708   3.343   3.790
19259W        W91574  32.588  33.394   4.803
19260W        W91575  13.077  22.790   4.554
19261W        W91576  13.284  20.524   3.809
19262W        W91577  40.668  31.148  13.937
19263W        W91578  18.601  22.159  14.491
19264W        W91579  32.407  16.818  11.059
19265W        W91580  11.322  30.730  14.765
19266W        W91581  26.088  14.920   0.645
19267W        W91582  28.841   5.402   3.559
19268W        W91583  31.247   4.192   2.592
19269W        W91584  41.490  25.004  11.181
19270W        W91585  16.637  14.843  12.610
19271W        W91586  13.819  29.725   4.251
19272W        W91587  18.316  28.148  11.880
19273W        W91588  41.423   0.823  14.598
19274W        W91589  29.908  23.955  13.970
19275W        W91590  27.679  35.833  14.857
19276W        W91591   5.525   9.337   3.734
19277W        W91592  19.789  31.306   2.922
19278W        W91593  13.346   4.587   3.154
19279W        W91594  43.106  17.242   0.810
19280W        W91595  21.707  27.106  12.721
19281W        W91596  22.167  39.463   3.947
19282W        W91597   1.325  36.133  12.423
19283W        W91598  27.313  26.229  11.604
19284W        W91599   6.895  33.833   2.701
19285W        W91600  18.296  42.490  14.343
19286W        W91601  17.885  32.327   2.591
19287W        W91602  15.108  44.404   1.471
19288W        W91603  28.906  41.997   2.221
19289W        W91604  12.705   2.447   4.719
19290W        W91605  40.063  27.775   1.252
19291W        W91606  21.660  22.148   3.451
19292W        W91607  19.641  36.532   0.207
19293W        W91608  26.607  38.564   0.562
19294W        W91609  33.711   7.244   2.422
19295W        W91610   3.845  44.070   0.695
19296W        W91611  17.793  24.079   0.521
19297W        W91612   9.410  12.110   3.638
19298W        W91613  26.200  11.808  14.903
19299W        W91614  33.913  38.173   1.282
19300W        W91615  28.038  19.057   3.321
19301W        W91616   4.446   8.954  11.569
19302W        W91617  25.003  40.206   2.976
19303W        W91618   5.984  24.129   0.364
19304W        W91619  23.083  36.794  14.845
19305W        W91620   0.517  27.629  14.533
19306W        W91621  27.102  22.672   2.860
19307W        W91622  37.110  25.693  13.002
19308W        W91623   2.943  30.408  12.415
19309W        W91624   1.937   8.209  14.863
19310W        W91625   8.637  13.231   4.192
19311W        W91626  30.533  11.413   2.105
19312W        W91627  34.496  18.294  12.808
19313W        W91628  42.492  10.893   4.098
19314W        W91629  15.803   1.412  13.981
19315W        W91630   7.747   5.439   1.216
19316W        W91631  16.634  35.726  12.038
19317W        W91632  42.086  43.242   1.223
19318W        W91633  43.368   7.247  14.344
19319W        W91634  24.366  38.507   0.804
19320W        W91635   6.528  25.444   1.292
19321W        W91636  22.829  21.046   0.352
19322W        W91637  13.524  23.798  12.137
19323W        W91638  37.514  39.667  14.217
19324W        W91639  37.948  39.260   4.193
19325W        W91640  15.041  28.234   1.317
19326W        W91641  20.241   2.288   1.394
19327W        W91642  39.276  11.240  14.394
19328W        W91643  16.739  12.790   2.606
19329W        W91644  21.542   8.182  13.620
19330W        W91645   5.983   6.339   4.564
19331W        W91646  24.413  38.365   3.187
19332W        W91647  43.988   5.876  12.293
19333W        W91648  39.495   5.105  12.096
19334W        W91649  38.933  31.959   1.006
19335W        W91650  27.062  34.615  14.514
19336W        W91651  11.164   1.175   2.221
19337W        W91652  38.039  15.209   0.659
19338W        W91653  27.431   5.978  10.564
19339W        W91654  17.681  14.602   3.115
19340W        W91655  35.402  38.730   4.449
19341W        W91656   5.654   8.781  12.059
19342W        W91657   9.011  43.573   3.753
19343W        W91658  11.852  20.187   0.735
19344W        W91659  10.768  25.372  11.726
19345W        W91660  37.111   6.878  14.369
19346W        W91661  20.788  42.990   0.870
19347W        W91662  11.642  23.266  12.558
19348W        W91663  19.669  32.153   1.326
19349W        W91664   8.290   3.398  14.760
19350W        W91665  28.632  37.859   4.808
19351W        W91666  35.085  14.087   4.542
19352W        W91667  25.023   9.885   4.329
19353W        W91668  44.708  12.818  14.857
19354W        W91669  11.434  36.780  14.250
19355W        W91670  43.396  30.937  13.474
19356W        W91671  23.931   2.945   3.365
19357W        W91672  32.496  23.288  14.895
19358W        W91673   1.696  44.969  12.589
19359W        W91674   8.907  38.103   3.974
19360W        W91675  35.870   1.410  11.418
19361W        W91676  16.663   0.083  10.579
19362W        W91677  40.252  23.996   1.875
19363W        W91678   2.240   8.900   4.083
19364W        W91679  12.111  23.923  11.874
19365W        W91680  28.001  19.494  13.917
19366W        W91681  15.285  26.620   0.459
19367W        W91682   2.784  34.424   4.799
19368W        W91683  34.525  28.940  12.053
19369W        W91684  30.904  25.228  13.494
19370W        W91685  38.395  11.141  11.172
19371W        W91686  18.099  14.632  10.267
19372W        W91687  15.218  27.410   0.022
19373W        W91688  10.279  26.903   0.440
19374W        W91689  12.239  26.673  11.247
19375W        W91690  16.651  29.423   4.646
19376W        W91691  26.484  26.813   4.568
19377W        W91692  42.085  17.775  12.211
19378W        W91693  20.664  10.434  10.535
19379W        W91694   8.175  35.358   1.344
19380W        W91695  34.350  36.825  12.410
19381W        W91696  10.851  20.586  11.759
19382W        W91697  18.641  26.972  11.159
19383W        W91698  44.883  21.034  11.397
19384W        W91699  17.783   5.382   1.812
19385W        W91700  18.022  11.247   1.696
19386W        W91701  30.445  32.375   0.516
19387W        W91702  24.208   0.010  11.882
19388W        W91703  16.175  20.593  11.062
19389W        W91704  10.203  27.811  10.922
19390W        W91705   8.323  37.072  12.508
19391W        W91706  37.818  15.832  10.389
19392W        W91707  28.954  36.839  13.433
19393W        W91708  44.608   2.354  12.459
19394W        W91709  27.840  41.475  12.941
19395W        W91710  29.140  25.691   4.813
19396W        W91711  27.942  22.641  14.429
19397W        W91712  40.509   3.283   2.862
19398W        W91713  21.629  30.661  13.384
19399W        W91714  21.029  13.196  12.959
19400W        W91715  42.279  38.333  10.382
19401W        W91716  11.118  20.503   3.713
19402W        W91717   5.167  41.967  12.032
19403W        W91718  43.769  17.745   2.423
19404W        W91719   9.264   1.520   4.147
19405W        W91720   4.409   9.194  12.890
19406W        W91721  30.942   1.435  10.680
19407W        W91722  22.004  25.674   2.603
19408W        W91723  24.504  37.575   3.736
19409W        W91724  44.652   7.849  12.924
19410W        W91725  20.798  34.934   3.246
19411W        W91726  29.244  33.145   3.319
19412W        W91727  37.913  42.941  13.193
19413W        W91728  24.007  16.373   2.500
19414W        W91729  43.219  20.499  14.580
19415W        W91730  43.213  33.499  13.014
19416W        W91731  12.073   7.408  12.200
19417W        W91732   7.215   9.751   2.813
19418W        W91733  11.201  24.659   1.773
19419W        W91734  18.072  37.340   0.477
19420W        W91735  12.214  37.953   4.511
19421W        W91736  33.795   6.822   4.557
19422W        W91737   2.168  40.655  13.995
19423W        W91738  37.605  37.411   3.276
19424W        W91739  14.500  11.879  12.617
19425W        W91740  19.683  28.709  12.510
19426W        W91741  11.286   0.873  13.423
19427W        W91742  23.750   9.963  11.980
19428W        W91743   4.955  43.495  10.648
19429W        W91744  42.493   2.507  10.838
19430W        W91745  42.962  27.260  13.909
19431W        W91746  23.497  14.857   4.181
19432W        W91747  39.325  28.793   4.667
19433W        W91748  35.961  33.367   2.271
19434W        W91749  42.449  24.404  11.927
19435W        W91750  22.759   0.312   2.639
19436W        W91751   3.831   3.282   3.791
19437W        W91752   5.521  36.649   1.716
19438W        W91753  11.048  20.253  10.117
19439W        W91754  19.099  34.054   2.071
19440W        W91755  41.780  15.756   0.970
19441W        W91756  28.445  24.522  12.491
19442W        W91757  17.321  29.317  12.639
19443W        W91758   0.769   1.455  10.706
19444W        W91759  19.339   3.202  11.638
19445W        W91760   6.349  13.928  12.543
19446W        W91761   8.882   0.323   1.300
19447W        W91762  34.101  43.844   1.379
19448W        W91763  37.329  19.255   0.349
19449W        W91764  25.625  16.133  11.697
19450W        W91765  31.103  22.682   2.297
19451W        W91766  11.598  39.478  13.510
19452W        W91767  39.575  43.571   3.078
19453W        W91768  13.883  40.359   3.141
19454W        W91769  11.540  18.863  11.554
19455W        W91770  39.790  44.566  11.437
19456W        W91771  13.462  27.138   1.610
19457W        W91772  43.114   9.754   4.615
19458W        W91773   6.887  23.810   4.793
19459W        W91774  12.045  32.441   3.324
19460W        W91775  42.349   7.651  14.649
19461W        W91776  12.938  11.936   4.764
19462W        W91777  23.143  14.897   0.583
19463W        W91778  15.756  33.331   1.215
19464W        W91779  34.698  32.944  13.084
19465W        W91780  20.303  42.969   4.457
19466W        W91781  32.272  31.914  10.175
19467W        W91782   8.322  15.086   4.550
19468W        W91783  27.935  11.061   3.986
19469W        W91784  21.729  42.117   1.879
19470W        W91785  15.355  35.583  11.924
19471W        W91786   6.915  43.812  12.322
19472W        W91787  17.768  39.913   4.197
19473W        W91788   2.747  18.753  12.822
19474W        W91789  35.075   9.165   1.218
19475W        W91790  18.618  35.024  10.601
19476W        W91791   8.773   6.229  13.145
19477W        W91792  33.120  14.281   4.696
19478W        W91793  19.049  34.693   4.751
19479W        W91794  15.471  19.348  11.612
19480W        W91795  18.712  15.896  13.976
19481W        W91796  14.880  37.312   4.814
19482W        W91797   5.010  18.261   0.210
19483W        W91798  36.175  42.974   3.757
19484W        W91799  26.505  41.402  12.386
19485W        W91800   4.775  33.341   3.644
19486W        W91801  28.952  20.291   4.178
19487W        W91802  30.613  12.659  11.482
19488W        W91803  33.969   0.395   1.489
19489W        W91804  29.697  32.204  10.184
19490W        W91805   9.654  19.278   1.248
19491W        W91806  27.007  18.574   4.679
19492W        W91807   7.932  17.284  14.297
19493W        W91808  31.802  28.434  13.914
19494W        W91809  39.865  10.116  13.608
19495W        W91810  28.038   0.472  10.534
19496W        W91811   3.892   4.278   1.666
19497W        W91812  41.977  35.716   5.192
19498W        W91813  41.374   7.170   0.008
19499W        W91814  13.015  36.750  14.874
19500W        W91815   4.459  10.256  13.818
19501W        W91816  44.458  23.208  14.855
19502W        W91817  44.719  41.631   4.140
19503W        W91818  25.661  28.913  14.565
19504W        W91819  41.257  33.437  12.824
19505W        W91820  32.008  23.042  12.871
19506W        W91821  29.554  29.035  13.852
19507W        W91822  20.236  42.600  11.399
19508W        W91823  29.290   1.313   4.014
19509W        W91824  18.275   4.601   1.749
19510W        W91825  44.108  23.003   3.336
19511W        W91826   7.375  24.980  13.429
19512W        W91827  14.195  23.744   0.880
19513W        W91828  28.608  40.312  12.445
19514W        W91829  13.211   0.510   1.618
19515W        W91830  26.517  15.295  12.855
19516W        W91831  44.139  30.888   1.855
19517W        W91832  18.510   8.369  12.270
19518W        W91833  41.472   2.541   1.308
19519W        W91834   3.656   8.683   0.916
19520W        W91835  30.184  23.896  14.438
19521W        W91836   0.952   0.912  10.619
19522W        W91837  20.050  41.077  11.583
19523W        W91838  23.111  37.052   3.653
19524W        W91839  26.849  21.605  11.914
19525W        W91840   0.023   4.927   0.046
19526W        W91841  33.918  19.972  10.663
19527W        W91842  42.938  21.096   2.288
19528W        W91843  12.613  18.242  13.841
19529W        W91844  24.701  19.915  12.532
19530W        W91845  15.848  14.853   3.254
19531W        W91846  15.328   0.979  11.934
19532W        W91847  22.448  37.050   4.703
19533W        W91848  36.454   9.928   2.253
19534W        W91849  24.426   1.817  14.821
19535W        W91850   3.192  33.808   3.232
19536W        W91851  29.179  33.858   0.908
19537W        W91852  20.429  25.834   3.420
19538W        W91853   3.892  28.614   0.214
19539W        W91854  30.039  42.518   3.786
19540W        W91855  16.639  11.121   0.803
19541W        W91856   3.500  14.205  12.876
19542W        W91857  14.393   4.898   5.180
19543W        W91858  12.274  40.865  13.089
19544W        W91859   2.474  34.518   5.196
19545W        W91860  26.013   1.869   2.396
19546W        W91861  35.396  21.570   1.234
19547W        W91862  42.498   0.157  13.891
19548W        W91863  17.519   7.231  11.142
19549W        W91864   7.973  34.829  11.111
19550W        W91865  19.998  24.324  11.383
19551W        W91866  30.092  39.353  13.278
19552W        W91867  26.876  11.400   2.210
19553W        W91868  35.429  17.605  13.308
19554W        W91869  16.625  31.386  13.401
19555W        W91870  36.946  23.897   0.857
19556W        W91871  29.556  22.692   2.282
19557W        W91872   4.334  11.269   2.877
19558W        W91873  12.181  28.392  14.376
19559W        W91874   7.696  22.510  14.173
19560W        W91875  25.157  30.188  11.907
19561W        W91876  11.347  33.943  12.385
19562W        W91877  29.443  32.506   4.168
19563W        W91878  30.034  40.020   0.993
19564W        W91879   4.421  44.894   2.458
19565W        W91880   9.842  16.505   0.919
19566W        W91881  30.426  23.682  12.571
19567W        W91882   7.076  39.826   4.112
19568W        W91883  22.829  14.342  12.633
19569W        W91884  20.140  35.281   0.859
19570W        W91885   3.007  14.103  12.150
19571W        W91886  42.755  33.297  11.062
19572W        W91887  22.198  34.374  11.179
19573W        W91888  11.734  31.687   3.711
19574W        W91889  41.610  35.079  12.650
19575W        W91890  31.551  20.955  14.367
19576W        W91891  17.632  12.678   1.780
19577W        W91892  33.431  14.066   0.171
19578W        W91893   3.740  15.277   4.328
19579W        W91894  31.725   3.277  14.333
19580W        W91895  15.092  28.990   4.178
19581W        W91896   0.146   5.421  12.164
19582W        W91897  42.246   4.735   4.673
19583W        W91898   2.335  38.113  11.154
19584W        W91899  30.728  24.573  11.030
19585W        W91900  18.963  18.698  14.280
19586W        W91901  19.712  34.115   3.228
19587W        W91902  37.690  20.575   2.238
19588W        W91903  19.176   6.860  14.958
19589W        W91904  19.570  39.937   2.353
19590W        W91905   5.705  37.349  12.729
19591W        W91906  14.429  38.302   0.529
19592W        W91907  39.356  37.871  11.957
19593W        W91908  20.496  40.818   4.674
19594W        W91909  41.377  23.581   2.985
19595W        W91910  32.405   5.944  14.529
19596W        W91911   8.861  37.530   0.251
19597W        W91912  30.621  32.645   0.940
19598W        W91913  37.557  10.140   1.828
19599W        W91914  22.648  12.262  10.795
19600W        W91915  29.054   8.589  11.344
19601W        W91916  15.169  24.053  12.618
19602W        W91917  24.407   1.199   3.112
19603W        W91918  33.219   5.371   0.538
19604W        W91919  11.202   5.326   0.931
19605W        W91920  28.025  42.063  11.136
19606W        W91921  44.573   0.290   3.164
19607W        W91922  25.729  33.137   1.401
19608W        W91923  10.144  21.770  12.484
19609W        W91924   3.066  41.855   3.182
19610W        W91925  33.644   5.407   3.422
19611W        W91926  29.951  43.437  12.996
19612W        W91927   3.695  30.695  12.924
19613W        W91928  27.139   0.754   3.239
19614W        W91929  11.274   2.265  12.073
19615W        W91930  33.636  24.371   2.997
19616W        W91931   8.213  41.695  11.102
19617W        W91932  34.297  29.344   1.546
19618W        W91933   4.362   8.651   4.670
19619W        W91934  24.156  24.169   1.375
19620W        W91935   9.771  18.081   3.206
19621W        W91936   0.003  13.963   2.352
19622W        W91937  32.001   1.726   3.338
19623W        W91938  24.848  14.299  13.327
19624W        W91939  30.577  26.652   0.724
19625W        W91940  28.012  14.218   3.763
19626W        W91941  25.730  41.562   2.654
19627W        W91942  10.687   6.513  13.038
19628W        W91943  35.964  14.269   2.639
19629W        W91944   7.154  44.459  14.366
19630W        W91945  15.939   9.919  14.626
19631W        W91946   9.317  27.087  14.408
19632W        W91947  22.580  11.905   0.244
19633W        W91948  43.900  21.590  13.405
19634W        W91949   9.171  14.322   0.703
19635W        W91950  30.326   0.473   4.110
19636W        W91951  31.897  25.718   4.262
19637W        W91952  18.072  12.248   1.732
19638W        W91953  44.199  29.878  13.846
19639W        W91954   2.206  14.219   3.569
19640W        W91955   5.280  41.984   0.796
19641W        W91956   2.766  29.096  12.134
19642W        W91957  14.677   7.943   0.364
19643W        W91958  26.242  36.912  11.037
19644W        W91959  42.019   3.166  11.261
19645W        W91960  15.152  43.340   0.058
19646W        W91961  29.137   9.328   0.304
19647W        W91962  35.390   2.916   1.476
19648W        W91963   1.518  33.614  11.875
19649W        W91964  16.635  41.280   0.262
19650W        W91965  16.179  20.280  14.560
19651W        W91966  19.718  20.961   1.422
19652W        W91967   7.386  15.441  12.053
19653W        W91968  42.685  17.283  13.962
19654W        W91969  24.020  26.760  13.901
19655W        W91970  44.888  43.957   1.520
19656W        W91971  30.089   5.393  11.284
19657W        W91972  24.211  12.961  11.494
19658W        W91973   4.158   2.829   2.179
19659W        W91974  12.281  26.865  14.581
19660W        W91975  43.030   3.120  12.001
19661W        W91976   3.322  37.384   1.733
19662W        W91977  17.643  38.321  13.021
19663W        W91978  11.774  21.339   3.664
19664W        W91979  44.330  38.817   0.265
19665W        W91980   4.991  31.940   2.158
19666W        W91981  27.875  23.670  12.547
19667W        W91982   7.152  20.515  13.946
19668W        W91983  28.209  36.358   3.286
19669W        W91984  28.498  34.291   1.354
19670W        W91985  27.665  27.328  10.767
19671W        W91986  18.629  41.145   0.943
19672W        W91987  39.764  23.872   2.789
19673W        W91988  39.748  22.985  10.521
19674W        W91989   0.160  39.421   2.225
19675W        W91990  30.620   2.321   3.091
19676W        W91991   2.712  33.292   0.952
19677W        W91992   3.285  11.596   4.133
19678W        W91993  25.582  13.239   4.092
19679W        W91994   2.902  35.157  11.706
19680W        W91995  25.752  24.642   4.836
19681W        W91996  40.316  34.692  10.315
19682W        W91997  40.652  25.552   2.847
19683W        W91998  25.151   7.807   3.095
19684W        W91999  28.658   1.708  10.743
19685W        W92000  21.374  19.570   0.744
19686W        W92001  32.683  21.884  13.338
19687W        W92002   7.222   3.211  12.645
19688W        W92003  31.911   1.342   0.454
19689W        W92004  11.621  23.394   2.690
19690W        W92005   4.487   0.533   3.675
19691W        W92006  10.388  13.359   0.359
19692W        W92007  10.205   9.620  10.732
19693W        W92008  34.854  40.932   0.022
19694W        W92009  26.452  37.335  12.571
19695W        W92010  22.360  35.601  13.581
19696W        W92011   8.149  28.214   1.234
19697W        W92012  38.254  22.022   3.308
19698W        W92013  43.983  27.992  12.450
19699W        W92014  42.968  41.369   4.467
19700W        W92015  36.266   0.451  14.529
19701W        W92016  13.585  37.060  11.524
19702W        W92017   0.005  19.433  12.609
19703W        W92018  36.173  39.086   3.674
19704W        W92019  23.932  33.132   3.591
19705W        W92020   4.228  33.484   3.315
19706W        W92021  18.786  39.355   2.349
19707W        W92022  43.052  22.121  12.499
19708W        W92023   0.785  30.470   0.701
19709W        W92024  10.290  20.199   0.486
19710W        W92025  39.322  24.195   0.285
19711W        W92026   0.334  35.485  14.249
19712W        W92027   0.221  31.890  12.772
19713W        W92028   7.638  43.376  14.277
19714W        W92029  38.431  33.698  11.560
19715W        W92030   0.820   0.946  14.522
19716W        W92031  12.335  28.562  10.647
19717W        W92032  25.200  41.496  13.977
19718W        W92033  12.689  22.979   2.284
19719W        W92034   4.666   5.608   4.195
19720W        W92035  37.795  36.638   0.792
19721W        W92036  15.644  15.696  13.408
19722W        W92037  29.791  20.271  12.090
19723W        W92038  15.674   7.617   3.140
19724W        W92039   0.942  10.624  12.421
19725W        W92040  34.670  36.105   1.916
19726W        W92041  12.230  20.739   0.306
19727W        W92042   9.209   2.332   1.795
19728W        W92043  38.916   4.251   0.686
19729W        W92044  30.625  38.030  14.238
19730W        W92045  29.273  26.549  13.826
19731W        W92046  21.315  33.626  12.036
19732W        W92047  13.100  18.029  12.011
19733W        W92048  32.598  14.281  14.893
19734W        W92049   1.837  11.959  10.915
19735W        W92050  12.911  17.425   4.522
19736W        W92051  34.981  20.044   3.517
19737W        W92052  22.387  25.328   1.859
19738W        W92053   1.863  11.332  11.586
19739W        W92054  44.981  38.003   2.953
19740W        W92055  20.666  40.029  14.368
19741W        W92056  13.881  42.262   4.254
19742W        W92057  39.396  41.717  14.935
19743W        W92058  14.998  25.459   1.386
19744W        W92059  22.544  21.201  12.441
19745W        W92060  37.085   5.822   1.267
19746W        W92061  31.556  22.566   3.601
19747W        W92062  21.050  15.881   0.724
19748W        W92063  38.882  14.623  11.159
19749W        W92064   3.346  42.341   1.813
19750W        W92065  19.145  13.775   1.051
19751W        W92066  39.404   3.838  11.629
19752W        W92067  13.083  33.114   0.184
19753W        W92068   1.953   3.193  13.355
19754W        W92069   7.313  30.935   2.876
19755W        W92070   7.478  13.561  14.423
19756W        W92071  23.787  28.872  12.822
19757W        W92072  35.495  27.837  12.957
19758W        W92073  31.694   6.313  11.237
19759W        W92074  15.909  35.046   4.171
19760W        W92075  39.498  18.997   4.501
19761W        W92076   9.972  40.277  11.249
19762W        W92077  34.873  18.610   4.099
19763W        W92078  42.755  43.916   3.540
19764W        W92079  20.026  12.954   2.582
19765W        W92080   4.701  10.914   1.694
19766W        W92081  15.695  39.492  13.087
19767W        W92082   1.823   3.800   4.665
19768W        W92083  36.478  19.608   4.890
19769W        W92084   3.750  22.730   1.888
19770W        W92085  37.003  38.219   4.142
19771W        W92086  11.536  25.689  11.950
19772W        W92087   9.887  41.806  10.836
19773W        W92088  32.383   2.395   1.337
19774W        W92089  40.717  42.648   5.062
19775W        W92090   7.700  12.116  12.644
19776W        W92091  14.853  42.277   2.650
19777W        W92092  36.478  37.987  12.562
19778W        W92093  23.669  11.484  13.405
19779W        W92094  42.260   8.728  11.438
19780W        W92095  41.825   6.282  14.995
19781W        W92096  36.907  22.022  12.963
19782W        W92097   5.274   1.312   4.122
19783W        W92098   8.121   3.908  10.765
19784W        W92099  21.989   9.745   0.966
19785W        W92100   1.852  22.784   3.018
19786W        W92101  19.522  36.132  14.445
19787W        W92102   5.575  17.344   0.315
19788W        W92103  37.378   3.717  10.356
19789W        W92104   4.999  34.508   2.234
19790W        W92105   7.316  28.968  14.903
19791W        W92106   9.752  11.297   3.868
19792W        W92107  28.062  22.393   4.145
19793W        W92108  13.371  26.698  11.542
19794W        W92109  23.734  43.377   4.680
19795W        W92110  20.679  44.565   3.457
19796W        W92111  19.741  40.798   1.888
19797W        W92112  20.667  27.102   3.345
19798W        W92113   8.290  28.983  13.093
19799W        W92114   5.264  10.842  11.148
19800W        W92115  41.621   6.840  12.952
19801W        W92116   4.290  31.090  13.859
19802W        W92117   2.929  15.986  11.863
19803W        W92118  13.910  43.789  11.410
19804W        W92119  14.062  41.290  13.011
19805W        W92120  25.495  14.725   2.328
19806W        W92121  24.120  12.529  12.384
19807W        W92122  43.006  17.203  13.150
19808W        W92123  19.026   1.765   2.268
19809W        W92124   2.574  22.253   1.021
19810W        W92125   2.959   3.354  14.101
19811W        W92126  24.046  25.380   3.723
19812W        W92127  26.143  41.442  10.685
19813W        W92128  19.756   7.266   4.225
19814W        W92129  35.008  32.596  12.460
19815W        W92130  44.373   3.475   0.884
19816W        W92131  43.929  33.048   1.214
19817W        W92132   2.920  39.897  13.979
19818W        W92133  10.440  29.967  11.963
19819W        W92134   3.258  34.523   0.882
19820W        W92135  30.685  27.740  10.588
19821W        W92136  28.876  22.287   3.107
19822W        W92137  28.677  43.425   3.144
19823W        W92138  34.108   6.283   2.261
19824W        W92139  42.987  32.938   0.918
19825W        W92140  41.567  39.895  11.217
19826W        W92141  18.788  19.514   1.568
19827W        W92142  34.002  33.255   4.152
19828W        W92143  26.225  40.270  10.646
19829W        W92144  22.782  17.849   3.604
19830W        W92145   5.360  42.158   1.653
19831W        W92146  40.245   0.056  12.020
19832W        W92147  32.749  35.124  11.162
19833W        W92148  29.090  28.518  13.366
19834W        W92149  37.288  33.400   2.820
19835W        W92150  41.493  11.826   1.431
19836W        W92151  35.047  33.089  10.384
19837W        W92152   8.620  39.836   2.892
19838W        W92153  42.371  42.865  14.324
19839W        W92154  44.302  14.332   0.809
19840W        W92155  21.757  13.756   4.863
19841W        W92156  18.144   9.150   2.963
19842W        W92157  38.415   3.735   1.535
19843W        W92158  20.316   1.648   0.308
19844W        W92159   5.531  21.779  12.822
19845W        W92160  42.410  16.460   0.296
19846W        W92161  20.580  42.288  14.734
19847W        W92162  43.718  38.114   3.725
19848W        W92163  31.588   1.719  10.808
19849W        W92164  37.484  14.833  10.971
19850W        W92165  36.839   0.249   0.323
19851W        W92166  25.476  10.140  10.532
19852W        W92167   8.731  43.709  12.923
19853W        W92168  21.945   3.790  13.791
19854W        W92169  43.241  25.287   4.569
19855W        W92170  37.565  42.617   5.100
19856W        W92171   4.463   6.503  10.996
19857W        W92172  27.143  18.231  13.929
19858W        W92173   4.652  23.447  11.885
19859W        W92174  18.725  14.685   0.692
19860W        W92175  42.945  34.206  13.406
19861W        W92176  34.350  32.619  12.867
19862W        W92177  11.515   6.205   1.238
19863W        W92178  36.408  33.793   2.856
19864W        W92179  37.940  28.261   2.790
19865W        W92180  20.026  13.690   0.434
19866W        W92181  42.491  25.234  11.421
19867W        W92182  10.703  17.557   5.215
19868W        W92183   5.277   5.531  12.603
19869W        W92184   5.981  34.582  12.058
19870W        W92185  23.771  20.605  14.964
19871W        W92186  23.284   3.319   3.993
19872W        W92187  24.429  25.030  10.908
19873W        W92188  13.972  20.207  11.352
19874W        W92189   5.523  35.497   2.293
19875W        W92190   0.492  19.101  12.866
19876W        W92191  10.343  40.541  12.502
19877W        W92192  33.562  43.779  10.989
19878W        W92193  18.590  28.349   4.965
19879W        W92194  26.874  32.447   1.384
19880W        W92195   7.698  28.490   0.985
19881W        W92196   0.045  44.299   3.355
19882W        W92197   7.203  31.431  14.268
19883W        W92198  31.620  28.253  11.723
19884W        W92199  37.843  28.347  13.001
19885W        W92200  28.482   9.103   1.808
19886W        W92201  33.924  19.780   1.772
19887W        W92202   5.124  33.432  11.118
19888W        W92203   3.239  16.092  10.558
19889W        W92204  28.910  43.028   3.373
19890W        W92205  16.681   7.919  14.373
19891W        W92206  42.399  11.639  11.348
19892W        W92207  32.335  28.203   0.540
19893W        W92208  17.096  42.830   3.212
19894W        W92209  35.307  11.856   4.605
19895W        W92210  27.048  32.933   0.731
19896W        W92211  23.465  37.373  13.630
19897W        W92212  31.634  34.939  13.467
19898W        W92213   6.164  12.423   1.872
19899W        W92214  42.332   6.544  11.029
19900W        W92215  33.097   4.473   2.782
19901W        W92216  31.384  40.521   2.861
19902W        W92217  38.007  18.617   0.060
19903W        W92218  32.527  11.242  11.122
19904W        W92219  27.690  20.702   0.848
19905W        W92220  21.142   8.625   0.947
19906W        W92221  43.826  10.385   2.186
19907W        W92222  37.739   3.400   2.807
19908W        W92223   0.372  33.040   0.348
19909W        W92224   4.701  28.475   3.494
19910W        W92225  28.465  30.120  10.439
19911W        W92226  41.936  43.014  11.320
19912W        W92227   4.172  39.379   2.872
19913W        W92228  24.266  23.652  13.720
19914W        W92229  35.400  41.804  14.455
19915W        W92230  18.563  26.527   0.757
19916W        W92231  10.541  29.733  11.499
19917W        W92232  29.125  17.113  13.594
19918W        W92233   3.228  29.756  13.385
19919W        W92234  24.746  22.916  13.503
19920W        W92235  40.549  40.926  10.365
19921W        W92236  30.472  30.260   4.562
19922W        W92237  34.153  20.892  13.862
19923W        W92238  38.548  18.269   4.176
19924W        W92239  31.196  10.271  10.412
19925W        W92240   8.937   4.659   2.428
19926W        W92241  39.413  23.587  12.462
19927W        W92242  34.433   3.093  11.057
19928W        W92243  36.882  20.552   2.763
19929W        W92244  43.105  25.095   1.352
19930W        W92245  33.104  21.803   1.673
19931W        W92246  14.639  15.102  10.758
19932W        W92247  27.567   3.912  11.113
19933W        W92248  20.997   5.392  14.695
19934W        W92249  12.040   6.292  11.412
19935W        W92250   6.841  12.879   0.273
19936W        W92251  32.914  11.711  13.484
19937W        W92252  39.475   5.478   4.591
19938W        W92253   3.795   9.958   4.631
19939W        W92254  25.074  28.094  13.315
19940W        W92255   8.853  40.651  13.099
19941W        W92256  26.481  14.048  13.908
19942W        W92257   8.389  24.661   3.108
19943W        W92258  21.058  33.356  14.782
19944W        W92259  17.361  39.355   1.000
19945W        W92260  17.537   4.850   1.353
19946W        W92261  10.971  34.204  11.485
19947W        W92262  11.186  31.235  14.756
19948W        W92263  15.130  14.848   0.317
19949W        W92264  21.814  38.441  12.109
19950W        W92265   7.252  21.648   4.409
19951W        W92266  37.699  37.397   4.202
19952W        W92267   5.911  22.648   0.332
19953W        W92268  33.675  15.925  11.919
19954W        W92269  15.206  38.846  13.969
19955W        W92270  28.692   0.477   0.813
19956W        W92271  25.604  44.765  13.005
19957W        W92272  43.190  12.377  14.656
19958W        W92273   9.118  15.113   0.247
19959W        W92274  32.093  33.826  11.914
19960W        W92275  38.090   7.717   3.418
19961W        W92276   3.375  21.166  11.125
19962W        W92277  25.632  25.614   0.263
19963W        W92278  38.356  14.129   0.386
19964W        W92279  28.102   4.387  13.081
19965W        W92280  34.035   5.163   4.104
19966W        W92281  24.317  28.765  12.794
19967W        W92282  32.350  20.146  13.944
19968W        W92283  28.876  11.296  12.783
19969W        W92284  18.107  25.474  13.997
19970W        W92285   9.032   8.960   2.419
19971W        W92286   6.986  20.085  10.746
19972W        W92287   0.007  26.039  12.800
19973W        W92288  27.300   5.775  13.285
19974W        W92289  30.317  10.360  12.546
19975W        W92290  18.680   2.961  14.506
19976W        W92291  22.598  24.971  10.132
19977W        W92292  32.514  28.026  10.008
19978W        W92293  30.530  15.231  12.835
19979W        W92294  27.637  38.231  14.468
19980W        W92295  37.517   8.411   3.874
19981W        W92296  11.606  20.671   1.817
19982W        W92297   4.729   7.916   0.482
19983W        W92298  26.146   5.193  10.827
19984W        W92299  10.681  18.840  11.581
19985W        W92300  24.331  13.446  11.358
19986W        W92301  22.944  32.496   0.758
19987W        W92302  10.985  32.872   0.904
19988W        W92303  35.163  35.364  10.776
19989W        W92304  15.694  31.328  11.178
19990W        W92305  40.585  17.178  13.175
19991W        W92306  17.118   8.960   4.777
19992W        W92307   1.906  21.824   4.292
19993W        W92308  11.847  34.159  13.563
19994W        W92309   9.422  10.833   2.240
19995W        W92310  17.816   4.217   3.864
19996W        W92311   7.146  15.826  11.782
19997W        W92312  11.737  43.474  12.469
19998W        W92313  13.792  41.425   0.481
19999W        W92314  37.877  17.244  14.814
20000W        W92315  25.468  39.901  11.502
20001W        W92316   1.658  40.971   3.265
20002W        W92317  37.225  32.060   4.025
20003W        W92318  40.812  34.686   3.589
20004W        W92319  24.536  14.052  10.761
20005W        W92320  42.193   9.919  12.960
20006W        W92321  35.540   4.090  10.765
20007W        W92322   2.170  39.003   4.599
20008W        W92323  35.412   2.729   1.980
20009W        W92324  41.419  16.511  14.844
20010W        W92325  15.576   1.922  14.887
20011W        W92326  17.683  21.036  10.904
20012W        W92327  33.927  18.848  10.695
20013W        W92328   9.373  26.147   3.687
20014W        W92329  30.641   9.363   1.677
20015W        W92330  40.944  19.597   1.796
20016W        W92331  19.763  21.114   3.100
20017W        W92332  42.906  25.059  14.383
20018W        W92333  39.042  37.787  14.952
20019W        W92334  44.777  29.232   3.082
20020W        W92335  20.158  25.194  14.917
20021W        W92336   6.059   9.451   3.652
20022W        W92337   1.229  35.947   5.398
20023W        W92338  36.149  24.162   2.299
20024W        W92339  40.511  15.555  13.502
20025W        W92340  18.809  29.405  12.484
20026W        W92341   3.056  12.129  12.924
20027W        W92342  12.139  34.053  10.579
20028W        W92343   5.758  19.588   1.777
20029W        W92344  40.814  15.530  12.945
20030W        W92345   4.831  23.078  12.446
20031W        W92346   6.133  39.101  12.998
20032W        W92347  19.143   3.924   3.760
20033W        W92348  44.052  22.013   0.816
20034W        W92349  12.176  17.218   0.853
20035W        W92350  30.657  42.269  11.951
20036W        W92351  13.606  41.552  13.046
20037W        W92352  33.663   1.228   0.400
20038W        W92353  13.596   5.279   1.185
20039W        W92354  14.534  22.218   1.812
20040W        W92355  30.869  40.443   4.941
20041W        W92356   7.464  42.978   1.235
20042W        W92357  41.080  39.066   1.799
20043W        W92358  15.681  10.385   2.310
20044W        W92359   9.698   3.664  12.569
20045W        W92360  20.860  17.562  14.009
20046W        W92361  27.764   3.142  14.475
20047W        W92362  31.525  39.765  13.056
20048W        W92363  16.410   4.405  13.039
20049W        W92364  14.041  20.476   2.714
20050W        W92365   3.279  31.517  12.901
20051W        W92366  33.262  44.787  12.087
20052W        W92367  37.925  22.533  12.080
20053W        W92368  16.255  36.035   3.191
20054W        W92369  12.575  44.263   1.258
20055W        W92370  31.843  39.333  12.779
20056W        W92371   2.200  11.353   5.754
20057W        W92372  32.376  28.628  11.394
20058W        W92373  12.381  23.002  11.951
20059W        W92374  16.634  43.170  12.629
20060W        W92375  27.278  21.244  12.681
20061W        W92376  39.507   2.772   1.332
20062W        W92377  37.638  36.937   2.134
20063W        W92378   8.403  31.514  13.699
20064W        W92379  33.651  35.404  12.989
20065W        W92380   9.963  27.073  14.045
20066W        W92381  18.346   3.226   1.682
20067W        W92382  16.008   5.223   4.275
20068W        W92383  44.888   9.166   0.628
20069W        W92384  28.054  34.394   4.046
20070W        W92385  23.485  29.097   3.126
20071W        W92386  32.466  20.253  11.806
20072W        W92387  19.671   7.555  12.759
20073W        W92388  21.412   9.043   0.211
20074W        W92389  21.724   2.160  11.583
20075W        W92390  27.122  24.800   1.409
20076W        W92391  12.369  11.739  11.649
20077W        W92392  20.658  37.954  10.950
20078W        W92393  16.090  36.944   3.541
20079W        W92394  16.300   0.824  13.508
20080W        W92395  15.604  13.138  12.510
20081W        W92396  41.812  39.365   4.185
20082W        W92397  26.726  30.947   5.071
20083W        W92398  23.809  39.011  13.230
20084W        W92399  25.537  41.217   4.575
20085W        W92400  43.912  36.477   4.182
20086W        W92401   5.884   8.215   2.022
20087W        W92402   2.260  17.558  13.388
20088W        W92403  34.829  32.526  11.999
20089W        W92404  18.475  14.569   0.260
20090W        W92405  33.054   2.002  10.779
20091W        W92406  32.343  28.975  14.422
20092W        W92407  12.220  13.882   2.204
20093W        W92408  22.907  40.682   0.073
20094W        W92409  23.991   3.979  12.171
20095W        W92410   3.708  44.383   2.799
20096W        W92411   6.457  28.276   5.120
20097W        W92412   7.849  42.455   4.082
20098W        W92413  25.043  44.297  12.548
20099W        W92414  31.076  41.841   2.400
20100W        W92415  43.592  28.746  14.165
20101W        W92416  11.197  20.838   3.224
20102W        W92417  29.638   2.665   0.874
20103W        W92418  40.273   5.382  11.563
20104W        W92419  20.824  36.354  11.424
20105W        W92420   2.564  22.048  12.924
20106W        W92421  44.202   0.498   3.951
20107W        W92422   0.960  16.228  13.775
20108W        W92423   8.801  19.291   1.718
20109W        W92424   9.776  10.750  13.386
20110W        W92425   5.280  40.960  14.358
20111W        W92426   1.849  19.014   1.729
20112W        W92427  15.741  32.012   2.919
20113W        W92428  41.904   3.212   3.900
20114W        W92429  30.840  43.322  13.975
20115W        W92430  21.917  16.659   4.598
20116W        W92431  10.071  28.551   1.870
20117W        W92432  43.885  25.470  11.705
20118W        W92433  43.533  16.771  11.975
20119W        W92434  13.208   4.472  10.849
20120W        W92435  44.196  32.958  11.162
20121W        W92436  17.701  33.375   1.937
20122W        W92437  42.952  27.916   3.743
20123W        W92438  16.205  32.896  12.909
20124W        W92439  14.653  26.601  13.799
20125W        W92440  18.732  38.931  12.138
20126W        W92441   6.763  33.099  12.994
20127W        W92442  20.503  19.204   2.368
20128W        W92443  19.359  30.235   1.870
20129W        W92444   6.090   6.329  13.578
20130W        W92445  43.677   6.726   3.639
20131W        W92446   6.628  21.053   2.324
20132W        W92447  35.350  18.160   0.010
20133W        W92448  32.433   3.969   3.321
20134W        W92449  26.266  41.809   2.743
20135W        W92450  39.848  12.156  14.317
20136W        W92451  12.718   3.851  12.012
20137W        W92452   8.311   7.571   2.335
20138W        W92453   0.038  30.271  14.823
20139W        W92454  20.724  16.022   1.861
20140W        W92455  23.173  40.062   1.721
20141W        W92456   2.832  25.795   1.321
20142W        W92457   2.206  38.934  10.799
20143W        W92458  16.820  26.215   0.517
20144W        W92459   2.629  17.729   2.687
20145W        W92460  20.698   6.337   2.918
20146W        W92461   1.726  31.918  11.437
20147W        W92462   3.337  28.154   2.267
20148W        W92463  35.581   2.445   1.395
20149W        W92464  31.095  10.817  14.855
20150W        W92465  28.178  44.806   0.956
20151W        W92466   6.591  26.001  11.943
20152W        W92467  23.688  24.937   3.133
20153W        W92468   7.336   8.340  14.826
20154W        W92469  14.831   0.764   0.359
20155W        W92470  16.215  36.098   0.699
20156W        W92471  18.043  35.499  14.515
20157W        W92472  32.987  32.046   4.596
20158W        W92473  19.244  17.581   1.274
20159W        W92474  36.679  32.282  10.577
20160W        W92475   5.216  37.247   4.040
20161W        W92476  10.671  38.045  11.534
20162W        W92477  22.948   7.921  13.847
20163W        W92478  36.397  13.657   1.678
20164W        W92479  13.028   2.386   5.125
20165W        W92480  12.754   4.970   3.336
20166W        W92481   9.838  29.927   3.719
20167W        W92482  31.474   3.644   4.769
20168W        W92483  44.148  41.534  11.661
20169W        W92484  28.109   8.248   4.300
20170W        W92485  35.047  16.277   0.030
20171W        W92486  31.004   3.826   2.162
20172W        W92487  18.388  11.574   4.817
20173W        W92488   1.902  21.111   3.669
20174W        W92489  26.296   9.399   1.893
20175W        W92490  16.796  35.525  11.578
20176W        W92491  15.296  43.950   1.301
20177W        W92492   2.823  33.153   2.766
20178W        W92493   3.309  44.251  12.910
20179W        W92494  22.599  13.204  14.001
20180W        W92495  43.246   2.296   0.328
20181W        W92496   5.396  33.615  12.458
20182W        W92497  33.399  29.847  14.390
20183W        W92498  31.227  40.968   4.267
20184W        W92499  43.076   3.080   1.382
20185W        W92500  44.574  14.789   3.240
20186W        W92501  19.175  13.289   3.766
20187W        W92502  19.592  29.626   2.687
20188W        W92503  31.450  43.320  14.405
20189W        W92504  25.060   6.241  14.272
20190W        W92505  18.178  39.104  12.512
20191W        W92506  10.785   7.587  10.714
20192W        W92507  28.152  35.465   1.734
20193W        W92508  35.031   1.708  14.837
20194W        W92509   3.949  18.476   2.290
20195W        W92510  18.202  24.007  12.533
20196W        W92511  41.760  17.004   4.022
20197W        W92512   7.904  15.113  11.006
20198W        W92513  22.517  43.877   2.234
20199W        W92514  31.539   5.413  11.418
20200W        W92515   8.475  39.484   3.252
20201W        W92516  32.400  12.817   2.007
20202W        W92517  21.552  18.047  13.466
20203W        W92518  42.286   0.656   0.542
20204W        W92519   8.724  27.612  14.200
20205W        W92520  18.273   2.221   1.315
20206W        W92521  43.731   6.670   2.257
20207W        W92522  26.965  16.505   0.224
20208W        W92523  32.661  25.856   3.729
20209W        W92524  41.651  21.776   4.181
20210W        W92525  33.567  31.926  13.388
20211W        W92526  18.122   4.407  11.073
20212W        W92527  11.175  16.724   4.339
20213W        W92528   0.883   6.202   2.165
20214W        W92529  42.063  11.262   2.768
20215W        W92530  16.152  31.392  10.959
20216W        W92531  20.143  37.875  12.706
20217W        W92532  34.908  21.469  13.482
20218W        W92533  29.487  35.339  14.765
20219W        W92534  10.324  44.294   2.766
20220W        W92535   6.180  38.895  14.928
20221W        W92536  19.487  25.426  12.864
20222W        W92537  34.990   0.964   0.737
20223W        W92538  39.842  16.626   2.711
20224W        W92539  22.662  15.637   2.734
20225W        W92540  26.628  37.121   3.230
20226W        W92541  32.588  16.464  11.967
20227W        W92542  40.876  42.020  11.574
20228W        W92543  21.686  12.728  11.558
20229W        W92544  30.195  37.558  13.901
20230W        W92545  13.823   9.435  11.002
20231W        W92546  36.565  11.648  14.219
20232W        W92547  25.460   4.491  11.739
20233W        W92548   4.364   8.002  13.895
20234W        W92549  32.320  40.747  10.754
20235W        W92550  21.192  28.395   4.108
20236W        W92551   8.697  15.235   0.519
20237W        W92552  19.320  42.964  13.015
20238W        W92553  33.862  22.644   0.238
20239W        W92554   7.851  22.575   0.427
20240W        W92555  14.544  16.495  11.175
20241W        W92556   5.515  40.335   0.024
20242W        W92557  37.285  24.839   5.231
20243W        W92558  29.572   5.166   4.231
20244W        W92559  42.483  20.195  12.079
20245W        W92560  24.589  22.797  13.996
20246W        W92561   4.873  22.121  11.353
20247W        W92562  23.752   1.677  14.507
20248W        W92563  26.011  23.714   0.551
20249W        W92564  13.431   8.613   1.912
20250W        W92565  15.542  25.696  11.653
20251W        W92566  31.371   3.403   3.791
20252W        W92567  39.282   1.349  12.946
20253W        W92568  38.077   6.818   3.415
20254W        W92569  17.487   8.056   5.533
20255W        W92570  33.646   0.861   3.391
20256W        W92571   9.898   4.214  12.025
20257W        W92572   7.877  44.106  12.538
20258W        W92573  13.697  43.744  12.846
20259W        W92574  27.995  22.654  13.426
20260W        W92575  37.057  16.179   0.495
20261W        W92576  34.995   1.848  11.193
20262W        W92577  28.030  15.288  13.030
20263W        W92578  13.317  26.613   3.815
20264W        W92579  40.292  18.248  14.740
20265W        W92580   4.390  40.584  14.443
20266W        W92581  32.869  43.080  11.015
20267W        W92582   4.645  28.005   4.241
20268W        W92583  25.508  37.392   0.985
20269W        W92584  19.361  10.870   3.732
20270W        W92585  28.914  14.296   0.892
20271W        W92586   9.341  21.912   0.805
20272W        W92587  22.292  40.816   0.865
20273W        W92588  35.908   9.235  10.707
20274W        W92589   3.719  12.695   0.756
20275W        W92590   0.567  28.523  14.307
20276W        W92591   1.742  12.320   4.798
20277W        W92592  42.421  33.521  13.358
20278W        W92593  17.235  12.653  14.034
20279W        W92594  11.312  20.195  12.578
20280W        W92595  32.137  30.679   3.354
20281W        W92596  36.076   5.833  10.706
20282W        W92597  22.282  11.402  14.406
20283W        W92598  25.993  10.260  12.533
20284W        W92599  14.222  42.588   2.119
20285W        W92600  33.437  24.046   2.656
20286W        W92601  33.591  24.563   2.504
20287W        W92602  37.960  23.320   1.365
20288W        W92603  11.964  17.713   0.717
20289W        W92604  18.185   7.418  10.670
20290W        W92605  31.540  42.220   3.494
20291W        W92606   4.605  40.060  12.889
20292W        W92607  25.063  17.288  14.860
20293W        W92608  37.363  18.573  11.387
20294W        W92609  37.402  23.506   3.056
20295W        W92610  37.899  22.034  12.264
20296W        W92611  27.529  10.284  14.395
20297W        W92612  11.279  33.551   0.439
20298W        W92613   1.757  24.396   4.190
20299W        W92614  32.129  37.112  10.901
20300W        W92615  43.278  19.764   3.986
20301W        W92616  27.239  22.099  12.779
20302W        W92617  13.299  11.214  14.841
20303W        W92618  15.125  14.077   3.256
20304W        W92619   8.675   1.247  12.599
20305W        W92620  14.106  31.929   3.908
20306W        W92621  41.584  19.533  12.452
20307W        W92622  33.531   0.757  12.027
20308W        W92623  25.119  10.772   1.673
20309W        W92624  20.222  13.957   4.549
20310W        W92625  25.937  21.081  13.417
20311W        W92626   5.959  36.022   4.377
20312W        W92627   8.955   1.874   2.278
20313W        W92628  40.622  22.857  14.087
20314W        W92629  22.237  39.080   4.274
20315W        W92630  26.575   7.695  12.012
20316W        W92631   9.150  38.399   2.714
20317W        W92632   2.753  28.018  13.023
20318W        W92633   0.482  10.178   3.593
20319W        W92634  27.859  36.718   1.768
20320W        W92635   2.949  26.432  13.514
20321W        W92636  42.987  25.650   4.077
20322W        W92637   2.182  31.758   0.398
20323W        W92638  40.487  24.619   1.872
20324W        W92639  12.272  19.258   2.548
20325W        W92640  32.446  27.545   3.903
20326W        W92641  10.164  24.062   2.833
20327W        W92642  31.606   2.647   2.316
20328W        W92643  36.977   9.250  14.799
20329W        W92644  36.391  21.709  14.345
20330W        W92645  44.487  18.237  14.869
20331W        W92646   3.361  23.041   2.148
20332W        W92647  15.511   4.363   3.858
20333W        W92648  43.953  15.898  12.454
20334W        W92649  14.597   6.725   3.337
20335W        W92650  16.538  33.710   1.314
20336W        W92651  38.113   8.419  12.956
20337W        W92652  34.742  21.648   3.339
20338W        W92653   6.363  19.305  10.823
20339W        W92654   1.513  35.908   2.161
20340W        W92655  17.242  42.752  10.482
20341W        W92656  13.848   5.605   2.713
20342W        W92657   2.241  35.617   3.287
20343W        W92658  26.017   0.754   4.327
20344W        W92659  32.948  32.643  13.455
20345W        W92660  19.690   5.165   0.334
20346W        W92661   7.223   2.998   3.110
20347W        W92662  40.937  44.318  11.902
20348W        W92663  25.117  39.478   3.423
20349W        W92664  42.044  30.664   2.274
20350W        W92665  18.185  38.285   0.716
20351W        W92666  27.576   4.809   3.551
20352W        W92667  43.743  24.080  12.061
20353W        W92668  13.822  18.515   0.959
20354W        W92669  42.693  23.753   0.895
20355W        W92670   7.093   2.516   4.174
20356W        W92671  10.319  29.662  14.883
20357W        W92672  42.181  22.692   2.249
20358W        W92673  34.320  17.595  14.599
20359W        W92674   6.879  11.598  12.627
20360W        W92675  40.447  16.788   0.024
20361W        W92676  19.125   7.284  14.109
20362W        W92677  11.398   0.955  13.950
20363W        W92678  14.034   8.702  12.385
20364W        W92679  26.061  41.023  12.946
20365W        W92680  22.808  44.505   0.280
20366W        W92681   9.599  21.700  12.550
20367W        W92682  19.108  19.116  13.054
20368W        W92683  18.504  20.103  13.642
20369W        W92684  40.093  13.658  14.050
20370W        W92685  19.983  13.106   4.593
20371W        W92686   1.457  36.026   3.201
20372W        W92687  11.606  18.351  11.606
20373W        W92688   8.643  17.688  14.858
20374W        W92689  17.127  15.225  14.474
20375W        W92690  23.622  21.942   5.474
20376W        W92691  30.967  39.380  13.355
20377W        W92692  28.660  39.444   4.268
20378W        W92693  33.314  33.427   2.477
20379W        W92694   8.552   2.883   4.310
20380W        W92695  29.408  22.767   4.118
20381W        W92696   4.359  21.175  10.692
20382W        W92697  22.102   8.974   3.221
20383W        W92698  39.509  12.592   4.352
20384W        W92699  17.698  17.453   3.741
20385W        W92700   3.887  42.053  14.215
20386W        W92701  29.862  15.917   0.697
20387W        W92702  31.583  33.650  13.848
20388W        W92703  42.275  21.174  13.928
20389W        W92704   3.438  36.539   2.341
20390W        W92705   2.398  10.132   1.999
20391W        W92706   6.739  31.312   1.126
20392W        W92707  17.183   1.392  11.446
20393W        W92708   4.705   4.408   2.669
20394W        W92709  43.255  13.262   2.279
20395W        W92710  11.581  40.422  14.770
20396W        W92711  23.961  13.223  13.322
20397W        W92712  40.883  27.907  14.391
20398W        W92713   0.426  19.137  10.935
20399W        W92714  17.664  19.324   0.867
20400W        W92715  16.896   5.732   2.918
20401W        W92716  28.549  37.563   1.941
20402W        W92717  31.338   1.767   4.115
20403W        W92718  28.110  13.770  11.934
20404W        W92719  42.767  19.719  11.432
20405W        W92720  24.697  36.007  10.689
20406W        W92721  30.605  17.265  12.534
20407W        W92722  14.442  17.830  11.502
20408W        W92723  10.699  11.389  13.952
20409W        W92724  42.074   9.948  14.371
20410W        W92725  19.995   4.774   2.908
20411W        W92726   6.770   5.751   1.187
20412W        W92727  10.833  42.105   1.789
20413W        W92728  12.786  33.832   1.933
20414W        W92729  30.920  40.940   2.380
20415W        W92730  32.979  38.738   4.680
20416W        W92731  28.903  11.308   3.680
20417W        W92732  43.591  34.539   0.674
20418W        W92733  33.502   2.827   4.389
20419W        W92734   9.198   5.478  12.450
20420W        W92735  18.088   0.758   2.239
20421W        W92736  17.533  31.018  14.797
20422W        W92737  21.249  30.587  10.601
20423W        W92738   3.244  30.818   0.317
20424W        W92739  37.321   6.902   3.855
20425W        W92740   2.666  21.175   3.365
20426W        W92741   2.176   5.538   3.619
20427W        W92742  21.602  42.818   1.254
20428W        W92743  18.957   8.301   5.431
20429W        W92744  35.572   3.100   4.443
20430W        W92745  22.509  43.556   4.408
20431W        W92746  33.205  23.275   0.159
20432W        W92747  10.202   0.637  12.003
20433W        W92748  16.119  38.339   5.099
20434W        W92749  34.359  37.570   1.891
20435W        W92750  43.662  28.145   1.081
20436W        W92751  34.688  31.121  11.147
20437W        W92752  15.729   0.891  13.150
20438W        W92753  23.596   5.930  14.079
20439W        W92754  41.939  30.700  14.825
20440W        W92755  36.493  18.695   4.568
20441W        W92756  15.225  29.407  10.234
20442W        W92757  40.851  13.566  11.623
20443W        W92758   3.428  32.788  10.689
20444W        W92759  11.317  27.014   1.379
20445W        W92760  19.491  37.205   5.070
20446W        W92761  12.162  36.932   4.080
20447W        W92762  32.302  17.139   1.121
20448W        W92763  13.632   5.859   3.152
20449W        W92764  25.596  37.384  10.090
20450W        W92765  15.758  41.808   0.431
20451W        W92766  32.428  22.051  10.387
20452W        W92767  36.646  18.597   5.038
20453W        W92768  12.748  27.810  11.110
20454W        W92769  21.221  39.837   0.379
20455W        W92770  34.505  12.690   1.967
20456W        W92771   1.972  31.375  12.097
20457W        W92772   7.729  19.028  12.542
20458W        W92773  18.241  17.749  10.476
20459W        W92774  27.151  30.893  12.051
20460W        W92775  18.660  17.745  11.219
20461W        W92776   6.560  29.136  11.125
20462W        W92777   4.912   1.317  13.364
20463W        W92778  44.383  25.464  10.630
20464W        W92779   9.944  19.620   0.975
20465W        W92780   7.502   0.418  12.466
20466W        W92781  30.434  24.982  11.187
20467W        W92782  11.156  15.866   1.184
20468W        W92783  30.200   9.215   4.473
20469W        W92784  39.290   2.769   3.741
20470W        W92785  40.682  29.610   0.389
20471W        W92786   7.636  26.801   5.058
20472W        W92787   7.423  42.476   3.736
20473W        W92788  42.524  24.582   2.204
20474W        W92789  25.579   6.161   1.812
20475W        W92790  39.026  28.674   1.690
20476W        W92791   0.292   3.373  14.943
20477W        W92792  26.086  23.752  14.573
20478W        W92793  43.290  23.884  12.215
20479W        W92794  44.290  31.789  11.273
20480W        W92795  34.973  25.276   0.861
20481W        W92796  32.875  13.065  12.505
20482W        W92797  13.109  28.572  12.821
20483W        W92798  30.013  38.328   3.353
20484W        W92799  17.530  23.266  10.420
20485W        W92800  41.517  18.585  12.878
20486W        W92801  22.928   8.617   2.895
20487W        W92802  28.669  30.356   4.249
20488W        W92803  10.889  12.698   2.748
20489W        W92804  38.809   4.872   5.406
20490W        W92805  32.805   6.731  12.875
20491W        W92806  40.776  26.720   1.315
20492W        W92807  26.129  40.742  14.351
20493W        W92808  44.340  16.109   4.152
20494W        W92809  38.086  24.174   4.430
20495W        W92810  33.098  25.539   4.623
20496W        W92811  17.543  35.630   0.719
20497W        W92812  10.595  17.797  13.433
20498W        W92813   9.824  14.637   0.773
20499W        W92814  19.771  22.006  13.933
20500W        W92815  33.364  35.463   2.951
20501W        W92816  31.669  23.926   4.147
20502W        W92817  35.023   3.045   1.910
20503W        W92818  17.215  36.402  11.420
20504W        W92819  38.229   7.185   1.323
20505W        W92820   5.387   7.168  12.036
20506W        W92821  35.890  33.916   0.252
20507W        W92822  17.135   3.725  12.442
20508W        W92823  23.056  20.612  14.448
20509W        W92824  32.118  27.541  10.295
20510W        W92825  29.655  29.403   1.353
20511W        W92826   1.927  26.443   4.062
20512W        W92827  23.542  26.451   3.108
20513W        W92828  36.612  32.652  13.998
20514W        W92829  27.535  17.448  13.882
20515W        W92830  44.304  44.405  11.204
20516W        W92831  16.847  33.597  14.421
20517W        W92832   3.288  30.265  13.353
20518W        W92833  16.582  25.333  14.361
20519W        W92834  28.947  40.542   4.284
20520W        W92835  34.946  32.368   3.664
20521W        W92836  30.438  20.541   1.307
20522W        W92837  11.262  39.583   4.805
20523W        W92838  27.438  40.123  10.731
20524W        W92839  43.275  17.650  12.908
20525W        W92840  36.880  22.487   2.388
20526W        W92841  44.399  24.663  11.477
20527W        W92842  13.823   1.300   3.323
20528W        W92843  23.266  24.123   0.554
20529W        W92844  19.009  26.056   1.793
20530W        W92845  18.585  11.296   1.738
20531W        W92846  30.178  11.349  14.008
20532W        W92847   5.819   6.418   0.795
20533W        W92848  17.208   9.598  14.019
20534W        W92849  26.632   2.889  14.320
20535W        W92850  26.032   7.454  12.892
20536W        W92851   1.775  15.793   4.047
20537W        W92852  31.422  35.972  13.041
20538W        W92853   5.181   5.799   4.842
20539W        W92854  31.388  24.493   3.330
20540W        W92855   3.961   6.494  14.462
20541W        W92856  19.749  14.194   4.555
20542W        W92857   9.571  26.216  11.936
20543W        W92858  14.055   2.883  13.794
20544W        W92859  27.705  28.852   5.041
20545W        W92860  12.240   3.185   3.895
20546W        W92861  17.262  38.574   2.719
20547W        W92862   5.848  27.587  11.934
20548W        W92863   4.306   2.914  11.276
20549W        W92864  30.961  14.137  12.028
20550W        W92865  40.427  17.790  13.958
20551W        W92866   3.221  38.018  13.512
20552W        W92867  33.781  28.911   2.788
20553W        W92868  17.200  34.092  13.834
20554W        W92869   6.389  30.915   4.560
20555W        W92870  18.635  24.578  11.608
20556W        W92871  17.263  17.553  11.595
20557W        W92872  38.974   9.211  12.495
20558W        W92873  11.494   6.743  14.436
20559W        W92874  41.964   7.755  10.833
20560W        W92875  30.376  41.985  14.729
20561W        W92876  15.395  27.112  13.075
20562W        W92877  10.670  36.929  11.925
20563W        W92878  13.929  27.115  13.059
20564W        W92879   3.523  40.424   0.694
20565W        W92880  32.480   0.488  12.958
20566W        W92881  40.248  31.644  11.851
20567W        W92882  23.203  18.028  12.630
20568W        W92883  25.645  26.194   3.621
20569W        W92884   4.285  36.833   0.312
20570W        W92885  13.597  17.237  12.891
20571W        W92886  20.247  36.148   3.181
20572W        W92887  22.710  25.553  10.507
20573W        W92888  18.735  27.579  11.927
20574W        W92889  18.967  31.277   3.268
20575W        W92890  38.100  26.022  12.131
20576W        W92891   9.359  42.065  11.610
20577W        W92892  33.847  13.831   3.076
20578W        W92893  19.522  26.889  12.079
20579W        W92894  10.162  41.356  13.270
20580W        W92895  16.594  37.803  13.759
20581W        W92896  21.139  23.399   2.817
20582W        W92897  30.685  16.589  10.864
20583W        W92898  18.761  14.563  14.395
20584W        W92899  19.535  36.010  13.568
20585W        W92900  38.410  25.706  10.178
20586W        W92901   2.961  24.665  12.619
20587W        W92902  30.854  35.553   0.853
20588W        W92903  19.809   2.014  11.938
20589W        W92904   3.255  28.544  11.515
20590W        W92905  18.789  41.913  14.840
20591W        W92906  19.777  40.392   3.226
20592W        W92907  33.523  27.174  12.517
20593W        W92908  22.087  35.105   3.682
20594W        W92909   1.979  13.229  13.494
20595W        W92910  24.553   4.567  11.463
20596W        W92911  34.900  20.126   0.399
20597W        W92912  25.005   1.260  11.989
20598W        W92913  27.255   3.376   0.445
20599W        W92914   0.427   0.315  14.711
20600W        W92915  41.845  16.646  12.763
20601W        W92916  38.538  12.432   0.941
20602W        W92917  26.682  12.179  14.739
20603W        W92918   4.771   6.843   3.658
20604W        W92919  27.404  39.730  11.112
20605W        W92920  20.647  30.218   0.889
20606W        W92921  29.283   7.095  10.800
20607W        W92922   7.697  38.737  11.087
20608W        W92923  26.051  30.285   0.730
20609W        W92924  14.841  14.325  14.530
20610W        W92925   3.742  28.401  13.342
20611W        W92926  41.852  36.929   2.737
20612W        W92927  23.596  22.836   0.328
20613W        W92928   3.540   3.705   3.751
20614W        W92929  12.358  25.455  13.971
20615W        W92930  39.099  38.211   3.639
20616W        W92931  24.872  28.906  13.805
20617W        W92932   9.778  20.158   3.629
20618W        W92933  42.560  22.358   3.326
20619W        W92934  29.904  29.050  10.971
20620W        W92935  24.995  20.697   3.883
20621W        W92936  25.991  23.430   0.030
20622W        W92937  35.824  16.120  12.359
20623W        W92938   7.797   1.467  14.909
20624W        W92939  10.806  29.035   2.135
20625W        W92940   9.769  23.538   2.938
20626W        W92941  17.836  35.120  11.140
20627W        W92942  31.898  42.590  13.555
20628W        W92943  15.709  36.369   4.583
20629W        W92944   3.351  24.134  12.168
20630W        W92945   6.377   4.695   3.817
20631W        W92946  17.879  32.514  13.296
20632W        W92947   5.214  42.937   0.397
20633W        W92948   9.910  29.949  12.005
20634W        W92949   5.798  20.628  12.580
20635W        W92950   4.896  17.658  14.924
20636W        W92951  18.050   9.946  13.947
20637W        W92952  39.003  17.831   2.798
20638W        W92953  35.459  11.301  10.878
20639W        W92954  13.934  40.848  14.206
20640W        W92955  36.948  44.115   0.781
20641W        W92956  35.101  25.095   0.381
20642W        W92957  42.502   7.396   2.234
20643W        W92958   2.157   5.414  12.580
20644W        W92959  34.707  15.565   3.085
20645W        W92960  35.838  14.692  10.758
20646W        W92961  30.330  10.808  11.087
20647W        W92962   5.346  42.098   4.612
20648W        W92963  30.137  11.375   2.820
20649W        W92964  38.801  33.656  14.253
20650W        W92965  39.106  10.721  12.876
20651W        W92966  35.358  40.329   0.793
20652W        W92967  35.543  36.642   3.726
20653W        W92968  13.471  35.450  10.698
20654W        W92969  21.696   7.200  11.508
20655W        W92970  29.901  18.477   3.239
20656W        W92971  24.422  28.682  13.951
20657W        W92972  44.388  32.951   0.954
20658W        W92973  25.494   5.855   1.368
20659W        W92974  26.139  13.344   4.992
20660W        W92975  41.868  25.691  12.698
20661W        W92976   6.689   0.386  14.725
20662W        W92977  33.544  34.163   4.149
20663W        W92978  11.466  18.679  13.521
20664W        W92979   0.918   3.123   4.940
20665W        W92980   5.172  33.046  12.213
20666W        W92981  14.760  34.908  10.749
20667W        W92982  34.203  20.362  13.752
20668W        W92983  24.325  24.641   1.703
20669W        W92984  44.268  44.806   2.332
20670W        W92985  36.371  25.560   2.393
20671W        W92986  26.941  14.462  13.078
20672W        W92987   0.114  30.452   1.956
20673W        W92988  16.224   3.320   3.338
20674W        W92989  30.074  28.493  12.455
20675W        W92990   6.305  33.383  12.861
20676W        W92991   3.255  11.658  12.894
20677W        W92992  25.389   8.432   1.711
20678W        W92993  38.556  26.248  11.310
20679W        W92994  39.109  15.864   2.318
20680W        W92995  19.272   8.133  11.682
20681W        W92996  26.983  20.807   2.215
20682W        W92997  14.135  16.347  14.472
20683W        W92998  15.720  12.752   1.684
20684W        W92999  39.828  34.484  12.370
20685W        W93000  19.092  44.257  12.189
20686W        W93001  26.900  29.987  10.535
20687W        W93002   4.444  34.850  13.602
20688W        W93003  28.264  24.513   2.638
20689W        W93004  42.432   8.647   0.719
20690W        W93005  28.501  42.298  14.773
20691W        W93006   1.728  34.933   1.875
20692W        W93007  44.556  44.849  11.465
20693W        W93008  22.676  20.464   4.346
20694W        W93009  14.283  11.271  13.789
20695W        W93010   2.387  12.568   3.684
20696W        W93011  23.098   9.826  12.388
20697W        W93012  24.539  22.586   0.763
20698W        W93013  12.867  10.701   0.497
20699W        W93014  25.623  33.407  10.466
20700W        W93015  17.731   9.183  11.986
20701W        W93016  11.504  18.755  14.897
20702W        W93017  13.824  44.387   1.750
20703W        W93018  44.618  13.444   1.813
20704W        W93019  12.153  15.339   2.301
20705W        W93020  16.219  32.187   2.839
20706W        W93021   7.973  41.182   4.165
20707W        W93022  32.364  20.323  12.313
20708W        W93023  36.608  35.017   3.194
20709W        W93024  30.505   0.901  12.433
20710W        W93025  19.048  29.662   2.766
20711W        W93026  15.625  37.288  11.589
20712W        W93027  27.425  18.830  10.988
20713W        W93028  14.372   0.850   4.572
20714W        W93029  27.224  35.904  14.606
20715W        W93030  13.662  14.113   1.163
20716W        W93031  38.049   0.243  11.882
20717W        W93032  19.154  24.481  12.430
20718W        W93033  40.088  26.183   0.000
20719W        W93034  14.987  34.233  12.502
20720W        W93035  26.731  11.702  14.932
20721W        W93036  30.612  27.945  13.576
20722W        W93037   1.977  25.398   4.123
20723W        W93038  40.813  10.417  11.114
20724W        W93039   0.540  37.364  14.909
20725W        W93040  12.625  10.367   1.436
20726W        W93041  36.400  24.961  13.879
20727W        W93042  22.829  30.818  12.010
20728W        W93043  27.295   7.140   4.452
20729W        W93044  36.253   6.874   4.686
20730W        W93045  42.997  26.458   1.291
20731W        W93046   4.244   6.995  14.536
20732W        W93047  19.917  32.600   1.363
20733W        W93048   1.474   9.193  11.397
20734W        W93049  15.394  27.149   2.295
20735W        W93050  16.873  34.801  11.059
20736W        W93051  27.241  44.767   4.202
20737W        W93052  19.962  42.157  13.047
20738W        W93053  36.858  28.415   0.292
20739W        W93054  11.767  19.204   0.809
20740W        W93055  33.054  21.110   3.332
20741W        W93056   6.668  23.976  11.010
20742W        W93057   4.288   8.267  12.930
20743W        W93058   3.232  11.636   0.642
20744W        W93059   6.409  21.522  11.948
20745W        W93060  27.968  34.171  12.231
20746W        W93061   2.447  28.952   2.647
20747W        W93062  38.565  33.491   2.272
20748W        W93063  43.504  37.795  14.283
20749W        W93064  14.849  16.527  12.901
20750W        W93065  28.657   0.530  12.425
20751W        W93066  41.495  29.918   0.127
20752W        W93067   7.715  44.501   0.067
20753W        W93068  17.798  41.027   5.083
20754W        W93069  42.470  23.700   4.564
20755W        W93070  16.167  29.176  10.537
20756W        W93071  24.655  18.450  13.976
20757W        W93072  16.733  26.746   4.529
20758W        W93073  12.605  39.800   1.364
20759W        W93074  19.125  34.790   1.688
20760W        W93075  28.537  22.826  11.513
20761W        W93076   2.985  44.403  10.721
20762W        W93077  18.276   4.244   2.639
20763W        W93078  21.287  20.654   1.697
20764W        W93079   4.153  18.153  10.919
20765W        W93080  15.838  31.098  12.563
20766W        W93081  23.947  22.511   2.833
20767W        W93082   0.640  34.151  14.951
20768W        W93083  39.411  37.566   3.061
20769W        W93084  29.851  32.974   0.700
20770W        W93085  39.525  15.113   2.867
20771W        W93086   0.628  19.307  11.583
20772W        W93087   9.015   8.017  13.394
20773W        W93088  24.260  43.071  13.468
20774W        W93089  20.312  23.225   1.702
20775W        W93090  42.071  10.676   0.260
20776W        W93091  12.637  29.524  10.490
20777W        W93092   1.318  36.630   4.785
20778W        W93093  16.536   5.143  10.595
20779W        W93094   6.465  37.578   4.355
20780W        W93095   9.101   2.999   4.327
20781W        W93096  12.781  14.594  12.133
20782W        W93097  37.473  32.003   4.998
20783W        W93098  33.556  22.454  12.123
20784W        W93099   5.287  23.516  11.289
20785W        W93100  22.470  37.352   2.795
20786W        W93101  44.219  21.182  13.467
20787W        W93102  41.982  28.212   1.656
20788W        W93103   7.111  30.423   2.139
20789W        W93104  12.770   1.712  14.995
20790W        W93105  26.942  27.363  13.382
20791W        W93106  40.559  19.194  14.939
20792W        W93107  14.337  32.143   1.743
20793W        W93108  19.963   3.845  11.974
20794W        W93109  30.069  30.101   4.927
20795W        W93110  10.035   4.025  14.059
20796W        W93111  28.657  24.994  13.407
20797W        W93112  26.170  42.807   1.557
20798W        W93113  31.467  25.136  11.335
20799W        W93114  20.139   1.997   2.549
20800W        W93115  37.810  14.900   3.427
20801W        W93116  34.523  25.088   2.927
20802W        W93117  42.904  16.589   0.113
20803W        W93118  11.396  13.661   0.896
20804W        W93119  16.029  11.331   1.874
20805W        W93120  26.030  22.924  14.910
20806W        W93121  37.718   7.123   4.973
20807W        W93122  40.135  44.776  10.480
20808W        W93123  23.267   4.499   4.521
20809W        W93124  39.362  24.655   4.178
20810W        W93125  23.645  38.885   4.619
20811W        W93126  44.177  12.411   4.215
20812W        W93127  36.650  36.975   2.414
20813W        W93128  38.020  22.480   3.213
20814W        W93129  19.778  34.883  14.340
20815W        W93130   0.733   6.271   4.563
20816W        W93131  28.350  32.813   4.964
20817W        W93132  15.493   6.813   4.641
20818W        W93133  19.339  11.719  14.452
20819W        W93134  11.431  35.211   3.190
20820W        W93135  31.447  34.547   4.100
20821W        W93136  21.939   1.860   2.332
20822W        W93137   1.237  23.026   0.762
20823W        W93138   8.394  40.464   4.368
20824W        W93139  43.157  43.845  14.784
20825W        W93140  27.105  27.211   1.782
20826W        W93141  10.657   6.962  14.640
20827W        W93142  30.028  43.875   0.436
20828W        W93143   6.180   3.009   0.369
20829W        W93144  26.293  23.707   1.902
20830W        W93145  12.771  36.828  11.665
20831W        W93146   1.253  21.454  12.845
20832W        W93147   1.812  17.354   0.866
20833W        W93148   6.516  28.050   2.347
20834W        W93149   9.945  44.770   2.285
20835W        W93150  23.200   3.498   4.465
20836W        W93151  16.682  23.649  10.597
20837W        W93152   3.754   4.975   2.845
20838W        W93153  33.924  19.634   1.186
20839W        W93154  38.480  26.700  13.276
20840W        W93155   6.213  36.180  12.629
20841W        W93156   6.946  24.454   2.186
20842W        W93157  38.165  26.096  11.619
20843W        W93158  25.705  13.240   3.228
20844W        W93159  36.014   4.347   4.667
20845W        W93160  14.609  33.925  12.978
20846W        W93161   5.884  23.273  14.219
20847W        W93162  39.862   9.896  14.479
20848W        W93163   8.193  44.332  12.210
20849W        W93164   7.694  29.139   1.980
20850W        W93165  24.501   0.119   1.341
20851W        W93166  32.353  35.609  12.529
20852W        W93167  18.836   6.020   3.185
20853W        W93168  32.518  22.258   1.474
20854W        W93169  24.169   1.805   1.208
20855W        W93170  43.736  29.189   1.678
20856W        W93171  22.220  27.120  11.986
20857W        W93172  27.393  40.598  13.257
20858W        W93173  28.213  15.305  13.516
20859W        W93174  26.534  43.875  11.860
20860W        W93175  33.469   4.614  12.772
20861W        W93176   8.270  44.034   3.571
20862W        W93177  22.269   1.505   2.573
20863W        W93178  35.567  43.935  10.753
20864W        W93179  29.080  21.754  10.766
20865W        W93180  42.326  24.251   1.835
20866W        W93181  27.418  22.023  14.866
20867W        W93182  10.692  36.992  12.850
20868W        W93183  41.551  40.039   3.076
20869W        W93184   1.980   4.496   3.440
20870W        W93185  22.654  15.093   9.630
20871W        W93186  25.045  23.186   3.317
20872W        W93187  39.593  24.576  13.442
20873W        W93188  27.055   4.746   3.611
20874W        W93189  15.194   6.277  14.013
20875W        W93190  38.024  17.678  13.906
20876W        W93191  38.445   0.789  11.295
20877W        W93192  32.533  31.909   4.401
20878W        W93193  29.071  34.640   3.239
20879W        W93194   5.962  19.709  10.744
20880W        W93195   2.951  11.325   2.214
20881W        W93196   0.028   8.436  11.658
20882W        W93197   4.433  32.430   4.382
20883W        W93198  41.987  38.753  14.545
20884W        W93199  34.088  43.531  12.957
20885W        W93200  36.342   0.992  12.049
20886W        W93201  20.264  15.367  13.580
20887W        W93202  34.962  21.820  11.159
20888W        W93203  44.387  35.210  14.364
20889W        W93204  39.356  22.486  12.546
20890W        W93205  38.880  34.087   3.373
20891W        W93206  44.419  38.822   2.658
20892W        W93207   7.928  26.173   3.883
20893W        W93208  32.838  16.414   0.789
20894W        W93209   6.804  18.075  11.269
20895W        W93210  12.083   1.975  13.015
20896W        W93211   2.876   2.950   2.207
20897W        W93212  21.715  10.682  12.464
20898W        W93213  26.042  22.455   4.893
20899W        W93214   3.722  19.303   2.710
20900W        W93215  12.118  14.841  13.029
20901W        W93216  44.439  37.791  11.619
20902W        W93217  42.732   5.309  12.645
20903W        W93218   2.063  22.306   0.883
20904W        W93219  32.620   3.434  11.314
20905W        W93220  12.264  43.290  12.405
20906W        W93221   3.317   1.429   4.635
20907W        W93222   7.907  24.022   3.734
20908W        W93223  13.283  13.343  10.651
20909W        W93224  24.920  19.833   9.783
20910W        W93225  17.157  29.751  13.388
20911W        W93226  38.924  42.187   0.403
20912W        W93227  33.673  35.502  12.086
20913W        W93228  32.038  33.238   1.721
20914W        W93229   7.363  39.858   0.242
20915W        W93230  42.479  30.325  13.572
20916W        W93231  20.525  11.673   2.866
20917W        W93232   1.826  27.013   0.381
20918W        W93233  33.081   0.247  14.055
20919W        W93234   4.647  12.876  12.554
20920W        W93235  35.976  21.719   1.698
20921W        W93236  38.006  10.744   2.059
20922W        W93237   2.893  34.503  11.054
20923W        W93238  27.459  42.064   1.313
20924W        W93239  42.790  13.503   4.524
20925W        W93240  15.231  37.916   0.156
20926W        W93241  26.743  29.399   0.541
20927W        W93242  26.958  30.531   1.777
20928W        W93243  10.765  32.981  12.933
20929W        W93244   4.476  13.081   0.896
20930W        W93245  29.478  38.503   3.063
20931W        W93246  37.034  43.589   0.802
20932W        W93247  33.918   9.909   1.635
20933W        W93248  38.477   8.588   0.478
20934W        W93249   9.815  27.999   0.501
20935W        W93250  16.740   7.152  13.686
20936W        W93251  12.727  42.035  12.784
20937W        W93252  15.795  35.162  14.261
20938W        W93253  26.064  25.687  13.520
20939W        W93254   1.440  43.022  11.983
20940W        W93255  37.388  23.108   4.368
20941W        W93256  18.709  13.279  11.128
20942W        W93257  27.659   9.381   4.583
20943W        W93258  22.758  15.149  11.368
20944W        W93259  27.375  36.565  10.696
20945W        W93260   0.497  23.985  14.490
20946W        W93261  44.267   8.206   2.861
20947W        W93262   5.127  19.661   0.409
20948W        W93263  18.047  24.190   4.673
20949W        W93264   1.207  26.527   1.813
20950W        W93265  14.457  24.339  12.954
20951W        W93266  19.777  36.171  13.989
20952W        W93267  11.539   2.238  11.321
20953W        W93268   0.916  31.643  14.724
20954W        W93269  39.799  35.858   1.350
20955W        W93270  19.583  11.886   0.924
20956W        W93271   8.235  14.224  11.215
20957W        W93272  23.747  34.074   2.864
20958W        W93273  27.108  14.983  11.364
20959W        W93274   4.432  30.007   1.329
20960W        W93275  23.074  20.537  13.048
20961W        W93276  29.547  30.459  10.207
20962W        W93277  18.816  35.625   0.008
20963W        W93278  44.773  25.542  11.387
20964W        W93279  36.864  43.725   1.271
20965W        W93280   5.301  21.609   2.198
20966W        W93281   4.910  29.172  12.067
20967W        W93282   1.800  42.827   3.609
20968W        W93283  36.807  34.893   1.369
20969W        W93284   5.220  34.547   0.898
20970W        W93285  18.192  34.038  10.670
20971W        W93286  17.791  39.504   3.842
20972W        W93287  29.417  27.216   0.462
20973W        W93288  19.962   7.740   3.272
20974W        W93289  25.672  22.436   4.161
20975W        W93290  38.935  26.575   2.339
20976W        W93291  34.855  37.361   1.829
20977W        W93292  37.068  33.546  11.119
20978W        W93293  27.480  13.856   0.464
20979W        W93294  24.598  39.499  14.318
20980W        W93295  33.033  10.206   2.623
20981W        W93296  30.978  39.797   1.724
20982W        W93297  37.450  40.459  13.279
20983W        W93298   8.428  39.907   1.614
20984W        W93299  19.462  39.995   3.178
20985W        W93300   0.792  27.088   0.239
20986W        W93301  42.793  27.687  11.602
20987W        W93302   1.700  26.670   3.655
20988W        W93303  29.176   0.740   2.798
20989W        W93304  41.734  14.068   0.586
20990W        W93305   6.800  13.923  12.793
20991W        W93306  40.750   9.900  11.692
20992W        W93307  36.104  35.923   4.277
20993W        W93308   2.422  39.843  12.938
20994W        W93309  17.226   4.813   4.411
20995W        W93310  17.183  34.798   2.786
20996W        W93311  19.063  30.232   2.340
20997W        W93312  31.277  32.079  12.303
20998W        W93313  39.622   6.391   3.919
20999W        W93314  25.092  36.857  12.539
21000W        W93315  28.511  11.726   0.507
21001W        W93316  19.840  16.130   1.703
21002W        W93317  39.756  44.452   4.016
21003W        W93318  25.333  30.440  12.289
21004W        W93319  35.845  43.542   1.383
21005W        W93320   3.671  29.909   0.543
21006W        W93321  36.059  11.343  12.518
21007W        W93322  23.966  35.292  12.030
21008W        W93323  22.681   6.372  14.538
21009W        W93324  22.464   4.041  11.555
21010W        W93325  36.624  10.041   1.765
21011W        W93326  14.668   6.855   2.376
21012W        W93327  36.419  34.201   0.946
21013W        W93328  44.775  34.592  11.928
21014W        W93329   6.222   8.228  14.423
21015W        W93330  12.707  18.276  14.791
21016W        W93331  20.124   1.437  14.000
21017W        W93332  12.494   4.927  10.899
21018W        W93333  31.443  16.296  12.178
21019W        W93334  10.322  25.536   2.804
21020W        W93335  13.877  39.031   0.003
21021W        W93336  12.809  36.491   3.650
21022W        W93337  25.085  26.646  12.980
21023W        W93338  42.426  22.311   1.895
21024W        W93339   0.041  43.384   0.820
21025W        W93340  17.269   3.289  13.280
21026W        W93341  32.262  40.909   1.330
21027W        W93342   8.640   2.785  13.124
21028W        W93343  35.537  39.863  12.901
21029W        W93344  29.166  37.724  12.053
21030W        W93345   0.593  13.676  13.787
21031W        W93346  32.908  21.047  14.770
21032W        W93347  34.893   7.567  12.291
21033W        W93348  20.887  37.002  11.101
21034W        W93349   5.674  32.086  14.879
21035W        W93350  36.064  44.448  14.824
21036W        W93351  41.082  33.631   1.233
21037W        W93352  29.209  16.092   1.247
21038W        W93353  40.529  24.066  12.918
21039W        W93354  22.254   3.409  13.964
21040W        W93355  42.276  11.537  14.750
21041W        W93356  32.168  15.155  10.896
21042W        W93357  31.111   2.428   2.391
21043W        W93358   2.737  12.227  11.627
21044W        W93359   4.246  36.136   3.107
21045W        W93360   1.804  23.921   4.005
21046W        W93361   5.821   1.032  10.690
21047W        W93362  41.009  24.664   2.846
21048W        W93363   0.802  44.442   0.760
21049W        W93364  42.123  38.388  11.255
21050W        W93365   9.921  36.362   1.887
21051W        W93366  12.115   3.668   0.323
21052W        W93367  42.210  25.467   3.070
21053W        W93368  35.277   9.731  13.028
21054W        W93369   0.927  19.721   3.571
21055W        W93370  37.486  10.753   0.164
21056W        W93371   0.850  34.914   2.868
21057W        W93372  29.414  32.392  10.698
21058W        W93373   0.928  42.340  13.449
21059W        W93374  11.580  26.742  14.935
21060W        W93375  33.138  41.358  13.502
21061W        W93376   3.188  24.075   2.482
21062W        W93377  31.099  16.563  14.461
21063W        W93378   0.033  21.549   4.597
21064W        W93379  10.471  28.425  11.437
21065W        W93380  23.127  30.986  12.445
21066W        W93381  38.400  23.924   1.814
21067W        W93382   6.943  20.244   4.147
21068W        W93383   1.919  42.894   4.467
21069W        W93384  10.204  28.643   3.615
21070W        W93385   0.013  19.726   0.719
21071W        W93386  29.456  23.729  10.475
21072W        W93387   3.196  15.290  11.221
21073W        W93388   9.181  16.095   4.778
21074W        W93389   4.108   5.930  12.640
21075W        W93390  18.971  12.752  11.340
21076W        W93391  32.617  14.244   3.495
21077W        W93392  12.865  36.352  12.430
21078W        W93393  24.020  44.815  10.562
21079W        W93394  26.928  39.057   2.409
21080W        W93395  20.712  41.811   0.989
21081W        W93396  42.915  12.411   0.832
21082W        W93397  40.469  24.124  10.152
21083W        W93398  17.351  14.167   0.961
21084W        W93399  15.845  39.401   2.699
21085W        W93400   0.764  32.587  13.787
21086W        W93401   8.786   6.314   2.520
21087W        W93402  41.831  16.151   4.122
21088W        W93403  42.494  32.581   2.722
21089W        W93404  12.661  14.229  11.378
21090W        W93405  32.204  29.683   3.304
21091W        W93406  11.436   3.973   2.713
21092W        W93407   9.910  38.263  14.991
21093W        W93408  21.686  13.313   1.947
21094W        W93409   9.235  12.977   1.469
21095W        W93410  15.220   2.714   3.060
21096W        W93411  16.487  16.404   1.323
21097W        W93412   3.528  42.259   3.821
21098W        W93413  17.098  37.945  12.510
21099W        W93414  22.020   1.021  12.859
21100W        W93415  17.007   9.391  12.286
21101W        W93416  22.256  28.051  11.008
21102W        W93417  19.679  31.056  11.314
21103W        W93418  35.743  21.601   3.211
21104W        W93419   6.741  20.025  13.101
21105W        W93420  42.339   7.597  13.175
21106W        W93421  42.870  15.537  11.871
21107W        W93422  34.875  14.587   9.812
21108W        W93423  42.313  16.899  13.925
21109W        W93424  32.956  37.895  14.727
21110W        W93425  34.333  10.679  11.148
21111W        W93426  17.563   9.337   5.324
21112W        W93427  23.019   5.805  11.283
21113W        W93428  16.606  18.772  11.682
21114W        W93429   5.243  17.788   1.805
21115W        W93430  34.558  41.593   1.645
21116W        W93431  23.267  19.857  14.880
21117W        W93432   7.791  18.048   2.757
21118W        W93433  14.863  36.084   4.190
21119W        W93434  19.646   0.968  11.824
21120W        W93435  37.302  40.288   2.279
21121W        W93436  24.006  34.851  12.317
21122W        W93437  16.636   1.822  12.793
21123W        W93438  23.973  28.455   0.984
21124W        W93439  44.191  36.972   2.263
21125W        W93440   4.650   3.325   0.846
21126W        W93441  41.046   4.357  11.104
21127W        W93442  39.091  22.507  11.132
21128W        W93443  37.082  21.322  14.898
21129W        W93444  15.117  27.952  11.178
21130W        W93445  35.277  44.404   3.675
21131W        W93446   6.973  12.801   2.129
21132W        W93447  11.902   1.729  14.269
21133W        W93448  19.248  28.612   1.798
21134W        W93449  18.066  32.117   3.295
21135W        W93450  41.855   9.050  11.563
21136W        W93451   6.175   1.366  14.340
21137W        W93452  18.602  24.258   4.181
21138W        W93453   8.740  21.999   4.825
21139W        W93454  15.630  24.547  10.584
21140W        W93455  36.262  17.611  11.530
21141W        W93456   4.936  34.321  12.572
21142W        W93457  20.746  31.569  11.788
21143W        W93458  23.570  34.811  12.609
21144W        W93459  24.665  36.136   2.356
21145W        W93460  24.321   7.271   0.099
21146W        W93461  31.898  34.624  14.427
21147W        W93462  42.268  13.560   4.526
21148W        W93463   7.256  43.864  13.422
21149W        W93464  20.005  23.537  14.592
21150W        W93465  15.290  13.435   0.047
21151W        W93466  13.045  44.307  13.881
21152W        W93467  11.654  44.372  12.980
21153W        W93468  16.035  18.862  10.848
21154W        W93469  17.548  35.044  11.610
21155W        W93470  40.247  40.872  13.362
21156W        W93471   4.315   9.124   4.313
21157W        W93472  22.944  43.490   1.673
21158W        W93473  41.541  20.164  13.226
21159W        W93474  15.703  42.826   3.179
21160W        W93475   2.893  12.426  13.751
21161W        W93476  14.814  11.705   2.925
21162W        W93477  42.518  20.968   3.259
21163W        W93478  36.474   5.816   2.712
21164W        W93479  33.306  11.455   3.252
21165W        W93480   9.602   7.932  10.642
21166W        W93481  14.721  27.149   0.995
21167W        W93482  29.472  10.474  13.968
21168W        W93483  35.457   1.909   3.741
21169W        W93484  26.234  18.195  13.407
21170W        W93485  27.207  43.906   4.413
21171W        W93486   8.673   2.763  10.473
21172W        W93487   7.627  26.100   4.617
21173W        W93488  27.255  14.255   4.131
21174W        W93489   5.130  19.630  10.740
21175W        W93490  41.731   9.392   3.749
21176W        W93491   9.553  33.698   4.212
21177W        W93492  16.394  23.069  10.657
21178W        W93493  28.562  38.488   4.107
21179W        W93494  32.387   8.300   1.443
21180W        W93495  44.028  37.497  11.992
21181W        W93496   2.461  28.432  13.953
21182W        W93497  16.057  15.847   3.097
21183W        W93498   6.997  32.413  11.921
21184W        W93499   4.738  26.238  13.220
21185W        W93500  13.264   6.017   2.200
21186W        W93501  24.275  26.490  10.692
21187W        W93502  18.537  32.264   2.737
21188W        W93503  29.926  15.088   2.208
21189W        W93504   2.693  17.237   4.665
21190W        W93505  36.140  38.333   0.062
21191W        W93506  16.010  19.623  12.309
21192W        W93507  20.281  41.487  10.693
21193W        W93508   9.914  18.087  13.873
21194W        W93509  30.203  33.369  12.855
21195W        W93510  29.486  25.059   1.211
21196W        W93511  37.534  35.383   0.678
21197W        W93512  20.122  32.147  14.741
21198W        W93513   2.406   2.996  13.599
21199W        W93514  23.834  23.957   5.108
21200W        W93515  11.776   4.474  10.644
21201W        W93516  25.929   0.554  13.397
21202W        W93517  20.474   8.156   1.422
21203W        W93518  12.117  24.141   1.251
21204W        W93519  28.727  29.128  12.572
21205W        W93520  35.340  44.586  13.438
21206W        W93521  34.594  13.003   1.194
21207W        W93522   4.922  30.082   1.158
21208W        W93523  18.781  29.823  14.280
21209W        W93524  10.140  41.050   0.719
21210W        W93525   3.467  44.258  11.969
21211W        W93526   0.597   2.927   0.451
21212W        W93527  19.067  34.655  14.361
21213W        W93528  18.180   8.692   2.693
21214W        W93529  34.101  32.733   4.134
21215W        W93530  35.063  28.681  12.938
21216W        W93531  41.521  22.771  14.408
21217W        W93532  42.302   2.090  11.121
21218W        W93533  25.168   8.351  14.997
21219W        W93534  12.136  11.603  14.051
21220W        W93535  22.507  27.897  13.829
21221W        W93536   6.688  35.407  10.564
21222W        W93537  28.943   4.247   4.755
21223W        W93538  24.650  36.516   1.101
21224W        W93539   7.743  28.418   0.456
21225W        W93540  26.578  26.730  11.020
21226W        W93541  38.962  11.625   4.722
21227W        W93542  17.834   4.802  11.986
21228W        W93543  27.028  24.795   4.588
21229W        W93544   8.847  17.755   0.383
21230W        W93545  30.612  23.989   2.337
21231W        W93546  25.952  22.980   4.654
21232W        W93547  40.086  32.778   1.831
21233W        W93548  31.018   6.024  12.032
21234W        W93549  30.923   2.833  11.042
21235W        W93550  17.736   5.510  10.695
21236W        W93551   5.846   7.831  13.211
21237W        W93552  28.265  42.914   2.153
21238W        W93553  22.630  23.282   0.023
21239W        W93554  41.781  39.591  11.623
21240W        W93555  11.130  17.671  11.171
21241W        W93556  42.066  26.129  12.404
21242W        W93557   8.387   1.375   1.322
21243W        W93558  37.819   7.291  13.394
21244W        W93559  20.817  15.101  11.804
21245W        W93560   0.742   6.497  11.669
21246W        W93561   1.045  20.696   3.861
21247W        W93562  39.465  13.813   0.783
21248W        W93563   0.254  40.889  11.414
21249W        W93564   4.118  17.769   4.556
21250W        W93565  25.709  28.629  13.824
21251W        W93566  42.835  36.500  11.514
21252W        W93567  13.191  38.811   4.572
21253W        W93568  15.444  13.762   3.571
21254W        W93569  18.660  27.586   4.630
21255W        W93570  12.038   0.084   3.301
21256W        W93571   5.139   6.898  14.920
21257W        W93572  11.886  16.681  13.492
21258W        W93573  36.389  11.679   3.770
21259W        W93574  24.262   3.374  10.870
21260W        W93575  27.125  10.250  13.398
21261W        W93576  29.425  38.381   4.039
21262W        W93577  29.159  24.144  10.450
21263W        W93578  35.579  23.971  12.814
21264W        W93579   7.933   6.863   1.249
21265W        W93580  13.300   7.961  13.388
21266W        W93581  14.802  16.250   4.479
21267W        W93582  22.550  27.038   0.082
21268W        W93583   5.280  12.493   0.908
21269W        W93584  37.376  17.758  10.774
21270W        W93585  29.500   5.298   2.725
21271W        W93586  17.237  23.705   3.240
21272W        W93587   9.869  29.000  14.535
21273W        W93588  28.348  29.305   2.970
21274W        W93589  44.805  12.888  13.078
21275W        W93590  21.675  22.579   2.130
21276W        W93591  16.117  25.487  10.845
21277W        W93592   2.450  29.466   0.769
21278W        W93593  24.287  22.945  13.274
21279W        W93594  39.834  22.182  11.053
21280W        W93595  28.204  12.629   1.138
21281W        W93596  15.258   8.778   2.676
21282W        W93597  15.954  32.027  13.147
21283W        W93598  26.253  30.919   4.367
21284W        W93599  38.764  22.007   3.414
21285W        W93600  38.448  36.371  14.711
21286W        W93601  34.598  29.627   1.849
21287W        W93602  16.042  17.252   0.037
21288W        W93603  37.848  11.655  13.702
21289W        W93604  30.675  33.034   3.279
21290W        W93605  36.139  29.556  11.558
21291W        W93606  33.627  35.648   0.741
21292W        W93607   8.215  32.673  13.352
21293W        W93608  18.694  41.301   3.086
21294W        W93609  25.231  27.877   0.700
21295W        W93610  12.745  31.842   3.843
21296W        W93611  35.951  27.058   4.883
21297W        W93612  13.382   5.838  10.743
21298W        W93613  21.669   4.348  12.894
21299W        W93614  28.560  36.938   1.254
21300W        W93615  14.133  33.917   0.556
21301W        W93616  36.996  13.292  14.404
21302W        W93617   5.785  44.908   3.591
21303W        W93618   8.450  18.394   5.001
21304W        W93619  23.299  26.038   0.215
21305W        W93620  36.366   3.787   3.518
21306W        W93621  37.381  18.095   2.749
21307W        W93622   3.192  43.472   4.216
21308W        W93623  20.625  40.952  12.840
21309W        W93624  12.880   7.292   3.855
21310W        W93625  18.315  33.058   4.687
21311W        W93626  41.824  39.450   0.872
21312W        W93627  18.907  13.532   1.931
21313W        W93628  18.694  33.306   1.208
21314W        W93629  11.391  19.237   4.605
21315W        W93630   9.047  17.129  10.744
21316W        W93631  27.698  40.507   0.717
21317W        W93632  32.881  33.941  14.832
21318W        W93633  28.376  43.822  11.079
21319W        W93634  24.711  24.269   1.775
21320W        W93635  37.650  27.957  13.288
21321W        W93636  25.349  32.508   1.249
21322W        W93637  32.604  33.021  12.983
21323W        W93638  16.368  35.643   1.978
21324W        W93639  19.012  25.414   0.760
21325W        W93640  26.013  32.335  13.916
21326W        W93641  44.522  20.171  11.610
21327W        W93642   4.196   2.201  14.855
21328W        W93643  16.823   8.725   0.471
21329W        W93644  10.946  30.070   1.332
21330W        W93645  10.772  32.959   1.786
21331W        W93646   0.715  39.865  14.957
21332W        W93647   6.336  27.868  10.691
21333W        W93648  15.107  14.346   0.453
21334W        W93649  18.142  33.074   0.504
21335W        W93650  17.532   8.956   2.741
21336W        W93651   0.631   8.221   4.578
21337W        W93652   3.370  16.355  12.931
21338W        W93653  21.152   3.174  13.928
21339W        W93654   1.008  13.700   0.148
21340W        W93655  36.613  41.233   1.767
21341W        W93656  29.952  42.077  13.342
21342W        W93657   6.968   5.619  12.080
21343W        W93658  21.978   9.207  10.725
21344W        W93659  28.932  17.386   1.765
21345W        W93660  17.134  43.332   3.106
21346W        W93661  20.323  38.679  14.858
21347W        W93662  24.442  22.377   0.282
21348W        W93663  15.252   3.143  14.856
21349W        W93664   0.470  40.803  12.959
21350W        W93665   7.872  18.200   2.255
21351W        W93666  37.002  12.456   0.878
21352W        W93667  39.640   9.238   4.106
21353W        W93668  40.859  35.130  11.570
21354W        W93669  20.346  26.602  14.776
21355W        W93670  26.173  40.617  11.940
21356W        W93671  37.604  10.213  13.876
21357W        W93672  18.313   0.889   2.701
21358W        W93673  42.226  35.903  13.986
21359W        W93674   8.489  33.392  10.738
21360W        W93675   8.169  11.140   1.349
21361W        W93676  17.880  33.377   2.432
21362W        W93677  32.479  32.859  13.457
21363W        W93678  41.974   2.440   0.977
21364W        W93679  38.889  26.819  13.581
21365W        W93680  41.133  30.042   0.983
21366W        W93681   7.244   6.849  14.929
21367W        W93682  38.057   9.947  13.387
21368W        W93683  34.049  36.132  11.607
21369W        W93684  32.017   5.356   1.452
21370W        W93685  21.128  32.631  11.946
21371W        W93686  43.505  13.549   3.226
21372W        W93687   9.284  10.404   1.023
21373W        W93688  23.604  16.627  11.865
21374W        W93689  13.345   0.248   0.781
21375W        W93690   6.161  40.176  13.326
21376W        W93691  15.692   4.486  12.587
21377W        W93692  14.776  20.831   1.484
21378W        W93693   5.264   9.473  13.304
21379W        W93694  31.130  16.150  12.584
21380W        W93695   1.810   1.150  11.033
21381W        W93696   6.105   5.891   4.284
21382W        W93697  15.903  19.056  12.633
21383W        W93698  11.134   7.324   4.641
21384W        W93699  37.335   6.376  13.425
21385W        W93700  21.824  40.509   3.883
21386W        W93701  12.622  21.150  12.555
21387W        W93702   2.874  33.486  14.414
21388W        W93703  21.106  25.107  12.126
21389W        W93704  13.733  41.065  11.991
21390W        W93705  27.597  25.964   3.356
21391W        W93706  18.578  29.019  14.309
21392W        W93707  32.879  37.437  12.950
21393W        W93708  40.587   6.329   2.487
21394W        W93709  27.532  25.631  13.536
21395W        W93710  25.547  23.515  13.438
21396W        W93711   9.611   0.055   3.858
21397W        W93712  13.829   2.151   3.054
21398W        W93713  29.071   3.914   0.382
21399W        W93714  17.519  11.811   0.815
21400W        W93715  30.103  16.599   1.289
21401W        W93716  35.342  44.049  11.578
21402W        W93717  24.942  17.309   4.307
21403W        W93718  14.889   6.944  10.242
21404W        W93719  25.041   4.161   0.356
21405W        W93720  23.577   5.140  11.201
21406W        W93721   1.602  11.335   4.114
21407W        W93722   9.967  14.300   4.961
21408W        W93723   5.586  38.125   2.873
21409W        W93724   5.183  10.250   2.866
21410W        W93725  44.052  16.849   2.212
21411W        W93726  17.546  32.064   3.327
21412W        W93727   2.395   5.316   3.207
21413W        W93728  11.270  42.985   3.848
21414W        W93729  16.487   9.514  11.443
21415W        W93730  29.580  27.960  13.514
21416W        W93731   4.847  40.640  13.345
21417W        W93732   9.287  16.855  13.437
21418W        W93733  26.058  26.169   2.607
21419W        W93734  43.655  16.563   2.425
21420W        W93735  10.316  10.479   3.825
21421W        W93736  37.088  18.162  11.595
21422W        W93737  36.301  27.703   0.230
21423W        W93738  15.108  35.135   0.008
21424W        W93739  33.133  21.091   4.704
21425W        W93740  14.748  14.885  13.564
21426W        W93741  36.231  32.967  12.386
21427W        W93742  35.393  32.435   0.376
21428W        W93743  34.890  14.699   1.127
21429W        W93744  29.983  43.927  13.932
21430W        W93745  30.163  43.929  10.637
21431W        W93746  20.483  31.385   3.231
21432W        W93747  19.757   8.898  14.324
21433W        W93748  13.348   6.187  11.596
21434W        W93749   1.962  14.168  13.645
21435W        W93750   5.012   8.676   4.086
21436W        W93751  37.087  36.968   4.837
21437W        W93752  15.376  31.144  11.651
21438W        W93753  29.959  24.431   3.476
21439W        W93754   1.306  44.068   1.838
21440W        W93755  25.565  36.636  12.088
21441W        W93756  29.577   0.285  11.183
21442W        W93757  16.248  30.319  12.351
21443W        W93758  19.524  44.091   3.666
21444W        W93759  11.340  44.841   2.351
21445W        W93760  17.995  44.975  11.256
21446W        W93761  12.035  26.618  12.935
21447W        W93762  24.453  11.156   4.054
21448W        W93763  13.411  26.697   3.313
21449W        W93764  39.532  13.311   2.315
21450W        W93765   5.128  33.573  10.098
21451W        W93766  35.676  30.629  10.666
21452W        W93767  21.641   5.007  13.518
21453W        W93768  24.648  11.320  14.418
21454W        W93769   2.080   3.554  11.124
21455W        W93770  23.660  12.274   1.631
21456W        W93771   9.995   5.276  11.543
21457W        W93772  17.189   2.901  12.013
21458W        W93773  25.405   8.898   5.029
21459W        W93774  13.902  43.170   4.582
21460W        W93775  30.362  44.998  12.485
21461W        W93776  11.350  31.425  13.406
21462W        W93777   8.242  34.854   4.694
21463W        W93778  15.761   7.330  10.142
21464W        W93779  26.358  22.155  11.185
21465W        W93780  41.792  32.050  11.001
21466W        W93781  43.202   6.647  11.089
21467W        W93782  28.936  19.821  13.109
21468W        W93783   0.030  17.543   3.154
21469W        W93784  19.781  17.925  12.523
21470W        W93785  33.573  14.619  14.361
21471W        W93786  35.356  36.061   3.779
21472W        W93787   8.650  33.375   0.203
21473W        W93788  43.877  38.352   3.296
21474W        W93789  27.468  44.712   0.471
21475W        W93790  40.945  30.486   1.202
21476W        W93791  15.682  29.587   1.056
21477W        W93792  37.517  15.298   3.272
21478W        W93793  34.914  38.392   3.159
21479W        W93794  37.448  26.656  10.018
21480W        W93795  29.676   1.989   2.691
21481W        W93796  40.380  32.490  14.000
21482W        W93797  18.239  38.309  10.720
21483W        W93798  28.756  41.799  12.108
21484W        W93799   1.008  11.566   4.238
21485W        W93800   3.959  22.204   3.733
21486W        W93801  22.147  19.511   3.194
21487W        W93802  41.978  26.409  14.361
21488W        W93803  12.870   6.612  13.877
21489W        W93804   4.845  25.285   0.215
21490W        W93805  35.191  26.362  11.552
21491W        W93806   2.703  24.210   2.272
21492W        W93807  44.491   0.778  12.567
21493W        W93808  10.579  33.408  11.639
21494W        W93809  27.978   9.803  12.537
21495W        W93810  15.807  43.423  13.354
21496W        W93811   8.187   8.942   0.127
21497W        W93812  16.952  26.711  12.442
21498W        W93813  21.518  15.454   1.860
21499W        W93814  17.315  13.809  14.629
21500W        W93815  12.120  35.062  14.970
21501W        W93816  35.912  26.402  11.901
21502W        W93817  15.134  13.922   2.384
21503W        W93818  42.750   4.888   3.049
21504W        W93819  36.347  34.499  13.089
21505W        W93820  23.671  23.528  10.235
21506W        W93821  24.573   9.859  11.698
21507W        W93822  16.189   3.828   1.758
21508W        W93823  35.046   9.688   1.258
21509W        W93824   7.324  10.234  13.384
21510W        W93825  19.548  22.162   4.606
21511W        W93826  30.178  26.138   1.926
21512W        W93827  30.454  24.699  14.115
21513W        W93828  24.064  27.898   2.279
21514W        W93829   0.848   0.487  14.271
21515W        W93830   2.678  16.106  13.218
21516W        W93831  33.880   0.167   0.089
21517W        W93832   2.323  26.743   4.235
21518W        W93833  13.193   6.133  12.113
21519W        W93834  43.097   8.686  10.796
21520W        W93835  43.346  20.863  13.615
21521W        W93836  23.819  44.783  14.872
21522W        W93837  14.765  32.209  14.468
21523W        W93838  29.167  31.592  12.793
21524W        W93839  24.429  38.819  11.090
21525W        W93840   5.971  21.982  12.999
21526W        W93841  35.270  37.827   2.813
21527W        W93842   3.025  26.758  10.257
21528W        W93843  38.382  19.498  11.205
21529W        W93844  13.351  13.821   4.084
21530W        W93845  27.838  15.611  12.483
21531W        W93846  32.879  19.456  13.464
21532W        W93847  33.626  37.765  14.327
21533W        W93848   6.201  39.464   2.804
21534W        W93849   8.132  30.663   4.129
21535W        W93850  20.086   9.465   2.820
21536W        W93851  30.061   5.728  13.074
21537W        W93852  38.112  19.621   2.355
21538W        W93853  24.557  37.075   2.282
21539W        W93854  42.574  21.536   4.732
21540W        W93855   7.156   1.407  13.022
21541W        W93856  30.233  41.503  14.532
21542W        W93857  23.658  27.103  14.084
21543W        W93858  27.962  41.810   2.389
21544W        W93859   9.821  35.696   4.948
21545W        W93860   7.590  41.070  11.691
21546W        W93861   2.597   4.335  12.338
21547W        W93862   2.845  32.445  11.698
21548W        W93863  17.426  20.617  10.628
21549W        W93864  14.725  23.401  13.080
21550W        W93865  12.842  16.163   3.731
21551W        W93866  38.376  40.477   4.191
21552W        W93867  28.664   3.112  10.126
21553W        W93868  22.959  40.603   1.858
21554W        W93869  26.490  33.669   2.625
21555W        W93870   1.077  29.171   4.777
21556W        W93871  27.736  35.344   4.110
21557W        W93872   7.824  24.144  13.336
21558W        W93873   9.366  14.871  11.599
21559W        W93874  41.289  13.228   2.845
21560W        W93875  34.813  15.441  10.704
21561W        W93876  13.570  28.152   5.167
21562W        W93877  19.704   6.886   4.563
21563W        W93878  19.133  10.988   9.800
21564W        W93879  21.169  37.452  11.170
21565W        W93880  12.379  17.425   3.243
21566W        W93881  42.920  32.074  14.263
21567W        W93882  27.713   7.645   1.864
21568W        W93883  27.434  30.662   1.357
21569W        W93884  41.193  35.854  12.008
21570W        W93885  24.251  34.729   0.460
21571W        W93886  15.478  40.836  13.258
21572W        W93887  35.985  41.553   0.440
21573W        W93888   7.897   8.799   3.371
21574W        W93889  20.011  13.037  12.936
21575W        W93890  41.727  22.508  12.458
21576W        W93891  18.545  10.912   4.544
21577W        W93892  27.211   2.833  13.001
21578W        W93893  33.374  38.392   0.421
21579W        W93894  16.209   9.891  13.811
21580W        W93895  15.348  38.729  14.580
21581W        W93896  21.504  34.273  14.467
21582W        W93897   7.265  13.424  14.942
21583W        W93898   9.840  23.942  12.628
21584W        W93899   6.813  33.350   0.353
21585W        W93900  21.642  28.602  14.053
21586W        W93901  26.674  19.194  13.053
21587W        W93902  10.825   0.468  11.109
21588W        W93903  34.005  40.307   3.065
21589W        W93904  32.579  16.128   1.148
21590W        W93905  43.948  36.471  14.165
21591W        W93906   2.964  12.600  14.884
21592W        W93907   0.374  39.728   4.868
21593W        W93908  12.762  27.048   0.967
21594W        W93909  40.965  31.087   4.843
21595W        W93910  26.152   9.915   0.367
21596W        W93911   8.735  42.860  14.842
21597W        W93912  35.636  38.307   0.050
21598W        W93913  19.098   4.480  12.916
21599W        W93914  12.738  26.504  14.017
21600W        W93915  19.182  41.501   3.234
21601W        W93916  12.374  32.866   0.926
21602W        W93917   1.332   3.961  11.222
21603W        W93918  34.573  38.072  11.324
21604W        W93919  27.454  33.187   2.901
21605W        W93920  18.885   2.985   3.375
21606W        W93921   4.257  26.125   2.462
21607W        W93922  32.569  19.506   2.805
21608W        W93923  37.981   4.231   3.651
21609W        W93924  14.963   2.670  12.490
21610W        W93925  33.297   3.390   0.353
21611W        W93926   6.271  32.915  10.446
21612W        W93927   0.567  26.914  13.943
21613W        W93928  42.465   9.861   4.136
21614W        W93929  38.804   3.493  11.269
21615W        W93930  10.298  22.753  11.732
21616W        W93931  15.459  21.075   2.370
21617W        W93932  18.602  30.373   2.103
21618W        W93933  10.196  20.963   2.337
21619W        W93934  20.809  11.452   2.336
21620W        W93935  20.985  21.374   1.377
21621W        W93936  17.787  20.586  14.463
21622W        W93937  37.316   6.289   1.355
21623W        W93938   4.337   3.416  14.471
21624W        W93939   3.340  41.056  10.513
21625W        W93940  16.154   6.901  14.905
21626W        W93941  41.290  33.464   4.914
21627W        W93942  28.419  38.501   0.304
21628W        W93943  33.675  10.409  14.379
21629W        W93944  11.930  26.363  13.390
21630W        W93945  16.405  41.783   3.268
21631W        W93946  42.408  34.394   2.986
21632W        W93947   5.059   9.847  10.333
21633W        W93948   8.656  10.961   1.264
21634W        W93949  28.130  44.347   2.568
21635W        W93950  36.934  28.315  12.069
21636W        W93951  18.633  10.589   4.130
21637W        W93952   8.143   7.133   0.427
21638W        W93953   9.692  43.999  14.508
21639W        W93954  21.500   9.895  13.701
21640W        W93955  16.012  19.154  12.127
21641W        W93956  28.001  19.054   4.203
21642W        W93957  24.578   6.262  14.949
21643W        W93958  29.424  40.435  13.635
21644W        W93959  11.903  40.388  14.370
21645W        W93960  19.855   6.168   0.374
21646W        W93961  19.788  11.426   4.298
21647W        W93962  26.637  23.016   0.199
21648W        W93963  43.763   4.900   4.250
21649W        W93964  10.261  18.296   3.195
21650W        W93965  16.012  43.912  12.123
21651W        W93966  29.658  33.185  12.851
21652W        W93967  33.021  36.797  10.790
21653W        W93968   4.238   2.486  13.464
21654W        W93969  13.084   4.176   2.306
21655W        W93970  32.596  13.021  14.484
21656W        W93971  12.141   8.977   0.814
21657W        W93972   0.185   3.275   2.703
21658W        W93973   8.142  34.700  13.403
21659W        W93974  42.864  22.744   2.597
21660W        W93975  21.131  28.118  13.419
21661W        W93976  23.799  19.832   0.482
21662W        W93977  36.914  15.793  11.251
21663W        W93978  29.348  15.851   0.717
21664W        W93979  36.178  14.748   2.779
21665W        W93980  14.870   4.303  14.011
21666W        W93981  32.045   6.647   4.155
21667W        W93982  23.773  32.521   3.691
21668W        W93983   6.194   0.890   2.123
21669W        W93984  12.149  40.516   1.334
21670W        W93985   8.712  41.548  11.094
21671W        W93986  43.768   4.868   3.364
21672W        W93987  37.465   3.770  14.451
21673W        W93988  37.593   6.246  14.415
21674W        W93989  11.235  11.790  10.241
21675W        W93990   9.195  23.866   1.260
21676W        W93991  43.868  40.618  14.349
21677W        W93992  20.625  34.410   1.866
21678W        W93993  41.317  15.603  13.059
21679W        W93994  26.331   8.391   0.087
21680W        W93995   2.460  31.923  13.560
21681W        W93996  35.912   1.467  10.922
21682W        W93997  13.026  14.895   2.674
21683W        W93998   2.253   6.342   4.559
21684W        W93999  39.810   0.345  11.906
21685W        W94000  26.639  36.311   1.182
21686W        W94001  25.540   4.174   2.422
21687W        W94002  16.287  31.187  14.012
21688W        W94003  33.270   8.697  14.819
21689W        W94004  18.655  35.495  10.882
21690W        W94005  24.009   0.905  12.123
21691W        W94006  34.312  11.635  11.570
21692W        W94007  32.018  17.822   4.070
21693W        W94008  16.559  39.716   1.275
21694W        W94009  41.893  44.221  14.575
21695W        W94010  33.678  42.098   4.083
21696W        W94011  34.025  18.446  12.143
21697W        W94012   2.716   8.368   3.237
21698W        W94013  31.921  43.096  14.469
21699W        W94014  44.497  44.388   3.284
21700W        W94015  35.049  12.220   4.106
21701W        W94016  42.635  43.733  11.520
21702W        W94017  18.847  32.415  14.098
21703W        W94018   3.665   3.315   1.309
21704W        W94019  26.410   0.402  13.269
21705W        W94020   4.434  32.965  14.532
21706W        W94021  39.037  12.617  14.466
21707W        W94022  12.678   5.772   4.592
21708W        W94023  11.119   3.868  10.954
21709W        W94024  24.967  23.133   2.214
21710W        W94025  27.929  44.427   4.101
21711W        W94026  10.408  36.379   1.658
21712W        W94027  30.353  41.255   4.520
21713W        W94028  19.196  12.439  10.538
21714W        W94029  41.801  24.756  12.284
21715W        W94030   8.028  32.908   1.450
21716W        W94031  39.331   7.752   2.445
21717W        W94032  31.285   3.549  11.152
21718W        W94033   7.435  16.822   3.931
21719W        W94034  42.168   0.688   1.025
21720W        W94035  32.131  26.486  11.943
21721W        W94036  43.347  11.926   1.846
21722W        W94037   9.693   6.835   2.215
21723W        W94038  31.431   7.259  13.060
21724W        W94039  16.154   8.893   2.678
21725W        W94040  32.451  23.665   3.726
21726W        W94041  23.594  39.025   1.761
21727W        W94042  31.105  25.804   2.183
21728W        W94043   0.310  22.708   3.870
21729W        W94044  14.356   5.169  11.166
21730W        W94045  39.533  26.460  13.844
21731W        W94046   2.469  27.161   0.759
21732W        W94047  25.331  37.054  11.227
21733W        W94048  22.208  42.463  11.426
21734W        W94049  19.307  13.849  14.887
21735W        W94050  19.587  38.427   0.744
21736W        W94051  31.073  13.257   0.920
21737W        W94052   6.147  30.485  10.002
21738W        W94053  36.837  31.912   1.255
21739W        W94054  40.310  10.282  12.387
21740W        W94055  15.878  43.040   4.200
21741W        W94056  44.483   2.324   1.677
21742W        W94057   5.192  33.841   1.786
21743W        W94058   8.332  34.593  13.914
21744W        W94059  15.681   6.333   2.154
21745W        W94060  21.754  28.387  10.671
21746W        W94061  14.217  20.522   4.738
21747W        W94062   5.384  13.062   1.643
21748W        W94063   5.902  41.398   3.652
21749W        W94064  21.177  33.968   4.657
21750W        W94065  11.613   6.232   3.783
21751W        W94066  12.002   9.173  13.809
21752W        W94067   0.107  13.318   0.521
21753W        W94068  14.301   3.676   0.845
21754W        W94069  41.549  22.281   1.773
21755W        W94070   0.807   0.975  11.990
21756W        W94071   3.844  24.507   3.021
21757W        W94072  21.948  36.273  11.625
21758W        W94073  41.530  20.636   2.344
21759W        W94074  15.342   1.264   1.979
21760W        W94075  40.364  31.391   4.555
21761W        W94076  18.257  13.897  12.468
21762W        W94077  21.057  40.902   3.748
21763W        W94078  43.778  12.229   3.322
21764W        W94079  26.767  22.229  11.515
21765W        W94080  32.416  30.364   2.713
21766W        W94081  41.978   3.863   2.657
21767W        W94082  21.494  42.937  10.683
21768W        W94083  36.896  40.666  11.182
21769W        W94084  18.448   8.378  14.743
21770W        W94085   9.756  42.479  14.825
21771W        W94086  27.597  12.539  14.886
21772W        W94087  43.383   6.425   4.690
21773W        W94088   1.405   8.240  11.215
21774W        W94089  33.604  24.166  14.959
21775W        W94090  36.587  43.431   4.416
21776W        W94091  28.596   2.905  11.059
21777W        W94092  36.843  15.381   1.465
21778W        W94093  40.445  36.609   3.119
21779W        W94094  10.335  30.688   1.007
21780W        W94095  19.212  18.301   0.477
21781W        W94096   2.303  21.255  11.901
21782W        W94097   1.826   2.258   3.688
21783W        W94098  39.778   8.368  13.952
21784W        W94099   6.873  20.918  13.822
21785W        W94100  42.315  28.372  13.541
21786W        W94101   3.775  31.728  12.036
21787W        W94102  14.681  18.520   2.723
21788W        W94103  14.845  10.396  14.023
21789W        W94104   2.085  10.953   0.666
21790W        W94105  16.788  19.291   2.354
21791W        W94106   1.090   4.696   3.361
21792W        W94107  29.895   7.753   4.546
21793W        W94108  29.538  40.088   2.240
21794W        W94109  25.635  26.637  10.687
21795W        W94110   7.459  37.914  12.719
21796W        W94111   5.828  29.702  14.361
21797W        W94112  28.651  31.040  13.371
21798W        W94113  19.034  27.031  10.742
21799W        W94114  14.507  37.841   1.235
21800W        W94115  11.679   4.866   2.306
21801W        W94116  44.762  36.698  13.522
21802W        W94117  17.763   5.824   3.300
21803W        W94118   3.771  25.619  12.835
21804W        W94119  41.011  31.413  13.178
21805W        W94120   1.427  42.508   3.806
21806W        W94121  44.922  26.417   4.831
21807W        W94122  26.493  44.504   3.304
21808W        W94123   5.836  20.643  14.528
21809W        W94124   9.782  16.710   3.251
21810W        W94125  15.999  30.636   4.124
21811W        W94126  12.532  34.658  11.205
21812W        W94127  21.745  43.487  13.876
21813W        W94128  16.603  20.867  14.941
21814W        W94129   7.189  30.019  10.940
21815W        W94130  16.025  22.001   0.441
21816W        W94131  33.116   8.584  12.875
21817W        W94132  40.480  44.592  12.049
21818W        W94133  41.675  30.683  10.915
21819W        W94134  34.693   2.937   0.450
21820W        W94135  19.574  42.203  14.033
21821W        W94136  27.010  14.095   0.458
21822W        W94137  18.297  32.573  11.552
21823W        W94138  21.751   8.767   1.548
21824W        W94139  44.657   6.366  13.022
21825W        W94140   9.233  16.620  14.215
21826W        W94141  44.326  23.914  14.417
21827W        W94142  13.279  20.347  14.450
21828W        W94143  44.970  28.957  13.449
21829W        W94144  38.647  37.550  14.560
21830W        W94145  13.670  16.095  10.783
21831W        W94146  40.054  22.067  12.935
21832W        W94147   5.341  31.018   1.791
21833W        W94148  37.807  11.264  14.032
21834W        W94149   9.900   1.469   3.756
21835W        W94150   1.834  22.781   1.468
21836W        W94151  36.040  41.475  13.371
21837W        W94152   3.174  12.885   3.213
21838W        W94153  32.630  26.033   3.221
21839W        W94154  29.143  40.464   0.945
21840W        W94155  33.411   9.745  12.221
21841W        W94156  13.715  27.865   1.407
21842W        W94157   5.464  17.484  10.592
21843W        W94158  38.356  20.642   1.806
21844W        W94159  16.836  36.433   0.780
21845W        W94160  18.123  38.039   4.510
21846W        W94161  28.428   0.379  14.348
21847W        W94162  33.791  11.531  13.424
21848W        W94163  41.957  17.750   0.420
21849W        W94164  17.122   1.287   0.986
21850W        W94165  44.804  41.384  13.517
21851W        W94166  26.197  20.959   4.160
21852W        W94167   8.797  15.775  10.033
21853W        W94168  13.195  26.527   2.339
21854W        W94169  32.598  10.261  13.060
21855W        W94170   8.681   1.344  12.087
21856W        W94171  33.124  13.211   2.120
21857W        W94172  32.409  14.283   4.697
21858W        W94173  44.431  11.461   3.113
21859W        W94174  12.277  38.047   1.758
21860W        W94175   4.146  20.201   1.237
21861W        W94176  36.400  26.216   3.659
21862W        W94177  13.279  28.634  11.891
21863W        W94178  44.777  10.375   2.257
21864W        W94179  33.119  35.313  12.959
21865W        W94180  24.591  18.045   0.298
21866W        W94181   9.794  12.904  14.309
21867W        W94182  22.082  20.778  14.105
21868W        W94183  23.177  21.784   9.903
21869W        W94184  10.713   0.246  10.624
21870W        W94185  28.467  39.479  12.955
21871W        W94186  21.088  26.360   2.364
21872W        W94187  33.869  22.787   1.403
21873W        W94188   0.674  14.845   4.267
21874W        W94189  37.671  19.472   1.730
21875W        W94190  27.367  24.854  14.782
21876W        W94191   0.590  20.186  13.763
21877W        W94192  39.250  43.134   0.339
21878W        W94193  42.639  26.547   4.435
21879W        W94194  30.529  22.601  10.481
21880W        W94195  29.260  14.427   3.510
21881W        W94196  18.412  43.376   3.299
21882W        W94197  29.587  25.032  14.267
21883W        W94198  20.076  21.928  10.856
21884W        W94199  33.252  15.322  13.874
21885W        W94200  41.324  37.083   4.781
21886W        W94201   9.780  27.005   0.360
21887W        W94202  12.056   1.230  14.427
21888W        W94203  29.611  24.546  13.574
21889W        W94204   3.195  17.047  11.570
21890W        W94205  42.962  11.107  11.006
21891W        W94206  44.469   9.816   5.008
21892W        W94207  15.848   8.855   3.544
21893W        W94208  14.045   8.726   4.890
21894W        W94209  34.482  29.288   2.244
21895W        W94210  18.801  39.893  13.725
21896W        W94211  39.561  38.965   0.475
21897W        W94212  40.287  34.585   3.595
21898W        W94213  36.174   7.071   2.585
21899W        W94214   9.866   5.524  13.047
21900W        W94215  43.305  16.630  12.503
21901W        W94216  11.782  27.595  11.420
21902W        W94217   3.290  19.172   1.133
21903W        W94218  13.958  24.014  14.228
21904W        W94219  44.335  25.048  14.006
21905W        W94220  25.261  27.679   0.230
21906W        W94221  12.469   5.367   0.206
21907W        W94222  12.194  37.078   2.775
21908W        W94223  14.753  43.079  13.189
21909W        W94224  30.093  42.644  10.561
21910W        W94225   5.532   0.580   3.663
21911W        W94226  24.777  18.536   0.273
21912W        W94227  23.326   5.943  11.679
21913W        W94228  31.489  26.584  14.826
21914W        W94229  26.665   2.696   1.768
21915W        W94230  31.058  39.603   2.616
21916W        W94231  15.332  29.760   2.109
21917W        W94232  12.056  38.943  12.474
21918W        W94233   3.910  39.257   4.596
21919W        W94234  36.128  42.163   4.943
21920W        W94235   2.674  21.011   4.973
21921W        W94236   1.884  20.346   0.930
21922W        W94237  37.582  31.467  14.439
21923W        W94238  27.476   3.407  14.106
21924W        W94239  42.842  19.052   3.732
21925W        W94240   6.858  44.877  11.761
21926W        W94241  38.945  33.550   4.189
21927W        W94242  38.056  30.348  10.766
21928W        W94243  24.529  27.137   1.631
21929W        W94244   3.379   7.366   2.348
21930W        W94245  29.339  26.970   2.193
21931W        W94246  22.706  31.483   3.311
21932W        W94247   2.992  13.994   1.756
21933W        W94248   9.661  17.698  13.067
21934W        W94249  33.529  44.693   1.736
21935W        W94250  40.812  23.257   4.213
21936W        W94251  12.147  31.424   0.718
21937W        W94252   3.168  40.303  12.608
21938W        W94253  19.052  38.261   4.543
21939W        W94254  32.035   4.059   3.718
21940W        W94255  22.571  17.296   9.942
21941W        W94256  36.560  43.798  12.399
21942W        W94257  27.179  14.519  11.163
21943W        W94258  41.853   5.916   1.276
21944W        W94259   7.312   4.347   0.852
21945W        W94260  44.933  12.436  13.334
21946W        W94261  10.402   4.978  14.090
21947W        W94262  21.145  44.967   1.483
21948W        W94263  24.617  24.637   2.143
21949W        W94264  15.899  30.204   2.825
21950W        W94265  14.584  35.032  10.278
21951W        W94266  15.616   4.931  13.955
21952W        W94267  35.769  41.351  11.178
21953W        W94268  21.072  12.877   1.456
21954W        W94269  23.989  17.338   4.107
21955W        W94270  31.632  27.983   3.164
21956W        W94271  12.867  34.564   4.495
21957W        W94272  14.346  14.335   4.217
21958W        W94273  28.505   0.547   4.048
21959W        W94274   0.717  39.059   5.037
21960W        W94275  36.988  37.756   4.378
21961W        W94276  17.596  42.802   3.355
21962W        W94277  44.412  32.488  13.512
21963W        W94278   6.273  11.492   4.571
21964W        W94279  14.882  30.014   1.934
21965W        W94280   9.520  26.384   1.333
21966W        W94281  40.450  10.883  12.138
21967W        W94282   2.338  25.407   3.244
21968W        W94283  24.075  23.149   1.220
21969W        W94284  34.814  21.728  11.973
21970W        W94285  16.158  40.897   0.993
21971W        W94286  21.890  31.944   5.160
21972W        W94287  14.833   1.120  13.630
21973W        W94288  25.763  10.878   0.359
21974W        W94289  41.751  18.445  13.340
21975W        W94290   6.325   2.654   4.828
21976W        W94291  10.593   9.382  11.007
21977W        W94292  41.359   8.268  14.837
21978W        W94293  43.579  33.152   1.595
21979W        W94294  43.784  19.157  14.548
21980W        W94295   0.941  39.336  12.485
21981W        W94296  35.052  38.977  10.649
21982W        W94297  33.936  13.151  12.472
21983W        W94298  29.117  18.738  11.595
21984W        W94299  29.589  43.483  11.439
21985W        W94300  21.294  41.376  10.366
21986W        W94301  41.299  27.403  14.739
21987W        W94302  25.463  24.964  12.525
21988W        W94303  34.051  30.822  14.919
21989W        W94304  33.907   5.216  12.365
21990W        W94305  25.500  40.042  14.380
21991W        W94306   2.728  22.102  12.452
21992W        W94307   8.386  37.016   2.746
21993W        W94308  34.994  21.187   3.364
21994W        W94309  31.073  28.537   3.850
21995W        W94310  21.174  38.518  13.329
21996W        W94311   1.905  36.925   3.093
21997W        W94312  13.328  33.808   3.574
21998W        W94313   3.799  20.529  12.422
21999W        W94314   2.635  29.016   0.209
22000W        W94315  42.085  23.086   2.547
22001W        W94316   5.687   5.612   2.631
22002W        W94317  35.905  34.320   2.335
22003W        W94318  33.794  43.737   1.783
22004W        W94319  32.803   2.759   3.151
22005W        W94320  25.127   1.709  13.066
22006W        W94321   3.183  22.756   2.648
22007W        W94322  38.302   7.541  13.453
22008W        W94323  22.192  14.625  13.018
22009W        W94324  41.374  33.649  13.311
22010W        W94325  43.068  11.897  14.510
22011W        W94326  27.884   5.307  13.400
22012W        W94327  17.393   3.305  12.260
22013W        W94328   3.786  42.724   4.671
22014W        W94329  13.653  10.726  13.992
22015W        W94330  40.569  16.090  13.314
22016W        W94331  13.579  13.244  11.969
22017W        W94332  27.958   3.837   5.267
22018W        W94333   4.196  34.664  12.870
22019W        W94334   2.309  32.092   0.955
22020W        W94335  38.945  28.550  12.160
22021W        W94336   9.196   8.801  12.768
22022W        W94337  10.949  18.547   1.957
22023W        W94338  25.467  24.561   2.308
22024W        W94339  18.735  40.882  14.056
22025W        W94340   1.754   0.569   1.454
22026W        W94341   5.434  35.093   3.758
22027W        W94342  21.539  26.215  13.891
22028W        W94343  27.072  20.061  14.981
22029W        W94344  24.726   0.321  10.392
22030W        W94345  29.853  19.110  11.174
22031W        W94346  27.686   5.208   1.791
22032W        W94347   1.460  34.275  10.235
22033W        W94348  42.886  38.782  11.689
22034W        W94349  32.884  20.568  14.406
22035W        W94350  36.433  13.118   3.335
22036W        W94351  32.073   0.875   0.294
22037W        W94352   9.309   9.414   0.836
22038W        W94353  35.574  43.475   0.705
22039W        W94354  10.179   3.913  14.942
22040W        W94355  42.891  34.363   4.259
22041W        W94356  13.202  43.120   1.737
22042W        W94357  29.573  10.196  13.067
22043W        W94358   5.289  35.046  12.282
22044W        W94359  15.499  32.390  11.246
22045W        W94360  15.573  42.923  14.003
22046W        W94361  21.771  22.635  12.125
22047W        W94362  12.725  11.667   4.325
22048W        W94363  19.637  36.594  14.703
22049W        W94364   1.207  16.379  14.561
22050W        W94365  33.852  39.624  10.326
22051W        W94366  40.611  19.144  13.763
22052W        W94367  14.193  30.599  12.971
22053W        W94368  19.774   5.470   3.416
22054W        W94369  11.310  30.873   0.711
22055W        W94370  28.696  15.123  12.039
22056W        W94371  30.585   2.748   4.905
22057W        W94372   1.332  12.079   2.230
22058W        W94373  29.135   4.231   9.868
22059W        W94374   7.140  20.012  13.619
22060W        W94375   5.366  12.858   0.396
22061W        W94376   9.529  22.225  12.582
22062W        W94377  25.147  20.096   0.021
22063W        W94378  44.948  34.015   4.486
22064W        W94379  18.450  19.218  11.684
22065W        W94380  27.121   4.228   3.639
22066W        W94381  19.302   4.196  11.249
22067W        W94382  44.399  42.388  11.582
22068W        W94383  33.019  26.112   0.898
22069W        W94384  15.719  33.140   4.203
22070W        W94385  22.528  18.961   4.352
22071W        W94386  27.594  11.854   1.644
22072W        W94387  14.103  20.081  11.818
22073W        W94388  42.331   0.823   2.609
22074W        W94389  27.827   4.362   0.446
22075W        W94390  35.922  13.241   3.277
22076W        W94391  16.763  34.476  12.327
22077W        W94392  26.065  11.744  13.477
22078W        W94393  19.707  23.473   1.139
22079W        W94394  35.749   5.301  11.481
22080W        W94395  38.462  37.304  12.438
22081W        W94396   9.001  11.149   2.288
22082W        W94397  25.904  43.491   0.393
22083W        W94398   3.526   1.305  13.131
22084W        W94399  41.431  43.062  11.226
22085W        W94400  12.344  10.869  13.533
22086W        W94401   2.557  25.731   3.602
22087W        W94402  13.871  11.574  14.428
22088W        W94403  15.747   2.518   4.193
22089W        W94404   8.316  15.946   4.959
22090W        W94405  41.809   0.850   1.732
22091W        W94406  21.726   4.222   1.409
22092W        W94407  36.612  17.898  12.340
22093W        W94408   3.932  18.585   1.404
22094W        W94409  31.546  20.444   2.451
22095W        W94410  22.253  31.210   3.368
22096W        W94411  15.605  10.669   4.043
22097W        W94412   4.929  40.390   4.200
22098W        W94413   3.830  35.106  11.652
22099W        W94414  29.969  38.207  14.513
22100W        W94415  26.068  28.193   2.401
22101W        W94416   7.413  28.550  11.386
22102W        W94417  20.212   2.228  10.749
22103W        W94418  38.058  34.657   0.733
22104W        W94419  17.291  34.954  12.122
22105W        W94420  33.624  32.008   4.599
22106W        W94421   6.031  25.480   2.054
22107W        W94422  13.811  41.330  14.409
22108W        W94423  26.764   4.014   3.343
22109W        W94424  36.946  22.658  12.557
22110W        W94425  30.229   7.922  13.746
22111W        W94426   6.964   1.223  11.619
22112W        W94427   8.242  16.212  13.031
22113W        W94428   5.317  29.387   2.477
22114W        W94429  19.243  33.380  11.248
22115W        W94430  40.443   5.884   2.231
22116W        W94431  42.915  17.521   2.701
22117W        W94432  12.581  24.508  14.953
22118W        W94433  32.261  29.623   1.461
22119W        W94434  11.615   4.986   0.311
22120W        W94435  28.132  18.595  13.816
22121W        W94436  39.451  30.455   4.365
22122W        W94437  24.133  16.992   2.283
22123W        W94438  38.045  24.890   3.267
22124W        W94439  23.933  35.973  13.498
22125W        W94440  39.096   2.343  12.879
22126W        W94441  10.408  34.546  12.234
22127W        W94442  14.204  42.223   4.684
22128W        W94443   3.886  43.223   4.581
22129W        W94444  33.801  41.600  14.887
22130W        W94445  44.920  18.703  11.998
22131W        W94446  34.816  42.199   1.445
22132W        W94447  37.924  34.073  14.866
22133W        W94448  23.729  35.509  13.368
22134W        W94449  25.946  35.587   3.323
22135W        W94450  28.931   5.183   5.008
22136W        W94451  17.038  44.341   0.209
22137W        W94452  41.735  16.113  14.835
22138W        W94453   6.186   6.302  14.494
22139W        W94454  19.823  12.672   4.909
22140W        W94455  21.761  17.874   0.033
22141W        W94456   6.939  15.730  12.930
22142W        W94457  41.481   4.711   2.432
22143W        W94458  21.178  42.497  11.426
22144W        W94459  39.054  24.582  10.771
22145W        W94460   0.999  37.062   4.738
22146W        W94461   3.982  19.723   2.594
22147W        W94462   2.572  38.543  13.325
22148W        W94463  19.480   7.309  14.912
22149W        W94464  25.177  19.826  12.379
22150W        W94465  24.944  26.438  11.485
22151W        W94466  30.008  42.068   4.040
22152W        W94467   1.383   8.906   1.270
22153W        W94468  31.464  30.439  14.878
22154W        W94469  24.167  37.300   4.041
22155W        W94470  19.450  27.119   0.497
22156W        W94471  39.467  42.586   1.175
22157W        W94472  14.827  11.697  11.303
22158W        W94473   5.488  13.805   1.264
22159W        W94474  10.691  32.076  10.134
22160W        W94475   5.629  17.210  11.389
22161W        W94476  28.129  13.209   2.858
22162W        W94477  39.019  23.696  11.676
22163W        W94478  35.620  27.589   0.738
22164W        W94479   8.209  14.664  14.480
22165W        W94480  19.868   4.742  12.003
22166W        W94481  43.330  14.321   3.333
22167W        W94482  40.110  23.806   0.327
22168W        W94483  41.017  14.163   4.130
22169W        W94484  33.084  25.885  10.797
22170W        W94485  26.154  39.123  10.652
22171W        W94486  24.946  33.344  13.976
22172W        W94487   6.140  18.596  12.024
22173W        W94488  30.697  25.816   2.759
22174W        W94489   0.963  29.451  14.240
22175W        W94490   2.803   1.257   1.634
22176W        W94491   4.471  36.302   0.833
22177W        W94492  43.033  40.547   2.361
22178W        W94493  29.174   3.146  12.935
22179W        W94494  44.893   0.752   1.378
22180W        W94495  27.027  11.198  12.622
22181W        W94496  13.088   1.839   3.373
22182W        W94497  35.160  42.946  13.900
22183W        W94498  16.089  44.539   0.016
22184W        W94499   0.620   6.221  14.808
22185W        W94500  41.815  26.700   2.275
22186W        W94501   7.355  10.192   0.470
22187W        W94502   7.173  30.082   0.448
22188W        W94503  23.753  30.635  14.713
22189W        W94504   0.794   7.415  11.433
22190W        W94505  35.550  42.923   2.004
22191W        W94506  40.073  18.611   3.296
22192W        W94507  23.261  15.380  13.061
22193W        W94508  14.102  38.548  14.291
22194W        W94509   7.679  31.236  14.221
22195W        W94510   4.356  44.922  13.364
22196W        W94511  11.143  35.151   1.490
22197W        W94512  40.432  20.050   2.747
22198W        W94513  11.692   4.085   4.710
22199W        W94514  35.437  16.667   0.822
22200W        W94515  32.842  15.159  13.622
22201W        W94516   7.769  30.188  14.458
22202W        W94517  43.294  18.096   3.204
22203W        W94518  24.218   5.426   1.336
22204W        W94519  10.623  35.173   0.746
22205W        W94520   0.852  43.080   2.382
22206W        W94521   3.265  28.192   5.308
22207W        W94522  23.098  33.480  10.503
22208W        W94523  42.859  20.304   4.988
22209W        W94524  35.375  38.837   2.797
22210W        W94525  26.152  17.405  11.546
22211W        W94526   5.426  42.894   1.325
22212W        W94527  13.029  34.944  11.209
22213W        W94528  34.576  10.312   1.740
22214W        W94529  38.018  22.993   3.211
22215W        W94530  41.273  13.277   3.339
22216W        W94531  30.004  11.715   1.821
22217W        W94532  16.210   9.693  12.483
22218W        W94533  14.879  13.695  14.071
22219W        W94534  32.356   2.044  10.347
22220W        W94535  31.399  12.314  13.766
22221W        W94536   1.965  34.264  11.481
22222W        W94537   5.466   0.818   3.223
22223W        W94538   1.871  33.342   4.528
22224W        W94539  34.257  18.086  11.862
22225W        W94540   7.927  10.472  14.423
22226W        W94541  21.104   6.949   3.899
22227W        W94542  40.512  28.450  12.028
22228W        W94543  34.089  12.326  11.192
22229W        W94544  34.348  28.991   2.682
22230W        W94545  31.008  19.508  13.463
22231W        W94546  22.070  27.593  12.149
22232W        W94547  34.882  26.114  13.037
22233W        W94548  26.044  32.873   3.407
22234W        W94549   5.368  37.877  13.810
22235W        W94550  40.784  32.625   1.174
22236W        W94551  15.775   2.449   3.272
22237W        W94552  19.470  31.447   0.028
22238W        W94553  44.538  19.940   3.171
22239W        W94554   1.607   9.753   3.210
22240W        W94555  43.010  39.373   1.820
22241W        W94556  25.462  33.508  10.967
22242W        W94557  26.097  40.885   1.889
22243W        W94558  41.534   4.009   3.604
22244W        W94559  16.186  30.988  14.489
22245W        W94560  35.647  17.061   2.343
22246W        W94561  15.565  28.747   1.294
22247W        W94562  18.297  23.287  13.352
22248W        W94563  28.180  31.522  14.144
22249W        W94564  39.325  41.986  12.289
22250W        W94565   8.404  39.441  11.425
22251W        W94566  13.199  35.809  14.055
22252W        W94567   5.791  36.132   0.911
22253W        W94568  44.534   3.825   4.840
22254W        W94569  16.308   5.664   1.293
22255W        W94570  23.134  41.553   4.076
22256W        W94571  14.878  22.924  13.142
22257W        W94572  43.050  21.671   1.621
22258W        W94573  40.821  38.314  13.437
22259W        W94574  40.290  10.115  13.894
22260W        W94575  14.430  23.663   0.003
22261W        W94576  11.614  22.085   1.422
22262W        W94577  39.902  18.359   4.261
22263W        W94578  18.103  44.162   1.392
22264W        W94579  24.637  20.603  10.875
22265W        W94580  26.551   3.267   5.555
22266W        W94581  27.479   2.372   1.214
22267W        W94582   4.948  39.559  11.840
22268W        W94583  28.761  20.654   1.505
22269W        W94584  23.484   7.164   0.804
22270W        W94585  10.298  13.814   4.927
22271W        W94586  32.831  22.481  10.617
22272W        W94587  39.549  11.262  10.717
22273W        W94588  25.021   4.587   0.035
22274W        W94589  40.398   1.904   4.484
22275W        W94590  15.324   2.616   2.569
22276W        W94591  31.158  12.799   4.572
22277W        W94592   0.575  28.839  11.371
22278W        W94593  44.956  26.526   2.597
22279W        W94594  12.642  22.486   4.706
22280W        W94595  44.200   6.175   2.868
22281W        W94596  27.223  28.183   1.487
22282W        W94597  17.279  21.251   9.996
22283W        W94598  39.435   6.724  10.742
22284W        W94599  21.571  11.024  12.080
22285W        W94600  28.540  26.035  13.296
22286W        W94601  23.639  28.709  14.378
22287W        W94602  25.071   9.887   2.164
22288W        W94603   4.302  19.369  11.290
22289W        W94604  44.016  31.556   4.110
22290W        W94605   1.862  32.677   0.023
22291W        W94606   0.737   7.802   3.272
22292W        W94607  39.453  31.997   2.815
22293W        W94608  35.856  11.528   0.263
22294W        W94609   0.865  44.341  13.496
22295W        W94610   7.632  42.161   1.902
22296W        W94611  37.949   7.663   9.908
22297W        W94612  40.419  28.477  14.750
22298W        W94613  37.087  13.555   2.892
22299W        W94614  31.816  27.088   3.941
22300W        W94615  20.255  40.923  13.390
22301W        W94616  11.399   9.855  14.305
22302W        W94617  20.307  40.363   9.998
22303W        W94618  16.394  14.413  12.424
22304W        W94619  34.242  37.946  10.397
22305W        W94620  20.383  32.558  11.495
22306W        W94621  36.526  26.492   4.082
22307W        W94622  40.966  36.688   1.404
22308W        W94623   5.132  14.310   1.459
22309W        W94624   4.347  28.425   0.890
22310W        W94625   4.733  23.371  14.924
22311W        W94626  21.578  37.334  10.256
22312W        W94627  16.094  27.927   9.830
22313W        W94628  28.050  38.550   2.634
22314W        W94629  38.594  33.515  11.103
22315W        W94630  28.254  18.827  14.331
22316W        W94631  19.745   8.807  10.656
22317W        W94632  44.551  13.323  12.894
22318W        W94633  35.478  24.085   3.856
22319W        W94634   8.411  37.366   3.119
22320W        W94635  22.240  24.265   3.904
22321W        W94636  13.418  24.030  14.616
22322W        W94637  17.452  20.645   3.269
22323W        W94638  17.166   3.296  14.831
22324W        W94639   7.290   5.366   4.707
22325W        W94640  38.436  33.462   0.893
22326W        W94641  12.760  33.213   4.766
22327W        W94642  17.511  41.938   0.438
22328W        W94643  29.416  29.035   4.002
22329W        W94644  17.732  39.026   1.726
22330W        W94645  36.034  14.750   4.307
22331W        W94646  39.836  24.953   2.811
22332W        W94647   7.212  12.202  11.477
22333W        W94648  35.814  41.010  13.458
22334W        W94649  33.472   8.242   4.621
22335W        W94650  32.581  31.607  13.038
22336W        W94651  11.353  35.992  11.721
22337W        W94652  14.335  38.838   3.660
22338W        W94653  32.121  26.024  11.151
22339W        W94654  26.870  43.263   3.819
22340W        W94655  40.724   1.413  14.953
22341W        W94656  20.106  25.812  13.760
22342W        W94657   3.758   6.156  11.410
22343W        W94658  26.185  35.065  11.171
22344W        W94659   9.684  24.044   1.327
22345W        W94660   3.750  19.055   1.692
22346W        W94661  14.080  28.199   1.296
22347W        W94662  18.192  22.910   2.741
22348W        W94663  40.581   3.893  11.666
22349W        W94664  25.476   4.748   5.422
22350W        W94665   1.024  16.341   1.012
22351W        W94666  18.578  20.192  11.105
22352W        W94667  19.789  32.282   3.147
22353W        W94668  16.788  21.543   3.894
22354W        W94669  14.548   3.205   0.415
22355W        W94670  22.986   9.140  10.752
22356W        W94671  18.558  21.154   0.539
22357W        W94672  34.420   8.683  13.135
22358W        W94673  11.769  21.726   4.005
22359W        W94674  17.313  11.116   1.027
22360W        W94675  43.499  27.283   0.658
22361W        W94676  22.269   6.224  12.536
22362W        W94677  10.080  39.046  11.970
22363W        W94678  19.035  17.259  13.045
22364W        W94679  40.823  16.266  11.253
22365W        W94680  13.137  30.587  14.868
22366W        W94681   2.920  27.687   2.975
22367W        W94682   9.755  30.617  11.257
22368W        W94683  25.880  39.025   0.032
22369W        W94684  24.969  41.453   0.947
22370W        W94685  11.386  22.562  14.931
22371W        W94686  32.371  10.314  14.087
22372W        W94687  10.302  44.018   1.808
22373W        W94688  31.067  25.505   2.624
22374W        W94689  25.827  15.588   1.656
22375W        W94690   3.648  11.632  10.780
22376W        W94691  12.213  38.398   0.073
22377W        W94692  36.368  43.595  11.645
22378W        W94693  22.032  32.148   1.323
22379W        W94694  32.425  21.039   2.742
22380W        W94695   7.828  30.896   4.664
22381W        W94696  38.575  36.912  13.813
22382W        W94697  14.284   4.319   2.880
22383W        W94698  44.106  19.181   3.230
22384W        W94699  32.366  43.399  13.092
22385W        W94700  12.325  10.931   2.376
22386W        W94701  11.958  19.664  14.037
22387W        W94702  14.519  12.610   0.815
22388W        W94703  37.926   2.279   3.849
22389W        W94704   2.824   5.394  10.792
22390W        W94705  22.786  39.921  13.643
22391W        W94706  19.220   9.383   4.667
22392W        W94707  27.718  40.553   1.290
22393W        W94708  24.201  32.200  12.986
22394W        W94709  42.050   8.649   0.004
22395W        W94710  34.053  38.144  10.840
22396W        W94711  24.953  44.310   4.173
22397W        W94712  16.776   2.696  12.223
22398W        W94713  25.473   2.968  11.454
22399W        W94714  36.608  10.264   2.648
22400W        W94715   1.771  15.196  11.096
22401W        W94716  26.190   8.635  12.156
22402W        W94717  18.591  32.754   2.584
22403W        W94718  29.014  40.759   1.371
22404W        W94719   4.445  39.418   4.610
22405W        W94720   6.800  21.536  10.710
22406W        W94721  40.036   4.220   1.538
22407W        W94722  30.959  22.923   2.736
22408W        W94723  43.571  13.759   2.301
22409W        W94724  29.229  17.607   0.332
22410W        W94725  21.552  18.380  10.448
22411W        W94726  34.260  38.533   0.737
22412W        W94727  11.707  37.125  13.399
22413W        W94728  26.061  21.436   3.186
22414W        W94729  23.019  24.144   4.575
22415W        W94730  11.129  33.947   1.680
22416W        W94731  24.098  39.761   4.574
22417W        W94732  19.665   0.230  12.902
22418W        W94733  13.764  21.036   2.110
22419W        W94734  31.101  38.994   4.520
22420W        W94735   9.839  24.202   5.082
22421W        W94736  21.528  27.270   3.787
22422W        W94737  35.500  33.579   1.903
22423W        W94738  28.513  23.741  13.901
22424W        W94739  38.779  12.125   4.649
22425W        W94740  40.489  31.540   1.375
22426W        W94741  38.135   2.516  14.303
22427W        W94742  15.483   8.367   0.793
22428W        W94743  17.463  10.947   2.834
22429W        W94744  17.853  33.602  11.522
22430W        W94745  33.207  30.133  12.452
22431W        W94746  31.200  44.233   1.442
22432W        W94747   3.649  15.343  10.459
22433W        W94748  10.673  41.038  13.814
22434W        W94749   5.185   9.770  12.894
22435W        W94750  25.678   9.701  10.291
22436W        W94751  35.476   1.000   3.828
22437W        W94752  12.043  12.129  13.938
22438W        W94753  34.331  30.410  13.835
22439W        W94754  19.347   5.209  12.398
22440W        W94755   0.239   5.749   0.725
22441W        W94756   6.153  22.736   2.161
22442W        W94757   1.830  29.535   3.730
22443W        W94758  11.123  10.192   1.938
22444W        W94759  18.474  40.910   0.479
22445W        W94760  33.919  44.882   1.418
22446W        W94761   9.090   5.291  10.963
22447W        W94762  44.307  37.903  12.652
22448W        W94763  24.476  22.625   2.819
22449W        W94764  12.225  40.307  11.203
22450W        W94765  22.470  10.809  14.320
22451W        W94766  42.284  14.088  12.274
22452W        W94767  18.011   4.644   2.828
22453W        W94768  35.478  14.320   3.812
22454W        W94769   7.012  36.301   0.246
22455W        W94770  13.587  27.458  10.885
22456W        W94771  40.999  39.898   4.405
22457W        W94772  19.191  19.013   0.573
22458W        W94773  19.780  43.451  10.708
22459W        W94774  10.429   9.621   2.783
22460W        W94775  16.915   6.147   3.359
22461W        W94776  12.338  10.130   4.540
22462W        W94777  19.549   1.883  14.231
22463W        W94778   3.342  25.931  12.814
22464W        W94779  40.581   1.963  11.113
22465W        W94780   1.781  13.910  12.319
22466W        W94781  28.171  42.265   1.827
22467W        W94782  40.888  10.358  12.581
22468W        W94783  41.191  23.065   4.663
22469W        W94784   0.392  43.112   3.449
22470W        W94785  12.869  43.882  12.392
22471W        W94786  18.696  41.829   3.114
22472W        W94787  18.382  32.622  13.900
22473W        W94788  26.159  32.577   2.558
22474W        W94789  23.361   1.337   2.418
22475W        W94790  34.591   7.629   3.268
22476W        W94791  26.902  41.934   3.143
22477W        W94792  20.098  33.421  12.528
22478W        W94793   6.645  35.073  11.107
22479W        W94794  31.371  29.177  12.085
22480W        W94795   7.564  27.651  14.326
22481W        W94796  13.600   0.300  13.043
22482W        W94797  29.981  11.439  13.080
22483W        W94798  10.770   2.728   3.668
22484W        W94799  19.524  40.880   1.323
22485W        W94800  40.722  18.071  14.537
22486W        W94801  11.587  11.613   3.898
22487W        W94802  13.566   3.696  12.938
22488W        W94803  14.874   5.436   1.696
22489W        W94804  14.329  16.711  13.019
22490W        W94805  36.567  15.185   0.741
22491W        W94806  34.587  37.356   1.374
22492W        W94807  24.720  42.226  13.634
22493W        W94808  11.444  37.554  14.542
22494W        W94809  10.308   2.103  13.218
22495W        W94810  14.140  23.287  11.591
22496W        W94811  41.933   9.147   1.293
22497W        W94812  26.206  33.311   3.690
22498W        W94813  21.761   0.325  10.649
22499W        W94814  31.722  21.050  12.988
22500W        W94815  12.740   0.861  14.262
22501W        W94816  32.363  26.568   2.414
22502W        W94817   6.051  22.532   4.631
22503W        W94818   9.887  18.102  14.963
22504W        W94819   4.486  11.165   4.326
22505W        W94820  20.258  41.419   0.261
22506W        W94821  26.408  22.074   5.011
22507W        W94822  42.764   7.805   1.350
22508W        W94823   3.755  24.019  14.029
22509W        W94824  19.200  12.163   2.838
22510W        W94825  20.131  43.040  14.286
22511W        W94826  13.864  40.643  12.630
22512W        W94827   5.668  19.463  13.845
22513W        W94828   6.280  39.005   5.020
22514W        W94829  26.714  31.906   1.273
22515W        W94830  33.455  19.163  10.695
22516W        W94831   7.660   8.761   2.422
22517W        W94832   7.909   0.955   2.342
22518W        W94833  19.860  40.472  14.533
22519W        W94834  23.967  12.145  11.183
22520W        W94835  31.080   2.587   2.892
22521W        W94836  39.439   2.422  13.844
22522W        W94837  22.015   3.892   3.159
22523W        W94838  32.675   4.776   4.155
22524W        W94839  39.193  38.836   0.818
22525W        W94840  17.017  43.686  11.989
22526W        W94841  17.069   7.315  10.351
22527W        W94842   9.741  41.883  12.554
22528W        W94843  32.655  19.767   0.010
22529W        W94844  27.977  15.068   1.408
22530W        W94845  41.220   3.760   0.940
22531W        W94846  36.949  17.235   2.893
22532W        W94847  31.693  38.326  14.948
22533W        W94848  20.530   9.821   3.288
22534W        W94849  23.839  16.537  15.000
22535W        W94850  40.888  39.783  12.836
22536W        W94851  40.682  38.774   4.426
22537W        W94852  40.947   6.356  12.167
22538W        W94853   6.930  23.259   1.562
22539W        W94854  38.358  29.700   0.232
22540W        W94855  30.117  12.917   2.415
22541W        W94856  38.784   9.432  12.061
22542W        W94857  12.044  29.434  11.688
22543W        W94858   9.190   7.390  12.048
22544W        W94859   4.162   4.507   0.373
22545W        W94860  32.667  29.134   4.577
22546W        W94861  39.027  38.036  13.289
22547W        W94862  39.351   9.363  11.159
22548W        W94863  38.853  42.179  12.375
22549W        W94864  30.416  28.010   5.073
22550W        W94865  34.470  44.496  10.655
22551W        W94866  17.853  33.796   1.691
22552W        W94867  18.533  32.095  11.527
22553W        W94868  44.917   1.372  14.770
22554W        W94869  40.788  16.097  13.791
22555W        W94870  38.874  42.301  13.559
22556W        W94871  32.866  44.039   1.631
22557W        W94872  10.081  18.044   3.615
22558W        W94873  39.654  15.879  12.556
22559W        W94874   2.721   3.234  14.542
22560W        W94875  41.015  15.273   2.018
22561W        W94876   8.512  33.587   4.111
22562W        W94877  23.599  17.644   2.607
22563W        W94878  43.894  41.265   4.509
22564W        W94879  20.814  43.520  11.591
22565W        W94880  23.514  13.947   2.429
22566W        W94881   4.907  23.212  11.514
22567W        W94882  10.288  31.073  14.770
22568W        W94883  21.158  26.035   3.642
22569W        W94884  18.838  11.822   4.669
22570W        W94885   7.312  35.882   3.328
22571W        W94886  29.728  24.727   1.515
22572W        W94887  41.785  19.630   2.063
22573W        W94888  18.569  24.048  14.486
22574W        W94889  27.530  27.870   0.773
22575W        W94890  35.818  38.000   2.863
22576W        W94891  29.912  33.632   4.286
22577W        W94892  19.650   9.674   4.574
22578W        W94893  44.408   9.355  11.715
22579W        W94894  23.909  37.648   4.968
22580W        W94895  15.227   9.875   4.009
22581W        W94896  11.821  44.164   2.656
22582W        W94897   6.814  18.259  13.010
22583W        W94898  23.433  39.185  13.545
22584W        W94899  27.113  34.496   2.611
22585W        W94900  14.589  42.008   0.417
22586W        W94901   0.946  40.864  10.865
22587W        W94902   4.959  11.121   2.686
22588W        W94903  34.120  38.992  11.134
22589W        W94904  26.166  38.968   1.909
22590W        W94905   5.707  44.320  14.787
22591W        W94906   4.774  14.359  11.404
22592W        W94907  35.414  21.718  14.176
22593W        W94908  27.641  19.076  11.361
22594W        W94909  29.052   3.908  13.439
22595W        W94910  31.747  13.177  13.939
22596W        W94911  42.328   0.932   0.124
22597W        W94912   0.700  21.830   1.516
22598W        W94913  29.905  32.892  13.288
22599W        W94914  23.675  13.771  14.649
22600W        W94915  20.136  30.558  12.559
22601W        W94916  36.641  34.521  11.201
22602W        W94917   3.118  42.480  10.690
22603W        W94918  16.618  17.867  11.014
22604W        W94919  41.744  44.947   1.823
22605W        W94920  19.678  35.073  14.836
22606W        W94921  44.374   3.805   0.030
22607W        W94922  37.925  14.260  13.127
22608W        W94923  35.921  26.183   2.793
22609W        W94924  20.237  26.897   1.818
22610W        W94925  22.135   4.932   3.806
22611W        W94926  16.393   0.942   2.628
22612W        W94927  24.788  34.953  12.027
22613W        W94928  15.315  30.167  12.686
22614W        W94929  32.905  40.402  11.721
22615W        W94930  15.130  25.037  12.071
22616W        W94931   4.798  13.385  13.454
22617W        W94932   6.338  26.216   3.749
22618W        W94933  19.177  34.411   4.310
22619W        W94934  24.488  14.283  14.264
22620W        W94935  20.235  22.006   4.288
22621W        W94936   0.911  41.420   4.133
22622W        W94937  32.174  24.775   0.420
22623W        W94938  35.627  37.348  11.939
22624W        W94939   7.843   7.905  14.543
22625W        W94940   6.462   9.668   1.780
22626W        W94941  35.941  34.092  13.387
22627W        W94942   7.907  11.269   2.628
22628W        W94943  42.228  16.984  14.420
22629W        W94944   4.464  27.426  11.946
22630W        W94945  25.963  20.569  13.024
22631W        W94946  16.734  10.190   4.925
22632W        W94947   4.674  23.738   9.979
22633W        W94948  40.317  41.926  10.659
22634W        W94949  24.474   5.203   0.947
22635W        W94950   1.154  12.756  11.892
22636W        W94951   3.997  44.987  12.097
22637W        W94952  25.993  13.682   3.146
22638W        W94953  16.069   1.292  13.558
22639W        W94954  32.568  17.621  13.325
22640W        W94955  23.307  42.791  13.840
22641W        W94956  15.142   6.232  11.362
22642W        W94957  23.999   2.706   1.542
22643W        W94958   7.783  43.098  12.519
22644W        W94959  30.612  12.564   2.853
22645W        W94960  12.384  13.551  12.901
22646W        W94961  40.952  37.992  13.019
22647W        W94962   9.039  38.869  12.024
22648W        W94963  12.170  14.764   4.225
22649W        W94964  33.979  25.670   1.248
22650W        W94965  23.535   3.978   2.851
22651W        W94966  19.295  42.527  13.500
22652W        W94967  11.309  20.291  11.149
22653W        W94968  18.587  24.404  11.124
22654W        W94969  39.031  22.102  13.999
22655W        W94970   9.656  17.544  11.164
22656W        W94971  37.090  23.879  10.083
22657W        W94972  33.192   4.251  12.484
22658W        W94973  11.431  14.642   0.717
22659W        W94974  20.518  36.936   1.707
22660W        W94975  17.033  11.629   4.250
22661W        W94976  40.853  42.536   2.381
22662W        W94977  32.054  38.806   1.621
22663W        W94978  20.627   9.112  11.127
22664W        W94979  22.046  32.698  13.023
22665W        W94980  37.865  38.862  13.799
22666W        W94981  24.653  39.140   4.274
22667W        W94982   9.845  27.437  11.751
22668W        W94983  17.467   2.715  11.583
22669W        W94984  24.649  14.262  14.746
22670W        W94985  33.983  36.095   1.258
22671W        W94986  18.380  34.500  13.562
22672W        W94987  19.369  38.567  13.812
22673W        W94988  23.694  27.007   1.394
22674W        W94989  28.753  24.033  10.102
22675W        W94990  15.252  41.391   1.926
22676W        W94991  10.267  43.529   0.489
22677W        W94992   5.994  41.325  11.022
22678W        W94993  37.287  13.243   3.513
22679W        W94994  27.968   0.958   0.260
22680W        W94995  25.191   2.803   2.607
22681W        W94996  15.676   9.162   1.691
22682W        W94997  25.950  21.810  11.803
22683W        W94998  27.381   3.962   4.600
22684W        W94999  13.373  24.844   3.257
22685W        W95000  14.766   5.392  11.888
22686W        W95001  32.037   2.902  14.511
22687W        W95002  33.879  20.990   0.819
22688W        W95003  31.655   7.073  12.200
22689W        W95004  10.870  37.899   4.362
22690W        W95005  21.054  34.086   3.218
22691W        W95006  30.175  32.356   0.989
22692W        W95007  18.557  17.084   1.164
22693W        W95008   5.149  14.516   2.796
22694W        W95009  41.940  17.163  12.883
22695W        W95010  25.312  16.965   2.857
22696W        W95011  19.291  14.735   2.199
22697W        W95012  27.092  13.709   4.654
22698W        W95013  43.579  38.456   1.891
22699W        W95014  17.547   8.737   4.614
22700W        W95015   3.793  33.509  14.968
22701W        W95016   0.427  10.144   0.097
22702W        W95017  24.219  35.896   1.704
22703W        W95018  33.474  34.212   2.740
22704W        W95019  16.048  41.612   2.911
22705W        W95020  35.189  34.974   2.646
22706W        W95021  44.435  33.931  13.282
22707W        W95022   5.650  17.637  11.658
22708W        W95023  44.619   9.381   1.038
22709W        W95024  34.092  16.532   2.700
22710W        W95025   0.852   0.220  11.105
22711W        W95026  40.974  26.456   0.449
22712W        W95027  37.149  17.321  14.556
22713W        W95028  29.128   9.319  11.082
22714W        W95029  37.357  25.427   4.570
22715W        W95030  39.515  39.164   2.249
22716W        W95031  19.146  35.117   3.653
22717W        W95032  26.655  30.208  11.111
22718W        W95033  15.261  31.773   1.264
22719W        W95034  19.944  37.128   4.806
22720W        W95035  44.600  10.961  10.701
22721W        W95036   9.424   3.456   1.811
22722W        W95037  27.976  34.574  13.699
22723W        W95038  42.502  31.858   0.578
22724W        W95039  28.398  39.783  13.951
22725W        W95040   5.729  33.031  13.953
22726W        W95041  37.209   9.598   0.530
22727W        W95042  29.882  16.229  14.473
22728W        W95043   8.294  29.390   0.416
22729W        W95044  43.921   0.805   1.116
22730W        W95045  42.339  28.642  10.759
22731W        W95046  24.888  38.082   2.841
22732W        W95047  22.956   5.581  11.744
22733W        W95048  11.593  15.120  14.175
22734W        W95049   9.133  28.100  13.519
22735W        W95050  40.962  34.499  14.741
22736W        W95051  13.671  42.848  11.815
22737W        W95052  26.327  25.484  14.484
22738W        W95053  24.540  31.377  12.843
22739W        W95054  42.794  14.112   9.852
22740W        W95055  22.444  23.949   1.792
22741W        W95056   6.884  34.948   0.456
22742W        W95057  30.953  18.609  12.810
22743W        W95058  39.597  28.910  13.382
22744W        W95059  10.259  25.769  12.406
22745W        W95060   5.359  34.611  12.562
22746W        W95061  12.443  12.412   2.782
22747W        W95062  16.019  44.727   3.173
22748W        W95063   5.631   8.740  11.023
22749W        W95064  14.089   1.915   4.865
22750W        W95065   0.204   3.175  12.166
22751W        W95066  35.811  16.806   0.010
22752W        W95067  37.466  41.469   3.979
22753W        W95068   1.370  37.652  12.485
22754W        W95069   0.289  41.306  10.615
22755W        W95070   3.268   1.952  13.263
22756W        W95071   9.044  26.181  12.886
22757W        W95072  38.516  24.981  12.817
22758W        W95073  33.948  15.911   4.129
22759W        W95074  36.493  37.873  10.634
22760W        W95075   4.722   1.971  13.993
22761W        W95076  28.547  15.754   3.862
22762W        W95077  27.142  38.496  13.812
22763W        W95078  26.251  27.203   4.094
22764W        W95079  37.581  30.238  14.863
22765W        W95080  44.726  36.037   9.752
22766W        W95081   1.803  21.187   2.686
22767W        W95082  26.053  22.214  12.133
22768W        W95083  10.245   0.957   0.301
22769W        W95084  22.024  13.746   3.068
22770W        W95085   6.803  14.524  11.200
22771W        W95086  30.873  13.703   4.139
22772W        W95087  22.761  22.639  10.500
22773W        W95088  35.045  10.024  14.290
22774W        W95089  35.414   2.683  13.908
22775W        W95090  44.786   1.835   0.741
22776W        W95091   0.554   3.741   1.755
22777W        W95092   5.473  39.570   4.494
22778W        W95093  41.764  43.026   4.646
22779W        W95094  42.290   3.739   1.715
22780W        W95095  37.085  39.515  12.933
22781W        W95096  11.799  31.513  12.147
22782W        W95097  13.195   8.266  11.012
22783W        W95098   4.659  38.027  12.182
22784W        W95099  15.728  17.015  14.438
22785W        W95100  16.171   0.522  14.962
22786W        W95101  19.295  41.908  14.917
22787W        W95102  12.440  12.075   0.335
22788W        W95103   6.844  16.351   3.652
22789W        W95104  33.657  17.527  12.884
22790W        W95105   8.193  39.897   2.584
22791W        W95106  44.875  27.643   0.340
22792W        W95107  15.706  33.350   3.677
22793W        W95108  33.170  35.660   1.681
22794W        W95109  18.995  21.573  14.903
22795W        W95110  36.860  30.021  10.948
22796W        W95111  14.065  37.912  12.509
22797W        W95112  20.139  33.557   3.885
22798W        W95113  33.388  40.639  12.367
22799W        W95114   4.806  25.918   1.870
22800W        W95115   8.429  14.825   0.993
22801W        W95116  39.804  21.980   0.836
22802W        W95117  18.297  23.486  14.974
22803W        W95118   5.992  44.316   1.278
22804W        W95119  10.841  38.383  11.878
22805W        W95120  44.534   2.552  13.485
22806W        W95121  31.919  41.483  10.806
22807W        W95122  16.642  10.256  13.769
22808W        W95123   0.991   3.531   1.487
22809W        W95124   6.802  27.446   1.341
22810W        W95125  26.085  35.444   2.470
22811W        W95126  19.846   9.915  12.603
22812W        W95127   4.827  31.202   1.898
22813W        W95128  33.023  42.868   0.002
22814W        W95129  32.436  35.200  12.224
22815W        W95130  12.196   8.983  12.078
22816W        W95131  13.739  14.077   1.825
22817W        W95132  13.001   5.434   0.310
22818W        W95133  15.831   9.272   4.253
22819W        W95134   2.941  14.127  14.245
22820W        W95135  19.965   8.187   0.045
22821W        W95136  22.048   7.076   4.497
22822W        W95137  34.622   0.890   2.232
22823W        W95138   9.974  38.856   1.801
22824W        W95139  31.835  33.527  13.093
22825W        W95140  44.645  34.029   2.434
22826W        W95141  11.646  40.937  12.254
22827W        W95142  39.871  13.637  11.550
22828W        W95143  41.881  22.130   3.105
22829W        W95144   7.735  20.960   2.231
22830W        W95145  24.965  17.768  13.073
22831W        W95146  19.974  15.831  14.804
22832W        W95147  22.519  24.579   4.405
22833W        W95148  42.075  20.774  14.909
22834W        W95149  22.946   6.141  10.604
22835W        W95150   8.291  21.731   3.696
22836W        W95151  42.860  31.458   1.814
22837W        W95152  36.747  38.023   4.732
22838W        W95153  16.346  42.859   0.719
22839W        W95154  13.105   0.758  12.895
22840W        W95155   5.813  17.343  10.948
22841W        W95156  21.514  21.132   2.642
22842W        W95157  42.413  36.848   1.364
22843W        W95158  26.126  40.012   2.105
22844W        W95159  10.687  12.165   0.164
22845W        W95160  23.138  29.567   1.412
22846W        W95161   8.692  21.383  12.161
22847W        W95162   8.328   7.670  14.611
22848W        W95163  39.118  15.870  13.495
22849W        W95164  15.338  39.652  14.661
22850W        W95165  41.984  37.583   2.729
22851W        W95166  26.653  38.106   1.346
22852W        W95167  28.550  26.896   0.940
22853W        W95168   4.849  23.584   2.316
22854W        W95169   6.222  27.979   1.889
22855W        W95170  25.065   3.643   1.868
22856W        W95171  30.997  37.958   4.649
22857W        W95172   8.875  17.666   4.214
22858W        W95173  43.892  42.587  12.970
22859W        W95174  32.859  10.333  12.019
22860W        W95175  15.346   7.188   0.426
22861W        W95176   5.899  42.324  14.828
22862W        W95177  25.188  21.470  14.904
22863W        W95178  33.668  35.848   1.704
22864W        W95179   3.131  35.511  14.006
22865W        W95180  29.558  24.485  11.959
22866W        W95181  19.699  23.134   3.814
22867W        W95182  13.577  16.440  12.572
22868W        W95183  19.594  40.599  14.977
22869W        W95184  35.438  34.113  14.021
22870W        W95185  30.144  29.509  12.336
22871W        W95186   8.536  32.885  14.329
22872W        W95187  14.264  25.929  14.801
22873W        W95188  42.219  31.579  14.855
22874W        W95189  28.340   5.685  14.613
22875W        W95190   7.137  11.148   3.354
22876W        W95191  39.578  29.758  10.775
22877W        W95192  33.595  32.595   2.150
22878W        W95193  17.186  19.008  13.079
22879W        W95194   1.022  12.862   5.048
22880W        W95195  44.273  34.078   0.333
22881W        W95196  24.510  38.782   0.323
22882W        W95197   0.911  35.901   3.703
22883W        W95198  23.760   0.327   3.605
22884W        W95199  44.998  18.527  14.923
22885W        W95200  29.988  31.485   0.224
22886W        W95201  36.466  35.738  12.836
22887W        W95202  26.580  38.313  14.493
22888W        W95203  12.366   6.249  14.525
22889W        W95204   0.073  41.729  11.585
22890W        W95205  32.282   4.182   4.207
22891W        W95206  27.976   6.685   9.524
22892W        W95207  29.641  10.889  10.592
22893W        W95208  14.724  37.443  14.925
22894W        W95209  41.986  24.743  14.286
22895W        W95210  27.777   6.815   1.943
22896W        W95211  18.313  34.962  11.021
22897W        W95212  39.773  14.829   2.406
22898W        W95213  14.852   2.319   0.978
22899W        W95214  18.748  42.471   1.353
22900W        W95215  33.125  20.241   0.294
22901W        W95216  34.983  41.423  10.872
22902W        W95217  20.540   0.739   4.410
22903W        W95218  37.734  33.039  12.400
22904W        W95219  39.028  39.040   0.338
22905W        W95220  25.936   8.826  14.612
22906W        W95221   2.801   8.479   3.768
22907W        W95222   1.063  26.149  11.520
22908W        W95223  15.333  22.718   0.499
22909W        W95224  37.079  13.121   2.131
22910W        W95225  34.927   6.257   4.063
22911W        W95226  37.849  34.927   2.398
22912W        W95227   2.026   8.762  12.134
22913W        W95228  17.268  27.625  10.610
22914W        W95229  26.540   6.766   0.751
22915W        W95230  40.955  21.053   2.381
22916W        W95231  41.112  17.400  11.932
22917W        W95232  27.109  11.739  12.313
22918W        W95233  23.067  13.883  12.633
22919W        W95234  10.444  38.156  13.796
22920W        W95235  28.380   6.783  12.806
22921W        W95236  43.031  11.246   2.766
22922W        W95237  35.449  32.483   0.912
22923W        W95238  40.805  13.730   1.199
22924W        W95239   9.562  20.326  14.891
22925W        W95240  20.131  37.917  14.847
22926W        W95241   9.948   3.022   2.495
22927W        W95242  43.559  41.082   1.880
22928W        W95243  34.348   3.845   4.834
22929W        W95244  22.203  22.851  13.012
22930W        W95245  21.366  13.954   3.363
22931W        W95246  44.368  34.551   5.298
22932W        W95247  31.413  31.120   1.653
22933W        W95248  36.586  33.685  14.036
22934W        W95249   6.467   1.138  11.612
22935W        W95250  27.585  36.543  11.163
22936W        W95251  23.109  22.084   3.279
22937W        W95252  23.243   4.403  11.675
22938W        W95253  42.507  27.185  13.125
22939W        W95254  44.908  17.299  11.536
22940W        W95255  36.436  42.867   0.933
22941W        W95256  33.010   5.462   1.873
22942W        W95257  39.986   6.302   0.520
22943W        W95258  11.735  38.426  13.800
22944W        W95259   0.841  29.634   1.778
22945W        W95260  42.796   2.342   0.035
22946W        W95261   0.974   0.228   4.320
22947W        W95262  39.999  11.423   2.253
22948W        W95263  37.549  43.739  14.589
22949W        W95264   5.279  24.216   1.837
22950W        W95265   1.293  10.146   3.355
22951W        W95266  20.241  14.091   3.263
22952W        W95267   8.770   6.559   4.229
22953W        W95268   2.232   2.279  14.648
22954W        W95269  13.067  12.075  11.047
22955W        W95270  19.240  30.686  13.431
22956W        W95271  25.663  40.149  12.967
22957W        W95272  35.515  44.443  10.638
22958W        W95273  11.285  13.596   2.254
22959W        W95274   6.277  21.719  13.790
22960W        W95275  40.210  42.602   3.097
22961W        W95276  20.546  21.960   1.831
22962W        W95277  44.304  16.383  14.416
22963W        W95278  22.540  20.470   0.978
22964W        W95279  17.267  43.459   4.571
22965W        W95280  35.895  40.078  13.899
22966W        W95281  18.477   9.261   3.370
22967W        W95282  32.791  38.829   0.864
22968W        W95283  36.563   7.374  12.620
22969W        W95284  25.205  11.820  12.417
22970W        W95285   4.753  30.369   2.113
22971W        W95286  42.392  17.519   1.936
22972W        W95287  31.913  14.073  14.020
22973W        W95288  29.029  43.264  12.011
22974W        W95289   0.244   9.744  12.930
22975W        W95290  24.100  41.394   1.175
22976W        W95291   2.364   4.859   2.671
22977W        W95292  37.385  11.560  13.925
22978W        W95293   4.734   2.670  13.446
22979W        W95294  25.157  17.299  13.244
22980W        W95295  20.989  18.773  11.324
22981W        W95296   7.792  26.395   3.020
22982W        W95297  17.281  18.158  14.897
22983W        W95298  41.596  34.016   2.810
22984W        W95299  18.224  15.180   4.619
22985W        W95300  30.496  15.072  13.320
22986W        W95301  10.013   8.229   4.952
22987W        W95302  13.593  19.067  10.586
22988W        W95303  24.911   2.168  12.894
22989W        W95304  10.126  33.190  11.736
22990W        W95305  39.089  38.010   2.776
22991W        W95306   6.494  29.658  12.893
22992W        W95307  19.115  41.643   2.365
22993W        W95308  15.347  17.641  14.314
22994W        W95309  41.816   4.208  14.447
22995W        W95310  21.131  38.432  14.414
22996W        W95311  22.837  14.747  14.832
22997W        W95312  35.615  18.557  11.905
22998W        W95313  14.330  21.278   0.844
22999W        W95314   6.363   1.300  11.113
23000W        W95315  25.189  41.816   3.760
23001W        W95316  34.152  35.513   3.278
23002W        W95317  37.657  35.089  12.950
23003W        W95318  36.754  18.290  14.076
23004W        W95319  14.589  17.757   1.383
23005W        W95320  16.123   2.476  14.810
23006W        W95321  40.577  43.888  14.398
23007W        W95322   5.221  12.256   1.834
23008W        W95323   7.763   8.774  10.229
23009W        W95324  30.510  19.266   3.306
23010W        W95325   8.100  22.230  14.412
23011W        W95326  28.846  33.030  11.636
23012W        W95327  21.942  21.700   2.135
23013W        W95328  21.679  10.588  11.030
23014W        W95329  10.168  39.928   2.530
23015W        W95330  28.211  12.373   2.908
23016W        W95331  30.075   1.145  11.548
23017W        W95332  13.892  36.804   3.176
23018W        W95333  26.791  26.320   2.084
23019W        W95334   4.964  36.438  14.422
23020W        W95335  37.108  18.018  12.538
23021W        W95336  42.836  43.146  11.022
23022W        W95337  43.463  34.986  11.528
23023W        W95338  35.882  39.562  13.939
23024W        W95339  26.108  10.705  10.850
23025W        W95340  30.202   2.075   3.818
23026W        W95341   0.478  19.044  14.872
23027W        W95342  14.352  31.055  12.656
23028W        W95343  40.852  32.101   4.583
23029W        W95344  28.337  18.590  10.439
23030W        W95345  43.357  33.886  13.441
23031W        W95346   3.277  10.842   1.347
23032W        W95347   1.626  44.338   4.533
23033W        W95348  11.672  13.804  11.094
23034W        W95349   7.699   2.212   3.375
23035W        W95350   1.939  40.336   4.252
23036W        W95351  43.315  16.142  11.158
23037W        W95352   8.891  34.770   0.333
23038W        W95353  36.840  37.262  14.375
23039W        W95354   8.462  15.755   2.304
23040W        W95355   9.360   5.342   1.261
23041W        W95356   1.936   8.904   2.235
23042W        W95357   0.744   1.628  12.855
23043W        W95358   7.180  26.701  13.973
23044W        W95359  20.195  44.259   0.893
23045W        W95360  22.543  13.890  13.870
23046W        W95361  39.295   1.300   2.215
23047W        W95362  33.847  20.636   4.266
23048W        W95363  12.761  27.242   4.106
23049W        W95364  39.040  25.669  10.670
23050W        W95365  37.042  15.505   3.226
23051W        W95366  23.630   5.374  13.337
23052W        W95367  24.168   9.878  11.011
23053W        W95368  31.448  42.804   2.713
23054W        W95369   7.743  12.374   3.150
23055W        W95370  28.126  22.008  11.388
23056W        W95371  10.752   5.972   4.583
23057W        W95372  22.709  27.220   1.497
23058W        W95373  23.724  29.333  10.783
23059W        W95374   0.457  32.638   3.736
23060W        W95375  13.790  33.571   0.295
23061W        W95376   7.166  34.576   4.162
23062W        W95377   2.200  18.129   1.234
23063W        W95378  40.977  22.734  11.126
23064W        W95379  14.350   2.871  13.360
23065W        W95380  25.014  31.958  14.812
23066W        W95381  33.102   6.326   3.348
23067W        W95382  15.313  37.741  12.955
23068W        W95383   3.951  44.923   0.956
23069W        W95384  13.312  36.342   3.640
23070W        W95385  18.699  37.251   3.038
23071W        W95386  38.539  37.811  13.262
23072W        W95387  13.234  30.308  12.456
23073W        W95388  19.987   7.847  13.031
23074W        W95389  30.116  35.456  13.052
23075W        W95390  37.845  14.194   0.474
23076W        W95391  43.932  42.600  11.627
23077W        W95392   5.278  14.165  14.812
23078W        W95393  38.350   7.965  13.057
23079W        W95394   3.022  43.278   2.166
23080W        W95395  22.033  36.535   3.421
23081W        W95396  37.124  41.930   3.731
23082W        W95397  30.060  29.457   3.644
23083W        W95398  25.161  23.600  13.811
23084W        W95399  13.134  41.607  14.339
23085W        W95400  28.898  29.946  11.172
23086W        W95401  22.716   4.871   0.758
23087W        W95402  16.742   6.387   4.188
23088W        W95403  23.868  33.682   1.894
23089W        W95404  21.961  14.259  10.971
23090W        W95405  43.394  43.520  12.048
23091W        W95406  20.984  10.885  10.503
23092W        W95407  18.381   6.411   3.447
23093W        W95408  10.899  32.214  13.526
23094W        W95409   4.435   6.127  11.871
23095W        W95410   6.609  34.574   3.137
23096W        W95411  39.280   6.412   1.216
23097W        W95412  38.715  10.955   1.908
23098W        W95413  15.717  11.012   3.649
23099W        W95414  36.565   6.891  10.450
23100W        W95415  11.215  36.499   1.068
23101W        W95416  14.794  35.975   5.060
23102W        W95417  22.002  33.259  13.925
23103W        W95418  19.807   4.338   2.690
23104W        W95419  28.653  39.064   2.100
23105W        W95420  18.580  13.547  11.694
23106W        W95421  37.859  44.291  12.102
23107W        W95422  27.189  12.263   0.510
23108W        W95423   9.049  14.856  14.776
23109W        W95424  30.929   7.218   0.816
23110W        W95425  39.040  33.087   2.667
23111W        W95426  38.046  13.313   1.431
23112W        W95427   5.200  18.312   2.630
23113W        W95428   5.798  37.241  14.857
23114W        W95429  10.172  12.800  11.898
23115W        W95430  17.649  19.755   2.206
23116W        W95431  42.085  14.539  12.129
23117W        W95432  25.578  12.893  14.066
23118W        W95433   9.956  20.654   4.321
23119W        W95434  44.030  31.357  11.193
23120W        W95435  43.940  33.232   0.735
23121W        W95436  11.033   6.494   2.932
23122W        W95437  31.637  26.771   4.358
23123W        W95438  34.475  16.158  14.980
23124W        W95439   7.624  39.019  12.013
23125W        W95440  24.640  22.443   4.543
23126W        W95441  31.531  20.681  13.763
23127W        W95442  44.555  18.056  11.916
23128W        W95443  24.950  39.862   2.605
23129W        W95444   9.901  28.920  11.903
23130W        W95445  42.353   2.986  10.635
23131W        W95446  24.996  25.600   0.947
23132W        W95447  35.521  10.385   4.722
23133W        W95448  37.770  29.026   0.912
23134W        W95449   5.187   7.918  12.503
23135W        W95450  33.509  10.636   3.264
23136W        W95451   5.287  30.640   4.207
23137W        W95452  24.635  39.645   3.624
23138W        W95453   0.784  24.576   0.256
23139W        W95454  39.545  24.205  11.737
23140W        W95455  37.341   8.142  13.809
23141W        W95456  40.755  32.413  12.356
23142W        W95457  28.195  24.093  10.824
23143W        W95458  22.705  36.976  10.596
23144W        W95459  25.880  10.909   1.194
23145W        W95460   1.562  40.041  13.967
23146W        W95461   5.983  12.133  11.185
23147W        W95462   9.173  31.579   4.907
23148W        W95463  44.731  25.588   2.215
23149W        W95464   0.281  31.396  13.452
23150W        W95465  36.551   4.502   2.475
23151W        W95466  24.428  30.405  11.116
23152W        W95467  24.677   2.791   2.590
23153W        W95468   2.946   7.250  14.357
23154W        W95469   8.131  31.001  10.709
23155W        W95470  37.127  20.518   3.628
23156W        W95471   4.849  37.292  12.561
23157W        W95472  42.596  35.502   1.459
23158W        W95473   5.852  38.818   4.791
23159W        W95474  27.101  44.167  12.580
23160W        W95475  33.031  18.005   0.174
23161W        W95476  33.769   2.810   2.132
23162W        W95477  16.320   3.982  11.169
23163W        W95478   8.601  29.438   1.546
23164W        W95479  17.778  31.118  13.411
23165W        W95480  13.162  35.391   4.665
23166W        W95481   1.269   4.332   4.824
23167W        W95482  24.196  27.586   1.756
23168W        W95483  29.064  22.801  10.802
23169W        W95484   0.073   0.201   3.224
23170W        W95485   0.280  16.306   4.548
23171W        W95486  11.209  20.761   2.201
23172W        W95487  32.981  25.695  14.480
23173W        W95488   6.283  18.322  10.590
23174W        W95489  23.031   7.655   1.461
23175W        W95490  16.797  31.161   4.418
23176W        W95491  31.459  38.100  13.747
23177W        W95492  20.063  33.161   3.103
23178W        W95493  30.545  11.925   4.078
23179W        W95494  25.167  27.999   4.496
23180W        W95495  37.921  41.517   3.651
23181W        W95496  23.794  42.663  10.261
23182W        W95497  39.530  33.143  13.291
23183W        W95498  40.344   2.643  10.759
23184W        W95499  35.929  42.889  12.179
23185W        W95500  21.063  43.052   3.734
23186W        W95501   7.266   1.594   4.123
23187W        W95502  23.860   7.686   1.876
23188W        W95503  17.632  43.548  14.352
23189W        W95504  17.059   6.734   1.452
23190W        W95505  33.095  27.174   1.840
23191W        W95506  35.807  15.146   2.720
23192W        W95507  33.079   8.163  14.220
23193W        W95508  43.305  15.298  12.876
23194W        W95509  42.456  39.661  13.684
23195W        W95510  41.031   1.837   0.897
23196W        W95511  29.565  42.543  10.776
23197W        W95512  40.301  34.483   2.732
23198W        W95513  22.334  42.991  14.905
23199W        W95514  21.520  15.201  11.096
23200W        W95515  12.274  12.277  14.829
23201W        W95516  32.369  31.031  13.922
23202W        W95517  40.010  23.607  12.095
23203W        W95518   5.379  33.314  11.558
23204W        W95519  18.604  35.949  10.668
23205W        W95520  34.971  26.523  11.988
23206W        W95521  34.374  17.447   0.597
23207W        W95522  28.006  44.379  13.499
23208W        W95523  19.625  10.136   4.833
23209W        W95524  42.543  44.457  12.473
23210W        W95525  32.744  29.360  12.816
23211W        W95526  43.701  21.570  12.914
23212W        W95527  30.064  31.995  13.296
23213W        W95528  25.738  35.957   1.744
23214W        W95529  10.446  14.324  12.039
23215W        W95530   5.312   8.894   2.330
23216W        W95531  18.714  17.552   1.321
23217W        W95532  35.624  14.005  14.412
23218W        W95533  16.034  26.499   2.904
23219W        W95534   3.337  14.403  12.417
23220W        W95535  19.239  44.060  11.470
23221W        W95536  29.954   7.307   1.446
23222W        W95537   9.737   2.679  14.955
23223W        W95538  35.832  22.251  12.492
23224W        W95539  32.435  34.783  12.512
23225W        W95540  14.475  29.077  14.505
23226W        W95541  19.734   2.430  10.693
23227W        W95542  35.096  37.547  13.433
23228W        W95543   4.429   7.503  14.614
23229W        W95544  27.956  38.052   2.510
23230W        W95545  16.263  27.348  12.966
23231W        W95546   0.768  22.710  11.192
23232W        W95547  16.749  44.732   0.009
23233W        W95548   0.966  18.629  10.649
23234W        W95549  44.485  17.137  12.490
23235W        W95550  35.856  25.938  12.823
23236W        W95551   4.324   0.794  14.398
23237W        W95552  32.632  10.508   2.807
23238W        W95553  25.921  42.092   2.135
23239W        W95554  44.606  19.962  12.926
23240W        W95555  44.886  11.686  14.475
23241W        W95556  18.955  14.661   1.300
23242W        W95557  14.296  29.726   1.272
23243W        W95558  18.769  39.371  13.921
23244W        W95559  11.107   4.130  14.627
23245W        W95560  22.141  28.656  12.353
23246W        W95561   9.237  38.336  11.964
23247W        W95562  34.997  17.009  13.081
23248W        W95563  21.775   9.351   0.467
23249W        W95564   9.323  30.954   4.266
23250W        W95565  41.465  29.304   2.671
23251W        W95566  25.016  41.246  11.644
23252W        W95567  16.780  42.327   4.951
23253W        W95568  10.554   6.342   3.701
23254W        W95569   6.848  30.207   3.188
23255W        W95570   1.191  38.038  10.743
23256W        W95571  28.646  30.545   1.942
23257W        W95572  20.267  19.612  13.854
23258W        W95573  39.313   3.501  10.950
23259W        W95574   6.758  26.631   4.256
23260W        W95575  15.308  30.699   5.213
23261W        W95576   9.350  44.434  14.938
23262W        W95577  31.197  23.985  14.943
23263W        W95578  32.973  11.558  14.738
23264W        W95579  15.044  28.736   1.206
23265W        W95580  39.477  21.576   0.902
23266W        W95581  25.146   7.894  13.120
23267W        W95582   5.167  22.621  14.830
23268W        W95583   4.448   4.126   4.230
23269W        W95584   2.285  10.097   4.903
23270W        W95585  33.126  29.050  11.741
23271W        W95586  27.896  38.701  12.782
23272W        W95587  44.349  32.081   2.584
23273W        W95588   7.637  18.166   4.140
23274W        W95589  12.656   6.849   3.740
23275W        W95590  22.211  35.595  14.939
23276W        W95591  37.618  31.145   3.654
23277W        W95592  12.574  18.477   3.437
23278W        W95593  29.646  42.905   2.766
23279W        W95594  38.650  30.993  13.942
23280W        W95595   8.187  17.251   4.075
23281W        W95596  31.029  30.564   4.593
23282W        W95597  31.843  23.481   2.764
23283W        W95598   9.840  37.152   3.690
23284W        W95599  27.208   5.241   5.166
23285W        W95600  36.850  39.543   3.859
23286W        W95601  39.708  22.480  12.925
23287W        W95602  29.462  38.216  10.747
23288W        W95603  19.561  34.419  14.386
23289W        W95604   6.864   5.157  14.838
23290W        W95605  21.551  25.006  12.667
23291W        W95606   6.389   1.090  13.920
23292W        W95607  44.828  27.407  14.028
23293W        W95608  20.349  14.177   5.142
23294W        W95609  11.395   2.946  14.369
23295W        W95610  23.277  29.284   1.844
23296W        W95611  43.797   5.888  13.966
23297W        W95612   6.129  16.387   2.846
23298W        W95613  39.656   9.715  12.042
23299W        W95614  20.724  44.104   2.008
23300W        W95615  44.337  15.666  13.415
23301W        W95616   9.763  23.258   1.847
23302W        W95617  44.369  12.923   4.661
23303W        W95618  21.858  26.622  12.579
23304W        W95619  17.523  23.835  13.080
23305W        W95620  40.034  32.473  12.951
23306W        W95621  39.958  38.246   0.902
23307W        W95622  25.572  20.743   2.700
23308W        W95623  39.447  34.999  11.376
23309W        W95624   7.333  37.498   2.260
23310W        W95625  25.154  17.186  13.752
23311W        W95626   3.512  25.889   3.660
23312W        W95627  38.833  33.304   4.629
23313W        W95628  26.971   7.775  14.831
23314W        W95629   0.256  13.853  12.450
23315W        W95630  34.433  25.260  13.046
23316W        W95631   5.394  27.034   4.618
23317W        W95632  13.887  10.655   2.246
23318W        W95633   1.082  16.883   1.801
23319W        W95634  28.111  33.591  11.448
23320W        W95635   1.950  37.844  11.877
23321W        W95636   7.751  23.144   3.594
23322W        W95637  31.128  41.037  11.831
23323W        W95638  33.522  12.800   3.184
23324W        W95639   4.755  12.299   2.100
23325W        W95640  15.316  15.811  12.089
23326W        W95641   6.948  27.599  12.099
23327W        W95642   2.838   8.112  13.283
23328W        W95643   6.514  24.549   4.525
23329W        W95644   0.537  39.550   2.553
23330W        W95645  21.093  32.359   1.430
23331W        W95646  27.694  21.960  12.579
23332W        W95647   8.228   4.445  10.933
23333W        W95648  15.030   2.205   2.465
23334W        W95649  30.904  38.942   2.304
23335W        W95650  21.289   7.188   0.574
23336W        W95651   3.375  26.430   2.631
23337W        W95652  41.909  19.810   3.538
23338W        W95653  37.621  40.939  11.603
23339W        W95654  33.431  41.785  12.048
23340W        W95655   2.173  42.925  10.644
23341W        W95656   8.840  26.198   2.286
23342W        W95657  40.543  14.632  13.950
23343W        W95658   1.808  39.904   2.002
23344W        W95659  26.275  44.163  12.229
23345W        W95660  32.765  23.965   2.819
23346W        W95661   9.087  38.991  11.213
23347W        W95662   3.372   1.792  10.978
23348W        W95663  22.012   0.994  11.942
23349W        W95664  30.856  12.243   0.658
23350W        W95665  25.929  16.291   4.537
23351W        W95666  35.799  35.555   2.676
23352W        W95667   0.550  17.587  14.391
23353W        W95668  32.347   6.923   3.233
23354W        W95669  29.955   2.928  13.389
23355W        W95670  32.208  16.820   2.775
23356W        W95671  25.536   7.795  11.647
23357W        W95672  23.515  24.524   4.552
23358W        W95673  26.290   0.341  11.456
23359W        W95674  27.454  25.854  13.079
23360W        W95675  20.173  30.755  12.023
23361W        W95676  33.405  16.656  12.492
23362W        W95677   7.677  37.392  10.713
23363W        W95678   3.431  13.880   0.922
23364W        W95679  33.725  34.152  14.566
23365W        W95680  37.786   2.852   2.660
23366W        W95681  27.944   3.536   4.010
23367W        W95682  43.017  30.123  13.483
23368W        W95683  35.890  14.280   4.128
23369W        W95684  14.309  24.500   3.536
23370W        W95685  33.867  15.131  13.414
23371W        W95686   2.397  10.645   1.995
23372W        W95687  32.342  25.071   3.634
23373W        W95688   6.700  34.147  10.697
23374W        W95689  19.193  18.591   2.153
23375W        W95690  44.214   5.185   0.223
23376W        W95691  18.100  24.280  11.236
23377W        W95692   8.410  43.425  13.579
23378W        W95693  32.553  13.818   1.728
23379W        W95694  37.578  35.554   3.757
23380W        W95695  13.847  27.871  11.061
23381W        W95696  21.069  17.778   0.674
23382W        W95697   4.348  11.247  11.093
23383W        W95698  44.390  27.101  14.151
23384W        W95699   0.868  15.283  12.278
23385W        W95700  39.439   1.684  13.523
23386W        W95701  22.683  16.571   2.255
23387W        W95702  10.906  42.835  14.887
23388W        W95703   9.453  35.473  14.891
23389W        W95704   1.663  26.953  13.408
23390W        W95705  44.133  13.856  13.626
23391W        W95706   6.930  12.383   1.280
23392W        W95707   1.353  32.108   2.460
23393W        W95708   4.318   7.280  11.870
23394W        W95709  10.335  38.834   4.510
23395W        W95710  34.494  23.300  13.032
23396W        W95711  15.333  14.901   1.342
23397W        W95712  25.855  16.685   2.412
23398W        W95713  39.856  38.630   0.048
23399W        W95714  32.366  35.008  10.409
23400W        W95715  35.455  25.605   0.800
23401W        W95716  15.497  30.653  14.340
23402W        W95717  42.447  34.751   0.325
23403W        W95718  33.256   6.119   4.704
23404W        W95719  24.027  27.294  13.771
23405W        W95720  43.374  19.184   2.844
23406W        W95721   3.831  38.341   4.410
23407W        W95722  28.192  26.536  10.791
23408W        W95723  25.780  14.301   4.554
23409W        W95724  41.349  16.072   5.129
23410W        W95725   3.155   6.800  11.081
23411W        W95726  28.735   9.736  13.838
23412W        W95727   4.770  27.055  13.531
23413W        W95728  33.528  15.864  10.947
23414W        W95729  35.835  39.997   3.671
23415W        W95730   8.856  18.062  12.405
23416W        W95731  16.718  35.379   0.230
23417W        W95732  42.104   3.761  14.328
23418W        W95733  37.848  22.027  11.244
23419W        W95734  44.521  11.933   3.297
23420W        W95735  17.039  19.514  13.079
23421W        W95736  14.267  17.400   2.268
23422W        W95737  43.989  25.765   4.219
23423W        W95738  33.041  39.467  14.441
23424W        W95739   2.961  43.972   1.120
23425W        W95740  19.306  25.048   1.537
23426W        W95741   1.337  11.976  12.958
23427W        W95742  17.098  15.710  14.737
23428W        W95743  16.363  35.125   1.959
23429W        W95744  38.069  31.183   2.202
23430W        W95745  21.274  35.321   0.683
23431W        W95746  13.342   8.372   2.347
23432W        W95747  19.181   1.464  10.804
23433W        W95748  39.247  40.572  12.335
23434W        W95749  19.244  38.670   4.233
23435W        W95750  33.413  13.300   4.949
23436W        W95751  11.425   5.796  11.517
23437W        W95752  22.217   5.338  10.952
23438W        W95753  42.503  19.241   1.323
23439W        W95754  20.020  19.825  12.345
23440W        W95755  12.209  42.976   2.427
23441W        W95756  30.344  23.255  11.123
23442W        W95757  20.492   9.852  10.646
23443W        W95758   9.438  24.965  14.377
23444W        W95759  28.472  33.304   0.895
23445W        W95760  19.520  21.246  14.642
23446W        W95761  11.376  39.967  13.403
23447W        W95762  43.830  23.637  14.760
23448W        W95763   9.830  21.476   1.261
23449W        W95764  11.261  13.855   4.626
23450W        W95765  12.522  17.255  12.096
23451W        W95766  44.065  39.925  11.984
23452W        W95767   1.922  43.776  11.389
23453W        W95768   0.665   1.962   4.182
23454W        W95769  24.000  32.966  10.748
23455W        W95770  14.869   0.380  10.407
23456W        W95771  22.539  10.869  12.157
23457W        W95772  39.314  28.743  13.944
23458W        W95773  20.337  40.720   0.916
23459W        W95774  20.558   1.260   4.369
23460W        W95775  12.170  38.554  13.568
23461W        W95776  15.708   8.826   4.496
23462W        W95777  10.355  43.862   3.586
23463W        W95778  41.409  23.992  11.103
23464W        W95779   9.331  39.578  10.518
23465W        W95780  17.037   7.665  12.176
23466W        W95781  25.593  11.680   2.190
23467W        W95782  25.878  30.375  13.504
23468W        W95783   5.788  11.295  11.347
23469W        W95784  15.250  38.275   1.495
23470W        W95785  40.584  10.220   4.210
23471W        W95786   5.759  43.210  10.271
23472W        W95787  18.934  12.570  13.430
23473W        W95788  37.536  16.912   0.862
23474W        W95789  17.146  35.117   0.430
23475W        W95790   1.885   4.385   1.640
23476W        W95791  32.474  14.805  12.537
23477W        W95792  44.497  43.472   0.822
23478W        W95793   9.674  32.091   2.702
23479W        W95794  37.093  34.487   4.325
23480W        W95795  40.510  11.913   5.021
23481W        W95796  39.929   7.894  13.763
23482W        W95797  31.416  40.078  12.454
23483W        W95798   0.513   8.724   0.004
23484W        W95799  22.550  31.727  11.385
23485W        W95800  18.497  29.493  10.293
23486W        W95801  23.541  36.212   4.601
23487W        W95802  43.816  33.217  13.432
23488W        W95803  27.961  38.857   4.208
23489W        W95804   0.561  14.701   0.873
23490W        W95805  32.592  43.733   3.765
23491W        W95806  21.749  33.975   0.340
23492W        W95807  38.328  15.910  14.820
23493W        W95808   5.694   8.327  13.127
23494W        W95809  20.235  32.134   3.343
23495W        W95810  44.390   4.354   1.263
23496W        W95811  41.918  15.254  11.116
23497W        W95812   7.772  38.653   4.147
23498W        W95813  26.957  41.950   4.262
23499W        W95814  41.977   1.637   4.556
23500W        W95815  24.749   9.328  14.892
23501W        W95816  15.303  30.225   5.630
23502W        W95817   7.164   1.902   0.312
23503W        W95818  35.379  21.500  14.671
23504W        W95819  11.144  42.701   3.443
23505W        W95820  31.354   9.213  11.120
23506W        W95821   4.884  17.817   2.623
23507W        W95822   3.372   4.521  10.777
23508W        W95823  26.598  15.897  10.916
23509W        W95824  29.225  33.894  10.679
23510W        W95825  28.291  25.018   2.776
23511W        W95826  35.425  25.503  11.421
23512W        W95827   9.736  43.021  14.742
23513W        W95828  26.063  17.218   1.857
23514W        W95829   3.670  28.739   1.398
23515W        W95830  43.806  19.064   3.669
23516W        W95831  22.922  36.833   4.650
23517W        W95832   6.902  12.633  12.622
23518W        W95833  44.987  23.827   3.228
23519W        W95834  40.770  36.519   1.858
23520W        W95835  40.031  36.928  14.658
23521W        W95836  34.617  22.635  10.579
23522W        W95837  32.679  38.285  11.031
23523W        W95838  37.417  17.013  14.899
23524W        W95839  14.602  10.342  12.424
23525W        W95840   2.531  30.433   0.754
23526W        W95841  21.551   2.945   4.669
23527W        W95842   1.952  16.513   3.111
23528W        W95843  13.855   7.328  14.487
23529W        W95844   9.958  21.587   3.657
23530W        W95845  22.918  21.922   2.431
23531W        W95846   2.543  28.043  11.579
23532W        W95847  17.677  10.041  10.521
23533W        W95848  28.184   7.402  13.511
23534W        W95849  40.670  43.887   0.830
23535W        W95850  32.868  13.612  10.380
23536W        W95851  33.974   1.201  14.946
23537W        W95852  26.814  36.538   2.940
23538W        W95853  39.780  27.598   3.681
23539W        W95854  41.517  12.634  14.818
23540W        W95855   7.894   5.797   3.691
23541W        W95856  42.794  42.260   4.223
23542W        W95857  24.690  21.213  14.043
23543W        W95858  10.668  10.110   2.760
23544W        W95859  14.184  19.061   3.127
23545W        W95860   4.715  40.823  14.064
23546W        W95861  26.059  13.708  10.772
23547W        W95862  42.009  35.870   0.905
23548W        W95863  24.637  19.416   0.132
23549W        W95864  16.677  39.554   3.700
23550W        W95865  17.706  43.436   0.325
23551W        W95866  30.073  30.531  11.560
23552W        W95867  31.970  35.060   1.373
23553W        W95868  17.251  39.143  13.074
23554W        W95869   3.687  40.966   0.479
23555W        W95870  13.302   3.009   1.624
23556W        W95871  35.856  36.071  14.901
23557W        W95872  24.983  21.387   4.817
23558W        W95873  42.413  11.125  11.570
23559W        W95874  11.543  37.470   3.227
23560W        W95875  21.942  36.459  13.176
23561W        W95876   1.541   2.067   4.060
23562W        W95877  33.190  29.369   2.406
23563W        W95878  39.051  17.108   0.426
23564W        W95879  16.614  19.593  14.288
23565W        W95880  41.237  36.288   2.752
23566W        W95881  20.038  33.664  13.005
23567W        W95882   0.295  10.294  12.109
23568W        W95883  33.451   8.682  10.031
23569W        W95884  13.288  37.128   3.050
23570W        W95885   6.817  33.154  14.859
23571W        W95886  42.348  44.349  12.934
23572W        W95887   9.102  40.459   2.283
23573W        W95888   4.472   1.070  11.437
23574W        W95889  13.272  28.569   4.937
23575W        W95890  23.867  23.126  13.502
23576W        W95891  37.074  22.186  13.981
23577W        W95892  39.483  38.448   4.629
23578W        W95893  21.772   7.782   2.308
23579W        W95894  40.473   8.660   3.118
23580W        W95895  42.327   1.643   1.999
23581W        W95896  30.400  24.449   4.174
23582W        W95897  40.916  33.599  12.476
23583W        W95898   1.204   6.309  10.712
23584W        W95899   9.571   0.774  10.995
23585W        W95900  31.363  44.802   0.977
23586W        W95901  40.546  22.963  14.995
23587W        W95902  33.462  17.677  10.484
23588W        W95903   6.448  20.039  12.013
23589W        W95904  25.592  16.183   0.920
23590W        W95905   6.532  17.607   0.401
23591W        W95906  31.107  15.868  13.417
23592W        W95907  27.092  17.755   3.151
23593W        W95908  15.891  19.770   2.406
23594W        W95909  38.592  18.046  12.122
23595W        W95910  20.935  44.962   2.445
23596W        W95911  39.509  43.071  12.486
23597W        W95912  24.772  16.469  13.490
23598W        W95913  41.312   1.943   0.457
23599W        W95914  43.804  37.415  14.512
23600W        W95915  22.614  20.510  10.386
23601W        W95916  24.188  44.877  12.808
23602W        W95917  34.861  22.696  11.621
23603W        W95918  32.133  26.254   3.210
23604W        W95919   2.832  20.919   0.197
23605W        W95920  39.071  38.070   4.591
23606W        W95921  39.103  32.800  13.978
23607W        W95922  22.656  34.986  12.555
23608W        W95923   2.876   3.987   0.877
23609W        W95924  16.068   4.981  13.699
23610W        W95925  10.144  40.871  13.890
23611W        W95926  19.663  36.441  13.310
23612W        W95927  14.125  25.298  12.922
23613W        W95928  19.422  38.566   2.321
23614W        W95929   5.168  21.088   2.148
23615W        W95930   4.405   9.228   0.906
23616W        W95931  27.535   0.646   2.390
23617W        W95932   4.179  12.773  12.363
23618W        W95933  33.922   4.606   3.397
23619W        W95934  14.077  33.346   1.875
23620W        W95935  24.670  24.676  14.619
23621W        W95936  14.678  27.752   3.867
23622W        W95937  28.061  34.456  14.180
23623W        W95938   7.474  10.725  13.527
23624W        W95939   0.210  10.810  12.287
23625W        W95940  40.798  12.876  14.504
23626W        W95941  27.907  35.800   9.979
23627W        W95942  26.007  23.380  13.614
23628W        W95943   9.108  44.268  11.192
23629W        W95944  15.082   7.636   0.398
23630W        W95945  18.524  43.396   0.867
23631W        W95946  26.550  37.947  11.623
23632W        W95947   1.897  35.310  10.396
23633W        W95948  34.648   9.964   0.375
23634W        W95949  29.240   8.794   4.795
23635W        W95950   9.127   1.315  12.328
23636W        W95951  34.840  13.825  11.779
23637W        W95952   5.715  30.850   4.028
23638W        W95953   5.845  12.138   2.757
23639W        W95954   3.484   3.363  14.983
23640W        W95955   2.735  15.043  11.264
23641W        W95956  36.545  21.941   1.706
23642W        W95957  32.544  41.293  14.364
23643W        W95958  37.526  26.698   4.110
23644W        W95959  16.206  29.975   3.548
23645W        W95960  15.393  17.575   1.764
23646W        W95961  15.088  34.419   3.602
23647W        W95962  38.134  18.721   4.235
23648W        W95963   9.890  15.912  10.237
23649W        W95964  44.228  20.878  13.876
23650W        W95965  34.390  23.767   0.051
23651W        W95966  36.390  24.169  12.382
23652W        W95967  24.263  28.643  11.777
23653W        W95968  15.397  23.121  13.999
23654W        W95969  27.474  38.773   4.033
23655W        W95970  32.367  15.834   4.144
23656W        W95971  19.373  15.582  14.465
23657W        W95972   2.164  27.616   0.814
23658W        W95973   8.210   2.931   2.720
23659W        W95974   0.259  41.857   1.439
23660W        W95975   5.618  18.806  11.909
23661W        W95976  13.151  23.144  14.689
23662W        W95977   4.771  35.324  12.452
23663W        W95978   4.580  27.957  13.769
23664W        W95979   0.162  20.103   3.847
23665W        W95980   5.745  40.411  10.634
23666W        W95981  17.627   4.859  14.978
23667W        W95982  29.092  14.742  13.664
23668W        W95983  21.351  32.792   4.482
23669W        W95984   4.635  21.716  11.665
23670W        W95985  35.461  35.952   2.668
23671W        W95986  18.700  21.989  13.295
23672W        W95987  36.997  44.585   3.220
23673W        W95988   6.178   3.838   3.388
23674W        W95989  35.474  17.799  13.834
23675W        W95990   5.337  28.353   0.694
23676W        W95991  18.494  23.486   3.436
23677W        W95992  34.097  14.174  13.707
23678W        W95993  29.782  31.899   2.531
23679W        W95994  15.104   4.687   2.636
23680W        W95995   3.005   1.694  10.605
23681W        W95996  24.515  26.084  14.341
23682W        W95997  13.354  20.039   3.916
23683W        W95998  28.778  32.867   0.817
23684W        W95999  37.534  23.241   9.800
23685W        W96000  36.629  11.377  12.283
23686W        W96001  12.892  28.719   2.233
23687W        W96002  30.613  13.531  13.458
23688W        W96003  16.279  15.168  11.024
23689W        W96004  19.725  14.601  14.337
23690W        W96005  15.719  30.756   0.873
23691W        W96006   4.244  28.237  13.386
23692W        W96007  21.894  33.021   2.788
23693W        W96008  42.534  17.448  11.106
23694W        W96009  39.786  10.043  13.103
23695W        W96010  29.772  29.151  14.385
23696W        W96011  36.736  15.987   4.483
23697W        W96012  14.210   0.422   2.428
23698W        W96013  24.490  23.492  12.003
23699W        W96014   7.741  12.870   4.087
23700W        W96015   4.698  11.838  13.390
23701W        W96016  22.496  21.186   1.661
23702W        W96017  14.045  31.525   2.099
23703W        W96018  40.309  13.371   0.739
23704W        W96019  31.302  29.908   0.646
23705W        W96020  30.740  21.707   1.371
23706W        W96021  30.677   5.750   2.355
23707W        W96022  20.471  12.669  13.357
23708W        W96023  19.102  16.276   0.290
23709W        W96024  11.581  38.132   3.755
23710W        W96025   3.382  40.526   2.408
23711W        W96026  15.422  14.428   4.195
23712W        W96027   0.461  10.368  14.054
23713W        W96028  23.720  27.546  11.122
23714W        W96029  31.915  30.707  13.901
23715W        W96030  27.973   1.219   1.107
23716W        W96031   2.283  16.356  13.041
23717W        W96032  24.620   6.307   0.470
23718W        W96033   0.818  28.595   1.763
23719W        W96034  35.919  41.745   4.700
23720W        W96035   9.326  17.563   0.409
23721W        W96036  30.615  34.356  10.629
23722W        W96037  31.852  44.271   3.652
23723W        W96038   7.201  10.193  14.498
23724W        W96039  14.244  32.124  10.455
23725W        W96040  24.998  26.136  12.950
23726W        W96041  22.220   4.367   3.239
23727W        W96042  42.533  11.384   4.794
23728W        W96043  38.616  22.020   2.484
23729W        W96044  28.065  22.690  10.775
23730W        W96045  17.673  43.523  13.524
23731W        W96046   8.771  29.430   0.226
23732W        W96047  30.010  26.052  12.366
23733W        W96048   6.850  24.909   4.697
23734W        W96049  29.850  13.285  12.926
23735W        W96050  11.738   9.723  13.397
23736W        W96051   6.002  37.394  11.127
23737W        W96052   7.141  22.207   0.667
23738W        W96053  43.796  16.448  12.296
23739W        W96054  22.491  11.779  12.081
23740W        W96055  33.846  41.253  11.822
23741W        W96056  28.480  27.104   0.350
23742W        W96057  18.328  32.594  10.696
23743W        W96058  36.355  15.601  10.725
23744W        W96059   2.937  15.209  12.517
23745W        W96060  32.378  41.731  10.808
23746W        W96061  24.468  31.555  11.561
23747W        W96062  37.842   7.142   1.667
23748W        W96063   4.741  38.497   2.944
23749W        W96064   7.238  11.226   1.043
23750W        W96065  21.782  44.650  14.462
23751W        W96066  14.154  30.234   1.360
23752W        W96067   2.417  13.674   4.818
23753W        W96068  11.152  35.544  12.969
23754W        W96069  24.336   7.902   1.939
23755W        W96070   0.246  28.766  10.972
23756W        W96071   6.197   8.446  13.005
23757W        W96072  22.139   6.300   2.748
23758W        W96073  36.432  10.325   3.121
23759W        W96074   5.664   1.188   2.887
23760W        W96075  30.562  35.416  10.595
23761W        W96076  21.336  16.536  10.786
23762W        W96077  13.006  39.672   0.550
23763W        W96078  27.716   6.195  13.300
23764W        W96079   6.692  35.951  12.380
23765W        W96080   2.670  41.563   2.782
23766W        W96081  28.865  14.297   2.611
23767W        W96082  16.715  28.939   4.896
23768W        W96083  12.569  30.410  10.627
23769W        W96084  36.479   5.497  14.254
23770W        W96085  19.300  40.781   5.475
23771W        W96086  10.676  42.061   0.367
23772W        W96087   4.778  33.541  13.966
23773W        W96088  40.306  38.154  12.853
23774W        W96089  11.577  21.562   2.681
23775W        W96090  22.497  36.546   4.205
23776W        W96091  44.742  15.292  14.773
23777W        W96092  20.489  30.062   4.562
23778W        W96093  23.424   5.643   0.474
23779W        W96094  15.741  38.411   1.450
23780W        W96095  33.502  22.687   3.701
23781W        W96096  25.217  12.074   0.930
23782W        W96097  28.207  14.352   4.235
23783W        W96098   7.854   5.744  11.638
23784W        W96099  40.331  32.632  13.477
23785W        W96100  32.119   2.216  14.504
23786W        W96101   7.600  38.468  11.520
23787W        W96102   7.671  20.461  11.461
23788W        W96103  18.818  16.655  14.856
23789W        W96104   0.407  21.395   3.755
23790W        W96105   0.214  38.364  11.473
23791W        W96106  27.006   9.693   2.767
23792W        W96107   5.011  25.510  11.140
23793W        W96108  40.788   8.763   0.452
23794W        W96109  28.967   9.656   4.334
23795W        W96110  27.126  11.798   0.308
23796W        W96111  17.558  19.201   3.336
23797W        W96112   2.771   6.210  12.494
23798W        W96113  41.570  39.841   1.154
23799W        W96114  40.320  42.039  12.836
23800W        W96115  25.164  25.439   2.554
23801W        W96116  32.486  31.371   2.547
23802W        W96117  31.783  43.839  12.550
23803W        W96118  39.450  26.507  13.322
23804W        W96119   1.943  44.285  13.106
23805W        W96120  13.226   6.448  13.518
23806W        W96121  17.143   9.280   3.081
23807W        W96122  40.888   5.870   1.147
23808W        W96123   9.432  43.843  11.219
23809W        W96124  40.527  36.414   1.368
23810W        W96125  31.330  32.384  13.076
23811W        W96126  13.748  15.574   0.442
23812W        W96127  30.430  27.024  13.931
23813W        W96128  19.069  44.867  10.831
23814W        W96129   7.401  43.789   4.874
23815W        W96130  17.463  42.908   2.396
23816W        W96131  33.756  20.063  12.403
23817W        W96132  41.449   3.343   0.727
23818W        W96133  43.378  38.844  14.289
23819W        W96134  34.622   6.156   3.665
23820W        W96135   0.716  35.545   2.332
23821W        W96136  25.455   9.607  12.494
23822W        W96137  34.135   3.741   2.667
23823W        W96138  23.637  14.631   1.411
23824W        W96139  26.966   6.127   3.060
23825W        W96140  38.937   2.256   0.415
23826W        W96141   2.741  40.874  11.915
23827W        W96142  33.450   7.804   0.260
23828W        W96143  39.825  28.668   4.868
23829W        W96144  40.746   3.127  12.989
23830W        W96145   7.156  20.775  11.163
23831W        W96146   9.196   4.837  10.637
23832W        W96147  30.330   5.768   1.490
23833W        W96148  26.949  12.973   2.111
23834W        W96149  26.630   5.804   0.045
23835W        W96150   7.670  11.610  10.958
23836W        W96151  14.764  25.781  14.922
23837W        W96152   5.903  30.692  14.426
23838W        W96153   6.196   1.170   2.745
23839W        W96154  36.552  22.126   0.260
23840W        W96155   0.887  29.995  11.083
23841W        W96156   4.652   9.287  14.946
23842W        W96157  22.221  27.122   4.860
23843W        W96158  35.552  17.177  10.581
23844W        W96159  12.887  12.529   4.154
23845W        W96160  21.284  19.575   4.219
23846W        W96161   9.691  12.209  12.071
23847W        W96162  43.937  18.578   3.623
23848W        W96163  22.735  10.187   4.177
23849W        W96164  20.769  39.490  14.585
23850W        W96165  21.015  41.722   3.214
23851W        W96166  31.983  12.564   1.150
23852W        W96167   9.121  16.568   0.486
23853W        W96168   6.739  12.854   1.150
23854W        W96169   0.565   8.760  11.058
23855W        W96170  30.990   5.248   1.620
23856W        W96171  39.859  40.493  12.999
23857W        W96172   9.584  15.272   1.926
23858W        W96173  29.646  44.403  14.554
23859W        W96174  32.607  34.439   2.889
23860W        W96175  27.733  42.394   4.155
23861W        W96176   3.830   5.472   0.418
23862W        W96177   4.489   2.327  13.035
23863W        W96178  22.120  11.935  11.094
23864W        W96179   1.960  26.474  13.347
23865W        W96180  24.694   8.713   1.430
23866W        W96181   7.192   5.860   3.368
23867W        W96182  21.676  34.685  11.173
23868W        W96183   7.938   0.948  12.813
23869W        W96184  31.096  25.969   1.600
23870W        W96185  10.862  43.001  13.514
23871W        W96186  10.871  19.787   2.202
23872W        W96187   4.718  29.452  12.482
23873W        W96188  27.045  23.255  11.533
23874W        W96189  40.428  19.573   1.827
23875W        W96190  12.722   0.322  12.503
23876W        W96191  12.272   6.276   3.672
23877W        W96192  33.985  15.037  11.641
23878W        W96193   5.052   6.005  11.605
23879W        W96194   4.800  25.970  11.131
23880W        W96195  43.943  14.929   1.091
23881W        W96196   3.389  10.948  12.099
23882W        W96197  42.710  27.847  10.749
23883W        W96198  36.320  10.230  10.706
23884W        W96199  32.460  10.728   3.281
23885W        W96200  12.071  35.641   2.600
23886W        W96201  37.884  11.200  12.397
23887W        W96202  10.847   1.176  14.832
23888W        W96203  36.669  18.035   3.838
23889W        W96204  21.804   3.769   3.622
23890W        W96205  10.953  13.427   3.043
23891W        W96206  11.636  10.071   0.284
23892W        W96207   3.895  19.004   2.206
23893W        W96208  12.441   4.813   2.371
23894W        W96209  22.708  13.823  14.824
23895W        W96210  32.476  26.669  14.679
23896W        W96211   3.934  21.250  10.381
23897W        W96212  38.434  31.910   3.720
23898W        W96213  19.135  26.454  11.613
23899W        W96214   2.516   1.906   0.912
23900W        W96215  26.425  37.954  14.842
23901W        W96216  29.642   9.249   0.204
23902W        W96217  34.246  18.886  11.977
23903W        W96218  29.669   7.365  11.006
23904W        W96219   9.729  24.443  10.689
23905W        W96220  14.652  24.556  14.897
23906W        W96221  33.451  20.627  11.717
23907W        W96222  18.429  37.504  14.517
23908W        W96223  36.454  28.668   0.543
23909W        W96224   4.001  31.226  11.179
23910W        W96225  10.046  21.529  14.472
23911W        W96226  34.488  14.118  12.522
23912W        W96227  25.616  17.042   2.084
23913W        W96228  44.573  35.843   0.471
23914W        W96229  40.447  43.981   3.587
23915W        W96230  11.605  24.041   1.249
23916W        W96231  17.522  27.464  12.869
23917W        W96232   0.608  17.968  11.122
23918W        W96233  34.167  20.992   2.839
23919W        W96234  32.964  13.363  14.335
23920W        W96235  13.065  10.700  14.354
23921W        W96236  11.890   4.870  14.785
23922W        W96237  32.195  38.929   3.230
23923W        W96238  32.207  38.879  10.678
23924W        W96239  24.674  29.036  10.728
23925W        W96240  34.340  37.273  14.518
23926W        W96241  24.737  20.736  13.903
23927W        W96242  18.571   6.603   2.428
23928W        W96243  44.930  20.332  13.114
23929W        W96244  30.198   8.721   0.858
23930W        W96245  39.127  24.195   4.223
23931W        W96246  18.093  11.346  11.579
23932W        W96247  17.455  24.476   0.393
23933W        W96248  14.975  28.367  13.437
23934W        W96249  28.462  41.944   4.152
23935W        W96250  21.173   8.190  13.179
23936W        W96251  29.189   1.752   2.346
23937W        W96252  23.527  41.764   0.326
23938W        W96253  26.128   3.490  10.073
23939W        W96254  19.102   4.732   0.485
23940W        W96255  13.547  37.859  13.365
23941W        W96256   4.001  18.935  11.340
23942W        W96257   9.679   0.440  12.080
23943W        W96258  36.532  41.892   2.382
23944W        W96259  12.221   3.211   1.287
23945W        W96260  18.189  41.368   4.987
23946W        W96261   6.901  25.215  13.396
23947W        W96262  40.798  36.343  14.378
23948W        W96263  18.960   9.373  11.537
23949W        W96264  23.199  12.435   3.225
23950W        W96265  38.794  22.597   3.621
23951W        W96266  15.607  29.782  14.875
23952W        W96267  21.990  24.278   0.070
23953W        W96268  34.035  18.188   0.921
23954W        W96269  33.004   2.332   3.760
23955W        W96270  29.361  41.301  13.560
23956W        W96271  10.300  40.808   3.121
23957W        W96272   3.820  44.147   3.699
23958W        W96273  16.837  27.899   3.303
23959W        W96274  27.984  16.835   4.870
23960W        W96275  40.223  26.164   1.985
23961W        W96276  26.538  43.700   3.796
23962W        W96277  35.547  15.021   4.660
23963W        W96278   0.344  36.254  11.390
23964W        W96279   0.319   2.491   2.379
23965W        W96280  31.003   6.947  12.868
23966W        W96281  34.587  16.793  14.472
23967W        W96282  24.896  28.294   2.584
23968W        W96283   6.807   5.680  11.580
23969W        W96284  18.748  20.179  12.111
23970W        W96285   3.273  24.981   2.736
23971W        W96286  36.143   3.826   4.689
23972W        W96287  11.850  26.158  13.869
23973W        W96288  27.819  11.141  13.326
23974W        W96289  38.383  14.515  11.147
23975W        W96290  15.800  36.152   4.124
23976W        W96291  24.926  31.725   0.635
23977W        W96292  14.497  25.528  13.972
23978W        W96293  41.453  40.753  11.513
23979W        W96294  11.137  37.984  13.372
23980W        W96295   9.086  42.868  10.552
23981W        W96296  17.312  23.444   2.785
23982W        W96297  27.248  33.547  12.399
23983W        W96298  18.578  34.145  12.826
23984W        W96299  38.208  18.548   3.223
23985W        W96300  13.770  13.530   1.760
23986W        W96301  31.216  21.703   1.166
23987W        W96302   3.340  10.442  11.396
23988W        W96303  16.630  23.169   3.976
23989W        W96304  15.623  17.085   0.819
23990W        W96305   4.205  13.790  13.782
23991W        W96306  40.904  36.852   4.522
23992W        W96307  31.972  24.659   1.596
23993W        W96308  24.285   6.977   0.996
23994W        W96309  41.862  22.579   2.743
23995W        W96310  38.795   2.711   2.911
23996W        W96311  24.232  44.956   0.780
23997W        W96312   1.872  42.957   1.335
23998W        W96313  24.557  14.561  10.631
23999W        W96314  20.046  11.811   1.225
24000W        W96315  17.207   5.923   0.449
24001W        W96316  37.490   4.805   3.031
24002W        W96317  13.959  20.988   2.575
24003W        W96318  18.263  15.177  12.472
24004W        W96319  15.606   0.732  10.986
24005W        W96320  31.110  27.350  12.382
24006W        W96321  11.535  36.900   1.215
24007W        W96322  21.543  40.056  12.903
24008W        W96323  18.655  26.379  12.916
24009W        W96324  30.591  28.493   2.223
24010W        W96325   9.606  38.342  14.110
24011W        W96326  12.297  33.674   3.859
24012W        W96327  14.302  30.190   0.054
24013W        W96328  14.354   8.221  11.163
24014W        W96329  15.140  39.388   4.068
24015W        W96330  17.785   2.537   2.266
24016W        W96331   3.982  23.076  12.901
24017W        W96332   6.783  21.755   1.143
24018W        W96333   6.821  23.043   3.714
24019W        W96334  16.777  39.385  10.708
24020W        W96335  12.441  20.551  14.869
24021W        W96336  21.944   0.246   2.266
24022W        W96337  26.900  42.861   3.185
24023W        W96338  20.059  42.341   0.861
24024W        W96339   7.147  44.300   0.939
24025W        W96340  13.171  26.768  12.015
24026W        W96341  18.513  28.626  13.040
24027W        W96342  23.025  28.937   3.288
24028W        W96343  23.030   3.256  13.528
24029W        W96344  19.153   0.633  14.464
24030W        W96345  23.067  37.779   0.255
24031W        W96346  32.694  35.988  14.565
24032W        W96347  32.739   8.850   3.175
24033W        W96348   4.712  43.646  14.409
24034W        W96349  35.011   4.871  14.557
24035W        W96350   5.803  13.551   3.282
24036W        W96351  21.085  36.602   3.636
24037W        W96352   0.935  34.856  13.289
24038W        W96353  42.067   2.938   4.879
24039W        W96354  13.749  23.278  11.145
24040W        W96355   6.167   4.935   1.010
24041W        W96356  40.334  40.896   0.458
24042W        W96357  11.608  33.351  12.918
24043W        W96358   8.754   1.376  11.585
24044W        W96359  22.282  31.713   1.225
24045W        W96360  36.866  24.124  11.383
24046W        W96361  26.903  38.922  13.981
24047W        W96362  10.161   6.701  12.448
24048W        W96363   6.378  20.969  13.959
24049W        W96364  43.546  22.018   4.219
24050W        W96365  39.847  33.990  11.135
24051W        W96366  40.837  31.618   0.581
24052W        W96367  25.278   1.916  12.619
24053W        W96368  23.511   1.011  11.309
24054W        W96369   3.294  30.404   0.022
24055W        W96370  10.271  23.615  11.129
24056W        W96371  29.871  20.670   3.361
24057W        W96372  37.593  32.525   3.274
24058W        W96373  26.308  20.739  12.170
24059W        W96374  30.900  36.482   3.680
24060W        W96375  16.733  35.132  13.282
24061W        W96376   1.213  42.352   0.316
24062W        W96377  41.385  21.634   0.398
24063W        W96378  23.653  19.441  11.528
24064W        W96379  32.314  39.354  12.999
24065W        W96380   5.111  40.890   0.861
24066W        W96381  17.729   8.727   0.536
24067W        W96382  25.496   2.238  10.706
24068W        W96383  22.250  30.636   2.584
24069W        W96384  30.699  11.595   5.047
24070W        W96385  30.449   8.368  11.148
24071W        W96386  35.200  24.452  11.182
24072W        W96387  15.112  27.196   1.335
24073W        W96388  31.886  40.084   2.246
24074W        W96389  31.731  41.089   1.375
24075W        W96390  30.062  16.587  14.138
24076W        W96391   1.907  43.269  11.340
24077W        W96392  31.941  24.282   2.341
24078W        W96393  37.566  27.590  11.727
24079W        W96394  41.072  25.622   1.921
24080W        W96395  36.843  19.670  13.400
24081W        W96396  41.894  28.990   2.141
24082W        W96397  12.262  43.363  11.748
24083W        W96398  39.923  31.602   3.662
24084W        W96399   2.772  19.789   0.891
24085W        W96400  33.872  30.881   2.716
24086W        W96401  10.958  26.052   3.824
24087W        W96402  40.431  20.103   1.851
24088W        W96403  19.959  12.626  13.262
24089W        W96404  10.831  21.980   0.208
24090W        W96405   9.908  41.302  11.950
24091W        W96406  21.954  31.948   2.958
24092W        W96407  42.053  33.444  12.373
24093W        W96408  28.367   5.356  12.078
24094W        W96409  17.892  28.057   3.299
24095W        W96410   2.802  39.928   3.145
24096W        W96411   0.962  23.084  14.409
24097W        W96412   0.787  13.162  11.052
24098W        W96413   7.346  41.243  13.556
24099W        W96414  33.083  36.548  12.059
24100W        W96415   6.566  14.405  12.493
24101W        W96416   3.446   8.906   3.344
24102W        W96417   7.970   5.977  12.095
24103W        W96418  44.237  36.997   0.903
24104W        W96419   3.348   5.772  13.275
24105W        W96420  40.872   0.908   1.245
24106W        W96421  32.041  23.510  11.177
24107W        W96422   2.688  26.244   3.421
24108W        W96423  14.469  44.493  12.840
24109W        W96424  21.303  28.035  11.982
24110W        W96425  15.058  29.584  14.888
24111W        W96426  30.682  16.975  13.421
24112W        W96427  22.227  44.311   2.215
24113W        W96428  29.974  23.723  10.416
24114W        W96429  33.341  39.546  13.110
24115W        W96430  13.339  27.996   4.577
24116W        W96431  11.718  38.936   4.556
24117W        W96432   5.192  23.584  14.830
24118W        W96433  15.479  44.248  12.629
24119W        W96434  21.735  31.328   3.301
24120W        W96435  43.988  35.513  14.461
24121W        W96436  37.849  12.369   3.260
24122W        W96437   1.932  14.468  11.637
24123W        W96438  20.218  38.072   1.196
24124W        W96439  35.343  41.638  11.169
24125W        W96440  41.648  42.294   1.971
24126W        W96441   4.918  28.927   3.821
24127W        W96442  11.413   6.305   4.795
24128W        W96443  41.282  22.710  13.930
24129W        W96444  39.333   5.272  11.094
24130W        W96445  14.704  27.043   4.198
24131W        W96446  42.741   6.860  10.966
24132W        W96447   6.702  30.841  12.435
24133W        W96448  20.763  18.534  14.033
24134W        W96449   0.546  14.784  12.684
24135W        W96450   1.293  18.639  13.163
24136W        W96451  40.238  26.952  14.417
24137W        W96452  12.229  43.016   1.909
24138W        W96453  29.661  40.898  11.935
24139W        W96454  35.426  23.772   1.302
24140W        W96455  33.985  16.563   3.595
24141W        W96456   0.761  24.721   4.243
24142W        W96457   3.653   8.852  13.007
24143W        W96458  26.258  40.754  13.352
24144W        W96459  29.748  33.721   3.764
24145W        W96460  18.511  30.788  10.611
24146W        W96461  26.562  26.674  14.860
24147W        W96462  33.492  27.955   1.355
24148W        W96463  41.965  31.950  11.486
24149W        W96464   5.059  13.929   4.648
24150W        W96465   4.699  28.665  11.128
24151W        W96466  14.823  27.605  12.940
24152W        W96467  13.731  33.521   3.389
24153W        W96468  41.462  36.316   4.123
24154W        W96469  36.400  38.265  12.991
24155W        W96470   6.371  13.852  13.810
24156W        W96471   3.228  19.714  13.376
24157W        W96472  32.041   0.441  10.655
24158W        W96473   3.733  36.054   3.717
24159W        W96474   4.194  16.612  14.575
24160W        W96475  30.713   2.884  12.828
24161W        W96476  18.118  18.156  14.224
24162W        W96477  22.911  30.402  11.742
24163W        W96478   8.374  29.518  11.691
24164W        W96479  23.030  29.587   4.764
24165W        W96480  23.756  23.649  13.513
24166W        W96481  42.787  40.516   2.807
24167W        W96482  37.838  17.203   4.013
24168W        W96483   2.083  10.858   2.380
24169W        W96484   1.583  19.732  11.631
24170W        W96485  16.528  10.411   3.740
24171W        W96486  31.082  22.766   1.283
24172W        W96487  41.621  42.361  14.784
24173W        W96488  14.760  18.025   2.751
24174W        W96489  30.272  25.003  10.619
24175W        W96490  20.026  20.911  13.341
24176W        W96491   2.495  26.486   2.984
24177W        W96492   1.453  30.270  14.538
24178W        W96493  30.136  28.706   2.331
24179W        W96494  29.488   0.372  13.654
24180W        W96495   0.239  28.675   2.443
24181W        W96496  35.647  29.577   3.055
24182W        W96497  15.059  33.194   0.293
24183W        W96498  35.717   0.816   2.893
24184W        W96499  10.478   4.690  14.553
24185W        W96500  31.646  24.246   3.721
24186W        W96501   0.463   1.754  11.516
24187W        W96502  44.536  31.313  13.910
24188W        W96503  17.493  12.211  12.568
24189W        W96504  19.125  40.826   9.724
24190W        W96505  30.915  33.711  14.441
24191W        W96506  21.081   3.342  10.202
24192W        W96507  15.416   8.852  14.457
24193W        W96508  26.689  32.415   3.342
24194W        W96509  11.894  20.016   2.253
24195W        W96510  23.058  28.193   0.479
24196W        W96511  15.746  41.204   1.153
24197W        W96512  37.249  21.823   3.342
24198W        W96513  34.084  13.167   2.658
24199W        W96514  39.815  43.887   3.881
24200W        W96515  23.713  43.579  11.970
24201W        W96516  29.691  44.964  13.294
24202W        W96517  22.655  39.413  14.781
24203W        W96518  32.932  26.144   2.795
24204W        W96519  21.478  42.011   3.150
24205W        W96520  13.854   6.751  13.819
24206W        W96521  39.519  18.783   1.334
24207W        W96522  42.391  22.471  12.141
24208W        W96523  30.506   7.634   0.404
24209W        W96524  22.187  22.086   3.335
24210W        W96525   3.328  22.819   5.120
24211W        W96526  11.380  28.117   1.923
24212W        W96527  30.443   4.945   2.770
24213W        W96528  39.493  33.611  11.114
24214W        W96529  29.083  35.403  12.937
24215W        W96530  14.771  40.025   3.573
24216W        W96531   5.716  11.814   0.457
24217W        W96532   5.814  36.348   0.025
24218W        W96533  17.749  40.608   4.820
24219W        W96534  14.374  40.574   2.333
24220W        W96535  39.920  12.337   3.017
24221W        W96536   2.473  11.573   4.080
24222W        W96537  25.967  35.510  11.072
24223W        W96538   7.228  40.118  12.602
24224W        W96539  24.437  23.364  11.101
24225W        W96540  21.178   4.278  13.053
24226W        W96541  42.095  34.918   2.733
24227W        W96542  13.595  31.735   0.837
24228W        W96543  22.663  44.930   4.496
24229W        W96544  36.709  27.694   3.786
24230W        W96545   5.864  27.756  14.408
24231W        W96546  16.014  32.872  10.681
24232W        W96547  22.296  41.334   1.537
24233W        W96548  26.040   9.993  12.042
24234W        W96549  29.396   9.157   4.135
24235W        W96550  28.384  17.096  11.096
24236W        W96551   8.991  30.198  14.783
24237W        W96552  36.328   2.180   0.354
24238W        W96553  41.899  11.551   1.723
24239W        W96554  36.962  12.808   1.743
24240W        W96555  30.250   1.067  12.869
24241W        W96556  39.968  29.365   4.073
24242W        W96557  36.414  30.139   1.533
24243W        W96558  21.172  29.563   1.990
24244W        W96559  34.690  30.089  12.688
24245W        W96560  13.975  17.649   2.654
24246W        W96561  24.449  19.496   1.391
24247W        W96562  24.703  32.593  10.612
24248W        W96563  43.877  22.688   0.277
24249W        W96564  16.312  39.008   4.619
24250W        W96565   5.330   9.529  10.861
24251W        W96566  27.405   0.467   4.839
24252W        W96567  30.044  33.139  10.697
24253W        W96568  25.251   2.652  13.521
24254W        W96569   6.745   7.767  12.893
24255W        W96570  16.149  21.282   1.809
24256W        W96571   7.801  44.718   4.508
24257W        W96572  34.915  27.983   1.436
24258W        W96573  29.004  10.867   1.968
24259W        W96574  11.922  21.483  10.830
24260W        W96575  35.895  43.435  13.991
24261W        W96576  32.394  35.562  14.541
24262W        W96577   0.959  41.517   3.227
24263W        W96578  22.121   9.098   1.330
24264W        W96579  21.422  39.061   4.220
24265W        W96580  10.688   7.809   2.134
24266W        W96581  20.681  28.658  14.470
24267W        W96582  30.151  19.387  13.330
24268W        W96583   8.676  43.198   1.330
24269W        W96584  39.841   0.069  12.348
24270W        W96585  33.094  38.608  11.073
24271W        W96586  10.238  29.717   0.781
24272W        W96587  39.762  29.860   4.156
24273W        W96588  34.604  11.783   0.853
24274W        W96589  16.387  22.487   9.894
24275W        W96590  11.256  43.853   0.957
24276W        W96591   5.149  21.560   0.453
24277W        W96592  33.140  29.569   0.909
24278W        W96593   7.210  15.505   3.664
24279W        W96594  43.832  44.987  12.201
24280W        W96595  12.302   7.458  14.668
24281W        W96596   5.391  13.155  14.128
24282W        W96597   4.412  41.998  13.202
24283W        W96598   6.863  40.533  10.730
24284W        W96599  23.163  15.069   0.070
24285W        W96600  36.978  26.698   0.320
24286W        W96601  23.010  42.397  13.051
24287W        W96602   9.788  44.921   3.334
24288W        W96603   7.169  14.632  10.384
24289W        W96604  24.926  24.816  12.480
24290W        W96605  16.351   6.498  10.699
24291W        W96606  44.956  28.427  12.024
24292W        W96607  11.749   0.689  13.585
24293W        W96608  32.883   6.172  13.325
24294W        W96609  28.954  40.205  12.889
24295W        W96610  32.574  43.774   1.158
24296W        W96611  12.134   0.183  11.901
24297W        W96612  40.974  29.223   1.325
24298W        W96613  36.013   1.778   2.723
24299W        W96614   3.992  11.219   4.566
24300W        W96615   9.137  29.276  13.541
24301W        W96616  14.541  36.788   3.213
24302W        W96617  23.187  33.915   1.499
24303W        W96618  38.611  39.392   3.697
24304W        W96619  21.469  44.803  14.079
24305W        W96620  11.158  35.088  11.715
24306W        W96621  14.248   1.695   4.125
24307W        W96622  29.640   5.150   3.211
24308W        W96623  18.317   2.212   0.311
24309W        W96624  32.362  43.765   4.707
24310W        W96625  30.868  17.706  13.934
24311W        W96626  11.733  38.512  10.674
24312W        W96627   6.424  36.454   2.269
24313W        W96628  12.796  30.514   4.571
24314W        W96629  31.116  41.920   0.347
24315W        W96630  42.384  31.182  10.985
24316W        W96631  32.873  17.049  14.941
24317W        W96632   8.405  31.921   1.403
24318W        W96633  31.009  22.180   4.723
24319W        W96634  37.766  26.262   3.154
24320W        W96635  12.308  40.827   4.585
24321W        W96636  10.311   9.345   1.199
24322W        W96637   4.167  11.572   4.189
24323W        W96638  16.687  20.144  10.755
24324W        W96639  12.959  13.305   0.370
24325W        W96640   9.326  28.816   0.790
24326W        W96641   6.183   3.264  10.321
24327W        W96642  24.196   0.936   0.738
24328W        W96643   9.348  44.170   4.411
24329W        W96644  44.565  12.672   5.076
24330W        W96645  20.898   2.346   3.548
24331W        W96646   5.285   9.344   2.633
24332W        W96647  33.217  15.530   5.104
24333W        W96648  39.821  35.377   3.329
24334W        W96649  29.259  42.792   0.683
24335W        W96650  35.371  25.472   2.315
24336W        W96651  35.281  19.807  14.267
24337W        W96652  28.668  21.115  12.873
24338W        W96653  33.117  33.064  12.994
24339W        W96654   2.801  15.027   3.794
24340W        W96655  12.146  42.370   2.672
24341W        W96656  14.909  26.589  11.496
24342W        W96657  10.968   6.546  10.983
24343W        W96658   4.513   3.729  10.688
24344W        W96659  40.308   6.943  14.417
24345W        W96660  39.115  32.478   3.264
24346W        W96661  43.761  25.135  13.375
24347W        W96662  36.348  12.936   2.864
24348W        W96663  32.400  42.779  14.892
24349W        W96664   1.509  43.958  12.394
24350W        W96665  13.522  18.480   3.650
24351W        W96666  44.392  17.076   2.700
24352W        W96667  25.159  33.326   2.569
24353W        W96668  33.903  14.088  14.180
24354W        W96669   6.502  23.470  12.316
24355W        W96670  24.679   0.742  11.476
24356W        W96671  30.406  20.203  13.735
24357W        W96672  13.148  23.613  14.440
24358W        W96673   4.654  14.597   2.753
24359W        W96674  19.160   1.205  13.820
24360W        W96675  34.030   7.625  14.530
24361W        W96676  38.060  31.981   2.721
24362W        W96677   2.441   6.737   3.074
24363W        W96678  31.185  39.326  14.810
24364W        W96679   0.489  26.726  11.112
24365W        W96680  41.329  31.768   0.451
24366W        W96681   0.807  44.622   2.768
24367W        W96682  21.023   9.833   3.147
24368W        W96683  14.368  37.913   4.584
24369W        W96684  44.560  26.971   2.102
24370W        W96685  18.574  41.841  10.630
24371W        W96686  24.097   6.100  13.911
24372W        W96687  21.254  44.910   4.462
24373W        W96688  23.227  22.463   1.819
24374W        W96689  18.142  37.383  14.950
24375W        W96690  16.343  25.500   2.302
24376W        W96691  22.103  44.109   0.759
24377W        W96692  39.817   0.812  13.103
24378W        W96693  18.750  22.591   5.194
24379W        W96694  10.840  42.480  13.407
24380W        W96695   4.275  27.921   2.915
24381W        W96696  35.607  42.858  13.002
24382W        W96697   6.978  11.824  13.096
24383W        W96698  21.926  20.084   3.838
24384W        W96699  20.695   3.339   4.156
24385W        W96700  16.758  18.710   4.231
24386W        W96701  14.639   0.443   2.879
24387W        W96702  22.159  37.139   1.840
24388W        W96703  26.066  37.269  14.366
24389W        W96704  41.791  20.471  13.994
24390W        W96705  27.971  24.710  12.450
24391W        W96706   4.443  20.230  10.689
24392W        W96707   2.233  34.422   2.654
24393W        W96708  19.980   3.949  12.916
24394W        W96709  21.164  17.500  12.276
24395W        W96710  27.200   0.393  13.915
24396W        W96711  13.607  29.964  11.912
24397W        W96712  21.322  39.075  10.985
24398W        W96713  27.009  44.849  11.455
24399W        W96714  42.340  23.719   1.850
24400W        W96715  22.236  36.064   1.658
24401W        W96716   6.139  30.886  11.979
24402W        W96717  11.101   3.636   0.497
24403W        W96718  25.341   9.005   9.969
24404W        W96719  19.609  40.810   2.870
24405W        W96720  39.289  27.775   3.813
24406W        W96721   2.747   8.027   4.042
24407W        W96722   7.365  35.608   2.438
24408W        W96723  21.777  20.997   0.448
24409W        W96724  34.353  37.657   2.429
24410W        W96725  16.271  38.133  12.857
24411W        W96726  15.340  30.073   1.694
24412W        W96727  41.034  41.239  13.884
24413W        W96728   1.345  15.444   0.703
24414W        W96729  31.676   9.325   1.714
24415W        W96730  39.266   6.217   3.562
24416W        W96731  22.888  22.605   4.538
24417W        W96732   0.820  38.815   2.128
24418W        W96733  20.440  29.315   4.949
24419W        W96734   2.803  18.600  11.849
24420W        W96735  36.390  41.352   2.217
24421W        W96736  29.957  14.699  12.533
24422W        W96737   2.488  38.674  11.152
24423W        W96738   5.351   8.445   3.643
24424W        W96739   3.804   6.180  14.014
24425W        W96740  43.357   3.229   4.579
24426W        W96741  30.954  39.896   9.814
24427W        W96742  16.051  17.612  12.130
24428W        W96743   6.487  16.228  14.496
24429W        W96744  24.748  31.545   2.821
24430W        W96745   7.335  17.427   2.960
24431W        W96746  24.321  22.160   2.687
24432W        W96747  43.913   1.738  11.688
24433W        W96748  20.409   4.428  13.478
24434W        W96749  24.019  39.796  13.487
24435W        W96750  39.835  31.717   2.001
24436W        W96751  19.694  23.112   2.821
24437W        W96752  41.344  41.740   2.558
24438W        W96753  33.842  17.388   0.462
24439W        W96754  30.164  32.777   2.124
24440W        W96755  38.059  31.368   0.855
24441W        W96756  31.396   5.871  11.130
24442W        W96757   3.132  38.781   4.538
24443W        W96758  40.808  32.122   1.275
24444W        W96759  12.229   4.623   3.626
24445W        W96760  11.828  13.077   2.724
24446W        W96761   5.404  34.664  13.454
24447W        W96762  23.529  41.295   2.550
24448W        W96763   7.220  32.810  14.002
24449W        W96764  42.284  27.108   3.651
24450W        W96765  16.261  22.711  14.959
24451W        W96766  13.374  23.702  10.766
24452W        W96767   3.502  40.366  14.312
24453W        W96768  43.961  34.385   1.886
24454W        W96769  11.708  41.929   1.701
24455W        W96770  35.339   5.351  13.836
24456W        W96771  14.040  41.971  12.399
24457W        W96772  27.447   2.357   3.599
24458W        W96773  24.455  24.062  12.929
24459W        W96774  20.984  25.417   2.257
24460W        W96775  42.968  37.861   2.220
24461W        W96776  33.878   4.413  11.979
24462W        W96777  28.777  19.722  14.450
24463W        W96778  12.878  36.104  13.238
24464W        W96779  44.409  38.282   0.293
24465W        W96780  14.153  12.312  12.069
24466W        W96781  16.799  11.412  11.107
24467W        W96782  17.946   9.871  11.492
24468W        W96783  15.914  15.267  13.703
24469W        W96784   3.362  23.827   3.321
24470W        W96785  23.037  34.543  13.828
24471W        W96786  10.341  16.494  11.526
24472W        W96787  15.032  18.042  14.342
24473W        W96788  13.630  38.551   0.304
24474W        W96789  34.444   1.931   4.637
24475W        W96790  27.639   0.499  13.589
24476W        W96791  26.481  19.240  10.586
24477W        W96792  44.548  11.814  11.609
24478W        W96793   8.087  37.029   4.165
24479W        W96794   9.124  12.707  10.338
24480W        W96795  13.965   2.522   4.091
24481W        W96796   7.806  40.407   5.091
24482W        W96797  36.118  19.203  12.482
24483W        W96798  23.498  31.005   2.343
24484W        W96799  29.208  15.168   3.396
24485W        W96800   1.418  17.874   4.545
24486W        W96801  19.837  19.058  13.274
24487W        W96802  22.948  35.688  12.123
24488W        W96803   0.788  20.358   1.543
24489W        W96804  24.713   9.187   3.678
24490W        W96805   8.492   4.643  11.808
24491W        W96806   6.207  18.555   1.417
24492W        W96807  25.655  16.336   3.320
24493W        W96808  20.728  14.053   0.039
24494W        W96809   9.542   3.245   4.187
24495W        W96810  30.170  12.693   0.465
24496W        W96811  37.830  35.315  11.089
24497W        W96812  16.056  39.641   1.378
24498W        W96813   9.351  12.544  12.522
24499W        W96814  13.317  41.522  12.604
24500W        W96815  16.100  21.011  11.998
24501W        W96816  21.714  36.269  12.167
24502W        W96817  32.369   3.672   3.720
24503W        W96818  19.349  28.482  14.851
24504W        W96819  37.049   0.809  10.549
24505W        W96820  36.443  39.772  12.101
24506W        W96821  37.557  41.369   4.494
24507W        W96822   3.079  15.776  14.978
24508W        W96823  34.983   4.845   3.888
24509W        W96824  36.081  40.422   4.613
24510W        W96825  39.002  14.023   0.976
24511W        W96826   8.743  22.098  12.274
24512W        W96827  17.255   2.939   3.771
24513W        W96828  11.191  31.854   2.855
24514W        W96829  38.299  40.953  11.151
24515W        W96830  17.678  17.339  10.693
24516W        W96831  34.919   5.657   3.281
24517W        W96832   9.627  36.872   2.676
24518W        W96833  24.432   9.219  12.123
24519W        W96834  30.645   9.926  11.156
24520W        W96835   3.363  22.466  13.331
24521W        W96836   4.455  39.376   1.012
24522W        W96837  13.224  17.229  11.559
24523W        W96838  31.349  28.818  14.368
24524W        W96839  41.309  15.044  12.030
24525W        W96840  34.505  16.177   4.314
24526W        W96841   7.413  43.816  14.494
24527W        W96842   6.148  21.972   3.887
24528W        W96843  32.584   1.196   0.967
24529W        W96844  39.860  22.757  13.764
24530W        W96845  18.657  13.043  14.295
24531W        W96846   5.598  44.985   1.714
24532W        W96847  44.580  32.423  12.070
24533W        W96848  10.309  38.336  10.620
24534W        W96849  44.699  23.759   0.866
24535W        W96850  17.673  24.445   3.416
24536W        W96851  17.272   9.624  13.131
24537W        W96852  43.909  20.896  12.619
24538W        W96853  22.076   6.824   0.676
24539W        W96854  13.108  29.125  10.494
24540W        W96855  41.477  40.642  13.390
24541W        W96856  10.327  13.858   4.099
24542W        W96857  26.233  35.965   4.643
24543W        W96858  27.788   0.525   1.671
24544W        W96859  29.955   8.152   0.875
24545W        W96860   4.811  33.062  13.709
24546W        W96861   1.322  38.832   4.357
24547W        W96862   2.802  26.003   0.419
24548W        W96863  36.046  29.952  13.830
24549W        W96864   6.946  42.792  12.947
24550W        W96865  18.531  43.959   5.197
24551W        W96866  12.306   4.749  14.396
24552W        W96867   4.946  34.905   3.233
24553W        W96868  23.267  17.883  14.000
24554W        W96869  36.275  16.593   3.261
24555W        W96870   7.287   4.854  14.926
24556W        W96871  20.208  43.447   0.293
24557W        W96872  21.471  30.674  11.900
24558W        W96873   9.473  32.965   4.143
24559W        W96874  19.095   4.837  10.712
24560W        W96875  30.590  12.642   1.648
24561W        W96876  20.177   3.879  11.504
24562W        W96877  20.705   2.536   3.111
24563W        W96878  13.158  13.798  14.999
24564W        W96879   8.971  43.686  12.447
24565W        W96880  11.088  12.669   0.603
24566W        W96881  44.523  34.074  10.609
24567W        W96882  29.553  30.628   2.810
24568W        W96883  22.730   7.913   2.325
24569W        W96884  23.569   5.889  14.888
24570W        W96885  15.516  37.003   1.310
24571W        W96886  23.102  21.493  11.170
24572W        W96887  16.105  26.506  12.397
24573W        W96888  23.128   4.710   1.869
24574W        W96889   5.914  25.975   2.851
24575W        W96890  17.375  20.692  12.414
24576W        W96891  26.414  27.062   2.103
24577W        W96892  10.252   7.932   3.424
24578W        W96893  41.429  30.660  14.463
24579W        W96894  23.803  38.371   4.677
24580W        W96895  19.708  29.510  13.447
24581W        W96896  25.101  10.406   4.176
24582W        W96897   3.009  15.018  13.017
24583W        W96898   1.847  13.270   0.976
24584W        W96899  41.913  34.805  12.269
24585W        W96900  27.301  13.940  10.107
24586W        W96901   8.906  12.757  14.779
24587W        W96902   3.296  18.328  11.040
24588W        W96903  31.608  29.047   0.904
24589W        W96904  22.776  25.614   3.881
24590W        W96905   8.310  12.734   4.765
24591W        W96906  41.647   8.985  12.047
24592W        W96907  37.811  24.724  11.368
24593W        W96908   5.681  12.536  11.330
24594W        W96909  12.882  25.491  13.961
24595W        W96910   0.865  41.948  13.785
24596W        W96911  19.535  25.218  13.401
24597W        W96912  44.629  35.986  13.967
24598W        W96913  17.028  34.893   0.883
24599W        W96914  28.686  10.862  14.902
24600W        W96915  19.531  17.609  10.872
24601W        W96916   7.727   9.297   3.236
24602W        W96917  11.737  38.376   0.467
24603W        W96918   2.939  29.396   0.904
24604W        W96919  41.772  20.171   2.284
24605W        W96920  10.385  41.832  14.059
24606W        W96921  24.540   1.532  11.966
24607W        W96922  34.376   7.417  12.552
24608W        W96923   3.941  31.009   0.033
24609W        W96924  43.318  12.304   2.370
24610W        W96925  43.577  41.541   0.416
24611W        W96926  28.457  17.907  11.546
24612W        W96927   6.156  39.927  11.702
24613W        W96928  13.671  11.127  12.417
24614W        W96929  31.489  42.809  14.360
24615W        W96930  27.273   1.327  13.955
24616W        W96931  19.072  16.630   1.812
24617W        W96932   0.992  11.377   0.020
24618W        W96933  16.693  29.671   5.098
24619W        W96934  37.759  32.365   0.939
24620W        W96935  29.501  33.671  10.252
24621W        W96936  42.383  19.938  13.340
24622W        W96937  18.058  28.502  13.847
24623W        W96938   4.651  11.718   3.362
24624W        W96939  40.007  38.369  12.441
24625W        W96940  38.394  15.872  12.062
24626W        W96941   2.511   8.956   4.519
24627W        W96942  35.455  21.771   1.867
24628W        W96943  26.630  40.906  14.030
24629W        W96944   6.291   4.412  12.379
24630W        W96945   9.763  12.813   2.771
24631W        W96946  24.566  14.871  14.004
24632W        W96947  35.421  15.665  12.493
24633W        W96948  17.394  12.735  14.521
24634W        W96949  21.607  25.682   2.920
24635W        W96950  14.707  12.348  11.532
24636W        W96951  36.004   3.847   0.303
24637W        W96952  42.337   3.300  14.038
24638W        W96953   2.097  21.830  12.947
24639W        W96954   5.503  27.256  11.079
24640W        W96955  34.454  39.614   3.315
24641W        W96956  24.531  24.220  14.940
24642W        W96957  11.330  11.207  14.912
24643W        W96958  12.721   1.293  13.890
24644W        W96959  10.888  31.204  13.505
24645W        W96960   7.858  25.499   2.225
24646W        W96961  23.180  24.534   3.646
24647W        W96962  32.604   2.708  10.582
24648W        W96963  27.467   4.303   0.843
24649W        W96964  17.458  32.150  10.707
24650W        W96965  34.111  43.344   0.277
24651W        W96966  31.756  32.229   4.270
24652W        W96967   5.829   2.240   1.379
24653W        W96968  34.547  41.649   4.201
24654W        W96969  21.598  20.306  10.580
24655W        W96970   8.792  33.127   2.852
24656W        W96971  22.603  15.459  10.463
24657W        W96972  32.633  18.186   0.892
24658W        W96973  27.529  11.555   5.227
24659W        W96974  39.891   7.890  12.864
24660W        W96975  21.790   5.620  11.028
24661W        W96976   6.810   3.801   0.305
24662W        W96977   3.837   5.075  11.609
24663W        W96978  11.155  13.338   4.094
24664W        W96979   7.737  41.264  11.245
24665W        W96980  37.893   5.471  14.183
24666W        W96981  14.977   1.233  12.736
24667W        W96982  16.098   0.339  13.649
24668W        W96983  31.894  13.459  12.145
24669W        W96984  17.606  43.773   4.312
24670W        W96985  21.224  43.935  14.998
24671W        W96986  27.901  13.512  14.459
24672W        W96987  10.743  20.497   1.863
24673W        W96988   7.815  28.126  12.599
24674W        W96989  40.279  30.876  11.300
24675W        W96990  30.389  34.546   0.479
24676W        W96991  14.555   4.282  14.431
24677W        W96992  17.179  14.631   3.701
24678W        W96993  35.194  37.210   0.752
24679W        W96994  23.196   0.465   2.890
24680W        W96995  41.285  22.031  11.918
24681W        W96996  29.609  18.120   1.823
24682W        W96997  38.284   8.730  11.454
24683W        W96998  31.150  14.013   3.333
24684W        W96999  12.751  39.526  14.961
24685W        W97000  15.409  13.640  12.412
24686W        W97001  35.992   4.217   3.777
24687W        W97002  21.105  37.972  11.233
24688W        W97003   3.238   1.683   3.382
24689W        W97004  29.655   5.980  12.110
24690W        W97005  38.900  22.159   4.373
24691W        W97006   0.881  24.060  12.829
24692W        W97007   2.167  20.293  12.927
24693W        W97008   2.331  27.462   1.735
24694W        W97009   0.303  19.622   4.756
24695W        W97010  35.627  19.019  11.163
24696W        W97011  35.294  43.906   2.723
24697W        W97012  30.702   7.423   3.660
24698W        W97013   6.332   6.530  11.669
24699W        W97014  15.563  34.879  14.977
24700W        W97015   2.598  10.761   5.106
24701W        W97016  28.610  25.890   4.109
24702W        W97017  29.414  43.954  11.593
24703W        W97018  36.522   3.046  12.064
24704W        W97019  42.807  41.456   2.908
24705W        W97020  35.009  37.488  13.947
24706W        W97021   8.435   6.898  12.032
24707W        W97022  34.066  32.243  12.586
24708W        W97023  30.640   5.238   3.202
24709W        W97024  26.724  21.179   1.219
24710W        W97025  43.580  18.727  11.031
24711W        W97026   2.712   7.822  13.669
24712W        W97027  31.272   9.783   1.975
24713W        W97028   5.910  15.682   2.153
24714W        W97029   4.045  22.160  11.920
24715W        W97030  32.426   3.773   0.368
24716W        W97031  16.662  37.354   0.704
24717W        W97032  35.041   7.462  14.385
24718W        W97033  16.256  24.176   0.651
24719W        W97034  40.210  14.027  12.406
24720W        W97035   5.576   1.439  11.594
24721W        W97036  22.209  31.714  12.926
24722W        W97037   9.876  35.831   4.201
24723W        W97038  28.228   9.585  13.974
24724W        W97039  44.532  18.117   3.590
24725W        W97040  21.147  24.176  12.110
24726W        W97041   5.729  14.179   0.034
24727W        W97042   0.943   9.439  14.571
24728W        W97043  29.610  14.719  13.814
24729W        W97044  31.084  12.294  10.801
24730W        W97045  29.725  44.384  11.729
24731W        W97046  38.036  42.509  12.338
24732W        W97047   8.852  38.814  10.806
24733W        W97048  16.055  29.417  13.826
24734W        W97049  41.385  33.149   4.498
24735W        W97050   3.285  16.523   4.570
24736W        W97051  16.817  12.630   4.460
24737W        W97052  42.023  17.237  13.405
24738W        W97053  18.184   8.200   9.769
24739W        W97054  36.481  16.874  10.729
24740W        W97055  16.119  15.540   2.228
24741W        W97056  32.011  27.663   3.640
24742W        W97057  16.804  31.656   4.273
24743W        W97058  18.257  21.136  12.187
24744W        W97059  18.059  39.517  12.002
24745W        W97060   0.977  39.147  14.467
24746W        W97061  12.430   8.355   4.294
24747W        W97062  36.750  32.922  12.349
24748W        W97063  29.683   5.870  10.154
24749W        W97064  18.828  36.003   4.619
24750W        W97065  31.660   2.526   3.837
24751W        W97066  35.057  31.854   0.867
24752W        W97067  12.950  20.558  14.868
24753W        W97068  25.567  37.857  12.586
24754W        W97069  31.831  17.155   2.871
24755W        W97070  21.131  21.703  13.887
24756W        W97071  37.632  13.676   2.824
24757W        W97072  19.258  31.570   3.783
24758W        W97073  10.793   8.737  12.442
24759W        W97074  34.555  24.407   1.416
24760W        W97075  11.884  10.659  13.627
24761W        W97076  42.875  23.156   3.479
24762W        W97077   0.757   9.419   0.519
24763W        W97078  17.816  19.673   3.209
24764W        W97079  13.621  37.483   4.508
24765W        W97080   7.272  22.900  13.351
24766W        W97081  28.674  14.003  13.904
24767W        W97082  42.350   0.839  14.574
24768W        W97083  44.513  40.456   2.209
24769W        W97084  11.345  16.345  10.970
24770W        W97085  18.567  30.414   5.200
24771W        W97086  43.509  43.879   0.200
24772W        W97087  14.248  28.340   4.220
24773W        W97088  12.155  38.341   1.117
24774W        W97089  35.519  13.385  12.083
24775W        W97090  17.702   2.934  12.040
24776W        W97091  16.235  11.195  14.948
24777W        W97092  18.219  41.330   0.263
24778W        W97093   1.793   1.229   4.213
24779W        W97094  18.674  18.042   2.770
24780W        W97095  20.955  28.576  12.013
24781W        W97096  33.364  34.476   4.513
24782W        W97097  31.613  17.970   4.362
24783W        W97098  44.259   7.958   2.401
24784W        W97099  18.705  23.749   4.221
24785W        W97100   2.301  35.364  11.361
24786W        W97101  18.195  35.163   1.938
24787W        W97102  11.083   8.824   0.774
24788W        W97103  10.315  12.768   2.792
24789W        W97104  41.421  11.172   2.201
24790W        W97105  10.712   3.295  12.096
24791W        W97106   1.369  21.561   0.861
24792W        W97107  18.890  20.716  14.851
24793W        W97108  11.125   0.342   4.899
24794W        W97109  21.085  24.227   1.779
24795W        W97110  13.600   9.881   3.168
24796W        W97111  26.978   2.343   3.816
24797W        W97112  17.180   1.677  14.958
24798W        W97113  26.921   1.376   4.725
24799W        W97114  17.707  35.857  10.558
24800W        W97115  37.346  15.173   1.386
24801W        W97116  39.014   3.797   0.973
24802W        W97117  39.645   4.463   4.541
24803W        W97118  37.952   1.638  13.535
24804W        W97119  34.948  36.604   3.050
24805W        W97120  13.392  35.962  10.766
24806W        W97121   2.697  39.057   4.525
24807W        W97122  30.275  12.320  11.788
24808W        W97123  33.874  41.783  11.711
24809W        W97124   3.503  24.126   2.916
24810W        W97125  29.658  40.984  11.444
24811W        W97126  34.343  20.215   4.650
24812W        W97127  27.542  32.968  11.166
24813W        W97128  41.518   1.814   3.139
24814W        W97129  28.012  27.029   2.728
24815W        W97130   2.726  23.973   3.460
24816W        W97131  14.911  23.278  14.012
24817W        W97132   9.861   2.171  14.921
24818W        W97133  14.662  35.007  13.888
24819W        W97134   6.474  21.138  10.696
24820W        W97135  16.356  26.863  13.112
24821W        W97136  17.950  22.087  12.478
24822W        W97137  27.581  35.391  12.609
24823W        W97138  30.081  30.926   1.673
24824W        W97139  31.951  28.414   1.280
24825W        W97140  22.381  38.004   4.817
24826W        W97141  42.804  22.782   3.115
24827W        W97142  11.766   7.808  11.999
24828W        W97143  11.700   7.653   0.866
24829W        W97144  39.857  37.816  12.808
24830W        W97145  11.775  13.088  10.499
24831W        W97146  42.694  12.630  13.880
24832W        W97147  35.807  30.515   0.491
24833W        W97148  37.885   7.798  13.252
24834W        W97149   0.936  43.502  12.015
24835W        W97150  21.193   9.804   5.024
24836W        W97151  11.178   2.520  14.883
24837W        W97152  12.877  33.074   4.276
24838W        W97153  25.976  43.853   2.331
24839W        W97154  36.055   0.752   0.832
24840W        W97155  21.766  33.719   0.974
24841W        W97156   2.899   8.143   4.537
24842W        W97157   7.436   1.454  13.495
24843W        W97158  25.168   3.824   2.356
24844W        W97159  15.623  35.410   0.693
24845W        W97160  39.633   0.241  13.821
24846W        W97161  41.298   3.764  12.079
24847W        W97162  13.197  40.409  11.178
24848W        W97163   3.379   6.223  13.532
24849W        W97164  28.927  15.524   0.474
24850W        W97165  42.717   9.743   0.422
24851W        W97166  27.473  33.638   2.601
24852W        W97167  36.487   1.756  11.634
24853W        W97168  10.283  40.990  14.709
24854W        W97169  28.563   5.847   1.415
24855W        W97170  22.494  35.210   4.357
24856W        W97171  25.379  41.714   4.707
24857W        W97172   4.267  27.462  14.541
24858W        W97173  43.972  10.831  13.358
24859W        W97174  16.636  37.033  13.356
24860W        W97175  26.149  42.655  12.013
24861W        W97176  40.041  25.190  13.919
24862W        W97177  37.880  35.454   2.664
24863W        W97178  32.509   9.933  14.830
24864W        W97179  24.393  39.288  14.886
24865W        W97180   8.163  15.627   3.664
24866W        W97181  33.419  40.621  14.107
24867W        W97182  14.108  41.332   1.957
24868W        W97183  23.012  42.574  12.509
24869W        W97184  32.324  16.815  14.081
24870W        W97185  24.483  32.612  12.591
24871W        W97186  39.363  20.552   2.866
24872W        W97187  33.754  22.804  13.800
24873W        W97188  20.861  24.000   0.732
24874W        W97189  21.636  21.759   5.073
24875W        W97190  39.032   3.227   4.846
24876W        W97191  20.503  16.859  11.581
24877W        W97192  27.983   1.794  13.514
24878W        W97193  10.268  28.175   0.932
24879W        W97194  31.117  31.978  11.055
24880W        W97195  23.493  23.349   0.508
24881W        W97196  25.276  38.842  13.004
24882W        W97197   9.395  27.170   3.310
24883W        W97198  38.436  28.233   4.785
24884W        W97199  25.419  25.421   0.696
24885W        W97200  34.016   5.089   3.208
24886W        W97201  10.671  20.065   4.271
24887W        W97202   4.864  20.287  12.888
24888W        W97203   4.183  10.819  11.336
24889W        W97204   8.622  35.322  14.517
24890W        W97205  37.000  32.605  11.290
24891W        W97206   2.834  43.464   1.156
24892W        W97207  32.558  11.671  10.845
24893W        W97208  16.176  25.054   1.127
24894W        W97209   9.337   5.850   1.425
24895W        W97210  26.000  14.518  12.991
24896W        W97211  19.742  14.980  11.958
24897W        W97212  21.686   4.852   0.057
24898W        W97213   5.744  12.463   4.102
24899W        W97214  30.704  43.813   2.772
24900W        W97215  16.030  28.585  12.039
24901W        W97216  20.294  42.301   2.262
24902W        W97217  41.441  20.767   1.793
24903W        W97218  37.906  22.712   2.740
24904W        W97219   9.413  18.874   1.891
24905W        W97220  22.649   8.874   1.945
24906W        W97221  28.697   7.061   3.114
24907W        W97222   5.544  20.082   4.680
24908W        W97223  41.292   3.698   3.267
24909W        W97224  19.612  30.521   0.360
24910W        W97225   8.839  34.182  12.462
24911W        W97226  33.896  12.433   3.211
24912W        W97227  43.941   9.503   0.949
24913W        W97228  36.302  22.549  12.490
24914W        W97229  38.119  37.980  13.528
24915W        W97230  16.550  14.081   3.180
24916W        W97231   5.863  22.292  13.947
24917W        W97232  22.326  14.863  14.816
24918W        W97233  43.577  22.238   3.170
24919W        W97234   0.508  43.298  14.430
24920W        W97235  17.351   6.840   2.824
24921W        W97236  35.033   9.457   0.778
24922W        W97237  14.862  16.795   1.248
24923W        W97238  15.553  30.179   5.181
24924W        W97239  32.901  42.944   0.869
24925W        W97240  41.048  28.601   4.648
24926W        W97241   6.922  19.576  10.740
24927W        W97242   5.161  22.478  11.602
24928W        W97243  30.319   3.689   5.179
24929W        W97244  24.959  13.234  13.534
24930W        W97245   8.344  33.465  13.035
24931W        W97246   1.871  17.145   1.348
24932W        W97247  18.012  25.884   1.302
24933W        W97248  39.954  18.578   3.798
24934W        W97249   5.736  29.652  13.867
24935W        W97250   2.442   5.816  14.775
24936W        W97251  21.789  42.366   3.914
24937W        W97252  27.569  29.959   2.018
24938W        W97253  42.956  32.458  12.812
24939W        W97254   9.355  17.571  14.066
24940W        W97255  27.723  18.203  11.584
24941W        W97256   4.995   1.486   3.683
24942W        W97257   9.797  13.851   4.797
24943W        W97258  34.340  13.544   1.812
24944W        W97259  19.100   1.166  14.322
24945W        W97260   1.502  11.364  12.166
24946W        W97261  39.113  44.523  14.328
24947W        W97262  37.504  43.365   4.778
24948W        W97263   2.829   3.934  11.494
24949W        W97264  38.843  20.984  12.116
24950W        W97265  22.800  25.216   2.243
24951W        W97266   0.941  32.592  11.474
24952W        W97267   5.840  24.200   1.265
24953W        W97268  25.465   2.407   2.804
24954W        W97269   0.092   8.913  10.170
24955W        W97270  13.639  23.013  13.800
24956W        W97271  24.200  18.574   3.811
24957W        W97272  18.122  43.234  13.709
24958W        W97273  16.000  35.064  14.747
24959W        W97274  29.698  30.704  12.168
24960W        W97275  40.316   6.447  13.601
24961W        W97276  43.416  10.950  10.329
24962W        W97277  23.576  35.510   2.179
24963W        W97278   4.802  22.803   1.299
24964W        W97279  29.153   3.021  13.734
24965W        W97280  34.274  34.926   4.163
24966W        W97281  31.594  15.584  13.353
24967W        W97282  29.140   9.205  13.895
24968W        W97283  37.610   9.114  11.931
24969W        W97284  22.718  10.889   1.406
24970W        W97285   3.819  34.480   3.705
24971W        W97286  34.530  14.821  12.819
24972W        W97287  42.922  16.824   1.109
24973W        W97288   0.508  22.487   0.002
24974W        W97289  34.541  32.378  12.410
24975W        W97290   9.366  33.602  14.820
24976W        W97291  25.275  15.997   3.263
24977W        W97292  13.430  12.155   3.690
24978W        W97293   7.681  42.427   4.583
24979W        W97294  22.130   7.029  14.273
24980W        W97295  41.475  30.920   4.046
24981W        W97296  12.645  23.567  14.579
24982W        W97297  35.432  35.690  13.912
24983W        W97298  10.299   4.477  14.105
24984W        W97299  37.908   3.453  10.363
24985W        W97300  44.058  22.511  11.340
24986W        W97301  39.389  13.441  14.589
24987W        W97302  35.827   1.500   0.380
24988W        W97303  21.098  21.804  13.006
24989W        W97304  24.201   9.251  12.576
24990W        W97305  36.450   1.980  12.945
24991W        W97306   3.572  11.869   2.423
24992W        W97307  44.900  32.644  11.587
24993W        W97308  43.779  10.178  12.813
24994W        W97309   0.957  40.386  11.196
24995W        W97310  24.972   1.919  11.153
24996W        W97311  21.046   6.559  11.608
24997W        W97312  13.776   8.371  14.439
24998W        W97313   4.739   6.141   1.325
24999W        W97314  18.844   4.224  12.440
25000W        W97315   2.515  18.788   2.691
25001W        W97316  36.411  28.504   0.032
25002W        W97317  37.871  43.495  12.860
25003W        W97318  37.846  33.497  12.199
25004W        W97319   2.041  20.490  10.717
25005W        W97320   5.566   6.864  11.122
25006W        W97321  38.485  25.258   2.086
25007W        W97322  33.923  31.638   1.322
25008W        W97323  24.220  40.600   2.637
25009W        W97324  44.898  25.955   0.559
25010W        W97325  31.753  36.652  13.983
25011W        W97326  12.195  43.385  13.338
25012W        W97327  20.527  19.806   4.682
25013W        W97328  23.665  28.678   3.891
25014W        W97329  31.491  22.799   4.060
25015W        W97330  43.005  29.415  12.045
25016W        W97331   4.395  33.006  14.017
25017W        W97332  29.208  24.389  12.628
25018W        W97333   8.412   4.137   1.345
25019W        W97334  28.253  38.983   0.453
25020W        W97335  12.873  31.099   0.972
25021W        W97336  16.509   9.354  10.818
25022W        W97337  12.931   6.327  14.434
25023W        W97338  23.158   6.405   2.399
25024W        W97339  30.866  15.753  12.875
25025W        W97340  42.598  22.985   2.188
25026W        W97341  30.103  28.352  10.493
25027W        W97342  44.689  15.038  11.151
25028W        W97343  40.533  19.603  14.095
25029W        W97344  32.050   9.365   3.289
25030W        W97345  18.424   1.419   0.969
25031W        W97346  23.138  20.679   1.247
25032W        W97347  38.435   8.123  13.519
25033W        W97348  16.630  30.518  10.173
25034W        W97349  26.622  17.882  10.627
25035W        W97350  23.422  14.271  11.466
25036W        W97351  14.177   7.754   0.965
25037W        W97352   7.084   0.279   0.801
25038W        W97353  32.166  20.589   0.069
25039W        W97354  10.706  30.827   3.313
25040W        W97355  42.762  22.269   0.217
25041W        W97356  25.395   7.367   2.702
25042W        W97357  31.753   6.956  13.577
25043W        W97358  22.697   4.452   4.444
25044W        W97359   8.925  11.196   0.836
25045W        W97360  39.036  22.715   1.182
25046W        W97361  40.035  21.655  13.365
25047W        W97362  21.543  37.814  12.745
25048W        W97363  43.975  40.811  12.107
25049W        W97364  34.370   2.849   4.976
25050W        W97365  32.285   0.249   0.812
25051W        W97366  12.776  37.807   2.919
25052W        W97367  12.296   1.053  11.483
25053W        W97368  14.313  11.883   1.946
25054W        W97369  33.459  23.197   3.772
25055W        W97370  22.709  21.505  11.854
25056W        W97371  41.289  40.356  14.014
25057W        W97372  35.675  41.106   0.528
25058W        W97373   3.859   8.640  14.407
25059W        W97374   5.834  26.430   0.787
25060W        W97375  15.012  20.727   3.230
25061W        W97376  34.397  26.201  14.585
25062W        W97377   9.712   4.242  14.862
25063W        W97378  39.883  41.336   3.126
25064W        W97379  22.280  19.096   1.970
25065W        W97380  25.116   1.656  11.647
25066W        W97381  38.525  41.468  14.801
25067W        W97382  11.615  10.053   2.373
25068W        W97383  16.948  10.946  10.105
25069W        W97384   0.511  36.811  14.010
25070W        W97385  33.999   6.582   4.988
25071W        W97386  40.337   4.889  13.279
25072W        W97387   6.868  43.775   3.141
25073W        W97388  32.710  16.726   1.851
25074W        W97389  39.879  31.436  10.691
25075W        W97390  16.256  37.505  12.035
25076W        W97391  38.590  12.799  12.021
25077W        W97392  13.455   9.265   0.929
25078W        W97393   2.745   8.156   1.467
25079W        W97394  25.586  21.441  13.170
25080W        W97395   2.023   5.810  12.891
25081W        W97396   0.976   1.402   0.836
25082W        W97397  31.493  26.609  11.536
25083W        W97398  34.383  12.877  13.801
25084W        W97399  36.590  13.809   3.775
25085W        W97400  28.722  39.526  14.264
25086W        W97401   3.601   9.771  13.045
25087W        W97402  22.780  15.731  14.843
25088W        W97403  31.597   3.168   2.228
25089W        W97404  43.949  28.708  13.104
25090W        W97405  35.055  24.431   2.326
25091W        W97406  15.570  39.883  13.423
25092W        W97407  19.557  30.424   2.372
25093W        W97408   5.664  26.434  12.171
25094W        W97409  18.125  20.132   0.714
25095W        W97410  40.392  33.854  12.444
25096W        W97411   9.069  21.998  12.663
25097W        W97412  33.988  25.542  13.026
25098W        W97413  26.952   3.295  14.070
25099W        W97414  25.230  17.383  12.752
25100W        W97415  41.604  31.328   0.534
25101W        W97416  38.858   3.919  14.426
25102W        W97417   3.955   1.633   4.592
25103W        W97418  24.200  37.867   1.485
25104W        W97419  24.890   3.657   0.310
25105W        W97420   9.333  43.342   1.721
25106W        W97421   0.752  13.334   4.297
25107W        W97422  16.128  40.988   0.474
25108W        W97423   7.084  18.609  13.916
25109W        W97424   6.129  31.870  11.868
25110W        W97425   7.475  23.140  10.769
25111W        W97426  38.034  28.662  12.151
25112W        W97427  30.336  14.598  14.970
25113W        W97428  26.179  44.700   1.817
25114W        W97429   7.865  23.011   4.068
25115W        W97430  32.063   9.667  14.861
25116W        W97431   5.304  25.258   0.523
25117W        W97432  24.753   7.757  11.116
25118W        W97433   3.209   2.075   1.681
25119W        W97434  13.694  15.555  14.408
25120W        W97435  11.110  21.152  14.487
25121W        W97436  11.829  30.584   4.331
25122W        W97437  36.525   0.524  11.950
25123W        W97438  28.098   6.900  13.529
25124W        W97439  11.766  17.948  14.199
25125W        W97440   7.650  31.784   0.222
25126W        W97441  17.330  16.225   2.221
25127W        W97442  18.073  30.768  10.299
25128W        W97443  18.488  30.473  11.038
25129W        W97444  37.127   7.440   2.758
25130W        W97445  26.152  31.727  12.008
25131W        W97446  17.266   9.520  11.159
25132W        W97447  18.792   6.423   1.950
25133W        W97448   6.219   8.777   0.857
25134W        W97449   3.238   9.324   3.085
25135W        W97450  11.681  15.229  13.663
25136W        W97451   8.866   6.906  14.708
25137W        W97452  13.649  34.890  14.954
25138W        W97453  15.910   4.805   2.288
25139W        W97454   9.320  14.812  13.435
25140W        W97455  15.074  25.664  12.831
25141W        W97456   4.387   1.262   0.764
25142W        W97457  18.836  11.132   1.316
25143W        W97458  10.239   2.704   4.981
25144W        W97459  25.558  25.954   3.174
25145W        W97460  28.419   4.411  11.114
25146W        W97461  42.424  29.577   4.599
25147W        W97462  35.911  11.625  12.960
25148W        W97463  35.595  16.522   2.792
25149W        W97464   0.040  34.350  12.726
25150W        W97465  37.836  37.651   0.151
25151W        W97466  18.451   6.130   2.793
25152W        W97467   2.381  10.677   3.776
25153W        W97468   0.348  41.033  14.588
25154W        W97469  33.408  14.139  14.305
25155W        W97470  11.328  12.876   3.906
25156W        W97471  42.893  12.716  14.378
25157W        W97472  25.579  43.294   0.820
25158W        W97473  38.792  36.602   0.729
25159W        W97474   6.205  16.547   2.325
25160W        W97475  14.270  25.007  14.478
25161W        W97476  24.526  15.365   2.749
25162W        W97477  36.442  34.223   3.671
25163W        W97478  41.326   4.779  11.987
25164W        W97479  43.281  29.376  14.390
25165W        W97480   5.918  41.489   2.216
25166W        W97481  17.539  27.090   3.075
25167W        W97482   3.501   7.727  12.997
25168W        W97483  21.147  32.047   3.179
25169W        W97484  16.780   4.911  11.059
25170W        W97485  10.183  25.041   2.654
25171W        W97486  11.442  36.927  11.506
25172W        W97487  30.448  33.660   0.921
25173W        W97488  30.034  10.823  14.958
25174W        W97489  25.473  30.125   2.839
25175W        W97490  26.573  34.446   3.683
25176W        W97491   0.224   7.680  14.055
25177W        W97492  27.645  20.508  11.504
25178W        W97493  29.936  39.499   0.862
25179W        W97494  27.991  26.120  11.011
25180W        W97495  21.127  39.542   1.911
25181W        W97496   3.472  27.323  14.086
25182W        W97497   9.862  15.725  12.739
25183W        W97498  36.141  36.591   2.653
25184W        W97499  35.066  33.987  11.843
25185W        W97500  34.544  24.617   2.645
25186W        W97501  19.268  29.000  12.411
25187W        W97502  43.480  32.736   1.877
25188W        W97503  44.324  18.981  12.299
25189W        W97504  17.677  17.068  12.453
25190W        W97505  33.592   3.224   1.911
25191W        W97506  34.104  25.110   0.384
25192W        W97507  31.062  13.591   0.337
25193W        W97508  40.468  15.528   0.369
25194W        W97509   9.281  21.349  14.205
25195W        W97510  27.597  42.342  14.821
25196W        W97511   6.232  40.904  14.711
25197W        W97512  28.422   8.699  14.355
25198W        W97513  12.715  21.425  10.771
25199W        W97514   9.126  39.383  12.022
25200W        W97515   2.063  25.661   2.853
25201W        W97516   3.810  40.395   0.246
25202W        W97517  42.201  30.717  11.178
25203W        W97518  16.672  10.545  10.570
25204W        W97519   1.245  35.629   0.914
25205W        W97520   5.984  21.150  10.479
25206W        W97521  32.381  28.147   2.270
25207W        W97522  23.797  10.680   3.534
25208W        W97523  27.223  12.284  13.110
25209W        W97524  32.390  16.296  11.173
25210W        W97525  34.825  23.606  11.649
25211W        W97526  27.373  20.565   1.254
25212W        W97527  25.079  22.995  14.827
25213W        W97528  13.269  32.474   1.197
25214W        W97529  27.579  39.082   0.998
25215W        W97530  12.154   9.887   3.216
25216W        W97531  37.796  34.986   0.397
25217W        W97532   3.778  25.388   5.441
25218W        W97533  36.669  21.228   0.617
25219W        W97534   7.865   9.967  14.541
25220W        W97535  26.467   3.376  10.743
25221W        W97536  14.933  28.748   3.769
25222W        W97537   3.730  24.482   0.382
25223W        W97538  13.751  29.560   0.449
25224W        W97539  29.375  43.055  11.654
25225W        W97540  33.514  29.054   4.812
25226W        W97541  16.665  16.344   4.645
25227W        W97542  15.437  43.622   2.834
25228W        W97543  12.833  35.646  12.947
25229W        W97544  44.059   2.712  11.910
25230W        W97545  18.637  15.542   3.387
25231W        W97546  16.082  34.898   2.328
25232W        W97547  29.724   2.195   4.007
25233W        W97548  14.937  16.016  13.021
25234W        W97549   6.255  32.953  10.957
25235W        W97550  26.792  30.110   3.198
25236W        W97551   7.872  38.204  14.017
25237W        W97552  18.999  24.155  13.248
25238W        W97553   0.801  41.550  12.678
25239W        W97554  14.052  44.141  12.788
25240W        W97555  34.138  37.113   1.301
25241W        W97556   4.793  12.372   2.691
25242W        W97557  23.598  33.391  14.383
25243W        W97558  41.291  39.729  11.645
25244W        W97559  17.283  38.197   1.686
25245W        W97560  13.226  17.616  14.070
25246W        W97561  39.034   2.947   2.513
25247W        W97562  31.051  32.896   2.110
25248W        W97563  36.057  22.000   4.399
25249W        W97564  16.071  33.478   3.292
25250W        W97565  11.171   5.009   1.812
25251W        W97566   2.180  36.574  14.339
25252W        W97567   3.109  18.305  12.225
25253W        W97568   6.344  10.090  13.371
25254W        W97569  24.063  34.049   3.315
25255W        W97570  40.337   6.372  11.608
25256W        W97571  25.444  11.375  14.750
25257W        W97572   9.846  13.058   2.327
25258W        W97573  12.567  43.965   0.843
25259W        W97574  20.212  16.857   5.145
25260W        W97575   3.560   5.119   2.174
25261W        W97576  21.082  26.242  14.159
25262W        W97577  31.432  14.181   1.359
25263W        W97578  41.840   0.242   4.550
25264W        W97579   2.527  14.742   0.776
25265W        W97580  12.082  41.726  10.600
25266W        W97581  32.120   9.788   4.355
25267W        W97582   8.119  15.144   2.755
25268W        W97583  31.508  41.235  14.276
25269W        W97584  27.024  26.977  11.115
25270W        W97585   8.729  40.971  12.679
25271W        W97586  13.865  39.426  10.649
25272W        W97587  24.960   1.267   1.603
25273W        W97588  18.655  17.371   4.516
25274W        W97589  41.101  22.155   2.022
25275W        W97590   1.867  15.982   0.853
25276W        W97591  11.737   4.961  11.861
25277W        W97592  14.886  34.547   2.452
25278W        W97593  36.733   7.693   1.411
25279W        W97594   0.934  39.312   0.807
25280W        W97595  11.762  29.938   3.518
25281W        W97596   4.923  43.761  13.949
25282W        W97597  16.175  44.866  10.628
25283W        W97598  10.670  16.193   3.740
25284W        W97599  39.833  20.747   4.757
25285W        W97600  40.872  37.287   0.759
25286W        W97601   8.572   5.339   0.135
25287W        W97602  31.919  18.681   2.439
25288W        W97603  24.532   9.397   4.995
25289W        W97604  43.340  34.529  10.594
25290W        W97605  13.412   3.782  12.209
25291W        W97606  11.303  44.273  12.579
25292W        W97607  42.288   2.868   1.635
25293W        W97608   7.717  11.183   0.277
25294W        W97609   7.077   0.846   1.547
25295W        W97610  40.117  26.694   0.709
25296W        W97611  27.062  30.603  11.586
25297W        W97612  38.891  43.606   0.341
25298W        W97613  42.483  33.947  13.663
25299W        W97614  16.741  14.918  11.082
25300W        W97615  21.048  34.628  10.558
25301W        W97616  13.160  37.883   1.262
25302W        W97617  31.236  24.642  11.057
25303W        W97618  31.590  16.827  13.598
25304W        W97619  30.207  31.622   4.753
25305W        W97620  11.413  21.053  13.405
25306W        W97621  14.627  39.323  11.120
25307W        W97622  34.370  20.682   1.485
25308W        W97623  35.200  38.349   4.126
25309W        W97624   4.629  10.603  12.480
25310W        W97625  41.015  31.366   3.349
25311W        W97626  15.864  14.157   2.617
25312W        W97627  44.883  28.075   4.552
25313W        W97628  11.239  44.658  11.209
25314W        W97629  21.285  20.922  14.535
25315W        W97630  43.792  38.338   4.199
25316W        W97631  35.966  44.948  10.718
25317W        W97632  39.032  11.037  13.748
25318W        W97633  20.155   8.669  14.050
25319W        W97634  13.639  40.344   0.341
25320W        W97635  16.504   3.379   0.388
25321W        W97636  19.715  32.850   3.836
25322W        W97637  17.672   7.268  11.618
25323W        W97638  31.475  21.467   2.304
25324W        W97639  31.054  43.991   0.397
25325W        W97640  16.234  10.413  11.970
25326W        W97641   6.446  40.293  11.969
25327W        W97642   8.857  42.550   2.637
25328W        W97643  20.356   1.941   4.110
25329W        W97644  30.590  32.455  11.636
25330W        W97645  16.869   4.960  11.934
25331W        W97646  11.614  13.719   9.968
25332W        W97647   6.713  29.831  12.444
25333W        W97648  21.528  42.395   0.037
25334W        W97649  25.574  19.606   1.961
25335W        W97650  36.542  16.460  14.867
25336W        W97651  31.888  24.275   3.253
25337W        W97652  17.618  10.238   0.255
25338W        W97653  27.032  26.106   3.319
25339W        W97654  32.562  21.560  10.944
25340W        W97655  34.438  12.658  14.743
25341W        W97656  31.570  23.003  13.507
25342W        W97657  36.665  32.952  14.488
25343W        W97658  16.914  32.083  10.646
25344W        W97659  28.551  13.432   2.126
25345W        W97660   0.445  20.894   3.875
25346W        W97661  21.984  37.990  12.951
25347W        W97662  14.811  15.931   1.921
25348W        W97663  23.064  32.423   1.729
25349W        W97664  41.847  14.622   3.709
25350W        W97665  34.985  24.579   1.199
25351W        W97666  39.089  42.767  13.683
25352W        W97667   8.700  34.074  13.266
25353W        W97668  31.605  43.746  10.941
25354W        W97669  30.074  23.028   0.890
25355W        W97670   2.839  16.213  11.415
25356W        W97671  13.534   9.360  14.160
25357W        W97672  34.762  25.498  12.676
25358W        W97673   2.039  44.397  14.487
25359W        W97674   5.842  18.676   0.439
25360W        W97675  12.364  40.754   0.066
25361W        W97676   0.761  40.537   1.777
25362W        W97677  39.627   6.533  12.051
25363W        W97678   1.220  39.699   0.338
25364W        W97679  14.294  44.714  13.363
25365W        W97680  18.630  34.562  13.107
25366W        W97681  14.823  28.109   1.792
25367W        W97682  19.777  39.035   3.140
25368W        W97683  39.122   1.555   0.935
25369W        W97684   8.889  25.546  14.278
25370W        W97685  35.851  28.708  14.232
25371W        W97686  36.331   9.138  10.987
25372W        W97687  15.514  28.026   4.871
25373W        W97688  32.086  41.285  11.571
25374W        W97689  19.148  32.537   0.211
25375W        W97690  14.395  25.000   3.541
25376W        W97691  41.532  19.106  14.092
25377W        W97692   4.835  12.869  13.405
25378W        W97693  37.009  22.537  14.476
25379W        W97694   3.971  35.004  13.779
25380W        W97695  35.893  19.309  10.829
25381W        W97696   9.233  40.464   1.329
25382W        W97697  17.982  33.471  13.907
25383W        W97698  21.484  39.931  11.118
25384W        W97699   6.187  17.856  14.444
25385W        W97700  21.212  28.136   4.556
25386W        W97701  41.813  28.094  11.937
25387W        W97702  26.591   1.791  11.113
25388W        W97703  15.808  29.238   3.732
25389W        W97704  34.348  11.321   3.184
25390W        W97705  43.276   3.573   1.445
25391W        W97706  24.805  20.982  14.511
25392W        W97707  41.324  37.974  14.493
25393W        W97708   8.539   3.854  12.491
25394W        W97709   5.357  39.611   1.104
25395W        W97710  43.787   8.069  11.875
25396W        W97711  13.306  16.392   0.831
25397W        W97712  32.826  28.543   0.022
25398W        W97713  43.274  38.967  13.791
25399W        W97714  11.145  39.045   3.839
25400W        W97715  28.699  27.449  12.044
25401W        W97716  17.219   0.646   3.158
25402W        W97717   8.913  25.248   1.240
25403W        W97718  24.212  22.085  13.382
25404W        W97719   2.494   1.518  11.095
25405W        W97720  16.245  32.690   2.686
25406W        W97721  14.579  17.164  12.933
25407W        W97722   0.428   3.429   2.174
25408W        W97723  12.906  25.964   0.931
25409W        W97724  17.562   0.913   2.198
25410W        W97725  22.244  44.872   4.839
25411W        W97726  40.397  27.308   2.957
25412W        W97727  38.899  11.092   4.758
25413W        W97728  29.641   6.382   1.230
25414W        W97729  21.102  11.822   4.166
25415W        W97730  24.006  18.356  14.777
25416W        W97731  27.801  16.090   4.572
25417W        W97732  25.976   2.287  13.912
25418W        W97733  38.030  34.011  11.441
25419W        W97734  10.717  26.502   2.712
25420W        W97735  36.549  44.429  10.691
25421W        W97736  44.673  33.964  14.892
25422W        W97737  32.646  22.592   1.855
25423W        W97738  18.285  42.104   3.263
25424W        W97739  36.331  24.689   1.870
25425W        W97740  20.564  20.494   0.401
25426W        W97741  40.348  24.667  10.194
25427W        W97742  27.716  38.852  12.338
25428W        W97743  19.491   1.451  14.516
25429W        W97744  16.051  28.511  14.803
25430W        W97745   6.202  30.994   0.358
25431W        W97746  40.517  41.330   4.650
25432W        W97747  16.631  22.231   2.712
25433W        W97748   6.175  32.587   4.489
25434W        W97749   6.113  10.882   1.813
25435W        W97750  22.774  19.290   9.736
25436W        W97751  40.743  29.945  14.256
25437W        W97752   3.543   3.438  12.600
25438W        W97753  41.580  16.118   3.193
25439W        W97754  17.654  23.206  10.931
25440W        W97755   9.507   4.396   2.211
25441W        W97756  37.923  11.238  12.907
25442W        W97757  26.167  33.054   4.248
25443W        W97758  32.195   1.372   0.011
25444W        W97759  24.644  39.910   0.255
25445W        W97760  13.252  16.590   3.789
25446W        W97761  34.770  29.365  12.233
25447W        W97762  33.848  35.894  12.920
25448W        W97763  37.362  25.474   1.243
25449W        W97764  14.648  19.368  14.444
25450W        W97765  17.005  39.358   4.121
25451W        W97766  16.127  41.371  14.300
25452W        W97767   4.846  31.720   3.295
25453W        W97768  26.485   2.027  12.016
25454W        W97769  17.521  44.070  13.439
25455W        W97770  20.808  33.803  14.813
25456W        W97771  21.559   1.524   3.198
25457W        W97772   3.711  14.238   2.273
25458W        W97773  35.426  37.555   3.589
25459W        W97774  38.104  11.307  13.388
25460W        W97775   4.284  35.439   0.074
25461W        W97776   9.486  26.962   3.802
25462W        W97777   0.026  34.948  12.924
25463W        W97778  26.700  30.686   0.459
25464W        W97779  29.177  30.524   1.798
25465W        W97780  28.758  38.887   0.415
25466W        W97781  24.165  43.212   4.921
25467W        W97782  36.132  18.609   0.346
25468W        W97783  43.452  11.940  14.110
25469W        W97784  25.651  24.065   3.083
25470W        W97785  37.518  42.740   2.678
25471W        W97786   3.162  20.930  13.393
25472W        W97787  34.951  29.960   1.290
25473W        W97788   0.451  30.571  13.898
25474W        W97789  37.363  44.473   2.868
25475W        W97790  15.613  27.586   1.863
25476W        W97791   3.936  27.585  11.966
25477W        W97792   4.928   8.886   0.171
25478W        W97793   3.087  41.549   1.536
25479W        W97794  13.140   3.366  12.093
25480W        W97795  26.211  17.606  12.570
25481W        W97796  34.680  12.792  10.950
25482W        W97797  37.495  37.922   3.239
25483W        W97798  25.177   6.737   0.945
25484W        W97799  25.510  24.800  11.582
25485W        W97800   4.752   6.955  13.440
25486W        W97801  28.323  27.013  13.857
25487W        W97802  23.191  40.604   0.916
25488W        W97803  31.863  37.459  13.078
25489W        W97804  26.932  36.490   4.248
25490W        W97805  39.593  16.736   3.172
25491W        W97806  16.305  26.069  12.635
25492W        W97807  10.430  44.241  12.482
25493W        W97808   7.966  32.723  14.250
25494W        W97809  44.515   9.256  10.500
25495W        W97810   6.893  30.519  13.002
25496W        W97811  39.303  23.011   4.780
25497W        W97812  16.693  19.613  10.590
25498W        W97813  39.814   0.150  10.674
25499W        W97814  35.049  36.647   3.937
25500W        W97815  33.614   8.469  11.656
25501W        W97816  11.794  19.475  11.917
25502W        W97817   8.193   2.112  13.348
25503W        W97818  24.691   7.850   3.329
25504W        W97819  13.311  16.899  14.488
25505W        W97820   2.217  15.473   4.402
25506W        W97821  32.945  32.461   5.015
25507W        W97822   6.342  37.564   4.863
25508W        W97823  18.579   9.279   0.022
25509W        W97824   9.957  16.124  11.604
25510W        W97825  11.322  15.704   4.711
25511W        W97826  14.282  37.266   3.855
25512W        W97827  36.798  35.003  10.445
25513W        W97828  22.112  26.162  11.109
25514W        W97829  18.632  10.905  10.078
25515W        W97830  23.692  38.870   3.281
25516W        W97831  40.579  24.012   1.123
25517W        W97832  35.856  23.718  14.764
25518W        W97833  18.044  10.161  12.046
25519W        W97834   4.319  37.401  12.823
25520W        W97835   2.614  44.906   1.785
25521W        W97836  35.294  10.381   4.240
25522W        W97837  20.466  10.167   0.843
25523W        W97838  19.708  11.244   3.840
25524W        W97839  27.499  19.189  14.530
25525W        W97840  16.693  12.986   4.070
25526W        W97841  19.540  14.756   0.046
25527W        W97842  40.952  37.055  14.938
25528W        W97843  23.715   6.433   3.680
25529W        W97844  31.864  15.665  12.014
25530W        W97845  14.650  12.799  13.718
25531W        W97846  18.531  32.965   3.770
25532W        W97847  32.393  21.275   4.210
25533W        W97848  22.482  32.541  10.742
25534W        W97849   2.366   9.552  13.723
25535W        W97850   6.259  18.061  12.030
25536W        W97851  34.801  43.856   3.006
25537W        W97852  40.284  26.196  10.504
25538W        W97853  29.149  41.156  13.109
25539W        W97854  40.863   1.313  13.730
25540W        W97855  21.674  28.139   1.298
25541W        W97856  33.043  21.174   0.837
25542W        W97857   7.219  14.703  13.620
25543W        W97858  30.521  10.624  14.879
25544W        W97859  30.578  36.964   0.684
25545W        W97860   5.189  18.039  12.948
25546W        W97861  31.509  25.025   4.578
25547W        W97862  21.727   7.687   0.271
25548W        W97863  15.675   4.858   4.056
25549W        W97864   8.692  19.447  12.483
25550W        W97865  41.358  41.270  12.408
25551W        W97866  18.560  15.641   1.410
25552W        W97867  42.881  21.733  11.210
25553W        W97868  12.058  18.485  12.138
25554W        W97869  42.612  37.569   0.278
25555W        W97870   6.446  12.754   2.777
25556W        W97871  32.648  31.422   0.802
25557W        W97872  34.884   1.219  13.882
25558W        W97873  24.154  19.644  14.383
25559W        W97874  24.075  27.077   2.706
25560W        W97875  12.396  23.822   2.329
25561W        W97876  39.294  30.975   4.179
25562W        W97877  30.072  17.103  11.125
25563W        W97878   5.801   9.771  10.852
25564W        W97879  40.125   8.609  14.678
25565W        W97880   8.791  37.003   1.469
25566W        W97881  38.529  11.874  10.485
25567W        W97882  11.078  23.307  10.885
25568W        W97883  32.288  37.326   3.644
25569W        W97884  35.104  20.832  14.851
25570W        W97885   1.811  44.897   0.799
25571W        W97886  25.771  13.140   0.362
25572W        W97887  35.919  25.658  10.570
25573W        W97888  26.813  19.468  12.622
25574W        W97889  22.256   8.093   3.079
25575W        W97890  30.634  15.183   3.621
25576W        W97891  44.356  33.296  11.898
25577W        W97892   5.582  11.382  12.188
25578W        W97893   4.659  11.437   1.787
25579W        W97894  33.407  38.588   1.851
25580W        W97895  33.450  43.537  10.036
25581W        W97896  11.046  16.658   0.352
25582W        W97897   9.263  34.248  11.457
25583W        W97898   8.842  38.061   2.945
25584W        W97899   5.629  29.296   4.972
25585W        W97900  17.538   9.781  12.341
25586W        W97901  22.894  41.444  12.005
25587W        W97902  31.587   8.616   4.382
25588W        W97903   5.396  21.012   1.696
25589W        W97904  41.789  17.078  13.879
25590W        W97905  42.927  27.236   0.109
25591W        W97906  16.622  32.589  12.950
25592W        W97907  41.132  24.183  11.510
25593W        W97908   7.601  33.521   4.098
25594W        W97909  16.241   9.848   1.375
25595W        W97910   6.542  38.584   2.747
25596W        W97911  37.573  24.299  11.155
25597W        W97912  30.682  38.775   2.746
25598W        W97913  11.837   4.868  10.283
25599W        W97914  40.427  25.140  14.761
25600W        W97915  22.481  38.492  13.967
25601W        W97916  33.037  13.196   0.713
25602W        W97917  40.313  14.127  13.948
25603W        W97918  16.321  28.734  10.244
25604W        W97919  18.195  37.816   2.513
25605W        W97920  44.523   0.417   0.684
25606W        W97921  30.993  29.966  12.454
25607W        W97922   6.274  24.700  13.049
25608W        W97923  38.854  19.465   4.634
25609W        W97924   7.478   1.819  12.951
25610W        W97925   4.386  18.200  13.388
25611W        W97926  21.516  35.730   3.172
25612W        W97927  16.134  39.386   4.930
25613W        W97928  38.797   5.690   0.976
25614W        W97929  39.571  17.090  10.698
25615W        W97930  20.436  42.498  13.783
25616W        W97931  39.415  11.180   1.646
25617W        W97932  43.904  16.355   4.211
25618W        W97933   6.121  36.309   2.654
25619W        W97934  40.023  12.629   1.839
25620W        W97935  30.746  31.988   3.308
25621W        W97936  23.188  41.925   0.773
25622W        W97937  37.061  19.285   4.399
25623W        W97938   6.557   0.904   1.301
25624W        W97939  36.801   1.260  10.737
25625W        W97940  40.418  19.810   3.709
25626W        W97941  28.093  29.605  11.846
25627W        W97942  43.492  15.573  12.465
25628W        W97943  41.729   0.160  12.869
25629W        W97944   2.748   6.295  10.624
25630W        W97945   1.415  32.660  12.156
25631W        W97946  36.403  24.659   3.327
25632W        W97947  35.092  22.524   1.895
25633W        W97948   0.802  10.070   3.174
25634W        W97949  29.560   0.852   4.117
25635W        W97950  44.626  40.645   2.689
25636W        W97951  16.709  43.797   1.503
25637W        W97952  15.233  16.683  11.106
25638W        W97953   9.592   3.177  14.043
25639W        W97954   9.765  34.442  12.615
25640W        W97955  15.993  24.085  11.368
25641W        W97956   9.745  34.970   3.929
25642W        W97957  14.283   5.376  14.836
25643W        W97958  30.985  43.394   1.927
25644W        W97959  44.714   0.497  12.187
25645W        W97960  13.353   0.729  11.451
25646W        W97961  29.154  31.488   0.691
25647W        W97962   0.384   6.696   1.933
25648W        W97963  17.809  39.978  14.965
25649W        W97964  25.696   3.324  12.666
25650W        W97965  38.563  19.842  14.801
25651W        W97966  10.225  14.852   3.186
25652W        W97967  19.384   8.561   3.968
25653W        W97968  33.893  22.624  14.289
25654W        W97969  40.587  20.186  11.212
25655W        W97970  38.419  34.097   4.469
25656W        W97971  23.445   3.790   4.088
25657W        W97972   6.263  26.919  12.519
25658W        W97973  35.012  10.464  13.275
25659W        W97974  32.035   8.420   0.324
25660W        W97975  40.963   7.180  13.806
25661W        W97976  26.282  41.134  11.864
25662W        W97977  19.204  40.976   4.188
25663W        W97978  29.912  23.096   2.776
25664W        W97979  19.477  13.077  11.992
25665W        W97980  15.741  29.215  11.215
25666W        W97981  31.150  32.125   0.967
25667W        W97982  11.136  35.110   4.063
25668W        W97983  16.337  27.570  12.272
25669W        W97984   9.073   9.596  13.165
25670W        W97985  16.738   6.666  11.866
25671W        W97986  22.321  38.606  11.950
25672W        W97987  34.345  11.785   4.603
25673W        W97988  43.968  15.730  14.017
25674W        W97989  33.459   1.298  10.306
25675W        W97990   2.030  36.081  12.994
25676W        W97991  36.455   8.175   3.668
25677W        W97992  20.955   6.414  13.538
25678W        W97993  24.238  14.743   3.797
25679W        W97994  24.772  15.225  11.091
25680W        W97995  35.285  38.600   2.346
25681W        W97996  42.370   6.382  13.547
25682W        W97997  20.055  40.401   1.888
25683W        W97998  15.001  22.606   5.009
25684W        W97999  44.488  42.082  12.539
25685W        W98000  12.576  17.538  11.105
25686W        W98001  15.769  43.836   4.646
25687W        W98002  37.349  16.738  11.942
25688W        W98003  36.432  29.975  12.555
25689W        W98004  13.178   3.533   0.310
25690W        W98005  16.404   8.241   1.229
25691W        W98006  24.179   2.169  11.585
25692W        W98007  37.516   2.834  12.789
25693W        W98008  36.334   4.257   3.257
25694W        W98009  15.939  35.646   4.096
25695W        W98010  32.193   9.231   1.715
25696W        W98011  43.366  36.046  13.127
25697W        W98012  43.818  26.276   4.161
25698W        W98013  41.277  41.907   3.683
25699W        W98014   3.072  32.110  14.465
25700W        W98015   1.398  31.276   4.175
25701W        W98016  15.731  11.155   4.162
25702W        W98017   0.531   3.638   2.678
25703W        W98018   9.330  28.258  12.113
25704W        W98019  12.615  11.156   0.435
25705W        W98020   3.355  44.629  11.074
25706W        W98021  27.766  36.668  12.945
25707W        W98022  44.110  24.216  14.800
25708W        W98023  14.696   5.998  11.206
25709W        W98024  15.317  31.505   3.345
25710W        W98025   1.273  28.988  14.018
25711W        W98026   6.403  22.839   0.372
25712W        W98027  17.226  21.097  14.951
25713W        W98028  28.119  41.126   4.458
25714W        W98029  13.829  38.904  11.239
25715W        W98030  22.076  35.884   2.129
25716W        W98031  25.678   7.341  11.822
25717W        W98032  11.447   3.233  11.623
25718W        W98033   9.545  16.379   5.061
25719W        W98034  31.567  33.475   4.105
25720W        W98035  25.948  13.336  14.906
25721W        W98036  14.272   0.844  10.493
25722W        W98037  39.069  16.629  11.569
25723W        W98038  35.642  19.809  10.809
25724W        W98039  42.260  25.015  13.522
25725W        W98040  37.643  39.539   4.533
25726W        W98041   7.465  35.009   1.800
25727W        W98042  17.340   5.792  14.063
25728W        W98043  23.186  43.647  14.252
25729W        W98044  44.463  17.706   0.468
25730W        W98045  11.380  16.697  12.593
25731W        W98046   2.781  40.875  14.399
25732W        W98047  10.768  10.463   1.250
25733W        W98048  18.613  27.577   2.113
25734W        W98049  24.638  37.797  14.069
25735W        W98050  36.410   9.971  10.270
25736W        W98051  22.090   1.551  11.097
25737W        W98052   7.335   7.146   3.574
25738W        W98053  37.007  18.661   4.691
25739W        W98054   0.799  17.258  12.663
25740W        W98055  19.635  21.835   2.224
25741W        W98056  32.837  24.177   1.864
25742W        W98057  39.544   2.261   1.234
25743W        W98058  13.651  35.093  13.347
25744W        W98059  40.874  25.939  11.130
25745W        W98060  38.260  22.227  11.516
25746W        W98061  25.317  43.923   4.278
25747W        W98062   9.631  33.070  11.788
25748W        W98063  15.710   8.092   2.929
25749W        W98064   4.027  22.222  11.256
25750W        W98065   7.994  28.199   0.007
25751W        W98066  39.361  37.272   2.138
25752W        W98067  34.357   6.283  10.743
25753W        W98068  41.088   4.043  11.680
25754W        W98069   2.280  21.217  13.347
25755W        W98070  35.669  41.468  14.742
25756W        W98071  26.647   5.374  14.746
25757W        W98072  33.631  44.329  13.281
25758W        W98073   0.271  12.704  12.973
25759W        W98074  10.809  21.785  13.397
25760W        W98075   6.281   7.199   4.327
25761W        W98076   5.997   5.466   3.996
25762W        W98077  33.253  15.727  14.869
25763W        W98078  38.967  34.292  11.916
25764W        W98079  15.027  11.431   4.230
25765W        W98080  40.263   5.389   0.487
25766W        W98081  22.672  20.758   1.923
25767W        W98082  30.628  44.320  14.285
25768W        W98083   9.313   7.794  14.335
25769W        W98084  24.191  36.453  11.234
25770W        W98085  42.034  19.190  14.059
25771W        W98086  14.356  38.365   1.567
25772W        W98087  11.332  12.795  14.828
25773W        W98088   6.170  38.759   2.205
25774W        W98089  17.795  19.776  11.434
25775W        W98090  19.095  24.385  13.697
25776W        W98091  38.025  34.131   0.741
25777W        W98092  10.412  12.662  12.864
25778W        W98093  27.203  43.276   4.245
25779W        W98094   6.105  42.586   4.745
25780W        W98095  15.673   7.104   3.211
25781W        W98096   6.331  22.245   4.275
25782W        W98097  26.943  36.046   2.853
25783W        W98098   3.713  21.448   4.136
25784W        W98099  18.044  27.827  12.533
25785W        W98100  36.370   3.882   4.031
25786W        W98101  16.647  22.483   3.234
25787W        W98102  31.925  20.549  12.435
25788W        W98103  33.198  38.526  11.985
25789W        W98104  29.872   8.859  12.929
25790W        W98105  10.075  17.786  13.475
25791W        W98106   2.308  13.380  13.107
25792W        W98107  21.952  19.176  13.917
25793W        W98108  18.259  25.007   1.395
25794W        W98109  37.401  11.020   4.158
25795W        W98110  22.225  33.976  13.532
25796W        W98111   1.715  33.898   1.392
25797W        W98112  10.826  41.387  12.013
25798W        W98113  11.976   6.339   4.681
25799W        W98114  15.852  10.788  14.014
25800W        W98115  20.747   2.246  10.604
25801W        W98116   8.348  40.411  14.014
25802W        W98117  23.015  22.797   2.732
25803W        W98118   1.838  14.800   0.465
25804W        W98119  44.975  30.200   3.260
25805W        W98120  44.941  31.853   1.879
25806W        W98121  37.969   8.757   0.583
25807W        W98122   3.413  11.957  13.266
25808W        W98123  34.136  22.185  14.309
25809W        W98124  43.154  38.994  11.283
25810W        W98125  42.259  41.920  11.523
25811W        W98126  10.915  25.020   0.572
25812W        W98127   0.469  21.359   1.370
25813W        W98128  28.209  39.732   4.238
25814W        W98129  22.122  40.687  13.565
25815W        W98130  32.646  21.201  12.023
25816W        W98131  15.337  37.034  14.326
25817W        W98132  22.506  19.982  14.737
25818W        W98133  27.868  13.485   4.333
25819W        W98134  11.306  35.963  11.202
25820W        W98135  38.157  40.394  13.586
25821W        W98136  41.356  34.030   3.294
25822W        W98137  20.214  34.050  11.708
25823W        W98138   3.366  33.446  13.396
25824W        W98139  35.939  22.036   3.385
25825W        W98140   0.453  25.970   1.432
25826W        W98141  28.940  43.353   0.821
25827W        W98142  18.262   4.278   4.636
25828W        W98143  25.963  23.179  12.619
25829W        W98144  19.156  25.383  14.832
25830W        W98145  44.417  37.032  11.086
25831W        W98146  43.986  13.345   3.289
25832W        W98147   6.843  34.446   0.968
25833W        W98148  17.164  38.952  10.105
25834W        W98149  37.364  36.105  12.870
25835W        W98150  25.569  17.609   4.449
25836W        W98151  43.782  30.342   4.977
25837W        W98152  15.554  24.493   2.905
25838W        W98153   2.690  43.427   0.287
25839W        W98154   9.196  31.566  10.671
25840W        W98155  24.437  19.612  12.863
25841W        W98156  27.458   6.644   4.478
25842W        W98157  33.375   3.412   3.733
25843W        W98158  12.624   9.953   1.080
25844W        W98159  15.273  11.423   1.005
25845W        W98160  26.527  15.640   2.860
25846W        W98161  39.729  43.351   0.500
25847W        W98162  18.575  18.287   2.334
25848W        W98163  32.810  34.345  10.597
25849W        W98164   3.667   9.429   2.182
25850W        W98165  43.267  36.712   3.272
25851W        W98166  21.696  29.922  12.917
25852W        W98167  28.769  25.611   2.792
25853W        W98168  11.845   4.338  14.867
25854W        W98169  30.096  19.595   4.507
25855W        W98170  31.858   1.868  11.232
25856W        W98171   9.805  11.946  11.598
25857W        W98172   7.790  41.348  13.886
25858W        W98173  24.903   2.736   4.093
25859W        W98174  27.705   0.928  13.922
25860W        W98175  20.716  22.115  11.906
25861W        W98176  30.674   2.849   3.063
25862W        W98177   5.845  36.846   0.205
25863W        W98178  24.736   9.726  10.698
25864W        W98179  35.574  38.955  10.749
25865W        W98180   7.120  14.573  14.105
25866W        W98181  29.040  32.190   4.035
25867W        W98182  17.811  37.281   2.182
25868W        W98183  29.888  39.937  13.805
25869W        W98184  13.417  26.582   0.941
25870W        W98185   0.771  13.766   1.685
25871W        W98186  28.778  42.973   2.204
25872W        W98187  11.711  15.538   1.234
25873W        W98188  14.461   1.683  14.316
25874W        W98189  32.831  26.402   2.353
25875W        W98190   8.931  14.685   2.769
25876W        W98191  17.529  15.388   2.477
25877W        W98192   0.225  15.581  12.919
25878W        W98193   3.358  35.134  12.569
25879W        W98194  37.978  24.182   1.958
25880W        W98195  12.174  33.420   0.980
25881W        W98196   7.897  39.784  14.573
25882W        W98197  32.993   7.825   3.415
25883W        W98198  21.780  11.807  13.018
25884W        W98199  25.200  11.198   0.791
25885W        W98200  31.001  28.414  14.350
25886W        W98201   4.596  43.733  10.942
25887W        W98202  35.495  27.914   2.842
25888W        W98203  24.705  10.881   3.647
25889W        W98204  30.346  32.618  13.125
25890W        W98205   5.491   7.191   4.975
25891W        W98206  36.252  32.009  14.337
25892W        W98207  21.794  39.008  13.842
25893W        W98208   9.426   1.030   3.247
25894W        W98209  31.077  15.253   2.853
25895W        W98210  13.248  33.110   1.832
25896W        W98211  34.474   2.215  11.119
25897W        W98212  13.762  32.894  12.031
25898W        W98213  11.185   2.862  12.495
25899W        W98214  22.565   4.495   3.609
25900W        W98215  10.679   9.728   0.435
25901W        W98216   3.531   0.970   0.305
25902W        W98217  29.951   1.433  12.662
25903W        W98218  17.279  12.604  12.254
25904W        W98219  24.473  29.618  12.089
25905W        W98220  33.035  37.423   2.353
25906W        W98221   6.349   6.395  13.106
25907W        W98222  11.285   5.853   0.235
25908W        W98223  30.501   1.697  13.442
25909W        W98224   1.954  21.126  14.292
25910W        W98225  21.955  28.387  13.250
25911W        W98226  20.013  39.482   0.277
25912W        W98227   9.732   7.434  12.400
25913W        W98228  38.048  12.558  13.280
25914W        W98229  34.586  22.385   1.899
25915W        W98230  41.644  11.718   0.858
25916W        W98231   4.428  44.045   0.535
25917W        W98232  40.562   7.648   3.081
25918W        W98233  33.595  19.593   2.718
25919W        W98234  42.979   6.196  10.371
25920W        W98235   3.028   6.361   0.989
25921W        W98236  36.437  38.806  13.904
25922W        W98237  25.275   6.368   2.808
25923W        W98238   7.738   6.209  10.839
25924W        W98239  22.691  21.471   9.966
25925W        W98240  43.282   4.691  12.469
25926W        W98241  18.746  10.644  12.314
25927W        W98242  25.478  28.627  10.582
25928W        W98243  18.752   1.011   0.922
25929W        W98244  16.729   5.666   3.415
25930W        W98245  13.749   4.818   4.275
25931W        W98246  34.563  29.640  11.048
25932W        W98247  36.378  15.599   4.575
25933W        W98248   6.237   8.162  11.022
25934W        W98249  27.547   3.252  13.186
25935W        W98250  40.520  41.863  12.387
25936W        W98251   7.328  26.989   0.925
25937W        W98252  14.857  14.059  10.757
25938W        W98253  32.345  36.238  14.881
25939W        W98254  22.761   5.483   2.701
25940W        W98255  23.502  27.429   1.103
25941W        W98256  17.692   8.662  11.940
25942W        W98257  18.293   4.134  14.577
25943W        W98258  16.147   8.097   2.250
25944W        W98259  39.267   1.551  11.908
25945W        W98260  35.530   0.158   3.250
25946W        W98261  22.950  12.400  11.247
25947W        W98262   0.540   8.731   1.771
25948W        W98263  42.732   6.520  11.353
25949W        W98264  32.541   9.047  14.549
25950W        W98265  20.734   4.685   2.193
25951W        W98266  12.449  28.083  13.247
25952W        W98267  27.046  34.937  14.067
25953W        W98268  37.001  40.744  13.324
25954W        W98269  37.796  27.889   4.184
25955W        W98270  38.909  18.990   4.797
25956W        W98271   5.731  34.689   4.247
25957W        W98272   1.747  29.101  11.666
25958W        W98273   6.674  20.965   3.189
25959W        W98274  12.663   5.789  13.291
25960W        W98275  34.415  39.424   0.988
25961W        W98276  35.021  21.138   2.371
25962W        W98277  35.382   4.507   0.461
25963W        W98278  31.575  39.128  13.870
25964W        W98279  15.145  14.709  13.854
25965W        W98280  11.311  19.033   3.598
25966W        W98281  31.152  38.328   1.453
25967W        W98282  26.204   2.228   0.424
25968W        W98283  42.616  38.076   1.902
25969W        W98284  25.451  18.314  12.520
25970W        W98285  39.520  15.149   0.028
25971W        W98286  24.953  18.311   0.712
25972W        W98287  16.922   5.235   4.562
25973W        W98288   2.569  11.961   9.715
25974W        W98289  44.957  36.701   0.071
25975W        W98290   1.219  11.397   3.745
25976W        W98291   9.449  32.402  13.569
25977W        W98292  31.163  18.346  10.709
25978W        W98293  25.771  20.375  13.936
25979W        W98294   8.875  36.329   3.552
25980W        W98295  16.984  43.961  13.813
25981W        W98296  25.057  43.516   0.770
25982W        W98297  44.306  28.018  13.267
25983W        W98298   9.937   6.135  11.119
25984W        W98299  36.570  31.600   2.885
25985W        W98300  35.339  28.671   3.216
25986W        W98301   7.527  27.784   2.335
25987W        W98302   9.732  27.102  12.150
25988W        W98303   1.787  14.329  12.636
25989W        W98304  20.247  33.040   2.221
25990W        W98305  13.166  15.978   2.584
25991W        W98306  25.136  27.097  11.829
25992W        W98307  32.912  20.988  12.415
25993W        W98308  12.256  26.002   3.368
25994W        W98309  37.636  37.601   1.690
25995W        W98310  28.953  43.120   1.684
25996W        W98311  30.070  34.045  12.089
25997W        W98312   9.724   7.624  11.906
25998W        W98313   9.286  41.771   3.137
25999W        W98314   7.207  40.983   3.694
26000W        W98315   7.194  41.000  12.965
26001W        W98316  21.951   5.965   1.616
26002W        W98317  17.705   0.388   2.159
26003W        W98318  11.911  40.801  14.854
26004W        W98319  22.836  39.478   3.304
26005W        W98320  15.984   5.473   3.813
26006W        W98321  18.968  20.097  12.847
26007W        W98322  20.681  36.497   3.947
26008W        W98323   7.372  29.187   4.339
26009W        W98324   9.834   5.726   4.146
26010W        W98325  31.505  34.984   1.640
26011W        W98326  38.823  37.483  10.736
26012W        W98327  26.684  21.047  12.409
26013W        W98328  44.912   0.152  14.490
26014W        W98329  22.595  36.140  13.577
26015W        W98330  23.522  37.951   1.743
26016W        W98331  17.081  34.750   4.140
26017W        W98332  41.224  28.122   0.954
26018W        W98333  42.338  31.891  13.385
26019W        W98334  17.757  14.795   4.623
26020W        W98335  20.496  37.060   2.696
26021W        W98336  28.136   8.325  11.629
26022W        W98337  39.261   2.314  10.993
26023W        W98338  15.042   4.772   3.160
26024W        W98339   5.121  40.525   1.991
26025W        W98340  10.797  28.556   2.396
26026W        W98341   8.348  29.705   2.331
26027W        W98342  37.871  16.649   0.552
26028W        W98343  40.632  17.255  12.058
26029W        W98344   0.355  42.418   2.690
26030W        W98345  37.415  25.050  14.283
26031W        W98346  38.759  36.922   0.308
26032W        W98347   4.627   9.441  11.717
26033W        W98348  14.610  28.549  12.451
26034W        W98349  35.981   1.267   0.849
26035W        W98350  31.437   7.671  11.162
26036W        W98351  37.941  32.079   0.023
26037W        W98352  31.974  28.523   2.166
26038W        W98353  15.187  21.451  13.742
26039W        W98354  31.572  12.247   1.619
26040W        W98355  38.350  33.497  13.829
26041W        W98356   0.206   4.619  13.755
26042W        W98357  43.746  22.539   2.621
26043W        W98358  13.381  41.011  14.312
26044W        W98359   0.368  26.011  10.695
26045W        W98360   7.298   6.048  11.106
26046W        W98361   7.927  21.340  10.576
26047W        W98362   8.475  33.633   2.262
26048W        W98363  38.482  13.155   0.411
26049W        W98364   9.047  17.592  14.510
26050W        W98365   3.370  21.729  14.724
26051W        W98366  29.836   5.466  13.949
26052W        W98367  24.199  32.384   2.872
26053W        W98368   7.378  30.865  14.016
26054W        W98369  20.318  34.380   4.195
26055W        W98370  14.641  14.085   0.363
26056W        W98371  34.426   1.941   0.458
26057W        W98372  25.141  11.240   5.005
26058W        W98373  36.685   2.905  11.568
26059W        W98374  14.798   5.797  12.191
26060W        W98375  26.544  24.813  10.843
26061W        W98376  25.238  19.678  13.260
26062W        W98377  31.397  33.806  14.831
26063W        W98378  15.752  17.787   3.323
26064W        W98379  37.904   0.347   2.760
26065W        W98380  16.320  27.197   2.321
26066W        W98381  14.645  21.233   2.996
26067W        W98382  16.207   6.139  14.503
26068W        W98383  11.618  33.452  11.422
26069W        W98384   8.918  22.116   1.042
26070W        W98385  14.263  14.134   5.000
26071W        W98386  22.121  27.989  14.534
26072W        W98387  20.734  36.040  14.955
26073W        W98388  30.679  43.833  10.575
26074W        W98389  28.067  42.595  14.898
26075W        W98390   3.104  38.978  10.016
26076W        W98391  44.634  43.816  12.439
26077W        W98392   6.173   2.460  13.378
26078W        W98393   6.460  14.174   3.124
26079W        W98394   9.645  15.199  14.354
26080W        W98395  21.444  34.107  12.136
26081W        W98396   4.055  31.084   4.149
26082W        W98397  29.348  27.204  11.223
26083W        W98398   2.542  13.792   1.343
26084W        W98399   8.029  34.982   3.284
26085W        W98400  42.535   7.073  12.458
26086W        W98401  26.358  33.391   2.212
26087W        W98402  35.686  38.308   4.329
26088W        W98403  39.797   2.910   3.680
26089W        W98404   0.249  22.668   2.612
26090W        W98405  13.228  40.230  10.708
26091W        W98406  38.021  26.514   4.214
26092W        W98407  40.640   8.619   3.604
26093W        W98408  41.277   7.127   0.884
26094W        W98409  22.406   9.209  14.252
26095W        W98410  25.308  26.691  13.467
26096W        W98411  36.281  12.065  14.272
26097W        W98412  38.055  29.364  14.310
26098W        W98413  33.837  42.013   1.181
26099W        W98414  34.923  19.555  13.478
26100W        W98415   1.055   9.320   1.389
26101W        W98416  20.996  38.344  10.896
26102W        W98417   7.085  39.447  11.302
26103W        W98418   4.044  34.920   3.188
26104W        W98419  14.087   2.586   1.664
26105W        W98420  25.139  23.620   4.096
26106W        W98421  21.013   2.517  11.281
26107W        W98422  11.210  12.164  14.955
26108W        W98423  14.779   6.407   3.709
26109W        W98424   8.401  12.081  14.727
26110W        W98425   2.959  23.013   4.728
26111W        W98426  21.924  31.783   1.691
26112W        W98427  12.669   6.492   2.239
26113W        W98428  18.126  38.486   1.289
26114W        W98429  43.579  10.659   5.330
26115W        W98430  26.159  18.452   1.220
26116W        W98431  19.532   7.086  11.481
26117W        W98432  22.678  35.309  14.813
26118W        W98433  11.851  19.992  11.859
26119W        W98434  27.212   3.267  12.341
26120W        W98435  23.480   7.928  13.856
26121W        W98436  12.593  22.739  13.078
26122W        W98437  38.571   7.326  12.448
26123W        W98438  16.726   1.215   0.339
26124W        W98439   2.892   2.712   1.313
26125W        W98440   2.486  15.175   1.580
26126W        W98441  43.265  30.568  14.089
26127W        W98442  17.797  24.116  14.036
26128W        W98443   1.335  40.805  11.181
26129W        W98444  24.935  20.091   4.839
26130W        W98445  36.332  39.974   4.642
26131W        W98446  16.647  32.723   1.115
26132W        W98447  39.954  30.814  14.308
26133W        W98448  36.417  21.540  10.971
26134W        W98449   6.328  29.467   2.342
26135W        W98450   1.040   6.238  12.051
26136W        W98451  28.177   6.695   0.403
26137W        W98452  14.585  42.563   3.555
26138W        W98453  13.527  14.793   4.104
26139W        W98454  16.748  17.073  13.434
26140W        W98455  29.123  26.032   4.037
26141W        W98456  12.575  27.593  12.058
26142W        W98457   0.791  34.074  14.036
26143W        W98458   4.359  26.926  11.888
26144W        W98459  37.831  13.704   1.812
26145W        W98460  12.628   4.431   1.395
26146W        W98461   0.155  41.031  12.011
26147W        W98462   3.153   4.614  11.231
26148W        W98463  32.425   6.517   0.814
26149W        W98464  17.757  39.826  12.957
26150W        W98465  23.447  17.122  12.396
26151W        W98466   2.441  43.622  12.395
26152W        W98467  14.902  14.544  10.225
26153W        W98468  17.181  27.571   0.481
26154W        W98469  28.652  35.827  14.553
26155W        W98470  12.844  27.570  11.587
26156W        W98471  37.099  10.494  11.631
26157W        W98472  16.528  39.567  13.409
26158W        W98473   9.387  34.398   0.962
26159W        W98474  19.593  41.596   2.196
26160W        W98475  37.096   9.707  12.447
26161W        W98476  37.686  12.416  10.254
26162W        W98477  23.289   6.422  12.906
26163W        W98478   1.684  23.306   2.768
26164W        W98479  42.867   3.322  11.080
26165W        W98480   4.350  32.027   4.658
26166W        W98481  41.849   8.957   2.757
26167W        W98482  37.624   0.417   3.229
26168W        W98483  13.414  21.579   3.243
26169W        W98484  17.977  10.925   2.806
26170W        W98485  35.865  22.330   0.578
26171W        W98486  10.375  43.940  10.264
26172W        W98487  43.764   9.195   3.762
26173W        W98488   2.773  12.839  10.517
26174W        W98489  37.028   3.369   4.047
26175W        W98490   4.916  36.600  13.951
26176W        W98491  38.335   9.264  11.272
26177W        W98492   3.264  36.132   3.387
26178W        W98493  24.268  40.316  10.254
26179W        W98494   5.939  19.035  11.016
26180W        W98495  25.053   0.958  13.659
26181W        W98496  21.729  25.256   0.032
26182W        W98497   8.698   0.030   3.712
26183W        W98498   4.806  23.478  11.072
26184W        W98499   9.233  10.674  13.593
26185W        W98500  12.608  37.100  10.770
26186W        W98501   8.375  24.205   3.864
26187W        W98502  36.445  16.657   2.462
26188W        W98503  18.021   3.662   0.812
26189W        W98504  31.038  28.201  14.821
26190W        W98505  17.972  26.425  12.292
26191W        W98506  15.209  18.006  12.555
26192W        W98507  30.194  22.584   3.307
26193W        W98508  15.270  28.880   0.757
26194W        W98509  28.108  29.680   5.004
26195W        W98510  24.753  37.037  10.631
26196W        W98511   2.843  25.633   0.816
26197W        W98512   7.821  33.498   3.596
26198W        W98513  31.910  24.171   0.744
26199W        W98514  24.543  20.488   1.514
26200W        W98515  36.691  26.092  13.787
26201W        W98516   7.920   4.300  12.062
26202W        W98517  44.743  29.358   2.218
26203W        W98518  29.339  42.914  14.745
26204W        W98519  44.956   0.393  14.974
26205W        W98520  30.164  39.531   2.760
26206W        W98521  10.150  29.606   3.168
26207W        W98522   9.748  28.291  12.959
26208W        W98523   1.984  13.329  10.391
26209W        W98524   6.873  31.559   1.838
26210W        W98525   9.825  28.960   4.648
26211W        W98526  11.195  23.490   3.137
26212W        W98527  35.903  40.359   3.303
26213W        W98528   2.837  41.589  13.207
26214W        W98529  33.202  32.884   3.765
26215W        W98530   5.727  34.507   0.766
26216W        W98531   6.457   0.293  13.501
26217W        W98532  20.150  44.016   2.913
26218W        W98533  20.111   3.487  13.075
26219W        W98534  24.661  31.103   2.142
26220W        W98535  17.690  15.748   4.226
26221W        W98536   5.221  19.349  12.406
26222W        W98537   8.413  13.223  11.923
26223W        W98538  21.060   4.972  14.376
26224W        W98539  22.247   0.916   1.853
26225W        W98540  19.075   7.369  14.603
26226W        W98541  22.697  23.551   4.212
26227W        W98542  31.880  32.460   3.803
26228W        W98543  10.728  38.516  10.875
26229W        W98544  34.577  42.967  11.463
26230W        W98545  17.971  30.349  12.608
26231W        W98546  10.228  23.253  11.943
26232W        W98547  13.096   9.835  10.638
26233W        W98548  11.181  33.050  13.226
26234W        W98549   0.026  15.116  14.325
26235W        W98550  30.785  34.332  10.123
26236W        W98551  24.044  42.671   0.319
26237W        W98552  28.035  22.156   3.460
26238W        W98553  13.190  32.135  11.934
26239W        W98554  15.420   3.403   5.244
26240W        W98555  34.669  28.144   2.413
26241W        W98556  33.091  11.874   3.042
26242W        W98557  28.630   7.199   0.640
26243W        W98558  42.920  24.569  13.979
26244W        W98559  38.810   6.668  11.582
26245W        W98560  24.696  32.450   0.506
26246W        W98561  37.699  10.753  13.822
26247W        W98562   3.347  15.363   1.813
26248W        W98563  34.842  33.436   2.634
26249W        W98564   0.609  38.698  13.009
26250W        W98565  35.915  43.320   3.152
26251W        W98566  15.346  36.456   1.792
26252W        W98567   6.676  19.775   4.223
26253W        W98568   4.349  31.549   3.924
26254W        W98569  11.226  27.129   3.360
26255W        W98570  26.682  18.931  14.932
26256W        W98571  43.977  19.751  13.374
26257W        W98572  28.174  10.381  10.888
26258W        W98573  23.731  25.600  10.571
26259W        W98574  38.309   8.551   4.863
26260W        W98575   8.198  26.978  12.518
26261W        W98576  10.318  19.782   3.346
26262W        W98577  22.415  11.951   2.743
26263W        W98578  20.578  29.127   0.879
26264W        W98579  25.558  12.508   0.904
26265W        W98580  28.536  19.885   5.129
26266W        W98581  33.453  36.591   1.862
26267W        W98582  11.282   5.759   4.691
26268W        W98583  25.035  43.392  12.823
26269W        W98584  33.478  21.217   0.559
26270W        W98585   6.576  15.180   1.779
26271W        W98586  18.249  42.189   0.240
26272W        W98587  40.477  42.550  11.054
26273W        W98588  14.307  14.536  12.316
26274W        W98589  32.624  23.117   0.384
26275W        W98590   2.790  28.614   3.669
26276W        W98591  16.533  15.661  13.258
26277W        W98592  19.780   9.665   2.244
26278W        W98593  25.811   8.142   4.352
26279W        W98594  41.909  31.617  13.545
26280W        W98595  38.983  33.007  12.211
26281W        W98596  29.499  43.427  13.334
26282W        W98597  26.519  27.384   0.878
26283W        W98598  24.042  36.452  10.746
26284W        W98599  39.562  20.968  12.611
26285W        W98600  36.894  26.116   2.835
26286W        W98601   1.692  20.028   1.744
26287W        W98602  36.145  15.124  10.767
26288W        W98603  36.499  40.018   3.757
26289W        W98604  31.517  28.934  10.795
26290W        W98605   0.078  39.932  13.807
26291W        W98606   8.581  44.324   2.201
26292W        W98607  17.157  41.531  14.485
26293W        W98608  33.483   3.243  13.613
26294W        W98609  38.789  14.885  11.588
26295W        W98610  15.479  20.439  14.040
26296W        W98611  39.029   2.561   0.825
26297W        W98612  32.882  22.575   3.019
26298W        W98613  22.008  11.849  13.513
26299W        W98614   7.132   0.315  11.586
26300W        W98615  21.196   6.751  13.832
26301W        W98616  27.732  32.703  10.077
26302W        W98617  36.621   7.263   4.568
26303W        W98618   5.354  38.571   1.799
26304W        W98619  21.319   2.403   4.793
26305W        W98620  20.019  22.372   2.760
26306W        W98621  33.470  25.454  12.916
26307W        W98622  11.274  37.977   2.033
26308W        W98623  33.036   6.411   3.854
26309W        W98624  14.366   0.372   1.920
26310W        W98625  24.583   6.397   1.830
26311W        W98626  16.164  21.981  10.620
26312W        W98627  33.899  31.204  12.315
26313W        W98628  41.684  33.474  11.154
26314W        W98629  42.334  10.786  11.141
26315W        W98630   3.971  22.061  10.783
26316W        W98631  40.893  22.036   3.331
26317W        W98632   9.387  10.633  12.081
26318W        W98633   5.989  26.146   3.327
26319W        W98634  22.310  37.616  12.812
26320W        W98635   4.394  35.785   0.893
26321W        W98636   4.228   7.900   2.331
26322W        W98637  33.602  35.518   3.860
26323W        W98638  21.202  25.563  12.408
26324W        W98639  40.291  32.835   0.363
26325W        W98640  36.162  26.058  13.902
26326W        W98641  12.879  24.205   4.540
26327W        W98642  27.150   1.760   1.136
26328W        W98643  28.649  10.599   1.671
26329W        W98644  21.419  29.133   1.344
26330W        W98645  44.513  36.678  13.049
26331W        W98646  21.617  23.149  12.929
26332W        W98647  37.497  40.939   4.147
26333W        W98648   0.910  21.812  14.964
26334W        W98649   7.149  25.319   4.548
26335W        W98650  44.223   9.163   3.557
26336W        W98651  22.729  26.917   4.473
26337W        W98652  29.294  11.048   4.592
26338W        W98653   5.710  27.049  11.999
26339W        W98654  37.534   5.364   3.400
26340W        W98655  31.687  20.973   3.204
26341W        W98656  15.524  24.161  13.079
26342W        W98657  29.931  35.472  14.523
26343W        W98658  34.846  37.545   0.943
26344W        W98659  28.661  13.173  13.877
26345W        W98660  39.517  19.805   2.272
26346W        W98661  14.566   6.670  13.551
26347W        W98662  31.380  12.802  14.020
26348W        W98663   5.040  32.155   3.086
26349W        W98664  28.984  44.350  13.337
26350W        W98665  44.278   5.644   1.856
26351W        W98666  13.314  21.036   3.776
26352W        W98667  17.254  22.260   3.321
26353W        W98668  22.045  22.966   3.697
26354W        W98669  38.072  30.859  10.675
26355W        W98670  27.567  32.471  13.088
26356W        W98671  35.404  26.646   0.436
26357W        W98672  24.196  39.967  14.944
26358W        W98673  14.612  38.814   1.458
26359W        W98674  40.052  12.078  11.355
26360W        W98675  26.645  26.978  11.533
26361W        W98676  20.336  17.922  12.424
26362W        W98677   8.687   1.842   0.434
26363W        W98678  27.402  32.854   0.332
26364W        W98679  40.274  17.718   2.715
26365W        W98680   3.204  30.923   1.610
26366W        W98681  44.016  24.967   3.755
26367W        W98682   8.869  39.348  12.510
26368W        W98683   1.032  41.550   2.299
26369W        W98684  13.748  27.649  13.372
26370W        W98685  35.075  10.362   0.706
26371W        W98686  13.513  10.735  10.558
26372W        W98687   7.532  13.554   3.597
26373W        W98688   0.120   6.885   1.506
26374W        W98689  27.755   7.071   4.650
26375W        W98690  29.058  30.722   1.247
26376W        W98691   8.367  13.254  12.875
26377W        W98692  24.758  14.731   0.852
26378W        W98693  20.305  42.939   0.130
26379W        W98694  22.573  41.012  14.829
26380W        W98695  22.169  29.910   3.450
26381W        W98696  31.182   5.851   4.512
26382W        W98697   1.085  21.523  14.028
26383W        W98698   7.896  14.291   4.624
26384W        W98699  35.937  12.498   0.520
26385W        W98700  12.037  27.743   4.627
26386W        W98701   4.414   9.574  13.260
26387W        W98702   1.054  11.227   4.658
26388W        W98703   0.919  17.351   1.612
26389W        W98704  21.683  24.728  11.667
26390W        W98705  28.714  31.702   0.560
26391W        W98706  15.067   2.668  14.702
26392W        W98707  15.527  12.271   0.453
26393W        W98708  38.797  42.733  10.603
26394W        W98709  20.293  30.357  14.068
26395W        W98710   2.430  26.375  11.454
26396W        W98711  20.104  12.414  14.292
26397W        W98712  10.883   8.952  14.236
26398W        W98713  16.664   5.717  10.599
26399W        W98714   3.476  21.295   4.577
26400W        W98715  36.912  18.228  13.535
26401W        W98716  29.504   5.929  13.027
26402W        W98717  22.956  23.128  10.480
26403W        W98718  38.516  32.766  14.073
26404W        W98719   8.169  29.162   4.679
26405W        W98720  38.280  16.958   2.358
26406W        W98721  24.889  42.733   1.209
26407W        W98722   3.621   7.581  14.890
26408W        W98723   1.963  10.333   2.251
26409W        W98724   0.191  11.864  14.054
26410W        W98725  43.291  13.578  12.883
26411W        W98726  16.604  32.102   1.950
26412W        W98727   1.425  24.982  14.525
26413W        W98728  11.273  42.473   1.124
26414W        W98729  40.374  15.313   0.847
26415W        W98730  15.163   6.705  12.550
26416W        W98731   9.406  17.689  11.585
26417W        W98732  35.408   5.918   0.996
26418W        W98733  15.916  10.848  11.082
26419W        W98734   3.243  32.266   1.608
26420W        W98735   0.537  36.904   3.267
26421W        W98736  31.980   0.487  11.166
26422W        W98737   7.664  41.294   1.312
26423W        W98738  29.300   4.684  11.148
26424W        W98739  44.916  28.578   1.712
26425W        W98740   4.944  27.658  11.845
26426W        W98741  30.107   5.039  13.822
26427W        W98742  26.212   0.271  13.742
26428W        W98743   2.644  36.210   0.459
26429W        W98744   8.710  38.973   3.912
26430W        W98745  24.509  27.719  14.502
26431W        W98746  33.756  18.584   4.443
26432W        W98747  11.905  38.894  11.523
26433W        W98748  19.013  16.369  12.987
26434W        W98749  29.211  41.907   4.589
26435W        W98750  19.687  12.678   1.354
26436W        W98751  41.559  44.466   1.275
26437W        W98752  21.689  41.980  13.495
26438W        W98753   0.767  43.379  11.525
26439W        W98754  32.891  37.898   3.105
26440W        W98755  26.167   9.357  12.828
26441W        W98756  22.178   5.862   0.881
26442W        W98757   9.214  33.790  12.407
26443W        W98758  15.358  29.175  14.755
26444W        W98759   6.854  20.704   0.532
26445W        W98760  31.731  17.510  13.769
26446W        W98761  24.781   9.257   4.539
26447W        W98762  22.057  20.526   0.267
26448W        W98763  37.319  19.672  14.312
26449W        W98764  12.160  12.670  12.059
26450W        W98765  26.735   6.653   3.772
26451W        W98766  41.392  19.295   1.896
26452W        W98767  37.337  11.764  11.560
26453W        W98768   1.931  43.301   0.950
26454W        W98769   1.260  10.106  10.312
26455W        W98770  33.374  25.415  14.328
26456W        W98771  25.545  43.593   2.190
26457W        W98772  18.086   4.344   1.349
26458W        W98773  38.800   2.357   1.810
26459W        W98774   1.809  10.224   3.222
26460W        W98775  27.721  18.427   1.137
26461W        W98776  28.355  15.652  12.648
26462W        W98777  17.386  36.045   4.240
26463W        W98778  18.418  36.119   3.897
26464W        W98779  13.074  33.051  12.775
26465W        W98780  25.786  44.268  11.164
26466W        W98781   6.892  31.975  14.312
26467W        W98782  24.503  16.903   4.624
26468W        W98783   0.451  33.637   2.910
26469W        W98784  11.176  14.162  11.457
26470W        W98785   7.813  16.863   4.304
26471W        W98786  30.074  20.414   4.261
26472W        W98787  25.119   7.693   0.715
26473W        W98788  33.312   5.659   1.510
26474W        W98789  43.136  18.324   2.349
26475W        W98790  24.240  39.398   4.154
26476W        W98791  24.126  13.897  11.136
26477W        W98792   1.880  19.152   1.225
26478W        W98793   9.804  44.282   2.700
26479W        W98794  37.376   3.650   3.156
26480W        W98795  23.298  23.500   3.325
26481W        W98796  32.914  18.632   0.903
26482W        W98797  14.534  30.339   1.697
26483W        W98798   6.392   5.191   4.770
26484W        W98799  36.872  19.128  14.436
26485W        W98800  38.813  35.801   4.114
26486W        W98801   4.462  24.086  14.325
26487W        W98802  33.017  41.119   3.604
26488W        W98803  33.499  19.192  12.654
26489W        W98804  24.673  30.070   2.327
26490W        W98805  17.134   2.348   0.813
26491W        W98806  37.076   1.627  13.679
26492W        W98807  18.155   2.931   2.509
26493W        W98808  34.893  32.898   0.914
26494W        W98809   4.231  39.332  13.327
26495W        W98810  31.545   3.451  13.867
26496W        W98811   0.095  32.284   3.687
26497W        W98812  44.292   6.881   4.586
26498W        W98813   0.908  13.351  14.033
26499W        W98814  38.539  10.840   3.817
26500W        W98815  40.338  12.114   3.757
26501W        W98816   1.034  43.347  11.073
26502W        W98817  36.200  15.748  13.459
26503W        W98818  43.897  28.698   1.758
26504W        W98819  29.639  20.800   1.586
26505W        W98820   3.181  42.320  12.045
26506W        W98821  30.008   0.829   2.288
26507W        W98822  36.998  44.477  14.705
26508W        W98823  17.185  30.996  13.589
26509W        W98824  40.964  38.545   4.808
26510W        W98825  30.925  29.941   0.995
26511W        W98826  40.305  36.293   2.711
26512W        W98827   2.165  18.093  12.357
26513W        W98828  39.115  22.131   2.413
26514W        W98829  25.232   4.167  14.791
26515W        W98830  24.047  31.745  13.911
26516W        W98831  28.024  39.507   0.257
26517W        W98832  19.539  40.307   1.997
26518W        W98833  10.896   2.819  12.079
26519W        W98834  34.985  30.523  13.443
26520W        W98835  21.299  11.293  13.574
26521W        W98836  21.225  40.134  11.543
26522W        W98837   3.385  41.600   0.381
26523W        W98838  30.847  26.589  13.069
26524W        W98839  21.058   9.718  12.127
26525W        W98840  37.323   7.633   2.250
26526W        W98841   5.464  35.418   1.435
26527W        W98842  42.881  26.141   3.909
26528W        W98843  35.883   3.930  12.203
26529W        W98844  28.203   9.899  12.998
26530W        W98845  10.828  34.515  14.045
26531W        W98846  38.854  36.368  11.684
26532W        W98847  22.937  23.056  14.434
26533W        W98848   1.274   1.303  11.604
26534W        W98849  18.192  11.622  13.135
26535W        W98850  37.583   5.916  13.326
26536W        W98851   5.264  43.888   4.506
26537W        W98852   3.688  30.029  10.786
26538W        W98853  27.692   6.998  14.849
26539W        W98854  11.290  23.690  14.901
26540W        W98855  28.994   5.964   1.145
26541W        W98856  34.923  14.353   4.952
26542W        W98857  20.079  43.014   1.663
26543W        W98858   9.829  15.665  14.152
26544W        W98859   1.417  34.572   0.823
26545W        W98860  35.485  38.959   1.264
26546W        W98861  12.047  30.413  10.547
26547W        W98862  29.573   9.767   3.539
26548W        W98863  38.096  35.409   0.398
26549W        W98864   6.818   7.727   1.648
26550W        W98865   0.015   7.886  13.292
26551W        W98866  14.306  21.722  10.743
26552W        W98867  26.881  36.834  14.273
26553W        W98868  11.966   5.372   0.404
26554W        W98869   5.007  16.594   3.701
26555W        W98870  20.266  23.729  10.597
26556W        W98871  40.680   9.840   1.865
26557W        W98872  24.048  38.928   0.051
26558W        W98873  31.928  31.382  11.597
26559W        W98874  19.258  37.333   3.770
26560W        W98875  25.199  15.838   2.197
26561W        W98876  39.021   6.334   4.545
26562W        W98877  33.946  33.401   2.708
26563W        W98878  40.926  37.366   4.610
26564W        W98879  20.103  28.236  10.328
26565W        W98880  39.691   4.316   1.180
26566W        W98881  26.819   2.945  11.632
26567W        W98882  35.600   5.827  14.353
26568W        W98883  10.297  14.620   3.666
26569W        W98884  35.800  40.312   1.073
26570W        W98885  20.132  41.998   3.082
26571W        W98886  27.627  25.808  14.022
26572W        W98887  31.098  20.031  12.823
26573W        W98888  27.646  40.067  10.228
26574W        W98889  17.527  36.376  10.597
26575W        W98890  12.840  29.545  14.373
26576W        W98891  40.795  29.086  12.826
26577W        W98892  41.377  41.667   4.187
26578W        W98893  33.552  43.023  10.042
26579W        W98894  22.090  13.917  11.706
26580W        W98895  27.215  35.775  10.976
26581W        W98896  39.812  41.449  12.805
26582W        W98897  23.138   1.159  14.453
26583W        W98898  44.310  40.178   0.781
26584W        W98899  39.535  23.488   4.402
26585W        W98900  33.979  20.582   4.757
26586W        W98901  40.530  39.793   2.936
26587W        W98902  11.737  36.886   2.603
26588W        W98903  19.317  44.783  14.007
26589W        W98904  37.519   5.874  10.729
26590W        W98905  14.800   7.249   1.294
26591W        W98906  41.185   5.644  11.096
26592W        W98907  34.929  35.982   2.358
26593W        W98908  25.765   5.427   2.836
26594W        W98909  11.809  10.314  10.206
26595W        W98910  16.801  30.456  11.961
26596W        W98911   3.192  40.869  10.959
26597W        W98912  14.649  28.216  12.069
26598W        W98913  37.331  38.528  12.898
26599W        W98914  11.246  39.285  14.729
26600W        W98915  34.633  32.921  12.577
26601W        W98916  44.134  10.110  10.772
26602W        W98917   8.737  34.151  11.037
26603W        W98918  15.703  29.131   5.006
26604W        W98919  15.541  37.445  12.616
26605W        W98920  36.389  26.567   0.006
26606W        W98921  14.824  37.736  12.130
26607W        W98922  18.206  33.597   2.864
26608W        W98923  10.872  43.486  12.460
26609W        W98924  27.508   5.163   0.001
26610W        W98925   2.601  19.779  11.692
26611W        W98926  41.942  28.660  14.884
26612W        W98927   2.882  10.252  11.546
26613W        W98928  38.608  18.707   4.450
26614W        W98929  27.202   6.881   3.674
26615W        W98930  27.439  25.026   2.974
26616W        W98931   9.737  39.568   0.988
26617W        W98932  26.596  42.973  11.775
26618W        W98933   2.228  12.875   0.926
26619W        W98934  28.460  22.656  14.545
26620W        W98935  15.069  14.391  11.144
26621W        W98936   7.472   3.909  14.544
26622W        W98937  27.433  18.092  12.483
26623W        W98938   1.475   7.415  14.061
26624W        W98939   0.828  22.465   4.561
26625W        W98940  36.339  25.569  14.855
26626W        W98941  43.322  31.255  12.487
26627W        W98942  33.803   2.480  11.078
26628W        W98943  40.254  11.600  14.728
26629W        W98944  42.358  37.928   1.125
26630W        W98945  13.391  15.822  10.177
26631W        W98946   3.604  11.179   2.676
26632W        W98947  16.879  15.224   1.951
26633W        W98948  32.425   7.300   1.511
26634W        W98949   1.367  26.461  12.112
26635W        W98950  11.301  43.385  12.165
26636W        W98951  36.308  15.905   2.818
26637W        W98952  32.791   5.737  12.111
26638W        W98953  13.397  12.862  10.745
26639W        W98954   6.559  13.713   3.361
26640W        W98955  28.007  37.128  12.930
26641W        W98956   8.747  24.753   2.123
26642W        W98957  21.109  35.907  11.629
26643W        W98958  26.590  27.349   1.713
26644W        W98959  29.674  32.858   2.357
26645W        W98960  14.813  24.701  12.887
26646W        W98961  26.692  43.725   0.382
26647W        W98962  34.469  24.716  13.026
26648W        W98963  26.019  28.941  12.580
26649W        W98964  41.422  15.558   5.064
26650W        W98965  25.346  24.948  10.240
26651W        W98966  28.514  10.085  10.085
26652W        W98967  10.676   1.741  13.092
26653W        W98968  36.136   8.733   1.481
26654W        W98969  28.610  20.621   0.548
26655W        W98970   6.822  22.883  13.086
26656W        W98971  27.034  19.125  13.453
26657W        W98972  10.110   8.865   4.563
26658W        W98973  10.571  41.349  11.407
26659W        W98974  42.446  18.980  13.501
26660W        W98975  33.872   3.488  13.381
26661W        W98976  24.430  38.395   2.674
26662W        W98977  35.911  43.095   0.224
26663W        W98978  12.652  25.022  14.140
26664W        W98979   3.420   3.414  13.122
26665W        W98980  37.067  25.572  11.133
26666W        W98981  28.957   5.200   2.169
26667W        W98982  34.319  19.082   2.751
26668W        W98983  20.502  21.184  14.871
26669W        W98984  33.403   0.723  11.118
26670W        W98985  42.954  32.826  11.931
26671W        W98986  14.309  43.604  14.917
26672W        W98987  29.205  13.829  13.671
26673W        W98988  42.034  11.491   4.966
26674W        W98989  36.419  26.376  10.984
26675W        W98990  13.369  44.281  14.319
26676W        W98991  32.957  20.400  13.457
26677W        W98992  41.833  38.240  14.443
26678W        W98993  25.529  37.423  11.640
26679W        W98994   4.200  10.381   2.896
26680W        W98995  44.279   9.719   0.317
26681W        W98996  19.773  25.804  14.512
26682W        W98997  43.074  31.650   4.149
26683W        W98998   3.251  24.595  13.402
26684W        W98999  36.119  11.776  13.402
26685W        W99000  36.163  29.642   3.141
26686W        W99001  29.590  12.757  11.455
26687W        W99002  34.307  24.672  14.942
26688W        W99003  28.243  42.936  10.706
26689W        W99004  31.528  16.307   1.961
26690W        W99005  11.600  21.716   0.822
26691W        W99006  36.856  43.886   2.757
26692W        W99007  38.530  22.893   9.970
26693W        W99008  20.692  34.480  10.943
26694W        W99009  43.404  21.745  12.480
26695W        W99010  13.885   8.034  11.148
26696W        W99011   5.180  14.066  12.208
26697W        W99012  28.506  24.741   1.826
26698W        W99013  20.090  14.088  12.966
26699W        W99014   2.290  19.671   2.233
26700W        W99015   0.995  43.020   0.150
26701W        W99016  19.128  24.895  13.807
26702W        W99017  31.685  12.763   3.880
26703W        W99018  23.278  26.692  13.415
26704W        W99019  34.213  10.651  14.395
26705W        W99020  36.096  33.179  11.910
26706W        W99021  10.729  44.827   1.664
26707W        W99022  26.129   4.325  11.074
26708W        W99023   6.020  29.917  14.812
26709W        W99024   8.355  29.721   0.817
26710W        W99025  18.525  37.323  10.612
26711W        W99026   1.033  44.459   0.291
26712W        W99027  43.511  29.149  13.818
26713W        W99028  41.485   4.244  11.943
26714W        W99029  38.495  26.205  12.410
26715W        W99030  23.032   6.912   3.777
26716W        W99031  12.466  29.013  12.420
26717W        W99032  36.110   6.391  11.619
26718W        W99033   6.696  37.416  10.381
26719W        W99034  44.423  43.989   4.102
26720W        W99035   3.408  29.161   1.172
26721W        W99036   0.489  37.360   1.335
26722W        W99037   4.095  42.607  13.765
26723W        W99038  41.237  18.527   4.577
26724W        W99039  13.570   0.824   3.314
26725W        W99040   6.436  30.755   5.327
26726W        W99041   3.501   8.859  11.438
26727W        W99042  21.138  36.006   2.429
26728W        W99043   3.401  43.412   3.732
26729W        W99044  44.723  34.480  14.815
26730W        W99045  24.865  19.287   3.562
26731W        W99046  33.613  14.304   1.044
26732W        W99047  36.819  17.704  13.346
26733W        W99048   7.315  24.213  13.893
26734W        W99049  17.802   1.389  12.902
26735W        W99050  22.543  43.364  12.500
26736W        W99051  31.989  13.125   1.435
26737W        W99052  27.044   4.276   1.160
26738W        W99053  23.796  34.581  13.025
26739W        W99054  20.234  21.748  14.081
26740W        W99055  37.588  15.277  11.218
26741W        W99056  38.715  38.437  11.625
26742W        W99057  25.191  32.423   0.322
26743W        W99058  29.682  14.663   0.099
26744W        W99059   6.751  42.375   2.484
26745W        W99060  39.532   6.599   3.337
26746W        W99061   0.953  33.500  14.222
26747W        W99062  16.797  40.622   2.224
26748W        W99063  22.647  30.534   3.906
26749W        W99064  32.172   8.808   1.401
26750W        W99065  24.329  26.545   4.744
26751W        W99066  37.299  34.910   0.740
26752W        W99067  26.091  13.224   2.860
26753W        W99068  41.726  10.330   0.987
26754W        W99069  16.767  23.754  12.548
26755W        W99070  34.094   6.258  11.975
26756W        W99071  20.546  18.099  12.853
26757W        W99072  28.181  34.178   3.180
26758W        W99073  35.354  22.497  12.431
26759W        W99074  42.084  35.068   4.036
26760W        W99075   3.257  14.775   3.063
26761W        W99076   8.607  28.952   0.391
26762W        W99077  30.681   8.673  10.806
26763W        W99078  29.875  29.373   0.868
26764W        W99079   7.118  22.970  12.454
26765W        W99080  43.082  31.017   0.924
26766W        W99081   8.815  26.096  13.362
26767W        W99082   7.102  14.190  13.371
26768W        W99083  14.669   2.222   3.339
26769W        W99084  31.060   9.100  13.345
26770W        W99085   3.658  39.046   2.189
26771W        W99086  40.763  21.294   3.999
26772W        W99087  33.551  16.763  10.467
26773W        W99088  22.076  11.744   2.429
26774W        W99089  21.571  14.504  14.893
26775W        W99090   0.880  32.172  13.418
26776W        W99091  10.423  43.712  12.579
26777W        W99092  23.242  21.510  10.341
26778W        W99093  16.247  35.919  14.818
26779W        W99094  39.972  39.675  13.915
26780W        W99095  33.144  34.010   1.886
26781W        W99096   2.971   0.213   3.283
26782W        W99097  40.021  15.346  11.919
26783W        W99098  11.590  18.653  12.023
26784W        W99099  32.096   6.655  11.273
26785W        W99100  39.340  19.492  13.263
26786W        W99101  35.881  35.573  11.719
26787W        W99102   9.774  23.032   1.324
26788W        W99103   9.269  43.771   4.750
26789W        W99104  40.352  24.946   0.728
26790W        W99105  23.123  38.908  11.217
26791W        W99106   3.920  39.290  12.764
26792W        W99107  30.084  33.323  11.385
26793W        W99108  22.542  40.676   2.165
26794W        W99109  32.834  42.820   5.110
26795W        W99110  43.230  13.126  11.264
26796W        W99111  27.752  19.731  14.332
26797W        W99112  18.247  40.255   3.551
26798W        W99113  18.075  41.811   4.729
26799W        W99114  30.506  36.661  11.486
26800W        W99115  19.045  21.583  12.058
26801W        W99116  32.136   0.210   3.810
26802W        W99117  27.312  34.095   2.873
26803W        W99118  44.507  36.000  10.220
26804W        W99119   5.023  30.481  10.892
26805W        W99120  19.184  15.169   2.741
26806W        W99121   2.353  37.538  10.195
26807W        W99122   6.347   2.848  10.657
26808W        W99123  38.227  44.188  14.344
26809W        W99124   9.277   7.803   4.755
26810W        W99125  17.485  43.093   5.136
26811W        W99126  43.231  12.739  12.498
26812W        W99127   4.882  29.030  13.205
26813W        W99128  35.435   0.548  14.328
26814W        W99129  41.865   9.248  10.492
26815W        W99130  13.344  22.488  12.347
26816W        W99131  12.141  24.687   0.214
26817W        W99132   7.856   8.343   3.087
26818W        W99133  23.072   3.295  14.513
26819W        W99134  30.702  30.902  14.412
26820W        W99135  43.422   2.664  12.518
26821W        W99136  13.126  38.632  13.933
26822W        W99137   6.727  25.040  11.948
26823W        W99138  25.492  10.133  13.317
26824W        W99139  24.625  21.024  12.872
26825W        W99140   5.231  22.999   3.852
26826W        W99141  17.322  11.378  13.443
26827W        W99142  11.184  34.512   2.655
26828W        W99143  27.143  19.067   4.851
26829W        W99144   4.621  15.201  12.888
26830W        W99145  31.746   9.776  14.438
26831W        W99146  27.929  24.945  13.899
26832W        W99147  33.337  31.208   2.419
26833W        W99148  35.528  30.370  12.321
26834W        W99149  17.043  30.167  10.218
26835W        W99150  37.070  28.941  14.441
26836W        W99151   8.906   2.486  11.572
26837W        W99152  34.919  35.778  11.055
26838W        W99153   8.192  37.698  13.825
26839W        W99154  34.070  16.090   1.847
26840W        W99155   5.694   4.783   3.257
26841W        W99156   2.002   9.255  12.441
26842W        W99157  36.616  35.597   0.838
26843W        W99158   1.263   5.963   3.344
26844W        W99159  24.762   5.357  10.799
26845W        W99160  16.363  19.581  14.744
26846W        W99161   5.247  36.991  13.946
26847W        W99162  16.132  31.591   0.712
26848W        W99163  10.847   1.334  12.078
26849W        W99164  19.844  21.613  14.438
26850W        W99165  23.740  31.060  13.734
26851W        W99166  30.803  44.919  13.221
26852W        W99167  36.537  19.897  11.432
26853W        W99168  28.682   0.287  11.536
26854W        W99169  41.107  44.768  12.095
26855W        W99170  29.538  42.367   3.797
26856W        W99171  25.146   1.396  14.317
26857W        W99172   0.642  42.847   1.659
26858W        W99173  11.139  21.349  10.152
26859W        W99174  26.220   2.334  13.451
26860W        W99175   7.881  12.559  10.821
26861W        W99176  22.964   4.447   0.924
26862W        W99177  30.989  17.681   3.931
26863W        W99178   8.365  20.641  12.610
26864W        W99179  33.655  20.608  14.891
26865W        W99180  11.335  14.357   1.940
26866W        W99181  12.770   5.395   1.567
26867W        W99182  12.619   6.729  10.521
26868W        W99183  34.920  32.383   1.704
26869W        W99184  29.595  27.154   2.624
26870W        W99185   5.712   8.139  14.483
26871W        W99186  29.997   7.901   2.704
26872W        W99187  20.780  19.663  14.884
26873W        W99188   7.244   5.242   3.681
26874W        W99189  41.346  27.914  13.835
26875W        W99190  29.860  27.979  11.623
26876W        W99191   5.403   9.215   1.094
26877W        W99192  34.615  12.008  12.501
26878W        W99193  15.998  37.388   4.207
26879W        W99194  12.895   9.701   2.736
26880W        W99195  29.435  23.616  12.831
26881W        W99196  30.071  34.135  13.401
26882W        W99197  21.965   2.552  11.031
26883W        W99198  13.764  38.965   2.064
26884W        W99199  40.085  33.087  14.503
26885W        W99200  29.465  36.835  13.754
26886W        W99201   7.330  22.122   2.484
26887W        W99202  18.640  44.906  14.949
26888W        W99203  21.090  27.562   3.644
26889W        W99204  25.289   3.356   0.458
26890W        W99205   3.452  20.576  13.057
26891W        W99206   4.758   1.391   4.128
26892W        W99207  23.195  11.235  13.286
26893W        W99208  26.519   2.355   0.823
26894W        W99209  32.998   7.447  12.169
26895W        W99210   6.324  43.174   2.634
26896W        W99211  39.324  39.473  14.347
26897W        W99212  35.918  36.018  13.971
26898W        W99213   2.241  26.113   3.741
26899W        W99214  10.681  43.274   2.137
26900W        W99215  42.327  13.774   2.729
26901W        W99216  13.039  33.461  14.026
26902W        W99217  34.761  10.876   2.861
26903W        W99218  28.518   4.902   3.171
26904W        W99219  18.844  20.617  12.385
26905W        W99220  31.163   0.653  12.675
26906W        W99221  42.767  17.882  11.638
26907W        W99222  20.987  40.017  11.092
26908W        W99223  29.180  17.514  10.844
26909W        W99224  41.471  37.348   1.904
26910W        W99225   8.119  33.990  14.542
26911W        W99226  23.640  16.262   2.140
26912W        W99227   7.915   2.304   0.307
26913W        W99228  22.363  31.234  13.061
26914W        W99229  26.989  17.525   1.797
26915W        W99230  13.691  32.434   2.455
26916W        W99231  43.336  37.019   1.225
26917W        W99232   5.184   8.854   2.828
26918W        W99233  21.989  41.303  11.530
26919W        W99234  16.340   0.942   1.310
26920W        W99235  39.502   0.804  14.658
26921W        W99236  16.176  31.982   2.209
26922W        W99237  18.989   4.802   2.751
26923W        W99238  10.411  41.844  14.992
26924W        W99239  26.473  31.761  10.597
26925W        W99240   6.596   2.392   4.036
26926W        W99241  43.735  37.580   3.682
26927W        W99242  14.088   2.985   0.282
26928W        W99243  31.667  23.238   1.893
26929W        W99244   6.196  27.711   1.012
26930W        W99245  13.095  41.269  10.773
26931W        W99246  35.183  15.377   0.024
26932W        W99247  31.981  27.518   4.167
26933W        W99248  19.424  23.594  10.894
26934W        W99249   1.854  39.824   0.694
26935W        W99250  37.080   3.306  10.922
26936W        W99251  21.399  37.396  10.728
26937W        W99252  30.686   3.633   0.939
26938W        W99253  41.309  25.971   0.924
26939W        W99254  44.183  33.879  12.464
26940W        W99255  43.593  24.031   2.367
26941W        W99256  26.821  13.345  12.158
26942W        W99257  36.739  10.709   1.404
26943W        W99258   5.914  25.931   0.832
26944W        W99259   8.331  38.972  10.731
26945W        W99260  25.504  35.027   4.061
26946W        W99261  13.174  31.461  10.722
26947W        W99262  13.312  36.617  12.414
26948W        W99263  23.486   3.338  14.865
26949W        W99264  12.782  27.203   0.366
26950W        W99265  31.361  12.280   0.644
26951W        W99266  43.409  15.244  12.061
26952W        W99267  17.756  21.053   3.087
26953W        W99268  12.603  31.050  11.789
26954W        W99269  16.092   1.828  12.829
26955W        W99270  17.504  28.159  11.724
26956W        W99271   2.052  41.792  12.523
26957W        W99272  37.758  17.226  13.926
26958W        W99273  14.612   8.914  12.343
26959W        W99274  39.579  23.091  10.976
26960W        W99275  23.719  33.081   4.901
26961W        W99276   6.657   0.302  10.552
26962W        W99277  33.616   4.395   0.352
26963W        W99278  15.531  17.334  12.148
26964W        W99279  13.142  35.477   5.192
26965W        W99280   0.293  41.118   0.617
26966W        W99281  38.310  29.226   1.303
26967W        W99282  27.151   6.221   4.528
26968W        W99283   6.813  36.999  11.074
26969W        W99284  11.022   5.393   3.816
26970W        W99285  34.496   4.021   2.383
26971W        W99286  37.120  13.763   3.700
26972W        W99287  26.143  24.759   2.700
26973W        W99288  12.519  10.089  11.850
26974W        W99289  23.147  15.283   3.312
26975W        W99290  30.065  17.761  12.390
26976W        W99291  42.869  24.917  11.514
26977W        W99292   6.407  10.300  11.600
26978W        W99293  34.914   3.217  11.464
26979W        W99294  29.863  17.171  13.003
26980W        W99295   2.190  39.364  13.009
26981W        W99296  29.191  30.586  11.032
26982W        W99297  20.751  41.933  12.084
26983W        W99298   7.841  42.787  12.937
26984W        W99299   9.695  42.576   3.379
26985W        W99300  39.241  14.212  11.178
26986W        W99301  34.705  43.474   4.675
26987W        W99302   4.900   2.450  10.781
26988W        W99303  32.815  34.359  12.876
26989W        W99304   7.214  41.737  13.380
26990W        W99305  22.154  21.271   0.761
26991W        W99306  12.809  26.460   3.701
26992W        W99307  43.875  33.847  10.742
26993W        W99308   1.155  32.560   1.795
26994W        W99309   7.392  32.191  11.617
26995W        W99310   5.670  43.751  14.761
26996W        W99311  43.949  34.437  14.374
26997W        W99312   7.370  28.151  14.313
26998W        W99313  16.736  13.712  11.721
26999W        W99314  30.212  12.208   1.742
27000W        W99315  13.670  13.585   1.241
27001W        W99316  40.049   1.949   4.112
27002W        W99317   5.128  24.402   2.328
27003W        W99318  42.580  22.078  14.789
27004W        W99319  12.345  21.203   4.305
27005W        W99320  43.006  37.929  13.431
27006W        W99321  24.479  36.359  13.024
27007W        W99322   2.958  42.345   0.933
27008W        W99323  27.923  34.575   0.784
27009W        W99324  16.673  38.038  14.461
27010W        W99325  28.156  41.375  10.670
27011W        W99326  41.484  33.819  14.813
27012W        W99327  22.000  25.169   2.763
27013W        W99328  23.468  17.721  13.021
27014W        W99329  16.079  38.084  12.371
27015W        W99330  30.181  23.064  13.534
27016W        W99331  34.887  21.443   0.948
27017W        W99332   8.016  10.820  11.772
27018W        W99333  29.543   7.768  13.321
27019W        W99334  40.473  17.029  10.330
27020W        W99335  18.520   8.712   0.916
27021W        W99336  43.942  31.193   0.728
27022W        W99337   6.229  30.872   1.829
27023W        W99338  44.877  12.411  11.468
27024W        W99339   9.211   0.287   0.866
27025W        W99340  28.048  43.333  13.373
27026W        W99341  41.874  21.571  11.132
27027W        W99342  12.584  20.587  11.148
27028W        W99343   6.916  14.111  10.863
27029W        W99344  31.174  11.216  11.448
27030W        W99345  40.227  18.231  10.686
27031W        W99346  38.520  42.421   0.129
27032W        W99347  34.547   2.497   3.135
27033W        W99348  28.479  27.053  12.334
27034W        W99349  39.869  23.811  12.583
27035W        W99350  31.886  43.548   4.839
27036W        W99351  31.920  28.176   3.558
27037W        W99352  17.978  32.260   4.339
27038W        W99353  10.341   2.283   0.844
27039W        W99354  39.627  24.217   4.042
27040W        W99355  19.537  36.480   5.053
27041W        W99356  26.116  29.911  13.552
27042W        W99357  39.331  16.161  14.820
27043W        W99358  31.335  14.707  11.131
27044W        W99359  22.196  15.234  13.331
27045W        W99360  35.492  44.418   4.514
27046W        W99361   4.863  43.155  12.166
27047W        W99362  38.398  27.174   2.794
27048W        W99363  10.244  14.625   4.601
27049W        W99364  17.263  35.167   1.679
27050W        W99365   9.697  24.030  12.150
27051W        W99366  36.567   6.707   0.334
27052W        W99367  19.612  10.329  14.295
27053W        W99368  15.799  41.136   2.744
27054W        W99369  25.691   5.219  10.564
27055W        W99370  38.072  32.926  12.052
27056W        W99371  25.224  16.972   1.394
27057W        W99372  18.766   6.944   4.665
27058W        W99373   3.230  42.556   4.130
27059W        W99374   9.209  35.984   2.754
27060W        W99375  23.065  28.632  14.945
27061W        W99376  34.094  42.473  14.031
27062W        W99377  32.087  30.367   1.548
27063W        W99378  34.421  32.953  11.152
27064W        W99379   5.728  21.776  13.926
27065W        W99380  10.121  15.872   0.429
27066W        W99381  37.561  20.081  12.593
27067W        W99382   6.722  35.575  11.044
27068W        W99383  29.675  20.191   2.820
27069W        W99384  12.164  29.554   0.348
27070W        W99385  18.630  37.139  14.842
27071W        W99386  26.526  15.179   0.773
27072W        W99387   9.417   1.869  11.668
27073W        W99388  13.334  41.426   1.246
27074W        W99389  17.006  13.607   1.869
27075W        W99390   5.782   8.677   2.230
27076W        W99391  22.265  17.581  14.049
27077W        W99392  10.723  20.921  12.555
27078W        W99393  14.096  44.390   2.632
27079W        W99394  43.782  12.110   0.338
27080W        W99395  26.344   3.284   5.075
27081W        W99396   1.872  44.588  14.938
27082W        W99397  10.626  31.874   3.228
27083W        W99398  39.433  35.462  11.132
27084W        W99399   2.676  40.168  12.512
27085W        W99400  19.775  10.594   0.471
27086W        W99401   9.330  37.650  11.154
27087W        W99402  32.695   3.185   0.899
27088W        W99403   9.387  19.844  14.825
27089W        W99404  30.459  25.176  13.787
27090W        W99405  31.127  18.146   3.104
27091W        W99406  39.815  39.037  14.736
27092W        W99407  15.887  20.926  14.827
27093W        W99408  38.618  27.084  11.965
27094W        W99409   3.912  20.790  11.948
27095W        W99410   7.383  36.160  12.524
27096W        W99411  43.521  39.806  12.879
27097W        W99412   0.432   5.774   1.645
27098W        W99413   8.010  32.900   2.356
27099W        W99414  13.809  40.088  13.994
27100W        W99415  34.868  20.533  14.478
27101W        W99416  22.678   6.889  12.981
27102W        W99417   2.463   8.784  14.325
27103W        W99418  34.547  31.179  13.830
27104W        W99419  44.827  28.794  10.644
27105W        W99420  28.024  26.153   1.126
27106W        W99421  25.026  33.911  12.319
27107W        W99422  16.837   2.730  11.057
27108W        W99423  24.281  40.528  14.519
27109W        W99424  22.223  17.893   0.773
27110W        W99425  39.053  13.744  11.104
27111W        W99426  38.760   0.904   4.775
27112W        W99427  15.004  15.179   4.793
27113W        W99428   3.602  20.792   1.453
27114W        W99429  21.242  26.005  11.203
27115W        W99430  29.985  41.777  10.940
27116W        W99431  36.771  28.686  13.897
27117W        W99432  42.419  30.130   1.029
27118W        W99433   1.182  41.786   2.817
27119W        W99434   4.643   8.648  12.858
27120W        W99435  17.635  17.653  12.422
27121W        W99436  32.528  28.096  11.628
27122W        W99437  38.825  11.827  13.456
27123W        W99438  44.729  33.645  11.731
27124W        W99439   1.403  37.236   0.337
27125W        W99440  25.314   0.320  10.250
27126W        W99441   8.687  18.072  13.533
27127W        W99442  12.065  10.771   2.799
27128W        W99443   2.818  10.672  14.264
27129W        W99444  22.012  19.799  12.971
27130W        W99445  26.472  16.367   1.479
27131W        W99446  23.294  25.677   1.595
27132W        W99447  38.380  12.929   0.861
27133W        W99448  12.727   3.338   5.143
27134W        W99449   1.367  34.083  14.894
27135W        W99450  35.049  17.224  11.275
27136W        W99451   8.396  32.656   1.698
27137W        W99452  13.722  27.494  11.380
27138W        W99453  15.830  28.773   1.763
27139W        W99454  14.387  26.885  12.868
27140W        W99455  21.216  31.417   0.668
27141W        W99456  31.705   3.754  11.921
27142W        W99457  39.209  37.064  12.414
27143W        W99458  42.881  27.773   1.750
27144W        W99459   9.238  16.218  12.658
27145W        W99460   9.189  43.098   3.668
27146W        W99461  12.395  18.703  13.854
27147W        W99462  14.869  10.068   3.671
27148W        W99463  33.502  25.234   2.671
27149W        W99464  37.641  11.576  10.694
27150W        W99465   7.163  39.777  14.338
27151W        W99466   2.328  38.415   0.593
27152W        W99467   5.084  30.441  13.034
27153W        W99468  17.017  32.425  11.036
27154W        W99469  34.588   6.850  10.769
27155W        W99470  27.033   5.944  14.234
27156W        W99471  24.604  39.195  13.415
27157W        W99472   6.811  20.025   4.843
27158W        W99473  39.093  43.645  10.753
27159W        W99474   6.920   8.243  11.867
27160W        W99475  35.949  18.175   1.120
27161W        W99476  41.003   1.469  12.545
27162W        W99477   7.042  17.720   3.598
27163W        W99478  19.540  21.968   1.294
27164W        W99479  42.629  40.505   0.403
27165W        W99480  34.330   5.360  13.929
27166W        W99481  30.990  33.525   2.006
27167W        W99482   2.759  32.077  12.112
27168W        W99483  29.130  12.915  11.072
27169W        W99484  32.044  10.734   5.051
27170W        W99485  28.832  29.084   2.784
27171W        W99486  30.328   4.347   4.337
27172W        W99487  37.049  29.714   1.728
27173W        W99488   2.655  41.330  14.965
27174W        W99489   8.792  35.656   2.722
27175W        W99490  29.144  28.632   3.298
27176W        W99491   7.115  19.017  14.856
27177W        W99492  18.305  18.555   0.483
27178W        W99493  19.356  32.217   2.177
27179W        W99494  36.876  29.061   0.906
27180W        W99495  32.831  44.351  14.229
27181W        W99496  20.760  24.962   0.778
27182W        W99497   9.892  37.078   0.829
27183W        W99498  22.418   5.283   4.050
27184W        W99499   3.201  17.606  11.505
27185W        W99500  43.246   4.720   1.695
27186W        W99501  36.639  23.714  10.339
27187W        W99502  15.326  32.140   2.637
27188W        W99503  27.305  26.609  11.956
27189W        W99504  18.989   2.503  14.757
27190W        W99505  28.336  15.814   1.848
27191W        W99506  38.898  30.129   4.930
27192W        W99507  27.489  41.936   4.608
27193W        W99508   7.820  21.146  14.962
27194W        W99509  29.123  19.213  12.446
27195W        W99510  17.834  16.801   2.111
27196W        W99511  26.555   6.274  12.407
27197W        W99512  38.542  37.840   0.001
27198W        W99513  24.182   1.977  13.813
27199W        W99514  25.186  30.149   0.852
27200W        W99515   8.650  36.589   3.941
27201W        W99516   6.419  29.404  11.522
27202W        W99517   4.889  37.024   2.900
27203W        W99518  13.351  43.328  14.785
27204W        W99519  34.338  16.648   0.717
27205W        W99520  35.987  29.150  10.799
27206W        W99521   3.318   0.271  12.146
27207W        W99522  22.634  29.892  13.921
27208W        W99523   3.185   3.019   1.744
27209W        W99524   7.425  30.119   4.327
27210W        W99525  21.682  42.744   2.697
27211W        W99526   8.216  44.935   3.246
27212W        W99527  16.983  44.838  11.147
27213W        W99528  19.191  11.036  12.364
27214W        W99529  39.971  41.282   4.688
27215W        W99530   0.132  29.227   1.273
27216W        W99531   2.211   9.852   1.435
27217W        W99532  24.713  37.118  13.462
27218W        W99533  31.519   4.687  12.999
27219W        W99534   7.908  32.905  11.557
27220W        W99535  17.759  33.646   0.980
27221W        W99536   4.769  40.901  14.587
27222W        W99537  22.048   2.247  13.533
27223W        W99538  35.577   1.940   1.489
27224W        W99539   7.937   5.181   3.129
27225W        W99540  19.481  44.900  12.499
27226W        W99541  43.788  10.447  11.534
27227W        W99542   9.168  21.755   1.305
27228W        W99543  19.271  39.784   2.755
27229W        W99544   8.387  38.136  14.019
27230W        W99545  22.048  31.335  11.916
27231W        W99546   9.876   6.233  11.940
27232W        W99547   6.659  31.851  12.505
27233W        W99548  30.365   4.973  11.101
27234W        W99549  38.036  19.921   2.845
27235W        W99550  23.650   1.879  12.895
27236W        W99551   9.209   6.335   0.301
27237W        W99552  42.103  42.169  14.770
27238W        W99553  39.985   5.325  12.141
27239W        W99554  13.296  10.615   4.500
27240W        W99555   0.029   9.201  10.598
27241W        W99556  16.667  33.814  13.569
27242W        W99557  30.698  29.929   4.215
27243W        W99558  10.150  43.513  12.980
27244W        W99559  22.142  24.941  11.486
27245W        W99560  20.207   8.156   5.204
27246W        W99561  23.781  42.243  11.123
27247W        W99562  30.560  42.511  12.785
27248W        W99563  15.179   9.892  11.753
27249W        W99564  19.616  36.880  10.659
27250W        W99565   0.301   9.226   2.758
27251W        W99566  25.970  21.173   4.586
27252W        W99567  42.659  15.344   4.287
27253W        W99568  38.897   8.153  11.593
27254W        W99569  14.767   9.360   2.242
27255W        W99570  40.878  16.508   3.721
27256W        W99571  44.054  16.835   4.275
27257W        W99572  10.203  29.015  13.024
27258W        W99573  14.594  17.346  12.408
27259W        W99574  37.558   8.354  14.371
27260W        W99575   2.205   7.332   0.750
27261W        W99576  29.724   6.085   1.661
27262W        W99577   6.353   8.209   4.144
27263W        W99578  29.609  40.108   3.176
27264W        W99579  38.194  36.108  13.518
27265W        W99580   1.913  43.062  14.887
27266W        W99581   6.690   3.773  11.968
27267W        W99582  14.244   7.434   3.289
27268W        W99583  34.580   9.858   2.383
27269W        W99584  38.809  39.897   3.677
27270W        W99585   5.490  20.013  10.687
27271W        W99586   9.822  32.709  14.568
27272W        W99587  18.457   8.263  12.756
27273W        W99588  22.041  31.061   3.799
27274W        W99589  27.953   0.274  14.520
27275W        W99590  20.307  22.485   2.358
27276W        W99591  35.475  34.533   3.924
27277W        W99592   0.980  30.807  13.017
27278W        W99593   3.986  37.520  12.070
27279W        W99594  30.511  38.874  12.311
27280W        W99595  13.035  13.378   2.270
27281W        W99596  43.048  10.877   2.208
27282W        W99597  38.226  10.900  12.636
27283W        W99598  44.171  29.658  13.348
27284W        W99599  12.339  44.962  12.397
27285W        W99600  21.264  41.941   2.693
27286W        W99601  43.581  40.423   3.750
27287W        W99602  35.511  37.974   3.288
27288W        W99603  37.897   7.237   4.143
27289W        W99604  43.579  22.683  11.235
27290W        W99605   6.181  40.978   3.859
27291W        W99606  13.164  27.294  14.468
27292W        W99607   2.228  44.764   3.338
27293W        W99608  27.176  30.981  10.556
27294W        W99609  44.327   1.293  12.465
27295W        W99610  31.366   7.827  12.911
27296W        W99611  33.180  22.269   3.753
27297W        W99612  20.811   9.378  11.510
27298W        W99613  31.335  12.104  14.751
27299W        W99614  33.574  17.805   4.169
27300W        W99615  44.388   1.193  10.522
27301W        W99616  32.058  26.664   3.544
27302W        W99617  30.941  32.610  14.352
27303W        W99618  21.849  16.841  12.904
27304W        W99619   1.487  27.736   3.973
27305W        W99620   3.318  13.835   3.141
27306W        W99621  13.601  43.153  11.059
27307W        W99622  40.405  16.215   1.907
27308W        W99623  29.752  41.684   5.141
27309W        W99624  19.107  39.114  14.915
27310W        W99625  36.027  23.660   0.640
27311W        W99626  36.909  37.049  12.753
27312W        W99627  44.529  27.472  10.351
27313W        W99628   8.427  42.037  14.421
27314W        W99629  20.077  16.009   2.410
27315W        W99630  10.899  30.010  11.718
27316W        W99631  24.891  32.173   0.909
27317W        W99632  30.350  18.155   4.535
27318W        W99633  41.854  32.399   0.965
27319W        W99634   3.159  29.252  13.444
27320W        W99635  35.575  42.440   3.606
27321W        W99636   9.563  40.411   0.924
27322W        W99637  43.726   1.247   1.314
27323W        W99638  20.048  29.055  13.795
27324W        W99639   0.977  25.421   0.560
27325W        W99640   8.309  27.486  12.433
27326W        W99641   6.091  26.711  12.054
27327W        W99642  35.891  31.037  14.336
27328W        W99643  26.251   9.631   0.814
27329W        W99644  18.715   2.299  11.638
27330W        W99645  37.329   5.489   3.874
27331W        W99646  36.022  40.734  11.042
27332W        W99647   9.583   4.468  11.668
27333W        W99648  25.200   5.515  13.539
27334W        W99649  12.451  17.102  14.443
27335W        W99650  23.131  11.753  14.425
27336W        W99651  10.906  13.801   0.871
27337W        W99652  43.611  21.951  14.955
27338W        W99653  24.066   9.363  10.826
27339W        W99654  33.878  42.792  14.388
27340W        W99655  25.295  39.815  13.149
27341W        W99656   9.937   8.130  11.926
27342W        W99657  42.705  29.351  11.124
27343W        W99658   3.033  38.103   3.386
27344W        W99659  25.262   5.631   0.752
27345W        W99660  32.957  11.631   0.241
27346W        W99661  24.733  27.685  11.103
27347W        W99662  35.561   8.500   1.990
27348W        W99663  16.473  27.046   4.179
27349W        W99664  13.579  24.593   0.783
27350W        W99665  39.980   4.577  13.465
27351W        W99666  12.893  40.612  12.433
27352W        W99667  10.772  33.458   0.282
27353W        W99668   5.238  28.899  12.400
27354W        W99669  42.555  15.605  10.937
27355W        W99670  11.078  38.813  12.062
27356W        W99671   0.218  26.079   2.827
27357W        W99672  42.135   8.690  14.192
27358W        W99673  21.272  15.733  14.379
27359W        W99674  41.244  21.644  12.607
27360W        W99675  19.539  23.408  12.048
27361W        W99676  18.223  31.988   4.717
27362W        W99677   9.962  26.020   1.393
27363W        W99678  10.392   7.287  14.024
27364W        W99679  24.436  21.092   0.839
27365W        W99680  19.183  13.081  12.697
27366W        W99681   6.744  26.443  14.777
27367W        W99682  27.823  31.233  14.885
27368W        W99683  10.834  17.079  12.955
27369W        W99684  25.574  14.099  13.563
27370W        W99685   6.007  23.157   0.279
27371W        W99686  27.852  27.088   0.073
27372W        W99687  24.698  43.058   3.608
27373W        W99688  43.996  14.727   0.072
27374W        W99689  36.098   9.622  12.393
27375W        W99690  24.447  36.481   0.606
27376W        W99691   5.667  27.459  13.444
27377W        W99692  26.483  41.347   0.036
27378W        W99693  44.563  16.322   3.746
27379W        W99694   3.829  24.337   4.057
27380W        W99695  33.023  38.986  12.010
27381W        W99696  17.131  15.645   0.789
27382W        W99697  11.705  31.346  13.018
27383W        W99698   1.247  24.691  11.568
27384W        W99699  36.451  24.690  12.446
27385W        W99700  44.282   4.493  11.680
27386W        W99701  13.049  38.006  13.373
27387W        W99702   4.625   7.207  14.242
27388W        W99703  28.725  35.043   3.051
27389W        W99704  16.359  24.994  14.696
27390W        W99705   8.639  36.571  14.923
27391W        W99706  10.503   2.336   0.339
27392W        W99707  26.870  40.068  14.567
27393W        W99708  37.801  42.881   4.374
27394W        W99709  34.148  12.773   0.475
27395W        W99710  27.423  32.349   0.100
27396W        W99711  16.701   6.370   0.268
27397W        W99712  44.018  42.287  13.516
27398W        W99713  22.163  29.508  13.928
27399W        W99714  21.244  22.768   2.453
27400W        W99715  10.607  19.088  10.052
27401W        W99716  10.521   4.022  13.916
27402W        W99717   6.948   5.503   3.060
27403W        W99718  12.105   9.862   0.853
27404W        W99719  43.593  40.884  14.757
27405W        W99720  12.868  35.550   2.340
27406W        W99721  43.381  42.550   1.680
27407W        W99722  19.189  34.309  10.806
27408W        W99723  32.478  36.134   2.227
27409W        W99724   7.649   4.794  13.964
27410W        W99725  40.384  39.815  11.603
27411W        W99726  21.048  37.645  11.615
27412W        W99727  19.019  19.393   2.596
27413W        W99728  11.447  36.435  10.967
27414W        W99729  23.063   7.148  14.423
27415W        W99730   3.743   6.280  10.512
27416W        W99731  21.124  25.035  11.180
27417W        W99732  26.538  24.144   4.135
27418W        W99733  41.473   2.939   0.361
27419W        W99734   0.805   1.274  12.475
27420W        W99735  21.650   3.348  13.957
27421W        W99736  31.473  11.696  11.636
27422W        W99737   0.915  40.826  13.841
27423W        W99738  16.241  14.670  12.915
27424W        W99739  40.542  33.910   0.971
27425W        W99740  16.364  15.767   4.008
27426W        W99741  40.726  10.527  10.612
27427W        W99742  21.147  20.522  12.101
27428W        W99743  44.013  29.924   3.117
27429W        W99744   7.239  19.663  11.674
27430W        W99745  30.637  36.626  13.930
27431W        W99746  20.265  34.022   1.767
27432W        W99747   3.039   1.399  11.023
27433W        W99748  16.009  11.609   4.127
27434W        W99749  28.528  22.819  11.003
27435W        W99750   5.902  43.980   3.002
27436W        W99751   5.797  18.841   4.023
27437W        W99752   7.499  33.132   3.784
27438W        W99753  39.301  30.422  13.772
27439W        W99754   2.630   3.384  12.312
27440W        W99755  21.549  34.212   3.195
27441W        W99756  16.639  37.696   3.653
27442W        W99757  17.853  15.372  12.177
27443W        W99758  13.319   1.365   3.341
27444W        W99759  15.329  18.045  11.605
27445W        W99760  12.508  22.232  14.369
27446W        W99761  36.014  12.179   4.305
27447W        W99762  11.680  24.507  14.977
27448W        W99763  39.941  36.910   3.133
27449W        W99764  44.472  24.575  10.971
27450W        W99765  29.167  34.985   4.760
27451W        W99766  27.258  29.682  14.846
27452W        W99767  17.696  20.118  10.084
27453W        W99768  27.672   4.974  14.532
27454W        W99769  22.013  14.648   1.994
27455W        W99770  17.615  18.340  12.051
27456W        W99771  13.479   0.371  14.488
27457W        W99772   0.683  12.156  14.436
27458W        W99773  34.967  34.351  13.897
27459W        W99774   8.941  19.809   3.669
27460W        W99775  21.797  33.805  14.809
27461W        W99776   7.477  25.288   4.978
27462W        W99777  25.465  31.400   0.890
27463W        W99778  18.288  43.335   1.347
27464W        W99779  29.298  21.562  12.035
27465W        W99780  42.470   6.622  12.841
27466W        W99781   8.241   9.623   4.767
27467W        W99782  44.063  12.842   2.381
27468W        W99783  23.054  38.074  10.760
27469W        W99784  29.014  30.134  14.284
27470W        W99785   6.249  42.749   1.811
27471W        W99786  27.574  20.708   2.203
27472W        W99787  38.849  32.637   2.815
27473W        W99788  43.343  38.517   3.840
27474W        W99789   3.247   0.456  11.670
27475W        W99790  28.601   3.972   2.228
27476W        W99791  37.054  32.593   2.336
27477W        W99792   3.524  27.287  10.838
27478W        W99793  11.795  31.537  11.624
27479W        W99794  15.560  42.507   0.911
27480W        W99795  23.612  20.311   1.279
27481W        W99796   3.877   7.830   4.039
27482W        W99797  32.910  11.838   1.621
27483W        W99798  28.549   9.935   0.823
27484W        W99799  10.296  34.372   3.600
27485W        W99800  24.262  21.667   2.433
27486W        W99801   0.565  19.395   4.212
27487W        W99802  40.225  14.115   0.220
27488W        W99803   9.717  36.510  11.507
27489W        W99804  35.371  39.570  14.831
27490W        W99805   1.760  26.586   0.778
27491W        W99806  32.410  41.492  12.981
27492W        W99807   9.858  26.564   4.530
27493W        W99808  22.185  12.763   3.427
27494W        W99809  42.607  31.229  13.794
27495W        W99810   5.429  32.873  14.825
27496W        W99811  15.596  27.087  14.809
27497W        W99812  13.769  43.573   2.899
27498W        W99813   5.372  21.281  11.161
27499W        W99814  34.484  27.155  14.789
27500W        W99815  42.547  19.264   2.204
27501W        W99816  15.855   7.927   0.878
27502W        W99817  13.648  11.618  11.142
27503W        W99818  14.249  30.475   0.740
27504W        W99819  36.956  14.734  13.960
27505W        W99820  23.571  29.064  13.542
27506W        W99821  15.337   5.791  10.668
27507W        W99822  30.507  10.106   3.353
27508W        W99823  33.323  19.381   0.568
27509W        W99824  25.894  30.202   4.093
27510W        W99825   2.022  11.656  10.557
27511W        W99826  36.507  31.000   0.971
27512W        W99827  21.123  37.054   1.364
27513W        W99828  38.269   2.194  10.943
27514W        W99829  28.249  25.249  13.118
27515W        W99830  37.338  12.682  11.508
27516W        W99831  26.235  19.285   0.908
27517W        W99832   8.690  23.581  13.874
27518W        W99833   7.393  20.451  13.502
27519W        W99834  26.730  40.088   0.366
27520W        W99835  36.555  17.371  12.526
27521W        W99836  17.184   9.343  13.566
27522W        W99837  43.341   8.450  13.443
27523W        W99838  42.651   2.304   2.769
27524W        W99839   3.735  25.170  13.070
27525W        W99840   2.908  18.324  14.365
27526W        W99841  44.843  19.297   2.881
27527W        W99842  28.210  42.880  12.904
27528W        W99843  37.091  17.181  12.687
27529W        W99844  40.405  42.362  14.255
27530W        W99845   8.194  27.519  11.663
27531W        W99846  17.987  16.242   1.424
27532W        W99847   8.751  10.456  13.388
27533W        W99848  17.861   5.356   3.553
27534W        W99849  25.830   5.803  12.387
27535W        W99850   4.618  18.717  10.733
27536W        W99851  30.927  28.055   4.570
27537W        W99852  40.018  41.977   0.390
27538W        W99853  36.648  40.895   0.986
27539W        W99854  36.555  30.898  10.735
27540W        W99855  16.829  20.657  13.610
27541W        W99856  12.811  17.545  11.563
27542W        W99857   0.998   9.364  11.579
27543W        W99858  33.996  22.244  12.331
27544W        W99859  28.719  36.508   1.509
27545W        W99860  25.522  16.107  12.581
27546W        W99861   5.444  44.886  11.980
27547W        W99862  24.115  22.118   1.731
27548W        W99863  32.881  13.573  12.582
27549W        W99864  32.704   8.166   2.713
27550W        W99865  24.637  11.790  13.284
27551W        W99866  17.277   2.342  13.339
27552W        W99867  33.009  30.895   3.186
27553W        W99868   3.614   4.824   4.161
27554W        W99869  27.424  14.666   1.777
27555W        W99870  38.139  30.942  13.924
27556W        W99871   0.653   3.260  11.145
27557W        W99872  36.717  32.149   4.106
27558W        W99873  38.282  34.030  12.458
27559W        W99874  36.578   2.311   3.369
27560W        W99875  36.441   9.107   1.893
27561W        W99876   7.122  26.979  13.568
27562W        W99877  12.223  18.328   2.287
27563W        W99878  31.125  40.118   2.670
27564W        W99879  14.983  17.569  14.801
27565W        W99880  23.759  13.694  13.308
27566W        W99881  28.552  25.924   2.340
27567W        W99882  40.833  36.002   1.234
27568W        W99883  18.087   7.781   3.076
27569W        W99884  25.358  41.955   5.168
27570W        W99885  20.096  14.363  13.449
27571W        W99886  11.204  42.382   2.070
27572W        W99887  27.612   6.772   5.500
27573W        W99888  11.635   4.443   2.578
27574W        W99889  26.461  11.524   1.644
27575W        W99890  19.719   1.782   4.819
27576W        W99891  10.261  38.521  11.109
27577W        W99892   7.317   6.871  10.420
27578W        W99893  21.564  16.662  13.338
27579W        W99894  25.461  25.771   4.559
27580W        W99895  29.910  21.606  12.932
27581W        W99896   6.255  18.043  13.091
27582W        W99897   0.293  24.773   3.124
27583W        W99898   1.849  20.274  14.379
27584W        W99899  22.002  21.956   3.812
27585W        W99900   7.379  31.202   0.876
27586W        W99901  24.553  40.813   2.285
27587W        W99902  16.743  12.906  10.695
27588W        W99903  35.562  22.696   2.840
27589W        W99904  24.426  19.104   3.092
27590W        W99905  31.210  43.488  10.633
27591W        W99906  28.844   0.775   0.134
27592W        W99907  23.093  12.167   2.794
27593W        W99908   9.169  34.381   3.704
27594W        W99909  17.359  32.521   4.297
27595W        W99910  27.590   9.210   3.641
27596W        W99911  24.474  13.196  13.371
27597W        W99912   1.414  13.824   3.767
27598W        W99913  28.437  10.415   0.662
27599W        W99914   0.471  23.069  14.242
27600W        W99915  32.155  35.081  14.545
27601W        W99916  27.079  39.603  10.735
27602W        W99917  17.288  23.074   4.979
27603W        W99918   8.495  19.545   4.552
27604W        W99919  41.121  17.349  10.713
27605W        W99920  22.618  43.546   1.275
27606W        W99921  44.506  20.315   4.615
27607W        W99922  43.391  16.329   0.264
27608W        W99923  25.917  12.592   4.492
27609W        W99924  16.756  33.071   2.110
27610W        W99925  24.704  24.626  11.723
27611W        W99926   0.320  29.188   2.323
27612W        W99927   8.081  22.856   3.346
27613W        W99928  28.381   6.084  14.945
27614W        W99929  12.733  42.969   5.096
27615W        W99930  36.628  19.280  13.991
27616W        W99931  24.534  36.080   0.281
27617W        W99932  44.223   9.342  14.392
27618W        W99933  25.232  19.733  11.623
27619W        W99934  27.939   1.730   2.263
27620W        W99935  43.315  13.565  11.003
27621W        W99936  23.517  28.045  11.356
27622W        W99937  16.502  11.664  14.460
27623W        W99938   6.444   9.146   1.862
27624W        W99939  36.278  34.890   0.401
27625W        W99940  28.955  26.297  13.452
27626W        W99941  21.446  33.547   0.443
27627W        W99942   4.670  16.311   0.769
27628W        W99943  10.463  13.144  10.579
27629W        W99944  29.577  35.199   3.652
27630W        W99945  15.860  25.532  13.916
27631W        W99946  36.546  38.633   2.739
27632W        W99947  22.213  40.443   3.565
27633W        W99948  11.054  41.478   0.966
27634W        W99949   7.829  36.926  10.813
27635W        W99950  15.645  13.832   2.221
27636W        W99951  26.723   2.362  13.470
27637W        W99952   2.971  19.755  11.275
27638W        W99953  40.999  24.286   0.160
27639W        W99954  28.535  42.697   3.728
27640W        W99955  21.691  44.681   2.874
27641W        W99956  39.850  32.943  12.945
27642W        W99957   7.254  32.352  13.072
27643W        W99958   7.369  38.497  13.148
27644W        W99959  10.342   7.320  13.061
27645W        W99960  41.404  35.321  13.038
27646W        W99961  10.438   0.839  11.160
27647W        W99962  33.060  39.512  12.700
27648W        W99963  15.561  17.144   4.145
27649W        W99964  12.718   6.638   0.798
27650W        W99965  43.549  32.362   3.638
27651W        W99966  26.709   5.871  11.903
27652W        W99967  16.494  14.169  13.844
27653W        W99968  30.501  17.596   3.806
27654W        W99969  25.130  40.305  12.946
27655W        W99970  23.490  10.187  12.364
27656W        W99971  30.273  22.905   4.256
27657W        W99972   4.240   3.860  11.668
27658W        W99973  32.966  18.461   2.421
27659W        W99974  40.000  14.685  11.946
27660W        W99975   0.438  27.020  10.632
27661W        W99976  41.208  43.973  11.610
27662W        W99977  30.179  15.192  12.444
27663W        W99978  43.816  39.415   0.671
27664W        W99979   0.911  26.248  11.987
27665W        W99980  38.889   4.439   0.188
27666W        W99981  14.315  17.643  10.724
27667W        W99982  18.143  36.378   3.563
27668W        W99983  39.792  32.665  13.391
27669W        W99984  37.842  20.355  10.739
27670W        W99985  19.970  26.991  11.705
27671W        W99986  17.403  17.416  14.526
27672W        W99987   6.824  11.811  14.414
27673W        W99988  31.852  39.019  12.305
27674W        W99989  24.498  35.117   1.260
27675W        W99990   2.467   8.454  14.716
27676W        W99991  40.259  39.383  12.434
27677W        W99992  24.162  12.229   0.722
27678W        W99993  13.893  19.043   0.902
27679W        W99994  17.652  38.271   4.350
27680W        W99995   8.602  16.565   0.575
27681W        W99996  37.394  24.462  13.560
27682W        W99997   5.975  17.187   2.247
27683W        W99998  44.321  43.749   1.834
27684W        W99999  39.560  14.515   4.242
27685W        W    0  37.102  12.297   4.259
27686W        W    1  15.309   2.387   3.953
27687W        W    2   6.424  37.985   3.302
27688W        W    3  10.725  11.746  12.569
27689W        W    4  29.182  15.809  11.145
27690W        W    5  10.510  27.446  13.349
27691W        W    6  14.578  10.290  10.689
27692W        W    7  15.812  25.294   0.790
27693W        W    8  10.583  29.625   3.958
27694W        W    9  13.701   7.895   0.682
27695W        W   10  32.680   7.235  13.478
27696W        W   11   8.734  30.365   4.745
27697W        W   12  14.671  21.316  10.434
27698W        W   13  11.875  32.444   0.538
27699W        W   14  38.091  13.190  14.432
27700W        W   15  38.847   9.260  11.151
27701W        W   16   3.841  15.496  12.089
27702W        W   17  14.712   5.110  12.322
27703W        W   18  34.419  18.794   3.203
27704W        W   19   0.269   8.874  11.474
27705W        W   20  42.322  16.063  10.970
27706W        W   21  41.636  30.593   4.583
27707W        W   22  35.695   3.498  11.979
27708W        W   23   0.581  32.453  12.082
27709W        W   24  10.167  30.649   3.267
27710W        W   25  25.100   4.788   5.053
27711W        W   26  26.126  30.370   4.893
27712W        W   27   0.383  22.127   1.804
27713W        W   28  26.121   6.642  13.309
27714W        W   29   5.679  25.480   1.674
27715W        W   30  16.760  13.933  13.100
27716W        W   31  42.272   4.400   1.342
27717W        W   32   5.684  15.856   4.538
27718W        W   33  40.558  10.335   2.940
27719W        W   34   4.300  12.428  14.019
27720W        W   35  34.621  39.720   4.156
27721W        W   36  25.182   8.155  14.234
27722W        W   37  29.824  12.237   4.552
27723W        W   38  16.574   8.700  11.130
27724W        W   39  19.687  28.101  14.454
27725W        W   40   3.803  39.779  12.624
27726W        W   41  43.409   4.683   0.332
27727W        W   42  19.548   6.872  12.276
27728W        W   43  10.676   4.794  12.097
27729W        W   44  38.981  13.312   0.411
27730W        W   45  35.641   3.856   2.291
27731W        W   46  35.438  23.085  13.693
27732W        W   47  31.596  18.822   0.138
27733W        W   48  34.117   0.260  13.325
27734W        W   49  22.734  15.371   1.640
27735W        W   50  19.257  16.525   2.282
27736W        W   51  34.611  41.138   4.268
27737W        W   52  40.469   0.320   4.736
27738W        W   53  36.548  42.429   3.210
27739W        W   54  25.591  43.287  14.969
27740W        W   55   8.634  29.049   1.890
27741W        W   56   3.343  39.220  13.567
27742W        W   57  32.561   9.865   1.498
27743W        W   58   9.308  32.384  11.008
27744W        W   59  28.186  13.074  13.038
27745W        W   60  37.589  30.086   3.770
27746W        W   61  42.303  15.188  10.746
27747W        W   62  18.020  12.181  13.964
27748W        W   63  21.764   9.843   0.186
27749W        W   64  11.951  21.534  13.370
27750W        W   65  26.260   4.178  11.910
27751W        W   66  14.349  23.602   2.329
27752W        W   67  36.868  24.953   2.143
27753W        W   68   3.744  17.480  11.250
27754W        W   69   8.338  16.302  12.239
27755W        W   70  26.996  36.990   4.059
27756W        W   71  35.438  33.088   1.655
27757W        W   72  13.753   7.770  11.579
27758W        W   73  34.682  12.594   3.884
27759W        W   74   4.877  22.597   2.275
27760W        W   75  12.780  28.934  14.004
27761W        W   76  25.004  41.732   1.418
27762W        W   77  16.238   6.193   0.454
27763W        W   78  27.079  10.694  10.832
27764W        W   79  32.083   5.683   2.845
27765W        W   80   8.314  14.582   3.726
27766W        W   81  12.839  42.429  11.525
27767W        W   82  26.040  30.353  11.549
27768W        W   83  27.236  42.374   4.263
27769W        W   84  20.545  29.148  14.305
27770W        W   85  34.447  40.150   3.292
27771W        W   86  18.188  30.328   3.760
27772W        W   87  20.177  32.408  12.844
27773W        W   88  12.294  34.904   2.916
27774W        W   89  23.054  25.453  14.275
27775W        W   90  20.574   6.750   3.256
27776W        W   91  18.034  41.314   3.623
27777W        W   92  36.318  40.804  10.587
27778W        W   93  25.007  33.401  14.906
27779W        W   94  44.910  16.129  12.708
27780W        W   95  13.251  19.775   0.981
27781W        W   96  42.324  11.281   3.769
27782W        W   97   3.914  39.965   2.352
27783W        W   98  32.512  20.617  11.079
27784W        W   99   6.599  36.615   0.289
27785W        W  100  38.883   3.690  13.974
27786W        W  101  43.484   4.791   3.809
27787W        W  102   8.563  28.563   1.719
27788W        W  103  10.251  29.983  14.473
27789W        W  104   8.061  39.981  14.092
27790W        W  105  25.767  30.519   4.549
27791W        W  106  30.553  41.814  12.155
27792W        W  107  22.945  20.034  12.927
27793W        W  108  26.612  24.159   3.146
27794W        W  109   4.179   5.187   2.616
27795W        W  110  28.188  20.176   2.189
27796W        W  111  21.736   5.150   1.295
27797W        W  112   9.164  11.115  14.676
27798W        W  113  26.675  14.360   1.145
27799W        W  114   6.516  42.351  11.179
27800W        W  115   9.356  31.141   1.976
27801W        W  116   3.734  38.491   2.378
27802W        W  117   8.322  28.647   4.605
27803W        W  118   6.906  25.640  11.747
27804W        W  119  23.433  35.501  12.899
27805W        W  120  31.221  29.663  13.357
27806W        W  121  23.461  23.133  10.569
27807W        W  122   9.187  33.888  11.051
27808W        W  123  44.353  12.777   0.776
27809W        W  124  16.867  29.059  12.581
27810W        W  125   8.857  40.141  13.065
27811W        W  126  36.484  21.035   4.506
27812W        W  127  20.536  13.804   0.457
27813W        W  128  21.697  33.297  11.919
27814W        W  129  37.158   5.958  14.536
27815W        W  130  32.408  42.229  10.672
27816W        W  131  38.540  20.752   1.303
27817W        W  132  27.794   3.812   9.860
27818W        W  133   2.755  21.380   0.376
27819W        W  134  41.362  44.358  10.966
27820W        W  135  27.481  26.701  13.770
27821W        W  136  43.415  33.633   1.444
27822W        W  137  34.067  35.867  11.186
27823W        W  138  25.537   4.738  14.561
27824W        W  139  30.693  39.415  10.699
27825W        W  140   6.443  36.405  13.072
27826W        W  141  21.802  21.623  10.431
27827W        W  142   9.537  20.251  11.642
27828W        W  143  35.305  34.329   0.766
27829W        W  144  43.057  22.049  11.592
27830W        W  145  31.674  20.962   4.591
27831W        W  146   3.367  23.472   3.696
27832W        W  147  21.313  36.205  11.239
27833W        W  148  14.832   6.570  11.562
27834W        W  149  13.813  39.497   0.272
27835W        W  150  15.661  31.850   0.568
27836W        W  151  19.170  28.521  12.567
27837W        W  152  25.536   3.701  10.652
27838W        W  153  12.581  32.036  14.303
27839W        W  154   4.467  19.299  10.513
27840W        W  155  14.746  37.372  11.185
27841W        W  156  11.636  16.506   1.196
27842W        W  157   8.605  26.797  14.041
27843W        W  158  23.203  27.852   3.501
27844W        W  159  11.784  42.785   2.706
27845W        W  160  23.250  21.003  11.191
27846W        W  161  20.768   3.960   2.608
27847W        W  162  24.893  20.148   0.952
27848W        W  163  25.175  19.138  12.984
27849W        W  164  31.012  25.269  10.411
27850W        W  165   0.361  16.231   3.196
27851W        W  166  26.194  25.091  12.877
27852W        W  167   5.258  26.484   3.351
27853W        W  168  36.940  27.636  11.152
27854W        W  169  15.228  16.699  11.664
27855W        W  170  27.483  17.911  11.971
27856W        W  171  39.715  18.242   2.037
27857W        W  172  20.746   8.288   0.917
27858W        W  173   5.980   7.261  13.921
27859W        W  174  35.220  14.900  14.795
27860W        W  175  38.473   4.988   1.626
27861W        W  176  27.068   6.796  13.327
27862W        W  177   2.693   1.755   0.331
27863W        W  178  26.266   2.802   0.909
27864W        W  179   5.472   7.763   4.192
27865W        W  180   1.498  30.206   0.059
27866W        W  181  43.951   0.459  10.594
27867W        W  182  40.842  10.960   3.262
27868W        W  183   7.899  29.044  10.653
27869W        W  184   7.693  37.034   1.445
27870W        W  185  15.710  34.545   4.311
27871W        W  186  43.981   0.917  12.595
27872W        W  187  10.087   8.636  13.019
27873W        W  188  13.542   7.454   0.905
27874W        W  189  34.587  13.183  10.610
27875W        W  190  29.381  41.899  14.734
27876W        W  191   6.368   1.984   4.251
27877W        W  192  43.219   9.929   1.376
27878W        W  193   9.078  43.693  13.333
27879W        W  194  40.310  11.220  14.313
27880W        W  195  37.149  11.640   2.166
27881W        W  196  16.337  42.028  14.616
27882W        W  197  29.657  43.041   2.183
27883W        W  198   5.336  18.828  12.443
27884W        W  199  37.438  19.769   2.343
27885W        W  200  24.929   2.369   2.803
27886W        W  201  18.593  10.146  13.211
27887W        W  202   1.685  37.403  12.852
27888W        W  203  42.701  37.498  14.417
27889W        W  204  44.088  11.380   5.300
27890W        W  205  13.225  18.171   0.844
27891W        W  206  14.793  42.368   1.296
27892W        W  207  14.280  32.901  10.316
27893W        W  208   4.452   3.987   1.320
27894W        W  209  19.549  44.633  10.728
27895W        W  210  17.970  33.444   3.316
27896W        W  211  41.192   5.179   2.270
27897W        W  212  24.187   1.951  12.917
27898W        W  213  39.480   9.691   1.327
27899W        W  214   6.371  41.845  11.661
27900W        W  215   9.135  11.687   2.714
27901W        W  216   1.941  37.784  11.334
27902W        W  217  24.782   1.429   2.863
27903W        W  218   7.672  34.981  11.893
27904W        W  219  21.809  19.681  12.103
27905W        W  220   0.565  41.456   1.390
27906W        W  221  25.822  20.846  12.001
27907W        W  222  31.523  10.660  10.830
27908W        W  223  16.512   2.949  11.426
27909W        W  224  20.332  20.148  14.004
27910W        W  225  20.291  33.633  11.998
27911W        W  226   9.554   0.880  12.771
27912W        W  227   1.227  36.130   4.091
27913W        W  228  31.029  37.504   1.808
27914W        W  229  20.443  29.540   2.317
27915W        W  230  17.935  26.594  13.257
27916W        W  231   8.796  13.792   2.429
27917W        W  232  35.488  19.728   1.326
27918W        W  233  23.070  11.822   3.826
27919W        W  234   6.349  36.922  13.113
27920W        W  235  40.286  40.476   4.560
27921W        W  236  13.749  12.341   4.905
27922W        W  237   2.190  31.014   3.738
27923W        W  238   1.554  28.856  13.568
27924W        W  239  39.225  11.089  12.472
27925W        W  240   4.238  17.676   1.848
27926W        W  241  31.930  28.944   3.077
27927W        W  242  18.027  42.383  14.792
27928W        W  243   8.191  19.818  11.360
27929W        W  244  13.185   0.572   3.022
27930W        W  245   2.749  42.813   0.951
27931W        W  246  27.098  44.326  13.589
27932W        W  247  24.176  35.565   2.999
27933W        W  248  13.361  37.430   4.999
27934W        W  249  28.387  25.447  10.706
27935W        W  250  20.681  15.609  11.186
27936W        W  251  24.811  34.435  12.032
27937W        W  252  28.836   4.838   4.161
27938W        W  253  22.644  21.627  13.288
27939W        W  254  17.767  43.420   2.740
27940W        W  255  27.567   6.962  10.795
27941W        W  256  39.915  13.092  12.500
27942W        W  257  12.904  42.297  13.497
27943W        W  258  12.780  38.485  10.746
27944W        W  259  35.123  16.780   1.332
27945W        W  260  13.459  42.562  14.343
27946W        W  261  32.852  15.884   1.565
27947W        W  262   9.640  12.629   0.297
27948W        W  263   9.899  15.564  12.259
27949W        W  264  41.802  41.257   5.022
27950W        W  265   1.251  14.801  11.982
27951W        W  266  21.991  17.595   0.402
27952W        W  267   4.410  36.652  13.931
27953W        W  268  33.132  32.616   1.913
27954W        W  269  26.712  34.869  13.488
27955W        W  270   0.302  34.820  12.142
27956W        W  271  30.702  34.612   0.891
27957W        W  272  44.569  23.055   3.066
27958W        W  273  42.865  29.725  11.655
27959W        W  274  40.351   7.081  12.162
27960W        W  275  21.559  39.364  11.882
27961W        W  276  40.364  30.497   5.079
27962W        W  277  22.249  15.013   0.947
27963W        W  278   9.400   1.840   0.864
27964W        W  279   6.898   8.261   1.802
27965W        W  280  37.325  24.479   4.871
27966W        W  281  35.851  33.149   4.510
27967W        W  282  33.625  32.394   0.357
27968W        W  283   8.169  16.030  10.304
27969W        W  284  39.812  35.334  14.468
27970W        W  285  41.339  34.470   2.725
27971W        W  286  41.378  42.585  11.123
27972W        W  287  33.168  24.198  14.214
27973W        W  288  35.991  39.066  13.941
27974W        W  289  33.198   0.951   3.803
27975W        W  290   5.154  29.438  11.112
27976W        W  291  19.997   1.236   3.102
27977W        W  292  29.106  41.301   2.653
27978W        W  293  37.803   6.328   4.149
27979W        W  294  30.096  13.595   4.438
27980W        W  295  21.144  19.633   2.847
27981W        W  296  25.084  14.130  13.746
27982W        W  297  40.137  13.191  12.973
27983W        W  298  42.361  24.397  14.391
27984W        W  299  25.546   3.983  13.813
27985W        W  300  18.765   7.486  12.189
27986W        W  301  17.330  39.972   1.829
27987W        W  302  19.170  26.467  13.914
27988W        W  303  14.942  34.383  14.708
27989W        W  304   8.232   6.302  10.948
27990W        W  305  27.707  42.845  12.960
27991W        W  306  31.395  20.620   3.417
27992W        W  307  18.708  38.371   0.365
27993W        W  308  33.968  33.905  11.721
27994W        W  309  29.206   0.921   4.767
27995W        W  310  35.940  17.753   1.837
27996W        W  311   1.419  22.726   3.405
27997W        W  312  24.694  24.576   3.711
27998W        W  313  15.403   6.294  12.766
27999W        W  314  21.007  35.472  11.941
28000W        W  315  18.621  11.627   3.829
28001W        W  316  25.215  13.290  12.010
28002W        W  317  37.308  44.184  12.241
28003W        W  318   5.659  17.079  12.370
28004W        W  319  31.473   2.273   1.491
28005W        W  320  21.750   6.636   2.805
28006W        W  321  14.205  16.088  10.671
28007W        W  322  39.463  25.641   5.292
28008W        W  323  35.373  41.946  11.583
28009W        W  324  42.784  11.597  14.826
28010W        W  325  20.232  35.891  14.893
28011W        W  326  42.963  36.632  13.847
28012W        W  327  19.341   9.036   4.192
28013W        W  328   0.288  12.084   5.059
28014W        W  329   1.984  32.426  10.708
28015W        W  330  43.081  24.687   3.936
28016W        W  331  41.452  22.376   2.376
28017W        W  332  20.413  14.787   4.377
28018W        W  333  11.581  23.524   3.691
28019W        W  334  23.569  13.310  12.418
28020W        W  335   3.485  37.839  12.863
28021W        W  336  15.789   8.834  14.050
28022W        W  337   5.207  16.026  14.785
28023W        W  338  20.182  24.607  10.988
28024W        W  339   7.910   7.077  14.950
28025W        W  340  33.861  21.510  11.878
28026W        W  341  27.724   9.095  11.550
28027W        W  342  19.813   3.147   1.756
28028W        W  343  38.401  25.843  14.261
28029W        W  344  16.680   3.921  13.077
28030W        W  345  35.220  32.999   4.183
28031W        W  346  42.926  28.264   1.606
28032W        W  347  37.805  15.093  13.100
28033W        W  348  28.742  26.146  12.806
28034W        W  349  41.255  12.766   1.273
28035W        W  350  41.850  10.854   3.050
28036W        W  351  15.547  28.220   1.288
28037W        W  352  28.649  10.078   0.324
28038W        W  353  23.162  26.662   0.325
28039W        W  354  20.267  37.615  12.256
28040W        W  355  19.999  38.105  13.618
28041W        W  356  43.263  26.743   3.689
28042W        W  357  31.583   2.962   0.269
28043W        W  358  19.712  29.384  10.697
28044W        W  359  35.586  12.325  14.316
28045W        W  360  10.266  11.052  11.570
28046W        W  361  16.360  34.029   1.897
28047W        W  362  44.233  32.804  12.073
28048W        W  363   7.896  31.519  13.856
28049W        W  364  17.221  22.071   4.793
28050W        W  365  42.978   6.835  12.372
28051W        W  366   9.346  36.554   0.378
28052W        W  367  44.869  32.888   1.804
28053W        W  368  40.492  19.254  11.481
28054W        W  369  14.359   2.334   5.051
28055W        W  370  28.178  36.632  14.944
28056W        W  371  18.090   8.137  13.089
28057W        W  372  26.352   1.052  14.106
28058W        W  373  43.055  24.167   1.169
28059W        W  374   0.966  20.828   1.696
28060W        W  375  43.052  26.560   2.736
28061W        W  376  11.699  16.587   3.699
28062W        W  377  35.092  22.409   0.963
28063W        W  378  33.202   9.344   1.974
28064W        W  379   6.205  34.228   3.138
28065W        W  380  25.999  37.091   4.094
28066W        W  381  24.630  25.595  13.610
28067W        W  382  39.043  39.798   4.610
28068W        W  383  25.218   1.716   4.935
28069W        W  384  33.303  30.081   0.727
28070W        W  385  25.509  17.192   3.655
28071W        W  386   4.007  43.473  12.879
28072W        W  387  11.194  18.342  14.988
28073W        W  388  38.910  35.719  10.569
28074W        W  389  43.661  31.244   1.409
28075W        W  390  44.278  21.688   3.701
28076W        W  391  44.191  38.826  13.567
28077W        W  392   5.814  40.973  11.749
28078W        W  393  28.576  21.186  11.429
28079W        W  394   9.808   8.470   0.630
28080W        W  395  14.493  43.864   4.676
28081W        W  396  38.872  25.556  11.733
28082W        W  397  19.614  10.672   1.392
28083W        W  398  27.177   9.556   4.509
28084W        W  399  17.737  17.953   0.390
28085W        W  400  31.199  12.775   4.051
28086W        W  401  16.307  42.015  11.117
28087W        W  402  26.022   3.724  11.917
28088W        W  403  34.378   8.468  11.683
28089W        W  404  23.263  10.425   4.174
28090W        W  405  38.448  28.176   0.158
28091W        W  406  17.315  32.595  12.368
28092W        W  407  11.140  29.050  12.926
28093W        W  408   8.390   2.475  11.109
28094W        W  409   2.185  39.858   0.278
28095W        W  410  15.248  24.612   5.090
28096W        W  411  13.778   1.835   1.285
28097W        W  412  44.733  19.598  13.863
28098W        W  413  12.024  11.559  12.385
28099W        W  414  32.430  13.148   3.675
28100W        W  415  41.302  42.765   2.271
28101W        W  416  38.227  21.497   4.125
28102W        W  417  41.511   8.985   1.550
28103W        W  418  37.150   3.904   4.175
28104W        W  419  34.407  10.845  12.081
28105W        W  420  39.005  35.755  12.497
28106W        W  421  36.479  42.276   3.698
28107W        W  422  21.862  40.080   1.847
28108W        W  423   3.704  11.851   0.683
28109W        W  424  20.090   1.729  10.743
28110W        W  425   7.623   1.852  12.459
28111W        W  426  21.148  21.990  11.614
28112W        W  427  17.406  14.047  10.689
28113W        W  428  37.008  22.948  11.474
28114W        W  429  18.158   2.242  12.459
28115W        W  430   0.894   9.131   0.936
28116W        W  431  33.215  44.166  13.015
28117W        W  432  18.765  35.123   3.253
28118W        W  433  12.210  23.617   0.849
28119W        W  434  38.644  43.459   1.861
28120W        W  435  34.551  13.069   3.835
28121W        W  436  22.784   6.203  12.521
28122W        W  437  42.238  41.980   2.504
28123W        W  438  39.411   5.094  14.937
28124W        W  439  21.595   9.189  12.493
28125W        W  440  11.903  35.133   4.581
28126W        W  441  34.869  38.864   2.931
28127W        W  442  27.548  34.929   0.403
28128W        W  443   4.234  12.225  14.483
28129W        W  444  32.504   2.939  11.432
28130W        W  445  18.603  22.647   4.714
28131W        W  446  15.995  39.375   4.426
28132W        W  447  19.645  35.119  12.983
28133W        W  448  29.134   9.817   3.865
28134W        W  449   2.552  23.889   4.726
28135W        W  450  44.615   2.887   4.986
28136W        W  451   8.346  16.045   4.335
28137W        W  452  38.832   0.264  14.939
28138W        W  453  17.097  26.661   0.989
28139W        W  454  44.138  27.002  13.423
28140W        W  455  10.105  35.469   2.761
28141W        W  456  23.904  41.111   2.911
28142W        W  457  37.535  44.947  13.084
28143W        W  458   2.246   3.508   4.656
28144W        W  459  25.500  20.616   1.127
28145W        W  460  34.128  12.172  12.639
28146W        W  461  32.160   0.810  13.898
28147W        W  462  34.534   4.494  11.427
28148W        W  463  42.499  39.957  14.097
28149W        W  464   8.207  19.819   3.252
28150W        W  465  29.925   2.299  12.867
28151W        W  466  12.681  23.907   0.916
28152W        W  467  22.995  26.200  13.932
28153W        W  468  24.567  24.764   3.231
28154W        W  469   9.730  17.027   1.784
28155W        W  470   4.549  22.040  12.086
28156W        W  471  23.918  38.713   1.507
28157W        W  472  21.391  14.677  12.411
28158W        W  473  36.076  39.367   3.242
28159W        W  474  29.913  14.717   1.858
28160W        W  475  29.203  31.552  14.125
28161W        W  476  38.067  39.861   4.265
28162W        W  477  42.351  21.791  11.091
28163W        W  478  34.288  37.402   4.991
28164W        W  479  16.854  36.097   4.221
28165W        W  480   6.466  43.943   2.281
28166W        W  481  22.695  25.141  13.993
28167W        W  482  21.630  42.789  14.460
28168W        W  483   3.987  32.726  11.831
28169W        W  484  15.659  29.664   5.117
28170W        W  485   9.862  35.010   3.433
28171W        W  486   4.750  44.716  13.614
28172W        W  487   0.010  11.558   1.018
28173W        W  488  23.567   0.934  12.480
28174W        W  489  30.324  11.855  12.954
28175W        W  490  28.374  41.923   4.681
28176W        W  491  43.051  36.464  10.704
28177W        W  492  42.376  18.224  11.467
28178W        W  493  10.164  17.464  14.522
28179W        W  494  17.751  19.774  12.033
28180W        W  495   6.669   5.872  14.770
28181W        W  496  16.861  31.092  13.040
28182W        W  497  27.428  40.874   0.951
28183W        W  498  40.462  31.837  11.114
28184W        W  499   8.697  12.314   4.613
28185W        W  500  35.890  14.175   1.696
28186W        W  501   9.633  20.325   4.091
28187W        W  502  41.817  22.775  13.831
28188W        W  503  35.650   0.804   2.000
28189W        W  504  38.511  17.287  11.821
28190W        W  505  22.374   1.854   2.945
28191W        W  506  29.147  44.266  14.475
28192W        W  507  20.643  19.486  13.463
28193W        W  508  33.293  14.795  14.765
28194W        W  509  23.992  10.147  12.498
28195W        W  510  25.697  44.877   4.354
28196W        W  511  31.908   7.503   3.684
28197W        W  512  30.591  15.264   3.106
28198W        W  513  44.375  16.573   2.856
28199W        W  514  27.163  38.226   1.336
28200W        W  515  16.800  14.124  12.622
28201W        W  516  28.044   8.300   4.790
28202W        W  517   0.981  41.668  13.327
28203W        W  518  33.968   7.898  12.910
28204W        W  519  13.814  25.756   3.983
28205W        W  520  36.386  20.278  12.284
28206W        W  521  41.885  37.004   0.178
28207W        W  522  40.577  11.796   1.701
28208W        W  523  30.646  36.622  13.022
28209W        W  524   5.179  41.825  11.168
28210W        W  525   1.217  23.305  13.247
28211W        W  526  22.767  40.977   0.957
28212W        W  527  33.053   2.791   4.026
28213W        W  528  10.254  17.039  10.314
28214W        W  529   1.927  23.185  13.841
28215W        W  530  42.774   6.794   0.766
28216W        W  531  43.527   6.908  10.630
28217W        W  532  29.398  44.044   2.176
28218W        W  533   1.472  40.551   4.184
28219W        W  534  10.292   5.973   4.336
28220W        W  535  16.191  24.185   2.747
28221W        W  536  42.575  25.349   3.861
28222W        W  537  38.116  34.865  11.040
28223W        W  538  27.281  16.036   4.582
28224W        W  539   0.238  22.465  10.337
28225W        W  540  39.978  32.030  12.482
28226W        W  541  13.675  20.743   2.919
28227W        W  542  22.726  40.236   2.989
28228W        W  543   0.742  32.471   4.178
28229W        W  544  10.621   1.387   3.117
28230W        W  545  28.373  18.265  13.496
28231W        W  546  21.152   8.905  12.500
28232W        W  547   2.312  44.933   4.433
28233W        W  548  10.279  33.864   2.118
28234W        W  549  16.483  42.468   3.808
28235W        W  550  31.515  42.778  11.629
28236W        W  551  21.558  13.788   0.531
28237W        W  552  42.061  27.669  12.136
28238W        W  553   9.760  36.335   4.101
28239W        W  554  14.138  17.165   2.717
28240W        W  555  14.440  35.574  14.404
28241W        W  556  40.703   8.311   0.771
28242W        W  557  29.227  28.183   2.897
28243W        W  558  14.544  42.079  11.527
28244W        W  559   7.235   9.339   3.115
28245W        W  560  19.576  11.328   0.047
28246W        W  561   3.223  24.973   1.043
28247W        W  562  37.788  18.433   1.842
28248W        W  563  22.078  44.992   2.697
28249W        W  564  13.296  40.877  12.235
28250W        W  565  27.825  27.849   5.046
28251W        W  566  31.470   2.242   4.273
28252W        W  567  17.370  12.166   2.339
28253W        W  568  42.131  34.260  13.453
28254W        W  569  22.729  19.218   0.988
28255W        W  570   5.290  16.126   3.820
28256W        W  571  15.651  37.630   3.576
28257W        W  572  31.608  18.730   4.705
28258W        W  573  36.977  28.660   1.796
28259W        W  574  39.446  40.822   0.969
28260W        W  575  29.987  37.111  11.967
28261W        W  576  17.377   4.970  11.834
28262W        W  577  39.266   0.059   1.419
28263W        W  578  28.433  34.003  12.706
28264W        W  579  21.984  12.317  11.416
28265W        W  580  24.664  41.955  12.593
28266W        W  581  23.803  12.666  13.792
28267W        W  582   0.329   8.623  13.849
28268W        W  583  22.123  30.179   3.881
28269W        W  584  28.413  23.543  14.423
28270W        W  585  13.618  20.362  11.686
28271W        W  586  11.166  15.884  13.590
28272W        W  587  26.696  39.008   2.876
28273W        W  588  24.297  23.113   0.771
28274W        W  589  19.076  31.620   0.859
28275W        W  590   1.381  13.647   3.246
28276W        W  591   7.527  17.067  13.370
28277W        W  592   3.492  30.520   2.757
28278W        W  593  31.401  42.269  10.735
28279W        W  594   8.922   2.766  14.492
28280W        W  595  43.504  37.089   3.598
28281W        W  596  38.086  42.366   0.463
28282W        W  597   4.924  21.903   3.659
28283W        W  598  10.607  22.626   4.243
28284W        W  599  20.169  32.718   1.791
28285W        W  600  21.182  16.992   3.429
28286W        W  601  12.525  37.467   3.425
28287W        W  602  34.206   5.836  14.098
28288W        W  603  20.558  28.063   2.357
28289W        W  604  43.183   7.454  11.424
28290W        W  605  26.196  16.868  14.366
28291W        W  606  30.292  42.729   0.758
28292W        W  607  22.752  23.013   4.251
28293W        W  608   4.260  41.180   0.750
28294W        W  609  41.230  28.201  12.866
28295W        W  610  28.520  42.192  13.835
28296W        W  611  39.957   4.032  14.424
28297W        W  612  13.433   9.764  11.082
28298W        W  613   7.566  11.153  14.200
28299W        W  614  19.909  35.984   4.872
28300W        W  615  10.923  40.391   0.900
28301W        W  616  11.827   0.932   2.684
28302W        W  617  25.034  36.310   3.274
28303W        W  618  24.042  22.441  10.951
28304W        W  619  28.556  42.140  11.805
28305W        W  620   8.295   7.686  10.622
28306W        W  621  43.427  15.769   4.329
28307W        W  622   0.323   2.798   2.813
28308W        W  623  24.499  24.046   2.859
28309W        W  624   2.280  14.254   2.236
28310W        W  625  29.341   3.343  12.165
28311W        W  626  41.623  21.007  13.125
28312W        W  627  26.965  41.298  13.736
28313W        W  628  37.581  21.205  11.748
28314W        W  629  36.778  26.466   3.330
28315W        W  630  29.148  21.018   2.772
28316W        W  631  26.539   2.843  13.813
28317W        W  632  10.353  38.833  11.554
28318W        W  633  41.287  28.051  11.985
28319W        W  634  22.341  30.593  12.075
28320W        W  635   4.281  24.416   3.266
28321W        W  636   3.172   4.167  14.388
28322W        W  637  17.774  18.345   0.053
28323W        W  638  36.002  16.034   0.623
28324W        W  639  22.571  31.103   2.623
28325W        W  640  32.086   4.014  11.615
28326W        W  641   9.400  34.582  14.979
28327W        W  642  16.702  39.763   4.196
28328W        W  643  29.426   8.917  11.181
28329W        W  644   6.446  41.651   0.397
28330W        W  645  38.389  28.534   1.992
28331W        W  646  21.079  40.206  13.071
28332W        W  647   6.302  25.527   3.908
28333W        W  648   4.775  15.724   1.923
28334W        W  649  29.853  18.054  11.983
28335W        W  650  22.300  38.976  13.932
28336W        W  651  18.585   2.730   3.716
28337W        W  652   2.936  23.923  13.768
28338W        W  653  20.195  28.499  13.519
28339W        W  654  18.089  19.605   0.768
28340W        W  655  15.394  25.407  12.500
28341W        W  656   6.705  25.860   3.754
28342W        W  657  44.423   0.040   4.083
28343W        W  658  23.800  11.091  14.644
28344W        W  659  15.812  37.005  12.866
28345W        W  660  22.663  17.047  14.973
28346W        W  661   2.206  35.813   5.508
28347W        W  662  11.790  22.554   1.678
28348W        W  663  37.377   8.209   1.578
28349W        W  664  42.326  19.750   4.685
28350W        W  665  20.664   9.239  13.860
28351W        W  666  20.853  35.683   2.753
28352W        W  667  33.054  34.542   2.671
28353W        W  668  10.232   3.519   1.894
28354W        W  669   0.579  41.896  11.612
28355W        W  670  38.266  38.761  10.760
28356W        W  671   4.856   6.826  14.492
28357W        W  672  21.183  23.241  14.024
28358W        W  673  14.627  12.301  14.344
28359W        W  674   5.430   1.926   1.483
28360W        W  675  10.414  10.599   0.381
28361W        W  676   0.891  12.573  13.621
28362W        W  677  17.638  11.269   4.562
28363W        W  678  41.295  38.177   4.693
28364W        W  679   6.933  15.836  14.495
28365W        W  680  14.601  33.564  13.952
28366W        W  681  26.072  27.538  10.457
28367W        W  682  34.052  31.584   0.410
28368W        W  683  13.171  24.482   2.826
28369W        W  684  39.538  35.390   1.342
28370W        W  685  38.935  14.679   2.329
28371W        W  686  26.194  31.436   5.029
28372W        W  687  11.337  14.450   3.692
28373W        W  688  44.334  38.518  11.201
28374W        W  689  38.919  41.457  13.953
28375W        W  690  31.533  16.004   1.538
28376W        W  691  33.977  26.242  11.920
28377W        W  692   8.300  15.778  14.461
28378W        W  693  23.689   6.988  11.950
28379W        W  694   7.228  41.540   4.711
28380W        W  695   1.832  29.974   0.985
28381W        W  696  36.131  16.133   1.134
28382W        W  697  30.442   9.143  11.615
28383W        W  698  20.269  39.548  12.949
28384W        W  699  42.256   4.812   3.245
28385W        W  700   3.248   5.236  14.353
28386W        W  701  18.775  25.413  11.027
28387W        W  702  17.200  42.020   2.771
28388W        W  703   7.179  34.183   0.274
28389W        W  704  10.254   8.180  14.373
28390W        W  705   7.829  41.973   1.069
28391W        W  706   5.470  16.059   2.214
28392W        W  707  24.117  16.191   0.880
28393W        W  708  27.096   9.321  12.129
28394W        W  709  39.612   4.426   3.799
28395W        W  710  19.706  24.680   1.323
28396W        W  711  27.108   0.366  12.612
28397W        W  712   3.794  40.525   1.643
28398W        W  713  29.707  30.132   0.328
28399W        W  714   9.377   2.345  11.447
28400W        W  715   8.278  24.201  13.592
28401W        W  716  30.146  22.647  14.904
28402W        W  717  32.693  32.016   3.259
28403W        W  718   4.764  37.330  13.452
28404W        W  719  43.751  35.316   4.907
28405W        W  720  20.139  17.284  12.037
28406W        W  721  14.651   6.219   3.171
28407W        W  722  17.102  13.280   0.292
28408W        W  723  30.530  43.292  14.426
28409W        W  724  34.394  14.582   0.349
28410W        W  725  43.549  39.026  14.759
28411W        W  726  16.588  26.661  10.720
28412W        W  727  37.222  36.537  13.820
28413W        W  728  20.611   8.543  11.897
28414W        W  729   5.327  10.262   4.824
28415W        W  730  39.804  37.080  11.435
28416W        W  731  26.020  30.980  12.389
28417W        W  732   0.525  44.512   4.853
28418W        W  733  25.294  18.490   0.253
28419W        W  734  40.968  26.644  13.545
28420W        W  735   8.900   1.892  13.452
28421W        W  736  13.753  36.590   3.798
28422W        W  737  40.130   6.483  12.723
28423W        W  738  10.474  19.299   0.009
28424W        W  739   4.184  15.528  11.710
28425W        W  740   7.887  39.874   4.418
28426W        W  741  31.780  39.600   0.348
28427W        W  742   7.703  43.845   0.368
28428W        W  743  33.461  11.934  12.828
28429W        W  744  36.449   6.219  13.212
28430W        W  745  27.362  19.982   0.434
28431W        W  746  40.001  23.630   3.565
28432W        W  747  11.424   3.777  12.424
28433W        W  748   5.434  16.798  13.324
28434W        W  749   4.899  27.379  12.259
28435W        W  750  27.747   4.445  10.515
28436W        W  751  18.155  13.642  12.028
28437W        W  752  33.049  15.247  14.673
28438W        W  753  25.406  37.003   2.785
28439W        W  754  34.903  18.092  14.748
28440W        W  755  13.818  11.396   1.001
28441W        W  756   0.248  21.803   2.286
28442W        W  757  37.829  41.354   1.342
28443W        W  758  14.254  31.034   4.078
28444W        W  759  12.844   5.781  14.316
28445W        W  760  34.575  10.815   2.386
28446W        W  761   4.265  22.293   0.868
28447W        W  762   8.965   9.151   5.057
28448W        W  763  42.721  30.829   4.621
28449W        W  764  24.564  34.194   2.208
28450W        W  765  18.255  35.445  11.194
28451W        W  766  41.497  32.092   0.097
28452W        W  767  29.469   6.368  10.113
28453W        W  768   5.141  30.564   4.707
28454W        W  769  17.735  30.592  13.478
28455W        W  770   6.336   2.084  13.713
28456W        W  771  15.565  25.567  12.990
28457W        W  772  36.689  40.695  11.934
28458W        W  773  22.961  38.460   3.318
28459W        W  774  24.143  31.270   2.178
28460W        W  775  17.076  11.257  12.403
28461W        W  776  38.452  16.151  14.341
28462W        W  777   8.337  14.674   0.486
28463W        W  778   5.852  29.905   1.129
28464W        W  779   0.326  22.438  11.164
28465W        W  780  37.354  30.739  14.952
28466W        W  781  29.803  13.941   2.243
28467W        W  782  12.423  16.622  13.429
28468W        W  783  16.510   3.490  12.122
28469W        W  784  27.700  32.668  13.589
28470W        W  785  13.249   3.676  11.233
28471W        W  786  36.715  20.590   2.202
28472W        W  787  30.903   3.578  13.402
28473W        W  788  12.340  18.604   2.716
28474W        W  789  30.597  29.238   3.696
28475W        W  790  26.257  32.946   4.742
28476W        W  791   0.383   1.988   1.485
28477W        W  792  43.951  30.130  13.463
28478W        W  793  19.874  40.545   3.712
28479W        W  794  27.652  27.377   0.901
28480W        W  795   0.508   9.089   9.848
28481W        W  796  23.810  11.289   2.111
28482W        W  797   2.629   2.265  14.327
28483W        W  798  30.977   9.540   2.393
28484W        W  799  13.891  43.265  13.061
28485W        W  800  29.029  12.411   1.386
28486W        W  801   4.185  37.946   4.382
28487W        W  802   9.010  21.673   1.848
28488W        W  803  16.683  26.447  13.163
28489W        W  804  31.990  24.054   4.550
28490W        W  805   8.313  32.443   3.687
28491W        W  806   3.893   5.729   1.332
28492W        W  807  26.993  11.593  10.290
28493W        W  808  31.290  27.555  12.879
28494W        W  809  39.535  27.392  14.880
28495W        W  810  22.189  36.581   0.071
28496W        W  811  13.084   8.230   1.810
28497W        W  812  17.526  22.055  14.873
28498W        W  813  18.262  24.677   0.976
28499W        W  814  44.113  34.654  12.786
28500W        W  815  36.624  43.385  12.109
28501W        W  816   2.144  23.174   0.703
28502W        W  817  13.323  39.022   1.152
28503W        W  818  17.254  29.596  11.657
28504W        W  819  29.011   8.212  14.419
28505W        W  820  23.191  27.091  11.546
28506W        W  821  43.145  42.628   0.734
28507W        W  822  17.723   0.988   0.203
28508W        W  823  17.271  24.088  10.928
28509W        W  824  14.605   7.841   1.299
28510W        W  825  19.337  37.980   1.407
28511W        W  826  27.510  19.689  13.863
28512W        W  827  41.591  35.025   4.188
28513W        W  828  21.983  27.138  14.297
28514W        W  829   3.329   3.902  12.635
28515W        W  830  22.770  38.024  11.209
28516W        W  831  30.549  19.816  14.476
28517W        W  832  12.169  19.811  11.098
28518W        W  833  21.657  30.251   4.129
28519W        W  834  35.205  15.576  13.428
28520W        W  835  23.160   1.451  14.022
28521W        W  836   1.421  30.093  12.621
28522W        W  837  42.766  44.371   3.863
28523W        W  838  43.482  20.602  12.639
28524W        W  839  24.932  15.653   1.777
28525W        W  840  10.462  19.670  11.989
28526W        W  841  24.484   1.323  10.649
28527W        W  842  14.028   0.510  13.278
28528W        W  843  32.058   2.041   2.196
28529W        W  844   7.581   6.736   3.791
28530W        W  845  41.293  31.549   1.853
28531W        W  846  10.072   3.439  11.071
28532W        W  847  17.766  39.102  11.843
28533W        W  848   1.345  19.284   2.428
28534W        W  849  30.339   6.678  10.669
28535W        W  850  34.934  20.393  11.876
28536W        W  851   0.832   2.042   2.081
28537W        W  852  15.017  24.020   4.463
28538W        W  853  33.475   0.031   4.114
28539W        W  854  24.273  11.556  11.386
28540W        W  855   7.411  28.197   4.256
28541W        W  856   5.750  17.804   0.442
28542W        W  857  21.057   0.161  14.307
28543W        W  858  17.665  37.439   1.721
28544W        W  859   7.300   8.126   3.750
28545W        W  860  37.573  28.439  11.265
28546W        W  861  39.385   9.425   1.765
28547W        W  862  22.546   4.854  11.968
28548W        W  863  16.149  36.413   1.438
28549W        W  864  35.595  40.466   3.715
28550W        W  865  20.565  39.483   0.497
28551W        W  866  19.609   9.884  13.520
28552W        W  867   2.334  25.057  12.443
28553W        W  868  34.898  14.836   4.769
28554W        W  869  35.415  40.967   3.772
28555W        W  870  12.095   9.762  11.578
28556W        W  871  15.905  14.099  12.498
28557W        W  872  35.305  29.102  11.706
28558W        W  873  29.420   4.987   2.283
28559W        W  874  10.843  14.303  12.756
28560W        W  875  35.666  13.234   4.641
28561W        W  876  14.596   8.801  12.850
28562W        W  877  15.671  15.688  13.966
28563W        W  878  39.044  28.264  13.233
28564W        W  879  39.251  18.886   3.570
28565W        W  880  21.670  21.551   1.690
28566W        W  881  12.190  36.483   4.799
28567W        W  882  39.770   7.331   1.434
28568W        W  883  21.301   6.278   0.704
28569W        W  884  29.598   7.034  14.469
28570W        W  885  16.580  44.997   4.256
28571W        W  886   1.629  41.907   1.006
28572W        W  887  23.313  26.602   1.203
28573W        W  888   0.529  12.809   4.228
28574W        W  889  36.050  23.165   1.415
28575W        W  890  10.320  42.866  11.959
28576W        W  891  17.832  16.038  12.448
28577W        W  892  40.080  32.016   0.739
28578W        W  893  19.679  33.578   4.133
28579W        W  894  17.360  37.775  10.718
28580W        W  895  42.836  33.830   4.227
28581W        W  896   5.694  21.990   3.133
28582W        W  897  31.975  13.161   0.396
28583W        W  898   0.456  21.269   4.428
28584W        W  899  25.947  23.131  12.080
28585W        W  900  18.038  43.249   3.627
28586W        W  901  21.186   1.901  10.143
28587W        W  902  24.502  20.521  13.498
28588W        W  903  16.188  21.956   2.696
28589W        W  904  44.735  18.113  11.029
28590W        W  905   2.356  30.200   0.319
28591W        W  906  32.789  12.552  12.499
28592W        W  907  35.552   5.316   2.322
28593W        W  908  43.922   8.900  14.459
28594W        W  909  16.043  24.574  14.857
28595W        W  910  38.832   5.022   2.646
28596W        W  911  34.412   6.979   4.045
28597W        W  912  39.475  31.308  11.516
28598W        W  913  10.955  19.940   9.716
28599W        W  914  14.350   6.716  14.560
28600W        W  915  12.930  40.526  11.603
28601W        W  916  42.893  14.475  13.903
28602W        W  917   6.079  19.497  11.215
28603W        W  918  15.357  43.131   1.371
28604W        W  919  12.256  21.158   3.319
28605W        W  920  11.378   3.042  13.845
28606W        W  921  16.393  41.988   2.450
28607W        W  922  27.006   3.752   4.921
28608W        W  923  10.305  23.076  13.442
28609W        W  924   0.574   3.865   0.445
28610W        W  925   8.800  27.763  13.261
28611W        W  926  38.046  10.670  10.407
28612W        W  927   2.268  14.257   1.287
28613W        W  928  17.162  29.772   1.122
28614W        W  929  33.353  43.352   1.359
28615W        W  930  43.545  36.239   1.588
28616W        W  931  29.752  22.072   1.961
28617W        W  932  21.963  23.184  11.179
28618W        W  933   0.777  19.280   3.753
28619W        W  934  19.247  39.570  13.734
28620W        W  935  39.943  26.667  13.229
28621W        W  936  11.081  31.627   3.291
28622W        W  937  18.313  12.309  11.355
28623W        W  938  29.282  26.579  10.703
28624W        W  939   9.165  29.520  11.825
28625W        W  940   0.752  36.615   4.758
28626W        W  941   6.352  41.381  13.945
28627W        W  942  36.015   6.341   3.722
28628W        W  943  32.560  27.853   2.721
28629W        W  944  24.117  14.348  10.780
28630W        W  945  17.244  17.271   1.213
28631W        W  946  33.850   0.355   4.010
28632W        W  947  36.290  41.091   2.706
28633W        W  948  40.738  38.303   2.196
28634W        W  949  38.087   0.854  14.323
28635W        W  950  41.592   3.609  14.396
28636W        W  951   0.255  26.028   1.902
28637W        W  952   1.246   0.428  10.828
28638W        W  953  26.998  27.981   2.400
28639W        W  954  18.344  35.404   2.526
28640W        W  955  36.499  20.100   4.703
28641W        W  956   6.448  23.503   4.606
28642W        W  957  14.596  41.841   2.799
28643W        W  958  17.646  42.915  12.067
28644W        W  959   0.748  42.652   0.416
28645W        W  960  34.105  37.673  12.645
28646W        W  961   8.417   2.043   4.325
28647W        W  962  31.522  38.908   0.844
28648W        W  963  31.374  25.006  13.600
28649W        W  964  36.044  21.385   3.575
28650W        W  965   7.179  37.886  13.617
28651W        W  966  13.779  36.406   1.664
28652W        W  967  31.584  41.855   3.148
28653W        W  968  20.216  34.303  14.921
28654W        W  969  36.386  31.150  14.260
28655W        W  970  12.842   1.257   1.926
28656W        W  971  44.562   5.273  10.609
28657W        W  972  29.681  31.978  12.379
28658W        W  973  38.896  36.096  10.211
28659W        W  974  44.740  42.929  11.062
28660W        W  975  40.467  20.235  14.756
28661W        W  976  25.524  19.066  13.937
28662W        W  977  44.961  17.795   2.680
28663W        W  978  13.162  28.062   4.089
28664W        W  979  42.769  44.419   4.416
28665W        W  980  14.089  41.112   4.081
28666W        W  981  28.548  15.077   4.575
28667W        W  982   6.935  44.869  10.627
28668W        W  983   7.318  32.670   4.446
28669W        W  984  19.705  21.729   1.725
28670W        W  985  40.683   0.099   1.817
28671W        W  986  13.966  19.090  13.285
28672W        W  987  10.201  39.081   3.002
28673W        W  988  12.272  38.994   4.613
28674W        W  989  25.555  23.204   3.412
28675W        W  990  40.878  44.610   1.830
28676W        W  991  35.395  29.244  14.869
28677W        W  992  29.681  38.940  11.956
28678W        W  993  24.776  26.731   0.780
28679W        W  994  28.545  21.364  13.926
28680W        W  995  30.035   1.815   1.472
28681W        W  996  16.204  37.885  14.678
28682W        W  997  26.462  27.643   1.313
28683W        W  998  32.550  37.372  13.883
28684W        W  999  16.067   1.890  13.842
28685W        W 1000  10.877   8.857   0.285
28686W        W 1001  16.719  37.423   2.570
28687W        W 1002  16.736  35.912   0.765
28688W        W 1003   6.698  34.073   3.128
28689W        W 1004  38.126  24.973   1.766
28690W        W 1005   1.899  24.032  11.630
28691W        W 1006   2.030  36.621   4.336
28692W        W 1007  43.010  37.372   4.947
28693W        W 1008  44.383  18.173  13.411
28694W        W 1009  24.807  14.795  13.558
28695W        W 1010  26.417   7.929  11.581
28696W        W 1011  17.212  20.805  13.270
28697W        W 1012   9.884  17.072  13.806
28698W        W 1013  16.571  40.071  13.430
28699W        W 1014  27.778  13.249   1.620
28700W        W 1015  42.799  26.544   3.621
28701W        W 1016  18.672  32.825  12.446
28702W        W 1017  32.460   5.336   2.711
28703W        W 1018  44.732  15.739  13.033
28704W        W 1019   0.368  22.870   1.159
28705W        W 1020  20.211   6.424  11.580
28706W        W 1021  41.388  31.051   4.540
28707W        W 1022  19.094  10.685   1.292
28708W        W 1023  21.957   7.266  13.404
28709W        W 1024   1.280  23.101   4.590
28710W        W 1025  39.286  33.610  13.360
28711W        W 1026  26.703   3.730  12.494
28712W        W 1027  22.397  36.909   0.974
28713W        W 1028   0.759  36.914  10.119
28714W        W 1029  18.810  42.906   1.625
28715W        W 1030   8.565  25.945   2.702
28716W        W 1031   1.097  30.899   0.790
28717W        W 1032  35.462  28.055   3.819
28718W        W 1033  26.246  35.503  12.704
28719W        W 1034  34.465  35.216   2.316
28720W        W 1035  41.283  36.328  11.610
28721W        W 1036   6.124  13.344   2.408
28722W        W 1037  39.130   9.972   3.052
28723W        W 1038  13.351  32.528  10.678
28724W        W 1039  42.316  19.288  14.523
28725W        W 1040  24.112  39.272  13.565
28726W        W 1041  34.953  17.657   2.775
28727W        W 1042  36.030  17.739   0.270
28728W        W 1043  14.511  11.766   2.477
28729W        W 1044  44.357   4.500  13.345
28730W        W 1045  17.250  25.831   2.328
28731W        W 1046  23.744   3.978   3.730
28732W        W 1047  22.555  25.998  10.194
28733W        W 1048   2.389  22.459  11.221
28734W        W 1049   0.484  23.990   2.859
28735W        W 1050  29.659  11.578   2.886
28736W        W 1051   4.015  43.720  13.963
28737W        W 1052  10.605   5.288  10.737
28738W        W 1053  20.194  22.850   0.475
28739W        W 1054  37.917  22.900  11.702
28740W        W 1055  24.127  13.848  12.987
28741W        W 1056  15.906  26.181  12.052
28742W        W 1057  15.760  30.620   3.089
28743W        W 1058  41.922  21.861  11.593
28744W        W 1059  12.933  29.592  11.815
28745W        W 1060  35.130  42.798  10.626
28746W        W 1061  39.598  31.041  12.990
28747W        W 1062  16.214   6.183   2.246
28748W        W 1063  37.004  31.526  13.488
28749W        W 1064  18.122  44.492  11.947
28750W        W 1065   1.345  33.499   3.045
28751W        W 1066  12.499  38.394  14.496
28752W        W 1067  14.663  35.271   3.118
28753W        W 1068  16.846   2.139   1.180
28754W        W 1069   0.913  43.065   0.686
28755W        W 1070  11.273  40.772  11.169
28756W        W 1071   9.880  44.882   0.482
28757W        W 1072  40.178  19.334   3.704
28758W        W 1073   9.170   7.937  12.468
28759W        W 1074   3.302  10.824  10.589
28760W        W 1075  33.494  17.141   2.419
28761W        W 1076  32.922  22.252   2.393
28762W        W 1077  44.058   0.304  12.969
28763W        W 1078  32.586  36.824   3.649
28764W        W 1079  38.852  34.761  11.734
28765W        W 1080  19.069  19.077  13.936
28766W        W 1081  19.491  40.891   0.379
28767W        W 1082  24.967  15.605   3.101
28768W        W 1083  20.217  41.441   1.393
28769W        W 1084  29.057   1.016  14.178
28770W        W 1085  27.193   9.935   1.031
28771W        W 1086  37.374  18.194  11.055
28772W        W 1087  27.564   6.838  10.314
28773W        W 1088  25.648  23.035   0.279
28774W        W 1089  19.116  25.974   3.836
28775W        W 1090  31.789  26.900  11.219
28776W        W 1091  34.673  20.084  11.072
28777W        W 1092  23.186  36.942   0.344
28778W        W 1093   1.353  11.150   3.285
28779W        W 1094   3.881  29.564  11.157
28780W        W 1095   7.586  35.023   5.068
28781W        W 1096   4.946  29.089  13.800
28782W        W 1097  36.553  35.967  14.365
28783W        W 1098   1.540  28.187  11.490
28784W        W 1099  35.836  10.617  13.049
28785W        W 1100  13.413  14.388   3.804
28786W        W 1101   2.393  10.328  13.050
28787W        W 1102   6.859  25.216  12.520
28788W        W 1103  23.809  41.065   3.426
28789W        W 1104   4.870  32.468   4.121
28790W        W 1105   4.904  39.609   0.860
28791W        W 1106  41.305  30.845   1.399
28792W        W 1107  43.380   5.829  14.947
28793W        W 1108  44.776  22.376  13.294
28794W        W 1109   1.851  21.744   0.998
28795W        W 1110  20.242  37.760  13.948
28796W        W 1111  10.876  21.628   4.060
28797W        W 1112   1.858  37.908  14.584
28798W        W 1113  26.732   9.976  12.847
28799W        W 1114  39.979  17.757  14.221
28800W        W 1115  30.012  43.881   2.856
28801W        W 1116  42.267  35.941  10.532
28802W        W 1117   5.818   8.626  13.541
28803W        W 1118  36.865  38.455  13.170
28804W        W 1119   9.644  16.334  10.674
28805W        W 1120  23.252  44.368   2.646
28806W        W 1121  42.270  14.688   2.770
28807W        W 1122  40.035  11.687   3.574
28808W        W 1123  43.966   1.344   4.615
28809W        W 1124  26.933   4.482  10.832
28810W        W 1125  10.866  33.344  12.075
28811W        W 1126  10.702  27.093  14.722
28812W        W 1127  33.265  19.739  11.190
28813W        W 1128  18.383  16.269  13.849
28814W        W 1129  43.266  34.477   3.118
28815W        W 1130  35.295  10.264   1.195
28816W        W 1131  12.814   4.976   0.126
28817W        W 1132  18.362  15.684  14.364
28818W        W 1133   1.394  41.927   0.538
28819W        W 1134  39.014  26.586   1.267
28820W        W 1135  43.923  13.255  10.686
28821W        W 1136  21.739  16.642  11.146
28822W        W 1137  16.722   9.417  14.464
28823W        W 1138   4.817  22.578  12.595
28824W        W 1139   9.180  18.499  10.741
28825W        W 1140  21.680  12.210  13.331
28826W        W 1141  41.878  16.777   4.893
28827W        W 1142  44.962   1.128  14.313
28828W        W 1143   9.479  39.466   2.336
28829W        W 1144  31.225  39.047   1.923
28830W        W 1145  23.720   5.804   0.899
28831W        W 1146  33.835   1.424  12.833
28832W        W 1147   6.954  19.171  12.949
28833W        W 1148   6.775  21.233  11.140
28834W        W 1149  10.792  42.283  14.844
28835W        W 1150  16.322  11.190  12.987
28836W        W 1151  21.121  41.840   4.112
28837W        W 1152   2.269   7.803  14.374
28838W        W 1153   4.821  17.487   3.523
28839W        W 1154   5.736  37.922  14.851
28840W        W 1155  40.485  42.880  11.503
28841W        W 1156   7.728  20.801  11.877
28842W        W 1157  23.580   2.761  12.952
28843W        W 1158  38.985  26.294  10.476
28844W        W 1159  40.402  40.337   5.046
28845W        W 1160  20.465  36.594  12.618
28846W        W 1161  29.640  13.933  13.337
28847W        W 1162   0.856  37.658  13.973
28848W        W 1163  24.977  42.771  11.573
28849W        W 1164  40.881  41.526  10.701
28850W        W 1165  24.052  21.185   1.224
28851W        W 1166  15.301  29.608   4.444
28852W        W 1167  41.252  40.575   4.694
28853W        W 1168   8.332   6.060   2.296
28854W        W 1169  37.344  39.593   3.677
28855W        W 1170   7.544  18.483  10.181
28856W        W 1171  25.721   2.992  14.747
28857W        W 1172  17.786  17.714   2.365
28858W        W 1173   0.350   0.449   1.272
28859W        W 1174  11.311  40.756  11.854
28860W        W 1175  14.189   6.788   1.005
28861W        W 1176  28.702  11.333   0.802
28862W        W 1177  18.184  11.091   5.439
28863W        W 1178  44.274  41.475  14.791
28864W        W 1179  25.652  28.420  14.398
28865W        W 1180  27.949  30.471   4.344
28866W        W 1181  25.728  15.277  12.054
28867W        W 1182  28.789  39.660  13.332
28868W        W 1183  43.740  25.374   0.903
28869W        W 1184  25.370   2.994  12.447
28870W        W 1185   3.255  39.381   1.649
28871W        W 1186  29.698   8.976   4.526
28872W        W 1187  44.208  30.674  12.494
28873W        W 1188  35.514  30.428  12.828
28874W        W 1189  23.232   3.834   0.893
28875W        W 1190  10.478   0.328   3.719
28876W        W 1191  44.214  10.288   5.158
28877W        W 1192  36.609  44.434   2.012
28878W        W 1193   4.357   3.800  12.686
28879W        W 1194   3.777  34.022  14.763
28880W        W 1195   2.007  30.459   0.727
28881W        W 1196  16.237  24.117   4.062
28882W        W 1197  28.662  40.979  11.807
28883W        W 1198  32.468  22.281   9.905
28884W        W 1199  26.362   5.633   1.845
28885W        W 1200  23.008   1.858  12.072
28886W        W 1201  32.460  10.844   4.381
28887W        W 1202  41.880   5.318  14.891
28888W        W 1203  22.183  34.934   0.329
28889W        W 1204  33.784   1.321   3.199
28890W        W 1205  32.862  16.565  14.801
28891W        W 1206  22.756  24.154   0.493
28892W        W 1207  33.882  21.070  14.958
28893W        W 1208  23.966  18.003  12.439
28894W        W 1209  41.023  20.149   4.364
28895W        W 1210   0.251  16.653   0.426
28896W        W 1211  29.971  15.172   1.212
28897W        W 1212  10.451  24.237  13.778
28898W        W 1213  30.742  29.634  13.912
28899W        W 1214  31.061   3.860  12.995
28900W        W 1215  39.901  13.664  13.129
28901W        W 1216  36.335  20.355  11.778
28902W        W 1217  13.179  19.651  10.104
28903W        W 1218   9.147   1.462   3.300
28904W        W 1219  22.547  38.079   3.311
28905W        W 1220  35.538   7.467   2.934
28906W        W 1221  29.726  16.016   4.262
28907W        W 1222  23.844   9.178   2.461
28908W        W 1223   2.394  41.237   4.258
28909W        W 1224  35.460  20.029  12.579
28910W        W 1225  42.944   7.186   4.220
28911W        W 1226  27.929  44.663  13.078
28912W        W 1227  19.489  21.612   0.038
28913W        W 1228  27.628  11.598   0.387
28914W        W 1229  44.723  30.643  14.966
28915W        W 1230  11.621  29.942  13.085
28916W        W 1231  31.588  11.486   5.006
28917W        W 1232  41.833  17.132   1.296
28918W        W 1233   7.061  42.401  12.579
28919W        W 1234  17.849  41.943  12.125
28920W        W 1235  39.601  17.552  14.987
28921W        W 1236  24.991   2.224   1.914
28922W        W 1237  10.893  14.514  12.267
28923W        W 1238  26.130  26.673  10.477
28924W        W 1239  41.460   8.369   3.745
28925W        W 1240  32.252  30.873   4.526
28926W        W 1241  28.530  40.026   1.235
28927W        W 1242   8.205  26.086   3.033
28928W        W 1243  15.277  31.489  14.260
28929W        W 1244  44.426  14.879  12.940
28930W        W 1245  39.003  40.535  11.875
28931W        W 1246   1.287   0.801  14.351
28932W        W 1247  28.791  19.775  11.784
28933W        W 1248   0.748  21.517  12.956
28934W        W 1249  25.180  11.218   2.899
28935W        W 1250  10.240  44.336   0.822
28936W        W 1251  11.938  23.703   2.095
28937W        W 1252  15.314  28.510   1.692
28938W        W 1253  19.654   1.786   2.378
28939W        W 1254   5.832  26.970  13.938
28940W        W 1255  33.509  12.838   4.684
28941W        W 1256  10.937  32.871  11.893
28942W        W 1257  19.846  40.488  11.599
28943W        W 1258  35.977  23.513  12.028
28944W        W 1259   3.163  43.748  12.969
28945W        W 1260   1.798  39.323  12.664
28946W        W 1261  22.127  33.622  12.520
28947W        W 1262  35.577  25.993  11.543
28948W        W 1263   8.525  38.785  12.070
28949W        W 1264  24.450   0.721   0.328
28950W        W 1265  41.042   2.788   3.879
28951W        W 1266  10.245  40.395  12.992
28952W        W 1267  10.912  40.850   4.348
28953W        W 1268  31.407  25.015   1.889
28954W        W 1269  29.355  32.567  13.912
28955W        W 1270  35.081  37.538   1.406
28956W        W 1271  30.378  31.797   1.830
28957W        W 1272  22.008   2.454  14.937
28958W        W 1273   8.430  16.105  11.237
28959W        W 1274   4.935   9.404   1.774
28960W        W 1275  24.731  15.069  12.990
28961W        W 1276   2.019  37.086   1.591
28962W        W 1277  31.866  14.698   4.365
28963W        W 1278   2.454   6.708  13.290
28964W        W 1279  42.976  34.102  14.366
28965W        W 1280  29.534  32.340   4.980
28966W        W 1281  24.193  30.138   1.884
28967W        W 1282  38.999  40.042  13.050
28968W        W 1283  32.581  36.124   4.105
28969W        W 1284  18.153   6.847  12.151
28970W        W 1285   8.357  42.499   3.882
28971W        W 1286  25.740  15.178  12.773
28972W        W 1287  19.634  42.429  12.131
28973W        W 1288  23.165  38.108  12.863
28974W        W 1289   2.423  37.918   0.469
28975W        W 1290  25.542   6.838   3.301
28976W        W 1291   6.733  14.658  13.726
28977W        W 1292  23.062  40.433  14.351
28978W        W 1293   5.703  42.466   1.394
28979W        W 1294  24.031  23.760  12.845
28980W        W 1295  14.439   7.681   3.706
28981W        W 1296   9.825  38.854  14.059
28982W        W 1297  23.609   4.283   0.503
28983W        W 1298   0.085  41.515   0.309
28984W        W 1299  21.769  35.998  12.967
28985W        W 1300  27.539  17.304   2.200
28986W        W 1301  35.944  36.045   2.874
28987W        W 1302  21.002  22.357  14.488
28988W        W 1303  29.917  10.563  10.858
28989W        W 1304  43.466   9.952  13.625
28990W        W 1305  42.021  35.286   3.566
28991W        W 1306  43.983  32.247  14.842
28992W        W 1307   5.723  29.014   4.195
28993W        W 1308  29.303  29.276   2.099
28994W        W 1309  44.356  24.606   2.247
28995W        W 1310  40.330   7.707   3.574
28996W        W 1311  18.615  42.750   4.123
28997W        W 1312  24.783   4.718  12.901
28998W        W 1313   1.752  11.749  13.801
28999W        W 1314  36.898   1.524   4.606
29000W        W 1315  21.127  30.707  11.099
29001W        W 1316   5.821  31.465   2.971
29002W        W 1317  31.631  17.490   4.577
29003W        W 1318  11.144  20.968  14.967
29004W        W 1319   7.659  12.361   4.084
29005W        W 1320  14.728  12.709  12.371
29006W        W 1321  27.633  33.568   3.621
29007W        W 1322  13.720  38.935  10.738
29008W        W 1323  17.761  25.772  12.837
29009W        W 1324  13.115  17.502  11.141
29010W        W 1325   6.674  28.623   4.223
29011W        W 1326   5.275  42.987  11.126
29012W        W 1327   6.540  32.612   3.196
29013W        W 1328  40.091  26.439  11.460
29014W        W 1329   9.220  31.822   2.645
29015W        W 1330  37.479   5.386   0.759
29016W        W 1331  35.834  37.913  12.219
29017W        W 1332  24.229  19.964   3.700
29018W        W 1333   7.906  15.667   0.349
29019W        W 1334   2.815  14.787   1.318
29020W        W 1335   6.169  22.418   0.743
29021W        W 1336  18.240  40.859   4.180
29022W        W 1337  12.610  12.103   3.220
29023W        W 1338   8.913  14.113  13.014
29024W        W 1339  31.574  36.448   3.663
29025W        W 1340  25.726   5.821  13.246
29026W        W 1341   6.925  39.434  14.914
29027W        W 1342  24.059   1.287   3.719
29028W        W 1343   9.085  24.545  11.336
29029W        W 1344  28.408  14.746  12.383
29030W        W 1345  35.711  43.983   2.209
29031W        W 1346   9.709  43.829   2.977
29032W        W 1347   1.882  40.672  12.413
29033W        W 1348  28.939  10.175  14.900
29034W        W 1349  36.100  19.439  14.791
29035W        W 1350  30.976  34.050   0.027
29036W        W 1351  34.471  18.022   4.693
29037W        W 1352  13.306   7.671   1.333
29038W        W 1353  26.267  14.263  14.332
29039W        W 1354  42.229   9.904   0.292
29040W        W 1355  44.654  26.563   5.269
29041W        W 1356  20.632   6.414  11.910
29042W        W 1357  17.096  17.604  12.127
29043W        W 1358  42.525  33.355  14.361
29044W        W 1359  39.578  33.622   2.335
29045W        W 1360   7.269  25.266  11.198
29046W        W 1361  10.146  16.535   5.121
29047W        W 1362  12.791  18.624   2.999
29048W        W 1363  10.717  31.463  12.951
29049W        W 1364  28.068  30.511  11.479
29050W        W 1365  10.672  13.992  12.401
29051W        W 1366  19.481  18.112  10.785
29052W        W 1367  35.738  23.030   1.015
29053W        W 1368  25.639  43.062   3.777
29054W        W 1369   6.811   8.626   5.024
29055W        W 1370  26.954   8.604   3.591
29056W        W 1371  36.830  28.259  11.571
29057W        W 1372  37.369  38.597  11.230
29058W        W 1373  23.904  11.889   1.025
29059W        W 1374  36.058  21.488  13.003
29060W        W 1375  35.330  28.990   1.831
29061W        W 1376  27.372  19.509   2.705
29062W        W 1377  37.638  15.642   1.354
29063W        W 1378  24.978   6.746  12.062
29064W        W 1379  20.285  16.678  13.773
29065W        W 1380  19.683  15.977   0.457
29066W        W 1381  37.366  10.349   0.430
29067W        W 1382  34.614  43.012  14.925
29068W        W 1383  40.990  18.576  10.915
29069W        W 1384  34.961  28.541  12.455
29070W        W 1385  37.908  39.296  13.523
29071W        W 1386  28.706  33.892   2.131
29072W        W 1387  29.953  29.397   1.847
29073W        W 1388   3.795  40.342  13.804
29074W        W 1389  17.286  26.100  10.730
29075W        W 1390   1.382   5.099  14.373
29076W        W 1391  32.014  15.622  10.644
29077W        W 1392  29.900  25.529   3.245
29078W        W 1393   0.272  30.532  11.615
29079W        W 1394  23.102  29.962   0.056
29080W        W 1395  25.712   7.232  13.269
29081W        W 1396  27.946  32.320  11.589
29082W        W 1397   0.234   9.127  14.797
29083W        W 1398  10.194  12.334   0.330
29084W        W 1399  17.686  31.038   4.303
29085W        W 1400   0.411  23.471  11.219
29086W        W 1401  28.601   5.680   0.932
29087W        W 1402  19.300  44.971   1.534
29088W        W 1403  14.498   3.521   2.276
29089W        W 1404  15.125  26.496   2.522
29090W        W 1405  28.494   6.385  10.720
29091W        W 1406   0.248  23.615   3.833
29092W        W 1407  29.243   0.137   2.849
29093W        W 1408   9.099  37.361  12.002
29094W        W 1409  30.408  29.443   0.712
29095W        W 1410  31.455  15.195  12.822
29096W        W 1411  20.112  24.993  14.406
29097W        W 1412  16.366  21.266  11.306
29098W        W 1413  44.424  33.067   2.924
29099W        W 1414  28.428  31.948  13.917
29100W        W 1415  23.418   9.335  12.956
29101W        W 1416   7.946   3.475  11.696
29102W        W 1417   0.912  10.897   2.765
29103W        W 1418  40.862  22.357  11.946
29104W        W 1419  22.166  24.504   0.971
29105W        W 1420  12.768  11.186   2.658
29106W        W 1421   2.981  39.292  10.413
29107W        W 1422  26.650  40.030   1.728
29108W        W 1423   7.965  10.434   4.359
29109W        W 1424  22.025  15.714  13.465
29110W        W 1425  16.601  15.673   0.784
29111W        W 1426  39.035  22.673   3.167
29112W        W 1427  13.734   5.930  11.113
29113W        W 1428  43.917  13.419   4.258
29114W        W 1429  11.063   8.260   3.634
29115W        W 1430  43.277  22.443   0.942
29116W        W 1431  31.371   2.567  11.099
29117W        W 1432  17.633  37.813   2.332
29118W        W 1433  19.497  21.139  14.138
29119W        W 1434   9.151  43.445  12.870
29120W        W 1435  24.410  22.104  10.779
29121W        W 1436  29.111  20.056   4.604
29122W        W 1437   0.573  12.279   2.675
29123W        W 1438   7.257  35.209   4.719
29124W        W 1439  19.691   5.139  14.361
29125W        W 1440  15.740  40.096   3.218
29126W        W 1441  22.018   5.225  12.835
29127W        W 1442  34.446   8.771   3.028
29128W        W 1443  37.994   7.754   4.421
29129W        W 1444  22.081  24.131   2.837
29130W        W 1445  35.410  37.546  12.378
29131W        W 1446   1.203   9.748  13.400
29132W        W 1447  33.044  15.968  12.517
29133W        W 1448  23.401  22.115   2.183
29134W        W 1449   7.541  12.807   0.741
29135W        W 1450   8.643   2.648   2.722
29136W        W 1451   1.980   2.507   2.021
29137W        W 1452   4.836   9.940   3.681
29138W        W 1453  20.299  28.946   1.930
29139W        W 1454   9.382  13.582   0.355
29140W        W 1455  33.001  35.551   0.251
29141W        W 1456  43.859   4.372   1.215
29142W        W 1457  19.269  23.311   0.256
29143W        W 1458   8.357   6.951   0.914
29144W        W 1459  13.935  25.393   4.330
29145W        W 1460  29.403  15.580   2.676
29146W        W 1461  10.533  27.295   1.574
29147W        W 1462  28.916  21.326   3.125
29148W        W 1463   5.146  18.712  10.474
29149W        W 1464  43.471   3.723  11.544
29150W        W 1465  14.463  33.002   1.944
29151W        W 1466  11.627  42.030  11.850
29152W        W 1467  19.466   3.737  12.056
29153W        W 1468   3.868  43.923   3.215
29154W        W 1469  21.754  12.354  14.305
29155W        W 1470  43.036   0.294   1.817
29156W        W 1471  21.907  21.662   3.271
29157W        W 1472  37.293  38.800  12.446
29158W        W 1473   2.440  35.542   3.781
29159W        W 1474  34.536  42.460  13.728
29160W        W 1475  14.116  16.883   2.214
29161W        W 1476  14.272   1.938   1.129
29162W        W 1477  41.311  27.152   0.646
29163W        W 1478  37.083  36.063  11.997
29164W        W 1479  27.078  14.552  11.666
29165W        W 1480  21.735  19.478   3.987
29166W        W 1481  15.362  33.997   3.849
29167W        W 1482  30.716  44.253  11.519
29168W        W 1483  26.853   4.617  11.686
29169W        W 1484  28.082  19.947   4.449
29170W        W 1485  31.975  18.542  11.501
29171W        W 1486  11.875  21.503  11.822
29172W        W 1487  34.068  27.721  11.594
29173W        W 1488  19.483   9.921   1.784
29174W        W 1489   4.985  14.347  12.938
29175W        W 1490  36.962   6.641  11.702
29176W        W 1491   3.185  27.614   0.964
29177W        W 1492  31.058  35.934  11.236
29178W        W 1493  22.940   4.890  14.389
29179W        W 1494  16.672  14.821   3.637
29180W        W 1495  38.121  12.233  11.558
29181W        W 1496  38.457  19.908   0.699
29182W        W 1497   7.587  28.808  14.482
29183W        W 1498  36.013  34.556   2.875
29184W        W 1499   7.366  29.078  10.757
29185W        W 1500   9.149   8.410   1.345
29186W        W 1501  19.270  32.629   0.706
29187W        W 1502  24.155   9.839   1.757
29188W        W 1503  34.094  40.830   1.709
29189W        W 1504  15.625  18.597   2.743
29190W        W 1505  41.301  21.614   4.626
29191W        W 1506  40.904  40.653   1.857
29192W        W 1507   5.128  28.930  11.064
29193W        W 1508  16.572  30.459  14.409
29194W        W 1509   3.453  27.222   2.230
29195W        W 1510  42.866   4.521  13.392
29196W        W 1511  43.783  33.718   4.109
29197W        W 1512  36.132   4.872   0.242
29198W        W 1513  39.609  15.664  11.941
29199W        W 1514  28.597   9.820   3.213
29200W        W 1515  25.516   5.361  13.978
29201W        W 1516   4.264  42.679  12.932
29202W        W 1517  26.909  13.827   4.170
29203W        W 1518  33.962  43.259  13.586
29204W        W 1519   1.801  27.454   1.169
29205W        W 1520  34.841  42.792  13.429
29206W        W 1521  15.197  19.166   1.019
29207W        W 1522   9.377  37.647   5.198
29208W        W 1523  43.023  28.564   2.004
29209W        W 1524   8.880  42.712   1.404
29210W        W 1525  40.773  24.721  11.522
29211W        W 1526  17.350  19.588   4.175
29212W        W 1527  21.618  34.432  13.869
29213W        W 1528  14.747  16.825  13.300
29214W        W 1529  29.083  13.426  11.135
29215W        W 1530  28.242   3.901  11.032
29216W        W 1531   1.549  25.998  13.399
29217W        W 1532  14.659  13.615  13.165
29218W        W 1533   4.499  35.383  11.881
29219W        W 1534   2.810  21.180   1.757
29220W        W 1535  40.378  32.532  11.970
29221W        W 1536   0.329  16.522  11.609
29222W        W 1537   9.730  15.844  10.770
29223W        W 1538  16.381  29.150   3.661
29224W        W 1539   8.308   1.309  12.953
29225W        W 1540  32.458  33.113   2.630
29226W        W 1541  19.330  12.323  14.358
29227W        W 1542  39.035  35.369   1.320
29228W        W 1543  20.049  12.313   1.695
29229W        W 1544   0.242  19.085  14.393
29230W        W 1545  24.205  20.100   1.379
29231W        W 1546  13.159  40.801  13.844
29232W        W 1547  34.053  12.815   2.268
29233W        W 1548   5.514  11.543  14.585
29234W        W 1549  23.080  30.464  12.642
29235W        W 1550   4.729  42.058   3.253
29236W        W 1551  23.162  41.298  14.323
29237W        W 1552   1.502  26.552   2.737
29238W        W 1553   1.309  33.042   0.719
29239W        W 1554  42.902  38.051   2.696
29240W        W 1555   5.361  36.809  10.677
29241W        W 1556  12.254   5.353  13.790
29242W        W 1557  10.339  32.004  14.307
29243W        W 1558  33.556  31.605  11.261
29244W        W 1559  21.189  36.460  10.466
29245W        W 1560  43.717  38.122  14.703
29246W        W 1561  42.419   2.788  13.932
29247W        W 1562  18.816  38.399  12.350
29248W        W 1563  44.311  23.653  13.545
29249W        W 1564  41.766  44.231  13.066
29250W        W 1565  11.872  16.803   0.729
29251W        W 1566  15.532  22.483  14.811
29252W        W 1567  29.092  21.243  10.668
29253W        W 1568  36.122  36.957   2.269
29254W        W 1569   4.941  42.081   2.467
29255W        W 1570  44.807  26.442  12.538
29256W        W 1571  44.535  28.762  12.388
29257W        W 1572  27.269   0.858  10.684
29258W        W 1573  20.237  15.835   1.882
29259W        W 1574  19.288  28.537  10.655
29260W        W 1575   9.111   7.251   3.163
29261W        W 1576  16.037  41.108  13.850
29262W        W 1577  27.970  43.208   1.802
29263W        W 1578   3.745   6.439   2.534
29264W        W 1579  40.078  21.063   5.108
29265W        W 1580  15.701  16.748   4.471
29266W        W 1581   3.390  15.796   3.169
29267W        W 1582  18.766  36.366  11.437
29268W        W 1583  39.473  17.239   2.248
29269W        W 1584  24.766  28.621   0.441
29270W        W 1585   4.623  26.566  13.977
29271W        W 1586  23.012   1.990  14.882
29272W        W 1587  15.064  10.368   0.862
29273W        W 1588   2.986  38.875   1.288
29274W        W 1589  32.589  35.624   4.110
29275W        W 1590  43.509  38.916   2.143
29276W        W 1591  37.109  39.007  11.470
29277W        W 1592  28.863  37.757   2.357
29278W        W 1593  16.514  18.785   1.450
29279W        W 1594  32.061  21.730  14.339
29280W        W 1595   1.387   3.680  11.670
29281W        W 1596  43.285  33.960   3.221
29282W        W 1597  34.916  26.283   0.923
29283W        W 1598  31.018  33.101   0.244
29284W        W 1599   3.318  21.654  10.368
29285W        W 1600  41.556  13.300  13.361
29286W        W 1601  38.336  39.784   0.217
29287W        W 1602  37.415   6.587  14.747
29288W        W 1603   8.199   1.848  14.225
29289W        W 1604  20.624  35.087   1.020
29290W        W 1605  17.832  42.656   2.875
29291W        W 1606  40.404   6.891   3.786
29292W        W 1607   2.880  44.524  12.715
29293W        W 1608  25.689  15.595  11.644
29294W        W 1609  34.217  23.659   1.798
29295W        W 1610  42.293  23.711  10.968
29296W        W 1611  41.199   3.600  13.009
29297W        W 1612   0.271  39.375   4.057
29298W        W 1613  34.784  15.904   2.700
29299W        W 1614   3.832  29.714   2.749
29300W        W 1615  31.664  32.096  14.357
29301W        W 1616  33.275  24.644  11.579
29302W        W 1617  11.501   1.336  11.637
29303W        W 1618  10.809  12.370  13.045
29304W        W 1619   8.339  10.153  14.452
29305W        W 1620  20.997  42.370   0.025
29306W        W 1621  42.508  10.289  11.175
29307W        W 1622  23.593  35.693  11.164
29308W        W 1623   1.691  12.980   2.494
29309W        W 1624  36.546   7.174  11.680
29310W        W 1625  29.948   8.181  13.371
29311W        W 1626  23.261  10.891   2.354
29312W        W 1627   7.474   6.888   1.666
29313W        W 1628  13.548  42.407  13.025
29314W        W 1629  26.990  12.771  13.772
29315W        W 1630  14.894  44.698  11.914
29316W        W 1631  21.200  15.635   4.985
29317W        W 1632   8.746   3.222   0.447
29318W        W 1633  39.842  10.320  11.089
29319W        W 1634  16.609  11.305   4.682
29320W        W 1635  17.102   6.670   4.579
29321W        W 1636  38.488   2.186  12.443
29322W        W 1637  17.625  29.288   0.356
29323W        W 1638  10.132  33.928   0.741
29324W        W 1639  27.936  27.010   3.678
29325W        W 1640  19.679   2.390   0.324
29326W        W 1641  17.931  15.114  12.886
29327W        W 1642  38.554  30.223  10.769
29328W        W 1643  18.779   6.907   1.792
29329W        W 1644  22.365  43.175  11.987
29330W        W 1645   6.382   2.944   9.866
29331W        W 1646  14.850   2.644  11.151
29332W        W 1647  15.277   1.698  12.526
29333W        W 1648  20.213   9.220  13.564
29334W        W 1649  10.803   7.683   1.624
29335W        W 1650   4.972  43.826  12.900
29336W        W 1651  38.040  25.315   0.351
29337W        W 1652  38.474  20.282  11.608
29338W        W 1653   6.208  10.846  11.572
29339W        W 1654  30.185  27.165  14.857
29340W        W 1655  24.072  33.626  14.424
29341W        W 1656   6.847  44.519  14.804
29342W        W 1657   8.420   6.681  14.943
29343W        W 1658  43.723   8.875  11.510
29344W        W 1659  40.947  25.173   4.082
29345W        W 1660  11.615  25.019   0.004
29346W        W 1661  19.711  11.745   9.920
29347W        W 1662  32.648  10.775  12.437
29348W        W 1663  43.817  43.316  12.282
29349W        W 1664  22.929   5.747   0.520
29350W        W 1665   1.596   3.766   3.106
29351W        W 1666   6.389   7.353  14.931
29352W        W 1667  24.215   8.242   2.804
29353W        W 1668  26.950  26.541  13.048
29354W        W 1669  22.470  29.163   0.188
29355W        W 1670  22.308  19.043  14.552
29356W        W 1671  31.203  34.069   3.503
29357W        W 1672   4.490  26.369   0.704
29358W        W 1673  39.373  35.176   0.896
29359W        W 1674  37.588  18.197  12.309
29360W        W 1675  11.709  26.511   0.392
29361W        W 1676  24.656  25.211  14.903
29362W        W 1677   3.807  26.087  12.599
29363W        W 1678  22.674  21.587   1.942
29364W        W 1679  23.062   7.696   1.960
29365W        W 1680   3.283  42.611  13.796
29366W        W 1681  44.852   7.402  13.125
29367W        W 1682  10.991  11.207   4.581
29368W        W 1683   0.455   3.869   4.532
29369W        W 1684  30.120  17.110   1.365
29370W        W 1685   4.241  22.107  14.874
29371W        W 1686  12.809  23.516   2.319
29372W        W 1687  32.710   4.109   2.896
29373W        W 1688  22.197  20.223   4.319
29374W        W 1689   4.148  24.147   3.702
29375W        W 1690  36.906  26.429   1.296
29376W        W 1691  10.632  16.752   4.994
29377W        W 1692  26.648   6.269   2.646
29378W        W 1693  11.858   1.328  10.909
29379W        W 1694  44.323  14.590   2.843
29380W        W 1695  16.291  43.838   0.710
29381W        W 1696   2.013  30.078   2.883
29382W        W 1697   6.919  19.672   0.768
29383W        W 1698   1.771  43.374   4.377
29384W        W 1699  29.476  26.668  14.325
29385W        W 1700   2.814   5.509  10.285
29386W        W 1701  34.253  17.116  12.254
29387W        W 1702  43.055  14.237  11.368
29388W        W 1703  22.179  42.048   1.221
29389W        W 1704  19.003  14.720   2.902
29390W        W 1705  20.728  22.509  13.541
29391W        W 1706   5.594  10.141  11.177
29392W        W 1707  25.710   2.517   1.409
29393W        W 1708  29.380  32.626   1.461
29394W        W 1709  30.440  22.777  12.442
29395W        W 1710  25.648  12.117  12.474
29396W        W 1711  32.158   2.275   0.019
29397W        W 1712   8.560  17.484  14.372
29398W        W 1713  20.592  39.683  11.200
29399W        W 1714  17.278  24.687  13.432
29400W        W 1715  36.538   6.623  11.416
29401W        W 1716   0.279   5.802  14.768
29402W        W 1717  37.374  41.031  13.931
29403W        W 1718  21.295   5.018   0.516
29404W        W 1719  30.109   4.666   4.688
29405W        W 1720  28.631  44.555  12.328
29406W        W 1721  17.317   0.732   1.227
29407W        W 1722  10.800  19.527   3.383
29408W        W 1723  28.587  28.816   3.161
29409W        W 1724  34.356  13.100  14.281
29410W        W 1725  28.063  41.880  11.615
29411W        W 1726  16.744  28.351   0.281
29412W        W 1727  33.548  35.113  14.315
29413W        W 1728  36.641  11.707   5.026
29414W        W 1729  17.775  41.819  13.936
29415W        W 1730  23.260  28.728   1.821
29416W        W 1731  20.423  19.547   0.403
29417W        W 1732  31.513   6.050  12.178
29418W        W 1733   9.209  44.294  12.517
29419W        W 1734  37.660  29.577   3.375
29420W        W 1735  33.363  22.778  12.531
29421W        W 1736  39.552   2.859  13.110
29422W        W 1737   4.368  19.190  11.781
29423W        W 1738  27.998  19.260  14.403
29424W        W 1739  37.017  18.742  14.783
29425W        W 1740  36.512  42.882   1.902
29426W        W 1741  23.731   0.565  11.032
29427W        W 1742  31.171   5.843  13.543
29428W        W 1743   7.637  12.287   4.617
29429W        W 1744  37.829   9.717  13.805
29430W        W 1745  15.588  21.669   4.568
29431W        W 1746  23.194  15.583   1.351
29432W        W 1747  36.074  27.976   1.446
29433W        W 1748  44.348  29.975   1.457
29434W        W 1749  37.127   5.735  11.650
29435W        W 1750  36.744   1.717   0.417
29436W        W 1751  16.698  23.465  11.906
29437W        W 1752  21.571  22.314   3.964
29438W        W 1753  37.193  32.732  13.017
29439W        W 1754  41.740   3.378  10.319
29440W        W 1755  29.644  29.489   3.931
29441W        W 1756  27.434   7.759  11.706
29442W        W 1757  17.118  17.845  11.169
29443W        W 1758  34.892   5.229   0.653
29444W        W 1759  16.770   1.002  13.368
29445W        W 1760  21.894  41.525  11.977
29446W        W 1761  36.133  26.225  11.437
29447W        W 1762   8.634  10.205  11.685
29448W        W 1763   5.102  41.314   4.718
29449W        W 1764  28.099  21.176  12.184
29450W        W 1765  34.351   8.336   0.362
29451W        W 1766  44.018  11.811   1.306
29452W        W 1767  12.328   5.187   3.641
29453W        W 1768  13.895   7.760   2.626
29454W        W 1769  23.418   2.380  13.949
29455W        W 1770  27.133  19.051   4.308
29456W        W 1771  28.660  39.142  13.324
29457W        W 1772   8.789  32.563  13.944
29458W        W 1773   5.417  36.646   0.915
29459W        W 1774  38.018  24.033  10.247
29460W        W 1775  32.149  26.780  10.624
29461W        W 1776  30.473  10.780  13.220
29462W        W 1777  27.704   0.543   3.841
29463W        W 1778  40.569   6.900  13.583
29464W        W 1779  14.835  27.909  13.619
29465W        W 1780  21.286  30.105  10.416
29466W        W 1781  14.364   3.410  14.002
29467W        W 1782  14.346  24.751   2.303
29468W        W 1783  37.772  35.210   5.102
29469W        W 1784   5.231  10.778   4.778
29470W        W 1785  10.003  20.961   0.052
29471W        W 1786  32.442  44.000   1.933
29472W        W 1787  34.400  10.221  14.971
29473W        W 1788  14.322   0.924   3.702
29474W        W 1789   9.440  38.927  13.720
29475W        W 1790  35.963  16.811  14.359
29476W        W 1791  40.352  10.720   2.696
29477W        W 1792   5.664  14.272  12.481
29478W        W 1793   4.165  40.757   0.424
29479W        W 1794  42.294   4.339   2.213
29480W        W 1795   1.422  32.227   1.454
29481W        W 1796  14.601  33.553   3.943
29482W        W 1797  17.853  20.545  10.352
29483W        W 1798  33.380   1.792  10.442
29484W        W 1799  18.949  12.041  12.539
29485W        W 1800   4.969  44.861   0.896
29486W        W 1801  35.110   2.998   2.410
29487W        W 1802  29.642  41.316  13.107
29488W        W 1803  15.248  13.356   3.810
29489W        W 1804  28.762  31.528   1.039
29490W        W 1805  42.673  36.617   4.756
29491W        W 1806  35.932  10.060   4.966
29492W        W 1807  12.411  42.972   0.007
29493W        W 1808   8.092  44.284  14.179
29494W        W 1809  29.764  11.202   4.767
29495W        W 1810   3.706  12.502  12.408
29496W        W 1811  28.511  39.300   4.752
29497W        W 1812  24.526  34.117  10.865
29498W        W 1813  18.807  40.820   5.315
29499W        W 1814  11.181  11.055  12.953
29500W        W 1815   3.772  39.860   3.266
29501W        W 1816  39.187  34.405   3.648
29502W        W 1817  32.904  37.555   1.123
29503W        W 1818  44.506  17.159   3.627
29504W        W 1819  39.395   5.297  14.408
29505W        W 1820  26.417   5.913  13.980
29506W        W 1821  40.681  31.813  14.579
29507W        W 1822  26.055   5.686  11.735
29508W        W 1823  35.641  15.668   2.368
29509W        W 1824  35.959   0.821   2.413
29510W        W 1825   2.861  35.472   4.719
29511W        W 1826  20.664  34.373   2.393
29512W        W 1827  36.196   1.474  12.591
29513W        W 1828  17.713   7.036  10.325
29514W        W 1829  23.907  15.298  14.368
29515W        W 1830  21.775  24.749   0.037
29516W        W 1831  21.215  18.632  11.755
29517W        W 1832  30.552  16.266   3.166
29518W        W 1833   3.418  28.189   0.830
29519W        W 1834  30.694  40.976   4.253
29520W        W 1835  21.150  19.062   3.432
29521W        W 1836  37.654  32.598  12.649
29522W        W 1837  14.132  38.261  14.808
29523W        W 1838  24.942  19.811   4.082
29524W        W 1839  41.873  34.068   0.050
29525W        W 1840  29.674  39.295   4.135
29526W        W 1841  37.498  11.225   4.713
29527W        W 1842  30.427  17.966  13.962
29528W        W 1843  16.736  24.710  13.353
29529W        W 1844  14.526   7.705   1.840
29530W        W 1845  33.161  31.608   0.750
29531W        W 1846  27.540  18.789   4.153
29532W        W 1847  38.596   3.444   5.022
29533W        W 1848  13.347  22.019  10.586
29534W        W 1849  20.997   0.555  10.946
29535W        W 1850  31.799  37.380   3.794
29536W        W 1851   4.351  24.782  11.445
29537W        W 1852  11.730  44.368  12.327
29538W        W 1853  28.879   2.620  12.029
29539W        W 1854  33.304  14.595  13.525
29540W        W 1855  18.049  42.523  12.960
29541W        W 1856  10.839  26.320   4.630
29542W        W 1857  19.159   6.152   4.551
29543W        W 1858  23.298  33.065   1.386
29544W        W 1859  43.021   9.131  12.519
29545W        W 1860   3.814  42.249   2.442
29546W        W 1861  20.646  27.677   3.345
29547W        W 1862  24.997  17.634  12.065
29548W        W 1863  39.417  34.139  11.373
29549W        W 1864  28.154   3.914  12.364
29550W        W 1865   7.458  19.091  12.990
29551W        W 1866  17.531   5.819   3.754
29552W        W 1867  38.953  27.537   9.904
29553W        W 1868   4.877   6.135   3.231
29554W        W 1869  42.678   6.400   3.731
29555W        W 1870  31.524   8.769  13.921
29556W        W 1871  43.801  36.899  14.420
29557W        W 1872  13.759  17.532  13.314
29558W        W 1873  18.165  17.805  12.504
29559W        W 1874  30.142  26.467   0.970
29560W        W 1875  16.465  18.320  12.782
29561W        W 1876   7.884   6.314   1.074
29562W        W 1877   7.384  20.736   4.632
29563W        W 1878   5.654  37.964  12.037
29564W        W 1879   2.207   2.375   0.689
29565W        W 1880  29.173  30.946   2.115
29566W        W 1881  24.715  27.238  14.597
29567W        W 1882  20.140  11.738   5.169
29568W        W 1883  17.844  10.789  14.100
29569W        W 1884  24.415  38.797   1.376
29570W        W 1885  32.988  40.805  11.396
29571W        W 1886  34.043  33.631   3.149
29572W        W 1887  44.711  27.862   2.098
29573W        W 1888  31.491  11.808   4.536
29574W        W 1889  30.129  13.648  12.661
29575W        W 1890  34.371  16.093  13.999
29576W        W 1891  24.167  11.607   3.303
29577W        W 1892  42.191  17.082   1.748
29578W        W 1893  20.642  33.833   3.354
29579W        W 1894   5.182  24.369  11.586
29580W        W 1895  36.551  22.575   3.226
29581W        W 1896  34.016  21.909   2.760
29582W        W 1897  21.315  31.432   1.212
29583W        W 1898  33.216   5.755  13.931
29584W        W 1899  15.812  20.738  13.403
29585W        W 1900  37.608  27.511   0.994
29586W        W 1901  43.474  20.702  13.145
29587W        W 1902  27.617  25.388   2.203
29588W        W 1903  14.155  29.236   1.349
29589W        W 1904  42.765   4.662   1.819
29590W        W 1905  10.102  21.651  11.984
29591W        W 1906  12.375  36.451   3.945
29592W        W 1907  31.504   8.738  14.455
29593W        W 1908  20.781  28.087   0.431
29594W        W 1909  16.014  23.186  11.635
29595W        W 1910   0.928  32.272  14.178
29596W        W 1911   9.187  43.964  14.822
29597W        W 1912   8.993  14.631   1.851
29598W        W 1913  30.902   8.860   1.691
29599W        W 1914  39.159  19.102  12.183
29600W        W 1915  17.728  10.407  13.770
29601W        W 1916  11.852  14.752  13.472
29602W        W 1917   9.381  37.495   0.288
29603W        W 1918  25.217  43.258   1.679
29604W        W 1919  32.522  40.264  10.785
29605W        W 1920   9.784  40.099  13.074
29606W        W 1921  44.487  36.120   3.035
29607W        W 1922  22.786  35.671   4.165
29608W        W 1923  25.290   8.865  11.167
29609W        W 1924  37.433   7.709  11.978
29610W        W 1925  39.008  20.805  14.802
29611W        W 1926   5.705  26.206   0.352
29612W        W 1927  38.094  28.676  13.480
29613W        W 1928  41.850  41.348  12.128
29614W        W 1929  43.310  30.423   0.996
29615W        W 1930  24.840  15.646   4.508
29616W        W 1931  33.423   2.437   4.058
29617W        W 1932   5.785  12.185   3.687
29618W        W 1933   2.174  39.371   0.468
29619W        W 1934  12.304  20.738   4.563
29620W        W 1935  33.929  28.753  11.675
29621W        W 1936  28.675  42.903   4.769
29622W        W 1937   0.321  38.959  10.723
29623W        W 1938  17.162  14.789   2.748
29624W        W 1939  16.264  37.505   0.027
29625W        W 1940  42.282  27.256   2.815
29626W        W 1941  28.871  15.660  10.761
29627W        W 1942  25.797  39.101  14.058
29628W        W 1943  33.842  33.679   1.354
29629W        W 1944  44.853  28.858   2.139
29630W        W 1945   7.380  26.678   3.254
29631W        W 1946  36.213  20.626   4.680
29632W        W 1947  42.837  36.943   1.073
29633W        W 1948  37.532  33.116  13.927
29634W        W 1949  11.241   6.748  10.614
29635W        W 1950  41.693  35.094   3.182
29636W        W 1951   0.829  38.973  14.968
29637W        W 1952  32.546  20.214   1.754
29638W        W 1953   0.928  35.509  12.048
29639W        W 1954  17.247  42.470   4.151
29640W        W 1955  32.424  29.901  10.752
29641W        W 1956  22.872  16.607  14.808
29642W        W 1957  44.302  41.463   3.201
29643W        W 1958  12.511  23.523  12.533
29644W        W 1959  18.712   7.911  12.478
29645W        W 1960   3.166   8.698  13.017
29646W        W 1961   2.691   9.398  10.565
29647W        W 1962  34.370  40.809   2.714
29648W        W 1963  28.205  38.862   1.866
29649W        W 1964  31.327  11.298   2.498
29650W        W 1965  39.887  34.391  10.341
29651W        W 1966   4.292  23.481   2.950
29652W        W 1967  12.400   9.479  12.114
29653W        W 1968  41.062  11.302  11.269
29654W        W 1969   8.832  10.763   3.387
29655W        W 1970  42.859  14.096   1.202
29656W        W 1971  13.511  37.428  12.908
29657W        W 1972  10.758  14.444  14.851
29658W        W 1973  27.169  39.244   2.839
29659W        W 1974  14.238  19.195   5.054
29660W        W 1975  43.942  39.902   0.452
29661W        W 1976  26.203  11.829   1.324
29662W        W 1977  23.510  22.660   2.230
29663W        W 1978  13.381  37.306   3.581
29664W        W 1979  43.042   0.419   0.899
29665W        W 1980  26.430  39.210  12.481
29666W        W 1981  22.755  33.315   5.025
29667W        W 1982  33.142  23.175  11.922
29668W        W 1983  17.732   3.417  13.554
29669W        W 1984   3.884  21.974   0.986
29670W        W 1985  41.685  25.008   4.686
29671W        W 1986  42.131  37.430  10.898
29672W        W 1987  27.775   1.460  13.964
29673W        W 1988  31.991  10.456  10.966
29674W        W 1989  19.804  17.081   1.650
29675W        W 1990  11.658  42.960   4.570
29676W        W 1991  28.839  30.160  12.549
29677W        W 1992   1.841  38.829   4.232
29678W        W 1993  13.662  31.660  12.519
29679W        W 1994   7.447  33.381  10.760
29680W        W 1995  10.223  31.132   2.450
29681W        W 1996  24.984  17.196   1.835
29682W        W 1997  40.591  32.004  14.086
29683W        W 1998  30.219  10.096   0.388
29684W        W 1999  17.616   4.031   3.337
29685W        W 2000  36.737  15.091   2.255
29686W        W 2001  21.943  38.035   1.847
29687W        W 2002   1.288  43.815   1.354
29688W        W 2003  14.906  32.689   0.296
29689W        W 2004  40.215   7.698   2.651
29690W        W 2005  32.672  18.844   3.782
29691W        W 2006  30.569  44.527  11.109
29692W        W 2007  18.826  10.827   4.975
29693W        W 2008  19.069  26.086   2.810
29694W        W 2009  28.085   1.484   2.699
29695W        W 2010  17.669  39.765   0.887
29696W        W 2011   4.500  34.822   0.483
29697W        W 2012  36.904   1.375   3.117
29698W        W 2013  30.497  44.458   0.887
29699W        W 2014  43.385  16.712  11.452
29700W        W 2015  32.452  12.124   3.374
29701W        W 2016  35.515  11.375   4.117
29702W        W 2017  37.724  40.573   0.608
29703W        W 2018  26.655  18.350  14.019
29704W        W 2019   9.185  32.208  13.173
29705W        W 2020  16.706   5.225  13.853
29706W        W 2021  35.559  32.862  11.031
29707W        W 2022   9.435  31.891  13.556
29708W        W 2023  38.252  18.056   3.074
29709W        W 2024   0.908  34.314  14.550
29710W        W 2025  38.313   1.255  13.784
29711W        W 2026  43.082  34.569   1.229
29712W        W 2027   4.072  20.119   2.972
29713W        W 2028  23.040  44.857   4.129
29714W        W 2029  38.330  39.629   3.240
29715W        W 2030  24.064  17.179   0.667
29716W        W 2031  18.276  21.749   1.662
29717W        W 2032  21.129  18.182   1.942
29718W        W 2033  10.188   2.908  12.610
29719W        W 2034  44.932  24.642   3.466
29720W        W 2035  38.261   1.124   4.822
29721W        W 2036  14.640  33.501  13.311
29722W        W 2037   5.386   3.490   4.631
29723W        W 2038  35.823  20.266  11.688
29724W        W 2039  13.327  39.583   4.149
29725W        W 2040   7.345  43.065  10.284
29726W        W 2041   5.726   9.739  12.129
29727W        W 2042  43.067  35.850  12.123
29728W        W 2043  33.632  29.237  14.871
29729W        W 2044  28.069  41.951   3.371
29730W        W 2045   0.004  31.922  10.471
29731W        W 2046   9.633  39.728  14.741
29732W        W 2047  24.574  19.997   4.448
29733W        W 2048  37.621  31.396  11.405
29734W        W 2049  25.596   7.839   3.412
29735W        W 2050  35.291  10.000  10.292
29736W        W 2051  19.604  25.120  13.911
29737W        W 2052  14.096  12.782   2.377
29738W        W 2053  21.763  38.273   0.542
29739W        W 2054  12.967   8.940   0.472
29740W        W 2055  39.762   1.033   0.033
29741W        W 2056  33.956  19.309   1.591
29742W        W 2057  39.043  20.775  10.909
29743W        W 2058  44.918   7.476   2.112
29744W        W 2059  12.807  22.182   0.761
29745W        W 2060  18.012   2.509  13.800
29746W        W 2061  10.705  27.908   3.738
29747W        W 2062   2.544  27.431  12.237
29748W        W 2063  14.046  30.600   0.265
29749W        W 2064  11.341  27.083  11.110
29750W        W 2065  17.776  30.219   5.490
29751W        W 2066  24.269  24.201  10.700
29752W        W 2067  36.489  31.479   4.386
29753W        W 2068  36.448  15.815  12.984
29754W        W 2069  24.428  12.855   3.445
29755W        W 2070  38.221  28.097  11.580
29756W        W 2071   3.171   7.744  13.402
29757W        W 2072  15.297  28.911  10.312
29758W        W 2073  15.472  38.071   4.354
29759W        W 2074  14.247  33.357  11.193
29760W        W 2075   2.853  32.817   1.067
29761W        W 2076  41.293  26.721  12.055
29762W        W 2077  20.226  40.141   4.666
29763W        W 2078  31.861  34.613  13.058
29764W        W 2079   9.833  21.086   2.005
29765W        W 2080  15.497   4.290   0.373
29766W        W 2081  23.737  40.924  14.813
29767W        W 2082  28.001  41.750  13.338
29768W        W 2083   0.509  13.636  12.841
29769W        W 2084   5.810  27.451   0.730
29770W        W 2085  11.792  15.828   4.822
29771W        W 2086  15.029  40.041  11.535
29772W        W 2087  21.973   1.391   0.685
29773W        W 2088   9.588  10.375   4.922
29774W        W 2089  17.712  30.193   3.633
29775W        W 2090  30.655  38.145  11.261
29776W        W 2091  28.049  30.153  14.248
29777W        W 2092  19.139  11.786   0.676
29778W        W 2093   8.836   2.719   1.826
29779W        W 2094  10.357  38.679   3.287
29780W        W 2095  35.678  18.195   3.032
29781W        W 2096  36.758  34.668   2.828
29782W        W 2097  26.946  34.986  12.228
29783W        W 2098  33.180  27.661  11.925
29784W        W 2099  29.174  22.053   2.706
29785W        W 2100  28.751  37.290   3.830
29786W        W 2101  32.618  43.388   0.827
29787W        W 2102  38.942  34.348  11.400
29788W        W 2103  38.236  24.652   1.316
29789W        W 2104  15.730  39.233  12.629
29790W        W 2105   7.379   1.760  14.843
29791W        W 2106  26.125  15.849  12.570
29792W        W 2107   4.320  28.673   4.746
29793W        W 2108  30.895   4.354  11.505
29794W        W 2109  14.762   2.334   4.745
29795W        W 2110  21.170  38.023   3.196
29796W        W 2111  12.202  26.224  11.512
29797W        W 2112  28.400   1.957  14.911
29798W        W 2113  42.506  14.882   4.485
29799W        W 2114  27.186   8.215   1.441
29800W        W 2115  35.069  11.411   3.699
29801W        W 2116  27.386   2.236   2.707
29802W        W 2117   1.253  28.964   0.251
29803W        W 2118   2.641  42.751  12.390
29804W        W 2119  10.095  17.641   0.004
29805W        W 2120  23.567   3.180  14.323
29806W        W 2121   3.471  38.067   1.293
29807W        W 2122  13.345  38.488  11.584
29808W        W 2123  43.927  20.416   2.639
29809W        W 2124  43.415  11.199  10.777
29810W        W 2125  19.701   4.044   4.503
29811W        W 2126  12.277  10.328   2.686
29812W        W 2127  41.422  20.193  13.722
29813W        W 2128  26.239   5.503   5.148
29814W        W 2129  11.561  21.189   1.439
29815W        W 2130  32.543  10.073   2.506
29816W        W 2131  27.472  39.833  13.429
29817W        W 2132   4.163   1.263  11.916
29818W        W 2133  43.252  16.850   0.404
29819W        W 2134  29.916   3.265  11.397
29820W        W 2135  21.529   3.254  12.567
29821W        W 2136  33.127  23.186  10.662
29822W        W 2137  35.647   7.042   2.677
29823W        W 2138   7.582  28.528  12.359
29824W        W 2139  20.003  16.693  13.300
29825W        W 2140  26.203   0.130   4.952
29826W        W 2141  23.904   1.928  13.357
29827W        W 2142  21.619  37.592  12.251
29828W        W 2143  21.840  27.038   3.444
29829W        W 2144  28.017   9.631   2.926
29830W        W 2145   2.423  31.273  11.144
29831W        W 2146  41.393  12.708   0.315
29832W        W 2147   5.637  21.218   2.323
29833W        W 2148   0.504  34.043   5.101
29834W        W 2149  42.193  34.888  14.819
29835W        W 2150  43.983  22.289  11.891
29836W        W 2151  33.993   8.525  12.026
29837W        W 2152  31.035  26.086  13.857
29838W        W 2153   5.535  13.707  14.781
29839W        W 2154  10.156  29.468  14.418
29840W        W 2155  44.905  24.183  12.869
29841W        W 2156  24.243   0.549  11.107
29842W        W 2157   9.168   8.256  11.622
29843W        W 2158  43.835  13.788  14.560
29844W        W 2159  19.937   3.997   1.815
29845W        W 2160  25.530  11.864  12.020
29846W        W 2161  34.962  12.756   1.489
29847W        W 2162   2.025  35.262   3.604
29848W        W 2163  11.669   0.369   9.929
29849W        W 2164  11.749   1.931   4.620
29850W        W 2165  39.640   9.885  12.532
29851W        W 2166  25.668  30.518   5.070
29852W        W 2167  41.926   0.860  10.990
29853W        W 2168  39.875  34.972  11.104
29854W        W 2169  23.747  24.315   0.602
29855W        W 2170  33.357  17.851  13.818
29856W        W 2171  29.386  19.739   3.342
29857W        W 2172  22.636  16.218  14.116
29858W        W 2173  19.029  16.598   3.498
29859W        W 2174  34.808  20.275   2.208
29860W        W 2175   3.657   0.662  13.469
29861W        W 2176  31.015  39.325   1.551
29862W        W 2177  29.079  14.584   2.252
29863W        W 2178  35.832  39.447  11.642
29864W        W 2179   6.828  21.012   1.476
29865W        W 2180  11.672  32.062  10.660
29866W        W 2181  21.001  35.415   0.227
29867W        W 2182   9.184  43.965  12.898
29868W        W 2183  21.305  20.272  10.158
29869W        W 2184  37.840  37.446   4.698
29870W        W 2185   5.432  38.983   2.650
29871W        W 2186  38.208  42.851   0.356
29872W        W 2187  29.572   4.345  12.194
29873W        W 2188   3.679  19.786  10.663
29874W        W 2189  30.499  23.348  11.610
29875W        W 2190  27.857  10.211   3.663
29876W        W 2191   3.102  31.992  13.069
29877W        W 2192   4.700  12.126  13.842
29878W        W 2193  40.997   9.910   3.456
29879W        W 2194   8.238  11.584  14.743
29880W        W 2195  20.651  44.275  13.623
29881W        W 2196   1.705  13.727   4.724
29882W        W 2197  18.318   0.996  10.815
29883W        W 2198  15.845  37.260   2.290
29884W        W 2199  18.873  14.265   0.422
29885W        W 2200  40.846  33.164   2.265
29886W        W 2201  29.870   0.401   2.020
29887W        W 2202  20.976  42.043   1.354
29888W        W 2203  11.693  11.109   2.658
29889W        W 2204  12.511  17.705   4.741
29890W        W 2205  43.916  12.899  13.529
29891W        W 2206  41.024  23.195  14.871
29892W        W 2207  32.588  22.519  12.107
29893W        W 2208   1.489   5.964   4.254
29894W        W 2209  20.230  18.079   4.296
29895W        W 2210  25.883  37.921  13.073
29896W        W 2211  42.073  31.568   2.271
29897W        W 2212  36.740  20.813  14.408
29898W        W 2213   2.784  39.578   1.802
29899W        W 2214   2.265  11.813  11.977
29900W        W 2215  36.951  34.860  14.374
29901W        W 2216   1.489   1.880   3.545
29902W        W 2217  30.956  25.001  11.256
29903W        W 2218  34.742  26.070   0.452
29904W        W 2219  43.593   9.737  12.614
29905W        W 2220   6.913  35.135   4.325
29906W        W 2221  21.591  13.501   3.190
29907W        W 2222   5.448  32.856   1.696
29908W        W 2223  22.932  21.855  12.873
29909W        W 2224  21.672  19.747   3.043
29910W        W 2225  26.640  40.958  10.979
29911W        W 2226  17.725  40.305   9.865
29912W        W 2227  24.953  38.916  11.144
29913W        W 2228  44.450   5.970  13.532
29914W        W 2229   7.625  40.297  13.429
29915W        W 2230  33.048  22.993   1.156
29916W        W 2231  26.521  38.927   4.267
29917W        W 2232  10.626  32.961  10.771
29918W        W 2233   3.639  41.021   3.440
29919W        W 2234   5.446  43.831   2.791
29920W        W 2235  34.481  34.366  12.566
29921W        W 2236   9.469  10.095  12.004
29922W        W 2237  36.359  10.798   0.765
29923W        W 2238  41.595  40.904   3.892
29924W        W 2239  31.598  27.345   0.468
29925W        W 2240  42.733  41.786   2.493
29926W        W 2241  42.865   0.340   2.322
29927W        W 2242   9.425  26.646   0.439
29928W        W 2243  16.617   6.802   2.353
29929W        W 2244  41.426  39.239   0.293
29930W        W 2245  27.168  13.738   0.868
29931W        W 2246   1.450  27.024   1.787
29932W        W 2247  13.181  38.937  13.038
29933W        W 2248  15.474  19.809  12.884
29934W        W 2249  43.312  14.247   4.634
29935W        W 2250  20.243  25.686   2.970
29936W        W 2251  30.761   5.612   4.813
29937W        W 2252   4.450   6.398   4.914
29938W        W 2253  17.060   8.385   0.049
29939W        W 2254  13.689  36.325   3.271
29940W        W 2255   3.752  10.256   3.807
29941W        W 2256  11.145  23.615  14.415
29942W        W 2257   1.011   7.651  11.040
29943W        W 2258   2.293  31.496  13.305
29944W        W 2259   3.888  31.827   4.587
29945W        W 2260   5.903  12.703  13.989
29946W        W 2261  25.184   1.541   3.186
29947W        W 2262  30.741   9.882  13.592
29948W        W 2263   9.331  27.003  12.820
29949W        W 2264   0.219  36.902   1.376
29950W        W 2265  20.412   8.075  12.013
29951W        W 2266  30.135  33.677   2.382
29952W        W 2267  26.461  17.772   4.123
29953W        W 2268   8.357   7.835   1.060
29954W        W 2269  37.771  31.947  14.508
29955W        W 2270  35.064  40.677  11.337
29956W        W 2271  43.395  22.021  12.902
29957W        W 2272  24.958  13.681   2.315
29958W        W 2273  44.487  38.535  14.845
29959W        W 2274  38.880   1.426  10.747
29960W        W 2275  17.628  21.570  13.361
29961W        W 2276   0.456  12.289  14.908
29962W        W 2277  13.794  37.535  11.373
29963W        W 2278  10.369  44.262   4.521
29964W        W 2279  38.768  34.422   2.682
29965W        W 2280  11.543   2.287  12.558
29966W        W 2281  36.418   2.189   1.646
29967W        W 2282  17.519  17.857  11.953
29968W        W 2283  31.099  17.276  11.549
29969W        W 2284   4.534  39.936   4.927
29970W        W 2285  43.233  38.904   0.141
29971W        W 2286  12.280   7.218   0.417
29972W        W 2287  27.044   5.116  10.597
29973W        W 2288  28.699  17.442   3.907
29974W        W 2289  15.732   1.809   0.912
29975W        W 2290  42.030  39.703  12.835
29976W        W 2291  16.286  34.903  13.040
29977W        W 2292  13.912  39.440   2.729
29978W        W 2293  10.606  35.672   0.819
29979W        W 2294  40.740   5.184  14.774
29980W        W 2295   4.243  32.435   1.414
29981W        W 2296  40.053  33.947   4.562
29982W        W 2297  39.978  42.418   1.219
29983W        W 2298  23.486  16.545  14.028
29984W        W 2299  11.909  22.491  14.818
29985W        W 2300  33.935  17.062   2.690
29986W        W 2301  13.506  18.742   0.618
29987W        W 2302   6.582  16.976   3.356
29988W        W 2303   9.801  18.654  14.366
29989W        W 2304  32.934  26.991   3.195
29990W        W 2305  25.721  42.183   4.674
29991W        W 2306  21.772  43.717  12.471
29992W        W 2307  27.004  44.642  12.782
29993W        W 2308  11.234  42.292  12.105
29994W        W 2309   3.859  21.129   2.830
29995W        W 2310   2.345   3.713  11.580
29996W        W 2311  24.139  31.401  13.481
29997W        W 2312  23.704   2.197   0.246
29998W        W 2313  30.340  16.498   0.834
29999W        W 2314  43.523   8.260   4.545
30000W        W 2315  31.478  24.519   2.422
30001W        W 2316  29.919  10.895  14.089
30002W        W 2317  33.572   5.650  12.376
30003W        W 2318   1.089   3.594   2.987
30004W        W 2319  22.790  28.365   1.770
30005W        W 2320  37.021  40.010   3.759
30006W        W 2321  34.867  33.914   2.483
30007W        W 2322  37.063  39.837  14.351
30008W        W 2323  23.505  43.008   2.909
30009W        W 2324  36.036  28.555  14.687
30010W        W 2325  32.155  36.058  11.526
30011W        W 2326   6.314  11.371  11.477
30012W        W 2327  22.508  19.036   3.832
30013W        W 2328   7.796   1.356   1.276
30014W        W 2329  13.176  44.927  14.548
30015W        W 2330  10.856  17.230  14.290
30016W        W 2331  19.509  13.192  10.706
30017W        W 2332  18.824  20.137   3.967
30018W        W 2333  44.783   9.302   2.865
30019W        W 2334  34.382  18.099  12.356
30020W        W 2335  31.988  41.349   1.732
30021W        W 2336   9.126  40.998   2.800
30022W        W 2337   5.454  34.836   3.303
30023W        W 2338  40.080  12.770  11.088
30024W        W 2339  24.947  38.576   2.691
30025W        W 2340  12.673  23.235  13.806
30026W        W 2341  26.482   2.187  11.533
30027W        W 2342  10.572   3.893   3.152
30028W        W 2343  29.042  23.167  12.115
30029W        W 2344  15.878  42.378   4.665
30030W        W 2345  23.223  34.782  13.389
30031W        W 2346   2.867  10.129   2.308
30032W        W 2347   8.793  38.552   3.175
30033W        W 2348  40.924  38.812  13.269
30034W        W 2349   8.732  30.911   1.315
30035W        W 2350   5.280  30.958  13.318
30036W        W 2351  19.290  27.903   2.600
30037W        W 2352  24.116  25.133  14.774
30038W        W 2353  32.381  12.337  14.943
30039W        W 2354  33.525   1.798   4.670
30040W        W 2355  27.789  24.000   1.693
30041W        W 2356   8.608  34.540  13.484
30042W        W 2357  19.556  24.017  14.789
30043W        W 2358  21.281  41.107  14.551
30044W        W 2359  30.340  12.241  11.266
30045W        W 2360  38.141  26.396   5.022
30046W        W 2361   8.466  16.690   4.970
30047W        W 2362   4.940  22.826   2.753
30048W        W 2363   4.713  20.648   0.532
30049W        W 2364  11.215  38.793   4.292
30050W        W 2365  10.904  12.661  12.464
30051W        W 2366  39.351  32.254  11.659
30052W        W 2367  15.617  21.245  11.986
30053W        W 2368  12.821   4.707  10.581
30054W        W 2369   5.162  21.183   4.188
30055W        W 2370  27.042   5.393   0.080
30056W        W 2371   1.961  35.950   4.522
30057W        W 2372  44.719  43.029   0.571
30058W        W 2373  29.552   3.977  12.567
30059W        W 2374   0.540   1.792  12.390
30060W        W 2375  24.117  34.029   3.908
30061W        W 2376  19.833   9.345   0.985
30062W        W 2377  16.390  14.165   2.632
30063W        W 2378  19.547  26.444   0.146
30064W        W 2379  33.092  11.138   0.335
30065W        W 2380  23.331  40.780   3.348
30066W        W 2381   5.276  36.526  12.387
30067W        W 2382  26.168  31.078  10.950
30068W        W 2383  33.848  27.434  10.726
30069W        W 2384  30.468  14.288  13.879
30070W        W 2385  39.481   7.943  11.575
30071W        W 2386  21.050  44.005   2.853
30072W        W 2387  24.612  26.310  11.101
30073W        W 2388  10.214  30.431  11.095
30074W        W 2389   8.647  30.067  13.504
30075W        W 2390   5.546   7.291  11.504
30076W        W 2391  39.445  34.775   3.893
30077W        W 2392  21.023  37.557   4.393
30078W        W 2393   9.580  42.310   1.682
30079W        W 2394   1.790   1.141  13.443
30080W        W 2395  17.590  25.997  11.158
30081W        W 2396  35.440  14.035  14.901
30082W        W 2397  12.812  28.989  12.820
30083W        W 2398  14.320  23.507   3.780
30084W        W 2399  32.056  20.082  14.374
30085W        W 2400  29.915  12.639   4.103
30086W        W 2401  39.094  28.267   3.928
30087W        W 2402  16.746  38.618  10.088
30088W        W 2403   8.125  41.844   0.331
30089W        W 2404  14.093  14.873   1.289
30090W        W 2405  38.339  43.903   3.667
30091W        W 2406  32.393   8.463   3.254
30092W        W 2407  17.780  28.534  12.538
30093W        W 2408  22.789   6.250   1.565
30094W        W 2409  13.338  35.584  12.468
30095W        W 2410  10.804   2.475  14.408
30096W        W 2411  29.053  30.237   4.598
30097W        W 2412   9.795  14.874  10.752
30098W        W 2413   9.113   9.727  10.726
30099W        W 2414  10.199  30.146  11.534
30100W        W 2415  39.061  19.583   3.639
30101W        W 2416  27.860  15.829  12.935
30102W        W 2417  17.098  21.905   1.870
30103W        W 2418   8.705  32.190   4.047
30104W        W 2419   2.439  43.043   3.717
30105W        W 2420  28.189  21.833  10.519
30106W        W 2421  41.901  19.137   1.934
30107W        W 2422  22.813  26.730   1.333
30108W        W 2423  27.955  25.731  10.677
30109W        W 2424  28.053  24.034  11.317
30110W        W 2425   8.351   7.357  13.814
30111W        W 2426  23.553   1.642   4.671
30112W        W 2427   7.249  25.651   0.446
30113W        W 2428  44.897  24.774   3.966
30114W        W 2429  14.719  33.112  11.211
30115W        W 2430  10.153  43.015  12.865
30116W        W 2431  12.754   3.269   2.308
30117W        W 2432  28.048   8.274  12.131
30118W        W 2433  24.468  26.540   2.357
30119W        W 2434   4.204  27.723  13.463
30120W        W 2435  14.657   9.209  11.912
30121W        W 2436  10.865  41.452  13.032
30122W        W 2437  23.685  26.055  12.144
30123W        W 2438  12.655  37.074   4.726
30124W        W 2439   4.175   0.210  11.434
30125W        W 2440  24.144  24.487   0.932
30126W        W 2441  40.394  37.064   3.880
30127W        W 2442   7.359  20.238   3.208
30128W        W 2443   0.811   3.773  11.169
30129W        W 2444  16.546  10.209   2.652
30130W        W 2445  42.796  28.582   3.936
30131W        W 2446  39.587  14.292   5.117
30132W        W 2447   0.990  39.054  12.953
30133W        W 2448   8.169   7.298  11.852
30134W        W 2449  32.599  26.193   1.212
30135W        W 2450   1.158   2.278  13.830
30136W        W 2451  34.472  38.120  14.551
30137W        W 2452  12.288  37.567  11.480
30138W        W 2453  37.785  34.855   1.462
30139W        W 2454   6.886  18.285   1.907
30140W        W 2455   7.790  36.328  13.909
30141W        W 2456  30.047  38.100  14.999
30142W        W 2457  24.664   8.306   3.067
30143W        W 2458   6.936   7.763   3.629
30144W        W 2459  30.152   6.359   3.679
30145W        W 2460  11.573  38.650  11.160
30146W        W 2461  29.227  36.896   2.194
30147W        W 2462  11.870  32.862  12.071
30148W        W 2463   0.477  37.621  11.874
30149W        W 2464  37.848   0.996  12.944
30150W        W 2465  21.975  32.326   4.573
30151W        W 2466  11.273  31.009   1.242
30152W        W 2467   6.753  33.369   4.491
30153W        W 2468  15.135  39.391  11.111
30154W        W 2469  34.262  41.201   3.253
30155W        W 2470  32.895  13.853   0.015
30156W        W 2471   1.599  32.967  13.752
30157W        W 2472  44.910  34.495   1.023
30158W        W 2473  17.103   6.611   3.234
30159W        W 2474  11.067  17.301   1.793
30160W        W 2475  30.070  23.356   4.350
30161W        W 2476  11.826  17.121   0.294
30162W        W 2477   4.293   4.264   0.860
30163W        W 2478  24.213  20.099   0.257
30164W        W 2479   9.189  31.180  13.083
30165W        W 2480   2.835   6.252  13.932
30166W        W 2481  15.163  39.721   4.909
30167W        W 2482  15.180   2.874   3.539
30168W        W 2483  32.083  44.292   4.139
30169W        W 2484   0.520  33.927   5.634
30170W        W 2485   0.424   2.747  14.036
30171W        W 2486  16.380  19.883   4.232
30172W        W 2487  26.566  11.151  13.439
30173W        W 2488  22.593  39.865   4.643
30174W        W 2489  10.572  22.159   3.244
30175W        W 2490  37.537  38.829   1.420
30176W        W 2491  26.828  28.392   3.624
30177W        W 2492  13.835  37.500   0.932
30178W        W 2493  18.601  40.504   1.751
30179W        W 2494  18.494  20.663  12.019
30180W        W 2495  41.283  38.761   2.707
30181W        W 2496  20.700  17.087   1.110
30182W        W 2497  37.067  35.360   1.471
30183W        W 2498  21.054  16.717  12.448
30184W        W 2499   8.644  19.297   0.372
30185W        W 2500  36.969  18.896  12.265
30186W        W 2501  24.967  16.173  12.559
30187W        W 2502  38.124  29.201   2.709
30188W        W 2503  36.937  24.651  10.680
30189W        W 2504  44.224  25.648   2.196
30190W        W 2505  38.498  15.308  12.927
30191W        W 2506  42.038  26.159   3.678
30192W        W 2507  26.519  27.579   0.040
30193W        W 2508  16.809  34.441   3.130
30194W        W 2509  40.413   3.741  14.557
30195W        W 2510  36.348   2.964   1.219
30196W        W 2511  40.138   8.789   1.280
30197W        W 2512  20.276  27.046  13.561
30198W        W 2513  26.571  12.663  14.914
30199W        W 2514   1.526  35.678   5.037
30200W        W 2515  38.231  25.193   4.030
30201W        W 2516  37.882  17.594   3.411
30202W        W 2517   2.237  23.568  14.915
30203W        W 2518  35.624  24.569   3.988
30204W        W 2519  17.362  16.000  13.854
30205W        W 2520   8.852  31.729   4.277
30206W        W 2521  10.707  29.674   0.241
30207W        W 2522  21.042  27.912   2.309
30208W        W 2523  29.203  42.284   0.495
30209W        W 2524  23.003   4.325   4.044
30210W        W 2525  27.117  11.262   2.661
30211W        W 2526  26.607  24.987   4.802
30212W        W 2527  40.480  28.008   5.102
30213W        W 2528  29.089  40.127  14.997
30214W        W 2529  43.487  22.757  10.738
30215W        W 2530   5.828   2.599   2.610
30216W        W 2531  28.316  19.606   0.270
30217W        W 2532  36.929  26.915  13.097
30218W        W 2533  18.699   6.607  14.851
30219W        W 2534  39.311  36.525   3.799
30220W        W 2535  30.362  13.784  13.859
30221W        W 2536  44.708  17.994   2.252
30222W        W 2537  37.410  23.989  13.860
30223W        W 2538   3.008   2.413   0.510
30224W        W 2539  17.014   0.513  10.620
30225W        W 2540  41.038   6.735  14.069
30226W        W 2541  17.483   4.199   0.936
30227W        W 2542  42.701  29.968  13.884
30228W        W 2543  25.080   5.466   2.321
30229W        W 2544  22.586  37.828   0.048
30230W        W 2545  32.892  20.257  11.200
30231W        W 2546  15.756  20.725   3.714
30232W        W 2547  20.913   0.877   3.290
30233W        W 2548  31.850   9.724  12.895
30234W        W 2549  43.950  21.699   4.502
30235W        W 2550  44.847  29.576   3.827
30236W        W 2551  13.767   9.134  12.519
30237W        W 2552  13.054  13.420   4.188
30238W        W 2553  20.213  20.431  14.981
30239W        W 2554  41.488  39.559   3.313
30240W        W 2555  14.938  20.602   4.057
30241W        W 2556  12.195   0.467  12.882
30242W        W 2557   8.392  26.442  13.686
30243W        W 2558   9.151  14.097   4.599
30244W        W 2559  18.215  26.941   0.961
30245W        W 2560  15.216  28.444  13.884
30246W        W 2561   0.548  21.442  14.976
30247W        W 2562  29.728  18.072   2.924
30248W        W 2563   8.877   0.746  10.892
30249W        W 2564  18.624  34.927   1.749
30250W        W 2565  20.595  20.597   1.180
30251W        W 2566  19.498  11.544  10.912
30252W        W 2567   1.056  27.053  13.888
30253W        W 2568  32.903  12.067   4.365
30254W        W 2569  25.309  14.180  10.987
30255W        W 2570  15.624  13.964   3.114
30256W        W 2571  28.262  10.087   2.891
30257W        W 2572  23.232  22.276  11.572
30258W        W 2573  16.335  12.182   1.422
30259W        W 2574  33.438  33.348   3.736
30260W        W 2575   2.328  42.738  14.815
30261W        W 2576   8.374  31.476   1.654
30262W        W 2577  37.319  43.736  11.615
30263W        W 2578  36.541  18.613   0.010
30264W        W 2579  31.901  11.057  13.940
30265W        W 2580  22.298  35.980   4.844
30266W        W 2581  36.479  28.972   2.654
30267W        W 2582  14.141  37.556   4.282
30268W        W 2583  12.179  25.524   3.610
30269W        W 2584   0.171  24.450   2.733
30270W        W 2585   0.441  16.660  11.083
30271W        W 2586  43.722   3.682  11.086
30272W        W 2587  14.840  27.060   3.305
30273W        W 2588  41.850   0.838  12.304
30274W        W 2589  44.375  33.149   1.456
30275W        W 2590  21.575  25.472   4.663
30276W        W 2591  37.494  22.550  14.334
30277W        W 2592  13.922   2.322   1.253
30278W        W 2593  22.091  33.049  10.742
30279W        W 2594  16.555  29.526   3.099
30280W        W 2595  42.901  15.168  11.457
30281W        W 2596  40.492  41.319   4.126
30282W        W 2597  12.861  36.439   4.167
30283W        W 2598  34.972  35.906  13.803
30284W        W 2599   7.381  14.281   3.229
30285W        W 2600  12.177   5.141   1.155
30286W        W 2601  43.824  14.695   1.961
30287W        W 2602  25.102  20.237  10.040
30288W        W 2603  29.369  44.312   2.638
30289W        W 2604  11.784  24.607   4.052
30290W        W 2605  11.920  35.146   2.629
30291W        W 2606   5.368  43.087   0.862
30292W        W 2607  42.362  41.837   4.393
30293W        W 2608  36.167  35.028  14.920
30294W        W 2609   2.247  18.061  13.509
30295W        W 2610  33.535   4.201   2.910
30296W        W 2611  15.811  15.138   0.796
30297W        W 2612  36.602  35.707   4.613
30298W        W 2613  30.299  36.886  13.540
30299W        W 2614  15.969  22.292   0.000
30300W        W 2615  13.125   2.750   0.744
30301W        W 2616  28.954  26.592   2.199
30302W        W 2617  42.494  16.576  11.736
30303W        W 2618   6.158   8.937   2.876
30304W        W 2619   2.440  34.827   4.231
30305W        W 2620  24.133  22.503   4.606
30306W        W 2621  43.582  10.251   0.614
30307W        W 2622  22.034  28.961   1.170
30308W        W 2623  19.759  21.519   0.513
30309W        W 2624  19.539  10.667   2.286
30310W        W 2625  28.087  40.232   4.133
30311W        W 2626  21.861   7.371   4.125
30312W        W 2627   1.204  36.777   0.510
30313W        W 2628  27.767   6.820   2.809
30314W        W 2629  25.058  16.279   0.887
30315W        W 2630   2.166  20.525  11.222
30316W        W 2631  43.319  10.650  11.680
30317W        W 2632   9.427   9.121  14.539
30318W        W 2633  34.395  38.972  14.783
30319W        W 2634  34.076   5.204   0.315
30320W        W 2635  20.738  23.462   3.673
30321W        W 2636   3.385   9.166   1.761
30322W        W 2637   2.447  19.675   2.732
30323W        W 2638  35.571  43.983   1.224
30324W        W 2639  10.654  41.889  11.370
30325W        W 2640  26.170   5.917  12.740
30326W        W 2641  13.689  26.252   2.818
30327W        W 2642  10.143  25.167  13.956
30328W        W 2643  16.186  20.549   0.038
30329W        W 2644  21.599  20.640   9.943
30330W        W 2645   5.368  15.587   0.036
30331W        W 2646  24.715   4.273  14.109
30332W        W 2647  18.938  37.323  14.430
30333W        W 2648  36.864   7.771  12.490
30334W        W 2649   7.578  43.831  11.068
30335W        W 2650  41.415  36.830   1.932
30336W        W 2651  23.259  44.693   3.157
30337W        W 2652  41.161  38.078   1.901
30338W        W 2653  11.321  16.256   2.562
30339W        W 2654  20.310   7.989   0.862
30340W        W 2655  30.994  41.892  11.882
30341W        W 2656  43.290  33.453   0.909
30342W        W 2657   6.383  15.806  13.835
30343W        W 2658  39.037  43.303   3.343
30344W        W 2659  44.300  43.390   4.089
30345W        W 2660  31.868  32.204  10.694
30346W        W 2661   4.260  30.716   3.213
30347W        W 2662  43.189  30.209   0.257
30348W        W 2663  41.945  27.973   1.194
30349W        W 2664  22.427  42.743   1.676
30350W        W 2665   3.514  12.636   3.663
30351W        W 2666  13.737  35.561  13.138
30352W        W 2667  30.493  38.920  12.810
30353W        W 2668   4.790  31.245  11.109
30354W        W 2669  36.262  32.523   2.833
30355W        W 2670  41.750  39.071  11.560
30356W        W 2671  19.177  29.365   0.901
30357W        W 2672  18.286   1.525  12.932
30358W        W 2673   9.041  42.525   2.135
30359W        W 2674  27.935  25.107   3.150
30360W        W 2675  12.656  37.688  13.910
30361W        W 2676  10.680  14.861   2.421
30362W        W 2677  11.359  34.968  14.578
30363W        W 2678  25.529  43.352  12.624
30364W        W 2679  35.937  20.542   3.260
30365W        W 2680  42.535   9.696   1.928
30366W        W 2681   7.371  12.670   3.308
30367W        W 2682  38.470  10.042   4.120
30368W        W 2683  20.248  12.210  13.334
30369W        W 2684  13.768  10.050   3.613
30370W        W 2685  20.745   8.641   1.327
30371W        W 2686  21.429  20.280  11.057
30372W        W 2687  39.992  21.784   3.102
30373W        W 2688   0.671  29.579   2.257
30374W        W 2689  22.162   4.773  10.452
30375W        W 2690  34.522  35.323  13.596
30376W        W 2691  27.029  43.359   2.259
30377W        W 2692  36.947  37.587  10.499
30378W        W 2693   3.116  29.526  14.919
30379W        W 2694  28.976  18.101   0.305
30380W        W 2695  28.931  31.458  13.269
30381W        W 2696   7.269  20.915   1.180
30382W        W 2697  10.086   7.785  13.010
30383W        W 2698  25.004  35.162   0.934
30384W        W 2699  40.890   7.839   0.954
30385W        W 2700  31.445   2.114   4.938
30386W        W 2701  41.740   3.751   1.736
30387W        W 2702  25.268  17.142  11.961
30388W        W 2703  17.020  42.909   2.702
30389W        W 2704  12.341  11.696  12.763
30390W        W 2705   7.560  20.721  14.808
30391W        W 2706   0.872  29.584   0.700
30392W        W 2707  35.794  25.447   3.117
30393W        W 2708  16.670  15.630   2.243
30394W        W 2709  44.844  33.253  14.446
30395W        W 2710  16.314   2.886  14.569
30396W        W 2711   0.043  35.934   4.660
30397W        W 2712  12.736  12.302  10.627
30398W        W 2713  28.727  26.589   1.468
30399W        W 2714  23.626  40.464  14.503
30400W        W 2715  11.039  24.556  11.541
30401W        W 2716  39.125  31.625  12.405
30402W        W 2717  38.741  14.248  12.479
30403W        W 2718  31.089  35.029  13.980
30404W        W 2719  40.256  25.947   9.530
30405W        W 2720  39.898  16.562  13.781
30406W        W 2721  32.985  37.893   2.071
30407W        W 2722  31.865  43.195  11.711
30408W        W 2723  22.549   5.354   0.705
30409W        W 2724   5.464  28.988   2.156
30410W        W 2725  29.135   6.872  12.087
30411W        W 2726  39.782  23.217   4.777
30412W        W 2727   5.349   7.664  14.350
30413W        W 2728  15.699  10.142  13.322
30414W        W 2729  41.027  35.957   1.954
30415W        W 2730  33.311   5.613   1.004
30416W        W 2731  33.019   7.226  14.787
30417W        W 2732  30.061  34.929   2.884
30418W        W 2733  34.631  44.942   4.603
30419W        W 2734  20.303  18.863   1.382
30420W        W 2735  22.950  17.372  14.414
30421W        W 2736  25.616  20.341  10.061
30422W        W 2737  15.531  26.762  13.475
30423W        W 2738   1.014  30.458  14.358
30424W        W 2739   5.698  21.541  12.386
30425W        W 2740  24.689  39.043   0.768
30426W        W 2741  35.138   3.383   4.522
30427W        W 2742  34.454  11.948  13.007
30428W        W 2743  35.841  25.718  14.121
30429W        W 2744  14.119  29.529  10.529
30430W        W 2745  38.978  15.239   4.072
30431W        W 2746  14.643  42.804   4.027
30432W        W 2747   2.550  18.250  11.576
30433W        W 2748  19.012  43.281  14.940
30434W        W 2749  25.111  43.733  11.215
30435W        W 2750  14.098  28.708   1.402
30436W        W 2751  11.406   7.724   4.872
30437W        W 2752  23.471   7.239   4.038
30438W        W 2753  33.451  11.528   0.420
30439W        W 2754  20.814  41.985   2.465
30440W        W 2755  30.643   9.255   3.184
30441W        W 2756  41.882   9.168  11.045
30442W        W 2757  12.516  10.149  14.448
30443W        W 2758  19.060  28.453   4.313
30444W        W 2759  42.939  10.311  13.377
30445W        W 2760   6.278  43.246  13.882
30446W        W 2761   2.922  40.322   2.289
30447W        W 2762   7.310  44.625   2.836
30448W        W 2763  34.871  19.454   1.845
30449W        W 2764  32.390  36.815   4.503
30450W        W 2765  16.999  40.298  14.752
30451W        W 2766  39.015   1.318  11.530
30452W        W 2767  26.443  16.659  11.497
30453W        W 2768   5.266  17.794   0.272
30454W        W 2769   4.736  16.225   1.670
30455W        W 2770  25.158  16.686   1.839
30456W        W 2771  20.026   6.950  13.505
30457W        W 2772  17.597  15.825  14.926
30458W        W 2773   3.412   4.775  12.453
30459W        W 2774  43.918  31.368   0.206
30460W        W 2775   9.247   8.597   3.331
30461W        W 2776  10.650  29.501   2.941
30462W        W 2777  44.998  12.687  11.066
30463W        W 2778   4.263  18.495   3.987
30464W        W 2779  28.181   4.861   0.461
30465W        W 2780  17.833  39.951   1.833
30466W        W 2781  40.700  37.827   1.978
30467W        W 2782  11.772  14.123   2.092
30468W        W 2783   6.409  15.349   4.387
30469W        W 2784  12.351  31.904   2.948
30470W        W 2785   8.283  19.130  10.744
30471W        W 2786  11.722   2.176   0.776
30472W        W 2787   9.382  40.291  13.943
30473W        W 2788  33.448   0.962   0.793
30474W        W 2789  43.978   6.932  11.492
30475W        W 2790  33.465   7.730  14.713
30476W        W 2791  23.223  43.730  12.152
30477W        W 2792   7.889   9.239   0.448
30478W        W 2793  21.323  33.743  13.051
30479W        W 2794   0.669   1.712   1.148
30480W        W 2795  36.029   1.703   1.761
30481W        W 2796  23.760   3.287  13.034
30482W        W 2797  17.742  28.123  13.432
30483W        W 2798  33.016  20.842   3.796
30484W        W 2799  18.824   9.273  14.565
30485W        W 2800   5.874   5.519  10.558
30486W        W 2801  35.425  10.250  13.019
30487W        W 2802   4.673  44.762   2.031
30488W        W 2803  44.320  22.631  13.483
30489W        W 2804   4.556  31.090   4.036
30490W        W 2805  21.901  16.199  11.432
30491W        W 2806   5.727  32.363   3.623
30492W        W 2807  33.401  24.159  10.629
30493W        W 2808  32.395  42.592   1.825
30494W        W 2809  36.982  41.448   0.137
30495W        W 2810  40.962  19.438  11.152
30496W        W 2811  40.997  33.907  12.070
30497W        W 2812  15.879  39.888   0.448
30498W        W 2813   2.458  34.110  12.543
30499W        W 2814  24.527  33.814   2.666
30500W        W 2815  12.524  29.496   0.760
30501W        W 2816   9.793  36.972  10.576
30502W        W 2817  28.154  21.215   2.790
30503W        W 2818   4.654  35.449  14.289
30504W        W 2819  44.565  35.916   4.869
30505W        W 2820   9.899  41.347  12.516
30506W        W 2821   1.264   1.303  10.737
30507W        W 2822  41.437  38.049   0.918
30508W        W 2823  33.623  41.047  10.656
30509W        W 2824   5.194  43.851  14.427
30510W        W 2825   6.462  13.598   1.508
30511W        W 2826  39.892  36.112  11.616
30512W        W 2827  22.288  42.454  10.912
30513W        W 2828  28.073  25.509  14.924
30514W        W 2829  33.973  21.145   4.246
30515W        W 2830  19.196  28.351   0.725
30516W        W 2831  12.166  28.938  11.964
30517W        W 2832  19.662  15.867  10.244
30518W        W 2833   1.077  15.336   2.691
30519W        W 2834  17.150  35.839  14.915
30520W        W 2835  25.095  44.416   3.275
30521W        W 2836  28.860  44.437  12.796
30522W        W 2837  20.814   1.738   4.222
30523W        W 2838  25.187   3.498  12.474
30524W        W 2839   7.698  34.095  12.979
30525W        W 2840  19.884  18.122   4.692
30526W        W 2841  19.245   5.757  14.231
30527W        W 2842   6.911  15.293   4.554
30528W        W 2843  20.820  20.349  13.344
30529W        W 2844  22.051  36.872   1.391
30530W        W 2845   8.938  11.927   3.698
30531W        W 2846  38.566   7.363   0.972
30532W        W 2847  29.632   4.428   3.762
30533W        W 2848  41.518  22.417   1.276
30534W        W 2849  38.045  26.068  12.648
30535W        W 2850  24.437  36.066  12.537
30536W        W 2851  35.418   9.862   4.675
30537W        W 2852  29.200  27.884  11.054
30538W        W 2853  26.222  26.393   1.235
30539W        W 2854  15.877  21.196   0.787
30540W        W 2855  15.358  43.906   1.941
30541W        W 2856  37.464  29.249  12.932
30542W        W 2857  13.371   2.920   2.594
30543W        W 2858  14.845  17.790  10.686
30544W        W 2859  37.424  36.978   4.407
30545W        W 2860  19.113   2.445  13.030
30546W        W 2861   7.881  29.702  10.561
30547W        W 2862  32.565  39.569  14.646
30548W        W 2863  34.127  30.863  13.989
30549W        W 2864   1.985  25.988   3.276
30550W        W 2865  13.436   1.051  14.093
30551W        W 2866  17.729   9.242  11.096
30552W        W 2867  41.851  18.104   3.349
30553W        W 2868  19.531   3.681  12.988
30554W        W 2869  34.931  25.616   3.750
30555W        W 2870  19.579  30.747  14.318
30556W        W 2871  38.239  24.052  10.703
30557W        W 2872  22.464  42.411  12.373
30558W        W 2873  11.627  38.916  14.620
30559W        W 2874  14.554  30.370  14.378
30560W        W 2875  21.417  41.600  12.120
30561W        W 2876  40.965  12.288  13.806
30562W        W 2877  28.209   9.756   0.435
30563W        W 2878  27.725   5.395   0.902
30564W        W 2879  31.500  41.959   2.113
30565W        W 2880   3.400  23.306   3.179
30566W        W 2881  17.966   7.285   2.965
30567W        W 2882  25.894   8.165  11.633
30568W        W 2883   7.200  27.795  13.952
30569W        W 2884  29.989  24.075   4.841
30570W        W 2885  42.464  24.931  11.855
30571W        W 2886  12.258   8.757  14.000
30572W        W 2887  10.371  25.488  14.827
30573W        W 2888  38.132  43.513  12.337
30574W        W 2889  17.760  30.558   3.127
30575W        W 2890  29.015  31.441   1.967
30576W        W 2891  16.612  15.029  13.110
30577W        W 2892  34.152  41.324   1.855
30578W        W 2893  42.019   3.857   0.429
30579W        W 2894  34.116  41.732   3.284
30580W        W 2895  32.404   6.801  11.680
30581W        W 2896  14.757  23.599   2.003
30582W        W 2897   6.713  15.317   3.670
30583W        W 2898  30.883  26.214   2.427
30584W        W 2899  40.968   4.706  13.989
30585W        W 2900  12.157   2.439  14.901
30586W        W 2901  40.607  23.106   1.742
30587W        W 2902   5.793  33.360   4.639
30588W        W 2903  34.127  10.147  14.386
30589W        W 2904  25.312   8.764  13.469
30590W        W 2905  10.736  20.780  14.672
30591W        W 2906   4.984  14.131   3.631
30592W        W 2907  18.488  40.389   4.030
30593W        W 2908  41.594   7.652   3.230
30594W        W 2909  37.894  40.595   3.267
30595W        W 2910  33.558  29.305   1.241
30596W        W 2911   0.802  18.867   2.915
30597W        W 2912  33.386  35.917   0.321
30598W        W 2913   2.867   0.058  11.987
30599W        W 2914  35.896   7.365  13.384
30600W        W 2915   1.511  15.053  14.511
30601W        W 2916  16.562  13.252   2.452
30602W        W 2917  17.689  11.714   9.886
30603W        W 2918  12.136  39.113   1.679
30604W        W 2919   4.475  14.220   3.576
30605W        W 2920   7.730   4.260   2.909
30606W        W 2921  17.793   6.322  11.545
30607W        W 2922  34.533  25.512  13.938
30608W        W 2923   6.551  13.879  14.718
30609W        W 2924  31.890  31.674  13.557
30610W        W 2925  20.718  11.007   5.131
30611W        W 2926  27.434  40.503   2.802
30612W        W 2927  38.331   0.280   2.023
30613W        W 2928  42.174  43.622   1.587
30614W        W 2929  36.833  30.137  13.381
30615W        W 2930  25.945  18.136   3.359
30616W        W 2931   2.759   9.414  14.016
30617W        W 2932  42.016  21.681   2.849
30618W        W 2933  44.037   8.684  10.125
30619W        W 2934   3.727  41.991  12.916
30620W        W 2935  17.284  39.712  13.171
30621W        W 2936   3.329  16.144  12.466
30622W        W 2937  44.127   2.250  12.690
30623W        W 2938  14.199  31.474   2.603
30624W        W 2939  30.945  40.560   4.433
30625W        W 2940   8.753   0.193  13.515
30626W        W 2941  23.018  31.032   1.436
30627W        W 2942  34.635  25.695   4.196
30628W        W 2943  30.388   4.211  15.000
30629W        W 2944  13.394  30.484   3.336
30630W        W 2945   9.762  40.631  13.080
30631W        W 2946  17.230  24.484   4.953
30632W        W 2947   9.500  19.698  11.529
30633W        W 2948   5.980   5.822   1.834
30634W        W 2949  40.541  10.759   0.545
30635W        W 2950   5.857  43.555  12.891
30636W        W 2951  29.485   4.483   1.679
30637W        W 2952   2.362   5.815  14.269
30638W        W 2953   2.261  14.379  14.857
30639W        W 2954  10.907   0.277  11.596
30640W        W 2955  19.543   2.331   3.627
30641W        W 2956   7.595  34.028  14.481
30642W        W 2957  11.021  32.228   4.102
30643W        W 2958  41.572   1.462   0.437
30644W        W 2959   8.666  40.703   0.495
30645W        W 2960  11.924  41.916   2.210
30646W        W 2961  32.455  34.121  13.751
30647W        W 2962  22.468  18.077   1.288
30648W        W 2963  44.554  21.975   0.940
30649W        W 2964  13.749  31.784  11.618
30650W        W 2965   7.157  44.128   4.268
30651W        W 2966   3.452  12.105   2.873
30652W        W 2967  38.997  20.239   4.874
30653W        W 2968  20.090   8.181  11.090
30654W        W 2969   9.459  35.407  12.100
30655W        W 2970  13.760   4.724  11.613
30656W        W 2971  34.306  30.241   2.268
30657W        W 2972  14.449  42.925   0.507
30658W        W 2973   3.896  40.358   3.241
30659W        W 2974   2.920  40.933   4.734
30660W        W 2975  22.441  26.683  14.047
30661W        W 2976  11.705  29.222   2.735
30662W        W 2977  33.496  20.040   1.713
30663W        W 2978  35.827   2.026   0.405
30664W        W 2979  25.139  10.752   2.710
30665W        W 2980   0.408  14.722   2.158
30666W        W 2981  28.500  29.732   0.430
30667W        W 2982  15.925  23.111   3.214
30668W        W 2983  21.286   9.165  11.605
30669W        W 2984  28.530  22.412  10.697
30670W        W 2985  43.484   1.092   1.748
30671W        W 2986   4.525   5.865   1.951
30672W        W 2987  23.562  28.538  11.153
30673W        W 2988  40.258  12.170   1.906
30674W        W 2989  29.587  17.396   3.396
30675W        W 2990  19.267  25.039   1.025
30676W        W 2991  10.032  16.665  14.150
30677W        W 2992   2.999  15.786  11.143
30678W        W 2993   0.833  20.665   0.079
30679W        W 2994  32.523  31.594   1.449
30680W        W 2995   3.994  30.718   2.710
30681W        W 2996  18.159  18.233  10.659
30682W        W 2997  20.141  34.955  12.944
30683W        W 2998   9.945  19.239   0.008
30684W        W 2999   6.847  39.403   0.870
30685W        W 3000  35.550  25.912   3.187
30686W        W 3001  27.578  22.132  12.094
30687W        W 3002  31.856   4.797  12.358
30688W        W 3003  39.126  31.738  11.578
30689W        W 3004  41.129  19.811  14.884
30690W        W 3005  11.500  41.084   2.247
30691W        W 3006  15.033  13.036   3.248
30692W        W 3007  33.497   6.124   1.687
30693W        W 3008   3.276  43.903   3.550
30694W        W 3009   7.203  26.473   2.012
30695W        W 3010   7.768  23.967  13.849
30696W        W 3011  30.583   8.639   3.374
30697W        W 3012  11.364  42.863  13.408
30698W        W 3013  16.609   2.268   2.793
30699W        W 3014  41.782   4.330  10.477
30700W        W 3015   7.654  20.007  13.479
30701W        W 3016  35.543  42.453  13.950
30702W        W 3017   9.434  32.582   1.746
30703W        W 3018   6.125  43.435  12.461
30704W        W 3019  42.968  24.453  10.672
30705W        W 3020  27.454  43.103   1.822
30706W        W 3021  29.838   9.286  12.548
30707W        W 3022   9.631  20.295  12.141
30708W        W 3023  21.120  19.538   1.846
30709W        W 3024  44.426  31.596   0.277
30710W        W 3025  25.707  41.847  12.157
30711W        W 3026  17.757  28.646   0.910
30712W        W 3027  14.335   8.452  13.589
30713W        W 3028  24.692  11.188   2.651
30714W        W 3029  12.757   8.569  14.057
30715W        W 3030  39.023  15.227   3.000
30716W        W 3031  43.837   8.919  12.368
30717W        W 3032   1.427  34.329   5.049
30718W        W 3033   6.900  24.041   4.325
30719W        W 3034  13.698  44.838  12.206
30720W        W 3035  27.401  27.291  13.666
30721W        W 3036  35.903   7.150  13.846
30722W        W 3037  14.176  41.539  14.760
30723W        W 3038   8.718  31.053   2.218
30724W        W 3039  22.890  19.603  13.241
30725W        W 3040  28.867  22.825  12.517
30726W        W 3041  26.645  34.651  13.008
30727W        W 3042   2.285  36.978  13.555
30728W        W 3043  36.121  43.626  11.182
30729W        W 3044  33.094   0.004   3.780
30730W        W 3045  27.541   4.192   2.874
30731W        W 3046  39.534  20.481  14.587
30732W        W 3047  32.259   2.852  12.025
30733W        W 3048  13.670  41.052   4.750
30734W        W 3049  21.094  17.780   1.186
30735W        W 3050  41.938   3.719   3.762
30736W        W 3051   8.413   3.155   1.776
30737W        W 3052  41.333  10.252   3.746
30738W        W 3053  31.173   9.612  13.394
30739W        W 3054  11.144  25.954  14.731
30740W        W 3055  34.408  32.016   0.047
30741W        W 3056  23.816  30.983   4.191
30742W        W 3057  26.745   0.045   0.851
30743W        W 3058  17.232  44.718  13.504
30744W        W 3059   9.797   7.800   2.103
30745W        W 3060  34.908  39.091  14.016
30746W        W 3061  10.745  18.068   3.097
30747W        W 3062  32.184   4.709   4.217
30748W        W 3063  43.562  43.380   3.980
30749W        W 3064  19.582  31.553  11.918
30750W        W 3065  26.957  18.866  11.212
30751W        W 3066   8.699   1.420   2.184
30752W        W 3067  32.379   1.508  13.638
30753W        W 3068  11.333  25.546  14.002
30754W        W 3069  43.326  15.732  14.830
30755W        W 3070   8.936  37.602  13.327
30756W        W 3071  19.904  35.372  14.357
30757W        W 3072  14.552  40.281  11.105
30758W        W 3073  24.648   9.906  13.390
30759W        W 3074  30.626  19.846   1.950
30760W        W 3075   3.479  18.144   3.821
30761W        W 3076  32.218  23.974  12.946
30762W        W 3077  16.749  28.430  14.361
30763W        W 3078   9.903  39.867  10.925
30764W        W 3079  23.438  40.304   3.707
30765W        W 3080  18.754   2.157   4.843
30766W        W 3081  14.868   3.324  14.028
30767W        W 3082  43.718  42.718  11.091
30768W        W 3083  11.158  13.055   2.196
30769W        W 3084  31.836  20.950   1.069
30770W        W 3085  31.334   3.955  12.583
30771W        W 3086   1.126  21.180  12.412
30772W        W 3087  39.067  20.233   0.654
30773W        W 3088   7.515  42.547   0.554
30774W        W 3089  39.008  21.677   2.683
30775W        W 3090   7.516  30.390  11.151
30776W        W 3091  19.404  43.491   2.391
30777W        W 3092   1.857  19.678  12.074
30778W        W 3093   5.233  39.980   0.684
30779W        W 3094  26.449  30.665   1.849
30780W        W 3095  10.264   2.475  14.902
30781W        W 3096  44.361  25.823  12.108
30782W        W 3097  13.259  36.629  11.519
30783W        W 3098  13.476  26.607  11.052
30784W        W 3099  43.266  33.170  11.033
30785W        W 3100  10.631   8.376   0.843
30786W        W 3101  18.110  11.851  10.555
30787W        W 3102  36.021   2.322  14.461
30788W        W 3103  14.611  10.419   1.296
30789W        W 3104  25.682   3.296   3.342
30790W        W 3105  36.992   5.891   3.689
30791W        W 3106  21.625  13.147  14.676
30792W        W 3107   1.940  38.273   0.947
30793W        W 3108  19.712   4.991   1.960
30794W        W 3109   9.153  30.943  12.584
30795W        W 3110  27.527  30.469   3.796
30796W        W 3111   5.459   4.247  11.736
30797W        W 3112  44.578  21.799  14.060
30798W        W 3113   4.479  30.382  11.669
30799W        W 3114  12.344  32.892   2.708
30800W        W 3115  25.511  16.994  14.054
30801W        W 3116  35.224  13.203  14.450
30802W        W 3117   9.694  23.215  11.548
30803W        W 3118  27.435  31.021  11.490
30804W        W 3119  28.201   3.324  10.199
30805W        W 3120  16.927  16.403  12.790
30806W        W 3121   4.684  14.416  14.393
30807W        W 3122  20.592   5.571  14.451
30808W        W 3123  12.871  39.072  14.029
30809W        W 3124  21.144  24.197  12.640
30810W        W 3125   4.710  39.974   0.567
30811W        W 3126  29.063   0.952   4.282
30812W        W 3127  28.418  11.856  14.285
30813W        W 3128  28.974  36.451  11.297
30814W        W 3129  10.679  34.232  11.917
30815W        W 3130   6.869  35.950  11.357
30816W        W 3131  29.192   5.618   5.793
30817W        W 3132  21.723  44.697   4.607
30818W        W 3133  36.848  19.240   1.340
30819W        W 3134  33.176   3.609  14.349
30820W        W 3135   9.445  42.086  10.878
30821W        W 3136  25.389   1.664   4.075
30822W        W 3137   7.366  10.031   9.973
30823W        W 3138   8.437  18.049   1.317
30824W        W 3139  23.225   4.152   1.923
30825W        W 3140   7.407  29.459  14.997
30826W        W 3141   1.451  42.340   1.762
30827W        W 3142   1.765   7.941  14.459
30828W        W 3143  44.917   4.277   1.284
30829W        W 3144  21.011  32.886   1.670
30830W        W 3145  10.167  12.825   1.292
30831W        W 3146  19.530   7.459  13.863
30832W        W 3147  33.573   4.876  11.272
30833W        W 3148  40.856   0.277   4.382
30834W        W 3149  22.002  23.112   1.995
30835W        W 3150  36.847   3.865   3.744
30836W        W 3151  12.655  10.082  11.042
30837W        W 3152   9.408   9.338   0.019
30838W        W 3153  11.618  26.141  14.854
30839W        W 3154  16.875  33.605   2.494
30840W        W 3155  36.047  44.211  14.349
30841W        W 3156   4.837   3.721   1.098
30842W        W 3157  32.001  31.178  12.620
30843W        W 3158  14.249  25.042  14.989
30844W        W 3159   4.942  12.196   3.160
30845W        W 3160  11.264  10.244  14.920
30846W        W 3161  19.886  24.090   4.563
30847W        W 3162   6.302  37.346   2.295
30848W        W 3163  25.899  39.118   3.676
30849W        W 3164   2.599   2.060  13.842
30850W        W 3165  35.134  15.160  10.968
30851W        W 3166   4.793  33.085  11.847
30852W        W 3167   2.140  41.733   1.897
30853W        W 3168  26.058  11.893   2.321
30854W        W 3169  43.882  33.713  10.185
30855W        W 3170  16.510   3.767   1.006
30856W        W 3171  10.282  13.169  11.551
30857W        W 3172  15.947  16.663  12.397
30858W        W 3173  39.953   2.778  11.058
30859W        W 3174   2.816  43.741  11.650
30860W        W 3175   7.708  34.862   2.254
30861W        W 3176  14.866  19.644   2.270
30862W        W 3177   7.752  22.360  10.693
30863W        W 3178  30.651  23.978  11.761
30864W        W 3179  36.600  36.042   3.017
30865W        W 3180  28.496  34.019  14.752
30866W        W 3181  40.689  19.808   4.571
30867W        W 3182   5.136  32.475   1.835
30868W        W 3183   0.447  10.114   4.782
30869W        W 3184  34.116  38.652  13.517
30870W        W 3185  26.224  28.225   0.685
30871W        W 3186  30.362   2.917  14.364
30872W        W 3187  30.472  44.840   2.209
30873W        W 3188   2.721   0.655  13.644
30874W        W 3189   7.799  35.447   4.154
30875W        W 3190  34.069  38.067   4.587
30876W        W 3191  10.007  32.647   4.148
30877W        W 3192  26.492  23.601  10.481
30878W        W 3193   0.713  36.039   5.442
30879W        W 3194  43.976  27.206   4.120
30880W        W 3195  39.845   0.327   3.573
30881W        W 3196   6.372  18.224   3.115
30882W        W 3197  36.047   5.420  13.359
30883W        W 3198   4.875  26.559   0.388
30884W        W 3199  13.483  18.638  13.760
30885W        W 3200   7.705  10.495  12.044
30886W        W 3201  39.944  30.963  13.456
30887W        W 3202   0.068  36.840   4.636
30888W        W 3203  10.195  35.901   4.644
30889W        W 3204  20.959  11.651  12.404
30890W        W 3205   1.079  41.996  11.677
30891W        W 3206  31.402   9.837  10.609
30892W        W 3207  27.880  44.739   3.287
30893W        W 3208  11.739  30.282   5.345
30894W        W 3209   6.237  30.427  10.731
30895W        W 3210   5.783  27.944   2.803
30896W        W 3211   3.277  30.104   4.430
30897W        W 3212  23.728  33.388   0.677
30898W        W 3213   6.864  16.337   2.192
30899W        W 3214  38.643  23.948   4.982
30900W        W 3215  43.561  28.054   0.384
30901W        W 3216  32.858   4.269   4.202
30902W        W 3217  20.315  41.856  14.864
30903W        W 3218  16.008  21.233   3.664
30904W        W 3219  14.640   8.959   3.858
30905W        W 3220  19.837  22.037  12.197
30906W        W 3221   6.534  11.802  14.851
30907W        W 3222  37.902  19.091   0.276
30908W        W 3223  26.439   1.532   4.801
30909W        W 3224   0.484  16.045   3.683
30910W        W 3225  17.562  18.389   4.625
30911W        W 3226   4.664  20.015  10.066
30912W        W 3227   1.248  15.558  12.566
30913W        W 3228  41.922  38.586  14.045
30914W        W 3229  31.238  41.532  11.174
30915W        W 3230  31.520  30.429   0.750
30916W        W 3231  37.585  34.522   0.529
30917W        W 3232  29.928  10.842   1.422
30918W        W 3233   6.323   0.322  14.337
30919W        W 3234  33.085   9.567  14.651
30920W        W 3235  18.643  11.314  13.111
30921W        W 3236  35.207  38.793   3.874
30922W        W 3237  43.781  41.752  12.179
30923W        W 3238   6.946  22.063   1.678
30924W        W 3239  25.748  36.989  10.810
30925W        W 3240  35.364   4.246  12.172
30926W        W 3241  30.081  41.995  10.455
30927W        W 3242  36.801  27.815   0.338
30928W        W 3243  33.617  11.812   1.438
30929W        W 3244  17.298   7.695  11.114
30930W        W 3245   9.069   5.983  12.421
30931W        W 3246  29.646  30.747   1.906
30932W        W 3247  38.883  15.156  13.862
30933W        W 3248   8.109  40.964  11.560
30934W        W 3249  16.149  27.513   2.827
30935W        W 3250   8.807   8.268   3.268
30936W        W 3251  27.642  17.433  11.898
30937W        W 3252  20.542  31.558   0.265
30938W        W 3253  27.627  16.383  14.609
30939W        W 3254  10.571  23.980   4.099
30940W        W 3255  15.762  11.218  14.730
30941W        W 3256  26.398  21.775   4.160
30942W        W 3257   3.748  43.740  11.000
30943W        W 3258  39.241   0.558   0.026
30944W        W 3259  23.695  44.454  11.644
30945W        W 3260   7.879  23.252  12.199
30946W        W 3261   0.950  33.268  13.164
30947W        W 3262  12.358  44.359  14.495
30948W        W 3263  23.133   1.377   2.858
30949W        W 3264  29.511  39.843  12.313
30950W        W 3265  21.689  19.050   1.408
30951W        W 3266  38.996  33.414  11.416
30952W        W 3267  27.736  16.425  12.108
30953W        W 3268  31.679   2.302  12.381
30954W        W 3269   8.224  20.062   2.629
30955W        W 3270  40.602  43.043   0.348
30956W        W 3271   4.251  37.612  14.315
30957W        W 3272  29.320  20.477   3.063
30958W        W 3273   8.607  23.951   0.868
30959W        W 3274  26.944  16.854  12.389
30960W        W 3275  26.297  25.567   4.210
30961W        W 3276   1.895  41.918  10.601
30962W        W 3277   6.695  27.053   4.650
30963W        W 3278  43.299  43.998  12.841
30964W        W 3279  42.015  34.083   4.170
30965W        W 3280  15.295   2.927  11.119
30966W        W 3281   8.543  35.038   3.357
30967W        W 3282  40.639  33.493   3.490
30968W        W 3283  21.625  36.115   2.285
30969W        W 3284  23.519  28.895  11.561
30970W        W 3285  20.004  25.072   2.370
30971W        W 3286  23.779   4.182  10.971
30972W        W 3287  32.404  18.362  12.652
30973W        W 3288  12.974  23.847   1.371
30974W        W 3289  41.406  15.517  13.597
30975W        W 3290  17.756  37.102  11.104
30976W        W 3291  43.886  24.677  13.056
30977W        W 3292  38.628  25.657  13.292
30978W        W 3293  36.470  12.326  12.586
30979W        W 3294  12.125  21.691   4.413
30980W        W 3295   7.585  30.983  13.410
30981W        W 3296  21.163  22.197  14.016
30982W        W 3297  22.765   1.141   3.978
30983W        W 3298  31.986  37.896   0.208
30984W        W 3299   3.240   0.022   2.271
30985W        W 3300  23.720  26.538   3.596
30986W        W 3301  16.200   5.768   1.908
30987W        W 3302  34.500   3.033  12.987
30988W        W 3303  37.511  35.718  14.186
30989W        W 3304  42.872  30.753   4.120
30990W        W 3305  37.403  18.441  13.472
30991W        W 3306  37.304  31.363  13.890
30992W        W 3307   7.171  37.336  10.587
30993W        W 3308  40.260  24.542   4.577
30994W        W 3309  15.402   7.846   1.672
30995W        W 3310   0.362  27.405   1.900
30996W        W 3311  29.573  24.141  10.779
30997W        W 3312  28.651  39.581   2.101
30998W        W 3313   1.224  29.901  10.702
30999W        W 3314  10.396   6.786  13.441
31000W        W 3315  20.102  23.054  13.477
31001W        W 3316  11.152  42.204   0.218
31002W        W 3317  17.776  18.541  12.936
31003W        W 3318   3.921  27.039   0.349
31004W        W 3319  16.836  32.391   3.703
31005W        W 3320   8.613   5.279   4.544
31006W        W 3321  19.536   6.177   4.980
31007W        W 3322  21.850  32.787   4.355
31008W        W 3323   8.698  21.179  14.399
31009W        W 3324  25.924  22.235  12.626
31010W        W 3325  30.792   4.227   4.162
31011W        W 3326   1.353   5.444   4.213
31012W        W 3327  24.107  14.603   2.168
31013W        W 3328  36.245  17.470   2.140
31014W        W 3329  22.790  29.080   2.658
31015W        W 3330  35.540   7.126   3.828
31016W        W 3331  23.685   5.976  12.042
31017W        W 3332  25.881  12.261  11.916
31018W        W 3333   5.478   3.538   0.303
31019W        W 3334  25.243   0.418  14.425
31020W        W 3335   7.715  33.662  11.176
31021W        W 3336  33.847  31.085   3.220
31022W        W 3337  44.012   8.088   1.971
31023W        W 3338  11.776  17.488  12.866
31024W        W 3339  19.954  42.868   2.694
31025W        W 3340   1.898  32.669  11.998
31026W        W 3341  37.542  25.011   1.440
31027W        W 3342   2.160   3.959  14.664
31028W        W 3343  37.182  34.542  11.176
31029W        W 3344   0.747   1.508   0.370
31030W        W 3345  28.296  19.514   4.251
31031W        W 3346  28.531   8.712   2.772
31032W        W 3347  30.803  27.448   5.053
31033W        W 3348  41.068  12.672  12.483
31034W        W 3349  37.872  41.029  12.083
31035W        W 3350   0.961  11.629  13.357
31036W        W 3351  35.456  16.523   0.272
31037W        W 3352  16.054  40.017  11.607
31038W        W 3353  17.721  10.824   9.767
31039W        W 3354   1.321   5.209  10.352
31040W        W 3355  43.941  36.770  12.169
31041W        W 3356  37.879   9.116  14.999
31042W        W 3357   5.763   4.952   0.185
31043W        W 3358  44.496  40.249  12.878
31044W        W 3359  35.984  44.257  12.006
31045W        W 3360  33.855  13.491   0.981
31046W        W 3361   9.517  16.441   4.546
31047W        W 3362  17.714  12.034   1.281
31048W        W 3363  12.517  38.577   2.470
31049W        W 3364  32.569   2.821  13.802
31050W        W 3365  28.592  18.460   3.759
31051W        W 3366  41.259   9.768  14.984
31052W        W 3367  38.572  35.923   3.670
31053W        W 3368  37.144   7.673  11.564
31054W        W 3369  13.423  14.730   1.970
31055W        W 3370  20.325  43.474  14.466
31056W        W 3371  29.893  18.689  14.464
31057W        W 3372   5.084   7.104  11.586
31058W        W 3373   4.147  32.660  13.096
31059W        W 3374   8.381  11.540  13.022
31060W        W 3375  26.615  43.079  13.513
31061W        W 3376  37.890  34.569  11.406
31062W        W 3377  12.489  29.257  13.139
31063W        W 3378  25.613  25.938  12.514
31064W        W 3379   2.547  33.145   3.207
31065W        W 3380   4.304  44.185  14.521
31066W        W 3381  14.097  40.904  13.388
31067W        W 3382   5.737   3.999   3.637
31068W        W 3383  42.387  17.088   1.279
31069W        W 3384  29.490  24.963  12.415
31070W        W 3385  11.598   2.834  14.971
31071W        W 3386  21.509  40.657   2.869
31072W        W 3387  16.550  17.326   3.189
31073W        W 3388  26.928  15.251  13.898
31074W        W 3389  14.741  12.256   4.433
31075W        W 3390  35.416  42.113  13.535
31076W        W 3391  44.176  40.934   3.340
31077W        W 3392  34.586   6.522   0.504
31078W        W 3393  12.259  34.825   2.417
31079W        W 3394   2.313   8.236  13.387
31080W        W 3395  11.665  40.327   1.390
31081W        W 3396  17.754  32.312  12.394
31082W        W 3397  38.567   8.197  12.157
31083W        W 3398  26.037  25.194   1.722
31084W        W 3399  36.583   0.760  14.237
31085W        W 3400  40.346   1.409  13.822
31086W        W 3401  36.599  30.980   1.486
31087W        W 3402  42.690  33.329   4.062
31088W        W 3403  16.488  34.134  12.611
31089W        W 3404  17.197  29.083  11.718
31090W        W 3405  16.180  20.641   2.762
31091W        W 3406  40.556  36.037  13.039
31092W        W 3407   3.442  19.233  13.357
31093W        W 3408  17.819  14.196  12.470
31094W        W 3409   9.664   3.341   3.690
31095W        W 3410   2.861  11.677  10.916
31096W        W 3411  14.666  25.108   0.808
31097W        W 3412   2.331  30.965  13.999
31098W        W 3413  44.038  11.191  11.972
31099W        W 3414  25.173  29.090   1.926
31100W        W 3415  30.925   0.789   3.763
31101W        W 3416  35.001   1.419  12.017
31102W        W 3417  26.998  36.060  13.122
31103W        W 3418   8.684  20.615   4.174
31104W        W 3419  39.740  26.219  13.004
31105W        W 3420  17.301  18.777   0.267
31106W        W 3421  10.190  43.034   1.383
31107W        W 3422  42.539   3.368  13.086
31108W        W 3423  27.033   8.558   4.535
31109W        W 3424  33.653  31.572  12.990
31110W        W 3425   6.258  39.656  13.325
31111W        W 3426  27.403  44.282   4.091
31112W        W 3427  30.359   8.437  12.439
31113W        W 3428   7.154  33.111  14.421
31114W        W 3429  34.851   2.654   2.716
31115W        W 3430  15.864   5.166  11.016
31116W        W 3431   7.868   6.045   4.574
31117W        W 3432  22.692  44.293   1.952
31118W        W 3433  22.397  28.250  13.452
31119W        W 3434  16.668   7.953  13.357
31120W        W 3435  32.958  11.115  11.393
31121W        W 3436  27.122  28.255  13.248
31122W        W 3437  36.783  19.652  14.314
31123W        W 3438  25.508   5.311   0.371
31124W        W 3439  24.540   6.176  14.435
31125W        W 3440  19.427  17.327  11.658
31126W        W 3441  23.443  27.997   9.835
31127W        W 3442  34.401  36.574   4.530
31128W        W 3443  37.369   1.283  11.824
31129W        W 3444  41.983  39.948   0.734
31130W        W 3445   7.643  11.007   0.781
31131W        W 3446  40.383   0.157   0.926
31132W        W 3447  27.786  12.828  13.207
31133W        W 3448  32.104  38.796   4.515
31134W        W 3449  15.584  25.610   2.669
31135W        W 3450  14.971  25.279  11.620
31136W        W 3451  31.821  24.870  11.704
31137W        W 3452  11.619   1.235   3.197
31138W        W 3453  34.548  16.608   4.039
31139W        W 3454  34.075  34.005  13.552
31140W        W 3455  10.874  22.440  10.964
31141W        W 3456   1.188   3.595  12.466
31142W        W 3457  20.715  23.449  14.032
31143W        W 3458  21.829  35.324   3.273
31144W        W 3459   0.022  11.678  11.133
31145W        W 3460  22.001  30.198  14.496
31146W        W 3461  18.109  14.650  11.856
31147W        W 3462  36.420  43.459  14.078
31148W        W 3463   7.208  36.561  13.069
31149W        W 3464  38.478   1.528  14.312
31150W        W 3465  33.798  16.746  14.826
31151W        W 3466  20.531  23.607  11.601
31152W        W 3467  13.579  43.274  12.078
31153W        W 3468  15.543  26.406   3.067
31154W        W 3469   1.937  27.671   3.751
31155W        W 3470   7.877  23.866   1.733
31156W        W 3471  14.679  35.777  11.879
31157W        W 3472   7.683  26.555   0.947
31158W        W 3473   3.204  30.461  12.876
31159W        W 3474  42.262  40.439  14.043
31160W        W 3475  18.472  33.398   1.687
31161W        W 3476  39.533  15.199  12.636
31162W        W 3477   4.281  19.648  12.635
31163W        W 3478   1.277   7.244   4.822
31164W        W 3479  12.646  30.074   3.341
31165W        W 3480  38.960  30.485  13.159
31166W        W 3481  25.328  25.597  14.246
31167W        W 3482  31.052  22.763  11.963
31168W        W 3483  36.034  18.606  12.834
31169W        W 3484  17.698  25.284  12.928
31170W        W 3485  17.774  23.196   0.438
31171W        W 3486   7.750  39.379   1.007
31172W        W 3487  37.519  39.277   2.183
31173W        W 3488  22.082  44.936   0.013
31174W        W 3489  15.368   4.769  14.402
31175W        W 3490  31.580  20.031  13.048
31176W        W 3491   6.199  25.110   2.399
31177W        W 3492   5.898  39.530  14.204
31178W        W 3493  10.607  32.501   0.834
31179W        W 3494  37.096  25.411  11.617
31180W        W 3495  19.056  36.856   3.798
31181W        W 3496  19.993  33.991   4.112
31182W        W 3497  20.121  38.097  14.360
31183W        W 3498  35.946  14.127   3.631
31184W        W 3499   4.436  43.160  12.967
31185W        W 3500  12.317  42.086   0.079
31186W        W 3501   7.137  36.682  11.352
31187W        W 3502  33.652  20.485   2.426
31188W        W 3503  39.025  25.450   4.578
31189W        W 3504   8.180  17.606   1.322
31190W        W 3505  23.653  18.188  12.814
31191W        W 3506  10.654  12.631  13.472
31192W        W 3507  11.491   1.987   3.659
31193W        W 3508  23.062  35.183  10.806
31194W        W 3509  42.354  27.648  12.561
31195W        W 3510  19.357  21.754  14.554
31196W        W 3511  10.197  14.888  13.761
31197W        W 3512  39.671  22.835   2.732
31198W        W 3513  20.681  19.542  12.923
31199W        W 3514  27.500  33.347   1.302
31200W        W 3515  26.122  13.786   2.650
31201W        W 3516  34.436  44.817   4.125
31202W        W 3517  12.314  39.233  12.856
31203W        W 3518   0.301  26.466   2.186
31204W        W 3519  19.445  32.016   3.977
31205W        W 3520  28.587  29.468   0.882
31206W        W 3521  39.374  22.754   2.312
31207W        W 3522  18.741   5.094  14.563
31208W        W 3523  39.442  42.969   2.129
31209W        W 3524  40.963  37.683   1.129
31210W        W 3525  36.376   5.324   2.802
31211W        W 3526  16.506  21.130   3.444
31212W        W 3527  11.413  34.049   0.423
31213W        W 3528  30.377  36.280   3.989
31214W        W 3529  33.678  40.522   0.850
31215W        W 3530  40.392   5.686  12.372
31216W        W 3531  11.332  27.541   1.378
31217W        W 3532  43.979  32.033   3.150
31218W        W 3533   8.665  18.367   1.663
31219W        W 3534  41.028  33.130  12.336
31220W        W 3535  23.713  41.305   2.036
31221W        W 3536  38.736  16.839  14.786
31222W        W 3537   7.707  40.586  11.620
31223W        W 3538  30.569   7.100  14.041
31224W        W 3539   7.205  41.266  11.427
31225W        W 3540   8.163   5.144   2.241
31226W        W 3541   1.202  13.838  11.912
31227W        W 3542  17.354  31.402   2.633
31228W        W 3543   9.607   7.274  13.533
31229W        W 3544  33.466  14.757  12.687
31230W        W 3545   8.657  14.878   0.141
31231W        W 3546   7.351  42.640   4.212
31232W        W 3547  32.550  36.487  10.717
31233W        W 3548  24.107  12.039  12.153
31234W        W 3549  16.744   7.034   1.071
31235W        W 3550  12.797   9.917   3.622
31236W        W 3551  18.682  40.800   2.172
31237W        W 3552  35.397   3.590  11.563
31238W        W 3553  31.139  13.642   3.693
31239W        W 3554  17.932   7.693  12.875
31240W        W 3555   8.772  36.266  11.249
31241W        W 3556   0.845  21.204  11.951
31242W        W 3557  24.291  26.935   0.767
31243W        W 3558  26.388  20.163   3.299
31244W        W 3559   9.622  27.552   4.709
31245W        W 3560   7.838  13.150   2.525
31246W        W 3561  20.033  19.078   2.251
31247W        W 3562  42.454  39.564   3.246
31248W        W 3563  39.090  40.456  14.378
31249W        W 3564  21.200  20.124   3.253
31250W        W 3565  41.409  18.581  13.939
31251W        W 3566  21.687  40.773  11.806
31252W        W 3567  16.659  10.971   1.361
31253W        W 3568  16.888   9.919  14.464
31254W        W 3569  36.969   5.963   2.846
31255W        W 3570   0.896  28.591   0.251
31256W        W 3571   6.689   9.633  10.994
31257W        W 3572  24.501  21.982  14.443
31258W        W 3573  33.723   8.325   2.625
31259W        W 3574  31.564  34.502  12.642
31260W        W 3575  27.234  19.298  11.126
31261W        W 3576   7.834  41.157   1.799
31262W        W 3577   0.167  36.167   4.147
31263W        W 3578  14.868  12.335   4.925
31264W        W 3579  31.543   4.236   2.134
31265W        W 3580  25.088   3.921   1.383
31266W        W 3581  14.820   3.206   4.205
31267W        W 3582  29.408  23.143  13.056
31268W        W 3583  17.716  16.849   3.371
31269W        W 3584  21.069   1.736   0.846
31270W        W 3585   1.423  37.131   4.997
31271W        W 3586  29.222   6.259  11.175
31272W        W 3587  10.657  43.846  14.724
31273W        W 3588  13.248  39.493   0.077
31274W        W 3589  39.820  29.487  14.378
31275W        W 3590  42.867  42.931  13.991
31276W        W 3591  33.230   2.831  11.911
31277W        W 3592  23.659  36.509   2.419
31278W        W 3593   1.514  37.352   1.196
31279W        W 3594  33.630  42.573  13.809
31280W        W 3595  14.077  38.578   2.363
31281W        W 3596  16.747  44.314  14.688
31282W        W 3597  20.142   6.666   3.573
31283W        W 3598  12.818  21.813  13.399
31284W        W 3599  30.885   9.901  10.689
31285W        W 3600  34.911  37.056   4.237
31286W        W 3601  39.046  44.418  11.947
31287W        W 3602  41.407   7.460  11.578
31288W        W 3603  13.716  37.525   2.679
31289W        W 3604   9.489  43.821   1.900
31290W        W 3605   3.325  17.799  13.072
31291W        W 3606   4.422  18.183  14.288
31292W        W 3607  10.946  28.389   3.724
31293W        W 3608   4.280  10.689  14.023
31294W        W 3609  39.951  31.805  11.031
31295W        W 3610  14.635  11.343   4.547
31296W        W 3611  13.054   2.226  11.074
31297W        W 3612  21.293  28.160   0.514
31298W        W 3613  18.613  39.004   1.173
31299W        W 3614  41.051  12.205  12.781
31300W        W 3615  33.447  43.131  12.192
31301W        W 3616  26.949   4.890   4.875
31302W        W 3617   5.387  22.169  11.006
31303W        W 3618   4.281  31.629  10.706
31304W        W 3619  20.129  21.174   1.650
31305W        W 3620  12.324   1.368  13.071
31306W        W 3621  22.186  19.594   0.286
31307W        W 3622   1.215  39.931  10.669
31308W        W 3623  36.100  11.889   0.941
31309W        W 3624  23.540  42.300   4.090
31310W        W 3625  34.133  33.497  10.963
31311W        W 3626   2.251   9.262   3.200
31312W        W 3627  11.612  25.243  11.607
31313W        W 3628   0.170  24.353  14.331
31314W        W 3629   0.777  39.094   2.556
31315W        W 3630   5.184  19.784  12.687
31316W        W 3631  18.068  18.186   2.220
31317W        W 3632  16.656  11.949   0.957
31318W        W 3633  13.123  28.775   3.007
31319W        W 3634  36.536  10.373  12.448
31320W        W 3635  27.819   7.831   2.760
31321W        W 3636   6.138  10.609   4.253
31322W        W 3637  21.932   8.488   3.163
31323W        W 3638   1.733  32.485  14.023
31324W        W 3639   8.264   4.326  13.363
31325W        W 3640  29.461  41.524   2.942
31326W        W 3641  20.792  31.115   0.725
31327W        W 3642  38.506   8.049   0.414
31328W        W 3643  39.565  31.508   2.763
31329W        W 3644  20.763  21.041  14.458
31330W        W 3645  24.699  20.317   5.242
31331W        W 3646  28.963   4.426  13.322
31332W        W 3647   6.316  34.112   1.310
31333W        W 3648  11.441  41.010   4.351
31334W        W 3649  24.214  21.936  13.878
31335W        W 3650  18.482   7.892  11.987
31336W        W 3651   2.428   7.086   0.343
31337W        W 3652  13.843  30.201   2.655
31338W        W 3653   4.524  13.781   0.048
31339W        W 3654  32.216  16.820  11.959
31340W        W 3655  25.610  32.937  12.143
31341W        W 3656  14.701  41.308   2.700
31342W        W 3657  38.933  18.540   0.486
31343W        W 3658  42.386  13.680  11.202
31344W        W 3659  22.107  26.176   1.729
31345W        W 3660   8.476  31.206  13.265
31346W        W 3661  14.634  15.611   2.299
31347W        W 3662  37.503   3.513   4.134
31348W        W 3663  35.528  41.596  13.402
31349W        W 3664  38.270   6.429   3.941
31350W        W 3665  20.506  28.608   2.715
31351W        W 3666  37.073   2.267   1.362
31352W        W 3667  29.337  22.774   4.624
31353W        W 3668  36.872  19.122  10.863
31354W        W 3669   9.221   8.689  10.843
31355W        W 3670   2.465  30.683  11.605
31356W        W 3671  31.485  23.603  14.706
31357W        W 3672   6.140  23.569  14.969
31358W        W 3673  25.602  38.304  14.740
31359W        W 3674  15.270  19.653   0.819
31360W        W 3675  26.576   6.010   9.943
31361W        W 3676  21.304  10.266   3.468
31362W        W 3677  21.526  38.317  10.678
31363W        W 3678   7.965  15.896  11.978
31364W        W 3679  10.587  19.134  12.527
31365W        W 3680  34.360   5.463  12.964
31366W        W 3681   6.350  20.044  14.929
31367W        W 3682  27.712   2.613   2.601
31368W        W 3683  30.942  43.704  13.592
31369W        W 3684  36.073  10.627  10.932
31370W        W 3685  22.632  40.529  11.043
31371W        W 3686  24.153  39.611  14.561
31372W        W 3687   2.256   8.619  11.682
31373W        W 3688   5.075  39.566   1.985
31374W        W 3689  14.817  38.306  13.661
31375W        W 3690  12.563  25.417  12.112
31376W        W 3691  41.025   3.730  12.546
31377W        W 3692  19.014  39.345   2.825
31378W        W 3693  34.420  43.477  13.781
31379W        W 3694  24.771  34.021  11.421
31380W        W 3695  25.637  37.117   3.239
31381W        W 3696  26.168   5.612   3.109
31382W        W 3697  43.417   1.671   1.447
31383W        W 3698  36.891  11.267   3.248
31384W        W 3699  27.521  38.372  12.550
31385W        W 3700  42.873  31.630  14.007
31386W        W 3701   5.418  43.319   2.811
31387W        W 3702  17.043   1.660   1.392
31388W        W 3703  44.824  25.485   0.758
31389W        W 3704   2.447  17.909  13.036
31390W        W 3705  31.980  18.553  12.925
31391W        W 3706  31.876  16.781  11.560
31392W        W 3707  28.079  43.904   3.381
31393W        W 3708  37.909  33.928   1.460
31394W        W 3709   9.962  20.646   3.788
31395W        W 3710  13.353   1.732   0.113
31396W        W 3711  31.068  28.706   2.441
31397W        W 3712  16.286  19.259  10.595
31398W        W 3713  20.669   0.538  14.393
31399W        W 3714  18.840  20.566   2.326
31400W        W 3715   5.393   7.303   4.422
31401W        W 3716  42.423   9.308   4.125
31402W        W 3717   1.146  13.276  11.950
31403W        W 3718  37.673   0.397  10.940
31404W        W 3719  19.436  30.208   4.353
31405W        W 3720  12.810  17.082  11.123
31406W        W 3721  10.593  42.385  13.859
31407W        W 3722   6.355  28.922   3.405
31408W        W 3723  38.318  28.096   1.702
31409W        W 3724  36.013   0.303   2.403
31410W        W 3725  11.627   4.476  11.982
31411W        W 3726  23.285  42.749  10.204
31412W        W 3727   7.212  29.498  14.088
31413W        W 3728  24.275   7.121   3.658
31414W        W 3729  14.715  28.659  13.808
31415W        W 3730  12.958   0.393  14.486
31416W        W 3731  15.401  20.774   4.088
31417W        W 3732  28.191  40.361   1.470
31418W        W 3733   5.875  10.797  14.265
31419W        W 3734  17.266  34.983   3.700
31420W        W 3735  29.530  21.104   2.447
31421W        W 3736  16.614  22.156  13.568
31422W        W 3737  36.502   7.416   0.991
31423W        W 3738  13.886  10.272  14.031
31424W        W 3739   7.793   1.015  11.420
31425W        W 3740   0.760  12.854  10.642
31426W        W 3741  12.125  30.603  14.387
31427W        W 3742  33.309  34.483  11.439
31428W        W 3743   2.999  14.589   3.985
31429W        W 3744  16.065   0.885   1.736
31430W        W 3745  30.000   8.180  14.561
31431W        W 3746  21.374  27.401  12.451
31432W        W 3747  35.296  14.652  12.497
31433W        W 3748  28.654  25.101  11.721
31434W        W 3749  26.232  37.155   1.189
31435W        W 3750   3.209   9.295   3.597
31436W        W 3751  28.257  37.063   3.997
31437W        W 3752  15.315  33.989   1.822
31438W        W 3753  16.294  41.064  14.928
31439W        W 3754   6.008  41.797  13.864
31440W        W 3755   3.339  10.720   4.613
31441W        W 3756  24.020  19.584  12.569
31442W        W 3757   4.284  34.924   0.958
31443W        W 3758  29.992  36.337   4.334
31444W        W 3759  37.919  12.530  13.796
31445W        W 3760  12.292  35.372  13.851
31446W        W 3761  29.619  18.179  13.645
31447W        W 3762   0.478  33.064  10.837
31448W        W 3763  37.011   6.642  11.169
31449W        W 3764  29.801   6.910   3.882
31450W        W 3765   9.670  33.544   3.282
31451W        W 3766  21.211  10.788  12.452
31452W        W 3767  38.248  43.302   4.512
31453W        W 3768  22.444  29.041  12.477
31454W        W 3769   5.945   3.143   1.719
31455W        W 3770  43.333  41.734  14.991
31456W        W 3771  15.400  42.248  14.437
31457W        W 3772  26.026  12.338   4.046
31458W        W 3773  28.087  30.621  10.973
31459W        W 3774  19.192   5.771   2.393
31460W        W 3775   7.557  38.753  12.758
31461W        W 3776  21.755  10.801  13.675
31462W        W 3777  13.038   1.496   3.802
31463W        W 3778   9.914  30.400  14.543
31464W        W 3779  14.330  39.255  11.540
31465W        W 3780  43.456  24.612  10.826
31466W        W 3781  43.523  36.545  13.085
31467W        W 3782   8.599  23.254   0.056
31468W        W 3783  12.646  40.406   2.987
31469W        W 3784  21.823  36.369  13.968
31470W        W 3785  29.573  24.992  13.283
31471W        W 3786   2.817   2.196  13.388
31472W        W 3787  13.482  15.573   0.909
31473W        W 3788  29.402  18.332   3.306
31474W        W 3789   7.582  29.313  14.463
31475W        W 3790   4.017  25.202  11.593
31476W        W 3791  24.768  37.796   1.013
31477W        W 3792  44.394  42.466   3.792
31478W        W 3793  13.630  41.077  13.873
31479W        W 3794   3.209  36.925  11.125
31480W        W 3795  21.795   0.682   2.751
31481W        W 3796  37.942   3.007   3.110
31482W        W 3797  36.246  16.233   3.765
31483W        W 3798  38.122   5.787  11.596
31484W        W 3799  41.973  28.671   0.786
31485W        W 3800  35.061  43.810  14.344
31486W        W 3801  14.157  25.221   1.852
31487W        W 3802  33.563  29.004  11.966
31488W        W 3803   3.930   6.710   1.708
31489W        W 3804  22.100  33.604  10.743
31490W        W 3805   3.865  20.818  12.870
31491W        W 3806  11.296   0.723   4.587
31492W        W 3807  36.923  25.068  11.018
31493W        W 3808  34.998  27.551   4.594
31494W        W 3809  25.080  35.830   4.256
31495W        W 3810  43.503  12.251   4.612
31496W        W 3811  34.382  36.736   2.378
31497W        W 3812  24.924   0.715  11.943
31498W        W 3813  28.243   6.632   1.334
31499W        W 3814  28.289   6.803   1.852
31500W        W 3815  10.604   2.253  12.833
31501W        W 3816  12.289  29.582  13.485
31502W        W 3817   6.179   8.780  12.000
31503W        W 3818  18.714  12.016  11.690
31504W        W 3819  41.341  21.189  10.709
31505W        W 3820  24.075  42.070  13.387
31506W        W 3821  10.777   2.401   3.247
31507W        W 3822  43.265  22.557   2.895
31508W        W 3823  38.483  22.642  12.308
31509W        W 3824   8.819  33.137  11.080
31510W        W 3825  36.314  35.630   2.730
31511W        W 3826  13.146   3.552   2.000
31512W        W 3827  30.287  18.232  14.418
31513W        W 3828   0.258   7.209   3.743
31514W        W 3829  19.301  26.853   0.939
31515W        W 3830   4.269  19.757  10.941
31516W        W 3831  31.057  44.973  14.000
31517W        W 3832  11.655  38.005  13.109
31518W        W 3833  17.184  19.238  14.340
31519W        W 3834  36.811  12.673  11.489
31520W        W 3835  16.593  29.837   2.390
31521W        W 3836  25.877  16.354  11.269
31522W        W 3837  24.282  14.921   2.902
31523W        W 3838  31.575  11.128  14.866
31524W        W 3839  26.034  21.938  13.914
31525W        W 3840  24.785  19.087   1.800
31526W        W 3841   2.030  17.320   3.342
31527W        W 3842  11.250  36.011  10.700
31528W        W 3843   6.894  35.374   2.657
31529W        W 3844  22.690  17.027   4.471
31530W        W 3845  44.861   0.951  10.572
31531W        W 3846  25.443  35.205   1.264
31532W        W 3847  22.699  42.014   3.640
31533W        W 3848  10.344   8.214  13.083
31534W        W 3849  41.796   2.436   2.423
31535W        W 3850  32.644  25.881  11.185
31536W        W 3851   6.861  21.336  12.124
31537W        W 3852  19.489  44.695   3.271
31538W        W 3853   8.806  18.544  12.216
31539W        W 3854  38.647  19.524   0.199
31540W        W 3855  36.975  12.970   0.698
31541W        W 3856  11.170  10.190  13.516
31542W        W 3857  35.288  15.040   2.774
31543W        W 3858  29.866  35.014  12.288
31544W        W 3859  35.869  22.236  14.633
31545W        W 3860  28.549  29.432   4.821
31546W        W 3861  33.202  19.322   4.105
31547W        W 3862  30.117  20.304   0.037
31548W        W 3863  16.122  28.949  11.035
31549W        W 3864  23.102  12.310   4.576
31550W        W 3865  26.129  38.866   4.625
31551W        W 3866  24.728   7.736   4.853
31552W        W 3867   3.701  13.752  13.889
31553W        W 3868  34.642   9.199  10.740
31554W        W 3869  12.129   6.751  12.626
31555W        W 3870  28.129  44.344   3.077
31556W        W 3871  35.549  20.834   4.093
31557W        W 3872   6.464  10.592  13.452
31558W        W 3873   1.090  34.466  11.021
31559W        W 3874   9.862   5.835  10.674
31560W        W 3875  37.224  14.196  12.543
31561W        W 3876  15.691  29.578  10.416
31562W        W 3877  25.625  21.413  12.619
31563W        W 3878   2.254  19.708  14.709
31564W        W 3879  25.463  32.544   4.596
31565W        W 3880  20.657   7.576  12.000
31566W        W 3881   9.178  25.746  12.585
31567W        W 3882  16.188   7.477  10.410
31568W        W 3883  12.051  27.558   3.796
31569W        W 3884   2.409  25.107   4.260
31570W        W 3885  17.665  20.988   3.599
31571W        W 3886   4.152   9.181  14.925
31572W        W 3887   0.262  26.867   4.844
31573W        W 3888  22.239  15.070  12.065
31574W        W 3889  37.094  29.204   4.086
31575W        W 3890  33.785  29.443   1.736
31576W        W 3891   8.811   3.749   0.412
31577W        W 3892  13.638   5.936  12.603
31578W        W 3893  33.818   6.685  14.025
31579W        W 3894  34.228  30.625  12.403
31580W        W 3895  18.200  44.307  12.424
31581W        W 3896  39.638  24.346   9.912
31582W        W 3897   5.983  12.679   3.692
31583W        W 3898  27.582  10.635   3.826
31584W        W 3899  22.044  11.097  14.043
31585W        W 3900  21.629  14.574  13.088
31586W        W 3901   3.549  25.944  14.433
31587W        W 3902  41.833  27.214   4.460
31588W        W 3903  13.255  30.311   4.666
31589W        W 3904  32.850   9.329   4.638
31590W        W 3905  38.644  31.480   4.424
31591W        W 3906  44.354  34.116   5.011
31592W        W 3907  13.108  30.855  14.412
31593W        W 3908  11.207  38.800  13.030
31594W        W 3909  35.759  29.021   2.897
31595W        W 3910  11.618  14.563   2.343
31596W        W 3911  43.397   6.030  11.614
31597W        W 3912  11.183  26.070  13.347
31598W        W 3913  40.729   3.261   4.494
31599W        W 3914   6.978   9.788   1.861
31600W        W 3915  17.079  41.815  11.595
31601W        W 3916  14.678   9.061  13.657
31602W        W 3917  30.870   2.960  14.387
31603W        W 3918  28.459  33.047  14.977
31604W        W 3919  19.038  36.165  13.476
31605W        W 3920   3.441  20.710   2.848
31606W        W 3921   3.418  12.400  11.222
31607W        W 3922  14.840  33.073   1.604
31608W        W 3923  27.539   5.269   4.328
31609W        W 3924  34.821  17.215   1.332
31610W        W 3925  26.430  29.895  12.394
31611W        W 3926  10.228  23.047   4.616
31612W        W 3927  25.302   6.171   4.289
31613W        W 3928  19.845  11.881  11.526
31614W        W 3929   0.300  44.320  12.102
31615W        W 3930  38.030  37.963   1.763
31616W        W 3931   2.874  39.065   0.080
31617W        W 3932  26.041   8.431   0.536
31618W        W 3933  32.524  24.600  12.987
31619W        W 3934  29.713  22.159   0.046
31620W        W 3935  44.843   3.454  13.092
31621W        W 3936  10.728  38.527  11.385
31622W        W 3937  12.400   9.435   0.855
31623W        W 3938  44.632   8.288  12.308
31624W        W 3939  23.853  14.691  14.744
31625W        W 3940  40.579  14.121  14.851
31626W        W 3941  22.725  40.157   1.986
31627W        W 3942  12.749  14.554   0.339
31628W        W 3943  26.621   1.274   2.814
31629W        W 3944  21.034  32.865   3.215
31630W        W 3945  25.721   4.255  14.427
31631W        W 3946  44.945   2.902  14.255
31632W        W 3947  23.458  13.830  12.302
31633W        W 3948   5.274   5.897   2.737
31634W        W 3949   3.143  15.683  13.831
31635W        W 3950  18.915  14.105   5.110
31636W        W 3951   4.337  25.124   0.194
31637W        W 3952  18.179  19.048   0.620
31638W        W 3953  36.521  17.192   4.515
31639W        W 3954   2.144  15.557  13.793
31640W        W 3955  36.305  25.713   3.694
31641W        W 3956  20.247  23.274   3.753
31642W        W 3957  39.688   6.434   1.535
31643W        W 3958   7.245  37.340   4.066
31644W        W 3959  36.361  18.156   0.199
31645W        W 3960  41.708  16.836   3.557
31646W        W 3961  23.617  14.500  13.854
31647W        W 3962  33.851  37.042   4.120
31648W        W 3963  38.095  33.523   4.001
31649W        W 3964  20.545  35.331   4.846
31650W        W 3965  30.907   0.727   1.317
31651W        W 3966  31.450  41.549   1.726
31652W        W 3967   3.920  37.052   1.869
31653W        W 3968  33.877  29.098  14.418
31654W        W 3969  18.612   2.809   0.954
31655W        W 3970   7.991   3.460   1.722
31656W        W 3971  39.029  42.746   2.394
31657W        W 3972  30.928   3.966  14.312
31658W        W 3973  12.866  20.926   4.997
31659W        W 3974   7.655  26.871   1.363
31660W        W 3975  18.771  28.450   1.581
31661W        W 3976  11.109  12.737  14.349
31662W        W 3977   3.631  29.557  14.974
31663W        W 3978  43.855  15.202   0.291
31664W        W 3979   3.293  12.669  11.655
31665W        W 3980  17.249  11.219  12.942
31666W        W 3981  42.962  25.516  11.530
31667W        W 3982  38.044  37.062  13.533
31668W        W 3983   6.292   4.242  10.856
31669W        W 3984   7.933  34.052   3.400
31670W        W 3985  27.944  40.450   2.897
31671W        W 3986  29.937  31.042  13.029
31672W        W 3987  15.141  12.907  13.386
31673W        W 3988   0.945  32.536   3.644
31674W        W 3989  12.767  21.342   0.278
31675W        W 3990  19.251  21.703  12.591
31676W        W 3991  31.989  31.910  11.565
31677W        W 3992  33.875  12.048  13.555
31678W        W 3993  43.873  20.048   3.903
31679W        W 3994  32.498   0.996  12.031
31680W        W 3995  38.562  32.761   4.052
31681W        W 3996  30.109   9.205  12.104
31682W        W 3997  26.800  27.521  14.621
31683W        W 3998  33.886  19.082  14.975
31684W        W 3999  17.764  44.785  11.695
31685W        W 4000  17.501  24.658  14.912
31686W        W 4001  11.444  16.340   5.537
31687W        W 4002  22.202  21.222   4.618
31688W        W 4003  39.081  31.135   0.611
31689W        W 4004  20.131  39.083   1.861
31690W        W 4005  17.126  29.235   1.183
31691W        W 4006  30.607  13.816  12.451
31692W        W 4007   9.138  17.233   3.978
31693W        W 4008   5.421  30.092   1.398
31694W        W 4009  33.485  11.301  10.681
31695W        W 4010  38.512  26.003   4.966
31696W        W 4011   8.154  25.601  12.087
31697W        W 4012  11.711   4.816  12.346
31698W        W 4013  37.845  27.301  14.763
31699W        W 4014  15.069   3.635  11.480
31700W        W 4015  27.085   5.811  14.761
31701W        W 4016  34.023  21.176   2.147
31702W        W 4017   3.231   6.427   0.063
31703W        W 4018   2.846  30.325  14.700
31704W        W 4019  30.481   2.756   4.401
31705W        W 4020  27.486  28.449  14.939
31706W        W 4021  32.637   1.919   4.217
31707W        W 4022  27.063  16.384   0.782
31708W        W 4023  10.708  18.545  13.001
31709W        W 4024   6.119   9.684  12.550
31710W        W 4025  35.885  41.028  14.878
31711W        W 4026  38.953  34.344  10.387
31712W        W 4027  12.706  13.657   4.966
31713W        W 4028  25.702  41.038   2.744
31714W        W 4029   3.540  17.663   2.412
31715W        W 4030  40.041  37.817  10.634
31716W        W 4031  31.924  12.194  12.407
31717W        W 4032  35.416   5.444  11.103
31718W        W 4033  40.657  19.298   4.456
31719W        W 4034  38.809  33.427  11.917
31720W        W 4035  38.444  13.308   2.768
31721W        W 4036  25.167   0.819   1.414
31722W        W 4037   8.185  31.087  14.241
31723W        W 4038  42.934  32.093   2.367
31724W        W 4039  22.749   3.192  13.108
31725W        W 4040  25.261  12.564  14.792
31726W        W 4041  12.397  37.433   3.954
31727W        W 4042  42.270   4.460  14.510
31728W        W 4043  26.501  38.311  12.581
31729W        W 4044  12.365   4.350  11.452
31730W        W 4045  35.453  35.327   4.268
31731W        W 4046  36.526  39.563   3.081
31732W        W 4047   5.527  23.303  13.868
31733W        W 4048   9.803  43.524  13.359
31734W        W 4049  20.034   1.515   2.673
31735W        W 4050  18.369   1.478  11.533
31736W        W 4051  34.723  22.787  14.855
31737W        W 4052  15.232  43.159   4.431
31738W        W 4053  35.338  33.054   4.684
31739W        W 4054  44.788  37.419   4.652
31740W        W 4055  15.787  16.588   0.745
31741W        W 4056   8.599  12.049  12.855
31742W        W 4057  35.101  20.488   0.774
31743W        W 4058  31.002  11.827   3.176
31744W        W 4059  14.292  43.321   2.672
31745W        W 4060  39.660  23.355   2.757
31746W        W 4061  44.941   4.668  11.611
31747W        W 4062  18.728   4.352  14.789
31748W        W 4063   0.248  31.444  11.632
31749W        W 4064  44.395  43.824  11.989
31750W        W 4065  32.345  43.428  11.980
31751W        W 4066  39.230   9.199  14.100
31752W        W 4067  28.102  40.090   4.630
31753W        W 4068  35.873  40.248   0.569
31754W        W 4069  16.607  22.748  11.093
31755W        W 4070  22.448   8.459   2.672
31756W        W 4071  23.668  12.332   4.029
31757W        W 4072  22.676  17.190  14.035
31758W        W 4073  21.527  26.395  14.448
31759W        W 4074   3.474  17.636   1.225
31760W        W 4075  18.280   1.074   4.320
31761W        W 4076  32.827  12.335   3.066
31762W        W 4077   3.965  35.530   2.819
31763W        W 4078  39.954  43.411  10.722
31764W        W 4079  28.826  16.806   2.593
31765W        W 4080  27.503   0.712   0.336
31766W        W 4081   6.442  16.241  12.402
31767W        W 4082  15.855  11.215  10.724
31768W        W 4083  41.542   5.620   0.789
31769W        W 4084   3.534  33.969  14.005
31770W        W 4085  16.083  44.991  13.150
31771W        W 4086  43.967  33.914  14.417
31772W        W 4087  36.904  10.599   0.472
31773W        W 4088  25.815  20.644  12.504
31774W        W 4089  43.027  24.520   4.772
31775W        W 4090   1.103   9.627   3.285
31776W        W 4091   8.827   3.837   1.271
31777W        W 4092  40.595  38.918   1.914
31778W        W 4093   7.520  38.279   2.663
31779W        W 4094  27.688  23.991  13.393
31780W        W 4095   9.164  17.753  11.137
31781W        W 4096  22.993   5.957   3.627
31782W        W 4097   0.913   6.780  13.794
31783W        W 4098   7.248  28.010   3.343
31784W        W 4099   8.727  16.996   3.747
31785W        W 4100  19.580  35.502  13.437
31786W        W 4101  29.625  23.211   2.363
31787W        W 4102  44.323   5.385  11.606
31788W        W 4103  23.344  42.294  14.077
31789W        W 4104  18.283   9.497   0.411
31790W        W 4105  37.815  23.247   2.322
31791W        W 4106  27.492  37.395   3.822
31792W        W 4107   3.248   5.345  11.541
31793W        W 4108  44.112  28.029  13.743
31794W        W 4109   7.432   8.317  12.405
31795W        W 4110  33.166   1.967   4.353
31796W        W 4111  44.447   6.148   1.875
31797W        W 4112  29.917  22.628  13.372
31798W        W 4113  11.146  11.876   3.828
31799W        W 4114   8.930  19.642  14.969
31800W        W 4115  41.548  44.812   2.757
31801W        W 4116  14.863  10.182   0.391
31802W        W 4117  22.173   5.466  13.724
31803W        W 4118  24.802  41.743  13.056
31804W        W 4119  42.529   5.281  11.640
31805W        W 4120   3.979  17.409   0.462
31806W        W 4121  18.114   5.795  14.734
31807W        W 4122  14.400  25.073  10.737
31808W        W 4123   5.613   6.333  13.350
31809W        W 4124   2.397   2.835  12.486
31810W        W 4125  43.906  11.395  14.199
31811W        W 4126  29.585   5.473  14.528
31812W        W 4127  23.208   2.060   0.929
31813W        W 4128  34.321   6.730  12.011
31814W        W 4129  29.071   5.646  12.961
31815W        W 4130  31.578  33.436   4.668
31816W        W 4131  18.040  32.198   0.842
31817W        W 4132  35.792   7.858  13.269
31818W        W 4133  42.696  44.988   0.178
31819W        W 4134  23.726   1.768   3.311
31820W        W 4135   1.760  21.132  13.356
31821W        W 4136  21.520   4.267  14.337
31822W        W 4137  31.853  40.553   3.014
31823W        W 4138  26.194  25.038  14.227
31824W        W 4139  25.078   3.886   3.710
31825W        W 4140  28.436  15.847  11.587
31826W        W 4141  11.918  16.829   9.662
31827W        W 4142  42.369  27.952   0.371
31828W        W 4143  32.478  31.371  12.583
31829W        W 4144   6.926  10.704   3.033
31830W        W 4145  30.421  31.108  14.037
31831W        W 4146  21.742   4.967   2.129
31832W        W 4147  17.021   0.469  11.430
31833W        W 4148  18.663   3.792  11.615
31834W        W 4149  31.406   4.087   3.318
31835W        W 4150  11.594  11.337  12.549
31836W        W 4151  34.567  23.084   4.816
31837W        W 4152  28.607  29.521   1.418
31838W        W 4153   7.367  25.007   3.712
31839W        W 4154  23.252  18.459   2.352
31840W        W 4155  31.722  40.632  11.076
31841W        W 4156  28.061   8.600  10.753
31842W        W 4157  43.383   7.882  13.108
31843W        W 4158  42.865  31.632   4.695
31844W        W 4159  12.620   7.745   1.750
31845W        W 4160  27.107   6.199   1.640
31846W        W 4161  38.899  15.325   1.399
31847W        W 4162   2.246   0.341   2.324
31848W        W 4163   6.489  12.212  10.476
31849W        W 4164  13.688  44.056   2.719
31850W        W 4165  34.975  25.787   0.902
31851W        W 4166  43.171  42.694  11.020
31852W        W 4167  27.683  40.904  13.977
31853W        W 4168  25.808   9.231  12.442
31854W        W 4169  21.809  44.086   0.186
31855W        W 4170   1.082  41.475   1.388
31856W        W 4171  40.796  35.111  14.514
31857W        W 4172  31.691  17.255  13.317
31858W        W 4173  15.816  28.896  10.251
31859W        W 4174  25.411  23.308   2.438
31860W        W 4175  37.463  20.288  13.976
31861W        W 4176   8.278  19.443  12.074
31862W        W 4177  23.120   0.644  14.502
31863W        W 4178  29.855   1.897  10.118
31864W        W 4179  44.068  15.291   3.709
31865W        W 4180   5.832  41.780   0.695
31866W        W 4181  27.440   4.647  12.509
31867W        W 4182  43.580  17.324   0.610
31868W        W 4183  30.494  33.137   0.048
31869W        W 4184  28.766   6.894  12.443
31870W        W 4185  36.792  16.922  14.736
31871W        W 4186  34.875   8.137   1.490
31872W        W 4187   9.683  10.443  11.685
31873W        W 4188  39.884  25.418   4.630
31874W        W 4189  18.541  28.660  13.926
31875W        W 4190  15.103  43.496   0.540
31876W        W 4191   6.926  42.496   3.865
31877W        W 4192  15.757  37.471  12.054
31878W        W 4193  10.467  22.487  14.880
31879W        W 4194   2.125  34.842  12.051
31880W        W 4195  26.730   1.340  12.523
31881W        W 4196  34.759  12.769  12.520
31882W        W 4197   3.329   8.309   3.677
31883W        W 4198  23.694  41.456   4.949
31884W        W 4199  34.043   8.603  14.362
31885W        W 4200  39.546  22.085  14.009
31886W        W 4201  18.619  24.748   3.996
31887W        W 4202  22.264  26.599  13.543
31888W        W 4203   5.458   7.380  13.875
31889W        W 4204  43.902  25.597   1.808
31890W        W 4205  40.302   2.491   1.895
31891W        W 4206  18.546  34.642  14.977
31892W        W 4207   2.138  23.001  13.406
31893W        W 4208  34.802   8.713   4.569
31894W        W 4209  20.585  16.121   4.106
31895W        W 4210   0.264  33.533  14.481
31896W        W 4211  32.553  11.190  12.089
31897W        W 4212  32.359  19.686  14.595
31898W        W 4213  13.398   9.610   2.783
31899W        W 4214  12.558  39.892  10.604
31900W        W 4215  19.243  10.084   0.038
31901W        W 4216  25.978   4.184  10.601
31902W        W 4217  41.828  19.286   3.648
31903W        W 4218  25.626   7.771   2.912
31904W        W 4219   0.352  43.964   4.198
31905W        W 4220  21.984  26.892   0.829
31906W        W 4221  39.359  20.137  11.963
31907W        W 4222   4.734  25.693  11.558
31908W        W 4223  10.169  30.814   1.509
31909W        W 4224  40.809  22.165   1.562
31910W        W 4225   0.011  16.833  11.327
31911W        W 4226  10.699  19.008   0.380
31912W        W 4227  21.806  40.705  10.451
31913W        W 4228   0.589  44.196   0.363
31914W        W 4229  43.244  12.637   2.749
31915W        W 4230  42.785   8.173   1.731
31916W        W 4231  35.556   4.911   1.388
31917W        W 4232  18.554  23.027  10.679
31918W        W 4233  19.654  39.577   0.664
31919W        W 4234  16.204  17.070   0.531
31920W        W 4235  28.532  14.583  14.765
31921W        W 4236  25.475  13.629  10.744
31922W        W 4237  11.168  23.463  12.436
31923W        W 4238   6.195  36.463   3.155
31924W        W 4239  38.080   7.871  11.805
31925W        W 4240   2.903   1.827  14.244
31926W        W 4241   3.796  30.539   0.282
31927W        W 4242  19.053  16.579   0.922
31928W        W 4243  13.279  37.581  14.582
31929W        W 4244  36.861   4.447  13.440
31930W        W 4245  30.377  27.431   4.227
31931W        W 4246  33.038  37.906  13.164
31932W        W 4247   7.048  21.560   0.706
31933W        W 4248  22.166  37.388  13.290
31934W        W 4249   6.421  44.504   1.488
31935W        W 4250  36.562  13.023  14.444
31936W        W 4251   4.218   5.947   2.344
31937W        W 4252   3.215   2.913  11.562
31938W        W 4253  28.265   1.355  13.445
31939W        W 4254  36.350  39.803  13.931
31940W        W 4255  23.539  43.859  12.902
31941W        W 4256   6.126  38.763   1.224
31942W        W 4257   9.836   9.587   1.966
31943W        W 4258   5.145   6.308   4.109
31944W        W 4259  40.324   8.284  12.167
31945W        W 4260   4.203   8.735   0.928
31946W        W 4261   2.454  33.210   0.335
31947W        W 4262  20.560  25.673   2.051
31948W        W 4263   7.322  43.622   4.370
31949W        W 4264  29.221  37.690  12.768
31950W        W 4265  16.439  13.372  12.425
31951W        W 4266  36.720  15.179  11.593
31952W        W 4267  23.168  10.364  14.527
31953W        W 4268  10.657  19.571   2.878
31954W        W 4269   5.377   8.629  11.438
31955W        W 4270  10.956  11.605  12.053
31956W        W 4271  16.067  34.640  13.418
31957W        W 4272  21.026  31.864   1.296
31958W        W 4273   4.481  16.682   4.664
31959W        W 4274  21.707   4.512   1.875
31960W        W 4275  33.906  30.579   4.073
31961W        W 4276   8.073  12.777  14.363
31962W        W 4277   5.190   7.235  11.093
31963W        W 4278  28.498  20.227  13.696
31964W        W 4279  13.200   6.946  13.376
31965W        W 4280  16.678  20.135   1.920
31966W        W 4281  15.107  10.685  12.295
31967W        W 4282  43.308   0.918  13.693
31968W        W 4283  31.910   4.925  14.118
31969W        W 4284  12.776  30.137  12.840
31970W        W 4285  25.782  10.317  13.988
31971W        W 4286  28.739  13.708  13.476
31972W        W 4287  35.405  36.330  14.905
31973W        W 4288  33.678   9.044   1.207
31974W        W 4289   8.903  42.234  14.459
31975W        W 4290   1.203  44.841  13.511
31976W        W 4291  21.749  31.531  11.087
31977W        W 4292   8.673  34.982  12.039
31978W        W 4293  12.524  10.424   2.248
31979W        W 4294   0.344   9.214   2.173
31980W        W 4295  21.230  23.628   3.743
31981W        W 4296   0.673  26.442  10.740
31982W        W 4297  18.730  24.180   0.386
31983W        W 4298  30.648  30.101  14.820
31984W        W 4299  30.977  33.469  10.615
31985W        W 4300  12.702   5.336  11.103
31986W        W 4301  43.544  11.684  14.529
31987W        W 4302  39.111  31.990   2.001
31988W        W 4303   7.035  35.075  10.760
31989W        W 4304  12.339  14.038   4.193
31990W        W 4305  15.583  10.061  12.552
31991W        W 4306  13.264   0.312   2.101
31992W        W 4307  37.050  29.622  12.568
31993W        W 4308  15.799  33.003   2.684
31994W        W 4309   4.833  32.463   2.720
31995W        W 4310  33.070  33.331   0.574
31996W        W 4311   2.300   0.984   0.988
31997W        W 4312  38.586  34.966  10.886
31998W        W 4313  15.813   8.624  10.886
31999W        W 4314  28.585  24.116  11.173
32000W        W 4315   4.228  22.116   1.868
32001W        W 4316  37.637  15.515  14.238
32002W        W 4317  15.600  13.205  13.370
32003W        W 4318  41.339   1.340  13.517
32004W        W 4319   8.157  40.322  12.500
32005W        W 4320  12.174  30.018  14.416
32006W        W 4321  26.842  40.487  13.822
32007W        W 4322  44.224  11.967   9.868
32008W        W 4323  39.797  33.686   1.811
32009W        W 4324  31.594  26.190  11.229
32010W        W 4325   4.166  41.700  12.854
32011W        W 4326  37.645   7.404   4.561
32012W        W 4327  25.102   1.740   1.800
32013W        W 4328  10.428  39.332  10.471
32014W        W 4329  44.457  23.066  12.046
32015W        W 4330  25.549  16.518   2.842
32016W        W 4331  42.349  22.868  11.810
32017W        W 4332  27.612  13.817   4.648
32018W        W 4333  40.004  21.193   4.537
32019W        W 4334  41.790  16.081  10.820
32020W        W 4335   4.154  34.858  11.024
32021W        W 4336  17.564  16.570   3.785
32022W        W 4337   5.959  24.343   3.814
32023W        W 4338  30.659   7.166  11.653
32024W        W 4339   0.835   4.739   3.823
32025W        W 4340  15.743  35.582   2.083
32026W        W 4341  33.294  27.453   3.641
32027W        W 4342  29.760   9.671   1.715
32028W        W 4343  24.988  39.282   4.680
32029W        W 4344  43.885   3.704   0.952
32030W        W 4345  14.287  23.518  13.378
32031W        W 4346   4.666  21.674   4.040
32032W        W 4347   1.992  40.691   3.726
32033W        W 4348  32.950  22.906  12.804
32034W        W 4349  42.084   2.875  12.128
32035W        W 4350   0.811  40.868  11.373
32036W        W 4351   6.151   5.287  14.465
32037W        W 4352  12.626  22.108   3.191
32038W        W 4353   2.500  42.120   1.925
32039W        W 4354  23.169   6.611   0.176
32040W        W 4355  15.924  16.356  12.871
32041W        W 4356  13.901  22.785   0.017
32042W        W 4357  39.929  40.293   3.826
32043W        W 4358  23.234   7.020  10.697
32044W        W 4359  42.193  40.407  11.250
32045W        W 4360  29.086   5.214  10.429
32046W        W 4361  13.341   0.968   4.622
32047W        W 4362  21.464  36.086  12.572
32048W        W 4363  13.542  15.542  14.943
32049W        W 4364   9.138  35.120   4.605
32050W        W 4365  26.523  17.169  12.431
32051W        W 4366  31.146  20.311  11.918
32052W        W 4367  18.544  13.875  13.877
32053W        W 4368  27.498   7.258  12.463
32054W        W 4369  41.350  20.480  11.694
32055W        W 4370  29.703  23.172   4.655
32056W        W 4371  38.985  17.682   4.700
32057W        W 4372  10.622   9.005  11.395
32058W        W 4373  32.507  40.510  14.007
32059W        W 4374   8.153  41.339  14.286
32060W        W 4375  10.934  34.061  14.300
32061W        W 4376   7.287   6.464  12.597
32062W        W 4377  11.905   9.268   2.340
32063W        W 4378  39.917  11.363   4.726
32064W        W 4379  43.423   9.879   5.047
32065W        W 4380  23.162  21.036   3.158
32066W        W 4381  18.269   0.947   0.188
32067W        W 4382  16.621  34.437   4.037
32068W        W 4383  26.665  31.505  11.506
32069W        W 4384  24.482  25.115  14.401
32070W        W 4385  14.582  37.008  13.374
32071W        W 4386  31.365  21.342   4.199
32072W        W 4387  36.620  21.265  14.187
32073W        W 4388   9.351  35.058  10.815
32074W        W 4389   0.404  41.166   0.091
32075W        W 4390  13.843   3.344  13.988
32076W        W 4391  34.832  37.146  14.320
32077W        W 4392  20.596  36.122   1.855
32078W        W 4393   1.265  41.899  14.099
32079W        W 4394  27.876  38.874  10.760
32080W        W 4395  43.421  28.901   3.788
32081W        W 4396  22.989  31.470   4.552
32082W        W 4397  35.408  29.935   4.491
32083W        W 4398  10.776  30.940  12.168
32084W        W 4399  12.201   7.436   2.802
32085W        W 4400  22.619   0.060  10.693
32086W        W 4401  20.812  28.774   1.779
32087W        W 4402  19.684  23.637   2.079
32088W        W 4403  43.907   9.581   4.140
32089W        W 4404  34.066  24.200  12.835
32090W        W 4405   0.330  26.532   3.574
32091W        W 4406   2.910  30.120  11.993
32092W        W 4407  29.348  30.102  10.960
32093W        W 4408  36.538  35.349   0.383
32094W        W 4409   5.450  41.524  13.469
32095W        W 4410  32.071   8.356  12.691
32096W        W 4411  34.636   6.408   1.426
32097W        W 4412  38.461  40.260   0.329
32098W        W 4413  39.000  44.548   4.283
32099W        W 4414  28.077  38.047  14.044
32100W        W 4415  40.886   2.476  13.723
32101W        W 4416  39.922  41.854  13.114
32102W        W 4417  30.147  35.037  11.851
32103W        W 4418  34.600  19.120  11.200
32104W        W 4419  15.316  26.243   1.783
32105W        W 4420  19.289  33.725  13.438
32106W        W 4421  32.592  25.173   1.253
32107W        W 4422  34.894  22.881   2.228
32108W        W 4423  11.865  31.157   2.781
32109W        W 4424  15.247  11.675   4.629
32110W        W 4425  24.210  33.266   0.568
32111W        W 4426  42.768  32.332  11.939
32112W        W 4427  11.232  43.751   3.284
32113W        W 4428   2.472  35.124  12.345
32114W        W 4429  17.626  36.773  13.904
32115W        W 4430  26.220  17.049   4.155
32116W        W 4431  29.696  16.968   4.992
32117W        W 4432  19.287  17.275  14.403
32118W        W 4433  10.739  14.091   1.314
32119W        W 4434  15.661  23.850   9.734
32120W        W 4435  21.225  22.587  13.361
32121W        W 4436  13.326  32.056  13.619
32122W        W 4437  26.939  25.461   0.788
32123W        W 4438  36.909  37.357   3.611
32124W        W 4439  36.386   8.899   2.354
32125W        W 4440  33.594  23.691   9.753
32126W        W 4441   3.526  19.099  11.401
32127W        W 4442  35.473  12.069  11.726
32128W        W 4443  20.331   6.133  11.058
32129W        W 4444  38.556  14.191  12.003
32130W        W 4445  24.285  29.191   2.727
32131W        W 4446  19.306   4.355  13.397
32132W        W 4447  43.923  42.962  12.624
32133W        W 4448   8.164  21.780   2.274
32134W        W 4449  30.448  30.031   1.405
32135W        W 4450  22.392  26.004   2.709
32136W        W 4451  23.623  41.529  13.002
32137W        W 4452   2.309  40.074   0.772
32138W        W 4453   4.325  20.912   1.796
32139W        W 4454  40.968  20.117   3.376
32140W        W 4455  24.435  12.392  11.972
32141W        W 4456  24.953  14.205   1.151
32142W        W 4457  24.568   5.191  12.681
32143W        W 4458  14.617  16.702  14.800
32144W        W 4459  30.651  40.661  14.208
32145W        W 4460   1.434  36.413   1.442
32146W        W 4461  14.068  20.722  10.711
32147W        W 4462  43.019  42.444  13.784
32148W        W 4463  32.916  18.663   1.950
32149W        W 4464  12.941  23.200   4.980
32150W        W 4465  40.059  15.850  13.472
32151W        W 4466  12.906  40.108   1.739
32152W        W 4467  30.907   7.536   1.951
32153W        W 4468   3.488  36.563  12.540
32154W        W 4469   7.779   1.173   3.284
32155W        W 4470  14.097  21.258  13.612
32156W        W 4471  17.792  10.781   1.880
32157W        W 4472  12.337  17.099   0.355
32158W        W 4473  37.044  16.276   1.491
32159W        W 4474  41.084  27.943   1.718
32160W        W 4475  22.086   5.650   4.907
32161W        W 4476  28.569  34.138  11.656
32162W        W 4477  29.860  19.484   2.591
32163W        W 4478  21.915  33.694   3.882
32164W        W 4479  35.634   9.008  12.173
32165W        W 4480  35.251  31.462  14.091
32166W        W 4481  16.788  26.152  12.759
32167W        W 4482  18.205   6.777   3.767
32168W        W 4483   2.319  12.092   0.366
32169W        W 4484  15.280  20.483   3.651
32170W        W 4485  14.409  31.716   1.090
32171W        W 4486  42.231   6.407  11.523
32172W        W 4487   7.262  23.957  11.687
32173W        W 4488   6.666   8.686  11.068
32174W        W 4489  29.872  31.542  13.489
32175W        W 4490   4.138   6.857   0.811
32176W        W 4491  14.516  27.441  10.684
32177W        W 4492   0.407   0.382   0.263
32178W        W 4493  34.486  25.456   1.153
32179W        W 4494  38.053  17.349  10.830
32180W        W 4495  22.576  10.263  14.415
32181W        W 4496  36.970   2.882   3.880
32182W        W 4497  22.948   0.634   0.359
32183W        W 4498  17.754  41.563   2.203
32184W        W 4499  35.584  22.581  10.996
32185W        W 4500  22.164  19.114   0.614
32186W        W 4501  18.808  32.542  11.573
32187W        W 4502  21.581  44.888  14.889
32188W        W 4503  25.010  12.118   4.492
32189W        W 4504  31.551  20.006  12.085
32190W        W 4505   6.178  28.066  13.309
32191W        W 4506   8.974  18.733  11.159
32192W        W 4507  17.816  34.955   1.285
32193W        W 4508  20.250   2.986  11.207
32194W        W 4509  12.826   2.057  10.185
32195W        W 4510   9.764  15.219  12.836
32196W        W 4511  31.967  33.221  13.497
32197W        W 4512   5.054  44.691  11.201
32198W        W 4513  37.966  32.161  13.458
32199W        W 4514   7.780  32.802   1.886
32200W        W 4515  11.619   4.383   0.935
32201W        W 4516   3.377   6.262   0.598
32202W        W 4517  43.265  14.959  14.897
32203W        W 4518  11.588  15.149   4.055
32204W        W 4519  36.521   0.533   4.573
32205W        W 4520  36.504  44.514   3.103
32206W        W 4521  36.636  27.079  14.033
32207W        W 4522  44.932  32.536  13.416
32208W        W 4523  32.466  32.904   0.839
32209W        W 4524  16.454  31.634   0.279
32210W        W 4525  21.189  38.441   3.623
32211W        W 4526   7.459  36.585   2.280
32212W        W 4527  40.783  44.250   3.293
32213W        W 4528  23.925  17.635  14.252
32214W        W 4529  22.767  19.157  10.632
32215W        W 4530  37.993  28.696   1.699
32216W        W 4531   2.522  27.914   2.690
32217W        W 4532  36.401  39.231   1.668
32218W        W 4533   2.719   1.059  11.889
32219W        W 4534   1.159   6.859   3.601
32220W        W 4535  29.747  30.174   3.410
32221W        W 4536  17.031  33.602   3.170
32222W        W 4537  41.126   2.779   0.835
32223W        W 4538   3.518  32.902   3.222
32224W        W 4539  23.582  30.529   2.624
32225W        W 4540  30.460  16.466   2.687
32226W        W 4541  36.938   8.477  12.048
32227W        W 4542   0.427   5.173  11.790
32228W        W 4543  36.836  12.165   3.067
32229W        W 4544  10.227  44.096  13.858
32230W        W 4545   6.773  39.710   1.353
32231W        W 4546   9.875  14.244  11.213
32232W        W 4547  40.792  16.090   0.932
32233W        W 4548   9.818  37.964   1.877
32234W        W 4549  16.563   8.441   3.329
32235W        W 4550  23.187  34.970   3.173
32236W        W 4551   8.607  13.673   1.979
32237W        W 4552  20.125   3.253  10.737
32238W        W 4553  16.839   2.412  13.086
32239W        W 4554   8.108   5.223  10.486
32240W        W 4555   9.874   7.323  13.972
32241W        W 4556  20.040  35.392   3.577
32242W        W 4557  25.653  28.225   1.247
32243W        W 4558  38.554  16.001   4.899
32244W        W 4559  31.107  29.680  14.313
32245W        W 4560   1.154  29.444   4.331
32246W        W 4561  35.310   7.860   1.412
32247W        W 4562  11.531  29.714  13.929
32248W        W 4563  10.308  39.477  10.970
32249W        W 4564  35.475  10.293  12.123
32250W        W 4565  38.393   3.911  13.526
32251W        W 4566  43.189   6.170   2.860
32252W        W 4567  38.638  43.495   3.611
32253W        W 4568   3.921  15.700  14.277
32254W        W 4569  12.624   6.297  14.971
32255W        W 4570  11.595   0.841   1.342
32256W        W 4571  25.130  16.799   0.001
32257W        W 4572   6.807  13.724  10.446
32258W        W 4573  37.791  24.588   1.670
32259W        W 4574  36.422  12.720   0.438
32260W        W 4575   1.394  23.924   0.299
32261W        W 4576   2.397  25.884  12.703
32262W        W 4577   8.396  36.049  11.550
32263W        W 4578  11.967  38.838   5.007
32264W        W 4579  20.749  16.614   4.258
32265W        W 4580  22.112  37.004   3.166
32266W        W 4581  35.780  33.202  12.329
32267W        W 4582  40.271  28.129   3.111
32268W        W 4583   1.839  32.051  13.738
32269W        W 4584  27.605  29.658   1.273
32270W        W 4585   1.912  43.359  10.846
32271W        W 4586  28.881  23.602  12.414
32272W        W 4587  39.662   0.873   3.689
32273W        W 4588   6.884   7.950  14.313
32274W        W 4589  35.011   6.233   0.894
32275W        W 4590  34.249  35.894  14.327
32276W        W 4591   4.396  44.464  14.081
32277W        W 4592  27.638  39.325  11.506
32278W        W 4593   4.761  17.812   0.416
32279W        W 4594  37.300  44.249  12.917
32280W        W 4595  28.019  20.925   1.920
32281W        W 4596  13.739  30.214   4.548
32282W        W 4597  15.301  31.574  11.375
32283W        W 4598  10.180   2.980  14.868
32284W        W 4599  40.832  25.694   5.400
32285W        W 4600  37.812  24.056   0.730
32286W        W 4601   5.948  35.940   3.852
32287W        W 4602  20.103  25.406   1.512
32288W        W 4603  28.954  43.790   2.886
32289W        W 4604  28.295  13.177  14.437
32290W        W 4605  23.215  43.257   0.491
32291W        W 4606  39.005  21.328  12.509
32292W        W 4607  30.242  25.169  12.949
32293W        W 4608  10.194  20.647  11.060
32294W        W 4609  19.453  39.424  14.707
32295W        W 4610  20.663   1.208  12.104
32296W        W 4611  39.777  19.242   1.222
32297W        W 4612  13.188  11.759  12.162
32298W        W 4613  18.126   0.940   1.739
32299W        W 4614  16.519  38.534   1.872
32300W        W 4615   3.838  17.110  13.000
32301W        W 4616  25.558   6.019   5.736
32302W        W 4617  38.895  23.220  11.524
32303W        W 4618  44.784  19.291  12.150
32304W        W 4619  30.022  33.513  12.387
32305W        W 4620   3.663  41.807   4.087
32306W        W 4621  17.657   6.772   0.749
32307W        W 4622  35.356  25.430   3.383
32308W        W 4623  38.441  43.336  14.027
32309W        W 4624  14.064  11.266   1.633
32310W        W 4625  10.887  36.094   0.960
32311W        W 4626  19.646  27.559   3.715
32312W        W 4627  35.354  27.191   0.927
32313W        W 4628   7.151  43.906   0.374
32314W        W 4629   1.458  17.677  13.782
32315W        W 4630  40.479  15.185  13.112
32316W        W 4631  23.193  38.542   3.793
32317W        W 4632   5.752  44.036  14.341
32318W        W 4633  25.568   4.923   4.098
32319W        W 4634  44.402  36.142   1.930
32320W        W 4635   2.030  34.353   0.235
32321W        W 4636  26.877   3.008  10.038
32322W        W 4637  32.004   6.690  14.932
32323W        W 4638   1.967  33.136   2.565
32324W        W 4639  34.228  40.396  13.978
32325W        W 4640  38.028  35.890   2.912
32326W        W 4641  18.171  34.571   1.146
32327W        W 4642  18.754  28.110  13.041
32328W        W 4643  13.210  23.176  11.616
32329W        W 4644   3.759  33.939  12.682
32330W        W 4645  33.115   6.138  12.055
32331W        W 4646  10.106  22.193   1.229
32332W        W 4647  39.028  43.757  14.724
32333W        W 4648   1.339   7.697  13.612
32334W        W 4649   7.782   0.250   4.405
32335W        W 4650  13.093   2.482  10.565
32336W        W 4651   9.877   0.895  12.343
32337W        W 4652  20.316  33.532   2.010
32338W        W 4653  12.107   4.591   5.035
32339W        W 4654  22.019   1.010  14.308
32340W        W 4655  10.568  33.045  14.405
32341W        W 4656  29.743  40.695   5.180
32342W        W 4657   0.397   6.441  12.455
32343W        W 4658  16.227   0.907  12.061
32344W        W 4659  27.588  44.962  13.852
32345W        W 4660  39.458  39.437   4.573
32346W        W 4661  22.173   1.360   3.111
32347W        W 4662  13.126  43.802   4.201
32348W        W 4663  23.819  39.088   2.237
32349W        W 4664  27.003  37.097  14.703
32350W        W 4665   4.924   2.213   0.259
32351W        W 4666   0.196  25.944   4.769
32352W        W 4667   7.300  31.004   2.373
32353W        W 4668   2.691  25.847  11.455
32354W        W 4669  12.232  31.127  14.366
32355W        W 4670   7.508  20.173  10.622
32356W        W 4671  23.115  12.144  14.005
32357W        W 4672   0.870  28.845   5.226
32358W        W 4673  29.118  33.107  12.945
32359W        W 4674  29.535  43.835   2.647
32360W        W 4675  20.209   6.767   4.465
32361W        W 4676  31.222  21.136   3.382
32362W        W 4677  22.449  18.072  13.831
32363W        W 4678   7.160   3.133   2.201
32364W        W 4679  30.128  17.841   4.077
32365W        W 4680  15.195  32.480  10.430
32366W        W 4681  24.461   3.121   4.654
32367W        W 4682  10.751  31.353  11.809
32368W        W 4683  27.420  28.295  14.210
32369W        W 4684   8.102  19.635  12.926
32370W        W 4685  37.782  40.710  14.273
32371W        W 4686  44.536  32.424   3.815
32372W        W 4687  42.950  23.909  11.565
32373W        W 4688  21.434   2.807  12.049
32374W        W 4689   2.315  29.957  13.799
32375W        W 4690  15.951  25.310  14.785
32376W        W 4691  29.072  43.978  12.874
32377W        W 4692  31.412  15.135   4.566
32378W        W 4693  13.171  41.305  13.911
32379W        W 4694  11.353  15.406  12.012
32380W        W 4695  17.855  33.316  14.422
32381W        W 4696  22.863   2.400  10.785
32382W        W 4697  18.694  44.255  14.268
32383W        W 4698  41.962  15.855  13.516
32384W        W 4699  43.693  43.883   2.375
32385W        W 4700  36.308  29.798   2.387
32386W        W 4701  24.218  35.913  12.996
32387W        W 4702  22.723  36.868  11.939
32388W        W 4703   2.045   9.886   0.780
32389W        W 4704  23.650   1.450  12.483
32390W        W 4705  43.755  34.123   3.308
32391W        W 4706  10.290   5.704   0.474
32392W        W 4707  11.305  44.954   2.858
32393W        W 4708   7.239  20.674  11.663
32394W        W 4709  31.444  33.655   2.237
32395W        W 4710  20.557  21.657  12.107
32396W        W 4711  32.048  10.560   4.546
32397W        W 4712  22.137  10.644  10.757
32398W        W 4713   2.670  42.365  12.005
32399W        W 4714  40.576  30.441   3.405
32400W        W 4715  22.187  31.480  12.438
32401W        W 4716  33.118  27.944   4.435
32402W        W 4717  18.120   5.506  12.919
32403W        W 4718   8.421  26.591   2.256
32404W        W 4719  40.817  11.889   3.079
32405W        W 4720  12.445   5.684   2.746
32406W        W 4721  38.127   4.137   0.854
32407W        W 4722  41.745  40.850   1.223
32408W        W 4723   8.870   1.957  11.595
32409W        W 4724   8.759   8.732   2.799
32410W        W 4725  38.490  30.565   3.411
32411W        W 4726  43.578  27.041   4.823
32412W        W 4727  39.268  10.871   0.418
32413W        W 4728  26.706  17.647  12.390
32414W        W 4729  38.565  41.258   0.841
32415W        W 4730  31.600  32.830  13.030
32416W        W 4731  34.778  22.672  13.822
32417W        W 4732  19.505  43.171   1.117
32418W        W 4733   6.900  26.880  10.987
32419W        W 4734  42.507   6.708   2.751
32420W        W 4735  35.423   7.651   2.276
32421W        W 4736  44.396  10.145  14.275
32422W        W 4737  41.830  43.892   1.849
32423W        W 4738  17.374  25.127  12.565
32424W        W 4739  27.136  41.716   0.910
32425W        W 4740  39.835  25.101   2.316
32426W        W 4741   0.474  35.493  12.357
32427W        W 4742  20.310  44.054  12.282
32428W        W 4743  44.250  39.079  14.013
32429W        W 4744   3.231  36.057   1.790
32430W        W 4745  39.873  39.312   2.655
32431W        W 4746   0.457   2.305   2.836
32432W        W 4747  24.261  13.222   2.164
32433W        W 4748  20.089  25.441   2.018
32434W        W 4749  41.296  11.076  13.836
32435W        W 4750  32.084  38.303   1.755
32436W        W 4751   1.218   8.202   2.218
32437W        W 4752  28.019  29.952   4.163
32438W        W 4753  15.821  32.571   0.957
32439W        W 4754  41.392  29.381   3.551
32440W        W 4755   6.457  12.291  13.590
32441W        W 4756   6.623  24.654   1.823
32442W        W 4757  40.833  10.382  11.617
32443W        W 4758  19.199  39.381  11.007
32444W        W 4759  20.196  12.620  12.020
32445W        W 4760  29.608  31.294  14.382
32446W        W 4761  31.493  14.894  14.370
32447W        W 4762  36.758  25.552  13.618
32448W        W 4763   4.220  23.186   0.222
32449W        W 4764   7.404  18.639  11.819
32450W        W 4765  37.499  25.586   2.316
32451W        W 4766  14.671  35.446   1.669
32452W        W 4767  23.811  42.906   3.333
32453W        W 4768  21.449  34.542   3.583
32454W        W 4769   2.714  18.785  11.032
32455W        W 4770   3.342  17.108  13.704
32456W        W 4771  41.845   7.219   3.294
32457W        W 4772  23.161  33.980   0.983
32458W        W 4773  26.819  23.608   3.793
32459W        W 4774  42.077  10.656  12.475
32460W        W 4775  24.706   6.622  13.365
32461W        W 4776  31.511  10.817  11.318
32462W        W 4777  42.544  13.869   3.212
32463W        W 4778   7.076  38.907   4.079
32464W        W 4779  24.970  34.497  11.520
32465W        W 4780  13.129  22.659   0.728
32466W        W 4781  23.416  30.972  10.758
32467W        W 4782  43.896   1.040   3.360
32468W        W 4783   9.488  11.907   5.033
32469W        W 4784  23.189  17.982  10.129
32470W        W 4785   8.649  16.638  11.587
32471W        W 4786  15.807   3.369  11.581
32472W        W 4787  19.629  31.657  10.901
32473W        W 4788  34.239  24.780   3.737
32474W        W 4789  29.943  27.173   1.893
32475W        W 4790   4.270  22.785   1.050
32476W        W 4791  20.161   0.123   1.739
32477W        W 4792  41.388  34.915  11.666
32478W        W 4793  23.740  34.556  11.118
32479W        W 4794   9.921  43.334   4.367
32480W        W 4795  33.618   6.325   0.400
32481W        W 4796   6.733  39.948   2.187
32482W        W 4797  12.492  35.470  12.326
32483W        W 4798  25.196  18.106  12.117
32484W        W 4799  24.025  37.526  10.348
32485W        W 4800   3.732  42.496   4.216
32486W        W 4801  30.504  36.311   4.494
32487W        W 4802  42.367   5.908   1.375
32488W        W 4803  24.358   8.300  11.903
32489W        W 4804  31.026   2.443  10.714
32490W        W 4805  16.044  28.614  10.652
32491W        W 4806  23.835  39.384   3.315
32492W        W 4807  22.228   0.288   4.495
32493W        W 4808  40.295   1.476  12.865
32494W        W 4809  15.540  30.206  10.271
32495W        W 4810  34.591  20.613  14.913
32496W        W 4811  22.624  15.871   3.192
32497W        W 4812   2.431  42.814  11.933
32498W        W 4813   7.634   0.986  12.385
32499W        W 4814  11.868   7.730   4.632
32500W        W 4815  34.946  43.913   4.506
32501W        W 4816   2.814  19.091  14.855
32502W        W 4817  23.899  43.824  11.519
32503W        W 4818  21.731  22.007   0.894
32504W        W 4819  10.304  42.764  14.054
32505W        W 4820  19.091  14.749  14.771
32506W        W 4821  16.987  29.764   3.294
32507W        W 4822  32.907   0.783   4.223
32508W        W 4823  24.571  12.992  11.129
32509W        W 4824  13.119  39.015  12.483
32510W        W 4825  23.483   6.221   4.159
32511W        W 4826  14.651  39.554   0.860
32512W        W 4827  40.821  31.079   1.443
32513W        W 4828  23.656  22.311  11.267
32514W        W 4829  21.948  27.424   1.335
32515W        W 4830  20.203  43.693   3.340
32516W        W 4831  19.175  38.444   1.240
32517W        W 4832  25.149   2.061   0.984
32518W        W 4833  14.302  39.284   1.831
32519W        W 4834  28.377  10.702  13.898
32520W        W 4835  26.576  27.047  14.464
32521W        W 4836  28.844  34.725   1.283
32522W        W 4837   9.778  10.899  10.521
32523W        W 4838  28.632  33.896   4.111
32524W        W 4839  27.707  15.042   3.171
32525W        W 4840  23.450  25.106  14.360
32526W        W 4841  22.937  35.519  13.026
32527W        W 4842   9.453  24.050  10.487
32528W        W 4843  33.640  38.928  11.361
32529W        W 4844  34.492  40.048  14.265
32530W        W 4845   7.268  22.377  13.411
32531W        W 4846  34.965  13.397  13.342
32532W        W 4847  18.675   3.225   0.350
32533W        W 4848   5.872  17.055  13.369
32534W        W 4849  18.515  26.697   2.632
32535W        W 4850  16.756  33.912   3.899
32536W        W 4851  32.413  33.582   2.362
32537W        W 4852  43.896  15.662  10.556
32538W        W 4853   6.204  41.420  12.967
32539W        W 4854  12.781  28.014  12.294
32540W        W 4855  11.242  13.838   4.117
32541W        W 4856  24.160  11.847  13.150
32542W        W 4857   6.870  16.078  12.137
32543W        W 4858  41.063  23.997  12.397
32544W        W 4859  25.910   4.333  11.550
32545W        W 4860  28.354  14.866  12.893
32546W        W 4861  44.999   6.545  10.765
32547W        W 4862  25.259  34.568  14.586
32548W        W 4863  19.987  18.124  10.694
32549W        W 4864  42.162  42.242   1.871
32550W        W 4865   7.791  28.515  12.941
32551W        W 4866  23.011  31.668  14.248
32552W        W 4867  22.041   4.751   4.672
32553W        W 4868   8.143   0.951  14.393
32554W        W 4869  10.829  40.025   3.357
32555W        W 4870   6.816  32.824   4.381
32556W        W 4871  10.825  38.508  13.856
32557W        W 4872  44.310   5.245  14.292
32558W        W 4873   3.071  27.090  13.044
32559W        W 4874  13.686  25.524   2.271
32560W        W 4875  37.388  41.510  14.136
32561W        W 4876  33.072  43.269  13.820
32562W        W 4877  32.885  29.351  14.950
32563W        W 4878  21.723  29.652  11.564
32564W        W 4879  10.209  24.598   3.359
32565W        W 4880   0.813  24.424  10.155
32566W        W 4881  10.710  24.726  14.960
32567W        W 4882  31.097  16.246   1.352
32568W        W 4883  16.207  42.151   5.015
32569W        W 4884   4.234   7.318  11.352
32570W        W 4885   1.299   8.242   0.914
32571W        W 4886  29.561  39.576   3.277
32572W        W 4887  15.571  33.574  14.887
32573W        W 4888  39.130   0.867  13.610
32574W        W 4889  37.446   6.702   4.808
32575W        W 4890  17.961  31.626   0.881
32576W        W 4891   8.338  38.585   2.286
32577W        W 4892   4.716  21.224  11.827
32578W        W 4893  16.316  30.383  14.856
32579W        W 4894   5.700  17.147  11.873
32580W        W 4895  33.225  41.205   4.967
32581W        W 4896   2.233  23.812   9.872
32582W        W 4897  24.783  42.985   1.650
32583W        W 4898  27.569  23.193  12.094
32584W        W 4899  18.039  43.545  11.985
32585W        W 4900  20.848  20.527  14.434
32586W        W 4901   6.656  37.286  12.950
32587W        W 4902  41.987   7.324   1.274
32588W        W 4903  27.525  14.351  10.811
32589W        W 4904  24.218   9.117  11.653
32590W        W 4905  27.579  23.969   2.185
32591W        W 4906  12.712  34.171  11.187
32592W        W 4907  39.603  18.613  10.539
32593W        W 4908   4.291  11.078  13.278
32594W        W 4909  11.156  27.079  10.625
32595W        W 4910  11.025  11.684  14.910
32596W        W 4911  39.302  24.705  13.968
32597W        W 4912  31.069  44.016  11.851
32598W        W 4913   7.750  40.714  12.631
32599W        W 4914   9.366  20.630  13.417
32600W        W 4915  44.867   6.128   0.830
32601W        W 4916  38.019  29.029  13.922
32602W        W 4917  33.777  11.204   2.221
32603W        W 4918   3.882  27.857   3.815
32604W        W 4919   6.434  23.976  11.471
32605W        W 4920  11.302   3.160   2.216
32606W        W 4921  11.301   9.542  11.125
32607W        W 4922   5.962  33.955  13.978
32608W        W 4923  39.300  27.036  13.132
32609W        W 4924   8.674  27.063   2.194
32610W        W 4925  36.576  28.044  14.923
32611W        W 4926  29.447  20.044   0.431
32612W        W 4927  43.020   7.885  12.320
32613W        W 4928  42.665   8.381  14.959
32614W        W 4929  20.789  10.404   4.299
32615W        W 4930  36.540  13.559  14.442
32616W        W 4931  28.748   9.212  10.702
32617W        W 4932  36.376  17.636   3.760
32618W        W 4933  19.227   2.325   1.366
32619W        W 4934  16.109  28.553   2.403
32620W        W 4935  30.548  29.431  10.722
32621W        W 4936  39.581  18.405  13.882
32622W        W 4937  12.422  36.034   4.622
32623W        W 4938  16.228  43.980  13.066
32624W        W 4939   0.935  40.334  12.117
32625W        W 4940   3.044   9.239   1.300
32626W        W 4941  33.403  24.902  14.376
32627W        W 4942  42.476   4.348   4.154
32628W        W 4943  33.416  18.820   3.262
32629W        W 4944   8.616  38.383   1.906
32630W        W 4945  21.811  43.143   0.342
32631W        W 4946  10.099  16.245   3.048
32632W        W 4947  27.350   4.765  11.577
32633W        W 4948  30.828  24.488  12.457
32634W        W 4949  36.379  43.516  12.930
32635W        W 4950   1.632  25.835  13.953
32636W        W 4951  22.969  33.497   2.749
32637W        W 4952  17.684   2.677   3.725
32638W        W 4953  37.933   2.469   2.974
32639W        W 4954  13.565   7.731   4.726
32640W        W 4955   4.023   1.984   2.218
32641W        W 4956  29.361  39.221  10.543
32642W        W 4957  21.597  36.503   4.613
32643W        W 4958  15.665  25.855  14.393
32644W        W 4959  24.420  15.771   1.761
32645W        W 4960  36.807   3.540   5.002
32646W        W 4961   2.867  15.079   3.278
32647W        W 4962  21.987  35.319  11.905
32648W        W 4963  33.671  41.667   4.760
32649W        W 4964  16.119  38.761  14.332
32650W        W 4965  44.277   8.542  14.675
32651W        W 4966  25.173  18.841  14.283
32652W        W 4967  35.021  17.162  14.029
32653W        W 4968  16.605  32.985   4.310
32654W        W 4969  11.908  11.466  12.927
32655W        W 4970  19.631   1.198  12.954
32656W        W 4971  41.622  30.363  11.699
32657W        W 4972   1.825  17.797   3.283
32658W        W 4973   5.016  12.248  14.717
32659W        W 4974   1.058   1.156  12.905
32660W        W 4975  26.142  35.341   0.314
32661W        W 4976  19.985  43.709  13.516
32662W        W 4977  34.585  37.624  11.042
32663W        W 4978  31.838  40.889  12.410
32664W        W 4979   6.967  27.155  13.124
32665W        W 4980  25.222  21.585  10.557
32666W        W 4981  36.021  17.201   0.429
32667W        W 4982  28.443  14.239   4.685
32668W        W 4983  32.392  24.018   2.138
32669W        W 4984  13.561  15.094  14.165
32670W        W 4985   6.858  38.334  14.033
32671W        W 4986  27.601  19.655   1.290
32672W        W 4987  22.992  24.591  12.884
32673W        W 4988  36.897  10.683  13.865
32674W        W 4989  31.685  34.443  13.536
32675W        W 4990   5.719  22.575  10.489
32676W        W 4991  30.380  43.444   3.785
32677W        W 4992  29.182  20.138   0.897
32678W        W 4993  17.104  36.320  12.451
32679W        W 4994   6.583  19.530  12.959
32680W        W 4995   9.882  38.981   0.439
32681W        W 4996  37.722  22.441  11.568
32682W        W 4997   0.711   3.176  12.022
32683W        W 4998  25.657  13.651  11.633
32684W        W 4999  36.715  38.549   2.236
32685W        W 5000  21.028  41.418  13.588
32686W        W 5001   1.021  24.142  13.341
32687W        W 5002  35.378  21.742  10.433
32688W        W 5003  44.926  16.892  12.291
32689W        W 5004   3.352   9.925  11.545
32690W        W 5005  21.422   2.715   2.144
32691W        W 5006  18.147  31.439  13.002
32692W        W 5007  30.631  17.638  14.878
32693W        W 5008  38.518  27.589   0.970
32694W        W 5009  40.029  42.584   4.135
32695W        W 5010  23.903  34.309   2.179
32696W        W 5011  39.610  32.292   3.196
32697W        W 5012  26.282  31.608  10.114
32698W        W 5013  13.404  26.647   1.460
32699W        W 5014  37.341  44.206  13.937
32700W        W 5015   2.186  26.029   1.276
32701W        W 5016  38.351  41.031   4.236
32702W        W 5017  14.105   5.462   1.262
32703W        W 5018  11.423  12.807  12.410
32704W        W 5019  27.660  39.667  10.632
32705W        W 5020  31.735  32.640  14.008
32706W        W 5021  38.054  15.031   2.173
32707W        W 5022  33.055  32.896  14.753
32708W        W 5023  21.912  22.541  11.517
32709W        W 5024  35.452   9.978   3.973
32710W        W 5025   5.360  28.910  11.908
32711W        W 5026  14.930  25.719  13.758
32712W        W 5027   0.393  44.402  14.930
32713W        W 5028  41.813  19.681   4.511
32714W        W 5029  37.112  25.950  12.345
32715W        W 5030  41.599  36.559  13.893
32716W        W 5031  35.496  39.064  11.598
32717W        W 5032   2.646   9.270   2.274
32718W        W 5033  41.027  16.051  14.243
32719W        W 5034   0.376  34.518   1.353
32720W        W 5035  32.626   6.071   9.843
32721W        W 5036  44.785   5.462  14.391
32722W        W 5037   0.952  28.435   0.759
32723W        W 5038   9.589  41.229  11.484
32724W        W 5039   6.971   4.947  12.377
32725W        W 5040  26.580   5.378  10.593
32726W        W 5041  38.872  37.024  12.856
32727W        W 5042  17.775  37.378  11.556
32728W        W 5043   5.851   8.335   3.809
32729W        W 5044   1.455   2.994   4.349
32730W        W 5045  43.387  28.396  11.552
32731W        W 5046  33.362  30.135  14.832
32732W        W 5047  39.464  29.401  11.279
32733W        W 5048  35.930   5.990   4.349
32734W        W 5049  32.948  30.655   2.709
32735W        W 5050   4.471   6.859   9.997
32736W        W 5051   6.396  16.090   3.656
32737W        W 5052   2.711  31.186  10.706
32738W        W 5053  34.817  16.230   3.667
32739W        W 5054  42.973   5.465   3.690
32740W        W 5055   6.300  22.023  11.995
32741W        W 5056   2.357  30.570   2.085
32742W        W 5057  19.628  12.875   1.980
32743W        W 5058  12.392  44.560   0.883
32744W        W 5059  13.583  19.230   2.414
32745W        W 5060  16.270   1.673   0.889
32746W        W 5061  40.422   7.969  11.700
32747W        W 5062  31.477  23.546   1.166
32748W        W 5063  42.369  25.690  12.521
32749W        W 5064  44.274   4.169  12.534
32750W        W 5065  43.278   0.058   2.882
32751W        W 5066  15.151   7.547   4.031
32752W        W 5067  27.934  32.832  11.891
32753W        W 5068   0.210  21.607  10.706
32754W        W 5069  13.394  16.693  11.822
32755W        W 5070   7.059  37.354   2.687
32756W        W 5071  20.197  27.804   3.083
32757W        W 5072  40.766  36.068  13.943
32758W        W 5073  11.257  43.390  13.403
32759W        W 5074  27.959   5.429   4.059
32760W        W 5075  28.614  25.578  11.547
32761W        W 5076  36.127   9.267  13.070
32762W        W 5077  39.270  18.168  11.227
32763W        W 5078  15.553   8.926  11.235
32764W        W 5079  39.666   7.657   3.322
32765W        W 5080   4.877   5.978   0.832
32766W        W 5081  40.431  22.244  14.290
32767W        W 5082  14.588  10.169   0.836
32768W        W 5083  40.144  10.971  13.395
32769W        W 5084  14.087  16.380   1.336
32770W        W 5085  17.660  33.399   2.908
32771W        W 5086   1.321  18.170  13.438
32772W        W 5087  20.537  18.653   1.795
32773W        W 5088  15.864  16.722  13.787
32774W        W 5089  17.669  42.989  13.505
32775W        W 5090   7.748  28.994  13.152
32776W        W 5091  35.406  29.030   0.340
32777W        W 5092  34.939  36.655  14.292
32778W        W 5093  15.981  27.975   3.101
32779W        W 5094  15.587   1.952  14.017
32780W        W 5095   8.833  14.744   0.669
32781W        W 5096  28.154   9.048  14.057
32782W        W 5097   6.355  12.416  10.939
32783W        W 5098  27.702  36.450   2.611
32784W        W 5099  25.120  17.488   1.389
32785W        W 5100  14.756  26.188  11.210
32786W        W 5101  34.337  43.530  10.540
32787W        W 5102   8.584  24.433   1.694
32788W        W 5103  21.033  22.125  10.552
32789W        W 5104  27.222  24.124   2.539
32790W        W 5105  19.551  18.614   2.789
32791W        W 5106  23.204  33.191   4.164
32792W        W 5107  39.769   8.673   2.755
32793W        W 5108   4.149  40.422  12.359
32794W        W 5109   4.873   6.731   1.402
32795W        W 5110  24.493  19.659  11.021
32796W        W 5111   8.177  18.560  13.084
32797W        W 5112  41.125  42.152  13.426
32798W        W 5113  17.763  18.797  11.921
32799W        W 5114   2.278  19.558   4.238
32800W        W 5115  44.039  43.457  10.525
32801W        W 5116  26.695   9.698   4.446
32802W        W 5117  27.525  30.622   5.156
32803W        W 5118  11.906  17.558  10.428
32804W        W 5119  25.718  33.379  14.320
32805W        W 5120  31.635  32.965   1.465
32806W        W 5121   8.390   7.258   2.752
32807W        W 5122  10.881  37.024   0.649
32808W        W 5123  41.381  28.156  11.504
32809W        W 5124  42.839  43.931   2.160
32810W        W 5125   1.028   8.290  12.340
32811W        W 5126  31.211   8.280  12.422
32812W        W 5127  25.537   9.859  11.963
32813W        W 5128  23.095  22.676   0.388
32814W        W 5129  38.554   0.548   3.500
32815W        W 5130  17.245  41.476   2.774
32816W        W 5131  36.756  29.089   3.208
32817W        W 5132   9.667  11.206  13.174
32818W        W 5133   8.851   1.713  12.504
32819W        W 5134  44.836  44.097  12.042
32820W        W 5135  23.522  26.459  12.975
32821W        W 5136  41.067  16.309  13.379
32822W        W 5137   6.733  42.875   3.594
32823W        W 5138  37.661  10.249  12.065
32824W        W 5139  26.611  34.991   2.799
32825W        W 5140   5.984   9.923   3.461
32826W        W 5141  18.196  38.981   4.550
32827W        W 5142   5.022  23.599   1.334
32828W        W 5143  12.551   8.700  11.123
32829W        W 5144  25.043  14.352   3.830
32830W        W 5145   2.695  17.081  14.761
32831W        W 5146  37.679  41.498   2.666
32832W        W 5147  28.640  27.975  12.148
32833W        W 5148  39.756  10.832   4.447
32834W        W 5149  43.500  18.089   4.895
32835W        W 5150  11.945   9.387  11.893
32836W        W 5151  42.523   3.160  11.986
32837W        W 5152  19.783  40.296  13.013
32838W        W 5153  34.719  20.968   4.570
32839W        W 5154  34.564  21.430  11.202
32840W        W 5155   3.179  33.718  11.105
32841W        W 5156  33.104  43.798   3.660
32842W        W 5157  16.736  24.071   3.900
32843W        W 5158  40.823  34.912   1.378
32844W        W 5159   2.204  26.420  14.002
32845W        W 5160   8.468   2.748   0.447
32846W        W 5161   7.715  14.921  12.171
32847W        W 5162  43.397  39.833   1.733
32848W        W 5163  30.966  38.049  12.060
32849W        W 5164  10.147  13.945  13.419
32850W        W 5165  24.582  35.514   3.288
32851W        W 5166  39.028  15.141  12.914
32852W        W 5167  30.467  16.276   1.804
32853W        W 5168  14.881   9.271   4.669
32854W        W 5169  41.523  25.145   3.754
32855W        W 5170  25.609   9.074  11.551
32856W        W 5171  30.184  31.893  12.276
32857W        W 5172  13.200  26.250  13.410
32858W        W 5173  19.258   7.157   4.469
32859W        W 5174   0.370  23.128   3.544
32860W        W 5175   1.992  29.592  10.728
32861W        W 5176  29.668  21.847   4.278
32862W        W 5177  38.848  15.681   1.907
32863W        W 5178  17.316  19.766  11.192
32864W        W 5179  22.248  29.067  12.949
32865W        W 5180   8.758  20.247   0.553
32866W        W 5181  10.028  22.471   3.762
32867W        W 5182   8.785  29.113  11.655
32868W        W 5183  43.970  35.941   0.545
32869W        W 5184   9.434  13.189   5.002
32870W        W 5185  30.029  32.095   4.081
32871W        W 5186   8.068   9.733   0.485
32872W        W 5187   7.249   7.943   3.242
32873W        W 5188  26.065  36.687  12.009
32874W        W 5189  29.808   0.323  14.052
32875W        W 5190  25.046  38.033  11.583
32876W        W 5191  37.298  14.014   2.616
32877W        W 5192   9.712  12.600  13.497
32878W        W 5193   5.411   2.844  14.857
32879W        W 5194  11.704  17.862  11.619
32880W        W 5195  34.693  20.246   4.256
32881W        W 5196  42.826  29.375   1.154
32882W        W 5197  38.960  26.760  10.672
32883W        W 5198   2.282  38.964  13.368
32884W        W 5199   0.699  40.932   4.130
32885W        W 5200  35.855  17.324  14.325
32886W        W 5201  13.067  41.101   1.990
32887W        W 5202  30.418   1.293  10.718
32888W        W 5203   3.660  19.491   1.305
32889W        W 5204  14.249  43.111   2.203
32890W        W 5205  39.929  23.192  13.415
32891W        W 5206  42.244   2.209  12.169
32892W        W 5207   2.892  12.625  11.336
32893W        W 5208  43.029  41.909  13.656
32894W        W 5209  35.995  20.676  10.704
32895W        W 5210  40.357  20.797   4.763
32896W        W 5211  12.836  29.978  10.648
32897W        W 5212   5.251   2.865   3.437
32898W        W 5213  35.820  14.716   0.933
32899W        W 5214  41.883   2.514  13.054
32900W        W 5215  30.196   9.264   0.794
32901W        W 5216   2.866  43.307   4.601
32902W        W 5217   0.417   9.166  13.867
32903W        W 5218  31.050  14.078   0.504
32904W        W 5219  24.639   0.884   2.142
32905W        W 5220  33.508   1.154   1.313
32906W        W 5221  25.938  35.384  13.093
32907W        W 5222   5.406  31.387  14.841
32908W        W 5223   8.129  16.586   0.771
32909W        W 5224  38.881  26.270   1.656
32910W        W 5225  34.919  24.080  11.420
32911W        W 5226  44.500  40.022   3.220
32912W        W 5227  28.508  32.885  14.454
32913W        W 5228  20.153  10.582  13.270
32914W        W 5229   7.976   1.461   4.708
32915W        W 5230  15.154  42.874  14.821
32916W        W 5231   9.640   8.600   1.448
32917W        W 5232  31.921  42.826   1.753
32918W        W 5233   7.548  37.863  13.252
32919W        W 5234  33.875  27.847   9.943
32920W        W 5235  20.015  36.148  10.132
32921W        W 5236  14.072  43.326  11.177
32922W        W 5237  44.514   1.299   0.717
32923W        W 5238  18.092  23.103  12.915
32924W        W 5239  22.706  21.355   2.404
32925W        W 5240   3.331  25.697   4.140
32926W        W 5241   3.344  20.300   4.562
32927W        W 5242  44.320  11.774  12.432
32928W        W 5243  11.002   6.798  12.129
32929W        W 5244  23.442  20.219  12.848
32930W        W 5245  26.449  37.473   4.757
32931W        W 5246  31.556  24.493  13.541
32932W        W 5247  33.964   9.658  14.360
32933W        W 5248  14.636   1.599  10.181
32934W        W 5249  34.142  19.730   2.304
32935W        W 5250  29.655  15.418  13.435
32936W        W 5251  44.524  32.074   3.243
32937W        W 5252  20.722  26.650  10.670
32938W        W 5253  36.242  21.568   3.116
32939W        W 5254  29.723  33.963  10.701
32940W        W 5255  32.775  10.292  12.561
32941W        W 5256  44.837  36.375  11.233
32942W        W 5257   3.486  40.017   4.158
32943W        W 5258   6.122  16.049   3.234
32944W        W 5259   2.706  10.144   2.821
32945W        W 5260  39.827  18.092  14.576
32946W        W 5261  30.326  20.729  12.584
32947W        W 5262   7.318  30.519  13.432
32948W        W 5263   5.908   4.492  11.621
32949W        W 5264  12.704  44.539   2.645
32950W        W 5265  36.674   0.359  10.786
32951W        W 5266  25.563  44.863  11.997
32952W        W 5267  17.129  43.258   1.130
32953W        W 5268  15.684  24.047  13.582
32954W        W 5269   7.328  14.010   3.673
32955W        W 5270  38.113  25.959  10.522
32956W        W 5271   4.869  36.774  14.853
32957W        W 5272  29.686  38.670   1.371
32958W        W 5273  25.210  27.179  13.326
32959W        W 5274   3.948  35.941   9.882
32960W        W 5275  29.609   5.993  14.416
32961W        W 5276  28.771  17.991  13.035
32962W        W 5277  35.127  25.715  12.394
32963W        W 5278  13.778  29.424   3.814
32964W        W 5279  39.580  43.827   4.622
32965W        W 5280   5.845  35.925   2.870
32966W        W 5281  28.178  18.299  11.826
32967W        W 5282  28.081   8.094   1.367
32968W        W 5283  13.240   3.337   3.584
32969W        W 5284  28.949   8.044  10.667
32970W        W 5285   3.690   9.208  13.550
32971W        W 5286  17.623  24.181  12.622
32972W        W 5287  26.523  35.852  13.473
32973W        W 5288  27.117  23.510  13.817
32974W        W 5289  26.645   7.691  14.020
32975W        W 5290  39.949  12.335  14.871
32976W        W 5291  42.588   8.273   4.985
32977W        W 5292  30.595  34.568  12.910
32978W        W 5293  35.280  33.096   2.164
32979W        W 5294  23.013  24.666   4.526
32980W        W 5295  14.472  20.615   4.286
32981W        W 5296  23.749  14.712   2.855
32982W        W 5297  22.334  38.247   2.739
32983W        W 5298  31.993   2.916   0.593
32984W        W 5299  19.571   0.035  13.366
32985W        W 5300  23.158   2.453   0.052
32986W        W 5301  22.049  26.623  14.444
32987W        W 5302   0.126  18.777   0.788
32988W        W 5303  11.113  42.258   4.290
32989W        W 5304  12.748  43.283   0.240
32990W        W 5305  38.004  16.558   3.724
32991W        W 5306  28.941  37.559  13.713
32992W        W 5307  33.919  31.861   1.840
32993W        W 5308   0.957  30.047  13.379
32994W        W 5309  38.022  27.831   4.659
32995W        W 5310  15.147  12.975  14.784
32996W        W 5311   3.532  28.120  11.426
32997W        W 5312  24.767  23.870  13.999
32998W        W 5313   2.746  11.723  12.905
32999W        W 5314   5.462  42.435   3.766
33000W        W 5315  24.053  12.862   1.866
33001W        W 5316   2.201  18.456  11.962
33002W        W 5317  14.661  32.617   2.861
33003W        W 5318  19.115  41.982   3.904
33004W        W 5319   6.178  40.570   3.105
33005W        W 5320   5.874  27.053  12.933
33006W        W 5321  23.623  12.128   2.691
33007W        W 5322   3.167  24.531  11.524
33008W        W 5323  38.525  37.577   3.222
33009W        W 5324  24.416  22.304   9.765
33010W        W 5325   3.481  31.190  12.472
33011W        W 5326   4.490   9.761   1.002
33012W        W 5327  43.669  44.669   1.427
33013W        W 5328   1.865  37.385  12.344
33014W        W 5329  30.568  30.695   1.731
33015W        W 5330  20.989   7.282  14.651
33016W        W 5331  16.172  19.630  13.327
33017W        W 5332  33.869   2.750   3.139
33018W        W 5333  11.757  26.672  14.439
33019W        W 5334  16.002  39.263  10.095
33020W        W 5335  42.531  42.928   3.614
33021W        W 5336  34.901  31.644   2.343
33022W        W 5337   4.614  31.085   1.435
33023W        W 5338  33.044   8.943  13.846
33024W        W 5339  17.313  15.194  13.973
33025W        W 5340  33.414   2.467   2.282
33026W        W 5341  33.028   6.394  11.263
33027W        W 5342  24.061   0.784   3.319
33028W        W 5343  37.989  10.246  12.606
33029W        W 5344  44.072  27.485   3.678
33030W        W 5345  28.722  27.371  13.406
33031W        W 5346  44.376  40.705   4.194
33032W        W 5347  34.579  21.827  11.514
33033W        W 5348  24.274  21.303   3.810
33034W        W 5349  28.493  33.239  12.478
33035W        W 5350  40.394  27.156   3.571
33036W        W 5351   2.709  43.971  10.904
33037W        W 5352  35.873  16.131  13.727
33038W        W 5353  33.121   7.245  10.661
33039W        W 5354  29.639  20.560   0.158
33040W        W 5355  37.062  38.908   2.337
33041W        W 5356   3.186  11.660   0.122
33042W        W 5357  36.058  11.727   3.376
33043W        W 5358  13.697  19.300  14.355
33044W        W 5359   9.769   2.699   4.018
33045W        W 5360  19.829  39.194  10.196
33046W        W 5361  39.256   5.391   3.606
33047W        W 5362  30.576  26.805  14.849
33048W        W 5363  20.513  15.184  11.389
33049W        W 5364   8.154  20.722  14.062
33050W        W 5365  42.415  29.428   2.036
33051W        W 5366  21.910  39.839  12.560
33052W        W 5367  34.656  33.358   0.272
33053W        W 5368  12.622  34.374  12.534
33054W        W 5369   5.473  26.094   3.080
33055W        W 5370  30.158  42.504  14.589
33056W        W 5371  28.066  23.072  12.149
33057W        W 5372  35.130  16.994  10.836
33058W        W 5373  35.565   3.519   4.120
33059W        W 5374  35.520   6.383   1.168
33060W        W 5375  21.654  37.017   4.664
33061W        W 5376   7.178  27.275  13.996
33062W        W 5377  33.455  36.519  10.904
33063W        W 5378  30.107  18.629   3.686
33064W        W 5379  13.847  26.031   2.325
33065W        W 5380  34.365  36.046  12.938
33066W        W 5381  11.103   9.995  12.543
33067W        W 5382  35.949  24.653  12.568
33068W        W 5383  31.020   6.713  12.403
33069W        W 5384   2.463   4.157  11.843
33070W        W 5385  14.766  19.489  13.572
33071W        W 5386  29.657  15.080   0.419
33072W        W 5387  16.311  28.203  10.202
33073W        W 5388   5.830  44.906   2.578
33074W        W 5389  28.149  11.524   4.130
33075W        W 5390   7.375  19.848  12.560
33076W        W 5391  17.597  34.933   4.143
33077W        W 5392  32.867  25.938  13.438
33078W        W 5393  15.103  12.730   2.805
33079W        W 5394  25.148  20.986   4.302
33080W        W 5395  30.898  12.148  14.458
33081W        W 5396  17.684  23.425   3.155
33082W        W 5397   4.251  35.182   2.279
33083W        W 5398   8.498  10.690  11.592
33084W        W 5399  26.426  18.724   1.986
33085W        W 5400  29.997  33.608  13.957
33086W        W 5401  22.269   6.333   4.753
33087W        W 5402   2.681   3.844  13.984
33088W        W 5403  39.602   6.926  11.705
33089W        W 5404  18.330  41.346  11.549
33090W        W 5405  13.121  19.166  10.356
33091W        W 5406  31.585   9.157   4.113
33092W        W 5407  39.383   9.680  14.719
33093W        W 5408   2.711  20.030   1.851
33094W        W 5409  14.574   4.660   4.776
33095W        W 5410   5.172  39.497  10.496
33096W        W 5411   0.197  35.552   2.226
33097W        W 5412  11.704   9.086   1.832
33098W        W 5413   3.329   3.851  14.798
33099W        W 5414  41.523  19.279  13.609
33100W        W 5415  14.098  12.332  11.158
33101W        W 5416   8.952   1.432  14.231
33102W        W 5417  35.342  36.978  14.445
33103W        W 5418  40.053  11.734   1.697
33104W        W 5419  26.507  40.598   1.755
33105W        W 5420   2.315   1.834   4.636
33106W        W 5421  33.826  24.687  14.128
33107W        W 5422  31.654  32.617   2.625
33108W        W 5423  29.842   4.971  11.123
33109W        W 5424  31.345   9.662   3.764
33110W        W 5425  16.697  19.271   1.448
33111W        W 5426  12.509  28.859  14.927
33112W        W 5427  10.458  36.919  12.386
33113W        W 5428  22.961   9.450  12.044
33114W        W 5429   6.206  25.959  13.452
33115W        W 5430  25.673  40.004   0.317
33116W        W 5431  44.944  44.987   1.840
33117W        W 5432  13.567  10.517   3.957
33118W        W 5433   6.200  25.912  11.595
33119W        W 5434  18.320  32.881  11.136
33120W        W 5435  40.052  10.432   2.227
33121W        W 5436  12.740  30.044  11.598
33122W        W 5437  36.056  23.231  12.469
33123W        W 5438  16.348  42.430   0.428
33124W        W 5439  35.615  23.118  11.151
33125W        W 5440  21.673  12.329   0.741
33126W        W 5441  32.569   7.652  13.797
33127W        W 5442  36.013   0.734   4.689
33128W        W 5443  26.136  24.565  13.953
33129W        W 5444  44.788  30.458  10.922
33130W        W 5445   9.704   9.338  13.490
33131W        W 5446  36.306  14.747   0.704
33132W        W 5447   3.196  12.257  14.442
33133W        W 5448  16.588  25.130   0.336
33134W        W 5449  32.870  44.238  12.536
33135W        W 5450   5.402  17.934   2.326
33136W        W 5451   5.034  39.111  11.103
33137W        W 5452  11.826   7.622  14.917
33138W        W 5453  41.924  38.881   3.674
33139W        W 5454  30.933  42.858  12.538
33140W        W 5455  43.395  35.876   1.945
33141W        W 5456  23.912  18.466  11.797
33142W        W 5457  32.088  41.899   1.382
33143W        W 5458   7.121   5.978  12.465
33144W        W 5459  23.197  14.865   4.624
33145W        W 5460  35.281  31.842  11.168
33146W        W 5461  25.969  13.133  13.399
33147W        W 5462  42.844  30.847   2.818
33148W        W 5463  25.569  27.953   4.159
33149W        W 5464  17.140  41.788   5.278
33150W        W 5465  26.340  29.666   3.792
33151W        W 5466  14.582  10.858  14.028
33152W        W 5467   3.474  40.520   4.260
33153W        W 5468  41.413  36.272  14.800
33154W        W 5469  23.063  10.119  13.645
33155W        W 5470   1.894  12.114  12.988
33156W        W 5471  40.375  37.987   3.864
33157W        W 5472  38.823  43.760   3.192
33158W        W 5473  37.929   8.848   1.868
33159W        W 5474   8.038  21.327  11.426
33160W        W 5475  38.847  11.258  14.720
33161W        W 5476  33.521   9.714  14.003
33162W        W 5477   2.251  28.671   3.135
33163W        W 5478  31.773  28.633  11.408
33164W        W 5479  23.342  17.851   3.917
33165W        W 5480  22.620  20.284   3.396
33166W        W 5481  27.392  27.246   1.340
33167W        W 5482  43.417   9.629   3.145
33168W        W 5483   9.393   4.179  12.094
33169W        W 5484  43.271  18.506   4.097
33170W        W 5485  25.978  30.604   2.046
33171W        W 5486  35.098  10.266   1.674
33172W        W 5487  33.882  43.931   0.884
33173W        W 5488   8.431  28.974  10.835
33174W        W 5489  14.332  10.442   1.943
33175W        W 5490  10.129   3.421  12.859
33176W        W 5491  33.125  43.266   3.313
33177W        W 5492  24.534  12.330   4.446
33178W        W 5493  21.429  36.290  11.736
33179W        W 5494  24.426  27.015  13.562
33180W        W 5495   7.113   1.809  12.514
33181W        W 5496  31.354  20.744   0.939
33182W        W 5497  35.616   9.393   2.509
33183W        W 5498   5.957  15.153  14.044
33184W        W 5499  34.701  41.365  14.776
33185W        W 5500   8.833  27.735  11.584
33186W        W 5501  44.303  27.197  14.647
33187W        W 5502  17.356  38.423  12.594
33188W        W 5503  14.123   3.329  13.527
33189W        W 5504   5.847  36.243  14.528
33190W        W 5505   1.511  31.937  10.513
33191W        W 5506  40.057  22.089   0.408
33192W        W 5507  17.799  11.366   2.614
33193W        W 5508   1.710   4.288  14.758
33194W        W 5509   1.777   7.398  13.593
33195W        W 5510  11.703  26.177   0.796
33196W        W 5511  21.991  44.010  11.766
33197W        W 5512   8.536  39.094  14.999
33198W        W 5513  34.518  11.306   2.690
33199W        W 5514  27.857  44.929  12.436
33200W        W 5515  12.105   3.004   1.738
33201W        W 5516  35.653  37.116   4.852
33202W        W 5517   5.367   9.056  10.704
33203W        W 5518  35.332  24.441  13.793
33204W        W 5519  38.115  30.019  13.936
33205W        W 5520   0.405  18.965   0.386
33206W        W 5521  29.521  33.758  13.315
33207W        W 5522   3.765   7.214   0.800
33208W        W 5523  20.225  16.876  11.120
33209W        W 5524  40.463  43.936  13.383
33210W        W 5525  26.643  23.025  11.730
33211W        W 5526   5.804  18.634  14.399
33212W        W 5527  23.197  39.756   2.104
33213W        W 5528   2.946  13.835   4.900
33214W        W 5529  23.980  24.162  14.367
33215W        W 5530  19.048  33.346  14.740
33216W        W 5531  17.914   5.314   4.851
33217W        W 5532   7.644  37.953  14.456
33218W        W 5533   8.113  23.012  14.993
33219W        W 5534  14.259  12.812   2.874
33220W        W 5535   6.181  27.023  13.345
33221W        W 5536  17.180  13.772  11.472
33222W        W 5537  19.291  29.534  11.560
33223W        W 5538  26.615  33.327   4.566
33224W        W 5539  30.022  30.550   0.197
33225W        W 5540  25.120  43.439  13.326
33226W        W 5541  40.913   0.629  11.239
33227W        W 5542  37.077  26.064  14.884
33228W        W 5543  42.964  20.080  12.609
33229W        W 5544  16.985   0.774  14.724
33230W        W 5545  42.105  31.570  11.165
33231W        W 5546  13.064   2.986  10.651
33232W        W 5547  20.156  38.980   0.306
33233W        W 5548  42.789  28.509  14.447
33234W        W 5549  39.751  11.119  12.608
33235W        W 5550  42.943   9.171   4.184
33236W        W 5551   0.973  25.120   3.190
33237W        W 5552  34.595   9.521   4.175
33238W        W 5553  28.004  35.040   1.485
33239W        W 5554  15.985  44.760  11.096
33240W        W 5555  44.711  26.053  11.289
33241W        W 5556  42.108  20.118  14.364
33242W        W 5557  44.577  31.123  14.857
33243W        W 5558  31.470  33.052   2.398
33244W        W 5559  10.371  37.442   0.532
33245W        W 5560   4.688  15.689  11.638
33246W        W 5561  37.610  16.011   4.143
33247W        W 5562  11.946  32.559   1.025
33248W        W 5563  36.110  23.466   0.156
33249W        W 5564  32.853  32.529   3.357
33250W        W 5565  25.507  34.586  12.421
33251W        W 5566   3.722  10.643  14.680
33252W        W 5567  39.125   8.182  14.408
33253W        W 5568  35.061  21.993  12.932
33254W        W 5569  38.185   6.264   1.242
33255W        W 5570   5.307  32.956  11.143
33256W        W 5571  30.491   9.635   0.031
33257W        W 5572  26.740  44.488  14.823
33258W        W 5573  35.635  32.927   3.897
33259W        W 5574  31.223  11.137  14.451
33260W        W 5575  14.635  15.412  13.574
33261W        W 5576  33.969  15.693  10.188
33262W        W 5577  35.378  35.131   2.183
33263W        W 5578   8.744  21.481  13.469
33264W        W 5579  39.528  19.486  14.852
33265W        W 5580  33.513  33.003   1.849
33266W        W 5581  36.192  15.096   1.746
33267W        W 5582  36.851   0.936  11.996
33268W        W 5583  13.237  33.594   1.895
33269W        W 5584  24.707  40.590   3.716
33270W        W 5585  16.608  41.107  14.313
33271W        W 5586  19.286   6.219   2.621
33272W        W 5587  18.727   7.717   4.103
33273W        W 5588  18.743  21.296   1.533
33274W        W 5589  37.396  42.760   3.393
33275W        W 5590  41.874  24.141   4.184
33276W        W 5591   7.128  13.703  13.128
33277W        W 5592  36.426   7.187   0.494
33278W        W 5593  10.349   5.287  13.232
33279W        W 5594   5.455  24.411  12.462
33280W        W 5595  40.366  37.557   3.091
33281W        W 5596  27.093  26.666  10.689
33282W        W 5597  44.772  43.525   1.788
33283W        W 5598  17.767  21.530  12.527
33284W        W 5599  41.803  32.454  14.071
33285W        W 5600  44.742  33.275   2.226
33286W        W 5601   1.991  18.201   1.688
33287W        W 5602  25.030  39.390   0.992
33288W        W 5603   4.724  27.580   3.578
33289W        W 5604  15.062  33.972   2.284
33290W        W 5605  21.280   0.790   1.956
33291W        W 5606   9.268  44.231   3.485
33292W        W 5607   1.721  13.174  13.966
33293W        W 5608  17.153  33.727   5.189
33294W        W 5609  33.470  28.821  14.623
33295W        W 5610  33.934  43.307  14.445
33296W        W 5611  40.288   1.831   0.410
33297W        W 5612  38.082  10.845  10.896
33298W        W 5613  19.723  22.996  11.653
33299W        W 5614  28.902  42.206  13.471
33300W        W 5615  15.571  44.767  12.394
33301W        W 5616   1.692  44.832  14.435
33302W        W 5617  29.342   4.863   5.070
33303W        W 5618  20.734  17.637  13.088
33304W        W 5619  31.687  27.439   1.475
33305W        W 5620  22.489  11.169  11.416
33306W        W 5621   9.732  27.621  11.226
33307W        W 5622  43.183  21.512  12.921
33308W        W 5623  16.532   0.650  10.514
33309W        W 5624  10.738   2.019   2.053
33310W        W 5625   0.063  41.479   4.482
33311W        W 5626  26.243  10.735  12.497
33312W        W 5627  23.497  37.339   2.827
33313W        W 5628  15.679  38.568  10.748
33314W        W 5629  16.666  41.593  12.103
33315W        W 5630  16.628  27.936   1.942
33316W        W 5631  28.339   7.802   2.715
33317W        W 5632   2.996   1.932   2.400
33318W        W 5633  27.374  33.095  11.624
33319W        W 5634  34.149   4.771   1.294
33320W        W 5635   7.686   2.537   4.203
33321W        W 5636  28.458   6.857  10.502
33322W        W 5637   2.756   1.178  13.532
33323W        W 5638  39.990  36.820  12.930
33324W        W 5639  35.477  23.450  14.543
33325W        W 5640  20.312   6.651  11.132
33326W        W 5641  10.867   9.196  12.765
33327W        W 5642  20.658  17.129  12.032
33328W        W 5643   3.303  32.589   4.481
33329W        W 5644  12.579  27.050  12.325
33330W        W 5645  44.298  40.366  14.481
33331W        W 5646  10.347  44.502  10.654
33332W        W 5647  11.334  13.634   3.298
33333W        W 5648  32.951  23.605   0.487
33334W        W 5649  38.604  17.291  13.387
33335W        W 5650  22.275  20.685   1.617
33336W        W 5651  26.883  25.059  11.209
33337W        W 5652  40.838   8.785   4.920
33338W        W 5653  26.037  25.978  12.146
33339W        W 5654  42.473  32.209  12.374
33340W        W 5655   4.230   5.391   4.059
33341W        W 5656   0.893  11.291   5.164
33342W        W 5657  36.072  26.724  11.171
33343W        W 5658  26.695  36.873  12.619
33344W        W 5659  12.095  44.320  12.697
33345W        W 5660  11.247  12.619   4.363
33346W        W 5661  44.854   2.847   4.327
33347W        W 5662   2.517  13.133  14.387
33348W        W 5663  13.323  17.781  12.416
33349W        W 5664  31.967  23.769   2.338
33350W        W 5665   3.398  11.404   3.146
33351W        W 5666  30.553  18.168  11.641
33352W        W 5667  22.695  12.944   2.234
33353W        W 5668  24.613  34.040   3.182
33354W        W 5669  40.748  24.874  14.466
33355W        W 5670  28.528  38.599   2.293
33356W        W 5671   4.036  41.142  12.730
33357W        W 5672  40.992  20.302  14.885
33358W        W 5673  17.299  34.438  12.361
33359W        W 5674   4.472   8.253   1.710
33360W        W 5675  36.560  21.975   4.566
33361W        W 5676  39.964  14.511   4.833
33362W        W 5677  25.928  31.203   0.802
33363W        W 5678  27.126  29.481  12.866
33364W        W 5679  10.796  10.649   3.627
33365W        W 5680   3.879  23.511   3.705
33366W        W 5681   7.446  44.958   1.716
33367W        W 5682  31.409  21.617   3.723
33368W        W 5683  32.371   8.102  14.461
33369W        W 5684  19.966  42.978  10.594
33370W        W 5685  28.963  19.830  14.945
33371W        W 5686  16.144  30.562  13.230
33372W        W 5687  30.081   2.895  13.928
33373W        W 5688  25.389  12.366  12.059
33374W        W 5689  42.757   7.797   4.389
33375W        W 5690   8.736  36.063   0.821
33376W        W 5691  14.315  36.979  14.358
33377W        W 5692  30.294  42.815  13.277
33378W        W 5693  10.053  39.808  11.461
33379W        W 5694   4.851  35.106  10.782
33380W        W 5695  41.594  20.872   1.281
33381W        W 5696   3.793   7.118  11.508
33382W        W 5697  21.953  35.432  14.515
33383W        W 5698   1.751   7.216   4.626
33384W        W 5699  30.173  37.941  13.022
33385W        W 5700   2.902  13.372  13.465
33386W        W 5701  35.458  44.708   4.051
33387W        W 5702  42.448  11.746  10.815
33388W        W 5703  17.690  13.280  10.806
33389W        W 5704   2.089  40.405  10.790
33390W        W 5705  28.119  16.851  12.931
33391W        W 5706  43.325   6.197   0.739
33392W        W 5707  19.212   3.285   3.092
33393W        W 5708  28.183  17.525   4.135
33394W        W 5709  10.326  39.997  13.867
33395W        W 5710  31.829  29.971   0.779
33396W        W 5711  28.658  40.851  12.309
33397W        W 5712  22.240   8.150   1.551
33398W        W 5713  11.535  12.631  10.294
33399W        W 5714  41.266   2.233  14.796
33400W        W 5715  11.378   5.863  13.813
33401W        W 5716  34.471   5.886   3.236
33402W        W 5717  35.232  10.782  12.451
33403W        W 5718  15.666  35.641   1.578
33404W        W 5719  35.646   4.834   0.118
33405W        W 5720  29.075  27.905   3.868
33406W        W 5721  26.491   8.835  11.578
33407W        W 5722  43.041  19.447  10.271
33408W        W 5723  25.138  31.990  11.628
33409W        W 5724   9.705  14.646   1.298
33410W        W 5725  27.576   3.969  11.989
33411W        W 5726  32.155  13.535  13.923
33412W        W 5727  25.975  26.538  12.352
33413W        W 5728  29.206  27.185  13.514
33414W        W 5729  33.453  38.228  14.470
33415W        W 5730   1.435  35.065  13.331
33416W        W 5731  31.505  38.622  13.775
33417W        W 5732   3.642  20.245   2.743
33418W        W 5733   2.273  34.812   1.016
33419W        W 5734  11.837  30.167   0.999
33420W        W 5735   2.945  16.705   2.823
33421W        W 5736   4.600   2.709  10.401
33422W        W 5737  36.372   5.162   3.688
33423W        W 5738  20.622  18.565   0.402
33424W        W 5739  16.125   4.786  11.799
33425W        W 5740  12.550  11.982   3.964
33426W        W 5741  30.580  11.640  13.817
33427W        W 5742  28.146  22.576  13.936
33428W        W 5743  36.097   8.206   1.888
33429W        W 5744  17.061  26.036  11.191
33430W        W 5745  20.579  27.157   0.271
33431W        W 5746  12.386  13.671   1.765
33432W        W 5747  31.109  31.502  10.717
33433W        W 5748  20.202  33.466  14.284
33434W        W 5749  20.136   3.244   1.325
33435W        W 5750  24.117  14.623  12.477
33436W        W 5751  14.246  42.494  13.919
33437W        W 5752  43.872  30.438  14.736
33438W        W 5753  14.210  42.405  11.267
33439W        W 5754  32.035  14.593  12.415
33440W        W 5755  41.539  21.162   3.203
33441W        W 5756  38.318  35.280  11.886
33442W        W 5757  36.604  10.264  13.729
33443W        W 5758  42.604  24.221  13.326
33444W        W 5759   1.302   3.808  10.721
33445W        W 5760  23.991  22.131   4.933
33446W        W 5761   8.706  22.018   3.566
33447W        W 5762  17.822  43.913   4.776
33448W        W 5763  40.895   0.976   0.242
33449W        W 5764  30.133  30.403   1.597
33450W        W 5765  21.619  10.808   4.808
33451W        W 5766  12.269  28.585  11.168
33452W        W 5767  26.321  13.763  14.521
33453W        W 5768  32.074  13.219  12.953
33454W        W 5769  44.325  22.113  13.377
33455W        W 5770  22.253  17.722  10.651
33456W        W 5771  36.394   7.912   3.223
33457W        W 5772  33.492  31.869   1.513
33458W        W 5773  16.977  10.743  12.476
33459W        W 5774  18.690  33.062  10.694
33460W        W 5775  32.417  28.043   3.631
33461W        W 5776  19.660  41.379  12.945
33462W        W 5777  29.371  11.532   3.730
33463W        W 5778  27.916  29.933   2.407
33464W        W 5779  37.826   9.801   0.777
33465W        W 5780  29.901  40.950   3.780
33466W        W 5781  14.198  35.909   1.423
33467W        W 5782  33.529  24.466  12.039
33468W        W 5783  20.192   7.705  14.925
33469W        W 5784   7.893  24.782   1.085
33470W        W 5785  36.604  14.292   0.724
33471W        W 5786  22.494   3.010  12.721
33472W        W 5787  11.096  14.690  11.167
33473W        W 5788  18.092   2.521  11.968
33474W        W 5789  35.929  12.054   1.949
33475W        W 5790   6.412  20.601   0.788
33476W        W 5791   7.605  41.990   3.667
33477W        W 5792  36.803  23.492  11.590
33478W        W 5793  43.886  14.614  11.518
33479W        W 5794  28.144  44.471   4.618
33480W        W 5795  32.929   4.229   1.451
33481W        W 5796  20.825   6.427  14.233
33482W        W 5797   6.263  44.136   3.707
33483W        W 5798  13.138  29.614  10.303
33484W        W 5799   7.113   4.793  13.851
33485W        W 5800  39.955  31.167   1.873
33486W        W 5801   5.977  19.789   1.336
33487W        W 5802   0.567  25.182  11.188
33488W        W 5803   8.917  17.814  13.923
33489W        W 5804  15.839  36.818  11.510
33490W        W 5805   5.439  20.658   2.943
33491W        W 5806  25.111   1.412   3.678
33492W        W 5807  22.106  35.407   1.887
33493W        W 5808  34.178   0.147   4.800
33494W        W 5809   1.564  17.615   2.265
33495W        W 5810   9.818  44.467  14.704
33496W        W 5811  24.400   5.235   3.887
33497W        W 5812  44.826  17.886  12.413
33498W        W 5813   7.944  22.791  10.926
33499W        W 5814  27.095  11.824  13.846
33500W        W 5815  19.745  44.334   1.897
33501W        W 5816  24.098  26.263   4.319
33502W        W 5817  21.230  24.065   2.261
33503W        W 5818  19.578  40.268   2.755
33504W        W 5819   8.285  24.983  12.452
33505W        W 5820  27.584  23.255  11.244
33506W        W 5821  36.571   5.984   1.277
33507W        W 5822  16.975   9.122  14.104
33508W        W 5823  44.285   3.595  11.922
33509W        W 5824  17.741  38.464  10.671
33510W        W 5825  38.933  39.992  11.717
33511W        W 5826   0.437   8.301   2.697
33512W        W 5827  37.112   0.954  11.537
33513W        W 5828   2.711  29.705  14.061
33514W        W 5829  33.187  16.027   0.692
33515W        W 5830  12.800  18.225   1.682
33516W        W 5831   4.241  11.729   1.678
33517W        W 5832  44.605  23.226   2.125
33518W        W 5833  24.455  30.161   3.880
33519W        W 5834  31.521  41.832  12.529
33520W        W 5835  29.567  13.076   1.435
33521W        W 5836  10.401  16.070   4.610
33522W        W 5837  24.060  28.476  14.610
33523W        W 5838   9.056  32.878  14.425
33524W        W 5839  11.365   9.119   1.404
33525W        W 5840  31.433  40.291  14.676
33526W        W 5841  38.571  24.000  14.657
33527W        W 5842  19.821  13.808  14.797
33528W        W 5843  36.854  40.458  10.690
33529W        W 5844  26.466  12.592  13.045
33530W        W 5845  40.029  12.712   0.247
33531W        W 5846  33.019  17.950  10.688
33532W        W 5847  41.084  37.629   2.874
33533W        W 5848  13.428  33.205  14.282
33534W        W 5849  38.980  30.995  14.391
33535W        W 5850  43.610  43.762  12.483
33536W        W 5851  10.582  33.271  10.362
33537W        W 5852  37.961  21.256   5.016
33538W        W 5853  22.755  34.173   0.716
33539W        W 5854  16.060  27.898  13.814
33540W        W 5855  41.274  32.904   3.182
33541W        W 5856  31.430   7.287   4.336
33542W        W 5857  26.412  33.506   4.118
33543W        W 5858  26.568  18.426  14.894
33544W        W 5859  44.224   0.789  12.104
33545W        W 5860  13.821  10.761  10.984
33546W        W 5861  15.023  28.510  11.871
33547W        W 5862  28.926   1.395   1.668
33548W        W 5863   4.900   3.485   4.846
33549W        W 5864  29.159  40.573   3.305
33550W        W 5865   5.441  27.904  12.691
33551W        W 5866  20.237  40.217  10.563
33552W        W 5867   1.853  38.366  12.644
33553W        W 5868  28.902  26.939  11.180
33554W        W 5869   5.703  23.721   2.177
33555W        W 5870  27.723  12.498  14.371
33556W        W 5871  32.082   8.122  13.988
33557W        W 5872   7.312   7.236   2.206
33558W        W 5873  30.055  21.196   0.255
33559W        W 5874   2.712  38.598   2.909
33560W        W 5875  24.716  12.641  12.901
33561W        W 5876  19.287  29.217   2.638
33562W        W 5877   6.158  22.139  14.741
33563W        W 5878   6.565  13.227  11.129
33564W        W 5879   6.937  33.415  10.710
33565W        W 5880  39.774  14.269  11.082
33566W        W 5881  12.271  18.968  10.774
33567W        W 5882  39.596  37.083   1.325
33568W        W 5883  27.420  38.084  12.985
33569W        W 5884  10.643  33.478  12.571
33570W        W 5885  12.414  35.757   2.205
33571W        W 5886  25.852  32.988   3.859
33572W        W 5887   6.669  19.066   4.719
33573W        W 5888  34.477  44.427  13.791
33574W        W 5889  32.067   9.777   2.916
33575W        W 5890  40.927  25.024  14.919
33576W        W 5891  10.872  17.343  11.479
33577W        W 5892  21.134  21.847  14.394
33578W        W 5893  17.179   4.368   2.655
33579W        W 5894   6.842   5.195   4.504
33580W        W 5895  10.272  42.518   4.107
33581W        W 5896  11.763  34.511   1.359
33582W        W 5897  40.086  31.543   2.810
33583W        W 5898   1.513  14.732  11.561
33584W        W 5899  21.551  22.930  12.476
33585W        W 5900  33.376  39.985  13.405
33586W        W 5901  41.276  13.257  10.746
33587W        W 5902   9.969  32.229   1.332
33588W        W 5903  25.667   0.918  13.022
33589W        W 5904  39.110  44.393   4.799
33590W        W 5905  16.538  25.014   2.947
33591W        W 5906  28.492  27.203  11.396
33592W        W 5907  43.240  31.666  14.467
33593W        W 5908  19.759  15.079   1.881
33594W        W 5909  31.165  12.358  12.938
33595W        W 5910  36.459  41.237  10.331
33596W        W 5911  22.154  25.614  14.343
33597W        W 5912  21.502   7.636   2.735
33598W        W 5913  42.942  19.173  14.241
33599W        W 5914  34.183  28.466  12.036
33600W        W 5915  33.439  40.764  14.944
33601W        W 5916  35.605   4.973  10.979
33602W        W 5917   0.903   9.914   3.667
33603W        W 5918   3.507   7.466  14.161
33604W        W 5919  13.495   4.903   1.817
33605W        W 5920  21.697  24.050   0.428
33606W        W 5921  24.200   7.786  14.969
33607W        W 5922  33.506   8.879  14.410
33608W        W 5923  15.242   6.181  14.525
33609W        W 5924  22.278  43.803  12.444
33610W        W 5925  10.765  16.572   4.075
33611W        W 5926   6.712  22.560   4.120
33612W        W 5927   9.749  20.589  14.474
33613W        W 5928  31.012  15.541  14.525
33614W        W 5929  36.903  44.151  12.582
33615W        W 5930   4.241  31.614  13.898
33616W        W 5931  19.225   0.217   0.266
33617W        W 5932  42.938  22.500   4.109
33618W        W 5933  38.553  10.647  14.378
33619W        W 5934  27.793  27.593   0.428
33620W        W 5935  29.168  34.891   2.787
33621W        W 5936  29.957  15.891  14.909
33622W        W 5937  11.513   5.715  14.290
33623W        W 5938   5.218   6.214   3.618
33624W        W 5939  21.652   4.215  10.823
33625W        W 5940  36.409   5.997  12.487
33626W        W 5941  14.184  24.069   4.146
33627W        W 5942   6.062  17.415   0.575
33628W        W 5943   3.753   7.288  13.069
33629W        W 5944   2.287  17.841   3.063
33630W        W 5945  15.740  16.259   4.754
33631W        W 5946  24.271  10.351  12.897
33632W        W 5947  38.407  12.723  13.837
33633W        W 5948  22.345   3.957  14.088
33634W        W 5949  19.097  37.989  12.585
33635W        W 5950  18.031   9.559   3.312
33636W        W 5951  31.175  41.400  12.593
33637W        W 5952   3.100  12.778   4.057
33638W        W 5953   5.995  31.699   4.189
33639W        W 5954  16.487   4.239   3.798
33640W        W 5955  21.239  26.634  13.849
33641W        W 5956   5.932  28.157   0.876
33642W        W 5957  22.783   7.142  12.512
33643W        W 5958  22.238  24.134   0.485
33644W        W 5959  15.517  32.330   3.812
33645W        W 5960  28.942  27.631  13.827
33646W        W 5961  36.380  34.998  13.577
33647W        W 5962  33.001   8.984  10.377
33648W        W 5963  44.978  20.233   3.215
33649W        W 5964  20.771  30.455  10.820
33650W        W 5965   1.749  22.623  12.929
33651W        W 5966   0.804  27.754   3.673
33652W        W 5967  41.772  22.106  14.579
33653W        W 5968  44.050   2.704  11.056
33654W        W 5969  33.921  13.913  14.673
33655W        W 5970  27.206  17.624   4.578
33656W        W 5971  44.363  30.025   4.521
33657W        W 5972  27.572  29.715  13.621
33658W        W 5973  19.292  43.397  14.471
33659W        W 5974   5.074  38.112   3.854
33660W        W 5975  17.300   7.394   3.620
33661W        W 5976  17.768  35.335   3.245
33662W        W 5977  39.255  21.053   3.767
33663W        W 5978  38.106  17.854  13.050
33664W        W 5979   0.826   5.962  12.500
33665W        W 5980   6.152   3.719  13.638
33666W        W 5981  18.881  44.096   2.911
33667W        W 5982  24.930  44.435  14.329
33668W        W 5983  22.640  38.887   4.944
33669W        W 5984   0.449  30.015   0.747
33670W        W 5985   6.738   0.228   2.331
33671W        W 5986  11.646  30.106   4.445
33672W        W 5987  25.869  26.393   4.410
33673W        W 5988  24.925  31.435  14.083
33674W        W 5989  33.317  26.483   2.392
33675W        W 5990   6.471   1.701  10.742
33676W        W 5991  19.222  24.171   0.531
33677W        W 5992   7.711   5.229   1.707
33678W        W 5993  11.728  44.474  11.332
33679W        W 5994   9.540  11.683  11.137
33680W        W 5995  42.316  21.635  12.426
33681W        W 5996  38.693  27.524   0.024
33682W        W 5997  24.493   6.451   3.973
33683W        W 5998  20.176   0.475   1.326
33684W        W 5999  12.803  19.188   3.211
33685W        W 6000  15.597  16.277  12.454
33686W        W 6001  15.316  15.410   3.380
33687W        W 6002  17.672  16.329  11.967
33688W        W 6003  26.154  12.734   1.245
33689W        W 6004   2.494  17.357   4.185
33690W        W 6005  30.348  38.706   4.091
33691W        W 6006  32.134  36.218   4.343
33692W        W 6007  28.406  37.772   2.742
33693W        W 6008  25.881   1.049  12.545
33694W        W 6009  37.451   3.664   0.399
33695W        W 6010  11.683  44.563   2.096
33696W        W 6011  20.282  29.956   3.305
33697W        W 6012  44.817  12.625   4.639
33698W        W 6013  36.904  21.002   2.483
33699W        W 6014  28.617  38.317  11.186
33700W        W 6015  21.596  32.820  11.811
33701W        W 6016  40.832  31.449  10.416
33702W        W 6017   4.742  30.367   0.752
33703W        W 6018  26.114  28.159  14.391
33704W        W 6019  12.367   9.659  14.570
33705W        W 6020  14.167  19.994   1.381
33706W        W 6021  27.124  42.987   2.741
33707W        W 6022   2.726  28.418   3.090
33708W        W 6023  44.045  25.948  12.492
33709W        W 6024  44.420  27.188   1.148
33710W        W 6025   0.308   4.967  12.375
33711W        W 6026  17.067  44.842   4.342
33712W        W 6027  24.276  20.539  14.995
33713W        W 6028  32.317  11.719   3.735
33714W        W 6029  44.519  11.372   4.937
33715W        W 6030   7.278   5.635   1.371
33716W        W 6031   1.415  36.236  10.191
33717W        W 6032  18.876   5.381  13.254
33718W        W 6033  41.448  16.258   1.697
33719W        W 6034  44.325   5.812  11.288
33720W        W 6035  38.496  30.465   2.390
33721W        W 6036  24.224   6.316  11.113
33722W        W 6037  32.940  20.162   0.887
33723W        W 6038  13.360  35.553   2.683
33724W        W 6039   7.926  22.793  14.553
33725W        W 6040  12.380   8.816   2.753
33726W        W 6041  20.399  21.720   0.896
33727W        W 6042  12.743  16.936  10.018
33728W        W 6043   5.185  19.113  14.874
33729W        W 6044  11.906  26.031  11.863
33730W        W 6045  34.408   6.692   1.793
33731W        W 6046  36.633  17.418  14.657
33732W        W 6047  40.665   3.661  12.996
33733W        W 6048  12.720  27.038  13.305
33734W        W 6049   0.754   1.860  11.912
33735W        W 6050  24.255  14.101  12.520
33736W        W 6051  25.966  28.705  10.373
33737W        W 6052  16.788  11.412  12.806
33738W        W 6053  12.307  21.666  11.612
33739W        W 6054  33.398  27.605  13.850
33740W        W 6055  18.045  32.442  11.108
33741W        W 6056   6.808   4.651  14.709
33742W        W 6057  22.710  32.430  14.662
33743W        W 6058   2.105  39.936   4.554
33744W        W 6059   0.833  15.809  13.518
33745W        W 6060  28.558  31.887   3.324
33746W        W 6061  30.566  25.237  11.605
33747W        W 6062  30.369  28.340   0.481
33748W        W 6063  44.076   5.499  13.051
33749W        W 6064   0.445  26.668  14.451
33750W        W 6065  32.940  41.605  12.099
33751W        W 6066  15.551  44.577  14.999
33752W        W 6067  26.394  20.786   1.334
33753W        W 6068   9.920  39.970  14.271
33754W        W 6069   8.882  37.522   1.181
33755W        W 6070  41.910  25.560   2.415
33756W        W 6071  27.957  30.392   3.535
33757W        W 6072  44.093   4.266   1.724
33758W        W 6073  20.229  27.380   3.430
33759W        W 6074  43.505  27.341  13.924
33760W        W 6075   1.701  24.593  14.264
33761W        W 6076  34.917  38.544   1.307
33762W        W 6077  42.989  26.314  11.984
33763W        W 6078   5.881  34.920  14.469
33764W        W 6079  38.500  28.896  14.554
33765W        W 6080   1.478  21.581  12.398
33766W        W 6081  15.766  34.078  10.668
33767W        W 6082  44.429  10.239   2.828
33768W        W 6083   7.403  41.234   2.324
33769W        W 6084  27.091  32.079   4.612
33770W        W 6085  11.775  30.169  10.174
33771W        W 6086  10.573   7.153   2.356
33772W        W 6087  34.523  15.318   3.800
33773W        W 6088  41.957  35.432  14.754
33774W        W 6089  13.335  13.809  12.562
33775W        W 6090  32.426   0.727  11.021
33776W        W 6091  15.722   3.152   1.887
33777W        W 6092  29.683   2.151   0.906
33778W        W 6093   5.531  25.606   2.161
33779W        W 6094  16.217   4.627  12.619
33780W        W 6095  44.993  35.185  12.446
33781W        W 6096  12.897   7.299  12.487
33782W        W 6097  12.050  16.359   0.918
33783W        W 6098  30.623  23.648   1.867
33784W        W 6099  24.929  10.334  11.056
33785W        W 6100  33.952  28.389   4.984
33786W        W 6101  33.561  12.877  14.862
33787W        W 6102  28.342  15.005   5.045
33788W        W 6103  42.950  36.276   0.524
33789W        W 6104  26.488  26.244  11.851
33790W        W 6105  33.594  18.553   2.874
33791W        W 6106  31.457  43.828  14.429
33792W        W 6107  37.943   8.802  12.637
33793W        W 6108   4.648   5.023  10.850
33794W        W 6109  33.576  38.954   9.941
33795W        W 6110  22.654   0.921  14.422
33796W        W 6111  40.625  12.785   2.905
33797W        W 6112  11.658   2.685  11.013
33798W        W 6113   1.749  36.680  10.526
33799W        W 6114  31.759  14.671  14.818
33800W        W 6115  16.152  21.660   0.843
33801W        W 6116  19.001  34.889  14.833
33802W        W 6117  21.611   6.255  10.679
33803W        W 6118  30.182  29.204   2.305
33804W        W 6119  33.386  38.128   0.883
33805W        W 6120  11.092  37.786   3.074
33806W        W 6121  26.259  42.751  14.416
33807W        W 6122  39.791   5.242   0.736
33808W        W 6123  34.466  16.236  10.765
33809W        W 6124   1.311  36.926   1.424
33810W        W 6125   6.898  13.740  11.862
33811W        W 6126  25.657  38.304   0.653
33812W        W 6127   4.760  26.742  13.130
33813W        W 6128  40.109  43.264   0.164
33814W        W 6129   5.860  26.391   3.756
33815W        W 6130  21.316  43.561  13.592
33816W        W 6131  18.669   1.743   1.889
33817W        W 6132  10.757  44.441   0.595
33818W        W 6133  37.796  43.623   4.427
33819W        W 6134  34.855  27.057  12.030
33820W        W 6135  32.774  39.548   2.264
33821W        W 6136  26.625  27.068   3.124
33822W        W 6137  10.205  34.151  13.927
33823W        W 6138  20.144  17.120   2.396
33824W        W 6139  24.077  12.272   1.326
33825W        W 6140  19.037  34.686  13.410
33826W        W 6141  24.988  18.110   3.334
33827W        W 6142  32.438   1.493   2.896
33828W        W 6143  25.959   7.179  12.400
33829W        W 6144  28.134  43.867  13.476
33830W        W 6145  28.966   4.174  12.019
33831W        W 6146  42.573  27.538  12.083
33832W        W 6147  26.464  21.136   3.294
33833W        W 6148  35.572  24.988   2.230
33834W        W 6149  12.789  22.426   3.743
33835W        W 6150  12.888  32.529   4.201
33836W        W 6151   6.116   5.349   0.299
33837W        W 6152  30.421  29.532   3.310
33838W        W 6153  15.694  37.084  11.083
33839W        W 6154   8.827   1.237  10.494
33840W        W 6155  35.599  19.534   2.334
33841W        W 6156   4.643  30.757  11.231
33842W        W 6157  44.827   2.033  13.858
33843W        W 6158   0.780  14.379   2.261
33844W        W 6159  43.722  40.233   1.907
33845W        W 6160   4.473  43.689   3.115
33846W        W 6161   9.892  44.942   4.274
33847W        W 6162  27.381  16.173  11.211
33848W        W 6163  18.560  15.335   3.861
33849W        W 6164  37.117  24.054  13.391
33850W        W 6165  16.307  13.618   0.464
33851W        W 6166  20.738  42.911   3.348
33852W        W 6167  38.902  18.568  13.801
33853W        W 6168  44.911  34.377   1.516
33854W        W 6169   8.786  38.699  11.607
33855W        W 6170  34.899  23.262   3.650
33856W        W 6171  21.487  34.390   4.536
33857W        W 6172   4.882  10.109   2.325
33858W        W 6173  25.040  22.642   3.652
33859W        W 6174   9.385  38.858   1.804
33860W        W 6175  35.779  14.695   0.435
33861W        W 6176  29.019  33.330  12.465
33862W        W 6177  36.230   9.098  13.891
33863W        W 6178  19.335  16.179   1.823
33864W        W 6179   5.474  10.582   3.199
33865W        W 6180  35.329  44.401  12.529
33866W        W 6181  12.153  34.895  11.538
33867W        W 6182  44.876   1.788   1.289
33868W        W 6183  27.624   3.138   2.606
33869W        W 6184   5.739  43.069  12.554
33870W        W 6185   7.681  25.100  11.630
33871W        W 6186   9.604  13.441  14.913
33872W        W 6187  10.539  20.011  10.019
33873W        W 6188  11.301  17.403   1.324
33874W        W 6189  43.889  43.073  11.426
33875W        W 6190   3.848   3.493   4.266
33876W        W 6191  42.904  37.345   2.380
33877W        W 6192  31.223  43.762   2.868
33878W        W 6193  30.839  42.874  14.891
33879W        W 6194   4.733  19.070   2.434
33880W        W 6195  20.105  19.832   3.885
33881W        W 6196  42.812  19.581   3.805
33882W        W 6197  28.173  32.617   2.230
33883W        W 6198  40.739  40.312  14.903
33884W        W 6199  26.528   9.155   0.348
33885W        W 6200  15.812  32.844   2.193
33886W        W 6201  19.646  19.108  14.510
33887W        W 6202  37.508  27.260   3.281
33888W        W 6203  40.117  15.878  14.389
33889W        W 6204  10.386   4.991   3.285
33890W        W 6205  38.007  13.328  13.525
33891W        W 6206  22.316  38.967  12.915
33892W        W 6207  23.628  33.830  12.431
33893W        W 6208   8.229  13.164   3.866
33894W        W 6209  13.636  42.562   2.754
33895W        W 6210  33.753  19.640  10.292
33896W        W 6211  31.616  21.083  12.126
33897W        W 6212  20.197  42.826  10.139
33898W        W 6213   4.385   5.810   3.810
33899W        W 6214  25.105  23.243  10.714
33900W        W 6215  26.202  26.669  11.905
33901W        W 6216   8.774  19.678   4.128
33902W        W 6217  15.335   5.728   3.589
33903W        W 6218  27.176  43.490  10.568
33904W        W 6219  39.281   2.464  12.004
33905W        W 6220  22.112  11.153   0.410
33906W        W 6221  20.603  28.141  13.526
33907W        W 6222  20.635  27.528   4.274
33908W        W 6223  19.163  21.780  13.112
33909W        W 6224  38.039  12.416  12.447
33910W        W 6225  10.835  11.617  14.427
33911W        W 6226   3.230  36.546  10.750
33912W        W 6227  20.683   5.530   0.396
33913W        W 6228   9.393  10.029  12.992
33914W        W 6229  24.568  27.277  11.418
33915W        W 6230  25.702  24.722   4.308
33916W        W 6231  30.569  39.401  12.995
33917W        W 6232   5.283  17.304  13.452
33918W        W 6233  40.069  13.159   4.185
33919W        W 6234   3.858  22.074   1.503
33920W        W 6235  22.976  27.062   3.647
33921W        W 6236   4.883  36.020  11.727
33922W        W 6237   8.730  39.931   2.396
33923W        W 6238  43.104  26.763   1.745
33924W        W 6239  10.440  30.978  13.702
33925W        W 6240  40.510  31.409   3.112
33926W        W 6241  40.648  12.844  14.006
33927W        W 6242  16.279  36.150   1.886
33928W        W 6243  35.048  42.225  14.977
33929W        W 6244  29.612  32.517   0.954
33930W        W 6245  24.270  38.267  13.501
33931W        W 6246  36.837   5.711  10.685
33932W        W 6247  35.057  30.165  13.031
33933W        W 6248  43.207  37.927   3.098
33934W        W 6249  20.837  30.225  14.925
33935W        W 6250  12.590   4.498  10.165
33936W        W 6251  44.813  27.929  10.211
33937W        W 6252  13.333   6.864  14.783
33938W        W 6253  31.381  38.084   3.453
33939W        W 6254  16.581   5.383  11.940
33940W        W 6255   3.299   7.170   3.573
33941W        W 6256  15.881   7.951   4.010
33942W        W 6257  42.262  24.480   1.150
33943W        W 6258  41.359  23.722   1.944
33944W        W 6259  29.500   9.366  11.465
33945W        W 6260  44.809  43.314  11.417
33946W        W 6261  16.126  39.011   0.734
33947W        W 6262  22.725  17.605   2.148
33948W        W 6263  41.460  21.697   3.688
33949W        W 6264  43.841   3.456   1.677
33950W        W 6265  36.028  33.635   1.251
33951W        W 6266   6.729  13.798   2.867
33952W        W 6267  38.508  38.481   2.210
33953W        W 6268  22.655  40.385  10.551
33954W        W 6269  20.516  41.850   1.520
33955W        W 6270  21.670  18.744   3.336
33956W        W 6271  17.797  38.941  14.687
33957W        W 6272  20.976   2.925   2.319
33958W        W 6273  16.722  36.538   1.277
33959W        W 6274  15.733   7.998  14.478
33960W        W 6275   8.563  33.184  12.476
33961W        W 6276  12.858  41.052   0.806
33962W        W 6277  13.087   4.735  11.969
33963W        W 6278  41.778   0.425  11.970
33964W        W 6279  18.798  19.770  12.459
33965W        W 6280  27.225  42.835   0.823
33966W        W 6281  12.128   8.861   3.217
33967W        W 6282   2.960  34.533   1.310
33968W        W 6283  43.923  22.994  14.405
33969W        W 6284  30.983   3.334   1.948
33970W        W 6285  12.318   1.636   3.979
33971W        W 6286   9.878  41.760  13.987
33972W        W 6287  14.231   7.127  12.950
33973W        W 6288  43.258  30.139   4.839
33974W        W 6289  13.846  14.650  13.445
33975W        W 6290  18.723   6.418   4.668
33976W        W 6291  38.461   2.712  12.412
33977W        W 6292  17.766  12.872   4.573
33978W        W 6293  28.469  25.246   1.942
33979W        W 6294  17.721  31.650   3.788
33980W        W 6295  32.628  36.352   4.560
33981W        W 6296   8.793  21.034  11.175
33982W        W 6297  37.924   4.987   2.823
33983W        W 6298   7.833  13.853   3.886
33984W        W 6299   3.305  35.394  12.037
33985W        W 6300   3.679  17.230  10.784
33986W        W 6301  21.540  44.730   1.235
33987W        W 6302  27.064  22.065   1.674
33988W        W 6303  15.900  32.858   0.540
33989W        W 6304   2.900  13.044   1.863
33990W        W 6305  30.606  32.919   2.366
33991W        W 6306  10.722  17.554   0.542
33992W        W 6307   2.837  37.579   1.800
33993W        W 6308  36.091  41.241   1.784
33994W        W 6309  29.352   8.875  13.139
33995W        W 6310  30.630  38.058   2.407
33996W        W 6311  32.787   8.428   4.119
33997W        W 6312  16.691  21.702   2.647
33998W        W 6313  16.206  37.758  11.108
33999W        W 6314   8.403  23.001  10.800
34000W        W 6315  17.380   4.892   3.314
34001W        W 6316  12.699  33.848  11.602
34002W        W 6317  27.576  26.377   4.112
34003W        W 6318  34.447   2.550  12.364
34004W        W 6319  29.047  22.227   1.743
34005W        W 6320  35.650  32.752  14.395
34006W        W 6321  11.388  41.456   5.084
34007W        W 6322  42.757  31.100  14.744
34008W        W 6323  15.465  41.149   4.305
34009W        W 6324  17.305  29.913   2.791
34010W        W 6325  25.184  22.205  13.486
34011W        W 6326  24.112   2.335   2.389
34012W        W 6327  33.937  31.395   4.623
34013W        W 6328  20.005   9.496  14.713
34014W        W 6329  42.304  35.378  13.905
34015W        W 6330  39.422  28.526   1.369
34016W        W 6331  15.135  21.460  11.976
34017W        W 6332  33.582  10.084   3.333
34018W        W 6333   3.452  10.106   4.234
34019W        W 6334  38.797   5.733  13.962
34020W        W 6335  20.728  41.530  13.996
34021W        W 6336  22.309  24.975   3.149
34022W        W 6337  12.278  32.432   2.306
34023W        W 6338  33.627  37.813   3.661
34024W        W 6339  21.196  40.917  13.594
34025W        W 6340  27.275  37.545  14.796
34026W        W 6341  43.874   1.911  10.742
34027W        W 6342  16.038  31.866  10.806
34028W        W 6343  10.196   1.052   1.250
34029W        W 6344  40.125  16.595  11.531
34030W        W 6345  36.746  29.186  12.565
34031W        W 6346   0.815  15.065  14.894
34032W        W 6347  34.567  17.736   2.163
34033W        W 6348  29.522  26.918  12.093
34034W        W 6349   1.015   4.505   1.885
34035W        W 6350  25.226  23.813  14.463
34036W        W 6351  16.514   3.787   2.696
34037W        W 6352  30.758   4.756  10.709
34038W        W 6353  14.730  30.524   1.250
34039W        W 6354  39.821  42.007  12.078
34040W        W 6355  20.788  29.698   1.633
34041W        W 6356  38.822  22.553   1.645
34042W        W 6357  29.585  44.789   2.700
34043W        W 6358  25.421   6.231   3.782
34044W        W 6359  22.942  35.983  12.653
34045W        W 6360  21.486   8.375   1.308
34046W        W 6361  28.288  13.877   2.132
34047W        W 6362  41.433  28.708  10.646
34048W        W 6363  44.911  12.227  13.822
34049W        W 6364   2.165  42.738   4.879
34050W        W 6365  32.833  15.699  10.250
34051W        W 6366  40.437   0.989   4.144
34052W        W 6367  36.325  10.610  12.867
34053W        W 6368  18.679  25.630  14.927
34054W        W 6369  27.125  29.657  12.372
34055W        W 6370  17.183  29.898   9.806
34056W        W 6371   3.096   0.928  11.545
34057W        W 6372   0.459  28.575   2.934
34058W        W 6373   1.779  43.873  10.890
34059W        W 6374  43.749  32.161   1.261
34060W        W 6375  23.037  32.061   2.715
34061W        W 6376   3.982  17.980   2.300
34062W        W 6377   6.983   6.349   0.456
34063W        W 6378  39.643  15.741   2.400
34064W        W 6379   5.958  37.824   0.304
34065W        W 6380  19.281  34.936   0.286
34066W        W 6381  21.576  20.905   3.914
34067W        W 6382  32.077  17.949  10.678
34068W        W 6383   2.343  31.469  12.796
34069W        W 6384   4.970  24.970  12.423
34070W        W 6385  37.255  23.915  11.056
34071W        W 6386  39.531  12.609   0.098
34072W        W 6387   4.916  31.672  12.850
34073W        W 6388  31.166   1.395   0.966
34074W        W 6389  40.712  31.797   3.383
34075W        W 6390  14.163  34.330   3.110
34076W        W 6391  30.983  29.688  10.716
34077W        W 6392  29.243   6.956  12.625
34078W        W 6393  36.332  26.541  12.138
34079W        W 6394  11.576  13.810   3.712
34080W        W 6395   6.866  39.272   2.316
34081W        W 6396  35.553   6.985   3.212
34082W        W 6397  21.996   7.772   2.774
34083W        W 6398  18.197   1.991   1.809
34084W        W 6399  29.942  29.632  13.750
34085W        W 6400  40.121  26.751  10.668
34086W        W 6401  17.499  25.890   1.226
34087W        W 6402  11.849  27.075   0.270
34088W        W 6403  11.149  44.264   3.260
34089W        W 6404  17.354   9.302   1.811
34090W        W 6405  35.666  26.210   1.429
34091W        W 6406  17.844  19.521  14.051
34092W        W 6407  20.078  18.294  12.702
34093W        W 6408   8.912  33.365  11.515
34094W        W 6409  12.255  27.956  12.294
34095W        W 6410  16.707  16.202   3.702
34096W        W 6411  17.185  37.345   0.042
34097W        W 6412  10.084   1.016   4.053
34098W        W 6413  39.899   9.366   1.370
34099W        W 6414  18.057  41.443  14.769
34100W        W 6415   5.449  42.614  11.415
34101W        W 6416  17.415  43.180   0.009
34102W        W 6417  14.045  26.490  12.997
34103W        W 6418  20.052  19.884  14.368
34104W        W 6419  11.471  35.493  11.668
34105W        W 6420  15.162   0.007   4.574
34106W        W 6421  10.842  18.948  14.866
34107W        W 6422  41.950  37.300   4.095
34108W        W 6423  21.755   4.748   2.597
34109W        W 6424  20.224  38.489  13.277
34110W        W 6425   0.303   9.258   0.298
34111W        W 6426  33.090   4.319   4.677
34112W        W 6427  19.509  19.294   0.904
34113W        W 6428  25.796  35.092  13.540
34114W        W 6429  26.671  25.464   4.585
34115W        W 6430  36.571   3.003   2.137
34116W        W 6431  13.425   7.318  12.495
34117W        W 6432  25.389   1.339   1.895
34118W        W 6433  14.263  17.552   4.802
34119W        W 6434  28.131  28.019   0.226
34120W        W 6435  26.017  38.606   2.268
34121W        W 6436  30.204   1.725  12.303
34122W        W 6437   7.894  18.643   4.166
34123W        W 6438   6.889  25.597   1.672
34124W        W 6439  33.848  10.584   0.984
34125W        W 6440   5.284  36.760   2.673
34126W        W 6441  23.965  20.780   0.905
34127W        W 6442  22.273  21.886  14.969
34128W        W 6443  41.617  40.358  14.431
34129W        W 6444   2.483   7.836  13.020
34130W        W 6445   7.365   7.254  12.620
34131W        W 6446  22.326  23.194   2.413
34132W        W 6447  25.075  10.358   1.957
34133W        W 6448  14.129  34.788   2.291
34134W        W 6449  29.922  10.250   0.819
34135W        W 6450  30.500   8.806   2.396
34136W        W 6451  31.914   4.355   3.315
34137W        W 6452  19.532  17.145   1.219
34138W        W 6453  22.907  17.109  12.465
34139W        W 6454   2.381  35.251  11.856
34140W        W 6455  43.466  15.301   4.568
34141W        W 6456  30.583   0.240   4.558
34142W        W 6457  22.291  41.356   3.991
34143W        W 6458  33.861  18.667   0.855
34144W        W 6459  31.043  37.433  10.164
34145W        W 6460  33.655   2.002   2.396
34146W        W 6461  24.462  27.568  10.661
34147W        W 6462  27.155  27.671   3.197
34148W        W 6463  20.422  13.982  12.124
34149W        W 6464  43.942   3.705  13.045
34150W        W 6465  13.352  29.966  10.618
34151W        W 6466   9.797  26.296  13.169
34152W        W 6467  12.083  23.518   4.435
34153W        W 6468  17.138  30.908   0.893
34154W        W 6469  36.050  20.824  14.798
34155W        W 6470  30.888  26.081  14.576
34156W        W 6471   7.587  28.751   2.958
34157W        W 6472  31.042   4.963   4.706
34158W        W 6473  37.568  34.605  12.025
34159W        W 6474   0.012  17.912   3.584
34160W        W 6475  27.138   8.464  12.016
34161W        W 6476   6.245   0.415   2.340
34162W        W 6477  34.354   5.388  11.068
34163W        W 6478  43.525   4.150  11.180
34164W        W 6479  13.537  34.935   4.056
34165W        W 6480   0.038  31.105   1.363
34166W        W 6481  26.303   0.622   4.778
34167W        W 6482  22.740  19.886   1.657
34168W        W 6483  11.335  39.569   2.365
34169W        W 6484  14.485  13.818   0.793
34170W        W 6485  32.817  31.521   0.303
34171W        W 6486  37.902  31.463   2.610
34172W        W 6487   0.413  42.994   0.795
34173W        W 6488  44.199  35.317  12.180
34174W        W 6489  31.393  19.171   4.530
34175W        W 6490  39.502  29.686   3.761
34176W        W 6491   1.770  38.630  13.957
34177W        W 6492  10.442  30.407   4.134
34178W        W 6493  10.679  42.898  14.410
34179W        W 6494  26.421   0.774   3.582
34180W        W 6495  26.702   1.720   1.682
34181W        W 6496  31.691  10.251  10.590
34182W        W 6497  38.086  31.168   0.328
34183W        W 6498  40.366  36.240  13.498
34184W        W 6499  16.207  22.721  12.421
34185W        W 6500  44.333  38.955  10.936
34186W        W 6501  33.768   7.769   1.365
34187W        W 6502  15.429  39.907  10.246
34188W        W 6503   7.385  40.593  13.793
34189W        W 6504  10.697  23.807   2.661
34190W        W 6505   9.793   6.843  13.731
34191W        W 6506  35.893  27.556   1.208
34192W        W 6507  23.194   1.446   1.215
34193W        W 6508  44.215  42.607   4.252
34194W        W 6509  33.247  17.856  12.071
34195W        W 6510  29.727  26.991  11.512
34196W        W 6511  24.306  39.335   2.222
34197W        W 6512  12.550   4.310  12.154
34198W        W 6513   8.332  34.474  11.114
34199W        W 6514   2.096  16.101  10.825
34200W        W 6515   6.172   6.030  11.708
34201W        W 6516  35.074  18.050   3.888
34202W        W 6517   7.728  44.304  10.869
34203W        W 6518   0.675  11.019  12.356
34204W        W 6519  42.142   8.750   2.370
34205W        W 6520  23.468  17.342  14.329
34206W        W 6521  28.176  18.020   2.376
34207W        W 6522  40.914  23.953  13.273
34208W        W 6523  39.891   8.630   2.209
34209W        W 6524  33.667   8.997   4.188
34210W        W 6525  21.082   6.261  10.649
34211W        W 6526  15.678  33.319   9.953
34212W        W 6527  44.965  21.178   4.248
34213W        W 6528  42.536  23.190   0.051
34214W        W 6529  17.684   0.466   3.290
34215W        W 6530  27.590  40.376   4.072
34216W        W 6531  29.708  38.453   0.890
34217W        W 6532  11.782  24.319   2.716
34218W        W 6533   8.909  20.063   3.224
34219W        W 6534  40.993  20.471  14.397
34220W        W 6535  17.634  40.505  11.985
34221W        W 6536  27.698  44.417  13.931
34222W        W 6537  17.764  42.475   2.380
34223W        W 6538  41.076  27.440   3.088
34224W        W 6539  11.947   0.268  14.389
34225W        W 6540  25.406  30.071   3.779
34226W        W 6541  31.493  38.120  11.955
34227W        W 6542  31.840  33.485   1.272
34228W        W 6543   5.837   0.418   4.285
34229W        W 6544  44.642  18.965   3.264
34230W        W 6545  12.287  14.309  10.711
34231W        W 6546   1.797   1.322  11.527
34232W        W 6547  21.489  16.948  10.524
34233W        W 6548  38.158  26.130  13.828
34234W        W 6549   5.906  38.062  10.830
34235W        W 6550  12.332  16.272   3.686
34236W        W 6551   9.933  16.217   4.747
34237W        W 6552  14.103  28.736  14.400
34238W        W 6553  44.463   7.688  11.110
34239W        W 6554  36.498  13.073   4.156
34240W        W 6555  27.007  33.549   2.811
34241W        W 6556  31.965   4.406   4.570
34242W        W 6557  26.655  29.518  13.159
34243W        W 6558  21.727  33.824  14.292
34244W        W 6559   0.004  17.260   3.586
34245W        W 6560   1.219  13.565   4.609
34246W        W 6561  34.179  34.248  11.220
34247W        W 6562  40.611  10.772   4.037
34248W        W 6563  43.927   4.846   0.973
34249W        W 6564  18.024  26.668   3.641
34250W        W 6565  38.054  28.018  11.088
34251W        W 6566  26.679  41.100   1.774
34252W        W 6567   6.840  14.172   2.182
34253W        W 6568  33.902  16.317   1.408
34254W        W 6569  19.293  35.414  13.984
34255W        W 6570  29.647  17.370   1.379
34256W        W 6571  39.478  17.803  12.476
34257W        W 6572   5.438   7.475  12.533
34258W        W 6573  43.105  35.548   1.327
34259W        W 6574  15.093  43.466   2.077
34260W        W 6575  37.281  37.834   2.396
34261W        W 6576  10.545  44.045   0.209
34262W        W 6577  10.796  10.829  11.590
34263W        W 6578  38.397  24.347   2.707
34264W        W 6579  23.561   5.237   3.254
34265W        W 6580  30.774  33.906  10.816
34266W        W 6581  43.079  16.054   4.586
34267W        W 6582  12.058  41.722   0.885
34268W        W 6583   7.782  10.343  11.178
34269W        W 6584  35.863   6.111  12.406
34270W        W 6585  10.240   0.402  12.820
34271W        W 6586   5.562   3.539   1.773
34272W        W 6587   4.695  37.044   1.220
34273W        W 6588  17.424  24.934   5.138
34274W        W 6589   1.410  30.510  13.980
34275W        W 6590  24.424  18.706  13.005
34276W        W 6591  17.597  28.009   1.884
34277W        W 6592   2.299  14.785   2.220
34278W        W 6593  14.611  13.240  11.838
34279W        W 6594  44.383   2.268   2.266
34280W        W 6595  25.277  12.743  10.750
34281W        W 6596  22.652   0.394  14.391
34282W        W 6597  37.067  14.148  10.487
34283W        W 6598  28.683  17.612  14.791
34284W        W 6599  34.440   3.891   3.414
34285W        W 6600  15.030   7.405   1.750
34286W        W 6601  17.819  32.426   2.095
34287W        W 6602  20.719   7.981  13.310
34288W        W 6603  26.881  28.537   4.626
34289W        W 6604  13.740  31.506   1.665
34290W        W 6605  27.002  34.425   2.081
34291W        W 6606   3.935   1.366  12.838
34292W        W 6607  42.141  22.315  11.701
34293W        W 6608   6.218  43.470   1.166
34294W        W 6609  11.793  37.306  11.568
34295W        W 6610   4.691  17.120  12.933
34296W        W 6611  12.137  27.760   1.614
34297W        W 6612  31.632   4.385  12.552
34298W        W 6613  12.342  22.978  11.016
34299W        W 6614  27.550  43.062  13.433
34300W        W 6615  16.650  33.734  12.204
34301W        W 6616  28.133  14.738  13.967
34302W        W 6617  35.778  28.019   0.980
34303W        W 6618  35.985   1.854   3.842
34304W        W 6619   2.951  43.219   0.711
34305W        W 6620   4.935  24.290  14.397
34306W        W 6621   5.465  11.342   0.509
34307W        W 6622  30.395   5.292   2.318
34308W        W 6623  44.294  41.205   0.901
34309W        W 6624   6.098  42.811  14.832
34310W        W 6625  30.663  38.880   0.785
34311W        W 6626   9.417  29.817   1.710
34312W        W 6627   4.910   1.436   1.949
34313W        W 6628  16.525   0.571  11.416
34314W        W 6629  44.193  34.752  13.318
34315W        W 6630  38.725  14.434   0.771
34316W        W 6631  22.488   3.769   1.397
34317W        W 6632  33.395  40.384   4.105
34318W        W 6633  10.312  42.604  11.105
34319W        W 6634   0.465  22.643  11.612
34320W        W 6635  26.235  41.808   0.040
34321W        W 6636  19.108  20.104   4.440
34322W        W 6637  42.559   2.943   2.080
34323W        W 6638   5.338  26.737  10.706
34324W        W 6639   3.701  30.931   3.817
34325W        W 6640  39.252  10.235   4.582
34326W        W 6641  19.281  40.351   1.242
34327W        W 6642   5.559  31.416   0.335
34328W        W 6643  31.421   6.448   2.854
34329W        W 6644  13.226  21.026  10.844
34330W        W 6645  25.819  32.828   0.555
34331W        W 6646  35.452   1.307  10.785
34332W        W 6647  22.696   9.853  13.941
34333W        W 6648  21.215  21.134   4.210
34334W        W 6649   0.753  29.983  11.997
34335W        W 6650  25.106  43.244  11.391
34336W        W 6651  15.885  11.623  11.052
34337W        W 6652   8.949  35.179   5.085
34338W        W 6653  18.239  43.792  12.427
34339W        W 6654  34.058  10.611  10.676
34340W        W 6655  31.696  19.189  14.357
34341W        W 6656  24.426   1.250  12.967
34342W        W 6657  41.856  41.618  11.659
34343W        W 6658   6.117  35.948   3.335
34344W        W 6659   5.038   9.443   9.981
34345W        W 6660  41.901   7.316  12.859
34346W        W 6661  39.038   2.733   5.006
34347W        W 6662  31.501   7.440   1.911
34348W        W 6663  38.481   8.840   2.693
34349W        W 6664   6.642  20.792  14.833
34350W        W 6665  40.042  24.374  14.963
34351W        W 6666  31.685  35.944   2.737
34352W        W 6667  37.075  40.855  11.618
34353W        W 6668  12.649  43.565  11.055
34354W        W 6669  30.168  35.458  13.582
34355W        W 6670  33.986   1.551   1.719
34356W        W 6671  24.203  34.654  14.532
34357W        W 6672  22.902   9.411  14.309
34358W        W 6673  12.759   2.980   4.757
34359W        W 6674  21.782  38.828  12.451
34360W        W 6675   6.739   2.292  11.975
34361W        W 6676  39.094   1.062  14.500
34362W        W 6677  36.677  10.785   3.279
34363W        W 6678  34.596  30.570  12.797
34364W        W 6679  14.165  14.746  13.030
34365W        W 6680  21.609  19.542  13.805
34366W        W 6681  16.959  23.468   4.901
34367W        W 6682  32.487  15.534  14.405
34368W        W 6683  20.946  41.054   4.583
34369W        W 6684  39.440   9.253   0.009
34370W        W 6685  13.362  17.868   3.214
34371W        W 6686  34.641  36.523  12.896
34372W        W 6687  41.413  42.079   1.568
34373W        W 6688  43.443  41.768   2.675
34374W        W 6689   3.246  20.774  10.334
34375W        W 6690  21.181  37.240   4.789
34376W        W 6691  42.748  25.098  10.787
34377W        W 6692  40.969  16.589  13.815
34378W        W 6693  23.995  17.655   0.506
34379W        W 6694  26.731   6.668   1.930
34380W        W 6695  25.754  40.512  12.258
34381W        W 6696   7.611  23.418   0.929
34382W        W 6697  20.059  10.468   5.511
34383W        W 6698  32.563  14.818  13.905
34384W        W 6699  35.043  39.845  13.598
34385W        W 6700  15.360  36.293   2.820
34386W        W 6701  17.247  11.695  12.680
34387W        W 6702   2.307  43.589  14.333
34388W        W 6703  26.678   7.954   1.454
34389W        W 6704  13.952  35.472  13.589
34390W        W 6705   5.145   8.795  12.829
34391W        W 6706  33.295  21.802   3.541
34392W        W 6707  43.996  29.570   4.381
34393W        W 6708   2.123   4.298  10.426
34394W        W 6709   2.513  10.589   4.271
34395W        W 6710  22.939   2.892  11.940
34396W        W 6711  10.590  23.623   0.418
34397W        W 6712  12.583  24.226  14.026
34398W        W 6713  35.352  36.239   3.066
34399W        W 6714  38.909   9.257   0.080
34400W        W 6715  28.600   6.360  13.602
34401W        W 6716   3.548  39.919   2.804
34402W        W 6717  10.874  34.905  13.315
34403W        W 6718  26.953   5.674  11.437
34404W        W 6719  13.560  31.303   4.180
34405W        W 6720   8.356  32.083  10.609
34406W        W 6721  44.232  32.116  10.606
34407W        W 6722  43.775  22.487   0.841
34408W        W 6723  41.416   1.006  12.573
34409W        W 6724  17.715  37.044  12.492
34410W        W 6725  36.042   4.282  11.565
34411W        W 6726  35.842   9.853   3.647
34412W        W 6727  25.210  12.852  11.647
34413W        W 6728  35.752  10.605   4.206
34414W        W 6729  20.254  38.812  10.333
34415W        W 6730  24.519  10.184  10.776
34416W        W 6731  17.570  25.031   1.103
34417W        W 6732  24.059  35.761   0.378
34418W        W 6733  10.714   5.660  13.336
34419W        W 6734  37.257  26.712  12.744
34420W        W 6735  10.151  19.671  13.731
34421W        W 6736  32.790   0.376   0.838
34422W        W 6737   3.902  23.534  12.501
34423W        W 6738  16.269  15.689  10.015
34424W        W 6739  16.197   3.475  11.174
34425W        W 6740  19.030   6.404  12.908
34426W        W 6741  27.018  11.393  13.596
34427W        W 6742  37.483  24.240   3.552
34428W        W 6743  23.046  40.789  13.057
34429W        W 6744   4.864  15.766   1.435
34430W        W 6745   3.799  15.736  10.755
34431W        W 6746  26.937  22.854   3.881
34432W        W 6747   3.738   6.333   2.036
34433W        W 6748  25.439   3.441  11.629
34434W        W 6749  27.906  11.897  14.225
34435W        W 6750  20.563  33.231  14.563
34436W        W 6751  33.905  40.869   3.111
34437W        W 6752  36.396  13.331  12.133
34438W        W 6753  19.817  24.156   3.843
34439W        W 6754   0.454  17.266   3.309
34440W        W 6755   8.216  37.303  12.996
34441W        W 6756  26.190   4.281  14.201
34442W        W 6757  15.087  25.422   4.024
34443W        W 6758  41.028  33.052  14.461
34444W        W 6759  40.807  19.024  12.946
34445W        W 6760  26.017  30.464   3.220
34446W        W 6761   0.167  34.893  10.428
34447W        W 6762  24.010  26.045   0.941
34448W        W 6763  43.708  40.387  10.803
34449W        W 6764   1.319  21.672   4.859
34450W        W 6765  33.974  44.871   3.873
34451W        W 6766  33.616  37.503   4.079
34452W        W 6767  43.291   0.879   0.314
34453W        W 6768   0.525  36.286  13.995
34454W        W 6769  41.870  12.232  14.783
34455W        W 6770  29.031  20.660   0.883
34456W        W 6771   8.396  40.396  12.973
34457W        W 6772  22.644   6.296   2.557
34458W        W 6773  20.921  34.970  13.570
34459W        W 6774   3.460  11.420  14.391
34460W        W 6775   4.753  26.626  11.673
34461W        W 6776  21.140  14.538  12.924
34462W        W 6777  24.905  40.403  11.944
34463W        W 6778  43.491  29.546  12.782
34464W        W 6779  15.272  12.199   4.626
34465W        W 6780  19.281  25.684   4.661
34466W        W 6781   4.622  40.720   3.220
34467W        W 6782   9.651   7.359   2.328
34468W        W 6783  28.923  14.562   0.445
34469W        W 6784  28.072  38.403   2.144
34470W        W 6785  42.789  13.357   0.581
34471W        W 6786  14.124   8.843   4.369
34472W        W 6787  16.389   7.437   3.717
34473W        W 6788   4.654   5.087   4.214
34474W        W 6789  37.891   2.051   2.659
34475W        W 6790   3.338  25.666   2.222
34476W        W 6791   3.834  36.461  11.561
34477W        W 6792   2.423  13.605   0.295
34478W        W 6793  36.841  21.858  11.516
34479W        W 6794  16.016  24.413  11.734
34480W        W 6795   6.012  21.541   0.776
34481W        W 6796  25.941   4.022  12.822
34482W        W 6797  34.504   5.934  12.797
34483W        W 6798  11.645   4.287  13.380
34484W        W 6799  19.465  38.557  14.324
34485W        W 6800  14.789  11.235   0.896
34486W        W 6801  32.810  44.561   3.715
34487W        W 6802  26.089   2.841   3.531
34488W        W 6803  11.182  44.886  13.289
34489W        W 6804  24.462  25.649  13.129
34490W        W 6805  17.497   6.365  12.956
34491W        W 6806  40.450  13.019  12.548
34492W        W 6807   9.068  19.244   2.209
34493W        W 6808  18.804   4.445  13.362
34494W        W 6809  38.650  14.866   1.565
34495W        W 6810   3.783  27.234  14.508
34496W        W 6811   1.460  19.312  11.989
34497W        W 6812  28.431   1.093   0.043
34498W        W 6813  16.204  41.306   4.627
34499W        W 6814  27.398  40.853   4.113
34500W        W 6815  30.074  27.698  13.427
34501W        W 6816  27.464  44.866  12.959
34502W        W 6817  20.640  44.975  12.506
34503W        W 6818  43.768   4.467  11.555
34504W        W 6819   5.842  43.041   3.118
34505W        W 6820  43.276  29.001  11.903
34506W        W 6821  39.592  36.100   3.955
34507W        W 6822  39.886  32.298   2.120
34508W        W 6823  34.620  35.116   1.834
34509W        W 6824  18.669  18.003  14.301
34510W        W 6825  15.235  37.010  10.807
34511W        W 6826  42.724  28.463   1.171
34512W        W 6827  19.865  22.347   4.269
34513W        W 6828  29.745   3.389   0.318
34514W        W 6829  36.819  34.439   1.896
34515W        W 6830  32.866  34.220  14.252
34516W        W 6831   9.546  38.802  11.995
34517W        W 6832  14.775  12.540   4.001
34518W        W 6833   6.973  10.654  13.446
34519W        W 6834  20.036  31.280  11.045
34520W        W 6835  41.847  16.019  12.167
34521W        W 6836  20.682  34.136  14.001
34522W        W 6837  29.445  28.138  11.962
34523W        W 6838  37.738  33.034  11.041
34524W        W 6839  32.957  26.326   3.768
34525W        W 6840  31.480  20.285  12.548
34526W        W 6841  37.052  42.069  11.715
34527W        W 6842  37.954  43.268   4.078
34528W        W 6843   4.284  16.114   4.622
34529W        W 6844   4.456  25.151  14.692
34530W        W 6845  12.278  33.852   2.492
34531W        W 6846  10.376  38.102   1.325
34532W        W 6847  41.926  23.613  14.302
34533W        W 6848  15.354  24.313  14.847
34534W        W 6849  30.889  18.997   1.064
34535W        W 6850  43.178   1.877  11.976
34536W        W 6851   7.702  19.524  14.348
34537W        W 6852  30.463   7.158  13.513
34538W        W 6853  29.237   2.377   0.699
34539W        W 6854  30.570  12.752   2.207
34540W        W 6855  36.194  10.179   4.137
34541W        W 6856  41.432  13.350   4.625
34542W        W 6857  15.014  32.363  11.446
34543W        W 6858  17.785  11.101   1.249
34544W        W 6859  23.661  31.608  11.294
34545W        W 6860  12.139  29.341   1.511
34546W        W 6861  30.506  30.213  12.705
34547W        W 6862  44.291   1.179   9.994
34548W        W 6863  11.519  17.118   3.636
34549W        W 6864  23.998  22.414   3.657
34550W        W 6865  18.519   6.288  12.839
34551W        W 6866  28.034  26.163   4.215
34552W        W 6867   0.384  14.153   0.284
34553W        W 6868  28.841  21.751  12.193
34554W        W 6869   7.048  25.711  11.275
34555W        W 6870  42.329  28.881  13.550
34556W        W 6871  42.893  35.200   5.362
34557W        W 6872  40.081  15.076   4.919
34558W        W 6873   3.275  38.808  14.829
34559W        W 6874  44.239  29.177   4.116
34560W        W 6875  24.956  32.998   3.417
34561W        W 6876  23.654  29.158   0.690
34562W        W 6877  10.697  25.950  13.066
34563W        W 6878  12.790  17.159   2.203
34564W        W 6879  10.740  31.199  14.447
34565W        W 6880  14.360   7.645  14.994
34566W        W 6881  22.637   4.745   3.143
34567W        W 6882   8.230   3.538  10.425
34568W        W 6883   2.263  11.264  13.480
34569W        W 6884  32.554  25.517  13.233
34570W        W 6885  38.425  37.536   2.388
34571W        W 6886   0.782   9.098   2.703
34572W        W 6887  19.545  43.274  14.905
34573W        W 6888  24.915  44.836   2.268
34574W        W 6889   1.847  30.462  14.284
34575W        W 6890  36.537   2.803   3.608
34576W        W 6891  32.930  43.738  13.478
34577W        W 6892  41.106   5.299  13.861
34578W        W 6893  22.967  11.950  14.892
34579W        W 6894  38.041  23.075   1.853
34580W        W 6895  17.824  30.610   2.594
34581W        W 6896  18.630  28.397   2.596
34582W        W 6897  16.845  42.413  12.428
34583W        W 6898  33.602  29.472   9.955
34584W        W 6899   9.468  34.785  12.330
34585W        W 6900  43.470  17.753  12.038
34586W        W 6901  41.994  27.747   0.715
34587W        W 6902  31.205  31.472   2.240
34588W        W 6903  28.386  10.182   3.637
34589W        W 6904  24.836  29.238  12.061
34590W        W 6905  31.151  32.193   0.455
34591W        W 6906  20.628  42.762  11.098
34592W        W 6907  18.025  21.551  11.943
34593W        W 6908  40.553  13.772  12.144
34594W        W 6909  22.135   5.113  13.349
34595W        W 6910   8.189  13.373  10.712
34596W        W 6911  34.423  18.013  14.913
34597W        W 6912  25.493   6.738   1.502
34598W        W 6913  27.502  35.439   3.629
34599W        W 6914  22.545  24.610  13.127
34600W        W 6915  18.529   7.830   2.808
34601W        W 6916  38.962   7.850   4.793
34602W        W 6917  36.938  22.202   4.220
34603W        W 6918  37.380   4.230   1.761
34604W        W 6919  36.606  19.149   3.080
34605W        W 6920  12.712   9.391   0.395
34606W        W 6921  22.440  41.371   0.926
34607W        W 6922   5.548  40.890  12.913
34608W        W 6923  43.988   7.887  13.411
34609W        W 6924   6.902  30.006  12.893
34610W        W 6925  32.457  28.248   1.392
34611W        W 6926  20.160  34.591   1.176
34612W        W 6927  22.391  38.314   1.027
34613W        W 6928  12.071   6.139  14.118
34614W        W 6929  27.500  42.849  14.758
34615W        W 6930  32.598  35.899  13.376
34616W        W 6931  19.290  36.383  10.699
34617W        W 6932  25.523  14.151   0.490
34618W        W 6933  41.584  36.055  11.265
34619W        W 6934  16.937  22.247   2.228
34620W        W 6935  14.610   5.122   4.561
34621W        W 6936  10.784  15.199  10.975
34622W        W 6937   6.595  14.194  10.466
34623W        W 6938  30.479  23.291  12.891
34624W        W 6939  21.467  41.773   4.508
34625W        W 6940  24.769  11.168   2.128
34626W        W 6941   1.809  41.351   1.720
34627W        W 6942  35.285  13.752  10.589
34628W        W 6943  24.853  22.054   3.634
34629W        W 6944  19.683  31.798  14.035
34630W        W 6945  37.339  32.314  12.348
34631W        W 6946  12.132  44.944  14.784
34632W        W 6947   6.937  26.395  11.231
34633W        W 6948   5.720  43.361   1.417
34634W        W 6949  17.710  30.381  13.953
34635W        W 6950  28.487  17.716   0.819
34636W        W 6951  27.978  40.103   3.315
34637W        W 6952  25.607  43.859   2.664
34638W        W 6953   3.894  44.345  10.498
34639W        W 6954  43.441  13.078   3.479
34640W        W 6955  23.252  37.845  12.031
34641W        W 6956  40.236  28.043   4.091
34642W        W 6957   8.557  28.218  13.412
34643W        W 6958   1.674   4.322  12.500
34644W        W 6959  26.961  21.727  14.813
34645W        W 6960  22.550  37.801   0.988
34646W        W 6961  11.915  44.961  13.954
34647W        W 6962  11.522  29.088   0.273
34648W        W 6963  14.223  10.079  14.997
34649W        W 6964  31.122  30.026  13.919
34650W        W 6965  13.680  39.008   4.089
34651W        W 6966   0.413  30.752   1.288
34652W        W 6967   8.326  19.240   3.698
34653W        W 6968  22.218  25.446   4.449
34654W        W 6969  35.355  25.116   1.773
34655W        W 6970  44.188  12.768  10.667
34656W        W 6971  14.810  40.769  11.119
34657W        W 6972  40.672  34.408  11.160
34658W        W 6973   2.671   7.708   1.759
34659W        W 6974  28.441   9.933  13.454
34660W        W 6975  14.361  36.371  10.718
34661W        W 6976  43.356  29.619  13.950
34662W        W 6977  21.492  10.295   0.771
34663W        W 6978  41.745  25.675  14.609
34664W        W 6979  42.953  39.010   4.593
34665W        W 6980   9.738  29.947   3.223
34666W        W 6981  12.678   3.979   2.923
34667W        W 6982  29.450   6.419   1.974
34668W        W 6983  38.859   8.596   1.753
34669W        W 6984  19.244  19.310   1.715
34670W        W 6985  34.227   7.837  11.122
34671W        W 6986   3.083  27.149  14.901
34672W        W 6987   9.107   9.443   2.625
34673W        W 6988   7.007  26.247   4.001
34674W        W 6989  36.454   4.896  12.822
34675W        W 6990  22.144  10.636   0.503
34676W        W 6991  32.418  20.756  12.579
34677W        W 6992   7.387  14.669   0.313
34678W        W 6993   9.234  29.115   2.744
34679W        W 6994  40.619  10.448   9.905
34680W        W 6995   5.470  26.498  13.377
34681W        W 6996  21.410   7.708  13.813
34682W        W 6997  38.353  41.607  12.416
34683W        W 6998  19.694  36.340   3.514
34684W        W 6999  24.276  36.918   1.841
34685W        W 7000   6.177  34.584   3.487
34686W        W 7001  14.826  33.991  13.434
34687W        W 7002  41.447  20.861  10.331
34688W        W 7003  20.296  35.014  14.414
34689W        W 7004  29.198  40.331  14.518
34690W        W 7005   7.400  10.717   3.262
34691W        W 7006  34.305   0.294   4.323
34692W        W 7007  11.608   9.219  13.467
34693W        W 7008  35.629   3.995  11.766
34694W        W 7009  42.053  32.873   2.753
34695W        W 7010   1.186  27.413   3.654
34696W        W 7011  18.936  26.488  13.389
34697W        W 7012  10.073   0.345   3.425
34698W        W 7013  30.669  44.356   5.057
34699W        W 7014  28.832  25.568  12.009
34700W        W 7015  34.113  21.623  11.449
34701W        W 7016  28.664  32.679   0.294
34702W        W 7017  28.367  42.872  11.611
34703W        W 7018  18.629  30.738   0.349
34704W        W 7019  30.135  25.042   4.079
34705W        W 7020   6.243  26.931   4.387
34706W        W 7021  44.548  37.626   4.216
34707W        W 7022  20.515  11.096  13.930
34708W        W 7023  41.935  28.657   4.474
34709W        W 7024   0.770   2.514  10.651
34710W        W 7025  28.982  26.996   1.215
34711W        W 7026  17.201  15.759  11.715
34712W        W 7027  25.058   7.037  13.432
34713W        W 7028  32.365   2.863   1.599
34714W        W 7029  22.276  13.902  13.416
34715W        W 7030  34.714  13.469  14.351
34716W        W 7031   2.872  35.930  14.536
34717W        W 7032  24.712  11.830   1.303
34718W        W 7033  38.094  43.781  13.475
34719W        W 7034  13.653   4.220  12.096
34720W        W 7035  44.877  40.238   0.083
34721W        W 7036  23.225   7.358   3.592
34722W        W 7037  26.572  23.449   2.264
34723W        W 7038  34.492   9.886  13.691
34724W        W 7039  17.166  24.276  12.347
34725W        W 7040  23.709  19.043   2.549
34726W        W 7041  14.229  13.165   3.661
34727W        W 7042  27.133  25.216   4.335
34728W        W 7043  34.396  30.583  11.899
34729W        W 7044  11.351  15.553   0.822
34730W        W 7045   1.514  34.872   5.011
34731W        W 7046  18.333  29.573   0.035
34732W        W 7047   9.253  11.708  10.695
34733W        W 7048  44.231  13.098  11.061
34734W        W 7049  31.615  26.481   3.358
34735W        W 7050  10.844   3.319   1.393
34736W        W 7051  29.551  25.997  12.597
34737W        W 7052  11.894  36.687  11.527
34738W        W 7053  17.733  43.403   4.797
34739W        W 7054  39.805  29.491  11.656
34740W        W 7055   2.334   4.074  13.665
34741W        W 7056   7.163  26.512   2.814
34742W        W 7057   0.345  30.540   4.966
34743W        W 7058  10.810  28.997  11.045
34744W        W 7059  31.175   8.692   1.288
34745W        W 7060  42.869  19.862  10.951
34746W        W 7061  16.155  27.627   1.900
34747W        W 7062  23.157   7.115   4.431
34748W        W 7063  22.483  22.032   2.862
34749W        W 7064   1.501   0.392  14.604
34750W        W 7065  14.628  23.874  12.920
34751W        W 7066   5.144  23.733  11.941
34752W        W 7067   0.387   5.595  13.359
34753W        W 7068  12.242  21.102   3.821
34754W        W 7069   6.629   1.653  12.473
34755W        W 7070  44.774  26.478   2.109
34756W        W 7071   5.506  16.566   3.642
34757W        W 7072  29.738  20.372   3.855
34758W        W 7073   8.532  27.716  11.998
34759W        W 7074  31.077  11.157   4.297
34760W        W 7075  40.409  32.113  13.619
34761W        W 7076   8.209  13.779   1.654
34762W        W 7077  25.213   3.317  11.036
34763W        W 7078   2.265  12.197   2.259
34764W        W 7079  38.411   9.806  10.599
34765W        W 7080  11.345   5.182  12.104
34766W        W 7081  21.309   9.463   4.106
34767W        W 7082  11.769  11.776  10.958
34768W        W 7083  43.053   6.769   0.301
34769W        W 7084  20.217  32.493  14.156
34770W        W 7085  17.516  29.626  14.404
34771W        W 7086   3.976  24.724  11.117
34772W        W 7087   7.824  25.773  12.465
34773W        W 7088  33.831  31.164   2.245
34774W        W 7089  31.466   8.701   3.888
34775W        W 7090  16.766  38.874  10.933
34776W        W 7091  39.887  10.442  10.595
34777W        W 7092  15.257  10.717   3.659
34778W        W 7093  34.278  44.806   0.083
34779W        W 7094  29.680  26.946  12.590
34780W        W 7095   3.275  15.896   1.831
34781W        W 7096  44.441  36.385  12.496
34782W        W 7097   1.260  24.282  10.852
34783W        W 7098  22.127  22.675   0.061
34784W        W 7099  12.875   6.413  12.620
34785W        W 7100  16.560   4.794   2.909
34786W        W 7101  33.798  39.144   1.322
34787W        W 7102  17.984  29.941  11.459
34788W        W 7103   6.415  39.431   3.265
34789W        W 7104  40.768  44.801  11.689
34790W        W 7105  26.176   0.428   3.928
34791W        W 7106   4.034  33.980   3.745
34792W        W 7107   7.213  22.647   2.381
34793W        W 7108  22.165  41.081  14.511
34794W        W 7109   8.913  23.479  12.545
34795W        W 7110  23.177  25.978  12.971
34796W        W 7111  39.494  23.243   5.210
34797W        W 7112   2.484  31.204   4.185
34798W        W 7113  38.302  22.051  14.661
34799W        W 7114  29.336  44.272   1.724
34800W        W 7115   6.736  13.629   2.247
34801W        W 7116  36.354  43.866   4.215
34802W        W 7117  38.294  33.616   2.696
34803W        W 7118  31.997  39.476   1.513
34804W        W 7119  44.055  33.280   3.563
34805W        W 7120  34.353  18.745   1.018
34806W        W 7121  29.525  19.767  10.774
34807W        W 7122  23.724  12.857   4.027
34808W        W 7123  35.697  32.477  10.728
34809W        W 7124  36.503  17.953   2.263
34810W        W 7125  40.062  44.419   1.344
34811W        W 7126  15.016  40.941  10.658
34812W        W 7127  20.490  11.571   3.391
34813W        W 7128  41.880  35.815   3.605
34814W        W 7129   1.265  43.324   4.330
34815W        W 7130  43.266  43.419   0.065
34816W        W 7131  28.496  41.967  11.340
34817W        W 7132  32.461  20.924  13.448
34818W        W 7133  33.548  19.672  14.748
34819W        W 7134   9.027  12.461   3.639
34820W        W 7135  34.217  28.745   3.721
34821W        W 7136  14.123  40.704  11.998
34822W        W 7137  16.252  29.109   1.724
34823W        W 7138   3.879   1.156  10.871
34824W        W 7139  33.662  41.135   1.719
34825W        W 7140   0.401  30.954  14.334
34826W        W 7141  39.874  13.185   2.721
34827W        W 7142  10.735  40.734  10.640
34828W        W 7143  40.659  26.181   9.801
34829W        W 7144  22.014   3.425  14.893
34830W        W 7145   9.445  32.015   2.215
34831W        W 7146  40.399  17.771  13.388
34832W        W 7147  11.235  24.301  12.017
34833W        W 7148   0.097  11.411  12.893
34834W        W 7149  30.171  34.047   4.099
34835W        W 7150  29.861   2.950  14.423
34836W        W 7151   6.202  38.500  12.560
34837W        W 7152  29.203  20.585   4.558
34838W        W 7153   6.834  22.104   4.395
34839W        W 7154  22.975  15.863   0.334
34840W        W 7155  27.361  44.696   3.252
34841W        W 7156   5.698  21.999   1.696
34842W        W 7157   3.825  43.775   2.188
34843W        W 7158  25.173  32.416  13.466
34844W        W 7159  10.356  17.331  12.103
34845W        W 7160  43.370  23.563   4.645
34846W        W 7161  29.216   3.953   1.473
34847W        W 7162  42.255   7.856   2.192
34848W        W 7163  31.476  26.239   2.907
34849W        W 7164  32.359  39.517   4.076
34850W        W 7165  40.634  38.978  10.462
34851W        W 7166  28.148  10.665   1.526
34852W        W 7167  25.349  28.246  11.497
34853W        W 7168  29.472   4.974  14.696
34854W        W 7169   7.232  28.464   1.196
34855W        W 7170  42.351   4.796   2.731
34856W        W 7171  33.494   3.264   4.649
34857W        W 7172   5.184   3.042   4.821
34858W        W 7173  42.579  33.679   4.754
34859W        W 7174   5.807   3.023  11.140
34860W        W 7175  27.516   2.292  11.507
34861W        W 7176  30.170  36.042  11.300
34862W        W 7177  28.137  29.677  14.457
34863W        W 7178  28.689   5.170   1.746
34864W        W 7179  41.582  17.598  12.020
34865W        W 7180  13.350  44.435  10.656
34866W        W 7181  10.596  33.671   4.282
34867W        W 7182  43.768  11.062   4.371
34868W        W 7183   7.990  22.456   4.678
34869W        W 7184  26.593  35.892  11.905
34870W        W 7185  27.482  37.043   1.893
34871W        W 7186  11.822  40.637  11.315
34872W        W 7187  24.192  36.096   3.603
34873W        W 7188  44.251  23.769   4.285
34874W        W 7189  22.494  26.597   2.294
34875W        W 7190  27.905  14.324   2.780
34876W        W 7191  26.651  42.645   1.673
34877W        W 7192  23.744  26.559   4.566
34878W        W 7193  33.604  22.089  13.627
34879W        W 7194   6.674  39.528  10.536
34880W        W 7195  15.804  30.259   0.764
34881W        W 7196  29.017  35.591   2.230
34882W        W 7197  44.790  29.614  11.207
34883W        W 7198  24.248   3.990   4.589
34884W        W 7199  40.383  15.143   3.904
34885W        W 7200   8.723  12.178   3.299
34886W        W 7201  41.376  37.930  13.321
34887W        W 7202   5.459  37.820   0.453
34888W        W 7203  32.353  36.076   0.417
34889W        W 7204  22.585   4.725   2.224
34890W        W 7205  16.702  28.737   3.512
34891W        W 7206   2.873   6.384  11.987
34892W        W 7207   5.445  18.769   4.691
34893W        W 7208  32.891  21.958  10.616
34894W        W 7209   2.284   0.968   0.470
34895W        W 7210  39.858  42.172  13.534
34896W        W 7211  33.358  24.618   3.364
34897W        W 7212  36.099  44.975  11.213
34898W        W 7213  14.776  15.079   0.744
34899W        W 7214  25.186  17.866  11.640
34900W        W 7215  18.790  28.013  11.123
34901W        W 7216  25.003  31.603  13.027
34902W        W 7217  31.710  27.639   1.935
34903W        W 7218  44.790  28.906  11.974
34904W        W 7219   9.645   7.794  13.927
34905W        W 7220  19.183  18.249  14.441
34906W        W 7221  33.673   2.957   1.134
34907W        W 7222  32.545   7.301  11.554
34908W        W 7223  17.532   1.698  12.020
34909W        W 7224  17.096  40.123  10.266
34910W        W 7225  14.421  13.172   4.602
34911W        W 7226  14.744  37.078   3.629
34912W        W 7227   1.354  41.920   1.455
34913W        W 7228  44.501  11.560   4.081
34914W        W 7229  34.363   0.757  14.318
34915W        W 7230  16.085   9.954   1.853
34916W        W 7231  18.228  39.741   3.632
34917W        W 7232  38.581   6.299   4.809
34918W        W 7233  21.754  12.809   3.139
34919W        W 7234  16.295  27.887   5.403
34920W        W 7235  29.885   9.590  10.528
34921W        W 7236  38.967  27.892   4.731
34922W        W 7237  27.686  38.709  14.652
34923W        W 7238  14.833  31.970  12.552
34924W        W 7239  38.633  11.652  12.999
34925W        W 7240  31.927  40.360   4.337
34926W        W 7241  17.001  25.143  13.438
34927W        W 7242  39.497  42.244   2.974
34928W        W 7243  21.897  37.098   0.945
34929W        W 7244  30.745   2.250   0.373
34930W        W 7245  39.064  32.590  11.389
34931W        W 7246   0.814   8.977   2.163
34932W        W 7247   5.922   9.099   1.885
34933W        W 7248  20.664  13.564   3.570
34934W        W 7249  27.824  34.689  10.128
34935W        W 7250  37.291   6.392   1.870
34936W        W 7251   2.253  10.808   1.255
34937W        W 7252   9.452  25.191  10.258
34938W        W 7253  11.332  16.864  10.895
34939W        W 7254   8.158   1.951   4.757
34940W        W 7255  30.554  41.564  13.876
34941W        W 7256  29.035  38.953  13.769
34942W        W 7257   0.110   5.899   4.091
34943W        W 7258  37.190  23.097   3.271
34944W        W 7259  16.594   9.282   3.794
34945W        W 7260  34.350  26.918  11.377
34946W        W 7261  29.174  15.272   3.914
34947W        W 7262  41.822   8.205   0.056
34948W        W 7263   4.609  24.526   0.400
34949W        W 7264   7.870  22.942  13.914
34950W        W 7265  36.120  13.812   4.032
34951W        W 7266  37.571   9.118   4.292
34952W        W 7267  39.954  23.674   4.626
34953W        W 7268  34.456  25.362   3.842
34954W        W 7269  33.061  34.935   1.492
34955W        W 7270  44.504  14.625  13.396
34956W        W 7271  26.454   1.328  12.976
34957W        W 7272  33.872   7.660   4.559
34958W        W 7273  44.195   7.463  10.664
34959W        W 7274  10.871  43.460  11.872
34960W        W 7275  44.832  33.057   3.257
34961W        W 7276  15.390   6.636  11.124
34962W        W 7277  23.858  12.135   0.208
34963W        W 7278  27.123  31.531   3.342
34964W        W 7279   0.445  12.654   3.332
34965W        W 7280  22.376  35.579   1.482
34966W        W 7281  11.682   0.057   1.804
34967W        W 7282   4.433  11.160   4.848
34968W        W 7283   4.358  10.654   0.791
34969W        W 7284  20.297  24.982   1.877
34970W        W 7285  40.012  19.171   3.216
34971W        W 7286  27.608  30.700   0.408
34972W        W 7287  18.224   4.013   0.432
34973W        W 7288  19.774  38.394   5.057
34974W        W 7289  29.592  35.126   1.647
34975W        W 7290  14.643  11.831  14.545
34976W        W 7291  36.352  19.473   3.413
34977W        W 7292  15.019  40.985   0.038
34978W        W 7293  22.104  10.142   1.632
34979W        W 7294  18.745  28.468   2.100
34980W        W 7295  16.739  44.741  13.317
34981W        W 7296   5.860   5.743  12.054
34982W        W 7297   9.371  17.976  12.451
34983W        W 7298  13.678  42.854  12.795
34984W        W 7299   1.397   4.670   3.808
34985W        W 7300  10.196  37.445   4.545
34986W        W 7301   0.690  34.141   1.201
34987W        W 7302  32.999  27.532   3.237
34988W        W 7303   4.394  13.629   2.423
34989W        W 7304  42.594  22.563   4.874
34990W        W 7305   8.795   8.197  14.235
34991W        W 7306  34.010  11.877   4.228
34992W        W 7307  17.173   8.828  13.704
34993W        W 7308   4.139  42.452   1.291
34994W        W 7309  15.719  23.137  13.579
34995W        W 7310  11.855  26.684  13.899
34996W        W 7311  10.862  14.827  12.699
34997W        W 7312   0.479  14.356   1.591
34998W        W 7313  36.544  16.662   4.546
34999W        W 7314  16.618  32.199   0.971
35000W        W 7315   0.015  36.033   1.364
35001W        W 7316  30.606  23.459   2.339
35002W        W 7317  14.867  14.690   1.452
35003W        W 7318  24.358  12.164   0.233
35004W        W 7319  35.895  36.829  14.442
35005W        W 7320  42.054  16.946  10.610
35006W        W 7321  15.842  18.653   4.565
35007W        W 7322  30.091  27.730   2.211
35008W        W 7323   7.645  10.267   3.112
35009W        W 7324   3.366  15.348  12.809
35010W        W 7325  19.074  42.801  11.615
35011W        W 7326  22.532  43.823   0.845
35012W        W 7327  25.525   4.731  12.471
35013W        W 7328  44.563  16.650   4.201
35014W        W 7329  27.770  17.899  14.344
35015W        W 7330  39.477  34.131  14.113
35016W        W 7331  20.534  31.997  14.475
35017W        W 7332  32.273  39.998  12.386
35018W        W 7333  29.305  28.783   1.946
35019W        W 7334  40.447  36.997  14.334
35020W        W 7335   1.386   0.327  12.340
35021W        W 7336  15.798  43.848   3.777
35022W        W 7337  26.493  43.727  14.444
35023W        W 7338  42.839  11.092  11.920
35024W        W 7339  30.916  43.790  11.433
35025W        W 7340   4.744  29.389   1.558
35026W        W 7341  37.862  33.393  13.622
35027W        W 7342  34.938   3.203  10.954
35028W        W 7343  38.044  12.378  10.623
35029W        W 7344  38.587  36.547   1.242
35030W        W 7345  10.815  36.369  13.947
35031W        W 7346  38.982  25.013   2.926
35032W        W 7347  25.630  27.414   4.156
35033W        W 7348  31.400  13.657   0.709
35034W        W 7349  20.581  23.984  14.736
35035W        W 7350  24.906  40.746  11.556
35036W        W 7351  24.448  10.954  13.397
35037W        W 7352   2.701   8.083   0.476
35038W        W 7353   3.846  31.722   2.690
35039W        W 7354  36.432  29.628   1.426
35040W        W 7355  19.737  11.104  11.068
35041W        W 7356  31.002  13.907  14.942
35042W        W 7357  41.183   9.599  14.513
35043W        W 7358  23.367   0.906  13.330
35044W        W 7359   6.802   9.267  14.371
35045W        W 7360   9.215  39.989   0.631
35046W        W 7361  29.088  10.539   3.274
35047W        W 7362  14.951   1.981  13.595
35048W        W 7363  23.841  17.320  12.946
35049W        W 7364  36.136  31.451  12.163
35050W        W 7365  39.515  26.889  14.918
35051W        W 7366  43.302   1.762   2.886
35052W        W 7367  23.281   2.938  11.581
35053W        W 7368  19.190  43.305  12.517
35054W        W 7369   4.088  41.238   0.233
35055W        W 7370  37.866  18.685  11.403
35056W        W 7371   1.896  18.612   1.358
35057W        W 7372  10.872  23.389  14.991
35058W        W 7373  23.487  24.700  12.002
35059W        W 7374  27.906  27.612  11.125
35060W        W 7375   7.863   8.972  10.710
35061W        W 7376  18.462  17.884   4.465
35062W        W 7377  14.787  13.247  12.807
35063W        W 7378   4.497   7.638   3.826
35064W        W 7379  21.208   2.696   4.373
35065W        W 7380  37.385  21.043   1.757
35066W        W 7381  15.577  23.079  12.465
35067W        W 7382  13.289  33.026  13.791
35068W        W 7383  42.261  28.321   4.213
35069W        W 7384   3.948  17.674  10.817
35070W        W 7385  17.167  16.252  11.923
35071W        W 7386  31.070  31.013  11.098
35072W        W 7387  29.465   8.749  12.183
35073W        W 7388  40.133  33.581  11.167
35074W        W 7389  22.502  33.469   0.426
35075W        W 7390  24.140  24.999   0.913
35076W        W 7391  14.205  14.253   1.683
35077W        W 7392  41.013   6.154   0.733
35078W        W 7393  33.602  25.901  13.126
35079W        W 7394   5.436  13.931   3.358
35080W        W 7395  10.852  44.282   2.811
35081W        W 7396   2.063  34.631  11.147
35082W        W 7397  23.495  18.368  14.058
35083W        W 7398  15.624  43.544   0.197
35084W        W 7399  24.245  41.316  13.599
35085W        W 7400   5.810   9.134   3.343
35086W        W 7401  32.923  11.224  12.441
35087W        W 7402  15.806   1.341   1.753
35088W        W 7403  23.458  33.041  11.187
35089W        W 7404  10.393  20.727   4.081
35090W        W 7405  18.312   0.977  13.697
35091W        W 7406  42.311  22.803  14.091
35092W        W 7407  31.005   8.368   3.141
35093W        W 7408  41.777   5.911   3.518
35094W        W 7409  40.860   3.307  14.904
35095W        W 7410  17.315  20.797  14.345
35096W        W 7411  40.907  32.654  14.131
35097W        W 7412  24.690  38.462   2.248
35098W        W 7413  23.328  30.743  14.412
35099W        W 7414   0.201  39.367  11.614
35100W        W 7415   0.285  25.122   0.009
35101W        W 7416  44.243  30.170  13.015
35102W        W 7417  33.989  42.000  12.600
35103W        W 7418  13.366   0.749   2.462
35104W        W 7419  43.553   5.412  10.727
35105W        W 7420  19.207  10.473   4.944
35106W        W 7421  22.756  42.034  14.900
35107W        W 7422   3.579  30.520   4.579
35108W        W 7423  22.293  24.650  14.883
35109W        W 7424   6.924   9.760  14.367
35110W        W 7425  32.668  24.413  11.219
35111W        W 7426   2.265  36.621   1.370
35112W        W 7427  20.346  22.540   4.279
35113W        W 7428  17.856   4.171  11.481
35114W        W 7429   3.761  13.089   3.600
35115W        W 7430  12.927  37.272  11.871
35116W        W 7431  14.196  12.158  13.418
35117W        W 7432  40.504  11.550  12.946
35118W        W 7433   2.252  18.601   0.448
35119W        W 7434   0.734  39.534   0.372
35120W        W 7435  36.189  30.317   2.493
35121W        W 7436  34.341  23.553  11.421
35122W        W 7437   9.894  35.399  14.544
35123W        W 7438   4.630  24.521   2.409
35124W        W 7439  27.016  35.835   0.431
35125W        W 7440  33.001  35.051   0.475
35126W        W 7441  40.359  10.101  13.386
35127W        W 7442  21.564  30.592   1.130
35128W        W 7443   2.233  40.389   4.782
35129W        W 7444   3.554  38.919  10.256
35130W        W 7445   9.174   7.303  14.421
35131W        W 7446  11.144  23.736  12.898
35132W        W 7447  10.712  10.134   3.651
35133W        W 7448   8.984   8.380  13.761
35134W        W 7449  14.887  37.986   4.578
35135W        W 7450  24.770  23.889   4.346
35136W        W 7451  37.506  11.936   1.919
35137W        W 7452  26.858  43.898   1.191
35138W        W 7453   5.747  23.948   1.717
35139W        W 7454  44.520  30.542  10.009
35140W        W 7455  44.222  31.510  14.298
35141W        W 7456  22.210   3.661   2.700
35142W        W 7457  39.927  43.747   1.867
35143W        W 7458  44.734  19.720  14.736
35144W        W 7459  29.266   5.181   0.887
35145W        W 7460  29.118  29.057   0.495
35146W        W 7461   7.831  36.032  12.320
35147W        W 7462  21.159  24.678  12.879
35148W        W 7463  40.153  21.154   4.029
35149W        W 7464  33.918  25.666  10.558
35150W        W 7465  42.817  29.489   2.819
35151W        W 7466   9.311  11.571   3.679
35152W        W 7467  12.284  20.614  10.661
35153W        W 7468  44.334  13.582   2.695
35154W        W 7469  42.252  22.987  12.308
35155W        W 7470  36.458   6.199   0.228
35156W        W 7471  31.968  14.694  14.360
35157W        W 7472  23.391  39.929   4.056
35158W        W 7473  38.691  30.857  14.825
35159W        W 7474   1.477  33.172   3.428
35160W        W 7475  29.915  24.658   1.007
35161W        W 7476  14.630  19.992   2.622
35162W        W 7477  17.863  12.629   0.317
35163W        W 7478  31.340  33.343   1.215
35164W        W 7479  39.844  19.260   1.757
35165W        W 7480  40.063  39.387   1.152
35166W        W 7481  39.992   5.216  13.041
35167W        W 7482   7.616   7.100   0.418
35168W        W 7483  43.432  24.419  13.075
35169W        W 7484  41.355  24.524   0.448
35170W        W 7485  34.482  13.780   2.256
35171W        W 7486   8.783  14.378  10.666
35172W        W 7487  19.791  31.554  11.415
35173W        W 7488  23.087   7.545  10.688
35174W        W 7489  37.312  32.273  12.870
35175W        W 7490  40.623   2.220  10.679
35176W        W 7491  27.077  27.560   0.050
35177W        W 7492   6.785   7.044  11.217
35178W        W 7493  34.533  18.485  11.991
35179W        W 7494  41.007  18.806   1.252
35180W        W 7495  44.822  35.488  14.074
35181W        W 7496  12.764  44.836  12.721
35182W        W 7497   8.425  20.290  14.331
35183W        W 7498  26.034  41.267  13.420
35184W        W 7499  27.500  17.094   3.657
35185W        W 7500   5.855  31.131   0.002
35186W        W 7501  15.231  16.777  13.145
35187W        W 7502   6.666  15.772  11.621
35188W        W 7503  42.262  41.783  13.900
35189W        W 7504  24.313  25.006   2.331
35190W        W 7505  15.647  43.499   4.229
35191W        W 7506   9.548   1.737  14.058
35192W        W 7507   7.137  36.987   2.331
35193W        W 7508  34.600   8.836   2.527
35194W        W 7509  19.704  26.165  13.625
35195W        W 7510  16.818  17.850  11.599
35196W        W 7511   0.465  38.955  14.589
35197W        W 7512  21.010  37.248  13.968
35198W        W 7513  31.002   7.447  10.999
35199W        W 7514   6.389  35.361   2.898
35200W        W 7515  14.853   0.444   0.892
35201W        W 7516  17.555  35.924  11.509
35202W        W 7517   1.547  12.059   9.702
35203W        W 7518  14.261  26.751   4.802
35204W        W 7519  29.398  27.614   3.316
35205W        W 7520   4.344  24.665   1.924
35206W        W 7521  34.679  18.730   3.631
35207W        W 7522  11.852  23.481   4.892
35208W        W 7523  21.558  44.048  12.798
35209W        W 7524  12.723  36.862  12.173
35210W        W 7525   5.188  43.969  10.649
35211W        W 7526  25.452  42.586   0.443
35212W        W 7527   1.388   5.575  14.186
35213W        W 7528  36.408  22.789  12.964
35214W        W 7529   4.913  36.290  12.713
35215W        W 7530  23.639   1.011   3.576
35216W        W 7531  17.219  31.845   4.522
35217W        W 7532  19.542   7.311   3.756
35218W        W 7533  13.195  14.242   0.278
35219W        W 7534  32.511  33.039  10.628
35220W        W 7535   8.639  37.363  10.885
35221W        W 7536   9.409  40.000  10.827
35222W        W 7537  13.736  17.389  14.905
35223W        W 7538  23.344  40.551   4.234
35224W        W 7539   1.491   0.856  10.635
35225W        W 7540   0.579  26.301  11.538
35226W        W 7541  44.894   0.210   1.374
35227W        W 7542  29.467  26.147  13.513
35228W        W 7543  11.186  17.800   3.217
35229W        W 7544  35.026  26.689  13.784
35230W        W 7545  15.933  27.422  12.550
35231W        W 7546   2.800   7.548   0.424
35232W        W 7547  35.970  40.420  10.604
35233W        W 7548  23.431  44.520   4.103
35234W        W 7549  10.819   9.836  13.408
35235W        W 7550  16.816  35.915  14.393
35236W        W 7551   8.888  26.615  13.529
35237W        W 7552   5.817  42.359   1.904
35238W        W 7553  15.804  25.352   2.303
35239W        W 7554   2.377  21.402  12.871
35240W        W 7555  34.970  12.117  13.039
35241W        W 7556  29.077  12.071  11.555
35242W        W 7557  43.238  19.696  12.887
35243W        W 7558  16.566  17.054   1.823
35244W        W 7559  30.679  15.148   1.828
35245W        W 7560  13.350  44.135   1.717
35246W        W 7561  34.488  25.682   0.690
35247W        W 7562  41.185  24.932   4.737
35248W        W 7563  36.531  23.032  11.613
35249W        W 7564  40.916  19.620   3.606
35250W        W 7565  37.051   7.175  11.670
35251W        W 7566  19.260   2.658   0.168
35252W        W 7567  18.578   5.275   0.176
35253W        W 7568  20.576  25.264   1.220
35254W        W 7569  32.028  31.009  14.314
35255W        W 7570  37.217   8.175  11.655
35256W        W 7571   2.527   5.251   2.256
35257W        W 7572   1.015  14.010  14.738
35258W        W 7573  14.977  22.275   4.626
35259W        W 7574  28.364  44.694   1.454
35260W        W 7575   1.026   4.965   1.623
35261W        W 7576  38.366  24.195   0.442
35262W        W 7577  32.945   6.647   0.050
35263W        W 7578   8.639  12.338  11.985
35264W        W 7579  26.488   9.503  10.418
35265W        W 7580  38.965  22.163   3.861
35266W        W 7581  43.875  37.211  12.442
35267W        W 7582  27.555  23.062   4.671
35268W        W 7583  36.912  26.756   4.977
35269W        W 7584  13.935  39.871   1.887
35270W        W 7585  13.829  13.406  11.559
35271W        W 7586  28.182  15.855   4.220
35272W        W 7587  29.603  44.891  13.813
35273W        W 7588  32.961   1.386   3.606
35274W        W 7589  23.160  30.820  13.278
35275W        W 7590  11.889  18.078  11.151
35276W        W 7591  43.880   2.918  10.592
35277W        W 7592   7.250  10.250   2.737
35278W        W 7593   7.710  11.189  12.171
35279W        W 7594   6.592  22.120  14.340
35280W        W 7595  23.619  32.013   1.470
35281W        W 7596  28.714  28.940   0.811
35282W        W 7597  12.659  35.527   4.590
35283W        W 7598  14.124  22.154  13.962
35284W        W 7599   8.462   0.508  11.074
35285W        W 7600  21.218  33.811  12.548
35286W        W 7601  38.478   6.317   2.387
35287W        W 7602   0.958  21.685   2.914
35288W        W 7603  14.661  14.622   0.510
35289W        W 7604  18.358   5.258  13.300
35290W        W 7605   1.461   8.189   3.683
35291W        W 7606  39.383  40.558   4.638
35292W        W 7607  28.064  15.230   4.518
35293W        W 7608  44.347  24.939  10.633
35294W        W 7609  24.984  41.560  12.600
35295W        W 7610  27.915   8.624  14.244
35296W        W 7611  25.222  23.413  11.560
35297W        W 7612  24.708   1.795  10.700
35298W        W 7613  14.213  18.269   0.566
35299W        W 7614  40.780  40.964   2.300
35300W        W 7615  30.900  17.158   0.890
35301W        W 7616  10.107  34.309   0.350
35302W        W 7617  29.163  22.533  12.937
35303W        W 7618  12.337   2.913  11.960
35304W        W 7619   9.559   5.209  10.705
35305W        W 7620  21.107  37.591  10.308
35306W        W 7621  30.408  12.648  14.818
35307W        W 7622  33.211   8.328   2.776
35308W        W 7623  36.086  12.131  13.794
35309W        W 7624  17.263  28.736  13.499
35310W        W 7625  11.925  41.384   3.475
35311W        W 7626  16.366  33.608  12.662
35312W        W 7627  14.131  17.295   3.265
35313W        W 7628  18.771   5.069   5.056
35314W        W 7629  33.665  15.609   2.266
35315W        W 7630  11.273  18.840   4.092
35316W        W 7631  35.794  19.315  13.421
35317W        W 7632  11.796  27.143   0.795
35318W        W 7633  35.953  24.425   3.235
35319W        W 7634  12.487   7.678  12.465
35320W        W 7635   3.489  35.533  10.771
35321W        W 7636   6.919  30.818   4.563
35322W        W 7637  44.972  28.737   3.091
35323W        W 7638  14.992  44.877  11.443
35324W        W 7639  44.895  23.141   4.801
35325W        W 7640  23.705   9.510  11.734
35326W        W 7641   6.490  24.645   2.325
35327W        W 7642  37.334  14.189  13.076
35328W        W 7643  12.576  40.823   3.282
35329W        W 7644  31.097  33.518  11.527
35330W        W 7645  44.467  37.929   2.686
35331W        W 7646  29.179  37.856  14.528
35332W        W 7647  43.614  11.429  12.949
35333W        W 7648  44.071   1.931   4.578
35334W        W 7649   0.969  10.853  13.883
35335W        W 7650   5.686   9.333   0.671
35336W        W 7651  16.639  27.487   1.682
35337W        W 7652   4.451  31.821  11.675
35338W        W 7653  14.129  29.954  12.025
35339W        W 7654  18.805  17.027  14.471
35340W        W 7655  11.129  13.918  13.427
35341W        W 7656  20.596  44.881  14.061
35342W        W 7657  38.392  23.429   3.225
35343W        W 7658  40.401   9.371  11.148
35344W        W 7659   9.220   3.231   3.388
35345W        W 7660   6.993   2.389  13.007
35346W        W 7661  41.966   5.312   4.712
35347W        W 7662  22.440  29.053  11.622
35348W        W 7663  35.077  23.614   4.528
35349W        W 7664  31.120   0.828   0.306
35350W        W 7665  13.522  44.079   4.860
35351W        W 7666  38.005  34.574  12.322
35352W        W 7667   4.981  44.345   3.321
35353W        W 7668  13.437  31.361  14.364
35354W        W 7669  28.079  37.095  13.904
35355W        W 7670  14.395  14.338  12.836
35356W        W 7671  13.435   7.812  11.116
35357W        W 7672  39.281  27.920   3.253
35358W        W 7673   8.929  33.361   2.186
35359W        W 7674  27.600  24.147   3.598
35360W        W 7675  29.637   1.140  11.293
35361W        W 7676  29.832  41.595   3.347
35362W        W 7677  29.111  15.899  12.129
35363W        W 7678  10.052   2.899  11.732
35364W        W 7679  42.395   4.766  10.990
35365W        W 7680  19.592  37.485   4.614
35366W        W 7681  22.616  29.452   0.665
35367W        W 7682  33.889  39.477   0.938
35368W        W 7683  35.944  36.102   1.438
35369W        W 7684  32.702   0.362   2.181
35370W        W 7685  28.183  29.725  14.995
35371W        W 7686  30.447  31.162  13.053
35372W        W 7687  41.791  40.486  14.932
35373W        W 7688   4.238  42.936   0.247
35374W        W 7689  26.757  13.280   2.572
35375W        W 7690  39.358   0.048   0.077
35376W        W 7691  21.317  23.060  13.555
35377W        W 7692   6.862  37.238  12.116
35378W        W 7693   0.272   7.981  10.597
35379W        W 7694   1.526  34.056   5.513
35380W        W 7695  39.239  35.618  13.856
35381W        W 7696  16.830  21.656  14.320
35382W        W 7697  17.339  17.275   4.534
35383W        W 7698  44.304   4.320   2.699
35384W        W 7699  19.204  17.038   2.161
35385W        W 7700  32.457  16.582   1.400
35386W        W 7701  36.033  14.848  14.455
35387W        W 7702  43.857   2.847   1.373
35388W        W 7703  31.434  18.273   0.852
35389W        W 7704  32.088  17.533  13.122
35390W        W 7705  12.720  32.058  10.671
35391W        W 7706  43.862  39.509   4.373
35392W        W 7707   5.152   4.957  11.858
35393W        W 7708  21.047  30.544   1.014
35394W        W 7709  30.014  34.092   0.276
35395W        W 7710  20.636  27.278   3.818
35396W        W 7711  26.664  13.582   0.939
35397W        W 7712  38.082  12.045  12.083
35398W        W 7713  21.065  35.100   4.921
35399W        W 7714  19.679   5.837   2.590
35400W        W 7715  23.112  24.789  13.875
35401W        W 7716   6.510  32.152   1.414
35402W        W 7717  17.042  21.208   5.173
35403W        W 7718   3.695  12.989   1.496
35404W        W 7719  25.188  24.167   2.112
35405W        W 7720  37.516  43.808  13.079
35406W        W 7721  35.504  35.586   3.109
35407W        W 7722  31.137  17.219   4.115
35408W        W 7723   7.232  41.127  14.423
35409W        W 7724  38.918  31.146  13.472
35410W        W 7725  34.787  34.539  13.120
35411W        W 7726  11.886   8.136  14.937
35412W        W 7727  32.970  43.569  14.882
35413W        W 7728  44.788  38.910  10.150
35414W        W 7729  36.420   1.504  12.086
35415W        W 7730  36.065  42.675   4.714
35416W        W 7731  22.628  19.640  10.996
35417W        W 7732  19.164  42.414  11.272
35418W        W 7733  18.615  38.017  13.426
35419W        W 7734  12.942  30.639  12.734
35420W        W 7735  30.569  22.034  11.959
35421W        W 7736   7.214  39.366   4.319
35422W        W 7737   5.912  20.593   0.918
35423W        W 7738  14.422  16.731   1.546
35424W        W 7739  25.515  34.390   0.895
35425W        W 7740   8.326  20.600   1.697
35426W        W 7741  38.318   1.233  12.868
35427W        W 7742  25.221  40.379  12.356
35428W        W 7743  34.622  21.048  13.027
35429W        W 7744  29.518  22.210   1.535
35430W        W 7745  37.131   2.065   0.880
35431W        W 7746  27.110  25.589  12.790
35432W        W 7747  40.857  42.184  13.881
35433W        W 7748   3.838  28.404  14.745
35434W        W 7749  40.025  18.274   0.567
35435W        W 7750  32.118  37.580  11.206
35436W        W 7751   7.735  33.621  12.016
35437W        W 7752  44.984  12.188   3.724
35438W        W 7753  18.610  27.333   3.111
35439W        W 7754  39.580  44.280  14.430
35440W        W 7755   0.356  41.304  12.761
35441W        W 7756  38.287  37.596   0.978
35442W        W 7757  20.039  34.499  10.605
35443W        W 7758  25.283  36.259  14.812
35444W        W 7759  38.514   9.728   1.269
35445W        W 7760  43.170   8.314  14.926
35446W        W 7761   4.009  32.134  14.553
35447W        W 7762   7.926   4.000  13.636
35448W        W 7763  35.541  14.025   1.309
35449W        W 7764  18.792  15.554   0.293
35450W        W 7765  21.455   9.351   2.462
35451W        W 7766  20.411   7.237  13.723
35452W        W 7767  40.465  42.252   4.105
35453W        W 7768  33.493  10.903   1.200
35454W        W 7769   1.280  10.881  14.405
35455W        W 7770  34.571   0.278  13.816
35456W        W 7771  27.047  30.550  10.092
35457W        W 7772   5.135  40.469   4.709
35458W        W 7773  10.602  26.035   1.979
35459W        W 7774  20.024  31.728  13.461
35460W        W 7775  32.020  19.246  13.807
35461W        W 7776  44.812  33.274   3.738
35462W        W 7777  10.872  21.140  10.556
35463W        W 7778  19.671  11.988  11.051
35464W        W 7779  27.894  26.876  12.398
35465W        W 7780  21.947   7.105   2.382
35466W        W 7781  34.876  44.943   3.316
35467W        W 7782   5.285  36.443  11.889
35468W        W 7783   8.398   0.725  14.820
35469W        W 7784  24.547   3.230  13.473
35470W        W 7785  43.487  14.052  11.143
35471W        W 7786   1.922   0.714   0.218
35472W        W 7787  27.097   6.293  12.406
35473W        W 7788   6.691  24.548   3.189
35474W        W 7789   2.232   8.394   4.015
35475W        W 7790  28.803  10.715   2.878
35476W        W 7791  42.054  32.040   3.498
35477W        W 7792  43.318  13.286   0.772
35478W        W 7793  15.602  24.757   0.082
35479W        W 7794  12.753  44.204  14.848
35480W        W 7795  42.356  12.024  14.831
35481W        W 7796   3.777   9.667  14.341
35482W        W 7797  33.088  13.832   0.553
35483W        W 7798  30.510   3.983  11.619
35484W        W 7799   7.382  16.321   3.990
35485W        W 7800  24.640  10.935   0.267
35486W        W 7801  13.325  42.589  13.469
35487W        W 7802  44.860   5.457  12.988
35488W        W 7803  24.210   0.033   4.214
35489W        W 7804  23.623  40.106  12.075
35490W        W 7805  32.471  36.065   1.341
35491W        W 7806  27.746  15.391  14.400
35492W        W 7807  14.044  12.375  12.927
35493W        W 7808  13.313  34.315   3.672
35494W        W 7809  26.527  44.252  14.396
35495W        W 7810  41.446  14.508  14.477
35496W        W 7811  32.879  18.511  13.419
35497W        W 7812  29.402   6.537  10.778
35498W        W 7813  34.732   7.927   5.070
35499W        W 7814  38.835  43.445  12.242
35500W        W 7815   3.853  32.885   3.646
35501W        W 7816   0.836   4.039  10.714
35502W        W 7817  26.702   4.379  12.108
35503W        W 7818  13.072  44.677  11.003
35504W        W 7819  22.015  22.727   5.013
35505W        W 7820  20.699  24.459  12.120
35506W        W 7821  31.455   2.797  12.403
35507W        W 7822  18.160   9.114   1.752
35508W        W 7823  43.727   9.614   5.388
35509W        W 7824   3.717   5.946   2.375
35510W        W 7825  21.229  15.125  12.152
35511W        W 7826   2.272  17.069   2.275
35512W        W 7827  39.983  39.466   1.660
35513W        W 7828  21.435  27.991  10.617
35514W        W 7829  17.614  20.604  13.527
35515W        W 7830   1.423   2.980   4.900
35516W        W 7831  27.437  26.041   4.928
35517W        W 7832  10.709  29.939   3.227
35518W        W 7833  39.160  30.467   1.812
35519W        W 7834  12.651  12.356  13.259
35520W        W 7835  44.035  21.230   0.433
35521W        W 7836  16.037  37.579   0.478
35522W        W 7837   7.178  31.639   1.151
35523W        W 7838  13.557   8.924  12.957
35524W        W 7839  22.322  22.339  14.710
35525W        W 7840  32.651  36.916   1.926
35526W        W 7841   7.232  34.591   0.618
35527W        W 7842  41.688  21.991   4.662
35528W        W 7843  20.378  13.326   0.313
35529W        W 7844  18.484   9.868  12.792
35530W        W 7845  30.386  11.312  10.975
35531W        W 7846  34.966  32.002  10.735
35532W        W 7847  36.607  24.027   2.475
35533W        W 7848  23.288  29.002  12.814
35534W        W 7849   4.509  18.377   1.621
35535W        W 7850  30.731  25.949   3.256
35536W        W 7851  23.136  29.131   4.545
35537W        W 7852   7.169  10.429  11.383
35538W        W 7853   5.834  12.968   4.132
35539W        W 7854  31.966  27.720   0.680
35540W        W 7855   6.288  25.521   4.429
35541W        W 7856  19.140  41.131  10.142
35542W        W 7857  31.924  19.045  12.110
35543W        W 7858  44.977  42.537  11.964
35544W        W 7859  22.493  11.392   2.702
35545W        W 7860   0.005   3.256  11.312
35546W        W 7861  14.283  41.925  11.941
35547W        W 7862  10.090  10.192  12.590
35548W        W 7863   6.323   0.672  11.757
35549W        W 7864   9.687  25.761  13.316
35550W        W 7865   7.893  44.734  10.642
35551W        W 7866   7.430   1.814  11.988
35552W        W 7867  27.203  21.765  12.400
35553W        W 7868   4.376   7.106  13.799
35554W        W 7869  10.151   6.619   2.357
35555W        W 7870  30.650  38.196  13.372
35556W        W 7871  24.735  19.859   0.421
35557W        W 7872  27.152  38.228   2.592
35558W        W 7873  31.522  31.498  12.973
35559W        W 7874  27.416  14.357   2.215
35560W        W 7875  21.341   6.300   5.103
35561W        W 7876  42.375  39.229  10.689
35562W        W 7877  14.527   7.189   1.735
35563W        W 7878  33.604  33.933  12.696
35564W        W 7879  27.817  16.682   2.683
35565W        W 7880  38.547  39.473   2.329
35566W        W 7881  20.604  40.317  13.841
35567W        W 7882  37.414  34.038   3.646
35568W        W 7883  42.053  37.496  13.886
35569W        W 7884  43.572  23.596  11.207
35570W        W 7885  18.132  28.495   4.557
35571W        W 7886  27.563   3.195   1.747
35572W        W 7887  26.580  39.988  13.061
35573W        W 7888  25.466  23.194  11.939
35574W        W 7889  34.971  19.985   0.898
35575W        W 7890  27.243   4.133  13.270
35576W        W 7891  38.406  24.911  11.928
35577W        W 7892   2.887  16.611  13.829
35578W        W 7893  30.086  29.714   1.213
35579W        W 7894  31.676  22.181  12.038
35580W        W 7895  34.390   8.375  13.565
35581W        W 7896  17.008  32.164   4.153
35582W        W 7897  11.752  35.045  13.475
35583W        W 7898   9.420  30.357   1.700
35584W        W 7899  26.687   3.699   5.316
35585W        W 7900  42.369  34.637  14.405
35586W        W 7901  17.600  22.757  10.502
35587W        W 7902   5.963  10.387   3.242
35588W        W 7903  43.264   7.867   2.257
35589W        W 7904  27.413  34.059   3.684
35590W        W 7905  22.186  23.475  10.765
35591W        W 7906  30.869   0.473   4.189
35592W        W 7907  34.110  12.217  13.986
35593W        W 7908  20.759  26.792  12.327
35594W        W 7909  39.917  35.533  11.252
35595W        W 7910  23.970  29.260  13.860
35596W        W 7911  22.960  18.304  14.055
35597W        W 7912  12.155   1.966   0.999
35598W        W 7913   8.124  24.625  13.311
35599W        W 7914  28.409   9.921  10.596
35600W        W 7915  28.150  36.573   1.372
35601W        W 7916  28.968  36.414   0.781
35602W        W 7917  12.749  25.450   0.889
35603W        W 7918  17.751  30.014   4.569
35604W        W 7919  18.270   5.011  14.309
35605W        W 7920  26.946  12.085   4.962
35606W        W 7921  17.716  40.713   4.312
35607W        W 7922  41.683   6.824   3.574
35608W        W 7923  30.486  36.169   3.493
35609W        W 7924  44.408  41.086  11.534
35610W        W 7925  23.647  10.358   2.208
35611W        W 7926   5.509   8.533   4.150
35612W        W 7927  31.877   5.950   2.452
35613W        W 7928  14.672  30.268   4.064
35614W        W 7929  37.400  35.809  13.295
35615W        W 7930  29.427   5.779   1.353
35616W        W 7931   6.564  11.407   2.632
35617W        W 7932  43.234  44.759  14.325
35618W        W 7933  41.000   3.289  13.898
35619W        W 7934   3.818  27.542  13.762
35620W        W 7935  17.080  22.663  12.978
35621W        W 7936  15.675   2.339  10.639
35622W        W 7937  33.201   1.234  11.159
35623W        W 7938   8.868  10.758  13.960
35624W        W 7939  33.774  16.824  10.952
35625W        W 7940  42.647   1.541  13.072
35626W        W 7941  26.916  42.882  12.568
35627W        W 7942   9.869   9.849   4.237
35628W        W 7943  26.644  20.007  12.600
35629W        W 7944  18.735  13.553  14.325
35630W        W 7945  43.102   7.177   1.890
35631W        W 7946  17.343   8.200  11.107
35632W        W 7947  43.509  30.553   0.552
35633W        W 7948   4.824  39.087  10.627
35634W        W 7949  22.007  12.245   2.496
35635W        W 7950  23.246  26.454  14.315
35636W        W 7951  14.705  15.459  11.126
35637W        W 7952  19.978  22.908   4.170
35638W        W 7953  29.739  43.529   1.325
35639W        W 7954  26.646  44.088   0.764
35640W        W 7955  31.080  42.017  14.423
35641W        W 7956   5.363  11.700  14.111
35642W        W 7957  44.718  41.578  14.458
35643W        W 7958  31.456  23.628   4.526
35644W        W 7959  23.096  26.066  11.994
35645W        W 7960  21.377  39.163   1.642
35646W        W 7961  14.768  17.308   2.378
35647W        W 7962  20.382  33.570   2.998
35648W        W 7963   4.320  20.581   2.195
35649W        W 7964  41.608   2.237   1.722
35650W        W 7965  21.508  21.156  12.624
35651W        W 7966  18.847  30.112  11.998
35652W        W 7967  29.570  36.942   0.684
35653W        W 7968  41.838  28.889  14.405
35654W        W 7969  10.817  16.806   9.745
35655W        W 7970  42.493  37.979  12.525
35656W        W 7971  42.985  29.527  14.788
35657W        W 7972   2.258  23.918   2.303
35658W        W 7973   4.789  40.090   2.133
35659W        W 7974  29.864  14.792  14.244
35660W        W 7975  39.369   4.231  11.979
35661W        W 7976   5.716   6.403   3.668
35662W        W 7977  22.706  23.750   4.697
35663W        W 7978  21.685  13.204   2.761
35664W        W 7979  21.226  26.028  12.178
35665W        W 7980   9.401   6.605  14.018
35666W        W 7981  20.373  38.821  10.964
35667W        W 7982  41.001  37.136   2.695
35668W        W 7983  11.118  30.917  11.363
35669W        W 7984   9.219  30.040   4.350
35670W        W 7985  12.282  19.665   2.208
35671W        W 7986  16.293  43.850   4.684
35672W        W 7987   0.139  34.230   2.341
35673W        W 7988  17.648  39.216   0.220
35674W        W 7989  30.719   4.042   1.770
35675W        W 7990  19.953   2.773   2.089
35676W        W 7991   4.240  13.284  12.546
35677W        W 7992   3.947  37.523   4.211
35678W        W 7993  39.939   4.389   0.703
35679W        W 7994  34.953  38.336   4.573
35680W        W 7995  27.237  31.925   2.784
35681W        W 7996  27.453  41.300   2.252
35682W        W 7997  37.343  40.441  10.463
35683W        W 7998  27.340  21.185   2.218
35684W        W 7999   2.074   1.801  12.388
35685W        W 8000   1.337   1.943   0.511
35686W        W 8001  11.488   5.331   2.961
35687W        W 8002  29.416  40.511   4.509
35688W        W 8003  43.001  40.412   3.816
35689W        W 8004  34.403  29.471   1.020
35690W        W 8005  38.463  27.630  13.493
35691W        W 8006  19.983  31.677   3.227
35692W        W 8007  13.755   7.374  12.073
35693W        W 8008  12.277  22.678  12.677
35694W        W 8009   3.296  25.428   3.672
35695W        W 8010  13.237  36.044   2.697
35696W        W 8011  29.750  35.408  10.868
35697W        W 8012  42.990  23.365   2.910
35698W        W 8013  22.221   8.625   4.509
35699W        W 8014  18.645  19.613  10.913
35700W        W 8015  19.338  40.431  14.573
35701W        W 8016  15.276   8.365  12.067
35702W        W 8017  15.011  20.254  14.242
35703W        W 8018  27.215  15.348   4.081
35704W        W 8019   9.868  29.041   3.608
35705W        W 8020  17.605   3.924   1.735
35706W        W 8021  20.662   3.177  11.502
35707W        W 8022  32.865  25.396  13.646
35708W        W 8023  42.426  35.574  14.372
35709W        W 8024  43.267  26.299   1.885
35710W        W 8025  33.466   4.224  14.783
35711W        W 8026  27.621  40.530  14.345
35712W        W 8027  27.135   7.008  14.525
35713W        W 8028   5.665  20.231   1.259
35714W        W 8029  13.266  15.776   0.338
35715W        W 8030  21.719  35.827  14.786
35716W        W 8031   2.082  28.999   4.500
35717W        W 8032  13.927   7.656   3.665
35718W        W 8033  22.934  12.485   2.314
35719W        W 8034   1.758   6.177  13.818
35720W        W 8035  39.538  44.928   1.001
35721W        W 8036  35.902  40.702   0.282
35722W        W 8037  23.509  36.932   3.274
35723W        W 8038  34.136   6.333  12.891
35724W        W 8039   4.193  30.844  11.499
35725W        W 8040  13.899   5.430  11.141
35726W        W 8041  31.089  34.563   3.729
35727W        W 8042  33.668  29.846   2.402
35728W        W 8043  23.493  13.205   1.205
35729W        W 8044  23.533  12.079  14.326
35730W        W 8045  26.112  32.130  10.695
35731W        W 8046  31.474  20.504   1.536
35732W        W 8047  12.284  44.639   3.291
35733W        W 8048  17.002  36.398  10.418
35734W        W 8049  32.339  25.603   2.405
35735W        W 8050  38.123  29.911  12.958
35736W        W 8051  11.582  33.137   2.786
35737W        W 8052  22.335  29.080   1.575
35738W        W 8053   0.403  42.158  11.201
35739W        W 8054  28.524  16.751   1.304
35740W        W 8055  12.734  30.362   1.488
35741W        W 8056  40.850   3.057  11.558
35742W        W 8057  10.818  37.793   1.197
35743W        W 8058   4.775  24.215  10.577
35744W        W 8059  43.474  36.466  12.557
35745W        W 8060   3.462  17.223   4.196
35746W        W 8061  38.828  22.107  14.751
35747W        W 8062  14.555  36.078   3.784
35748W        W 8063  18.191  40.594   2.288
35749W        W 8064  16.047  12.954  13.525
35750W        W 8065  40.824  42.699   3.736
35751W        W 8066  44.823  42.479   0.291
35752W        W 8067  20.263  38.435   2.573
35753W        W 8068   3.308  31.469   3.384
35754W        W 8069   8.418   8.468  11.164
35755W        W 8070  21.086  39.942  14.021
35756W        W 8071   8.798  43.356  11.264
35757W        W 8072   2.897  25.122   1.842
35758W        W 8073  41.369   8.838  13.559
35759W        W 8074  12.756  18.793   4.375
35760W        W 8075  10.813   0.189  14.496
35761W        W 8076  11.251   1.536   1.853
35762W        W 8077  31.458  42.000  11.170
35763W        W 8078   5.398  36.453  12.886
35764W        W 8079   5.942  11.277  11.843
35765W        W 8080  29.984  18.177  10.994
35766W        W 8081  40.878  33.036  11.130
35767W        W 8082   4.252  32.983   4.627
35768W        W 8083  42.035   2.130   4.432
35769W        W 8084   8.225  18.045   4.645
35770W        W 8085  15.325  39.911   1.856
35771W        W 8086  21.965  25.423  13.918
35772W        W 8087  20.265  24.438   3.160
35773W        W 8088  25.806  35.531  12.417
35774W        W 8089  35.998  32.917  10.754
35775W        W 8090  28.702  32.069  10.242
35776W        W 8091  16.182  26.913  13.846
35777W        W 8092  40.440  27.982   0.245
35778W        W 8093  21.269  29.068   1.844
35779W        W 8094  18.245  22.708   1.765
35780W        W 8095   6.101  37.441   1.777
35781W        W 8096   0.874   2.194   2.561
35782W        W 8097   3.501  16.598  11.542
35783W        W 8098   7.453  17.623   0.522
35784W        W 8099  38.521  16.851   1.763
35785W        W 8100   1.248  25.539   3.255
35786W        W 8101  36.550  22.620  14.947
35787W        W 8102  43.324   8.689   3.367
35788W        W 8103  34.186  26.213  14.109
35789W        W 8104  21.918  44.278  13.330
35790W        W 8105  39.826  37.293   2.344
35791W        W 8106  28.882  32.770  14.809
35792W        W 8107  36.416  31.711   5.352
35793W        W 8108  24.015   0.761   3.825
35794W        W 8109   1.467  44.301   0.093
35795W        W 8110  25.992  26.169  13.704
35796W        W 8111  24.971  27.642  14.793
35797W        W 8112   8.287  28.489   2.175
35798W        W 8113  12.989  18.267   4.147
35799W        W 8114  29.613  43.819   1.752
35800W        W 8115   5.900   8.183  12.678
35801W        W 8116  27.702   8.752   2.259
35802W        W 8117  33.038  10.904  12.941
35803W        W 8118  16.792  39.006   3.787
35804W        W 8119  11.488  11.558  11.322
35805W        W 8120  14.142  35.383   0.024
35806W        W 8121  16.644   7.416   3.281
35807W        W 8122  36.008  29.904  12.841
35808W        W 8123   8.176  38.617  14.140
35809W        W 8124  37.081   1.441  13.180
35810W        W 8125  34.835  15.727   4.541
35811W        W 8126   1.883  34.275  13.943
35812W        W 8127   6.957  43.909  10.468
35813W        W 8128   9.890  12.880   4.653
35814W        W 8129  22.233  12.238  12.087
35815W        W 8130  34.950   5.570  10.445
35816W        W 8131  37.869  13.079   5.122
35817W        W 8132   7.931  20.000   3.956
35818W        W 8133  23.841  38.630   0.995
35819W        W 8134  15.569  35.907   0.125
35820W        W 8135   3.729  40.803  13.572
35821W        W 8136  38.808  25.752   0.918
35822W        W 8137   0.422  17.486   0.270
35823W        W 8138  42.944  13.398  12.531
35824W        W 8139  17.553  21.224   5.060
35825W        W 8140  28.596   6.775  13.288
35826W        W 8141  12.937   0.390  11.419
35827W        W 8142  11.812  21.520   0.352
35828W        W 8143  16.698  34.193  11.892
35829W        W 8144  33.065  13.145  13.835
35830W        W 8145  21.991  28.569   3.713
35831W        W 8146   7.099  32.775   3.941
35832W        W 8147  43.938  10.027   0.907
35833W        W 8148  14.569   3.267   3.304
35834W        W 8149  24.038  10.868   1.856
35835W        W 8150  21.556  33.715   1.482
35836W        W 8151  39.884  37.320  10.504
35837W        W 8152  13.859  41.493   1.526
35838W        W 8153  35.978  33.530  14.869
35839W        W 8154  18.620  42.605   2.730
35840W        W 8155  10.681  32.457  13.939
35841W        W 8156  17.839   4.256  12.673
35842W        W 8157  23.187  36.481   0.581
35843W        W 8158   7.798  22.509  11.506
35844W        W 8159   6.890  14.777  12.586
35845W        W 8160  20.011  14.853   2.891
35846W        W 8161  14.509  31.571  12.461
35847W        W 8162  39.829  33.408   0.771
35848W        W 8163   3.074  38.478  13.354
35849W        W 8164  38.416  35.028   1.653
35850W        W 8165  23.925  28.770  13.804
35851W        W 8166  36.602  44.708   3.614
35852W        W 8167  37.443  42.185   3.408
35853W        W 8168   3.487  30.944   5.000
35854W        W 8169  39.607  37.568  11.467
35855W        W 8170  31.913  23.051  12.069
35856W        W 8171  27.411  37.248   4.333
35857W        W 8172  25.696  37.651   4.100
35858W        W 8173  18.114  20.442   0.288
35859W        W 8174   9.343  39.783   4.546
35860W        W 8175  17.182  27.290   2.473
35861W        W 8176  36.421  24.941  11.122
35862W        W 8177   9.136  37.968   0.306
35863W        W 8178  26.514  39.969   2.704
35864W        W 8179  31.847  35.664   3.208
35865W        W 8180  18.197  35.994   3.161
35866W        W 8181  43.296  40.090  12.452
35867W        W 8182  15.546  22.737   1.361
35868W        W 8183  17.066  34.338  13.387
35869W        W 8184  25.876  21.535   1.441
35870W        W 8185  20.957  33.396   1.798
35871W        W 8186  22.737  16.435  11.856
35872W        W 8187   2.760  19.102   1.808
35873W        W 8188  39.607  25.899  11.990
35874W        W 8189  30.161  38.907   4.552
35875W        W 8190  39.333  44.964  12.624
35876W        W 8191  42.756   6.881  14.879
35877W        W 8192  37.051  27.625  13.464
35878W        W 8193  23.042  23.181  13.941
35879W        W 8194  21.925   5.389   3.964
35880W        W 8195  32.846  11.576   2.067
35881W        W 8196  30.660   2.733  11.448
35882W        W 8197  38.417  44.570  14.834
35883W        W 8198  25.653  23.522  14.345
35884W        W 8199  12.779  11.661  14.399
35885W        W 8200  22.507  30.272  14.414
35886W        W 8201  27.668  35.432   1.477
35887W        W 8202  33.058   1.458  10.715
35888W        W 8203  31.834  26.524  13.840
35889W        W 8204  28.965  36.095   2.358
35890W        W 8205   1.123   2.927   0.404
35891W        W 8206  35.998  23.002   2.759
35892W        W 8207  15.107  17.025   0.764
35893W        W 8208   2.461  32.120  12.545
35894W        W 8209   9.433   3.776   4.022
35895W        W 8210  40.516   6.645  14.039
35896W        W 8211   6.771   0.694  11.501
35897W        W 8212  43.333   8.944  13.603
35898W        W 8213  20.490  40.003  12.042
35899W        W 8214  30.989  35.936  13.981
35900W        W 8215  20.122  13.596  11.100
35901W        W 8216  10.363  28.550   1.432
35902W        W 8217  33.233  41.967   0.480
35903W        W 8218   6.864   3.881   2.371
35904W        W 8219  39.573  38.873   1.818
35905W        W 8220  32.347  44.786   3.566
35906W        W 8221  34.667  38.521  14.833
35907W        W 8222  40.038  16.200   0.627
35908W        W 8223  41.054  20.143   0.758
35909W        W 8224  44.403   8.795   4.233
35910W        W 8225   3.760  36.840   3.216
35911W        W 8226  24.574  15.667  11.232
35912W        W 8227  30.509  40.613   3.091
35913W        W 8228   8.869   6.873   4.635
35914W        W 8229  23.510  36.510   1.933
35915W        W 8230   5.568  38.042   3.749
35916W        W 8231   1.685  42.303  10.873
35917W        W 8232  21.661  28.056  14.756
35918W        W 8233   8.196  18.645  11.460
35919W        W 8234   6.214  21.595  14.711
35920W        W 8235   2.280   6.847  12.352
35921W        W 8236  28.026  37.957   4.272
35922W        W 8237  29.719  28.588   4.152
35923W        W 8238  38.862  14.719   2.897
35924W        W 8239  38.762  21.265  12.957
35925W        W 8240  28.617  18.954  10.714
35926W        W 8241  36.296  12.813  10.719
35927W        W 8242  14.911  40.019   4.069
35928W        W 8243  43.255   5.719   4.106
35929W        W 8244   6.267  13.292   3.285
35930W        W 8245  13.330   4.212  12.517
35931W        W 8246  26.079  25.597  11.191
35932W        W 8247  40.387   3.239   9.860
35933W        W 8248  28.151  12.588  10.633
35934W        W 8249  36.865   7.182  13.748
35935W        W 8250  21.527   1.211   1.404
35936W        W 8251  17.261  32.977  14.905
35937W        W 8252  32.405   8.723   1.864
35938W        W 8253  31.513  16.983   1.375
35939W        W 8254  35.324   4.439  14.952
35940W        W 8255   2.260  14.088  12.376
35941W        W 8256  12.327  13.885  14.904
35942W        W 8257  36.297  29.483  12.554
35943W        W 8258  37.962  33.030  11.512
35944W        W 8259  36.013   4.394  10.606
35945W        W 8260  42.580  32.167   1.995
35946W        W 8261   9.266  26.196  13.875
35947W        W 8262  31.611  19.973  14.105
35948W        W 8263   3.155  44.387   0.857
35949W        W 8264   4.265  14.114   5.107
35950W        W 8265  25.028  16.827  11.578
35951W        W 8266  10.387   9.134  14.251
35952W        W 8267  39.984  19.712  12.531
35953W        W 8268  28.957   5.446  11.442
35954W        W 8269  23.102  17.383  13.348
35955W        W 8270  27.555  26.193   2.620
35956W        W 8271  17.810   0.996  14.603
35957W        W 8272  30.439  34.060   4.533
35958W        W 8273   2.949  15.871   3.991
35959W        W 8274  36.622   1.429  13.852
35960W        W 8275  22.479  43.868  14.277
35961W        W 8276  20.240   7.984  14.500
35962W        W 8277   6.948  20.043  14.892
35963W        W 8278  19.787  39.422   1.229
35964W        W 8279  30.821  43.433   0.277
35965W        W 8280   2.008  44.277   3.200
35966W        W 8281  38.748  38.415   2.673
35967W        W 8282  25.778  44.970   0.843
35968W        W 8283  29.976   7.342   4.207
35969W        W 8284  44.050  22.254   0.034
35970W        W 8285   2.943  44.602   0.393
35971W        W 8286  10.699   8.958  11.915
35972W        W 8287  31.560  12.862   0.302
35973W        W 8288  21.746  40.028  14.762
35974W        W 8289   9.880  26.989   3.420
35975W        W 8290  17.737  40.849   0.839
35976W        W 8291  21.247  30.050   1.790
35977W        W 8292  43.531  25.083  12.518
35978W        W 8293  39.357   3.023   3.295
35979W        W 8294  30.471  14.245  10.256
35980W        W 8295  30.732  26.168  10.713
35981W        W 8296  40.545  41.972  11.108
35982W        W 8297  17.778  29.567  12.717
35983W        W 8298  13.270   3.226  13.865
35984W        W 8299  18.173  24.982  10.520
35985W        W 8300   6.605  13.224  13.439
35986W        W 8301  37.942  44.234   3.760
35987W        W 8302  21.582   0.820   9.609
35988W        W 8303   0.051  24.117   0.236
35989W        W 8304  32.556  11.425   1.471
35990W        W 8305  33.464   3.056  11.497
35991W        W 8306  22.461   5.893  12.201
35992W        W 8307  26.126  13.249  10.508
35993W        W 8308   0.905  10.798   4.974
35994W        W 8309   1.675  30.964   3.790
35995W        W 8310  27.027  28.634  14.177
35996W        W 8311  13.689   9.769  10.608
35997W        W 8312  34.598  42.930   2.025
35998W        W 8313  39.921  11.982  10.823
35999W        W 8314   5.874  36.409   1.378
36000W        W 8315  27.345  25.551  12.167
36001W        W 8316  18.704  29.644   4.693
36002W        W 8317  26.737  34.233   0.354
36003W        W 8318  19.160   2.020  14.919
36004W        W 8319  14.136   8.606  11.525
36005W        W 8320  22.122  32.008  12.494
36006W        W 8321   5.491   8.326  14.952
36007W        W 8322  40.286  22.795   0.465
36008W        W 8323   7.297  14.479  11.672
36009W        W 8324  36.990  24.262   2.717
36010W        W 8325  22.111  10.424  13.421
36011W        W 8326  23.360  35.434  11.951
36012W        W 8327  43.434  36.971  12.495
36013W        W 8328   1.324  37.386  13.931
36014W        W 8329  22.550   1.360  11.887
36015W        W 8330  17.614  15.223   3.850
36016W        W 8331  20.198  20.798  12.833
36017W        W 8332  19.380   8.573   5.553
36018W        W 8333  32.836  38.753  14.189
36019W        W 8334  33.721  27.435  11.824
36020W        W 8335   6.638  36.454  12.505
36021W        W 8336  30.673  24.777   1.437
36022W        W 8337  21.330  44.495  11.990
36023W        W 8338  44.710  27.012   2.590
36024W        W 8339  34.771  25.216   1.830
36025W        W 8340  14.104   1.434   1.172
36026W        W 8341  10.600  17.966  10.612
36027W        W 8342   4.985  22.627  13.882
36028W        W 8343  24.847  38.513  11.437
36029W        W 8344  19.763  40.120  14.933
36030W        W 8345  21.068   2.285  13.634
36031W        W 8346   0.677  20.356   2.626
36032W        W 8347  23.256  30.165   0.888
36033W        W 8348  25.439  11.146  12.542
36034W        W 8349  13.558   0.164  14.027
36035W        W 8350  33.511  42.481  10.641
36036W        W 8351  37.165  22.903   1.041
36037W        W 8352   2.473  14.081   4.517
36038W        W 8353  13.883  29.174   4.314
36039W        W 8354  18.245  22.496   1.240
36040W        W 8355  18.221  40.852  11.537
36041W        W 8356  38.368   1.528   1.556
36042W        W 8357   2.091  38.487  13.540
36043W        W 8358  14.796  41.854  11.931
36044W        W 8359  21.794  31.485   2.779
36045W        W 8360  20.962  20.049   1.889
36046W        W 8361  31.385   0.892   3.979
36047W        W 8362  41.982  12.704   0.764
36048W        W 8363  34.698  22.287  11.336
36049W        W 8364  25.134  11.159  10.631
36050W        W 8365   6.881   2.726  13.420
36051W        W 8366  11.359  17.200  11.282
36052W        W 8367  11.665   1.642  14.720
36053W        W 8368  25.196  32.176  14.350
36054W        W 8369  10.885  23.491  13.974
36055W        W 8370  30.895  20.193   2.244
36056W        W 8371  17.285  35.491  11.386
36057W        W 8372  22.002   5.238  11.912
36058W        W 8373  40.392   3.855  13.445
36059W        W 8374  29.194  13.283  12.038
36060W        W 8375  21.640  41.543   3.303
36061W        W 8376   8.508  30.364   0.539
36062W        W 8377  14.118  30.440  10.717
36063W        W 8378   9.367  41.714  13.868
36064W        W 8379  39.893   0.347   0.943
36065W        W 8380  21.514  39.717   4.984
36066W        W 8381  26.127  17.138   2.394
36067W        W 8382  12.093  25.949   4.360
36068W        W 8383  39.321   3.353  11.844
36069W        W 8384  28.005  42.846   2.612
36070W        W 8385  10.094  25.454  11.980
36071W        W 8386  35.364   7.204   4.287
36072W        W 8387   3.119   5.005   4.056
36073W        W 8388  14.928   3.700   4.161
36074W        W 8389  13.819  29.066  13.220
36075W        W 8390  23.223  38.823  11.721
36076W        W 8391  42.466  42.364   2.259
36077W        W 8392  39.239   0.778   4.625
36078W        W 8393  24.495  42.769  13.002
36079W        W 8394  16.544  21.220  14.250
36080W        W 8395  10.532  31.422  13.963
36081W        W 8396   9.141   6.538  12.414
36082W        W 8397  21.666  41.562  12.969
36083W        W 8398  44.123  35.026  14.828
36084W        W 8399  42.675   4.793   4.998
36085W        W 8400  14.291   3.582   1.773
36086W        W 8401   1.803   8.925   1.725
36087W        W 8402  30.964  23.746   4.590
36088W        W 8403  28.632  43.747  10.630
36089W        W 8404  33.528  12.621  14.422
36090W        W 8405  23.405   2.459  10.760
36091W        W 8406   3.073  14.514  12.866
36092W        W 8407  32.482   6.947  12.515
36093W        W 8408  44.857  28.740  13.004
36094W        W 8409  34.505  39.491   0.466
36095W        W 8410  22.728   9.918  12.052
36096W        W 8411  10.372   0.752  12.461
36097W        W 8412  32.571  14.277  13.832
36098W        W 8413  34.343   4.918   2.241
36099W        W 8414  42.020  19.096   1.431
36100W        W 8415  13.056   0.527   0.402
36101W        W 8416  30.397  33.526   4.245
36102W        W 8417   6.981  39.989   1.728
36103W        W 8418  27.599  25.934   0.887
36104W        W 8419  11.682  42.017  11.334
36105W        W 8420  10.129   6.802   2.847
36106W        W 8421  32.187  36.561  11.534
36107W        W 8422  13.072   8.388  12.380
36108W        W 8423  20.281  38.515   5.049
36109W        W 8424   5.140  36.029  13.994
36110W        W 8425  17.586   7.781   4.803
36111W        W 8426  20.604  30.166  13.476
36112W        W 8427  37.700  25.951  13.625
36113W        W 8428  32.158   9.404  14.418
36114W        W 8429  14.558   0.749  11.054
36115W        W 8430  39.455  28.517  13.035
36116W        W 8431  37.612  25.824   5.173
36117W        W 8432  10.618  19.552  10.248
36118W        W 8433   5.432   0.777  12.939
36119W        W 8434   8.666  11.258  14.860
36120W        W 8435  27.991  14.004   0.433
36121W        W 8436  43.407  24.561  14.744
36122W        W 8437  25.232  25.008   2.277
36123W        W 8438  15.793  44.519   2.293
36124W        W 8439   4.437  17.570  12.610
36125W        W 8440  15.868  41.378  11.695
36126W        W 8441  23.018  32.029  11.143
36127W        W 8442  24.289  16.311   1.705
36128W        W 8443   1.529  25.632   2.807
36129W        W 8444   3.841  41.755   4.581
36130W        W 8445  40.338  28.022   4.591
36131W        W 8446  21.388   1.477  14.291
36132W        W 8447  20.721  27.143  13.336
36133W        W 8448  19.826  42.852   0.837
36134W        W 8449   6.696  27.121   0.339
36135W        W 8450  40.062  31.132   3.843
36136W        W 8451  16.243  28.202  11.556
36137W        W 8452  17.035  17.612  13.553
36138W        W 8453   3.022  31.968   0.304
36139W        W 8454  41.491  44.777   2.243
36140W        W 8455  42.425  11.879  12.314
36141W        W 8456  28.152  10.764   5.222
36142W        W 8457  20.068   0.712  10.656
36143W        W 8458   0.983  33.959   0.821
36144W        W 8459  25.535  29.027   0.124
36145W        W 8460  30.956  23.584   4.110
36146W        W 8461   4.105  32.054  10.943
36147W        W 8462  10.789   0.018   3.387
36148W        W 8463   2.649  15.047  12.114
36149W        W 8464  39.882  15.183   0.843
36150W        W 8465  20.543  24.887   0.079
36151W        W 8466  33.474  27.053  11.141
36152W        W 8467  13.694   7.173   0.005
36153W        W 8468  33.425  35.935  10.782
36154W        W 8469  17.667  43.228  13.970
36155W        W 8470  17.502  39.512   1.988
36156W        W 8471   0.712  10.131  11.282
36157W        W 8472  30.450  29.713   4.604
36158W        W 8473  20.563  11.298  11.777
36159W        W 8474  13.798  42.406  12.569
36160W        W 8475  24.077   0.796  10.690
36161W        W 8476  18.145  21.579   2.147
36162W        W 8477  42.189  23.474   2.850
36163W        W 8478   5.892  40.366   0.886
36164W        W 8479  20.227  36.974  12.915
36165W        W 8480  39.278  44.286   3.893
36166W        W 8481   5.395  30.518   0.460
36167W        W 8482  32.922  31.424  11.457
36168W        W 8483  29.445  42.434   2.847
36169W        W 8484  33.046  44.682  13.894
36170W        W 8485  36.849  38.475   3.126
36171W        W 8486   0.811  11.252  14.500
36172W        W 8487  26.340  33.489   5.451
36173W        W 8488  44.237  15.865  12.918
36174W        W 8489  32.542  35.092   0.733
36175W        W 8490   4.347  35.452   1.855
36176W        W 8491  24.171  35.620  12.414
36177W        W 8492  39.467  37.052   3.859
36178W        W 8493   0.419  20.660  14.266
36179W        W 8494  23.670  28.567   2.962
36180W        W 8495  41.582  25.394  11.974
36181W        W 8496  29.465   4.491  10.702
36182W        W 8497  44.977  39.903   3.348
36183W        W 8498   8.442  36.826  12.958
36184W        W 8499   7.398  20.748   4.111
36185W        W 8500  40.539  31.066  14.881
36186W        W 8501  11.193  44.862   4.720
36187W        W 8502  41.440   2.950   3.587
36188W        W 8503  39.855  39.400  14.367
36189W        W 8504  24.978  32.171  10.759
36190W        W 8505  38.413   9.640   4.493
36191W        W 8506   7.348   0.443   1.214
36192W        W 8507   4.000   8.898   3.339
36193W        W 8508  11.443   4.654   3.802
36194W        W 8509  20.579   4.029  14.333
36195W        W 8510  14.872  13.889   3.699
36196W        W 8511  38.876  16.157   3.109
36197W        W 8512  24.970  21.192   0.908
36198W        W 8513   2.362   6.443   2.639
36199W        W 8514  12.110  43.339  14.193
36200W        W 8515  24.952  27.269   0.166
36201W        W 8516   8.208   4.816   3.550
36202W        W 8517  13.597  19.260   1.291
36203W        W 8518  18.591  44.400   4.896
36204W        W 8519  18.276   9.466  13.890
36205W        W 8520  25.175  37.765  10.446
36206W        W 8521  39.671  37.984  12.353
36207W        W 8522  28.936  21.378   4.130
36208W        W 8523   3.123   5.956   3.219
36209W        W 8524  11.671  44.052  13.559
36210W        W 8525   6.473  36.888  10.601
36211W        W 8526   5.680  25.230   1.229
36212W        W 8527  21.089  24.178   1.218
36213W        W 8528   1.325  42.987   2.884
36214W        W 8529  25.698  20.966   1.791
36215W        W 8530  35.994  30.640   3.272
36216W        W 8531   3.669  33.062   0.313
36217W        W 8532  29.183  36.474   3.268
36218W        W 8533  42.293  43.697   2.100
36219W        W 8534  28.740  16.692  11.157
36220W        W 8535   2.592  35.159   2.334
36221W        W 8536  21.711  14.316   1.027
36222W        W 8537  22.548  31.906   3.544
36223W        W 8538  14.101   6.287  11.109
36224W        W 8539  30.578  27.674   3.761
36225W        W 8540   3.451   3.364  11.337
36226W        W 8541  13.376   9.383  10.733
36227W        W 8542  14.076   5.458   4.689
36228W        W 8543  17.128  36.592  13.974
36229W        W 8544   2.770  21.163  13.655
36230W        W 8545   3.956   3.551  13.876
36231W        W 8546   0.524  34.620   0.351
36232W        W 8547  19.335  13.714  11.519
36233W        W 8548  16.231   6.716   4.194
36234W        W 8549   6.789  10.674  12.384
36235W        W 8550  35.640  32.964   3.377
36236W        W 8551  41.329   8.435   4.265
36237W        W 8552  42.169  37.582   4.594
36238W        W 8553  17.225  20.139   0.762
36239W        W 8554  16.944  28.151   2.872
36240W        W 8555  13.119  41.893  13.857
36241W        W 8556  29.026  24.871   0.920
36242W        W 8557  27.558  44.999   4.572
36243W        W 8558  20.128  11.966  13.783
36244W        W 8559  14.914  41.351  11.946
36245W        W 8560  30.663   1.908   1.794
36246W        W 8561  32.055   4.789   0.971
36247W        W 8562  29.117  34.840   4.283
36248W        W 8563   7.713   7.607  14.100
36249W        W 8564  27.695  12.440   0.982
36250W        W 8565  17.024  40.624  11.996
36251W        W 8566  36.391   0.011   4.710
36252W        W 8567  25.140  12.823   2.772
36253W        W 8568  19.766  12.224  13.529
36254W        W 8569  11.631  18.100   3.229
36255W        W 8570  10.681  38.986   3.623
36256W        W 8571   5.274  12.209   3.795
36257W        W 8572  43.576  35.935   4.701
36258W        W 8573   3.998  25.620  10.994
36259W        W 8574   6.507  14.334   1.804
36260W        W 8575  29.556  17.749  12.278
36261W        W 8576  17.288  16.228  14.772
36262W        W 8577  18.090  14.147  12.037
36263W        W 8578   4.413  43.315  11.421
36264W        W 8579  35.775  37.981   0.499
36265W        W 8580  31.568  33.232   1.932
36266W        W 8581  11.134  23.108  11.390
36267W        W 8582  39.882   4.299  12.017
36268W        W 8583  13.648  19.323  11.981
36269W        W 8584  26.020  21.090   0.188
36270W        W 8585  33.544  43.931  12.001
36271W        W 8586   0.949  14.242   1.792
36272W        W 8587  26.035  41.798  14.451
36273W        W 8588  43.245  35.986  10.734
36274W        W 8589  26.808  31.023   1.762
36275W        W 8590  17.196  38.916  12.598
36276W        W 8591   7.483   9.198   1.215
36277W        W 8592  23.065  16.540  11.051
36278W        W 8593  27.094  43.405  11.955
36279W        W 8594  39.194  26.200   5.053
36280W        W 8595  37.136  26.452  11.494
36281W        W 8596  24.303  32.758  11.136
36282W        W 8597  11.179  19.702   1.306
36283W        W 8598   7.991  19.051  12.972
36284W        W 8599   4.060  27.941  14.666
36285W        W 8600  18.015  15.651   4.674
36286W        W 8601  44.240   9.739   4.545
36287W        W 8602  36.917   6.422  14.478
36288W        W 8603  28.639   3.384   4.543
36289W        W 8604  38.143   2.231   3.382
36290W        W 8605  13.172  41.319   3.634
36291W        W 8606   7.827  42.861  10.340
36292W        W 8607  34.111  40.376  10.179
36293W        W 8608  13.635  16.195   3.828
36294W        W 8609  40.804  36.728   4.011
36295W        W 8610  36.030   0.226  13.033
36296W        W 8611  13.260  25.987  11.343
36297W        W 8612  18.610   2.519   3.232
36298W        W 8613  22.377  44.343   3.772
36299W        W 8614  16.588  15.828   4.653
36300W        W 8615   0.934   4.246   3.659
36301W        W 8616   1.284  11.022   5.412
36302W        W 8617  24.464  18.456   3.381
36303W        W 8618   0.942  17.619  13.993
36304W        W 8619  41.550  34.588  12.581
36305W        W 8620  32.640  33.863   4.588
36306W        W 8621  17.062  37.183  12.061
36307W        W 8622  39.008  42.811   4.210
36308W        W 8623   5.915   9.365  12.960
36309W        W 8624   2.925  15.679  13.369
36310W        W 8625  29.400  22.068  14.133
36311W        W 8626   9.306  35.827   3.348
36312W        W 8627   6.690  10.132  12.095
36313W        W 8628  15.639   2.972   3.228
36314W        W 8629  35.912  27.098   1.822
36315W        W 8630  17.092  40.857  12.459
36316W        W 8631  18.587  13.104   0.225
36317W        W 8632   3.506  41.535   5.076
36318W        W 8633   8.880  18.258   1.200
36319W        W 8634   4.815  36.863  12.078
36320W        W 8635  38.964  16.251   4.104
36321W        W 8636  16.761   0.684   0.392
36322W        W 8637  24.745  33.394   2.863
36323W        W 8638  11.132  31.124   3.289
36324W        W 8639  10.941  18.785  13.395
36325W        W 8640  42.850  11.354   0.281
36326W        W 8641  30.613  37.557  11.068
36327W        W 8642  41.834  11.838   4.113
36328W        W 8643  44.524   0.839   0.329
36329W        W 8644  28.666  29.706   2.273
36330W        W 8645   1.277  34.500   1.721
36331W        W 8646  15.159   7.296  14.948
36332W        W 8647  17.833  31.530   2.735
36333W        W 8648  43.250  12.106   1.072
36334W        W 8649  38.950  33.463  12.462
36335W        W 8650  44.841   4.292   2.720
36336W        W 8651  31.567   4.379   3.713
36337W        W 8652  31.989  18.548  12.408
36338W        W 8653   7.141  33.533   3.868
36339W        W 8654  23.525  37.897   0.785
36340W        W 8655  37.041  21.066  13.362
36341W        W 8656  34.569  11.274   0.891
36342W        W 8657  18.660   0.056   0.783
36343W        W 8658  26.627  38.778  13.504
36344W        W 8659  16.835  37.855   2.831
36345W        W 8660  41.337  34.630   4.501
36346W        W 8661  42.509  20.998   0.524
36347W        W 8662  19.204  14.213  13.557
36348W        W 8663  30.257  37.501  10.707
36349W        W 8664  22.515  20.808   3.412
36350W        W 8665  34.852  32.597   3.226
36351W        W 8666  25.600  29.645   3.023
36352W        W 8667  41.763  31.636  14.582
36353W        W 8668  36.053  26.597   4.601
36354W        W 8669  27.313  34.510   1.672
36355W        W 8670  44.339  24.056  10.895
36356W        W 8671  38.885  39.630  12.083
36357W        W 8672  17.032  34.460   2.224
36358W        W 8673  23.447  29.572   2.247
36359W        W 8674  41.056  24.632   0.875
36360W        W 8675   6.370  31.911  14.265
36361W        W 8676   1.159  43.865   3.274
36362W        W 8677  18.093  21.550  12.999
36363W        W 8678  19.100  17.305   0.364
36364W        W 8679  39.820  28.396  10.705
36365W        W 8680  44.803  33.595   4.177
36366W        W 8681  10.724  27.879  10.581
36367W        W 8682   4.958   8.641  14.156
36368W        W 8683   6.617  20.328   3.666
36369W        W 8684  22.582  19.225   3.346
36370W        W 8685  16.929  20.309   2.413
36371W        W 8686  25.169  43.083   9.967
36372W        W 8687  25.678  10.341   0.328
36373W        W 8688  21.185  21.343  14.271
36374W        W 8689  36.877  14.857   1.390
36375W        W 8690  16.604  28.083   9.806
36376W        W 8691  34.394  42.580  12.422
36377W        W 8692   6.132  23.904  11.032
36378W        W 8693  26.678  10.745  10.438
36379W        W 8694  12.277  29.969   4.242
36380W        W 8695  42.230  38.362  13.275
36381W        W 8696  10.195  39.992   4.262
36382W        W 8697  24.142  19.086  14.260
36383W        W 8698   5.761  37.353   0.388
36384W        W 8699  22.582  39.156   1.150
36385W        W 8700  32.130  18.088  14.453
36386W        W 8701  16.036  42.592  12.870
36387W        W 8702  37.635  21.539  12.467
36388W        W 8703  36.035  11.069   0.371
36389W        W 8704  35.529   8.890  10.929
36390W        W 8705  42.288   9.657   2.935
36391W        W 8706   5.223   3.916   4.890
36392W        W 8707  36.305  27.111  10.803
36393W        W 8708  30.395  42.900  12.461
36394W        W 8709  15.795  28.424  11.572
36395W        W 8710  22.046  28.527  13.746
36396W        W 8711  38.873  15.396   2.328
36397W        W 8712   7.520   7.458   4.489
36398W        W 8713  34.534  24.621   3.169
36399W        W 8714  43.002  21.660  12.136
36400W        W 8715   5.435   7.819  12.935
36401W        W 8716  20.985  31.568  10.595
36402W        W 8717  18.818   7.873  11.027
36403W        W 8718  23.716  17.471   0.921
36404W        W 8719  28.841  18.809   1.681
36405W        W 8720  17.799  10.563  10.532
36406W        W 8721  14.244   4.848  11.557
36407W        W 8722  18.251   0.360  12.248
36408W        W 8723  43.522  30.712   3.229
36409W        W 8724  40.922  30.477  14.299
36410W        W 8725  28.351  23.181   2.764
36411W        W 8726  14.986   9.853   0.830
36412W        W 8727   3.982   4.376   3.141
36413W        W 8728  30.100  10.731  13.621
36414W        W 8729  28.387  41.125  11.404
36415W        W 8730  28.134  28.918  10.642
36416W        W 8731   2.687   4.181   3.775
36417W        W 8732  26.491  22.589  10.582
36418W        W 8733   5.146  34.859  11.834
36419W        W 8734  14.325  33.525   1.240
36420W        W 8735  37.665  31.162  14.844
36421W        W 8736  38.932  29.389   3.183
36422W        W 8737  37.421  17.892   3.228
36423W        W 8738  36.135   4.753  11.771
36424W        W 8739  20.130  22.483  13.432
36425W        W 8740   4.712  34.943   2.237
36426W        W 8741   9.897  25.257  11.037
36427W        W 8742  35.940   7.263   3.529
36428W        W 8743  41.814  41.900  12.088
36429W        W 8744  26.423  32.954  12.514
36430W        W 8745   4.451  13.425   0.484
36431W        W 8746   5.759  14.107  11.429
36432W        W 8747  43.221  25.473   0.803
36433W        W 8748  15.229  17.620   4.545
36434W        W 8749  26.203   7.733  10.591
36435W        W 8750  13.229  15.879   1.316
36436W        W 8751   8.421   8.767   4.580
36437W        W 8752  18.139  43.189   0.335
36438W        W 8753   5.988   0.455   1.879
36439W        W 8754  32.406  29.453  11.565
36440W        W 8755  15.505  42.337   1.799
36441W        W 8756  18.661   1.860  11.347
36442W        W 8757  35.728  18.089  12.583
36443W        W 8758  30.887  10.756   3.139
36444W        W 8759  20.039   1.300   3.619
36445W        W 8760   3.985  13.620  12.938
36446W        W 8761  13.074  12.854   2.325
36447W        W 8762  40.058   3.923  14.935
36448W        W 8763   6.886  13.543   4.221
36449W        W 8764  39.485  44.866  13.131
36450W        W 8765  27.487   0.391  13.064
36451W        W 8766  41.218  31.843   3.266
36452W        W 8767  17.174   7.817  11.630
36453W        W 8768  39.842   6.770   2.392
36454W        W 8769  27.287  18.155  13.432
36455W        W 8770   3.034  36.113   2.248
36456W        W 8771  10.429  41.747   4.446
36457W        W 8772   1.840  36.609   1.713
36458W        W 8773  44.881  28.720  13.901
36459W        W 8774   1.633  27.698  11.739
36460W        W 8775  23.455  41.436  14.925
36461W        W 8776   6.839   4.393   2.303
36462W        W 8777   3.642  15.739  12.527
36463W        W 8778  36.936   1.854  12.911
36464W        W 8779  20.722  30.395   2.232
36465W        W 8780  34.953  41.986  14.208
36466W        W 8781  30.966   0.357  14.994
36467W        W 8782  13.685   7.880   0.168
36468W        W 8783  16.646  25.465   2.726
36469W        W 8784   2.818  31.234  12.913
36470W        W 8785  28.262  30.667   2.241
36471W        W 8786   4.946  40.451  12.858
36472W        W 8787   9.145  27.961   2.875
36473W        W 8788  44.891  10.571  12.757
36474W        W 8789   7.152   6.439   2.823
36475W        W 8790   7.242  28.909   1.827
36476W        W 8791  12.265  22.176   3.654
36477W        W 8792  23.805  19.535   5.505
36478W        W 8793  21.670  43.775  14.786
36479W        W 8794  15.428  15.191  13.954
36480W        W 8795  21.349  23.708   4.668
36481W        W 8796   3.154  13.672   2.608
36482W        W 8797  23.559  12.052  11.526
36483W        W 8798   6.632  15.259  10.672
36484W        W 8799  43.988  44.494  10.593
36485W        W 8800  21.028  24.098   4.579
36486W        W 8801   0.729  24.203  11.046
36487W        W 8802  17.565  41.214   4.193
36488W        W 8803  22.117   1.796  13.246
36489W        W 8804   0.892   9.238  10.199
36490W        W 8805  21.087  17.484   3.226
36491W        W 8806  16.063  17.303   4.137
36492W        W 8807   0.886  14.866   2.391
36493W        W 8808   7.238   1.223  12.136
36494W        W 8809  10.357  29.355   2.159
36495W        W 8810  18.300  31.655  10.635
36496W        W 8811  32.084  19.102   1.644
36497W        W 8812  37.913  27.023   4.084
36498W        W 8813  42.995   2.656  12.203
36499W        W 8814   3.757  33.655   1.657
36500W        W 8815   5.063  26.309  10.847
36501W        W 8816  15.353   1.704  10.733
36502W        W 8817  27.568   9.886   4.513
36503W        W 8818  44.458   3.768  12.881
36504W        W 8819  11.427  25.781  12.982
36505W        W 8820  15.076   2.420  13.375
36506W        W 8821  11.168  23.022   1.169
36507W        W 8822  16.587  12.170   4.343
36508W        W 8823   1.531  16.677   4.119
36509W        W 8824   0.321  39.870  11.623
36510W        W 8825  26.197  33.888   2.153
36511W        W 8826  24.203  19.561   2.426
36512W        W 8827  44.076  30.525   4.535
36513W        W 8828  17.769   7.772  14.789
36514W        W 8829   9.678   6.337  10.690
36515W        W 8830  28.362   1.733  14.437
36516W        W 8831   3.245  16.423   1.030
36517W        W 8832  44.155   9.638   2.758
36518W        W 8833  25.960   8.306   1.031
36519W        W 8834   3.457  15.730   0.340
36520W        W 8835  26.982  19.819  12.968
36521W        W 8836  35.066  36.149  14.256
36522W        W 8837  14.146  28.681  13.541
36523W        W 8838  24.966  44.270   2.406
36524W        W 8839  19.939  30.480   4.118
36525W        W 8840  44.883   9.685  10.535
36526W        W 8841  21.702  37.251   0.484
36527W        W 8842  35.100  32.030  14.069
36528W        W 8843  22.079  15.769  14.326
36529W        W 8844  35.654  39.510   2.560
36530W        W 8845  15.332   8.336  14.447
36531W        W 8846  11.155   8.381   1.757
36532W        W 8847   2.482  24.898   3.289
36533W        W 8848  44.580   1.733   2.172
36534W        W 8849  18.603  10.239   3.746
36535W        W 8850  33.987  38.369  13.062
36536W        W 8851  42.856   8.628   1.422
36537W        W 8852  42.019  17.124   2.256
36538W        W 8853  21.697  23.179  12.036
36539W        W 8854  19.161  23.263  14.565
36540W        W 8855  36.275   4.450  14.949
36541W        W 8856  16.179  13.851  14.772
36542W        W 8857  34.801  28.127  14.814
36543W        W 8858  43.383  15.732  10.364
36544W        W 8859  37.596  43.679   0.802
36545W        W 8860  19.120  33.897  13.907
36546W        W 8861  17.551  41.819  10.734
36547W        W 8862  17.232  29.007  14.783
36548W        W 8863  35.333  19.074   2.753
36549W        W 8864  26.973  11.360   3.676
36550W        W 8865  29.260  31.903  14.921
36551W        W 8866   8.813  25.068  12.520
36552W        W 8867  37.710  39.501   2.621
36553W        W 8868  28.825  41.578  13.068
36554W        W 8869   2.955   8.850   2.250
36555W        W 8870  29.433  17.733   2.631
36556W        W 8871  20.647  23.990   1.895
36557W        W 8872   3.391   8.866  14.416
36558W        W 8873  23.083  21.761   0.659
36559W        W 8874   0.312  38.955   2.680
36560W        W 8875  15.881   6.998  12.220
36561W        W 8876  24.245  23.896   2.405
36562W        W 8877  22.215  43.084   4.034
36563W        W 8878  10.742  37.144   3.725
36564W        W 8879  37.269  27.111  13.451
36565W        W 8880  41.297   5.814   0.369
36566W        W 8881   1.837   0.553  11.969
36567W        W 8882  11.373   8.207   3.240
36568W        W 8883  10.130   0.453   1.896
36569W        W 8884   4.132  38.080  11.122
36570W        W 8885  14.713  18.023  14.766
36571W        W 8886  21.255  42.819   4.997
36572W        W 8887   6.248  24.677   4.106
36573W        W 8888  26.992  20.119  13.440
36574W        W 8889  25.196   5.271  11.100
36575W        W 8890  40.844  30.936  13.370
36576W        W 8891  19.557  33.332   0.441
36577W        W 8892  40.312  10.163  14.403
36578W        W 8893   6.795  38.883  12.139
36579W        W 8894   2.053  27.153   4.583
36580W        W 8895   6.875  23.086   0.037
36581W        W 8896  44.080  32.247  12.009
36582W        W 8897  21.202  42.509   1.313
36583W        W 8898   3.457  42.447  12.456
36584W        W 8899   6.929  16.066   4.084
36585W        W 8900   7.439   2.406   3.772
36586W        W 8901  15.332  39.239  14.313
36587W        W 8902   2.795  32.897   4.495
36588W        W 8903   4.735  31.745  10.977
36589W        W 8904  33.957   7.687  12.420
36590W        W 8905  33.092  36.894   1.623
36591W        W 8906  22.599  39.333  13.258
36592W        W 8907  12.394   9.329  11.612
36593W        W 8908  21.195  20.219  13.681
36594W        W 8909  44.925  39.471   0.733
36595W        W 8910  44.728  43.569  14.008
36596W        W 8911  43.439  37.403  12.791
36597W        W 8912  15.143  32.111  14.820
36598W        W 8913  24.500  34.039  13.835
36599W        W 8914  15.997  30.498  14.454
36600W        W 8915  30.649  27.492  11.918
36601W        W 8916  39.399  40.729  13.190
36602W        W 8917  24.123  18.672   1.524
36603W        W 8918  12.327  23.329   2.173
36604W        W 8919  42.048  13.628   2.288
36605W        W 8920   5.957  12.675  12.953
36606W        W 8921   9.229  44.809  12.532
36607W        W 8922   6.775   2.080  11.517
36608W        W 8923  36.045  44.333  10.674
36609W        W 8924   0.219  23.631  13.558
36610W        W 8925  26.810  21.202   0.369
36611W        W 8926   9.699  35.524  11.663
36612W        W 8927  21.176  22.751  11.003
36613W        W 8928  36.458  20.759  12.114
36614W        W 8929  13.535  34.954  11.357
36615W        W 8930   0.532  41.972  10.706
36616W        W 8931   8.419  21.680  14.536
36617W        W 8932  34.700   7.455  11.780
36618W        W 8933   1.941   0.589   1.964
36619W        W 8934  28.121  12.760  14.140
36620W        W 8935  42.017  26.058   0.385
36621W        W 8936  16.239   0.489   3.565
36622W        W 8937  30.918  15.311   4.560
36623W        W 8938  30.157  26.953  12.410
36624W        W 8939  41.790  18.964  10.955
36625W        W 8940  18.683  24.223   2.736
36626W        W 8941  30.186  33.564  14.997
36627W        W 8942  32.316  18.393   3.180
36628W        W 8943  21.597  21.153   4.905
36629W        W 8944   7.961  19.090  14.166
36630W        W 8945  36.482  13.694   2.252
36631W        W 8946  20.723   3.800   0.190
36632W        W 8947  24.543  39.019  12.037
36633W        W 8948  16.070  17.588   4.609
36634W        W 8949   7.138  43.911  11.434
36635W        W 8950  26.289   8.714   1.027
36636W        W 8951  35.391  24.062   4.762
36637W        W 8952  14.662  11.095   4.077
36638W        W 8953  38.355  19.766  10.777
36639W        W 8954  27.524  27.473   4.836
36640W        W 8955   1.306  33.561   0.822
36641W        W 8956  34.991  33.990  12.903
36642W        W 8957   9.304  23.215   4.573
36643W        W 8958   5.061   4.409   0.473
36644W        W 8959  43.079  26.897  12.683
36645W        W 8960   4.885  43.858   2.148
36646W        W 8961  17.777  19.235  12.192
36647W        W 8962  41.867  16.151   2.244
36648W        W 8963  23.999  24.997  11.202
36649W        W 8964   0.422  13.574   1.150
36650W        W 8965  37.210   3.984   0.756
36651W        W 8966  23.472  20.552   0.846
36652W        W 8967  40.195   1.499  10.255
36653W        W 8968  13.721   2.958   0.886
36654W        W 8969  35.932  12.147  12.890
36655W        W 8970  11.502   4.220   4.197
36656W        W 8971  28.454  25.949  12.424
36657W        W 8972   1.481  29.998  13.139
36658W        W 8973  25.422  33.871  10.244
36659W        W 8974   3.713  41.394   2.264
36660W        W 8975  35.387   6.817  13.949
36661W        W 8976  27.649  34.177   3.256
36662W        W 8977  26.913  27.875   3.627
36663W        W 8978   5.957  39.424   0.778
36664W        W 8979  21.259  29.867   2.404
36665W        W 8980  14.539  44.986  12.153
36666W        W 8981   1.747   9.753  13.425
36667W        W 8982  29.560  39.646  10.750
36668W        W 8983  35.848  13.703  14.810
36669W        W 8984  22.889  14.568  12.011
36670W        W 8985  43.421   3.186  13.585
36671W        W 8986  17.171  19.563  14.837
36672W        W 8987   6.421  37.931   0.114
36673W        W 8988  13.006  26.997   1.832
36674W        W 8989  30.802  26.995  14.374
36675W        W 8990  33.573  40.004   0.901
36676W        W 8991  16.239  30.179  14.119
36677W        W 8992  16.637  30.955  14.794
36678W        W 8993  33.807   9.894   2.873
36679W        W 8994   9.840   7.566   3.615
36680W        W 8995  43.617   3.509   4.217
36681W        W 8996  23.245  15.675  13.919
36682W        W 8997  24.927  21.952  12.546
36683W        W 8998  15.296   8.617  14.004
36684W        W 8999  39.301  12.857  13.914
36685W        W 9000  36.922  27.971   3.385
36686W        W 9001  36.900  20.139   2.438
36687W        W 9002  31.100   7.820  13.904
36688W        W 9003  30.210   7.425  13.861
36689W        W 9004  19.517  13.535   0.771
36690W        W 9005  20.990  43.922  13.837
36691W        W 9006   4.303   7.434   1.399
36692W        W 9007  11.235  22.757  11.838
36693W        W 9008   4.752  23.865  14.740
36694W        W 9009  20.321  36.154  11.974
36695W        W 9010   5.761  17.765   4.674
36696W        W 9011  10.521  21.668  14.277
36697W        W 9012  19.764  23.219   1.628
36698W        W 9013   5.832  15.639   3.295
36699W        W 9014  40.148  42.273   1.680
36700W        W 9015  18.180  35.916  14.835
36701W        W 9016  33.559  31.697  10.759
36702W        W 9017  20.781   9.602  11.004
36703W        W 9018   1.335  32.125   0.958
36704W        W 9019  34.774   0.530   1.890
36705W        W 9020  20.054  21.524  12.047
36706W        W 9021   2.944  31.308  14.972
36707W        W 9022  37.610  30.624   4.456
36708W        W 9023   4.933  42.423   1.818
36709W        W 9024   3.034  35.000  14.915
36710W        W 9025  22.480  10.630   0.929
36711W        W 9026  22.837  10.894   3.559
36712W        W 9027  30.711  21.685  13.487
36713W        W 9028  32.067  19.654   4.802
36714W        W 9029  40.529   2.295   3.324
36715W        W 9030  44.267  25.323  12.035
36716W        W 9031  34.461  43.004   0.451
36717W        W 9032   3.805   7.166   3.813
36718W        W 9033  11.317  16.857   1.912
36719W        W 9034  29.380   3.855  12.028
36720W        W 9035   7.621  32.140  11.153
36721W        W 9036  40.014  23.988  13.071
36722W        W 9037  37.279  23.738   3.531
36723W        W 9038  42.846  36.243  12.419
36724W        W 9039  35.626   6.724   0.395
36725W        W 9040   2.910  17.651  10.567
36726W        W 9041   9.061  31.379   2.868
36727W        W 9042  29.737  25.177  12.836
36728W        W 9043  11.126   2.991   2.697
36729W        W 9044  31.356   1.301   4.297
36730W        W 9045  30.326   8.238  11.968
36731W        W 9046   8.770  44.222   3.226
36732W        W 9047  44.499  27.237   3.796
36733W        W 9048  28.758   2.763  14.979
36734W        W 9049  32.936  22.473  12.504
36735W        W 9050   0.103  44.244  14.405
36736W        W 9051  34.679  27.629   2.270
36737W        W 9052  31.283   0.913   3.389
36738W        W 9053  32.053  36.634   0.464
36739W        W 9054  15.869  34.705  11.919
36740W        W 9055  22.522  30.993  14.874
36741W        W 9056  15.073  36.543  12.094
36742W        W 9057   5.478  38.367  14.791
36743W        W 9058  35.130  11.459  11.252
36744W        W 9059   1.420  26.504  13.418
36745W        W 9060  16.327  12.581  10.753
36746W        W 9061  25.128  24.419  11.512
36747W        W 9062  23.247   6.028   0.809
36748W        W 9063  33.936  29.053  13.528
36749W        W 9064  15.175   9.398  11.906
36750W        W 9065  41.331   8.284   0.371
36751W        W 9066  36.921  17.329   4.188
36752W        W 9067  13.808  30.924   3.883
36753W        W 9068  23.622  30.633  13.399
36754W        W 9069  26.058  10.362  14.466
36755W        W 9070  35.188  15.558   2.750
36756W        W 9071  23.608   5.861  10.723
36757W        W 9072   3.817  13.803   3.249
36758W        W 9073   0.748  36.620  12.005
36759W        W 9074  11.418  14.328  11.010
36760W        W 9075  24.154  31.234  13.989
36761W        W 9076  42.994  17.570  12.484
36762W        W 9077   0.512   4.704  12.849
36763W        W 9078  20.041  17.106  13.945
36764W        W 9079  21.289   2.093   1.602
36765W        W 9080  31.321  38.354  14.175
36766W        W 9081  37.058  10.432   1.735
36767W        W 9082  13.726  42.232  11.169
36768W        W 9083  39.922  32.556   3.864
36769W        W 9084  32.363  24.104   0.377
36770W        W 9085  21.592   9.811  14.217
36771W        W 9086  20.149   0.445  11.477
36772W        W 9087  27.637  33.274  12.007
36773W        W 9088  44.277  11.696   2.669
36774W        W 9089   9.589  10.800  11.004
36775W        W 9090   3.825  37.089  14.372
36776W        W 9091  13.494  25.551  13.159
36777W        W 9092  31.563   4.380  10.681
36778W        W 9093  14.549  37.666   5.021
36779W        W 9094  14.738  18.552  14.907
36780W        W 9095  39.806   3.909   0.436
36781W        W 9096  30.003  33.287  11.907
36782W        W 9097   4.929  14.100  13.966
36783W        W 9098  20.511   2.717   3.568
36784W        W 9099  42.706  30.446  11.136
36785W        W 9100  12.667  19.797  11.591
36786W        W 9101  30.469   3.917  14.565
36787W        W 9102  40.290  12.872   1.473
36788W        W 9103  26.792  37.924  11.135
36789W        W 9104  24.033   0.438   1.957
36790W        W 9105  44.284  11.318  10.470
36791W        W 9106  36.981   8.194  10.640
36792W        W 9107  38.850  25.501   1.372
36793W        W 9108  18.884   1.419  11.563
36794W        W 9109  42.945  23.575   0.487
36795W        W 9110   3.364  34.765  14.616
36796W        W 9111  41.516  34.647   0.471
36797W        W 9112   3.735  36.087  14.011
36798W        W 9113  11.653  22.122   1.943
36799W        W 9114  12.263  24.419  11.937
36800W        W 9115  30.952  22.001  13.134
36801W        W 9116   0.412  27.419   3.562
36802W        W 9117  14.292   2.376  10.528
36803W        W 9118  18.175  44.262   4.609
36804W        W 9119  24.613  17.085   3.385
36805W        W 9120  40.149  28.107  10.999
36806W        W 9121  34.049  39.821  11.050
36807W        W 9122   7.420  35.107   4.247
36808W        W 9123   7.616  10.498   0.846
36809W        W 9124  21.942  33.173   1.687
36810W        W 9125   1.938  43.053  13.976
36811W        W 9126  11.431  34.998   2.693
36812W        W 9127  22.434  14.659   3.366
36813W        W 9128  36.594  19.022  11.387
36814W        W 9129  28.989  31.431  11.928
36815W        W 9130  19.584  15.115  14.306
36816W        W 9131  36.750  26.684  11.239
36817W        W 9132   3.436  44.391   0.405
36818W        W 9133  41.899  19.545  12.875
36819W        W 9134  27.878  22.419  11.655
36820W        W 9135  30.979  36.333  12.201
36821W        W 9136  37.173  13.097  13.956
36822W        W 9137   1.899  19.528   3.123
36823W        W 9138  33.637  18.189  14.092
36824W        W 9139   9.710  18.084   1.879
36825W        W 9140  32.584  23.612   1.785
36826W        W 9141   5.327   3.737  11.025
36827W        W 9142  20.067  42.126  13.938
36828W        W 9143  33.540  41.324   1.194
36829W        W 9144  32.871  35.380   2.498
36830W        W 9145   1.799  44.785   3.630
36831W        W 9146  34.257   3.360   4.961
36832W        W 9147  42.891  12.533  12.875
36833W        W 9148   2.875  15.099   0.873
36834W        W 9149  43.340  34.302   3.603
36835W        W 9150  23.217   9.498  14.728
36836W        W 9151  34.043  13.644  11.579
36837W        W 9152   5.982  22.430   9.772
36838W        W 9153  25.460  14.282   4.154
36839W        W 9154   1.193  33.979  12.077
36840W        W 9155  23.735   7.711   2.373
36841W        W 9156   0.765  12.740   2.837
36842W        W 9157  42.690  19.774  12.921
36843W        W 9158  31.517  21.707   2.937
36844W        W 9159   7.447  16.141   4.466
36845W        W 9160   0.513  10.154   1.834
36846W        W 9161   4.818  19.382  11.977
36847W        W 9162  22.756  15.367   0.214
36848W        W 9163  17.532   3.996   2.816
36849W        W 9164  43.376  43.150  11.118
36850W        W 9165  32.580  17.272  10.187
36851W        W 9166  10.447  18.687   2.862
36852W        W 9167  20.641   3.367   2.450
36853W        W 9168   3.327  26.961  14.467
36854W        W 9169   0.209   2.072   3.976
36855W        W 9170   1.504  42.404  11.713
36856W        W 9171   6.191  32.368  14.066
36857W        W 9172  20.524   3.368  11.044
36858W        W 9173  19.312  38.211  11.651
36859W        W 9174  13.096  27.143  12.418
36860W        W 9175  41.785  40.843   2.169
36861W        W 9176  34.155  34.449  14.423
36862W        W 9177  15.466  27.335  12.389
36863W        W 9178   7.179  11.921  13.941
36864W        W 9179  24.212  34.837   3.805
36865W        W 9180  27.236  43.790  12.934
36866W        W 9181  36.379  20.801  14.036
36867W        W 9182  10.559  10.155  14.280
36868W        W 9183  36.358  31.607   1.996
36869W        W 9184   5.189  43.847  11.657
36870W        W 9185  28.179  28.047  11.159
36871W        W 9186  15.021  13.552   3.327
36872W        W 9187  25.648  37.656   0.527
36873W        W 9188  24.148  16.539   3.281
36874W        W 9189   0.774  15.221   3.082
36875W        W 9190  37.603  28.577  12.563
36876W        W 9191  15.371  27.204   3.183
36877W        W 9192  38.359  29.969  12.492
36878W        W 9193  17.312   6.368  12.466
36879W        W 9194  15.733  29.306   0.429
36880W        W 9195  18.535  32.510  12.026
36881W        W 9196   6.950  31.879  11.634
36882W        W 9197  23.581  19.573  10.612
36883W        W 9198  16.163  39.588  13.829
36884W        W 9199  11.620   7.694   2.226
36885W        W 9200  16.266  18.191   0.011
36886W        W 9201  39.793   5.128   1.845
36887W        W 9202  14.113  39.289  11.077
36888W        W 9203   6.262  28.400  11.502
36889W        W 9204  23.924  20.258   0.855
36890W        W 9205  35.562  19.827   1.866
36891W        W 9206  25.635  39.579   3.271
36892W        W 9207  15.242   5.702   2.647
36893W        W 9208   8.330  33.393   4.667
36894W        W 9209  40.902  27.160   3.927
36895W        W 9210   3.991  26.661   1.419
36896W        W 9211  38.569  25.191  11.505
36897W        W 9212  21.092  39.530  11.018
36898W        W 9213  35.603  17.108   2.856
36899W        W 9214  25.393  31.379   1.947
36900W        W 9215  32.450  21.646   3.845
36901W        W 9216  21.855  34.111   1.330
36902W        W 9217   4.447  35.840   0.383
36903W        W 9218  25.421   1.720  14.968
36904W        W 9219  35.340   0.755   1.087
36905W        W 9220  32.586  39.598   4.541
36906W        W 9221  19.313  36.498   1.590
36907W        W 9222  17.596  27.684   1.244
36908W        W 9223  33.941  28.244  11.628
36909W        W 9224   7.890   9.404   1.790
36910W        W 9225  26.677  15.474  10.174
36911W        W 9226  23.519  43.448  12.501
36912W        W 9227   4.960  41.542   0.725
36913W        W 9228  35.603  18.530   2.286
36914W        W 9229  16.564  20.048  11.699
36915W        W 9230   6.637   9.265   2.409
36916W        W 9231  10.208   5.734  13.486
36917W        W 9232  19.090  33.347   4.402
36918W        W 9233  28.853  17.353   0.777
36919W        W 9234  17.095  12.407   2.734
36920W        W 9235  36.999   9.565  14.260
36921W        W 9236   7.181  33.076  11.101
36922W        W 9237  23.993  44.354  12.566
36923W        W 9238  40.847  36.096  11.679
36924W        W 9239  18.222  44.848   3.672
36925W        W 9240  24.506  44.809   0.366
36926W        W 9241  13.881   3.878  10.718
36927W        W 9242  16.876  26.521  11.120
36928W        W 9243   7.310   6.667  14.044
36929W        W 9244  24.002  25.970  14.339
36930W        W 9245   9.522  15.834   2.526
36931W        W 9246  36.550  39.177  10.297
36932W        W 9247  35.100   0.905  12.583
36933W        W 9248   6.311   3.973   0.094
36934W        W 9249  29.500   9.820  14.524
36935W        W 9250  26.741  11.157  10.115
36936W        W 9251  37.090  23.984   4.683
36937W        W 9252  23.203  38.843   3.036
36938W        W 9253  30.586  21.793   4.227
36939W        W 9254   1.519  40.608   1.265
36940W        W 9255  41.952  24.253  12.130
36941W        W 9256  12.647  35.090   3.844
36942W        W 9257  42.302  31.078  14.990
36943W        W 9258  26.867   7.597  11.062
36944W        W 9259  36.293  35.645   3.722
36945W        W 9260  30.078  39.069   1.822
36946W        W 9261  28.995  42.260  12.125
36947W        W 9262  18.778   0.991   4.224
36948W        W 9263  32.441  23.313   4.134
36949W        W 9264  29.887  42.558  13.537
36950W        W 9265  27.085  41.953   3.744
36951W        W 9266  18.941  41.541  14.478
36952W        W 9267  22.141  32.731   2.443
36953W        W 9268  23.114   5.658  10.807
36954W        W 9269   8.208   8.443   0.324
36955W        W 9270  25.258  29.156  12.957
36956W        W 9271   0.252  29.789  14.877
36957W        W 9272  36.941  16.168   1.004
36958W        W 9273   8.217  34.079  10.740
36959W        W 9274  41.933  20.209  10.637
36960W        W 9275  21.915  44.589   0.862
36961W        W 9276  43.830  10.148  11.959
36962W        W 9277   7.302  27.617  13.053
36963W        W 9278  21.361  18.691  10.815
36964W        W 9279  20.668  40.434  12.882
36965W        W 9280  36.876  27.047   0.802
36966W        W 9281  34.627   3.284   0.852
36967W        W 9282  27.484   5.518  12.087
36968W        W 9283  42.925  44.660   1.028
36969W        W 9284  29.680  34.596   1.685
36970W        W 9285  39.029  42.789   0.931
36971W        W 9286  18.198   1.941   3.715
36972W        W 9287   2.479  23.999   0.823
36973W        W 9288   8.163  42.423   1.175
36974W        W 9289  28.836  37.391   0.935
36975W        W 9290   0.220   7.923  11.859
36976W        W 9291  14.208  35.560  12.392
36977W        W 9292  14.526  20.678  12.551
36978W        W 9293  23.690  12.311   3.195
36979W        W 9294  20.621   2.305  13.898
36980W        W 9295   5.946  35.748  11.248
36981W        W 9296  34.360  20.670   4.352
36982W        W 9297   1.423   3.637  13.874
36983W        W 9298   5.967  20.036   0.277
36984W        W 9299  28.113  31.412  10.487
36985W        W 9300  38.446   4.645  11.049
36986W        W 9301  23.105   0.956   3.138
36987W        W 9302   5.133  23.994   0.136
36988W        W 9303  31.419  15.265  14.758
36989W        W 9304   4.999  25.553   2.204
36990W        W 9305  24.894  38.637  14.104
36991W        W 9306  25.187  40.963   0.035
36992W        W 9307  15.385  23.558   0.288
36993W        W 9308  16.186   3.896  12.067
36994W        W 9309   5.770   1.693   2.764
36995W        W 9310  12.576  44.498  14.039
36996W        W 9311  28.366  41.692   3.681
36997W        W 9312  41.064  11.716  10.923
36998W        W 9313  37.452  24.637   0.077
36999W        W 9314   6.332  18.551   4.134
37000W        W 9315  41.205  26.132  13.022
37001W        W 9316  20.112  35.112  10.574
37002W        W 9317  11.279  25.900   1.272
37003W        W 9318   2.281   6.398  12.641
37004W        W 9319  28.543  31.153   1.322
37005W        W 9320  19.543  21.138   4.069
37006W        W 9321   5.739  15.546  11.503
37007W        W 9322  39.596  25.109   4.083
37008W        W 9323  29.942  16.611  13.650
37009W        W 9324  10.659   5.690   1.345
37010W        W 9325  10.107  39.954  12.340
37011W        W 9326  39.880  21.040   1.724
37012W        W 9327   6.282  15.564   3.521
37013W        W 9328  26.499   9.231   3.324
37014W        W 9329   3.661  39.729   4.544
37015W        W 9330   6.927  42.077  14.365
37016W        W 9331  42.765  26.990   2.765
37017W        W 9332  32.969  38.370  10.620
37018W        W 9333  27.911  37.362  11.629
37019W        W 9334  40.220   6.364   1.517
37020W        W 9335   8.238   8.212   4.618
37021W        W 9336   5.059  13.150   3.770
37022W        W 9337  10.276  39.557  11.970
37023W        W 9338  22.681   9.290  11.604
37024W        W 9339  22.582  24.456   1.810
37025W        W 9340  29.449  35.308   0.982
37026W        W 9341  15.585   1.285  14.457
37027W        W 9342  12.110   7.742   3.223
37028W        W 9343  28.970  37.023  11.067
37029W        W 9344  25.914  14.040   3.743
37030W        W 9345   8.415  28.997  14.006
37031W        W 9346  28.609  35.647   1.900
37032W        W 9347  19.173   8.442   3.121
37033W        W 9348  23.527  11.112   3.724
37034W        W 9349  13.081  24.675   0.697
37035W        W 9350   8.717  14.571  13.284
37036W        W 9351  33.337   7.787   3.803
37037W        W 9352  43.439  19.610   0.924
37038W        W 9353  41.739  41.289   1.884
37039W        W 9354  37.136  38.451   4.579
37040W        W 9355  43.823   6.967  14.818
37041W        W 9356  25.842   4.678   1.018
37042W        W 9357  19.096  27.989  11.537
37043W        W 9358  28.479  34.134  12.195
37044W        W 9359  10.600  29.496   3.457
37045W        W 9360  14.989  13.434  12.124
37046W        W 9361  36.059   7.664  13.775
37047W        W 9362  37.364  37.525   0.722
37048W        W 9363  31.832  17.719   1.785
37049W        W 9364  24.324  20.952  14.304
37050W        W 9365  42.655  42.307  13.398
37051W        W 9366  29.222  44.945  11.078
37052W        W 9367  16.242  40.752  12.968
37053W        W 9368  13.668   6.921   1.102
37054W        W 9369   2.430  15.893  12.806
37055W        W 9370  19.706  34.505   0.873
37056W        W 9371  22.626  43.263  13.022
37057W        W 9372  22.534   6.367   3.067
37058W        W 9373  16.070  35.905   2.314
37059W        W 9374   3.847  11.308  13.420
37060W        W 9375   2.776  25.555  14.454
37061W        W 9376  18.999  26.452   4.015
37062W        W 9377  33.818  24.954   9.953
37063W        W 9378  22.983  10.312  12.295
37064W        W 9379   1.889   7.719  14.008
37065W        W 9380   3.722  13.643  14.394
37066W        W 9381  43.063  42.328  11.385
37067W        W 9382   5.866  38.175   4.198
37068W        W 9383  22.782  37.178   4.295
37069W        W 9384  40.696  10.896  13.458
37070W        W 9385  15.755  37.478  13.077
37071W        W 9386  44.172  26.128  11.418
37072W        W 9387   6.835  12.656   4.546
37073W        W 9388  20.171  17.231   1.283
37074W        W 9389  34.557  38.986   0.729
37075W        W 9390  24.548   9.009   0.226
37076W        W 9391  13.696  31.832   3.318
37077W        W 9392  19.326  23.983  13.962
37078W        W 9393  42.842  15.410  13.090
37079W        W 9394   0.939  13.053  12.386
37080W        W 9395   5.897   6.643  13.016
37081W        W 9396  11.604  32.150   9.885
37082W        W 9397  38.039   1.937   1.170
37083W        W 9398  15.256  38.033   2.225
37084W        W 9399  19.116   6.160   1.609
37085W        W 9400  24.879  37.913   3.834
37086W        W 9401  12.962  40.283  12.843
37087W        W 9402  44.352  12.273   2.430
37088W        W 9403   8.079  28.335   1.731
37089W        W 9404  24.575   5.720  10.404
37090W        W 9405  12.697  26.176   0.487
37091W        W 9406  16.349  21.298   4.041
37092W        W 9407   9.243  36.318   1.797
37093W        W 9408  26.227  12.802   4.142
37094W        W 9409  21.234  36.437   2.163
37095W        W 9410  15.130  16.178   2.754
37096W        W 9411  26.022  21.163   2.159
37097W        W 9412  37.366  39.136   2.709
37098W        W 9413  21.629  15.608  12.272
37099W        W 9414  36.542  37.773  13.947
37100W        W 9415  42.049  21.699   1.319
37101W        W 9416  30.186  31.469  12.550
37102W        W 9417  23.009  13.254   1.410
37103W        W 9418   2.871  40.847   1.404
37104W        W 9419  31.830  12.194  13.479
37105W        W 9420  29.405  39.963   3.636
37106W        W 9421  34.762  43.156  13.055
37107W        W 9422  17.832  14.703  14.245
37108W        W 9423  18.799  19.298  12.685
37109W        W 9424   7.749  33.904  13.524
37110W        W 9425  36.906  34.404  11.611
37111W        W 9426  10.917  28.505  11.171
37112W        W 9427  29.132  15.304  11.084
37113W        W 9428  31.971  10.927  11.872
37114W        W 9429  36.428   3.450  14.815
37115W        W 9430  12.306  42.387  10.772
37116W        W 9431  25.953  31.327   4.505
37117W        W 9432  21.750  42.019  11.969
37118W        W 9433  28.429  31.915   0.943
37119W        W 9434  27.448  41.470   4.907
37120W        W 9435  20.985  16.649   3.785
37121W        W 9436  43.885  18.390  13.353
37122W        W 9437   8.333  15.323   3.230
37123W        W 9438  42.400  23.755  12.758
37124W        W 9439  25.897   1.267  13.999
37125W        W 9440   8.899  44.540   3.681
37126W        W 9441   4.295  41.046   4.547
37127W        W 9442  32.455   6.318  13.085
37128W        W 9443  39.231  27.204  14.481
37129W        W 9444  43.476  28.626  10.571
37130W        W 9445   5.132  16.877  12.514
37131W        W 9446  33.917  42.338   2.018
37132W        W 9447  18.327  28.648  10.948
37133W        W 9448  35.835  44.963   1.256
37134W        W 9449  34.018  12.532  14.997
37135W        W 9450   9.074  21.471   2.617
37136W        W 9451  25.184   5.951   2.105
37137W        W 9452  34.884  23.572  13.871
37138W        W 9453   1.243   5.419  13.081
37139W        W 9454   7.953  20.810  10.525
37140W        W 9455  18.858  42.393   2.285
37141W        W 9456  14.641  36.590  14.419
37142W        W 9457  42.781  42.371  12.592
37143W        W 9458  27.749   9.431   0.039
37144W        W 9459  10.241   9.596   0.046
37145W        W 9460  33.110  15.545  11.201
37146W        W 9461  11.311  24.792  13.756
37147W        W 9462   2.044   0.868  11.435
37148W        W 9463  29.415  35.964  13.962
37149W        W 9464  13.559  22.728   0.400
37150W        W 9465  39.881  34.730   0.470
37151W        W 9466  11.622  18.236   4.645
37152W        W 9467  44.963  27.133  10.426
37153W        W 9468   3.653   1.280  11.844
37154W        W 9469  28.013  35.562  12.854
37155W        W 9470  44.820   1.477  12.551
37156W        W 9471  44.496  14.145  11.113
37157W        W 9472  15.044  35.841   3.743
37158W        W 9473  38.556   6.856   1.659
37159W        W 9474   6.841   7.344  12.596
37160W        W 9475  37.250  39.887   3.286
37161W        W 9476  11.760   7.351  13.101
37162W        W 9477  23.919  10.792  10.932
37163W        W 9478  22.094   6.258  12.047
37164W        W 9479  36.256   4.370   4.212
37165W        W 9480  35.437   5.752  12.928
37166W        W 9481  21.569  18.189  13.969
37167W        W 9482  40.806   1.585  11.596
37168W        W 9483  36.055   6.779  14.723
37169W        W 9484   7.466  36.009   2.738
37170W        W 9485  44.436   7.223   1.897
37171W        W 9486  17.079  18.160   0.982
37172W        W 9487  26.675   4.131   4.629
37173W        W 9488  20.525  19.034   2.858
37174W        W 9489  10.981   8.120  13.896
37175W        W 9490  29.897  25.742   0.261
37176W        W 9491  14.801  38.326  11.285
37177W        W 9492   6.317  26.958   2.914
37178W        W 9493  43.167  18.116  11.052
37179W        W 9494  42.859   0.865   3.367
37180W        W 9495  17.179  24.663  14.236
37181W        W 9496  13.205  41.084   4.113
37182W        W 9497  19.541  26.010   2.568
37183W        W 9498  44.966  26.660   3.908
37184W        W 9499  40.041  38.619  11.972
37185W        W 9500  38.589  31.893  13.888
37186W        W 9501  23.052  15.294  10.659
37187W        W 9502  18.741   4.273   3.703
37188W        W 9503  26.017   7.214   1.939
37189W        W 9504  20.164  30.256  12.114
37190W        W 9505  43.219   9.604   0.500
37191W        W 9506  15.269  41.865  12.811
37192W        W 9507  23.605  36.837  14.797
37193W        W 9508  10.476  22.615  13.631
37194W        W 9509  29.705  21.300   1.460
37195W        W 9510   4.369  41.998   1.289
37196W        W 9511  22.532   3.693   2.269
37197W        W 9512  43.262  35.772  13.975
37198W        W 9513  23.618  31.483  14.030
37199W        W 9514  44.804  34.966  14.204
37200W        W 9515  12.023  27.686   2.130
37201W        W 9516  20.079   2.497  11.222
37202W        W 9517  40.741  26.220  10.712
37203W        W 9518   5.920  28.199  11.998
37204W        W 9519  26.281  20.967  13.790
37205W        W 9520   5.804  33.870  11.649
37206W        W 9521   6.429  20.489   3.181
37207W        W 9522   6.903  22.094   5.000
37208W        W 9523  43.101  16.812   3.237
37209W        W 9524  37.971   7.399  12.900
37210W        W 9525  10.801  39.872   0.261
37211W        W 9526  40.320   7.128  11.104
37212W        W 9527  34.064  14.156  12.162
37213W        W 9528  39.173   0.256   2.356
37214W        W 9529  25.681  36.855   3.686
37215W        W 9530   7.133  35.727  12.581
37216W        W 9531  32.075  21.209  14.376
37217W        W 9532  42.740   5.813   1.736
37218W        W 9533  43.965  38.840   2.390
37219W        W 9534  22.919  20.512  12.063
37220W        W 9535  20.844  27.582   0.440
37221W        W 9536  14.693  25.720   2.283
37222W        W 9537  39.036  36.536  12.970
37223W        W 9538   8.668  36.453  10.793
37224W        W 9539  32.880  36.088  12.024
37225W        W 9540  28.023  23.722   0.370
37226W        W 9541  34.116   7.860   0.440
37227W        W 9542   6.021  10.297   1.387
37228W        W 9543  24.721  19.672  14.700
37229W        W 9544  32.103   0.437  10.118
37230W        W 9545  26.497   8.722  13.395
37231W        W 9546  41.107  37.387   0.318
37232W        W 9547  42.481  27.473   3.256
37233W        W 9548  31.631  14.550   3.431
37234W        W 9549  44.873  44.886  10.628
37235W        W 9550  32.872  11.235  14.314
37236W        W 9551  27.435  33.057   1.744
37237W        W 9552  31.467  19.772  11.620
37238W        W 9553  26.235   4.104   3.224
37239W        W 9554  44.283  12.381   3.318
37240W        W 9555   9.655  23.549  10.457
37241W        W 9556  30.597   0.036  11.157
37242W        W 9557   2.891   5.006   1.735
37243W        W 9558  37.787   9.233  10.720
37244W        W 9559  41.473   6.341   3.247
37245W        W 9560  39.190   4.123  14.860
37246W        W 9561  27.620  20.508   0.359
37247W        W 9562   1.442  41.935   0.026
37248W        W 9563  38.642  41.789   4.624
37249W        W 9564  27.981  26.194  10.459
37250W        W 9565  40.265  39.613   3.332
37251W        W 9566  15.362   5.296  11.018
37252W        W 9567  40.740   9.831   2.899
37253W        W 9568   4.187   6.399  12.790
37254W        W 9569   1.916  33.548  10.741
37255W        W 9570  21.507  42.770  12.318
37256W        W 9571  39.839  40.258   4.720
37257W        W 9572  29.909  22.005  12.398
37258W        W 9573  29.561  41.829  12.436
37259W        W 9574   2.917  43.598   3.774
37260W        W 9575  17.937   2.204   2.677
37261W        W 9576  17.047   7.239   2.715
37262W        W 9577  30.621  39.529   4.017
37263W        W 9578   0.271  31.904   4.060
37264W        W 9579   5.245  28.685   2.643
37265W        W 9580  15.612  19.417   1.319
37266W        W 9581   2.198   6.249  13.127
37267W        W 9582  13.749   4.927   0.166
37268W        W 9583  32.022  24.302   4.104
37269W        W 9584  22.181  43.879  14.872
37270W        W 9585  34.627  37.962  11.845
37271W        W 9586  18.631  25.024  10.013
37272W        W 9587   4.780   3.193   3.361
37273W        W 9588   1.709  23.574  12.951
37274W        W 9589  28.173  32.640   4.524
37275W        W 9590  40.408  25.564   9.892
37276W        W 9591  26.223   0.854   0.946
37277W        W 9592   6.095  10.843   0.684
37278W        W 9593  16.637   0.036  11.476
37279W        W 9594   8.714  15.663   0.866
37280W        W 9595  22.652   3.883  12.005
37281W        W 9596  39.821  38.509  11.514
37282W        W 9597   9.951  12.854   1.786
37283W        W 9598  31.905  37.116   4.764
37284W        W 9599   0.207  32.562   0.388
37285W        W 9600  36.910  42.630   4.707
37286W        W 9601  38.966  16.385  12.352
37287W        W 9602  25.124  13.884   0.764
37288W        W 9603  31.137   8.767  11.576
37289W        W 9604  23.408  40.840   2.770
37290W        W 9605  32.408   5.480  11.137
37291W        W 9606  36.625  42.530  12.900
37292W        W 9607  33.375  12.758  10.645
37293W        W 9608  28.292  23.074   3.621
37294W        W 9609  33.112   6.664   1.360
37295W        W 9610  38.482   0.700   3.016
37296W        W 9611  37.341  12.547  10.630
37297W        W 9612  25.688  42.371   3.024
37298W        W 9613  35.606  13.719  12.512
37299W        W 9614  11.067  16.249   3.423
37300W        W 9615   0.939   4.729   4.536
37301W        W 9616  24.266  30.006   0.760
37302W        W 9617   3.423  11.503  12.448
37303W        W 9618  19.105  10.182  12.081
37304W        W 9619  24.448  37.424   4.713
37305W        W 9620  27.580  20.705  13.320
37306W        W 9621   4.336   6.868  12.653
37307W        W 9622  40.113   1.039  12.172
37308W        W 9623  39.941  38.299   3.844
37309W        W 9624  44.639  14.100  14.011
37310W        W 9625  31.895  31.122   1.890
37311W        W 9626   4.785  39.495  11.367
37312W        W 9627  12.389  23.181  12.912
37313W        W 9628  39.241  29.232   9.893
37314W        W 9629  14.497   0.262  14.460
37315W        W 9630  28.946   4.874   0.001
37316W        W 9631  13.124  40.070   4.162
37317W        W 9632  11.623  20.584   2.972
37318W        W 9633   7.867   7.415  13.506
37319W        W 9634  14.910  11.456   1.364
37320W        W 9635  36.500  29.532  13.532
37321W        W 9636  29.991  20.695  12.995
37322W        W 9637  24.501  42.384   1.048
37323W        W 9638   4.701   6.418  13.503
37324W        W 9639  15.543  39.706   1.403
37325W        W 9640   6.823  38.033  11.071
37326W        W 9641  13.376   9.177  14.648
37327W        W 9642  22.561  26.495   3.207
37328W        W 9643  25.686  12.933  12.987
37329W        W 9644  42.449  37.886   2.926
37330W        W 9645  32.790  28.854   4.127
37331W        W 9646  20.349  32.678  10.685
37332W        W 9647  37.981  29.343  10.998
37333W        W 9648  18.189   3.787  13.406
37334W        W 9649  18.975  10.973  10.679
37335W        W 9650  16.565   5.333   0.414
37336W        W 9651   2.083  34.258   1.387
37337W        W 9652  22.724  21.267   4.694
37338W        W 9653  10.247  30.666  11.540
37339W        W 9654  22.492  27.523  11.852
37340W        W 9655  12.507  28.075   2.713
37341W        W 9656   7.711  38.305   3.196
37342W        W 9657  18.633  13.074   1.898
37343W        W 9658  42.041  40.899  13.919
37344W        W 9659  35.489  39.566  13.470
37345W        W 9660   2.986  15.260   4.855
37346W        W 9661  26.354  28.932  14.834
37347W        W 9662  42.969   2.923   4.243
37348W        W 9663  24.973   1.191   1.089
37349W        W 9664  38.422  10.445  10.703
37350W        W 9665  35.011  33.830  13.897
37351W        W 9666  14.887  26.084  13.046
37352W        W 9667  43.296  39.335   1.378
37353W        W 9668   0.724  39.088  13.419
37354W        W 9669  44.366  19.772   0.093
37355W        W 9670  20.585  29.211  12.442
37356W        W 9671  11.294  24.596  14.241
37357W        W 9672  43.490  39.424  13.846
37358W        W 9673   7.304  32.594  13.531
37359W        W 9674  12.536  12.868  14.019
37360W        W 9675  24.708  10.080  12.917
37361W        W 9676   6.563  42.074   3.723
37362W        W 9677  16.282  21.273  14.791
37363W        W 9678   8.895  15.285  13.911
37364W        W 9679  43.403  10.117   2.402
37365W        W 9680  43.043   4.985   2.141
37366W        W 9681  14.207  35.386   1.402
37367W        W 9682  36.530  36.710   4.525
37368W        W 9683   3.723  17.336  14.423
37369W        W 9684  24.072   3.338   2.646
37370W        W 9685  44.615  25.735  14.308
37371W        W 9686  31.902  10.281  12.402
37372W        W 9687   4.779  39.506  13.600
37373W        W 9688  21.743   0.773   3.718
37374W        W 9689  20.373   0.267  12.191
37375W        W 9690  22.341  39.940   1.713
37376W        W 9691  22.497  11.641   3.145
37377W        W 9692   5.385  19.805  12.199
37378W        W 9693  28.445  15.079  11.256
37379W        W 9694  44.282  43.096  14.856
37380W        W 9695  32.091  19.236  13.254
37381W        W 9696  23.963   4.313   0.901
37382W        W 9697  26.573  17.375  10.532
37383W        W 9698   3.853  23.000  12.414
37384W        W 9699  11.604  16.597  13.045
37385W        W 9700  25.806  44.278  13.097
37386W        W 9701   0.398  12.062   1.277
37387W        W 9702   9.342  12.839   0.989
37388W        W 9703  29.414  25.394   1.617
37389W        W 9704   1.734  33.997  13.534
37390W        W 9705  40.475  12.972   1.008
37391W        W 9706  13.720  33.793   1.948
37392W        W 9707  44.470  29.209  14.699
37393W        W 9708   7.813   0.332  13.491
37394W        W 9709   5.174   0.007  10.758
37395W        W 9710  13.748  33.611  14.369
37396W        W 9711  27.017   6.690   1.479
37397W        W 9712  21.213  20.308   2.287
37398W        W 9713   4.920  29.443   3.186
37399W        W 9714  38.430   8.817  13.902
37400W        W 9715   8.257  37.848  11.127
37401W        W 9716  29.584  41.556   2.435
37402W        W 9717  19.337  38.376  14.796
37403W        W 9718  43.278  18.236   1.350
37404W        W 9719  27.667  21.705   4.683
37405W        W 9720  42.028  38.831  10.618
37406W        W 9721  18.831   4.991  11.133
37407W        W 9722  34.458  43.693   4.274
37408W        W 9723  29.044  35.538   1.632
37409W        W 9724   9.141  42.538  14.939
37410W        W 9725  26.921  42.853   4.111
37411W        W 9726   9.089  27.181  11.338
37412W        W 9727  35.923  30.485  12.006
37413W        W 9728  39.669   1.129  10.633
37414W        W 9729  29.378   6.806  11.632
37415W        W 9730  24.163  19.152  12.844
37416W        W 9731  23.577  23.324   1.176
37417W        W 9732  29.979  43.612  13.502
37418W        W 9733  38.334  23.971   2.329
37419W        W 9734  33.402   4.617   0.793
37420W        W 9735  11.183  41.430  13.424
37421W        W 9736  22.007  23.174   0.859
37422W        W 9737   3.858  43.182   3.563
37423W        W 9738  16.851   2.424   0.366
37424W        W 9739   0.131  42.823   1.743
37425W        W 9740  17.121   3.651   1.833
37426W        W 9741  33.243  14.959   1.440
37427W        W 9742   8.644  30.973  10.684
37428W        W 9743  21.272  12.413   0.002
37429W        W 9744  13.900  23.669  14.942
37430W        W 9745   5.085  44.832   3.164
37431W        W 9746  40.696  24.328   3.138
37432W        W 9747   1.937  14.197   4.383
37433W        W 9748  16.909  12.403   3.997
37434W        W 9749  26.920  32.985  13.529
37435W        W 9750   6.801  42.425  12.116
37436W        W 9751  26.722  24.559  11.271
37437W        W 9752   6.968  26.305   3.475
37438W        W 9753  36.410   9.220   3.838
37439W        W 9754  13.055  23.544  10.371
37440W        W 9755  10.801   3.980   0.735
37441W        W 9756  28.596  23.978   0.881
37442W        W 9757  22.096  28.597  14.326
37443W        W 9758  37.058   3.213   2.340
37444W        W 9759  23.687  28.876   1.167
37445W        W 9760  18.623  21.805  11.543
37446W        W 9761  43.078  19.301   4.146
37447W        W 9762  15.622  44.963   0.851
37448W        W 9763  36.498  44.862   0.263
37449W        W 9764   9.632   2.827  11.448
37450W        W 9765  21.581  20.725  11.872
37451W        W 9766   0.865  34.341  13.153
37452W        W 9767  38.864   2.864  11.176
37453W        W 9768   4.590  27.129   1.889
37454W        W 9769   6.695  23.747  10.551
37455W        W 9770  12.725  17.777   1.417
37456W        W 9771   0.754   7.835  10.637
37457W        W 9772   8.038  38.094  13.474
37458W        W 9773  29.646  27.387   0.893
37459W        W 9774  12.066  18.051  10.650
37460W        W 9775  43.600  27.140   2.434
37461W        W 9776   8.079  42.894   1.915
37462W        W 9777   0.455   0.133   1.683
37463W        W 9778   9.242  36.328   3.159
37464W        W 9779  10.860  42.282  12.476
37465W        W 9780  13.501  30.506  14.495
37466W        W 9781   5.766  24.966  12.958
37467W        W 9782  42.984  22.752   4.567
37468W        W 9783  14.191   6.116  12.834
37469W        W 9784  22.496  34.472  10.758
37470W        W 9785  11.804  38.264   1.499
37471W        W 9786  23.956  43.273   2.888
37472W        W 9787  42.439  19.082   2.686
37473W        W 9788  22.122  15.243  14.457
37474W        W 9789  41.991  43.625  13.792
37475W        W 9790  16.660  18.169   4.207
37476W        W 9791   2.676  42.954  13.327
37477W        W 9792  13.839   9.442   2.528
37478W        W 9793  20.465  38.946  13.360
37479W        W 9794  11.680   8.907  13.043
37480W        W 9795   9.272  42.215   0.347
37481W        W 9796  14.680  37.561   4.368
37482W        W 9797   7.209  38.811  11.786
37483W        W 9798  44.681  42.457   4.398
37484W        W 9799  23.520  16.773   0.343
37485W        W 9800  40.612  19.733  14.972
37486W        W 9801  16.556  26.671  13.614
37487W        W 9802  35.672  44.306   3.360
37488W        W 9803  35.888  20.967  13.864
37489W        W 9804  29.050  33.234  10.120
37490W        W 9805   4.236  12.107   3.446
37491W        W 9806  17.669  27.761   0.733
37492W        W 9807  34.448  17.658   2.659
37493W        W 9808   5.554  32.138   3.136
37494W        W 9809  35.454  38.726   0.779
37495W        W 9810  39.461  39.824  13.031
37496W        W 9811   5.128   7.953   2.244
37497W        W 9812  15.046   8.994  12.704
37498W        W 9813  15.381   7.179  12.549
37499W        W 9814  29.186  16.871   2.974
37500W        W 9815   3.058  17.696   0.838
37501W        W 9816  17.932  25.312  14.455
37502W        W 9817  16.146  32.810   4.067
37503W        W 9818  20.715  17.873  11.578
37504W        W 9819  23.985  33.121   1.877
37505W        W 9820  41.778   8.126  11.943
37506W        W 9821   8.343  11.201  13.487
37507W        W 9822  23.639  12.165  13.822
37508W        W 9823  29.529   7.261  13.284
37509W        W 9824  28.475  42.463  13.279
37510W        W 9825  37.104  28.048  14.985
37511W        W 9826  33.152  14.545   1.123
37512W        W 9827   8.264  19.770  12.451
37513W        W 9828   9.559   5.254  11.212
37514W        W 9829  12.945   7.794  12.675
37515W        W 9830  16.865   4.829   3.344
37516W        W 9831  24.871  35.069   4.644
37517W        W 9832   1.522  37.567  14.797
37518W        W 9833  16.662  17.006  14.467
37519W        W 9834  10.164  12.068   0.779
37520W        W 9835  32.924   8.201   1.435
37521W        W 9836  27.584  36.807   1.273
37522W        W 9837  27.152  14.095   3.248
37523W        W 9838   3.445  30.664  12.472
37524W        W 9839  41.788   6.980   2.611
37525W        W 9840  43.262  37.992  12.094
37526W        W 9841  15.063  23.125  12.695
37527W        W 9842  34.987  37.560   0.432
37528W        W 9843  22.681   9.679   4.215
37529W        W 9844  25.245   7.193   3.658
37530W        W 9845  29.910  19.193  13.782
37531W        W 9846  16.124  38.017   0.170
37532W        W 9847  24.393   4.713   2.375
37533W        W 9848  24.538  21.046   5.529
37534W        W 9849   5.183  35.342   0.983
37535W        W 9850   3.370   5.601   2.256
37536W        W 9851  28.507  36.441   1.038
37537W        W 9852  22.710  37.312   0.991
37538W        W 9853  28.599  30.878  14.575
37539W        W 9854  35.485  29.332   4.970
37540W        W 9855  35.822  28.917   1.907
37541W        W 9856  40.870  26.461   2.769
37542W        W 9857  41.101   6.402  12.675
37543W        W 9858  24.064  19.158   1.276
37544W        W 9859   1.204  14.080   0.862
37545W        W 9860  17.087  16.401   4.288
37546W        W 9861  38.473   6.755   4.602
37547W        W 9862  11.849  15.674   3.423
37548W        W 9863  19.045  41.458  14.979
37549W        W 9864   1.068   2.958   2.247
37550W        W 9865  16.528  37.329  11.125
37551W        W 9866   9.722  11.593   0.485
37552W        W 9867  22.316  33.467  13.473
37553W        W 9868  38.462  16.256   1.266
37554W        W 9869  12.810  24.547   1.852
37555W        W 9870   9.921  29.925   1.570
37556W        W 9871  37.251  26.694  11.051
37557W        W 9872  10.348  44.538   0.273
37558W        W 9873  23.367  26.636  14.799
37559W        W 9874  19.502  24.582   1.802
37560W        W 9875  19.538  27.046  12.584
37561W        W 9876  17.327  17.814   3.223
37562W        W 9877  26.570  24.485  12.477
37563W        W 9878  44.983   0.908  12.390
37564W        W 9879  26.053  29.173   1.593
37565W        W 9880  10.133  15.813   1.351
37566W        W 9881   9.555  21.733  14.431
37567W        W 9882   3.978  35.221   4.142
37568W        W 9883  35.032  20.240  12.343
37569W        W 9884  10.396  13.325  11.061
37570W        W 9885  17.250  36.430   2.498
37571W        W 9886  26.624  41.512   0.946
37572W        W 9887   0.324   9.321   5.061
37573W        W 9888   8.643  26.476   2.704
37574W        W 9889  25.839  33.389  12.990
37575W        W 9890  34.544   7.656  14.408
37576W        W 9891  17.482  31.689   0.581
37577W        W 9892  40.113  23.126   3.592
37578W        W 9893   6.428  36.392  13.951
37579W        W 9894  38.052   6.727   1.451
37580W        W 9895  42.487  29.336  12.141
37581W        W 9896  10.301  33.441   1.448
37582W        W 9897  39.887   5.708  13.933
37583W        W 9898  31.494  25.664  12.835
37584W        W 9899  17.097  27.654   3.697
37585W        W 9900   9.193  19.540   1.259
37586W        W 9901   0.706  25.588  10.707
37587W        W 9902  18.333  29.511  14.101
37588W        W 9903  34.487   1.388  14.938
37589W        W 9904   0.556  36.968   2.712
37590W        W 9905  23.362  11.784  12.477
37591W        W 9906  15.146  21.862  12.300
37592W        W 9907   4.566   4.837  13.248
37593W        W 9908  25.083   0.009   3.685
37594W        W 9909  17.892   6.268   3.608
37595W        W 9910   2.966  12.403   3.716
37596W        W 9911  43.310   5.842  12.064
37597W        W 9912  29.220  26.114  13.015
37598W        W 9913  36.286  42.728   0.249
37599W        W 9914  41.828  26.215   1.814
37600W        W 9915  40.576  22.840  10.805
37601W        W 9916  37.425   2.927  11.015
37602W        W 9917   0.698  29.376  13.303
37603W        W 9918  36.000   1.249   4.640
37604W        W 9919  28.058  25.657   2.346
37605W        W 9920  23.193  25.249   1.214
37606W        W 9921  42.922  33.615   0.251
37607W        W 9922  32.161  26.131   4.173
37608W        W 9923   6.750   1.946  12.897
37609W        W 9924  35.181  13.720  14.452
37610W        W 9925  10.830  43.998   1.903
37611W        W 9926  10.897  27.938  12.371
37612W        W 9927   1.044   2.781   4.608
37613W        W 9928   3.312  25.156   0.358
37614W        W 9929  17.390  10.979  12.002
37615W        W 9930  23.263  43.439   3.754
37616W        W 9931  41.525  29.587  12.974
37617W        W 9932   3.298  21.952  13.273
37618W        W 9933  13.132  36.958  13.917
37619W        W 9934  33.487   7.888   2.861
37620W        W 9935  15.174  30.144   9.813
37621W        W 9936  10.091  43.823   4.497
37622W        W 9937   2.973  12.033   0.883
37623W        W 9938  41.899   9.825  13.816
37624W        W 9939  40.597  23.156   0.776
37625W        W 9940  43.755  12.395  12.099
37626W        W 9941  40.914  41.520   4.342
37627W        W 9942   7.430  29.012  14.019
37628W        W 9943   7.104   3.741  11.582
37629W        W 9944  17.088   5.928   2.469
37630W        W 9945  44.774   9.735   4.614
37631W        W 9946  12.793  34.603  12.956
37632W        W 9947  37.757   9.253  14.030
37633W        W 9948  19.485  15.205   2.309
37634W        W 9949  10.300  35.224  11.118
37635W        W 9950  41.920   6.769   4.568
37636W        W 9951  36.016  21.999  12.914
37637W        W 9952  24.578  29.955  14.734
37638W        W 9953  24.408  15.288  12.574
37639W        W 9954   2.969   6.814  13.064
37640W        W 9955  25.996  12.575  12.772
37641W        W 9956   7.116  18.309  12.085
37642W        W 9957  12.849  32.388   1.492
37643W        W 9958  40.938  41.707   0.793
37644W        W 9959  28.787  19.809  13.596
37645W        W 9960  10.263   0.202  14.353
37646W        W 9961  22.165  19.683  13.900
37647W        W 9962   0.771  25.999   1.911
37648W        W 9963   3.878  26.035   1.956
37649W        W 9964  39.115   0.887   5.160
37650W        W 9965  11.633  14.842   3.443
37651W        W 9966  17.050  25.995  14.302
37652W        W 9967  14.263  34.661  12.930
37653W        W 9968  33.476  29.611  13.936
37654W        W 9969   8.352  41.923  11.536
37655W        W 9970  33.128  16.846  14.430
37656W        W 9971  21.447  32.664   0.263
37657W        W 9972  22.001  11.258   3.712
37658W        W 9973  11.097   0.662   2.235
37659W        W 9974  28.851   7.826   4.648
37660W        W 9975  31.995  42.321   1.663
37661W        W 9976  18.156  42.509   4.121
37662W        W 9977  43.545  18.236  14.896
37663W        W 9978  37.526   3.380  11.198
37664W        W 9979   8.144  20.828  13.554
37665W        W 9980   6.857  29.198  10.718
37666W        W 9981  23.669  27.259   2.417
37667W        W 9982  30.204   1.298   0.851
37668W        W 9983  33.580  20.133  11.005
37669W        W 9984  34.793  35.016   1.188
37670W        W 9985  43.934  21.044  14.699
37671W        W 9986   6.306  23.728  13.247
37672W        W 9987  28.369  38.968   1.272
37673W        W 9988   5.254  23.426  10.778
37674W        W 9989  36.251  18.232  14.283
37675W        W 9990  26.894  16.790   3.603
37676W        W 9991  15.826  37.341   1.049
37677W        W 9992  10.083  28.668   3.112
37678W        W 9993  13.559  22.043   1.911
37679W        W 9994  23.169  14.799  10.661
37680W        W 9995  44.060  28.545  12.165
37681W        W 9996  22.080   5.928  13.498
37682W        W 9997  27.503  29.121   3.677
37683W        W 9998  35.160  30.783   2.304
37684W        W 9999  22.078  40.937   3.758
37685W        W10000  35.590   2.786   4.008
37686W        W10001  44.225  34.005   4.061
37687W        W10002  37.451  25.131  10.158
37688W        W10003  40.794   5.257   3.906
37689W        W10004  12.174  13.628   0.331
37690W        W10005  40.472  44.473   3.764
37691W        W10006  22.850   2.452  14.617
37692W        W10007  19.633  15.789   0.946
37693W        W10008  27.266  26.293   1.177
37694W        W10009  23.964  35.423  13.883
37695W        W10010  44.870  18.532  12.871
37696W        W10011   7.721  38.302   0.909
37697W        W10012  25.062   2.854  11.165
37698W        W10013  29.631  14.890   3.271
37699W        W10014   8.780  13.733  12.207
37700W        W10015  10.077   5.245   0.303
37701W        W10016  10.842   5.158  13.351
37702W        W10017   6.441  30.239  12.961
37703W        W10018  37.639   9.841  14.279
37704W        W10019  35.031  32.435  14.951
37705W        W10020  35.262   8.187  11.745
37706W        W10021  23.547  31.295  12.570
37707W        W10022   6.801  42.393   3.379
37708W        W10023  14.506  42.714   2.607
37709W        W10024  23.652   3.853  14.918
37710W        W10025  40.579   4.842  10.764
37711W        W10026  32.570  41.091   2.836
37712W        W10027  29.899   0.769   1.328
37713W        W10028  41.990  33.334  14.517
37714W        W10029  43.555   2.156  12.559
37715W        W10030  28.930  33.907  11.942
37716W        W10031  21.444  36.614  14.235
37717W        W10032  30.182  29.007   3.881
37718W        W10033  43.002  43.127   2.831
37719W        W10034  15.108  39.992  10.676
37720W        W10035  42.927  23.695   4.858
37721W        W10036  14.567  31.570  12.985
37722W        W10037  12.635  43.550   4.170
37723W        W10038  28.653  21.259  13.393
37724W        W10039  42.310  24.958  11.044
37725W        W10040   4.318  17.691  13.498
37726W        W10041   9.784  24.720  14.838
37727W        W10042   6.165  29.618   1.447
37728W        W10043  38.287  15.388  12.124
37729W        W10044  44.442  37.265  13.802
37730W        W10045  26.224  38.918  11.493
37731W        W10046  39.163  30.990  13.900
37732W        W10047  41.166  15.871  10.360
37733W        W10048  41.578  26.838   4.216
37734W        W10049  28.121   7.729   3.168
37735W        W10050  34.286   8.720   3.517
37736W        W10051   6.198   5.489  13.543
37737W        W10052  10.274  36.062  10.655
37738W        W10053  23.282  23.089   2.385
37739W        W10054  25.753  30.034  13.122
37740W        W10055   5.186  38.044   4.435
37741W        W10056   6.921  41.951   4.542
37742W        W10057   4.449   2.157   4.326
37743W        W10058   8.843  37.804  10.671
37744W        W10059   5.693  16.515   2.364
37745W        W10060  26.848  21.313   2.149
37746W        W10061  32.392  38.455  11.590
37747W        W10062  17.926   8.170  10.255
37748W        W10063  17.188  38.844  13.507
37749W        W10064  14.008  38.598   3.325
37750W        W10065  36.539   3.715  10.923
37751W        W10066   3.283  24.455   1.164
37752W        W10067  16.133  14.130  12.032
37753W        W10068  38.687  18.350   3.121
37754W        W10069  30.565  13.310  10.667
37755W        W10070   3.304  39.822  12.451
37756W        W10071   3.632   2.613  12.930
37757W        W10072  10.960  29.859  14.817
37758W        W10073  21.221  27.064  12.072
37759W        W10074  15.473  42.530   3.801
37760W        W10075  11.270  21.309   1.872
37761W        W10076   7.639  34.380   4.044
37762W        W10077   5.253  21.148   0.781
37763W        W10078  14.379   0.855   2.671
37764W        W10079  34.547  33.051   1.282
37765W        W10080  12.875  40.816   1.331
37766W        W10081  14.312  21.041   1.304
37767W        W10082  29.732   8.296   2.917
37768W        W10083  43.669  32.795   4.214
37769W        W10084   4.250   6.684  13.533
37770W        W10085  43.013  33.841   0.714
37771W        W10086  18.655  24.199   4.750
37772W        W10087   8.440  27.688   2.812
37773W        W10088  26.627  11.330  11.898
37774W        W10089  16.799   9.882  13.019
37775W        W10090  20.797   0.779   2.813
37776W        W10091  24.231  35.658  11.767
37777W        W10092  24.455  13.824   0.522
37778W        W10093  44.623  15.486  14.304
37779W        W10094  17.423   0.025   0.499
37780W        W10095  26.903   5.505   0.564
37781W        W10096   2.856  26.112   2.853
37782W        W10097  17.225  34.120   0.421
37783W        W10098  17.284   0.322   1.846
37784W        W10099  30.698  21.115   3.442
37785W        W10100  38.988   2.430   1.323
37786W        W10101  19.203  12.627  14.804
37787W        W10102  29.575  22.286  13.148
37788W        W10103   7.738  19.608   3.173
37789W        W10104   7.677   3.606  13.381
37790W        W10105   4.345   1.435   1.240
37791W        W10106  14.605  10.732   0.878
37792W        W10107   7.962   1.924  11.891
37793W        W10108  39.137  37.889   0.907
37794W        W10109  20.315  40.339  12.509
37795W        W10110  17.201  22.536  13.914
37796W        W10111   2.062   2.255   2.801
37797W        W10112  15.039   4.418   3.662
37798W        W10113  33.648  44.409   3.162
37799W        W10114  36.251   9.452  11.385
37800W        W10115  37.016   3.380   1.458
37801W        W10116  31.131  17.565  14.351
37802W        W10117  13.753  43.220   3.726
37803W        W10118  19.134  26.007  10.477
37804W        W10119  36.290   3.814   3.009
37805W        W10120  23.010  29.551  11.130
37806W        W10121   5.984  39.052   3.955
37807W        W10122  14.077  17.847   0.281
37808W        W10123  34.028  33.443  11.477
37809W        W10124  16.712  35.284  13.779
37810W        W10125  18.349  29.874   1.946
37811W        W10126  35.511  43.743  11.952
37812W        W10127  38.849  24.011   3.817
37813W        W10128  17.578  35.462   0.236
37814W        W10129  44.571  30.577   1.912
37815W        W10130  24.668  33.948  11.944
37816W        W10131  12.731  16.143  11.061
37817W        W10132  41.025  30.971  10.656
37818W        W10133  36.859  20.559  13.968
37819W        W10134  26.411  21.978  14.267
37820W        W10135  33.671  35.369   3.375
37821W        W10136  25.101  26.151  13.499
37822W        W10137  36.938   4.779  12.666
37823W        W10138  17.914  44.265  13.117
37824W        W10139  23.591  32.636  10.751
37825W        W10140  39.591  23.520  13.945
37826W        W10141  26.261  13.217   3.338
37827W        W10142  40.616   7.172   1.969
37828W        W10143  13.921   3.787  12.114
37829W        W10144   1.859   8.652   4.912
37830W        W10145  14.497  25.349   1.335
37831W        W10146  31.053  40.875   0.653
37832W        W10147  38.384  16.085  11.115
37833W        W10148  31.688  36.855   1.777
37834W        W10149   9.653  17.086  10.925
37835W        W10150  35.920  29.422   3.952
37836W        W10151  21.174  15.767  11.189
37837W        W10152  40.008  20.989   0.923
37838W        W10153   5.912  40.040   1.756
37839W        W10154  29.130   4.661  12.015
37840W        W10155   5.216  26.625   2.401
37841W        W10156   6.240   1.207   0.833
37842W        W10157  10.961   7.902   0.168
37843W        W10158  13.324  14.526   2.900
37844W        W10159  43.399  12.770  13.481
37845W        W10160  18.034  31.424  11.065
37846W        W10161  36.064  28.884  12.071
37847W        W10162  13.663   0.581   2.855
37848W        W10163  40.161  41.790   2.359
37849W        W10164  34.793  44.417   2.185
37850W        W10165  32.768  32.995  11.359
37851W        W10166   7.674   3.229  14.582
37852W        W10167  41.543  24.703   1.805
37853W        W10168   0.789  39.946   4.091
37854W        W10169  13.131  20.588  10.510
37855W        W10170   6.380  31.559  12.948
37856W        W10171  20.516  36.971   0.671
37857W        W10172  17.016  33.129   3.591
37858W        W10173   1.311  41.061  13.564
37859W        W10174  29.488  25.011   0.695
37860W        W10175  41.079  23.547  12.097
37861W        W10176  23.816  11.568   5.097
37862W        W10177  10.669  31.908  14.757
37863W        W10178  17.309  42.017   4.385
37864W        W10179  40.374  43.537  13.040
37865W        W10180  12.941  23.722  12.131
37866W        W10181  11.836  25.644  12.679
37867W        W10182   1.068   4.410   4.146
37868W        W10183  38.249  35.393  13.919
37869W        W10184  34.800  15.822  14.755
37870W        W10185  27.125  23.508  12.047
37871W        W10186  15.363   8.135   1.230
37872W        W10187  43.457  37.591  10.263
37873W        W10188  26.698  12.150  10.665
37874W        W10189   8.612  22.758   2.784
37875W        W10190  34.954  24.718   1.697
37876W        W10191   1.323  30.629   3.389
37877W        W10192  31.773  21.208  10.447
37878W        W10193  44.869  18.857   3.921
37879W        W10194  18.708  10.296  11.012
37880W        W10195   5.209  36.725   3.227
37881W        W10196  12.406   6.369  11.818
37882W        W10197  11.328  41.875  13.646
37883W        W10198  11.279   5.693  12.890
37884W        W10199  16.792  21.158  13.758
37885W        W10200  14.745  39.090   3.848
37886W        W10201  43.318  24.173  11.784
37887W        W10202  18.333  23.511   4.511
37888W        W10203  25.444  24.110   1.667
37889W        W10204  16.338  15.997   2.064
37890W        W10205  33.166  13.256  10.645
37891W        W10206  37.355  16.138  11.225
37892W        W10207   0.417  32.786  13.052
37893W        W10208  36.323  20.658  11.134
37894W        W10209   2.277   7.918   4.930
37895W        W10210  14.730  11.155  14.488
37896W        W10211  32.392  16.353   4.189
37897W        W10212  13.657  24.285  13.400
37898W        W10213  22.261  19.413   9.776
37899W        W10214  15.337  14.575  12.921
37900W        W10215  26.141  13.643  11.870
37901W        W10216  33.393  33.493  12.936
37902W        W10217   1.441  10.394   0.617
37903W        W10218  41.363   7.874   1.209
37904W        W10219  39.402  37.511  13.898
37905W        W10220  35.960  12.600  11.980
37906W        W10221  28.239  23.564   3.521
37907W        W10222  31.083  13.870   1.671
37908W        W10223  23.553  13.223   4.728
37909W        W10224  16.527   9.180  10.339
37910W        W10225  43.066  28.599  14.880
37911W        W10226  44.911  23.157  12.936
37912W        W10227   7.574   0.778   3.645
37913W        W10228  13.467  14.139   4.808
37914W        W10229  38.314  13.269  10.754
37915W        W10230  39.307  19.007  13.093
37916W        W10231  14.231  11.966  14.265
37917W        W10232  26.065  31.473   3.106
37918W        W10233   0.246   1.776  14.789
37919W        W10234  37.412  16.574  14.536
37920W        W10235  15.630   7.263   0.903
37921W        W10236  43.566  21.636  13.817
37922W        W10237  41.448   6.577   4.311
37923W        W10238  38.562  21.716  14.956
37924W        W10239  28.630  21.713  14.488
37925W        W10240   0.466  38.161  13.366
37926W        W10241   1.737  35.466  13.410
37927W        W10242  15.587  36.130  10.005
37928W        W10243  33.006  23.732  14.985
37929W        W10244  38.465   9.875   2.141
37930W        W10245  14.797  21.977   2.365
37931W        W10246  42.261  17.472  14.579
37932W        W10247  11.570  29.988   2.424
37933W        W10248  21.630  21.620  14.386
37934W        W10249  43.943  20.558  11.151
37935W        W10250   8.229   2.522  10.620
37936W        W10251  33.483  25.630  11.402
37937W        W10252   8.802  10.636  10.768
37938W        W10253  40.300  27.124  11.962
37939W        W10254  26.593  17.314   2.602
37940W        W10255  26.010   3.459   0.992
37941W        W10256  39.777  24.109   0.934
37942W        W10257  44.770  44.225  11.157
37943W        W10258  12.188  43.812   0.529
37944W        W10259  23.701  24.257   1.115
37945W        W10260  27.654  10.676  12.632
37946W        W10261   1.328   3.725   1.160
37947W        W10262   4.973  25.772  10.678
37948W        W10263  28.753  39.878  11.092
37949W        W10264  14.543  17.045   1.968
37950W        W10265  34.838  26.775  10.236
37951W        W10266  43.432  14.396  11.694
37952W        W10267  41.507  41.911   4.711
37953W        W10268  43.073  10.868   1.368
37954W        W10269   9.605   7.421  10.641
37955W        W10270  18.565  33.590  13.865
37956W        W10271  18.002  35.377   0.526
37957W        W10272  44.491  36.513   2.317
37958W        W10273   2.079   0.905  12.502
37959W        W10274  17.644   7.234   4.084
37960W        W10275  42.824  37.517  11.500
37961W        W10276   6.738  42.040   1.822
37962W        W10277  26.069  20.703   4.791
37963W        W10278  19.075  32.406  11.123
37964W        W10279   7.179  30.618  12.535
37965W        W10280  27.979  17.628   1.514
37966W        W10281   3.847  17.605   4.142
37967W        W10282  41.950   1.356   3.222
37968W        W10283  22.042  39.483   1.379
37969W        W10284  28.280  22.004   3.899
37970W        W10285  15.308  30.523  13.884
37971W        W10286  15.057  10.081   3.178
37972W        W10287   8.319  17.280   3.575
37973W        W10288   5.348  24.883  11.580
37974W        W10289  27.596  42.277   0.766
37975W        W10290  25.155  18.525   1.162
37976W        W10291   0.677  29.033  14.401
37977W        W10292  22.059  43.263   3.287
37978W        W10293  29.497  42.838  10.264
37979W        W10294  37.081  43.980  13.505
37980W        W10295   5.092  34.140  14.009
37981W        W10296   8.290  20.329   0.768
37982W        W10297  35.007  37.616   2.260
37983W        W10298  37.433  14.634  12.397
37984W        W10299  15.819  30.075  12.567
37985W        W10300  19.957  44.810  11.108
37986W        W10301   3.302   2.329  11.771
37987W        W10302   8.207   0.545   2.130
37988W        W10303  34.706   6.703   3.708
37989W        W10304  16.183   0.189  11.303
37990W        W10305  14.249  40.795   2.784
37991W        W10306  37.924  12.642   3.748
37992W        W10307  16.732  29.116  14.932
37993W        W10308  41.322  26.966   4.640
37994W        W10309  12.551  31.891   2.364
37995W        W10310  12.608   0.383  11.008
37996W        W10311  28.738  20.583   4.798
37997W        W10312  32.126  22.220   3.004
37998W        W10313  31.587  16.472   1.331
37999W        W10314  10.260  24.970   0.452
38000W        W10315  35.460   0.349   1.377
38001W        W10316  14.862   4.862   1.237
38002W        W10317   1.441  25.543   4.770
38003W        W10318  30.154  39.946   4.617
38004W        W10319  12.474  36.445   3.248
38005W        W10320  12.505  10.907  10.762
38006W        W10321  29.456  10.196  14.885
38007W        W10322  26.708  33.412   1.360
38008W        W10323  36.533  28.621   1.039
38009W        W10324  30.373  28.837   0.350
38010W        W10325   3.714  16.562   2.210
38011W        W10326  34.095   5.608  10.661
38012W        W10327   9.739  16.599  12.062
38013W        W10328  21.855  15.008  12.992
38014W        W10329  35.588  42.041   0.977
38015W        W10330   0.869   5.466   4.032
38016W        W10331  44.644   8.150   3.210
38017W        W10332  15.296  35.505   0.307
38018W        W10333  25.227   0.379   1.159
38019W        W10334   8.257  25.587  13.092
38020W        W10335  38.631   8.817   0.047
38021W        W10336  33.309  43.229  14.673
38022W        W10337  18.152  33.352  12.847
38023W        W10338   5.372   0.970  10.993
38024W        W10339  44.439  13.205  10.547
38025W        W10340  33.046   3.696   1.428
38026W        W10341  29.628  25.963   2.179
38027W        W10342  31.001   0.364   0.525
38028W        W10343  12.058  26.082   2.781
38029W        W10344   0.458  34.668   4.413
38030W        W10345   0.033   3.365   1.214
38031W        W10346   6.973  18.705   2.767
38032W        W10347  44.506  14.151  14.995
38033W        W10348   3.548   6.429  11.037
38034W        W10349  34.363  25.497   2.581
38035W        W10350  44.266  37.534   2.927
38036W        W10351  25.181  13.244   3.108
38037W        W10352  28.615  36.801  14.709
38038W        W10353  15.118  39.147  10.406
38039W        W10354  24.665  22.823   1.684
38040W        W10355   3.408  34.213  11.111
38041W        W10356  23.592  27.015   4.340
38042W        W10357  23.454  19.561  13.076
38043W        W10358  21.455  32.523  10.630
38044W        W10359  39.324  23.191   0.462
38045W        W10360  40.320   9.713  14.690
38046W        W10361  10.348  11.031   2.909
38047W        W10362   3.591  10.290  11.838
38048W        W10363  25.205   4.017  11.619
38049W        W10364  20.794   3.519   2.943
38050W        W10365   4.386  34.076   0.990
38051W        W10366   8.715  21.043   3.394
38052W        W10367   6.179  14.218   5.432
38053W        W10368  23.199  12.944   4.120
38054W        W10369  23.078  13.708  14.487
38055W        W10370  18.111  18.744  10.592
38056W        W10371  43.230  21.760  14.198
38057W        W10372  28.907  22.724  13.571
38058W        W10373  24.070  31.975   1.198
38059W        W10374  22.728   0.796   1.861
38060W        W10375  10.093  36.138  12.928
38061W        W10376  23.286  34.523  12.934
38062W        W10377   4.340  40.784   4.089
38063W        W10378  23.945   3.933   0.347
38064W        W10379  33.840   3.366   2.354
38065W        W10380   8.598   7.783   2.843
38066W        W10381  26.512  13.332   4.555
38067W        W10382   0.550   0.204   3.569
38068W        W10383   2.792  22.689   1.190
38069W        W10384  39.886   8.832  13.034
38070W        W10385  23.652  18.741  12.158
38071W        W10386  14.776   7.920  11.250
38072W        W10387  41.816   1.005   1.230
38073W        W10388  29.982   9.635   0.293
38074W        W10389   5.810  25.703  14.388
38075W        W10390  33.593  44.964  12.459
38076W        W10391  42.433   0.460  14.932
38077W        W10392   8.405  39.064  12.505
38078W        W10393  10.774  29.923   4.880
38079W        W10394  13.152  35.288   1.357
38080W        W10395  14.720  43.301   4.198
38081W        W10396  25.699  37.931  10.404
38082W        W10397  33.798  41.108   4.474
38083W        W10398  30.797  25.587   1.808
38084W        W10399  25.069   3.723  13.051
38085W        W10400  23.981  24.529  13.996
38086W        W10401  40.247  37.282  12.973
38087W        W10402   6.668  27.130   4.139
38088W        W10403  31.370   5.590   4.095
38089W        W10404  35.241  13.585  11.075
38090W        W10405   1.260  29.362   2.279
38091W        W10406   7.852  34.770  10.241
38092W        W10407   7.305  23.747   4.180
38093W        W10408  25.478  33.906   5.278
38094W        W10409  26.575  39.604   3.106
38095W        W10410  10.689   0.338  13.065
38096W        W10411  37.887   0.017  13.971
38097W        W10412  18.172  13.573   3.691
38098W        W10413  19.619  43.045   3.694
38099W        W10414   9.145  32.473   1.314
38100W        W10415  23.411   1.366   3.279
38101W        W10416  26.979  38.569   2.242
38102W        W10417  16.049   4.449  11.237
38103W        W10418   4.260  21.698   0.222
38104W        W10419  39.266  35.522   1.779
38105W        W10420  33.580  32.828  10.792
38106W        W10421  28.315  17.289  10.627
38107W        W10422  40.446  15.236  10.755
38108W        W10423  12.658   8.746   0.858
38109W        W10424  30.289   0.336  13.890
38110W        W10425  26.370   5.301   4.034
38111W        W10426  13.172  43.825   2.647
38112W        W10427   6.261  22.482  10.662
38113W        W10428  40.998  33.870  13.053
38114W        W10429  18.780  15.394  13.105
38115W        W10430  25.741  28.040   0.737
38116W        W10431   8.235  17.273  14.721
38117W        W10432  40.473  26.066   2.787
38118W        W10433  10.767   9.470  11.968
38119W        W10434   2.282  28.021   3.653
38120W        W10435  20.598   9.274  12.828
38121W        W10436  20.641   5.272   3.909
38122W        W10437  40.946  22.509  14.310
38123W        W10438  36.478  32.849   1.523
38124W        W10439   1.889  35.288  11.688
38125W        W10440  18.834  14.037   4.161
38126W        W10441  44.945  34.316   2.842
38127W        W10442   0.778  17.628  14.903
38128W        W10443   2.007  36.044   2.201
38129W        W10444  21.206   8.227   3.119
38130W        W10445  23.541   1.279  14.779
38131W        W10446  29.530  13.532   4.280
38132W        W10447  35.951   7.654   1.949
38133W        W10448  19.565  12.127  11.866
38134W        W10449  40.640  33.654   2.249
38135W        W10450  31.060  38.826   1.459
38136W        W10451   7.149  34.987  11.252
38137W        W10452  20.170  37.156  13.432
38138W        W10453  25.954  41.857   0.470
38139W        W10454  11.070  35.356   2.858
38140W        W10455  18.219  16.118   0.203
38141W        W10456  41.463  38.804  13.935
38142W        W10457  22.954  36.346  11.670
38143W        W10458  30.124  15.170   3.648
38144W        W10459  31.147  19.638   4.549
38145W        W10460  39.074  33.554   2.312
38146W        W10461  39.993  24.148   4.794
38147W        W10462  44.856  42.744  13.701
38148W        W10463  10.980  25.607  12.785
38149W        W10464  25.077  21.629  11.109
38150W        W10465  30.059  15.216  10.867
38151W        W10466  13.153   6.403   0.006
38152W        W10467  33.991  33.627   4.632
38153W        W10468  20.884  42.805  13.852
38154W        W10469  32.569   6.590   4.056
38155W        W10470  43.134  10.924   3.555
38156W        W10471   5.386  25.721   4.397
38157W        W10472  29.918  25.614  12.115
38158W        W10473   3.474  15.711  13.429
38159W        W10474   5.183   4.085   0.898
38160W        W10475  41.498  13.407  12.872
38161W        W10476  25.066  37.597  13.275
38162W        W10477  37.421   3.927  12.387
38163W        W10478  10.248  13.090  13.092
38164W        W10479  26.284  39.894   3.453
38165W        W10480  37.461   2.105   0.269
38166W        W10481  24.075  34.627  11.493
38167W        W10482  13.866  13.862   4.030
38168W        W10483  11.298  18.101  10.314
38169W        W10484  12.544  15.082  11.422
38170W        W10485  23.298   0.771  12.042
38171W        W10486  11.829   6.996  14.064
38172W        W10487  13.715   2.844   2.226
38173W        W10488  41.873  30.264   1.931
38174W        W10489  39.582  18.036   2.848
38175W        W10490  22.039  15.383  11.105
38176W        W10491  30.590  35.887  14.908
38177W        W10492  27.619  30.874  11.030
38178W        W10493  43.510  43.415  10.640
38179W        W10494  18.303  11.754  13.957
38180W        W10495  20.254  22.228  13.872
38181W        W10496  15.261  40.439  13.017
38182W        W10497  14.026  14.598   2.491
38183W        W10498  18.740   1.266   5.140
38184W        W10499  21.916  25.388  11.156
38185W        W10500  31.955  23.466   4.529
38186W        W10501  37.037   8.591  14.574
38187W        W10502  40.755  41.143   3.332
38188W        W10503  13.889   8.498   4.053
38189W        W10504  37.919   3.764  13.703
38190W        W10505  32.379  38.010   3.277
38191W        W10506   4.215  38.522  13.782
38192W        W10507  32.004  31.299   4.344
38193W        W10508  25.734   8.827   3.217
38194W        W10509  44.910  16.723   4.591
38195W        W10510  12.217  11.941   2.745
38196W        W10511  39.837  36.350  12.531
38197W        W10512  25.076  31.394  12.530
38198W        W10513  37.332  24.129  14.356
38199W        W10514  43.846   2.441   2.206
38200W        W10515  33.169  10.335  14.393
38201W        W10516   4.627  34.324  10.318
38202W        W10517  25.389  43.088   0.386
38203W        W10518  35.167  17.201   2.589
38204W        W10519   7.412  31.318  13.788
38205W        W10520  31.196  18.073  14.249
38206W        W10521  28.881  43.024  13.887
38207W        W10522  28.941  28.616  12.028
38208W        W10523  11.392   7.316   2.499
38209W        W10524  12.644   2.407  14.727
38210W        W10525   9.183  14.197  14.319
38211W        W10526   3.802  29.340  12.607
38212W        W10527  15.841   2.232   1.723
38213W        W10528  24.594  12.673   0.920
38214W        W10529   4.402  27.021   1.371
38215W        W10530  14.059  21.158  14.445
38216W        W10531  34.607  28.774  14.388
38217W        W10532  38.428  27.185   0.398
38218W        W10533  11.310  33.036   0.445
38219W        W10534  41.942  42.271  13.002
38220W        W10535  42.684  18.643   0.120
38221W        W10536   7.262  26.770   4.244
38222W        W10537  13.028  41.352  12.215
38223W        W10538  34.364   7.412   0.326
38224W        W10539   4.431  36.483  14.943
38225W        W10540  38.013  19.105   3.888
38226W        W10541   5.346   4.361  13.593
38227W        W10542  41.620  38.018  11.925
38228W        W10543  38.561  36.702  10.989
38229W        W10544  44.410  13.351  11.480
38230W        W10545   0.232   6.254   2.868
38231W        W10546   6.126   7.200   1.872
38232W        W10547  27.106   7.175  10.418
38233W        W10548   2.343  33.509  14.249
38234W        W10549   8.107  35.321  11.069
38235W        W10550  18.491  27.961  12.336
38236W        W10551  39.088  38.904   1.994
38237W        W10552  25.515  11.301   4.636
38238W        W10553  24.756   5.447  11.320
38239W        W10554  20.228  27.212  11.151
38240W        W10555  22.132  17.853  13.397
38241W        W10556  20.162  41.600   4.507
38242W        W10557  10.739  13.108  11.866
38243W        W10558   6.209   8.332   4.629
38244W        W10559  29.561  22.396   2.742
38245W        W10560   8.504   1.913  11.992
38246W        W10561  34.393   2.926   2.914
38247W        W10562  18.716  22.055  14.995
38248W        W10563  17.241  38.275  11.606
38249W        W10564   7.797  15.614  14.395
38250W        W10565   1.336  20.994  14.369
38251W        W10566  29.422  34.181  10.290
38252W        W10567   9.260   4.656   4.582
38253W        W10568   8.646  21.008   2.453
38254W        W10569  24.571  35.131  13.365
38255W        W10570  44.281   8.824   4.719
38256W        W10571  34.799  37.095   3.086
38257W        W10572  14.402   9.840  14.469
38258W        W10573  42.959  35.224  13.274
38259W        W10574  16.358   1.850   2.599
38260W        W10575  22.589   8.404   1.185
38261W        W10576  21.032  44.181  10.795
38262W        W10577  33.980  23.948  11.392
38263W        W10578   6.695  37.090  13.448
38264W        W10579  25.289  31.032  12.905
38265W        W10580  18.651  36.630  14.908
38266W        W10581   0.846   4.194   4.561
38267W        W10582  19.722  34.901   2.269
38268W        W10583  13.047  41.823  11.505
38269W        W10584  42.561  28.574  12.213
38270W        W10585  14.603  44.918   1.767
38271W        W10586  21.420  20.048   0.556
38272W        W10587  21.155  22.157   4.272
38273W        W10588  28.789  33.501   9.769
38274W        W10589  27.547  35.464  10.681
38275W        W10590  26.249  38.427   1.438
38276W        W10591  39.440   7.482   0.993
38277W        W10592  13.464  42.817   3.155
38278W        W10593  16.619  32.107  14.009
38279W        W10594  23.797  42.192   0.270
38280W        W10595  22.112  31.910   0.070
38281W        W10596  34.478   7.143  12.973
38282W        W10597  27.626   6.470  12.398
38283W        W10598  11.883  34.603  13.829
38284W        W10599  16.755  28.131  13.027
38285W        W10600  18.119  38.504   4.732
38286W        W10601  16.590  20.043   3.633
38287W        W10602   1.075  11.685   2.428
38288W        W10603  15.265  33.163   3.919
38289W        W10604  29.419   9.464   4.565
38290W        W10605  11.132  31.995  14.034
38291W        W10606   1.937  39.640  13.958
38292W        W10607  27.228  29.520   4.529
38293W        W10608  20.455  32.003   2.891
38294W        W10609  15.659  10.314   4.942
38295W        W10610  14.602  16.566  14.283
38296W        W10611  44.460  28.764   3.834
38297W        W10612   2.444  28.438   1.856
38298W        W10613  21.247  13.645   4.721
38299W        W10614   4.327  34.970  11.573
38300W        W10615  29.878  12.210   1.339
38301W        W10616  35.952  24.002   1.263
38302W        W10617  25.434  17.580   0.280
38303W        W10618  33.931  18.196   4.141
38304W        W10619  35.809  14.620  12.486
38305W        W10620  37.715  42.747   0.446
38306W        W10621  22.122  31.688  13.924
38307W        W10622   2.434  38.734   1.901
38308W        W10623  40.392  36.083   2.188
38309W        W10624  17.474  25.518   4.015
38310W        W10625   3.395  39.444  14.504
38311W        W10626  18.200   5.273  14.776
38312W        W10627  16.427  21.545   3.066
38313W        W10628  29.621  16.337   2.358
38314W        W10629  16.705  40.641   4.053
38315W        W10630   2.664  36.386  14.347
38316W        W10631   3.224  28.255   3.681
38317W        W10632  27.132  39.425   3.335
38318W        W10633  19.698  37.987  12.473
38319W        W10634   7.842  21.102  11.015
38320W        W10635  36.047  22.260  13.754
38321W        W10636  24.216  39.215   0.463
38322W        W10637  41.561  30.546   3.198
38323W        W10638  34.106  24.739   1.322
38324W        W10639  29.106  28.094  13.678
38325W        W10640   8.318  39.810   0.353
38326W        W10641   7.666  15.567  13.495
38327W        W10642  30.461  39.650   0.414
38328W        W10643  11.393  21.764  12.230
38329W        W10644  35.352  32.501   3.115
38330W        W10645  24.572  16.342   0.703
38331W        W10646  29.584   2.277  11.583
38332W        W10647   2.639   5.202   4.132
38333W        W10648  11.707  36.478   0.941
38334W        W10649   6.475  17.586   4.164
38335W        W10650  38.138   3.493  12.870
38336W        W10651   2.245  42.901   0.822
38337W        W10652  27.098  14.753   2.204
38338W        W10653  25.098   3.386  14.345
38339W        W10654  36.596   8.676  13.938
38340W        W10655  25.477  31.059   2.820
38341W        W10656   3.557  12.582   4.176
38342W        W10657  44.435  20.736  12.495
38343W        W10658  16.739  27.004  14.474
38344W        W10659  33.405  32.514  11.213
38345W        W10660  27.991  34.928  10.569
38346W        W10661   5.936   3.821  14.216
38347W        W10662  36.810  23.014   3.659
38348W        W10663   1.872  16.558   3.616
38349W        W10664  16.685  11.327   3.330
38350W        W10665  33.857  26.435   0.417
38351W        W10666  10.115  32.972   2.659
38352W        W10667  25.735  24.017   0.211
38353W        W10668  12.906   6.247   0.439
38354W        W10669  31.563  10.223  11.118
38355W        W10670  28.697   0.843  11.993
38356W        W10671  18.794  16.079  11.229
38357W        W10672  11.131  23.523   2.580
38358W        W10673  29.070   8.217   1.823
38359W        W10674  12.799  12.681  14.449
38360W        W10675  11.818  20.773   4.383
38361W        W10676  14.911   6.938   0.512
38362W        W10677  21.149   6.313   2.652
38363W        W10678  42.771  33.360   0.698
38364W        W10679   3.473  32.926   1.376
38365W        W10680   5.706   0.352   2.324
38366W        W10681  23.462   3.248   3.260
38367W        W10682  29.405  34.375   4.988
38368W        W10683   0.216  23.135  13.383
38369W        W10684   0.444  18.623  10.804
38370W        W10685  42.598  21.561  11.848
38371W        W10686   6.162  33.415  11.166
38372W        W10687   2.034   5.262  14.997
38373W        W10688  33.514  10.741  13.950
38374W        W10689   1.575  12.272   0.840
38375W        W10690  34.391  18.556   1.876
38376W        W10691  17.263   8.172   1.592
38377W        W10692  27.182  33.902   0.892
38378W        W10693   1.947  13.516  14.864
38379W        W10694   3.704  19.020  10.914
38380W        W10695  27.485  20.994  14.898
38381W        W10696   3.487   8.006   3.286
38382W        W10697  11.587  18.464   0.326
38383W        W10698  14.779   1.440  14.984
38384W        W10699   8.944  18.573   4.186
38385W        W10700  18.565   2.269  10.729
38386W        W10701  40.482  40.326   1.270
38387W        W10702  13.690  43.044  10.551
38388W        W10703   3.126  32.426  12.117
38389W        W10704  31.529  13.397   0.241
38390W        W10705  38.984  10.650  14.086
38391W        W10706   0.414  38.275   3.225
38392W        W10707   1.332  12.711  12.375
38393W        W10708  38.527   1.052   1.718
38394W        W10709   8.022  27.125  14.863
38395W        W10710  25.568  34.991  14.527
38396W        W10711  14.562  37.769  13.865
38397W        W10712  23.099   8.891   4.218
38398W        W10713  13.424  30.905   2.160
38399W        W10714  33.642  13.654  14.296
38400W        W10715  25.677  24.608  11.148
38401W        W10716  43.620  13.059  13.100
38402W        W10717  13.661  24.012   4.191
38403W        W10718  36.461  32.209   0.840
38404W        W10719  24.690  10.636   1.350
38405W        W10720  37.945  40.812   1.091
38406W        W10721  13.119  38.069  10.726
38407W        W10722  39.482   5.061  12.938
38408W        W10723  16.565  17.573   3.686
38409W        W10724  37.021  16.932   0.762
38410W        W10725  41.579  21.282  12.704
38411W        W10726  32.424  16.132   3.723
38412W        W10727   1.294  18.688   1.765
38413W        W10728  25.400   4.928  11.463
38414W        W10729  18.678  26.214   2.497
38415W        W10730  18.747   6.173   1.252
38416W        W10731  39.589  35.202  13.965
38417W        W10732  14.258  15.179   1.873
38418W        W10733   2.737   2.760  11.498
38419W        W10734  10.070  26.567  12.608
38420W        W10735  43.364  29.039  12.910
38421W        W10736  37.736  10.876  14.342
38422W        W10737   5.850   9.839   3.930
38423W        W10738  35.902  31.680  12.560
38424W        W10739   7.312  10.407  12.861
38425W        W10740  12.849  42.306  10.641
38426W        W10741  10.572  31.002  13.164
38427W        W10742  24.046   5.410   0.177
38428W        W10743  14.864  36.514  14.938
38429W        W10744   5.927  33.606  14.991
38430W        W10745  39.847  17.620   2.974
38431W        W10746   5.180  10.286   1.938
38432W        W10747  25.192   9.406  11.565
38433W        W10748   0.637  38.316  12.345
38434W        W10749  24.739   9.313   2.743
38435W        W10750   3.802  39.758  11.637
38436W        W10751  17.771  40.381   1.114
38437W        W10752  25.993  28.558   4.579
38438W        W10753  17.237  28.036   0.707
38439W        W10754  18.223  14.664   4.461
38440W        W10755  21.360  12.433   1.479
38441W        W10756  31.459  28.680   2.809
38442W        W10757   4.543  10.344   3.294
38443W        W10758  44.427   9.669  12.123
38444W        W10759   2.575   6.761  11.407
38445W        W10760  13.720  24.439  14.418
38446W        W10761  37.989  42.901   1.898
38447W        W10762  25.158  32.852   4.319
38448W        W10763  25.197  44.297   4.614
38449W        W10764  10.366   9.923  13.586
38450W        W10765  29.897  32.534   1.401
38451W        W10766   8.152  17.863  11.130
38452W        W10767  21.165  41.659   2.248
38453W        W10768  15.788  11.600  11.547
38454W        W10769  27.439   0.822  12.805
38455W        W10770  33.921  43.859   4.632
38456W        W10771  28.442   0.187   4.436
38457W        W10772   0.668  22.361   2.192
38458W        W10773  27.472  19.642  14.836
38459W        W10774  24.274  28.411  10.397
38460W        W10775  30.779  17.489  13.469
38461W        W10776  38.287  30.549  14.756
38462W        W10777  27.719   8.211  14.491
38463W        W10778  17.129   3.404   4.558
38464W        W10779  34.427  22.620  14.271
38465W        W10780  14.777  29.612   5.212
38466W        W10781  31.496  23.887  10.764
38467W        W10782   7.633  30.356  12.442
38468W        W10783  15.389   3.104   2.747
38469W        W10784   1.182  36.633  11.499
38470W        W10785  38.021  37.375  12.724
38471W        W10786  44.530  20.070  13.916
38472W        W10787   2.237  28.884  12.112
38473W        W10788   0.822   5.419  12.799
38474W        W10789  29.030  14.703   3.152
38475W        W10790  30.242  28.188  11.331
38476W        W10791  16.282  11.080   3.134
38477W        W10792   3.418  10.240  14.886
38478W        W10793  29.312  33.894   2.338
38479W        W10794  14.297  13.615   3.886
38480W        W10795  35.088  12.365   2.427
38481W        W10796  30.097  27.022   4.921
38482W        W10797   3.299  21.413   1.749
38483W        W10798  16.133  25.128   2.652
38484W        W10799  32.456  32.983  14.905
38485W        W10800  33.045   3.675  11.474
38486W        W10801   4.835  40.863   4.559
38487W        W10802  30.766  28.873  14.337
38488W        W10803   3.711  40.243   4.619
38489W        W10804   2.614  16.685  11.492
38490W        W10805   9.906   9.112  13.067
38491W        W10806  36.258   8.920   3.263
38492W        W10807  25.468  30.354  14.451
38493W        W10808  21.977  40.958   1.302
38494W        W10809  21.536  25.687  13.935
38495W        W10810  34.837   9.375  12.033
38496W        W10811  19.757  17.515   4.216
38497W        W10812  25.884  37.771   1.918
38498W        W10813  32.428  18.873   3.331
38499W        W10814   1.818  41.573   0.011
38500W        W10815  24.038  22.025  10.034
38501W        W10816   8.412  14.940  11.624
38502W        W10817  34.652  13.443  12.917
38503W        W10818  30.626  40.815   1.932
38504W        W10819  18.728  41.036   3.518
38505W        W10820  21.237  32.050   2.256
38506W        W10821  34.519  41.285   0.356
38507W        W10822   2.377  38.883  14.853
38508W        W10823  17.700  14.724  13.362
38509W        W10824  25.110  39.442  12.794
38510W        W10825   7.365   0.140   2.726
38511W        W10826  28.012  12.695   0.671
38512W        W10827  28.046   8.986  14.616
38513W        W10828  44.748  11.713  13.821
38514W        W10829   1.730   6.303   4.708
38515W        W10830  10.817  13.689   4.847
38516W        W10831  33.606  31.122  14.870
38517W        W10832  28.045   3.152  10.662
38518W        W10833  12.433   8.571   3.736
38519W        W10834  28.430  33.317   4.976
38520W        W10835  44.477  32.107  14.850
38521W        W10836  43.224  39.976  14.719
38522W        W10837  19.782  22.361   2.257
38523W        W10838   5.648  14.335   1.454
38524W        W10839  27.200  32.060   1.350
38525W        W10840  27.765  15.547   3.267
38526W        W10841   6.644   5.807  13.850
38527W        W10842  44.949  28.153   0.390
38528W        W10843  10.161  39.335   1.876
38529W        W10844   4.397   8.106   3.668
38530W        W10845  36.083   6.882  13.415
38531W        W10846  25.068   0.247   4.920
38532W        W10847  37.995  36.440   2.145
38533W        W10848  28.470  25.010   3.815
38534W        W10849  18.593  38.868   0.366
38535W        W10850  38.804  42.542   4.614
38536W        W10851   1.993  34.354  12.423
38537W        W10852   7.191  22.616  14.349
38538W        W10853  23.117  41.254  11.567
38539W        W10854  41.390  44.714   4.823
38540W        W10855   2.243   9.214   0.514
38541W        W10856  36.599   1.782   4.069
38542W        W10857   2.885   1.428  12.578
38543W        W10858  24.761  34.586   0.397
38544W        W10859   8.672  14.186  14.357
38545W        W10860   4.896  27.225  13.012
38546W        W10861  21.472  29.425   0.005
38547W        W10862  27.582  41.020   3.671
38548W        W10863   6.268  26.200   2.544
38549W        W10864  19.787  39.778  12.845
38550W        W10865  42.474  25.839   3.986
38551W        W10866  43.444  24.577   1.186
38552W        W10867  22.797  21.117  14.444
38553W        W10868  37.811   7.540   1.268
38554W        W10869  14.858   9.722   1.326
38555W        W10870  23.746  17.631   3.687
38556W        W10871   6.741  25.760   0.310
38557W        W10872   8.715  28.105   0.044
38558W        W10873   0.908  28.528  14.725
38559W        W10874  21.352  34.145   1.224
38560W        W10875  18.517  43.295  14.746
38561W        W10876  44.257   4.511   0.772
38562W        W10877  20.140  38.625  14.295
38563W        W10878  26.947  32.419  13.850
38564W        W10879  20.608  24.100   3.392
38565W        W10880  44.443   1.232  11.023
38566W        W10881   4.472  24.145   4.097
38567W        W10882  40.482  29.204  12.361
38568W        W10883  30.950   9.255  11.644
38569W        W10884  18.633  33.094   4.282
38570W        W10885  43.902  38.114  10.670
38571W        W10886  16.211  27.508  11.235
38572W        W10887   3.775  28.590  11.530
38573W        W10888  44.748  27.393  14.880
38574W        W10889   3.582  32.096  10.933
38575W        W10890  10.905  20.148  11.417
38576W        W10891   9.333  34.258   4.959
38577W        W10892  17.985  18.073   4.519
38578W        W10893  19.645   6.118  13.094
38579W        W10894  34.345   7.868  13.463
38580W        W10895  17.147  17.656  12.662
38581W        W10896  26.631  35.677  13.002
38582W        W10897  26.057   3.902   4.561
38583W        W10898  21.695  36.812   0.169
38584W        W10899  30.381  20.699   3.291
38585W        W10900   3.851  23.088   4.371
38586W        W10901  12.824  10.285  11.500
38587W        W10902  26.375   7.760  11.087
38588W        W10903  24.083  26.239  13.891
38589W        W10904  34.038  17.328  13.669
38590W        W10905  11.330  43.244   2.742
38591W        W10906  23.035  43.088  10.533
38592W        W10907  28.407   1.493   2.306
38593W        W10908  16.749  24.051  14.883
38594W        W10909  34.916  41.249  12.027
38595W        W10910  44.374  15.388   4.680
38596W        W10911  15.724  10.354  13.778
38597W        W10912  40.361   8.459   0.421
38598W        W10913  35.570  39.838   0.811
38599W        W10914  39.440   8.896  11.366
38600W        W10915  28.561  39.831   4.607
38601W        W10916  22.687  20.122  11.185
38602W        W10917  14.035  19.008  10.820
38603W        W10918  18.955  44.979  12.586
38604W        W10919  31.965  18.802  13.531
38605W        W10920  43.865  16.630   4.737
38606W        W10921  44.524   3.240   4.149
38607W        W10922  36.020  27.971  10.666
38608W        W10923  36.003  16.152  11.868
38609W        W10924  38.934  15.673   1.023
38610W        W10925  11.817   7.649  14.077
38611W        W10926  13.930   9.395  13.830
38612W        W10927  21.342  21.072   9.803
38613W        W10928  24.134  14.652  13.816
38614W        W10929  20.603  27.518   2.450
38615W        W10930  39.019  31.666   2.680
38616W        W10931  18.043  27.437   3.849
38617W        W10932  10.299   0.929   3.093
38618W        W10933  19.924  26.085  10.319
38619W        W10934  11.817  24.980  11.999
38620W        W10935  31.675  12.174   0.246
38621W        W10936  13.089  15.660   2.203
38622W        W10937   7.348  10.358  10.906
38623W        W10938  30.175   7.208  10.724
38624W        W10939  19.797  39.759   2.807
38625W        W10940   7.737  27.907   1.811
38626W        W10941  30.587  33.047  12.938
38627W        W10942  37.499  27.942   2.881
38628W        W10943  34.568  11.159   3.688
38629W        W10944  12.517  24.666  11.573
38630W        W10945  20.948  30.742   4.139
38631W        W10946  31.520   2.878  11.528
38632W        W10947  10.787  15.723  10.246
38633W        W10948   1.830  41.293   2.682
38634W        W10949  21.588  19.521  11.135
38635W        W10950   5.865   9.071   1.328
38636W        W10951  39.482  31.362   1.813
38637W        W10952  23.751  20.632  12.041
38638W        W10953  31.042   6.373   1.148
38639W        W10954  23.986   2.541   1.035
38640W        W10955  28.302   9.749  12.128
38641W        W10956   3.403   5.684   3.615
38642W        W10957   1.694   8.931   0.849
38643W        W10958   2.878  33.408  12.107
38644W        W10959   3.206  38.855  12.410
38645W        W10960   2.846  24.436   4.711
38646W        W10961   8.683  33.995  13.770
38647W        W10962   6.308  16.576  13.366
38648W        W10963  41.214  10.599  14.296
38649W        W10964  39.689  40.047   1.400
38650W        W10965  12.145   8.685   4.595
38651W        W10966  26.051  21.971   3.234
38652W        W10967  15.736  17.346   1.349
38653W        W10968   5.244  42.841   4.938
38654W        W10969  20.199  35.771  12.306
38655W        W10970  17.237  14.613  10.889
38656W        W10971  11.230  44.217   0.439
38657W        W10972  19.069  34.036   1.306
38658W        W10973  21.532  31.534  10.622
38659W        W10974  26.423  31.938  11.626
38660W        W10975  30.228  27.507   0.276
38661W        W10976  40.448  32.443   4.579
38662W        W10977   5.753  42.538   2.397
38663W        W10978  35.787  36.050  11.526
38664W        W10979   7.723  25.374   2.829
38665W        W10980  30.397  44.711  12.928
38666W        W10981  37.658  18.721   3.964
38667W        W10982  44.424  28.678   1.882
38668W        W10983  29.103  10.799   1.444
38669W        W10984  13.591   0.413  13.552
38670W        W10985  28.569  11.389   1.374
38671W        W10986  25.121   9.377   1.284
38672W        W10987  17.660  29.677  13.559
38673W        W10988  41.633  14.730  13.383
38674W        W10989  22.040  34.702  10.822
38675W        W10990   3.231  11.595   2.694
38676W        W10991  39.877  37.366  13.741
38677W        W10992   2.890  25.432   2.319
38678W        W10993   4.806  42.255   5.148
38679W        W10994   2.470  25.657  13.685
38680W        W10995  24.878  17.558   0.257
38681W        W10996  12.813  41.734   3.711
38682W        W10997  25.012  34.424   3.606
38683W        W10998   1.702  11.843  14.698
38684W        W10999  43.372  12.217  10.897
38685W        W11000   6.546   3.367   0.492
38686W        W11001  25.887  20.743   3.809
38687W        W11002  40.265  34.428   0.269
38688W        W11003   2.273  11.158   4.953
38689W        W11004  43.490   9.273   0.813
38690W        W11005  44.839   7.352   3.476
38691W        W11006  36.502  12.149  14.754
38692W        W11007  22.204  14.511   1.002
38693W        W11008  13.903   6.886   0.554
38694W        W11009   9.875  26.710  10.723
38695W        W11010   3.775   5.844   0.829
38696W        W11011  31.092  14.791  10.632
38697W        W11012  11.174  16.093  10.568
38698W        W11013  21.168  27.866   3.205
38699W        W11014  31.421  19.199   2.929
38700W        W11015  44.447  33.510   1.827
38701W        W11016  25.066   8.917   1.994
38702W        W11017   0.734  39.796  12.374
38703W        W11018   0.077  12.589   5.096
38704W        W11019   5.886  44.019   4.551
38705W        W11020  25.819  26.333  14.190
38706W        W11021  29.350  32.019  13.962
38707W        W11022  10.981  21.119   4.263
38708W        W11023   6.331  18.073  11.055
38709W        W11024   6.728  31.531   0.155
38710W        W11025   2.909  17.817   4.395
38711W        W11026  13.658  43.517  13.461
38712W        W11027  31.571  37.958   2.473
38713W        W11028  31.900   1.400  14.549
38714W        W11029   7.390  44.413   0.479
38715W        W11030   4.761  40.020  13.437
38716W        W11031  27.540  17.107   4.198
38717W        W11032   7.325  26.959   1.890
38718W        W11033  27.706   7.324  11.788
38719W        W11034  25.582  18.397   1.874
38720W        W11035  15.516   1.791   4.709
38721W        W11036  21.716  20.741  12.872
38722W        W11037  16.707  34.934   2.925
38723W        W11038  25.650   8.155  13.961
38724W        W11039  12.226  39.819  13.778
38725W        W11040  35.312  17.654   0.785
38726W        W11041   2.327  21.788  10.704
38727W        W11042  41.546  25.250   0.368
38728W        W11043   3.711   2.037   1.761
38729W        W11044  36.058  10.834  12.520
38730W        W11045  44.395   3.081  11.975
38731W        W11046  38.043  38.587  11.721
38732W        W11047  27.465  39.303  12.495
38733W        W11048  13.080  29.555  10.807
38734W        W11049  25.282  24.486   0.810
38735W        W11050  15.984  23.055  12.125
38736W        W11051  21.849  30.274  12.122
38737W        W11052   3.828   9.366   0.383
38738W        W11053  37.681  25.150  10.662
38739W        W11054  29.935  41.536   1.848
38740W        W11055  10.316  21.236   0.485
38741W        W11056  25.432  36.449   0.676
38742W        W11057  10.263  11.332  11.120
38743W        W11058   8.181  30.698  14.622
38744W        W11059  25.465  10.296  11.065
38745W        W11060  16.282  17.772   3.285
38746W        W11061  15.363  39.872  11.172
38747W        W11062  18.019  32.932   3.713
38748W        W11063  24.116   6.123   0.699
38749W        W11064   9.872  25.223  13.480
38750W        W11065  41.185  25.595   2.899
38751W        W11066  33.522  13.928   2.591
38752W        W11067  19.106  22.510   4.606
38753W        W11068  12.177  19.741   4.627
38754W        W11069  27.113   3.048  14.501
38755W        W11070  26.825   3.291   4.191
38756W        W11071   4.372  21.252   4.603
38757W        W11072  10.423  43.465  10.610
38758W        W11073   7.382  42.848   4.728
38759W        W11074  25.423  27.676   2.928
38760W        W11075  29.370  39.460   3.749
38761W        W11076   5.826  37.373   1.298
38762W        W11077  34.994   0.637   1.456
38763W        W11078  31.879  13.688   0.481
38764W        W11079   2.742  24.563  10.589
38765W        W11080  22.768  18.732   3.532
38766W        W11081  36.923  11.219   1.374
38767W        W11082  13.354   9.878  13.416
38768W        W11083  23.013  36.368   1.971
38769W        W11084  41.477  23.241  13.517
38770W        W11085  41.082  13.108  12.089
38771W        W11086   2.100   6.704   3.978
38772W        W11087  42.632   2.963   3.087
38773W        W11088  25.524  34.308   2.060
38774W        W11089  44.520   7.787   0.906
38775W        W11090  16.516  43.971  11.459
38776W        W11091  19.752  14.645   2.479
38777W        W11092  23.640  18.584   0.039
38778W        W11093  12.959  28.201  13.463
38779W        W11094  24.701  36.045   1.845
38780W        W11095   4.300  18.913   0.851
38781W        W11096  30.066  44.625  11.206
38782W        W11097  35.184  27.474   4.114
38783W        W11098  22.300  23.231   0.424
38784W        W11099  38.995  20.984  13.399
38785W        W11100  23.007  24.268   3.229
38786W        W11101  32.755   6.187  12.402
38787W        W11102   5.275  16.910  13.796
38788W        W11103  42.310   9.348  10.767
38789W        W11104  32.077  11.494  11.045
38790W        W11105  37.971  11.341   4.186
38791W        W11106   8.445   4.799   4.176
38792W        W11107   5.802  36.497   4.589
38793W        W11108  44.440  15.912  11.148
38794W        W11109  36.367  44.715  11.590
38795W        W11110  39.592  26.550   4.300
38796W        W11111  32.177  13.937   4.996
38797W        W11112  18.539   7.768  13.970
38798W        W11113  14.025  41.719   4.507
38799W        W11114  26.457   8.186  14.117
38800W        W11115  22.575  33.594   1.341
38801W        W11116  25.663  14.016   2.740
38802W        W11117   9.335  27.024  11.803
38803W        W11118  39.120  25.560  13.137
38804W        W11119  20.107  37.072   1.399
38805W        W11120  23.512  28.069  13.755
38806W        W11121  24.895   3.410  13.853
38807W        W11122  37.812   1.642  12.051
38808W        W11123  37.320   9.854   0.979
38809W        W11124  16.180   7.660   3.257
38810W        W11125  38.933  16.224  11.880
38811W        W11126  34.903  39.499  12.919
38812W        W11127  12.306   5.934  13.667
38813W        W11128  12.201   1.940   4.366
38814W        W11129  34.012  38.853  14.463
38815W        W11130  25.030  13.999   4.204
38816W        W11131  27.632  18.106  13.007
38817W        W11132  25.100  30.906  13.893
38818W        W11133  21.144   9.350   1.165
38819W        W11134  39.270  34.007   1.330
38820W        W11135  25.306  23.088   0.820
38821W        W11136  35.097  11.209  14.371
38822W        W11137  27.561  36.965   4.748
38823W        W11138  23.002  36.264   2.990
38824W        W11139  42.836  31.553  11.647
38825W        W11140  37.013   6.099  12.495
38826W        W11141   8.765  30.949  12.922
38827W        W11142  17.066  42.393  13.316
38828W        W11143  32.095  38.918  14.355
38829W        W11144  30.155  20.294  13.303
38830W        W11145  37.942  19.557   3.649
38831W        W11146   5.530  25.733   0.453
38832W        W11147  30.889  11.953   4.672
38833W        W11148   6.047   1.832  14.119
38834W        W11149   5.860  11.235   4.241
38835W        W11150  26.230  39.283  14.294
38836W        W11151  43.731   4.827   2.845
38837W        W11152  40.459  44.035   4.098
38838W        W11153   2.579  26.505  10.225
38839W        W11154  28.177  36.639   3.718
38840W        W11155  14.649  32.601  11.181
38841W        W11156  30.562   3.033   1.243
38842W        W11157  28.705  43.510   1.414
38843W        W11158   6.740  21.696   0.276
38844W        W11159  41.838  44.437  13.534
38845W        W11160  20.759  38.950  13.912
38846W        W11161  42.174  12.173  11.516
38847W        W11162  14.706   5.042  11.532
38848W        W11163  37.412  44.087  10.669
38849W        W11164  26.418  11.091   2.372
38850W        W11165   8.782  22.365  11.760
38851W        W11166  18.620   2.561   4.534
38852W        W11167   2.646  15.598  13.811
38853W        W11168  28.460   1.659  11.228
38854W        W11169  38.611  43.847  10.786
38855W        W11170  10.284  24.872   2.183
38856W        W11171   5.612  38.501   2.506
38857W        W11172  31.777   1.289   4.586
38858W        W11173   3.622  23.515   4.156
38859W        W11174  43.839  34.525  11.773
38860W        W11175  42.950   8.290  13.118
38861W        W11176   4.409  18.264   2.131
38862W        W11177  26.119  16.344  12.614
38863W        W11178  34.471   5.345  13.440
38864W        W11179  17.520  44.036  14.391
38865W        W11180  25.594  16.197   2.437
38866W        W11181   8.877  37.838  12.063
38867W        W11182  44.737  19.167  14.603
38868W        W11183  42.689  21.429   0.807
38869W        W11184  24.196  18.178  10.958
38870W        W11185   5.919  43.505   2.762
38871W        W11186  24.734  40.494   2.655
38872W        W11187  28.872  16.302  14.461
38873W        W11188  38.599  11.644   1.932
38874W        W11189   3.438  26.893  10.534
38875W        W11190  19.623  22.970   1.171
38876W        W11191  32.990  18.973  10.710
38877W        W11192  20.229   5.737  12.342
38878W        W11193  37.960  41.193  14.279
38879W        W11194  10.147  41.461   0.395
38880W        W11195  10.106  19.612  10.228
38881W        W11196  14.226  18.672  14.505
38882W        W11197  22.166  20.106   0.898
38883W        W11198  12.882  26.037  10.893
38884W        W11199  21.761   9.163   4.090
38885W        W11200  30.080   4.516  11.059
38886W        W11201  35.798  22.780  12.476
38887W        W11202  41.494  31.458  12.911
38888W        W11203  10.662  23.277  10.522
38889W        W11204  44.951  37.071   1.812
38890W        W11205  37.014  37.885   0.880
38891W        W11206   3.670   1.181   2.174
38892W        W11207  27.197  36.296   3.280
38893W        W11208  21.468  38.864   4.697
38894W        W11209  25.556  12.612  12.494
38895W        W11210  41.350  32.169   1.369
38896W        W11211   8.934   1.536   1.222
38897W        W11212   5.562   4.820  10.447
38898W        W11213  20.762  43.859   3.281
38899W        W11214   1.251   1.212   2.257
38900W        W11215  15.805  13.269   1.868
38901W        W11216  28.048  30.763  14.923
38902W        W11217  39.634  37.839   0.806
38903W        W11218   6.858  40.204  14.342
38904W        W11219  13.237   2.392   0.348
38905W        W11220   9.593   8.357   0.159
38906W        W11221  17.683  44.990  13.564
38907W        W11222  19.328   9.933  12.505
38908W        W11223  33.037  25.601   0.994
38909W        W11224  15.653   0.412  13.397
38910W        W11225  33.508  30.148  11.649
38911W        W11226  37.955  37.864   4.185
38912W        W11227  38.056   1.940   1.692
38913W        W11228  12.803  40.022   0.901
38914W        W11229  31.841  17.207   3.806
38915W        W11230   7.688  41.120   0.685
38916W        W11231  37.398  26.423  14.689
38917W        W11232   6.534  25.942  14.229
38918W        W11233  19.292   8.206   3.584
38919W        W11234   0.879  33.020   1.046
38920W        W11235  23.476  40.872   2.246
38921W        W11236  14.194  18.629   2.856
38922W        W11237   3.223  23.627  13.432
38923W        W11238  44.549  29.753  12.965
38924W        W11239  41.316  37.953   1.405
38925W        W11240  32.791  33.884   4.094
38926W        W11241   3.665  19.713  14.399
38927W        W11242  27.191  41.871   1.780
38928W        W11243   5.408  26.124   0.804
38929W        W11244   0.574  23.898  11.448
38930W        W11245   3.281  35.323  11.335
38931W        W11246  21.271  21.052   3.173
38932W        W11247  28.965  17.136   4.842
38933W        W11248  39.399  39.564   2.623
38934W        W11249  42.426  43.600  13.525
38935W        W11250   0.172  35.587   3.240
38936W        W11251  16.538  29.512  10.217
38937W        W11252   9.342  38.571  12.415
38938W        W11253   3.412  44.377  14.333
38939W        W11254  17.528  29.950  10.194
38940W        W11255  35.276  11.229  12.191
38941W        W11256  41.103  14.729   4.177
38942W        W11257  23.594   1.518   3.761
38943W        W11258  23.353  23.202  13.456
38944W        W11259  14.583   3.732   0.318
38945W        W11260   5.897   4.868  14.268
38946W        W11261   4.524  25.737   2.267
38947W        W11262   3.515  14.315   3.171
38948W        W11263  13.610   5.203  11.531
38949W        W11264  42.369  22.817  13.058
38950W        W11265   4.221  35.104  14.611
38951W        W11266  44.799  16.734   0.115
38952W        W11267  17.535  42.712  11.621
38953W        W11268  29.720  21.620   2.467
38954W        W11269  16.607   9.426   2.359
38955W        W11270  30.099  26.927  12.926
38956W        W11271   4.555  18.128  12.562
38957W        W11272  26.683  30.602  11.984
38958W        W11273  34.943  35.607  13.385
38959W        W11274  44.466  33.512  14.710
38960W        W11275  30.441  14.473   3.662
38961W        W11276  39.033  24.088  12.908
38962W        W11277  33.712   4.283  12.442
38963W        W11278  40.812   8.967   3.962
38964W        W11279  22.661  29.645   1.170
38965W        W11280  19.509  13.394  14.752
38966W        W11281  32.952   7.654  13.316
38967W        W11282  38.555  36.521   3.298
38968W        W11283  24.564   6.075   2.785
38969W        W11284  14.071   8.237  10.712
38970W        W11285   2.154   2.236  14.113
38971W        W11286  24.047   6.234   2.751
38972W        W11287   2.054  14.585   0.892
38973W        W11288  19.800  35.582   1.699
38974W        W11289  12.311  10.873  12.180
38975W        W11290   5.721  35.094  12.037
38976W        W11291  35.748  44.846  14.675
38977W        W11292  43.790   6.473  12.858
38978W        W11293   2.730  10.827   0.528
38979W        W11294  32.541  21.534  10.433
38980W        W11295  29.236  23.287  10.838
38981W        W11296  14.628   4.822   1.687
38982W        W11297  43.438  42.220   3.862
38983W        W11298  15.349  33.072   2.347
38984W        W11299  10.871   1.343   2.649
38985W        W11300  33.092   5.445  14.422
38986W        W11301  22.360  43.682  11.955
38987W        W11302  41.840   7.295  14.259
38988W        W11303  43.272  14.368  10.787
38989W        W11304  42.877   5.497   2.273
38990W        W11305   9.176  38.514  13.902
38991W        W11306  26.470  37.604   1.310
38992W        W11307  26.982  22.505  14.046
38993W        W11308  38.886  16.148   3.611
38994W        W11309  25.585  15.330  14.917
38995W        W11310  10.680  12.599  11.103
38996W        W11311  16.805  16.301  12.297
38997W        W11312   3.965   3.749   2.882
38998W        W11313   2.045  33.793  13.919
38999W        W11314  21.030  17.042   2.949
39000W        W11315  22.558  43.236  10.431
39001W        W11316  43.329  26.092   4.154
39002W        W11317  32.120   2.443  10.626
39003W        W11318  22.668  34.879   2.821
39004W        W11319   6.408  34.162   2.231
39005W        W11320  19.854  19.516   4.227
39006W        W11321  22.834  21.746  12.274
39007W        W11322  18.685  33.356  12.545
39008W        W11323   4.457  11.736  14.578
39009W        W11324  44.053   8.929  13.081
39010W        W11325  44.535  40.036   4.598
39011W        W11326  23.483  41.551   0.994
39012W        W11327   5.142  10.379  10.380
39013W        W11328   9.670  40.942   4.692
39014W        W11329   0.233  33.881   4.100
39015W        W11330   8.023  38.530  10.730
39016W        W11331  35.618  18.997  12.595
39017W        W11332  15.091  27.197  14.553
39018W        W11333  24.459  33.567  14.047
39019W        W11334  42.956  39.390  13.760
39020W        W11335  36.388   7.401  14.580
39021W        W11336  43.035  43.827   0.444
39022W        W11337  35.698  37.861   4.680
39023W        W11338  31.483  31.687  11.510
39024W        W11339  38.786   3.917  10.935
39025W        W11340   0.475   5.691  11.882
39026W        W11341   4.403  17.272   2.143
39027W        W11342  15.408  23.849  11.321
39028W        W11343  30.197  10.148   2.655
39029W        W11344  22.281  27.523  13.503
39030W        W11345   5.731  29.605  12.221
39031W        W11346  34.717  13.986  14.385
39032W        W11347  25.725  42.925  11.831
39033W        W11348   1.867  31.035   3.296
39034W        W11349   7.191  40.745   3.232
39035W        W11350   0.040  10.787   1.481
39036W        W11351  17.880  14.484  13.787
39037W        W11352  28.713  34.830   4.935
39038W        W11353   9.266  19.520   4.131
39039W        W11354  43.834  33.593   3.219
39040W        W11355   5.241  37.351   2.165
39041W        W11356   4.377  28.060   1.480
39042W        W11357   3.349   2.171  12.252
39043W        W11358  44.381  43.476  11.619
39044W        W11359  41.985   4.526   0.019
39045W        W11360  16.040  17.031   1.854
39046W        W11361  39.786  35.546   1.775
39047W        W11362  38.939  41.295   3.628
39048W        W11363   4.864   8.624   2.415
39049W        W11364  42.003   3.906   4.677
39050W        W11365   7.918  24.896   4.161
39051W        W11366  40.125  19.144  13.517
39052W        W11367  24.517  12.028   1.785
39053W        W11368  44.925   7.211  14.072
39054W        W11369   5.959   7.808   3.946
39055W        W11370  24.300   4.326  14.542
39056W        W11371  24.982  21.202  10.829
39057W        W11372  11.987  13.077   4.195
39058W        W11373  43.575  19.454  12.468
39059W        W11374  43.165   7.325  10.562
39060W        W11375  32.300  36.835  11.989
39061W        W11376  40.538  34.875   4.382
39062W        W11377  36.349  23.665   1.049
39063W        W11378  41.320   1.686  12.181
39064W        W11379  36.139  43.288  11.982
39065W        W11380  40.382  30.154  10.721
39066W        W11381  41.423  15.767  14.079
39067W        W11382  19.045  28.492   3.768
39068W        W11383  14.744   0.407  11.414
39069W        W11384  31.450   7.828   2.803
39070W        W11385  18.172   5.006   0.793
39071W        W11386  16.967   9.531  10.739
39072W        W11387   2.255  26.666  12.922
39073W        W11388  35.508  13.207  12.580
39074W        W11389   1.289  11.534   1.325
39075W        W11390  37.008  15.397  13.466
39076W        W11391  21.321  35.895   4.865
39077W        W11392  29.699  31.607  10.980
39078W        W11393   6.788  18.598  10.401
39079W        W11394  40.403   4.675   2.264
39080W        W11395  25.671   0.268  14.758
39081W        W11396  38.532  10.350  13.919
39082W        W11397   4.464   2.480   3.880
39083W        W11398   5.427  43.979  12.105
39084W        W11399  23.658  16.517   1.694
39085W        W11400  27.031  41.990   0.469
39086W        W11401   9.025  44.851   2.675
39087W        W11402  39.854  28.118  13.930
39088W        W11403  30.569  20.400  14.718
39089W        W11404  33.356  20.623   4.107
39090W        W11405  24.103   8.456   3.723
39091W        W11406  34.975   8.240  10.604
39092W        W11407   3.448  15.167   1.342
39093W        W11408  18.000  40.267  12.377
39094W        W11409   2.621   8.793  11.971
39095W        W11410  13.349   9.427  12.609
39096W        W11411  44.093  32.339   3.565
39097W        W11412  33.077  36.780  11.612
39098W        W11413  35.601  31.212   1.423
39099W        W11414  16.230  29.525  13.354
39100W        W11415  25.503   7.637  14.119
39101W        W11416   7.910  13.782   2.865
39102W        W11417  16.618  30.351   2.307
39103W        W11418   8.228  39.572  11.902
39104W        W11419   9.171  28.412  14.867
39105W        W11420  36.849  13.344   1.066
39106W        W11421  15.116   5.177   2.835
39107W        W11422   0.292  36.627  13.451
39108W        W11423  21.755  32.078  14.311
39109W        W11424  25.901  44.785   2.281
39110W        W11425   3.994   2.328   0.335
39111W        W11426  10.076  44.709  13.295
39112W        W11427  14.729   6.217  12.803
39113W        W11428  19.512  19.390   0.397
39114W        W11429   7.695  24.046   2.611
39115W        W11430  34.865   9.558  14.456
39116W        W11431  20.621  10.261  10.032
39117W        W11432  17.570  33.389  11.161
39118W        W11433  35.145  24.013  14.009
39119W        W11434  33.852  20.062   4.525
39120W        W11435  20.908   4.718  13.941
39121W        W11436  17.355   4.598   0.406
39122W        W11437  38.341   2.451  11.984
39123W        W11438  38.416   0.466   4.003
39124W        W11439  37.892  37.345   2.398
39125W        W11440  21.015  30.538   3.290
39126W        W11441  42.958   9.244   2.221
39127W        W11442  39.801  10.859   3.116
39128W        W11443  14.950  30.228  13.668
39129W        W11444  30.481   5.986   2.782
39130W        W11445  23.734  18.538  13.616
39131W        W11446  32.971  29.124   0.484
39132W        W11447   7.259   6.342  12.099
39133W        W11448   8.181  26.352   1.845
39134W        W11449  20.504  21.705   4.660
39135W        W11450  27.033  36.816   1.381
39136W        W11451  35.562  12.756   0.245
39137W        W11452  10.818  11.934   3.212
39138W        W11453  16.071  38.434   4.093
39139W        W11454   6.420  35.608   4.934
39140W        W11455  15.338  33.640   1.201
39141W        W11456   7.231  25.782  12.979
39142W        W11457  24.402  37.821   0.127
39143W        W11458  14.023  10.260   4.035
39144W        W11459   1.783  13.579   1.935
39145W        W11460  31.897  12.737  11.715
39146W        W11461  42.973   2.846  12.688
39147W        W11462   2.007  26.272  10.775
39148W        W11463  31.466   6.453   4.259
39149W        W11464  15.399   2.227   0.259
39150W        W11465  24.613  24.731   0.835
39151W        W11466   6.723  30.144   0.165
39152W        W11467  27.233  16.830   0.515
39153W        W11468  16.272  43.451  10.647
39154W        W11469  11.739  18.883   5.503
39155W        W11470  23.953  34.310   0.509
39156W        W11471   7.667  21.564   4.704
39157W        W11472  43.956  10.661  12.856
39158W        W11473  38.472  16.317   1.785
39159W        W11474  17.499  24.152   2.477
39160W        W11475  28.946  39.725  11.840
39161W        W11476   6.367  18.271  11.539
39162W        W11477  30.703  43.599   1.077
39163W        W11478  12.261  30.105  11.414
39164W        W11479  40.540  17.753   3.599
39165W        W11480  39.533  34.464   1.387
39166W        W11481  41.924   5.934  11.637
39167W        W11482  39.371  32.535   2.792
39168W        W11483  15.814  36.607  10.925
39169W        W11484  42.879  12.158   3.726
39170W        W11485  39.871  12.851  14.764
39171W        W11486   2.961   3.415  11.519
39172W        W11487  33.447  31.426   1.204
39173W        W11488   8.692  13.718  14.980
39174W        W11489  34.822  31.624  11.120
39175W        W11490  14.411  30.280  12.448
39176W        W11491  15.790  38.833  12.297
39177W        W11492  35.817  14.402  11.176
39178W        W11493  37.520  23.318   1.099
39179W        W11494  26.662  33.019   4.084
39180W        W11495  44.849   9.978  12.051
39181W        W11496  36.357  38.032  12.067
39182W        W11497  22.613  28.531   2.267
39183W        W11498  37.523  21.181  14.679
39184W        W11499  35.800  20.047   3.239
39185W        W11500   5.188   1.893   1.935
39186W        W11501  28.585   6.295  13.092
39187W        W11502  21.482  21.165   1.369
39188W        W11503  18.435  30.434   0.749
39189W        W11504  30.462   4.268  10.709
39190W        W11505   3.232   8.266  13.571
39191W        W11506  32.318  22.049  13.004
39192W        W11507  37.446  36.855  13.460
39193W        W11508  41.031  31.998  13.813
39194W        W11509   4.947  27.507   3.135
39195W        W11510   9.634   8.929   3.324
39196W        W11511  37.421   4.725   4.640
39197W        W11512  24.024  10.624  14.830
39198W        W11513  32.235  40.253   3.080
39199W        W11514  35.967  16.326   0.186
39200W        W11515  23.822  28.968  11.133
39201W        W11516  34.884   7.822  12.771
39202W        W11517   4.547  31.146  13.426
39203W        W11518  24.634  32.258   4.917
39204W        W11519  19.954   8.188   1.345
39205W        W11520  44.960   4.801  10.138
39206W        W11521   9.235  11.531  12.428
39207W        W11522  17.313  37.128   1.960
39208W        W11523  18.715  36.432   0.376
39209W        W11524  38.973  29.482  10.392
39210W        W11525  32.756  29.749   1.717
39211W        W11526  10.993  30.514  10.520
39212W        W11527  24.063  23.639   2.003
39213W        W11528  10.104  21.461   4.486
39214W        W11529   9.611  33.146  14.766
39215W        W11530  11.703   6.008  11.078
39216W        W11531   1.189  29.625  12.451
39217W        W11532  35.024  38.954   0.996
39218W        W11533  29.615  29.653   3.407
39219W        W11534  43.835  35.021   2.645
39220W        W11535   7.722  26.775  12.666
39221W        W11536  21.861  22.226   5.069
39222W        W11537  20.004  26.137   0.819
39223W        W11538  20.787  37.409   0.433
39224W        W11539  39.070  41.754   3.353
39225W        W11540  25.697  26.696   2.831
39226W        W11541  27.002  43.347  12.807
39227W        W11542  31.061  31.383  12.216
39228W        W11543   8.198  26.782  12.032
39229W        W11544  24.572  20.659   2.033
39230W        W11545  17.187   5.026  13.741
39231W        W11546  17.278  33.943   3.653
39232W        W11547  41.103  36.178   3.733
39233W        W11548  31.852  37.404  11.613
39234W        W11549  38.937  38.859  11.359
39235W        W11550   7.743  37.440  14.401
39236W        W11551   1.928  11.657   2.863
39237W        W11552  32.971  17.095   3.128
39238W        W11553   7.463  17.295   4.642
39239W        W11554  43.381  19.314   2.244
39240W        W11555  11.369  29.146   3.397
39241W        W11556  19.615  15.512  11.986
39242W        W11557  37.998   3.451   1.656
39243W        W11558   8.948   4.690   4.154
39244W        W11559   4.671   3.005   0.442
39245W        W11560  33.466  18.553   1.198
39246W        W11561   5.779   6.642   2.709
39247W        W11562   2.056  18.215  12.862
39248W        W11563  10.892  10.783  11.090
39249W        W11564  16.167  42.777  11.659
39250W        W11565  21.691  41.569   1.872
39251W        W11566  40.441   6.433   4.541
39252W        W11567  31.928   8.757  12.021
39253W        W11568  17.091   0.961  12.135
39254W        W11569  31.936  30.443   1.067
39255W        W11570  15.525   6.662   1.373
39256W        W11571  36.033  15.263  13.509
39257W        W11572  14.913  34.718  11.223
39258W        W11573  33.418  28.389   3.672
39259W        W11574  29.531  31.798  14.469
39260W        W11575  22.656  25.799   1.460
39261W        W11576  43.327  18.034   1.915
39262W        W11577   2.828  18.843  14.362
39263W        W11578   2.720  10.849  11.897
39264W        W11579  42.509  38.822   4.390
39265W        W11580   7.707  29.112  11.721
39266W        W11581  28.438   4.805   0.906
39267W        W11582   6.581  30.786  13.330
39268W        W11583  24.693   7.742   2.298
39269W        W11584  38.394  33.588   3.558
39270W        W11585  40.503  27.584   2.242
39271W        W11586  36.161   9.626   0.278
39272W        W11587  26.667  17.362  13.797
39273W        W11588  28.235  33.131  13.726
39274W        W11589  39.038  40.037   5.079
39275W        W11590  38.891  15.784  12.145
39276W        W11591   3.078  27.449  14.439
39277W        W11592  41.922  11.710  11.566
39278W        W11593   9.680   7.685  11.084
39279W        W11594  36.094  27.399   3.255
39280W        W11595  44.138  19.925   2.529
39281W        W11596   1.179  30.047   3.255
39282W        W11597  36.131  30.072   0.671
39283W        W11598  30.505  11.842  14.350
39284W        W11599  11.642  27.279  10.727
39285W        W11600  11.815  29.927  11.181
39286W        W11601   4.251  10.381  11.062
39287W        W11602  39.386  11.643   2.926
39288W        W11603  33.314   7.386   2.764
39289W        W11604  26.459  11.712   3.583
39290W        W11605  23.138  25.633  11.680
39291W        W11606  42.030  18.589  11.181
39292W        W11607  28.769  26.602  11.554
39293W        W11608  22.154  28.885   3.330
39294W        W11609  27.890  37.739   2.913
39295W        W11610  33.153  27.005   4.112
39296W        W11611  26.110   1.017  13.283
39297W        W11612  20.626  25.064   3.179
39298W        W11613  31.557  23.104   4.503
39299W        W11614  33.272   7.818   1.424
39300W        W11615  14.991  21.467  11.304
39301W        W11616  21.454  38.553   0.845
39302W        W11617  21.039  25.726  14.015
39303W        W11618  42.005   0.418  14.628
39304W        W11619  31.172  32.936   3.318
39305W        W11620  18.107  44.652   2.295
39306W        W11621  27.726  16.641   1.735
39307W        W11622  15.808   3.929  11.017
39308W        W11623  33.089  16.285   4.587
39309W        W11624  21.250   0.865   0.950
39310W        W11625   4.935  19.623   1.421
39311W        W11626  32.169  14.742  12.946
39312W        W11627   0.368  36.587  10.206
39313W        W11628   5.163  15.257  12.014
39314W        W11629   2.664  27.618   0.969
39315W        W11630  43.902  35.168   4.051
39316W        W11631   5.520  39.565  12.339
39317W        W11632  42.019   5.345  12.112
39318W        W11633  35.043  40.005  13.114
39319W        W11634  22.586  21.522  14.731
39320W        W11635  21.148  36.133   3.435
39321W        W11636  14.970  20.008  12.868
39322W        W11637  35.018   2.399  11.877
39323W        W11638  19.839  43.093   0.305
39324W        W11639  16.862  27.654   9.923
39325W        W11640  28.731  18.215   2.927
39326W        W11641  33.966  16.804  12.870
39327W        W11642   5.468  27.896  11.736
39328W        W11643  31.879  42.171  12.398
39329W        W11644  34.143  35.932  12.489
39330W        W11645  14.550   9.236   4.271
39331W        W11646  11.310  10.143  11.119
39332W        W11647  19.553  22.715   4.439
39333W        W11648  36.097  42.422  14.878
39334W        W11649  28.826  16.520  12.453
39335W        W11650  12.679   0.521   2.930
39336W        W11651  14.077  34.443  11.112
39337W        W11652   0.404  20.088   1.770
39338W        W11653   7.321  20.572  12.155
39339W        W11654  35.258  23.703   3.610
39340W        W11655  28.044  44.877   3.788
39341W        W11656   9.108  36.575  12.456
39342W        W11657  27.669  43.292  14.526
39343W        W11658  36.616  27.425   1.371
39344W        W11659  37.527  11.765   2.855
39345W        W11660  28.185   9.736   3.829
39346W        W11661  12.768  20.450   3.704
39347W        W11662  17.047  38.837   4.200
39348W        W11663   1.881   5.330   4.916
39349W        W11664  11.179  29.923   0.322
39350W        W11665  29.887  42.895  13.942
39351W        W11666  27.224  36.958   2.370
39352W        W11667  43.096  33.853   2.763
39353W        W11668   4.576  36.127  11.333
39354W        W11669  40.430   7.144  10.257
39355W        W11670  18.611  40.515   2.620
39356W        W11671  30.228   9.884   1.681
39357W        W11672  39.434  32.086   4.873
39358W        W11673  10.482  26.537  13.533
39359W        W11674  12.569   8.854   2.257
39360W        W11675  19.116  42.943   3.552
39361W        W11676   1.370  18.517   1.287
39362W        W11677   4.321  17.352  12.113
39363W        W11678   5.707  31.362   3.922
39364W        W11679  33.398  16.241  14.907
39365W        W11680  19.468   0.677   1.668
39366W        W11681   7.480  27.551  10.575
39367W        W11682  40.009  39.103   0.732
39368W        W11683   4.875  25.260  10.714
39369W        W11684  43.717  40.598  11.270
39370W        W11685  27.030   2.141   1.475
39371W        W11686  18.222  27.956  14.519
39372W        W11687   8.600  37.601   0.693
39373W        W11688  20.876  44.529   1.720
39374W        W11689  29.958  42.555  12.048
39375W        W11690   0.218  29.215  11.244
39376W        W11691  25.502  39.532  14.227
39377W        W11692  31.874  15.193  11.304
39378W        W11693  37.516  28.644  14.373
39379W        W11694  28.071  15.254  14.986
39380W        W11695   1.400  29.709   0.916
39381W        W11696  14.873  38.455   2.862
39382W        W11697  20.303  14.689   2.473
39383W        W11698  14.288  29.696  13.343
39384W        W11699  36.304  12.286   0.188
39385W        W11700  36.533   0.272   2.387
39386W        W11701  17.015  32.066   3.345
39387W        W11702  18.093  17.521  12.067
39388W        W11703   9.752  25.025  12.558
39389W        W11704  25.809   5.592   4.846
39390W        W11705  22.629  15.775  12.587
39391W        W11706   3.187  18.754   0.098
39392W        W11707   8.307   6.457  12.926
39393W        W11708  12.180   2.464   0.884
39394W        W11709  43.384  35.973   0.622
39395W        W11710  19.253  44.950  11.644
39396W        W11711  44.403  25.469  12.512
39397W        W11712  27.246  40.882   3.262
39398W        W11713   2.332  23.377  14.106
39399W        W11714  33.852  34.389   0.814
39400W        W11715   2.738  17.995   0.338
39401W        W11716   2.033  15.737   2.673
39402W        W11717  28.735   0.917   1.812
39403W        W11718  20.058  36.765  11.204
39404W        W11719  13.399  26.070   0.799
39405W        W11720  27.005   5.666  10.608
39406W        W11721   7.067  16.323   0.980
39407W        W11722  14.859   9.003   0.916
39408W        W11723  40.986   7.831   0.443
39409W        W11724  30.221  43.680   0.895
39410W        W11725  10.030  40.092   3.000
39411W        W11726  25.689  16.927  14.529
39412W        W11727  40.202   0.782   4.585
39413W        W11728  32.529  16.035   2.828
39414W        W11729  20.772  44.373  12.140
39415W        W11730  32.886  32.589  12.956
39416W        W11731  19.551   6.742   2.176
39417W        W11732  44.518  26.707   0.374
39418W        W11733  35.607  20.561   0.710
39419W        W11734  33.948  34.522   4.110
39420W        W11735   5.967  17.557  13.087
39421W        W11736  37.352  39.835  12.596
39422W        W11737  35.443  34.174  12.637
39423W        W11738  27.125  38.913  13.503
39424W        W11739  18.705  15.577  11.370
39425W        W11740  22.272  29.946  13.050
39426W        W11741  12.605   2.194   0.192
39427W        W11742  42.875  17.534   3.717
39428W        W11743  41.661  43.010  14.378
39429W        W11744  21.498  18.342  12.915
39430W        W11745   6.673   8.545   4.532
39431W        W11746  42.343   8.176   2.640
39432W        W11747  39.146   2.373   3.169
39433W        W11748  14.020   7.266   0.891
39434W        W11749  24.609  22.512  14.434
39435W        W11750  32.133  15.853   2.421
39436W        W11751   8.439  22.121  13.990
39437W        W11752  42.931   1.422  14.895
39438W        W11753   5.579  31.649  14.346
39439W        W11754  28.656  29.455   4.294
39440W        W11755  35.991  32.012  13.888
39441W        W11756  32.385  26.861  12.924
39442W        W11757   3.345   9.843  12.605
39443W        W11758   1.704   8.410  13.412
39444W        W11759  42.043  42.512   3.241
39445W        W11760  26.952  30.502   2.899
39446W        W11761  15.737   4.224   0.829
39447W        W11762  21.992  36.599   0.930
39448W        W11763  38.962  32.348   1.445
39449W        W11764   4.416  16.689   0.471
39450W        W11765   9.919  14.287  12.053
39451W        W11766  29.916  28.522   1.453
39452W        W11767  12.285  24.509   1.755
39453W        W11768  30.378  24.433   0.938
39454W        W11769  29.216   7.719  11.518
39455W        W11770  40.440  17.246   2.516
39456W        W11771  16.682  33.120  12.963
39457W        W11772  27.489  12.666   2.822
39458W        W11773   5.511  21.062  12.507
39459W        W11774  22.940   2.511   0.850
39460W        W11775  19.304   9.361  11.162
39461W        W11776  42.886  16.046   2.446
39462W        W11777   9.041   9.376  14.141
39463W        W11778  17.957  21.803   0.779
39464W        W11779   3.880  18.149   4.149
39465W        W11780  27.965  10.668  10.504
39466W        W11781  38.804  18.167  12.593
39467W        W11782  17.847   7.793   0.830
39468W        W11783  34.479   7.378  13.932
39469W        W11784  29.005  18.966  13.478
39470W        W11785  35.937  33.155  11.219
39471W        W11786   7.210  10.224   4.981
39472W        W11787  37.304  43.356  12.890
39473W        W11788   5.306   1.518   1.166
39474W        W11789  25.490  30.728  13.560
39475W        W11790  24.041   0.831  14.475
39476W        W11791  15.834  28.863   4.577
39477W        W11792   5.702   1.239  12.044
39478W        W11793   5.444  44.399   4.485
39479W        W11794  33.136   3.744   4.152
39480W        W11795  11.910  11.976  13.072
39481W        W11796  36.940  21.500  11.132
39482W        W11797  29.729  33.954  12.457
39483W        W11798  34.307  41.716   2.801
39484W        W11799  35.534  25.989  10.681
39485W        W11800   4.925  39.964  11.198
39486W        W11801   1.160   4.652  14.173
39487W        W11802  31.356  36.710  12.086
39488W        W11803   7.292  39.095   0.888
39489W        W11804   1.452  23.464   0.533
39490W        W11805  13.715  41.938   0.524
39491W        W11806  20.954   2.216   0.731
39492W        W11807   9.382  33.545  12.850
39493W        W11808  38.316  31.649   0.522
39494W        W11809   2.770  40.802  12.885
39495W        W11810  39.390   2.727  12.635
39496W        W11811  43.376  42.790  14.835
39497W        W11812  43.720  35.066   0.793
39498W        W11813  28.155  18.156  13.045
39499W        W11814  42.976  28.933  12.372
39500W        W11815   1.584  35.812   0.486
39501W        W11816   3.553  18.580   0.433
39502W        W11817   9.298  40.855  11.176
39503W        W11818  28.851  39.728  14.756
39504W        W11819  20.148  40.995   0.537
39505W        W11820   1.507  35.428   1.936
39506W        W11821   1.458  16.528  11.151
39507W        W11822  36.569  23.629   0.568
39508W        W11823  33.021  28.801   4.932
39509W        W11824   2.854  13.664  12.405
39510W        W11825   2.161  36.330  11.566
39511W        W11826   2.010  12.649   2.734
39512W        W11827  13.736  28.126   4.217
39513W        W11828   5.948   1.753   4.042
39514W        W11829  10.334  35.102  12.621
39515W        W11830  12.965  39.145   0.790
39516W        W11831  30.824  14.808   2.207
39517W        W11832  24.727  42.964  11.163
39518W        W11833  13.631  16.026   0.667
39519W        W11834   7.297   4.555  13.330
39520W        W11835  13.802  39.454   4.343
39521W        W11836  26.213  24.644  11.223
39522W        W11837  33.780  33.705   4.160
39523W        W11838  33.456  43.131  10.970
39524W        W11839   4.812   5.759  11.980
39525W        W11840   4.255   9.685  14.995
39526W        W11841  16.401  30.271   2.766
39527W        W11842  37.584  15.086   0.474
39528W        W11843  21.730  30.500   2.769
39529W        W11844   2.256   9.646   1.909
39530W        W11845  36.419  20.014  13.386
39531W        W11846  24.966   0.941   3.785
39532W        W11847  22.226   4.215   1.345
39533W        W11848  39.300  15.653   0.672
39534W        W11849  10.165   8.600   4.122
39535W        W11850  30.891  14.895  11.474
39536W        W11851  25.589  25.697   2.713
39537W        W11852  43.800   8.551   4.203
39538W        W11853  25.994  43.563  14.459
39539W        W11854  42.411  39.346  12.861
39540W        W11855  16.204  35.836  10.937
39541W        W11856   5.187  36.376  10.912
39542W        W11857   9.162  10.596   4.732
39543W        W11858  26.577  11.099   1.884
39544W        W11859  39.519  43.905  14.866
39545W        W11860  10.395   1.664  12.100
39546W        W11861  37.012  35.754  14.550
39547W        W11862  23.097  17.018   2.843
39548W        W11863   6.776  28.164   0.501
39549W        W11864  12.053   0.984   4.161
39550W        W11865   1.698  41.512  13.896
39551W        W11866   5.605  35.563   0.699
39552W        W11867  15.497   4.788  11.035
39553W        W11868  12.885  21.189   0.739
39554W        W11869   4.377   5.668   2.735
39555W        W11870   9.097  25.541   4.930
39556W        W11871  43.954  19.522   0.871
39557W        W11872  19.025  21.101  10.957
39558W        W11873  38.438  11.593   4.135
39559W        W11874  19.751  26.896   2.383
39560W        W11875  37.445  24.742  12.059
39561W        W11876  22.227  41.044  11.138
39562W        W11877  30.674  38.850  10.598
39563W        W11878  24.989  16.932  12.899
39564W        W11879  32.081  15.134   2.911
39565W        W11880  29.667   3.467   2.745
39566W        W11881  37.034  23.755   2.766
39567W        W11882   7.973  40.702  11.155
39568W        W11883   7.029  43.796  14.873
39569W        W11884   1.223  18.135  10.669
39570W        W11885  26.440   6.408  10.644
39571W        W11886  16.878  19.233  12.370
39572W        W11887  16.071  40.343   1.732
39573W        W11888   9.829  14.897   2.837
39574W        W11889  20.597  21.247   0.971
39575W        W11890  18.696   7.432  10.299
39576W        W11891  11.772  42.846  10.740
39577W        W11892  21.368  34.467  11.519
39578W        W11893  29.411  21.714   1.718
39579W        W11894  23.137  16.867   2.293
39580W        W11895  42.540  38.487  12.443
39581W        W11896  15.307  15.777   0.448
39582W        W11897   1.747  10.656   1.390
39583W        W11898   2.707  33.515  13.889
39584W        W11899  18.124  34.123   1.423
39585W        W11900  35.415   7.291  10.881
39586W        W11901  26.549  39.487   4.664
39587W        W11902  26.620  13.174   4.069
39588W        W11903  30.071   4.718  12.848
39589W        W11904  18.391  21.719  11.047
39590W        W11905  30.213  30.685  12.087
39591W        W11906   9.227   1.277  12.872
39592W        W11907  24.500  36.939   0.858
39593W        W11908  41.086  40.335  12.037
39594W        W11909  23.623   5.171   0.460
39595W        W11910  39.002  39.989   1.983
39596W        W11911  26.124  34.604   5.107
39597W        W11912   9.077   2.170  12.425
39598W        W11913  15.871  42.045   2.459
39599W        W11914  25.461  31.358   1.422
39600W        W11915  26.132  40.187   1.214
39601W        W11916  14.366  26.136   2.304
39602W        W11917  13.668  17.705   1.298
39603W        W11918  26.849  35.040   4.968
39604W        W11919  40.457  10.544  13.129
39605W        W11920  25.964  10.633   0.769
39606W        W11921  43.899  34.968  12.442
39607W        W11922  18.571   4.597   2.171
39608W        W11923   5.893  29.946   4.663
39609W        W11924  20.813  29.041   2.806
39610W        W11925  39.756  41.085   4.251
39611W        W11926  19.119  42.031   4.442
39612W        W11927  36.154   3.382  13.028
39613W        W11928  11.274  35.663   3.335
39614W        W11929  34.611  33.046   3.216
39615W        W11930   3.381   9.412  12.324
39616W        W11931  36.554  23.276  11.174
39617W        W11932  21.222   5.608  11.666
39618W        W11933   3.279  22.980   3.562
39619W        W11934   1.220  20.605   3.360
39620W        W11935  26.504  26.097  12.339
39621W        W11936   2.583   8.275  14.216
39622W        W11937  17.239  26.699   4.564
39623W        W11938  44.811   2.994  13.766
39624W        W11939  42.377   9.299   2.237
39625W        W11940  16.345  30.485  11.078
39626W        W11941  30.981  24.713   3.653
39627W        W11942  19.678  10.907   1.862
39628W        W11943  39.426  13.325   5.073
39629W        W11944  16.446  32.008   4.179
39630W        W11945  12.048   8.314  13.357
39631W        W11946  40.753  32.471   2.361
39632W        W11947  32.980  41.971   0.037
39633W        W11948  43.286  32.892   2.350
39634W        W11949   6.269  26.705   5.358
39635W        W11950  43.756  34.866   1.809
39636W        W11951  40.239  25.412   2.486
39637W        W11952  20.038  24.553   1.757
39638W        W11953  27.098  26.048   2.409
39639W        W11954  36.864  25.922  11.884
39640W        W11955   8.508  30.874   0.437
39641W        W11956  42.917   4.822  10.586
39642W        W11957  37.479  21.688  11.985
39643W        W11958   5.289  12.599  14.411
39644W        W11959  37.884  25.031   0.763
39645W        W11960  10.944   0.825   2.778
39646W        W11961  41.373  16.839  10.716
39647W        W11962  43.794  38.626  14.522
39648W        W11963  32.564   9.752   4.677
39649W        W11964   0.938  33.734   4.574
39650W        W11965  28.231  16.750   1.742
39651W        W11966  11.616   9.892  12.410
39652W        W11967  18.743  21.791   4.210
39653W        W11968  33.695  41.586  10.776
39654W        W11969  11.351  32.478  10.648
39655W        W11970  19.186  15.571  11.637
39656W        W11971  16.403  16.460  13.119
39657W        W11972   0.019  17.674  14.334
39658W        W11973  40.526  24.808  12.379
39659W        W11974  11.860   6.658   2.616
39660W        W11975  16.639   8.322   0.748
39661W        W11976   6.755  30.154  11.196
39662W        W11977  22.632   7.731   0.356
39663W        W11978  24.776   7.600  13.403
39664W        W11979  36.328  42.340   1.124
39665W        W11980  34.550   1.426  10.696
39666W        W11981  30.976   4.113  13.437
39667W        W11982  26.351   3.024  11.821
39668W        W11983  29.188  24.115   2.154
39669W        W11984   4.141  23.863  10.102
39670W        W11985  14.392  28.370  11.640
39671W        W11986  31.350   5.062   4.116
39672W        W11987  38.708  38.412  10.693
39673W        W11988  22.256  38.900  10.667
39674W        W11989  16.683  22.093  14.508
39675W        W11990  16.211  14.202   1.116
39676W        W11991  35.433  26.064   2.685
39677W        W11992  39.502  36.095   1.005
39678W        W11993  28.366   3.170   2.018
39679W        W11994   7.836  39.668   0.589
39680W        W11995   5.457  17.566  12.975
39681W        W11996  12.544  26.491   1.811
39682W        W11997  29.932  31.652  10.506
39683W        W11998  17.714  22.992  14.564
39684W        W11999  31.062   6.266  11.000
39685W        W12000   2.474  15.864  11.129
39686W        W12001  24.472  35.353  12.079
39687W        W12002  28.532  23.799   3.147
39688W        W12003   2.381  44.751  10.587
39689W        W12004  34.071  21.279  11.077
39690W        W12005  20.093   7.747  12.523
39691W        W12006  17.631  22.697   0.513
39692W        W12007   9.247  42.726   0.463
39693W        W12008  15.675  40.320  13.952
39694W        W12009  37.363  29.864  11.089
39695W        W12010  29.047  22.250  13.376
39696W        W12011  33.400  37.873   3.206
39697W        W12012  35.614  10.379  14.933
39698W        W12013  23.768  10.817  12.563
39699W        W12014  17.243  43.994  12.931
39700W        W12015  33.328  17.625  10.967
39701W        W12016  21.957   9.907   3.819
39702W        W12017   9.281  20.338  14.334
39703W        W12018  36.373   9.459  13.549
39704W        W12019  30.417   1.514   1.294
39705W        W12020  26.653   8.218  12.178
39706W        W12021  22.643  24.237   3.603
39707W        W12022  28.495  19.977  10.583
39708W        W12023  13.727  12.066  13.201
39709W        W12024  25.193  30.582   2.770
39710W        W12025   0.955  21.184   0.215
39711W        W12026  29.152   7.722   1.664
39712W        W12027  16.332  24.875  11.557
39713W        W12028  13.612  27.261   0.304
39714W        W12029  37.622  16.553  11.080
39715W        W12030   3.469  34.832   4.162
39716W        W12031  33.419   2.644  14.385
39717W        W12032  23.923  16.589   3.727
39718W        W12033  40.105   2.538   3.487
39719W        W12034  44.303  32.004   4.016
39720W        W12035   0.313  20.531  12.441
39721W        W12036  34.491  15.108   1.696
39722W        W12037   8.745  39.106  12.952
39723W        W12038  19.718  42.228   0.371
39724W        W12039  36.544  12.248  11.581
39725W        W12040  41.119  42.967  11.664
39726W        W12041   3.263  25.955   0.848
39727W        W12042  33.899   8.138  13.406
39728W        W12043  26.391  19.089   0.467
39729W        W12044  38.914  10.287  13.087
39730W        W12045  23.305   4.211   3.639
39731W        W12046   4.873  43.173  14.619
39732W        W12047  38.908  34.789  14.437
39733W        W12048   8.957  22.078   0.513
39734W        W12049   9.431  31.820   3.613
39735W        W12050  12.861  18.650   4.865
39736W        W12051  40.587  15.232   4.842
39737W        W12052  27.956  12.259  11.073
39738W        W12053  17.155  27.129  10.606
39739W        W12054   1.406  16.291   0.031
39740W        W12055  41.279  35.904   2.401
39741W        W12056  11.902  36.905  14.446
39742W        W12057  12.896  29.590   2.190
39743W        W12058  19.175  44.431  13.670
39744W        W12059   1.849  24.045   3.510
39745W        W12060  20.788  35.457  10.960
39746W        W12061  33.563  27.601  10.332
39747W        W12062  44.239  11.113   4.095
39748W        W12063  30.982  17.114   9.800
39749W        W12064  27.586  42.104   2.634
39750W        W12065  23.047  10.098   0.415
39751W        W12066  39.780  38.804   4.376
39752W        W12067  13.772  36.624   0.385
39753W        W12068   9.772  10.410   3.113
39754W        W12069   3.188  13.627  12.002
39755W        W12070  11.649   8.167   0.856
39756W        W12071  23.837  37.324   3.212
39757W        W12072  25.408  33.049  11.188
39758W        W12073  23.721   5.726   4.114
39759W        W12074  21.197   0.770  13.413
39760W        W12075  35.070  36.684   0.728
39761W        W12076  36.897   8.851  11.646
39762W        W12077   6.962  23.011  11.622
39763W        W12078  19.317   5.309  13.515
39764W        W12079  15.586   3.420   1.251
39765W        W12080  42.416  43.232  13.938
39766W        W12081  18.262   5.443  10.612
39767W        W12082  38.973   3.673  10.545
39768W        W12083   6.887  30.069   1.828
39769W        W12084   7.521  32.030   1.459
39770W        W12085  16.757  44.965   2.403
39771W        W12086  17.653  14.739  10.581
39772W        W12087   4.820   6.871  10.861
39773W        W12088  40.100   4.253  13.864
39774W        W12089  35.580  20.491   2.644
39775W        W12090  36.276  36.411   5.049
39776W        W12091  43.814  44.407  13.964
39777W        W12092   5.204   4.749   4.204
39778W        W12093   5.971  40.310  12.157
39779W        W12094   3.018   1.912   1.007
39780W        W12095   3.714  37.469   2.052
39781W        W12096  11.410  35.522   1.227
39782W        W12097  30.933  43.778  12.280
39783W        W12098   0.462  25.068  12.960
39784W        W12099  40.229  12.482   3.395
39785W        W12100  21.692  21.480   0.739
39786W        W12101  43.824   6.266   3.831
39787W        W12102   3.997   4.314   2.212
39788W        W12103  12.601   1.188   2.375
39789W        W12104  24.570  30.326  10.587
39790W        W12105   1.037  22.446   3.631
39791W        W12106  15.299  12.029   3.274
39792W        W12107  36.789  21.329  10.673
39793W        W12108  34.524   1.179  12.051
39794W        W12109  41.943  11.226  10.314
39795W        W12110  32.648  44.315  11.883
39796W        W12111   0.413  15.053   4.667
39797W        W12112  18.509  41.233  14.374
39798W        W12113   8.201  22.599  10.516
39799W        W12114   0.667  14.160   4.952
39800W        W12115  24.624  27.094   1.134
39801W        W12116   1.391  39.672   1.738
39802W        W12117  33.662  31.207  10.959
39803W        W12118  34.048   2.249  13.531
39804W        W12119  16.289   0.727   3.099
39805W        W12120   9.845  20.029  13.965
39806W        W12121  17.550  28.887   1.334
39807W        W12122   6.692  10.167  14.638
39808W        W12123   5.720  40.802  13.997
39809W        W12124  35.891   9.252   3.078
39810W        W12125   8.662  38.234   4.612
39811W        W12126  26.022  28.934   0.230
39812W        W12127  40.430   9.436  12.660
39813W        W12128  41.203   8.341   1.817
39814W        W12129   8.930  35.560  14.886
39815W        W12130  34.365  12.643   1.474
39816W        W12131  29.645  22.611  14.794
39817W        W12132  37.928  37.137  10.520
39818W        W12133  38.392  18.628  13.661
39819W        W12134  17.559  27.710  11.417
39820W        W12135  22.093  16.343  12.283
39821W        W12136  29.072  24.726   3.735
39822W        W12137  17.313   6.906  11.560
39823W        W12138   2.308   2.475  12.034
39824W        W12139  33.006  31.668   3.630
39825W        W12140  14.590   5.542  11.426
39826W        W12141  23.315  34.307  14.207
39827W        W12142  43.402  42.925  12.316
39828W        W12143  40.271  26.935  11.488
39829W        W12144   3.072  43.986   4.115
39830W        W12145  35.857  29.183  13.362
39831W        W12146  26.986  29.499   2.603
39832W        W12147  22.910  15.569  11.083
39833W        W12148  12.878  29.320   2.698
39834W        W12149  15.758  12.383   4.556
39835W        W12150  33.013  30.586  13.529
39836W        W12151  17.007  10.572   1.326
39837W        W12152  31.333  22.683   0.828
39838W        W12153   0.718   5.691   2.144
39839W        W12154  14.053  42.871   2.801
39840W        W12155  43.239  40.335  13.875
39841W        W12156  24.540   8.918  13.797
39842W        W12157  40.983   4.415   4.074
39843W        W12158  31.148   5.301  10.604
39844W        W12159  41.109  16.705  11.128
39845W        W12160  12.119  42.933  12.022
39846W        W12161  28.447  15.061   1.612
39847W        W12162  24.721   2.119   4.629
39848W        W12163   9.767  39.869   2.191
39849W        W12164  21.094  16.238   4.148
39850W        W12165  16.676  25.499   0.733
39851W        W12166  21.240  30.664   3.721
39852W        W12167   8.461  19.252  12.973
39853W        W12168   6.335  13.404  14.760
39854W        W12169  13.845   6.717  14.745
39855W        W12170  25.073  16.443  13.019
39856W        W12171  42.358  10.334   4.634
39857W        W12172  42.838  34.075  12.390
39858W        W12173  15.063  44.978  12.328
39859W        W12174  43.789   8.014   4.170
39860W        W12175  32.978  14.280  12.037
39861W        W12176  27.368  25.017   2.446
39862W        W12177  41.523  35.383   3.605
39863W        W12178  43.436  13.865   1.102
39864W        W12179  11.848  16.850   2.648
39865W        W12180  44.006  14.797  14.534
39866W        W12181   9.688  38.365  11.728
39867W        W12182  19.286   2.954  13.879
39868W        W12183  16.350  14.312  11.594
39869W        W12184  22.068   7.500  14.442
39870W        W12185   6.727  30.632   3.459
39871W        W12186  16.672  36.849  13.883
39872W        W12187  20.159  44.339  14.971
39873W        W12188  35.946  13.125  11.932
39874W        W12189  36.995  15.516   4.592
39875W        W12190  21.216  26.919  12.576
39876W        W12191  37.064  20.173   4.667
39877W        W12192  40.298  19.050   1.883
39878W        W12193  15.292  43.918   0.274
39879W        W12194  22.812  12.942   2.740
39880W        W12195  25.970  12.804   3.194
39881W        W12196  29.515  24.258   4.602
39882W        W12197  43.929   2.205  11.909
39883W        W12198  24.309  39.889  12.912
39884W        W12199  20.665  21.773   4.074
39885W        W12200  25.510  28.921   2.428
39886W        W12201  36.337  14.650  10.636
39887W        W12202   7.240  44.681   4.596
39888W        W12203   1.879   5.475   0.486
39889W        W12204   0.806  28.019  10.678
39890W        W12205   3.201   9.066  14.873
39891W        W12206   3.758  10.649   1.474
39892W        W12207   4.773  43.942   1.131
39893W        W12208  27.054   6.000   4.091
39894W        W12209  17.695   8.893   1.859
39895W        W12210  21.725   9.142  14.797
39896W        W12211  22.698  43.391   2.114
39897W        W12212  30.532  11.902   3.358
39898W        W12213   8.728   7.716  14.023
39899W        W12214  34.024  21.261   0.416
39900W        W12215  23.738  32.898   0.845
39901W        W12216  21.193  31.461  11.520
39902W        W12217   3.853   7.579   1.165
39903W        W12218   5.879  44.284  11.025
39904W        W12219  42.078  36.332  13.008
39905W        W12220  43.542   6.971  13.381
39906W        W12221   3.750   5.024   0.913
39907W        W12222  23.178   8.471   1.046
39908W        W12223  40.571  43.569   3.838
39909W        W12224  22.624  24.062   2.654
39910W        W12225   6.583   4.374   4.158
39911W        W12226  11.888  18.791  13.981
39912W        W12227   0.367  40.469  13.575
39913W        W12228  29.352  42.428  12.503
39914W        W12229   8.543   2.278   0.671
39915W        W12230  42.843   3.370  14.056
39916W        W12231   7.698  42.908   3.862
39917W        W12232  13.851   8.543   3.040
39918W        W12233  22.820  26.198   0.222
39919W        W12234  32.535  23.412  13.473
39920W        W12235  30.569  10.674   1.537
39921W        W12236  25.963  21.236   0.704
39922W        W12237  34.650  25.154  13.508
39923W        W12238  37.036  17.264   4.997
39924W        W12239  36.178  32.738   4.637
39925W        W12240   0.788   3.205   4.422
39926W        W12241  16.235   7.180  11.905
39927W        W12242  13.881  29.172   2.788
39928W        W12243  10.138   1.910   3.869
39929W        W12244  37.446  15.023  12.066
39930W        W12245   5.781   5.441  12.465
39931W        W12246  22.456  35.511  12.042
39932W        W12247  12.877  32.567  11.983
39933W        W12248   7.746   5.216   4.454
39934W        W12249  15.555  42.017   3.775
39935W        W12250  37.300  22.523   1.664
39936W        W12251   7.169  27.546  14.627
39937W        W12252   1.496   2.775   1.380
39938W        W12253  31.134  39.620   3.875
39939W        W12254  11.809   7.064  11.842
39940W        W12255   7.663  22.607   1.292
39941W        W12256   9.255  37.098  12.413
39942W        W12257   4.322   3.379   3.119
39943W        W12258  15.690   9.820   3.549
39944W        W12259  44.666  18.516   1.430
39945W        W12260  12.458   8.778   0.382
39946W        W12261  15.104  14.621   2.869
39947W        W12262   6.710   2.326   2.315
39948W        W12263   4.684  28.676   1.231
39949W        W12264   0.014  16.276  14.994
39950W        W12265  14.223   1.795   1.611
39951W        W12266  30.617   6.212  14.317
39952W        W12267  20.012   6.814  12.513
39953W        W12268  12.357  28.705   2.434
39954W        W12269  21.678  30.001   2.097
39955W        W12270  31.142  24.224   3.697
39956W        W12271  13.797  35.384  12.663
39957W        W12272  43.990  31.327   2.641
39958W        W12273  19.072  15.762  14.881
39959W        W12274  24.600  32.483   1.848
39960W        W12275  30.628  37.803   1.948
39961W        W12276  21.941  41.555   4.321
39962W        W12277  38.896  40.496   3.056
39963W        W12278   3.752  12.825  11.376
39964W        W12279  23.721  32.578  12.977
39965W        W12280  23.014  42.954   2.183
39966W        W12281  40.949   3.285   0.924
39967W        W12282   3.847  31.852  13.594
39968W        W12283  11.173  18.845   3.134
39969W        W12284  15.095   8.733   3.872
39970W        W12285   9.090  34.404  13.517
39971W        W12286  10.139  38.240  14.530
39972W        W12287   6.789   2.634  10.461
39973W        W12288   2.770   2.073  14.800
39974W        W12289  29.555  10.772   0.211
39975W        W12290  10.420  36.264   1.148
39976W        W12291  33.600  20.837  13.039
39977W        W12292  17.446   0.491   9.945
39978W        W12293  22.123  34.825  13.301
39979W        W12294  11.750  39.361  14.382
39980W        W12295  16.034   9.758   0.903
39981W        W12296   6.598  16.067   0.818
39982W        W12297  42.465  37.268  13.103
39983W        W12298  19.987  30.216   1.497
39984W        W12299   5.127  36.396  13.318
39985W        W12300  34.591  26.636  13.507
39986W        W12301   2.895  11.349   3.878
39987W        W12302  24.297   0.461   2.782
39988W        W12303  18.243  26.645   9.847
39989W        W12304  16.764  29.565  12.466
39990W        W12305  13.734   2.168  12.119
39991W        W12306  15.146   4.167  11.519
39992W        W12307   3.867   0.541   4.325
39993W        W12308  11.629  35.624   1.724
39994W        W12309   6.794  17.760   1.165
39995W        W12310  38.870   6.407   3.246
39996W        W12311   2.761  20.185  11.985
39997W        W12312  43.992  17.169   3.640
39998W        W12313  38.043  33.437   2.297
39999W        W12314  43.338  44.560  12.023
40000W        W12315  25.553  24.513  13.368
40001W        W12316  18.080  44.423  14.444
40002W        W12317  36.027   2.976   3.265
40003W        W12318  31.776   4.892  10.793
40004W        W12319   5.655   1.778   3.267
40005W        W12320  16.500   0.063  12.376
40006W        W12321   9.202   9.572   3.123
40007W        W12322  17.213  42.590  14.493
40008W        W12323  25.090  40.043   4.265
40009W        W12324   9.729   1.471   2.036
40010W        W12325  10.790  43.528  13.565
40011W        W12326  27.579  12.635   4.403
40012W        W12327  44.401  27.138   1.651
40013W        W12328  12.741   7.597  14.943
40014W        W12329  20.910  29.688  11.067
40015W        W12330  20.701  17.630  11.118
40016W        W12331  13.036  29.734   3.487
40017W        W12332  35.906  15.320   1.360
40018W        W12333  38.768  29.643   1.466
40019W        W12334  31.345   3.498  11.655
40020W        W12335  43.034  36.000  11.607
40021W        W12336   6.101  42.821  11.669
40022W        W12337  39.310  16.519   0.494
40023W        W12338  39.786  44.015  13.937
40024W        W12339  36.969  18.844   0.297
40025W        W12340  42.704  42.877   1.457
40026W        W12341   1.304  36.313   2.399
40027W        W12342  11.863  18.007  13.048
40028W        W12343  37.593  37.359  13.424
40029W        W12344  35.672   4.608  13.387
40030W        W12345  41.930   9.113   4.146
40031W        W12346  25.778  37.273   1.838
40032W        W12347  37.346  21.763  12.874
40033W        W12348  26.961  34.829  10.599
40034W        W12349  32.030  22.394   3.512
40035W        W12350  37.918  26.441  14.531
40036W        W12351   9.683  31.477  12.974
40037W        W12352  17.032  36.951   0.803
40038W        W12353   8.842  33.589   2.634
40039W        W12354  44.926  43.815   4.476
40040W        W12355  40.362  33.594  13.357
40041W        W12356  34.439  43.912   0.012
40042W        W12357  15.609  27.323   1.405
40043W        W12358  41.923  19.870   3.034
40044W        W12359  30.078  17.619  11.040
40045W        W12360  17.218   2.824   4.725
40046W        W12361  12.942  16.467   4.181
40047W        W12362   7.861  29.967   0.833
40048W        W12363  38.019  10.244   4.224
40049W        W12364   5.869   3.478   4.401
40050W        W12365   6.683  27.687   0.862
40051W        W12366  41.961  15.519  12.099
40052W        W12367  19.636  23.789   4.238
40053W        W12368  44.782   5.911  14.829
40054W        W12369  14.718   7.320   0.217
40055W        W12370  37.788  26.166   0.398
40056W        W12371  13.281  24.990  13.005
40057W        W12372   9.978   6.223  12.452
40058W        W12373  30.046  11.447   2.308
40059W        W12374  43.064  20.709   4.673
40060W        W12375   9.951  44.857   1.768
40061W        W12376  36.062  16.422  14.680
40062W        W12377  30.555  11.042   3.608
40063W        W12378   7.331   6.236   3.721
40064W        W12379   8.845  23.100   1.838
40065W        W12380  18.156  29.004  13.912
40066W        W12381  15.387  28.505  12.894
40067W        W12382  24.595  17.227  10.660
40068W        W12383  36.026  11.623  13.904
40069W        W12384   3.710  15.717  11.645
40070W        W12385  27.757  13.018  14.432
40071W        W12386  28.056  30.976  11.665
40072W        W12387  11.593  34.505   0.333
40073W        W12388  14.363  39.493  10.676
40074W        W12389  35.593  11.128   0.052
40075W        W12390  11.659  31.855   1.232
40076W        W12391  23.333  21.523  12.983
40077W        W12392  23.065  28.221  13.992
40078W        W12393   2.775  38.986  13.977
40079W        W12394  33.662  22.880   2.818
40080W        W12395   8.810  40.892   0.945
40081W        W12396  28.997  28.929  11.174
40082W        W12397  24.204   9.863   1.237
40083W        W12398  37.252  22.225   2.983
40084W        W12399   4.860  31.181  13.920
40085W        W12400   8.699   4.354  12.530
40086W        W12401  23.799  30.616  12.027
40087W        W12402   8.768  27.608  14.715
40088W        W12403  12.063  30.024  13.338
40089W        W12404   2.908   3.232   2.694
40090W        W12405  34.461  40.360   1.287
40091W        W12406  25.962  33.927   4.683
40092W        W12407  13.865  31.264  11.591
40093W        W12408  40.077  44.228  11.154
40094W        W12409  33.398  26.519   4.021
40095W        W12410  22.044  19.175   5.377
40096W        W12411  25.091  25.542   4.999
40097W        W12412  30.962  33.370   2.947
40098W        W12413  30.025   3.874  14.294
40099W        W12414  13.310   6.444   4.400
40100W        W12415   3.779  21.800  13.123
40101W        W12416  34.489   1.763  13.528
40102W        W12417  31.178  11.874   0.943
40103W        W12418  10.916  27.166   1.919
40104W        W12419  36.168  33.651  10.139
40105W        W12420  41.907  40.554  10.759
40106W        W12421  17.117  28.446   4.275
40107W        W12422   5.217  20.253  11.048
40108W        W12423  44.494  13.314   3.111
40109W        W12424  23.039  43.917   4.641
40110W        W12425  18.640  44.573  12.495
40111W        W12426  12.528  14.120  14.488
40112W        W12427   5.406  44.553   3.552
40113W        W12428  15.279  33.097   3.396
40114W        W12429  26.546  26.983   2.611
40115W        W12430  30.070  22.319   3.732
40116W        W12431  29.661  32.989  13.812
40117W        W12432   5.341   3.925   4.349
40118W        W12433  23.568  40.344   3.205
40119W        W12434  44.686  12.634   3.702
40120W        W12435   4.318  36.168  10.717
40121W        W12436  20.489  34.007  13.059
40122W        W12437  41.936  16.171  11.300
40123W        W12438  32.588  20.260   0.257
40124W        W12439   4.017  43.915  12.586
40125W        W12440  15.093   5.375  11.457
40126W        W12441  15.696  32.853  12.896
40127W        W12442  12.926  26.638  12.493
40128W        W12443  22.736  37.589  14.285
40129W        W12444   8.764  39.360  14.294
40130W        W12445  36.476   7.939   0.973
40131W        W12446  17.335  14.255  14.370
40132W        W12447  44.908  30.898  14.505
40133W        W12448  25.731   9.573  11.553
40134W        W12449  13.006  44.909  13.172
40135W        W12450   4.513  32.093   2.239
40136W        W12451   1.472   2.396  11.899
40137W        W12452   9.679  34.698  11.018
40138W        W12453  32.586  25.205  14.770
40139W        W12454  23.266   0.326   1.471
40140W        W12455  33.403  21.267   2.873
40141W        W12456  25.569  32.737   1.755
40142W        W12457  34.683  11.371  13.456
40143W        W12458  10.633  22.964   1.926
40144W        W12459  38.818  37.914  11.924
40145W        W12460  32.593  25.676   4.780
40146W        W12461  22.449  22.231   3.752
40147W        W12462  31.083   8.219  14.313
40148W        W12463   0.339  27.000  12.918
40149W        W12464  13.988  39.997   0.474
40150W        W12465  42.733   8.727  11.677
40151W        W12466  39.423  19.593  13.762
40152W        W12467  12.649  38.591   0.823
40153W        W12468  39.051  21.602   4.595
40154W        W12469  23.572  14.758   0.251
40155W        W12470   3.328  10.616   1.817
40156W        W12471  31.280  28.632  11.742
40157W        W12472  36.072  36.703   1.786
40158W        W12473   4.811   9.347  13.522
40159W        W12474  22.638  35.868  14.018
40160W        W12475  32.116  19.718   2.712
40161W        W12476  39.370  26.741  11.925
40162W        W12477  40.248  27.934   0.740
40163W        W12478  37.007  39.624   2.876
40164W        W12479  26.544  26.020   1.684
40165W        W12480  36.132  34.567  11.190
40166W        W12481  28.051  38.218   3.015
40167W        W12482  29.607  38.401  12.065
40168W        W12483  31.507  25.039   2.415
40169W        W12484  21.048  27.574  12.053
40170W        W12485  36.612  24.986   0.290
40171W        W12486  33.457  34.008  11.642
40172W        W12487  35.423  44.907   2.763
40173W        W12488  39.410  23.319  11.598
40174W        W12489   5.753  32.150  12.115
40175W        W12490  16.717  43.980  12.884
40176W        W12491   8.579  42.942  11.482
40177W        W12492   0.955  27.532   0.469
40178W        W12493   5.584  21.493   1.705
40179W        W12494  41.026  21.812   0.033
40180W        W12495   7.018  11.849   1.928
40181W        W12496  20.957  41.562   4.526
40182W        W12497   2.290   7.182   3.894
40183W        W12498   5.482  23.293   4.192
40184W        W12499  12.916  41.561   0.939
40185W        W12500   8.703   1.224   0.870
40186W        W12501  25.963  18.492   2.206
40187W        W12502   8.366  18.317  12.378
40188W        W12503  18.690  16.299   3.741
40189W        W12504  12.084  11.171   1.405
40190W        W12505  25.470  24.995   1.512
40191W        W12506  35.479  42.227  12.135
40192W        W12507  41.910  11.310   4.043
40193W        W12508  39.836   3.054  12.571
40194W        W12509  18.326  31.594  12.488
40195W        W12510  20.148  27.111  14.979
40196W        W12511   6.392  44.675   2.860
40197W        W12512   0.923  30.962  14.452
40198W        W12513  14.177  34.377   0.299
40199W        W12514  28.189  21.316  10.591
40200W        W12515  24.188   5.612   0.767
40201W        W12516   0.549   0.925  11.452
40202W        W12517  20.032  29.240  13.063
40203W        W12518  24.560  44.902  11.171
40204W        W12519  41.489  21.384   1.326
40205W        W12520   0.935  43.591   2.335
40206W        W12521  36.486  19.464   2.200
40207W        W12522  28.149  39.147   5.151
40208W        W12523  12.791   9.839   4.505
40209W        W12524  38.510  38.810   3.564
40210W        W12525  30.994  38.061   0.515
40211W        W12526  24.250  16.923   1.366
40212W        W12527  17.682  10.898  11.506
40213W        W12528  32.475  18.444  14.914
40214W        W12529  42.824  15.225   3.134
40215W        W12530  38.607  13.632   0.220
40216W        W12531  17.303   1.425  12.998
40217W        W12532  34.929  31.044  14.747
40218W        W12533   7.337  38.583  14.025
40219W        W12534  30.105  15.554   0.394
40220W        W12535  28.966  32.728   3.162
40221W        W12536  14.249  10.805   1.311
40222W        W12537  27.936  25.172  12.251
40223W        W12538   8.543  44.097   1.733
40224W        W12539  18.762  43.701  10.825
40225W        W12540   4.412  43.234  14.315
40226W        W12541  35.972  22.517  12.903
40227W        W12542   9.908  43.739   3.903
40228W        W12543  11.260  40.629   4.654
40229W        W12544   2.824  24.026   0.409
40230W        W12545  31.726   0.862   3.116
40231W        W12546  12.327  10.326  13.507
40232W        W12547   6.254  44.190   1.888
40233W        W12548  14.021  14.322  11.923
40234W        W12549   9.482  27.453   2.448
40235W        W12550  40.610  13.599  14.809
40236W        W12551  32.535   7.762   0.195
40237W        W12552  21.193  11.788  10.925
40238W        W12553   4.232  12.221   1.919
40239W        W12554  14.826  15.645  14.466
40240W        W12555  39.945  44.900   4.156
40241W        W12556   2.704  13.441   5.156
40242W        W12557  11.455  36.432   4.310
40243W        W12558  40.573   9.163   4.539
40244W        W12559  40.950  10.651   0.860
40245W        W12560  16.499   6.412  11.188
40246W        W12561  15.014  17.024   1.708
40247W        W12562  16.161  21.141   4.499
40248W        W12563   1.406  43.288   0.279
40249W        W12564  25.487   0.736   4.334
40250W        W12565   2.058  31.144   2.823
40251W        W12566  41.552  16.691   1.376
40252W        W12567  19.911   7.594  14.423
40253W        W12568  11.131  11.357  11.622
40254W        W12569  40.898  32.550  14.631
40255W        W12570  12.793   3.047  13.546
40256W        W12571  36.836  12.648  12.429
40257W        W12572  20.514  23.105  10.934
40258W        W12573   9.088   5.795  14.020
40259W        W12574  10.779  40.849   3.850
40260W        W12575  29.505  37.616   4.547
40261W        W12576  41.009  38.482  14.452
40262W        W12577  10.705   4.378  10.902
40263W        W12578  20.671   3.832   4.390
40264W        W12579   1.875  10.533   3.691
40265W        W12580  35.602  28.966   0.813
40266W        W12581  11.248  41.798   1.891
40267W        W12582  13.856  36.626  11.558
40268W        W12583  17.699  24.751  10.545
40269W        W12584  22.525  19.992  11.677
40270W        W12585  23.179  17.003  14.667
40271W        W12586  36.539  12.714  14.890
40272W        W12587  42.079  43.205   3.680
40273W        W12588  22.116  40.010  14.330
40274W        W12589   0.622  38.980  11.642
40275W        W12590  18.619  41.906   4.550
40276W        W12591  24.109  11.328  13.143
40277W        W12592  41.408  37.883  13.829
40278W        W12593  19.565   5.915   1.565
40279W        W12594  39.880  19.884  10.784
40280W        W12595   2.779  14.845   2.397
40281W        W12596  13.373  35.559  14.564
40282W        W12597  12.956  25.677   4.177
40283W        W12598   9.758   2.390  13.163
40284W        W12599   7.592  18.777   4.577
40285W        W12600  22.214  43.334  14.054
40286W        W12601   5.176  19.968  14.055
40287W        W12602  41.524  37.834   2.705
40288W        W12603   4.890  25.063   4.311
40289W        W12604  44.476  31.204   4.264
40290W        W12605  13.632  19.307  12.985
40291W        W12606  27.729  28.461  13.802
40292W        W12607  10.616  19.873  13.582
40293W        W12608   1.791  13.667  11.218
40294W        W12609  36.960  26.131   0.741
40295W        W12610  21.801  17.849   3.691
40296W        W12611  39.787  37.876  11.068
40297W        W12612   2.013  24.650  12.429
40298W        W12613  16.114  37.089  13.268
40299W        W12614  31.213  21.702  13.493
40300W        W12615  33.516  22.762  11.667
40301W        W12616  10.034  33.631  13.958
40302W        W12617  31.994  30.221  13.741
40303W        W12618  31.366  14.569  13.491
40304W        W12619  15.786  26.906   3.166
40305W        W12620  25.374  26.738  11.540
40306W        W12621  43.825  30.888  10.549
40307W        W12622   6.239  22.543  12.453
40308W        W12623  33.446  37.334  12.071
40309W        W12624  39.045   3.468   3.246
40310W        W12625   4.702   5.271   2.646
40311W        W12626  20.812   1.696  12.054
40312W        W12627  33.876   4.306  14.450
40313W        W12628  15.295   6.863   0.922
40314W        W12629  37.328  43.394   2.144
40315W        W12630  39.822  30.191  12.961
40316W        W12631  30.583  15.876  13.756
40317W        W12632  16.770   7.653   2.838
40318W        W12633  17.541  30.537  11.380
40319W        W12634  18.092   0.582   4.225
40320W        W12635  39.477  14.068   0.328
40321W        W12636  11.852  10.260  11.116
40322W        W12637  32.834   7.795   3.902
40323W        W12638  13.338  43.920  13.656
40324W        W12639  26.156  12.154  11.491
40325W        W12640  19.663  39.870  13.849
40326W        W12641  39.559  43.390   0.018
40327W        W12642  40.042  29.048  11.494
40328W        W12643  27.734  14.049   4.198
40329W        W12644   2.018  12.159   2.908
40330W        W12645  37.857   2.879   4.522
40331W        W12646  39.029  18.169  13.148
40332W        W12647  15.071   1.993  11.049
40333W        W12648  38.407  17.774  12.635
40334W        W12649  35.383  30.781   4.105
40335W        W12650  28.592  39.278  14.681
40336W        W12651  12.685  17.284   4.999
40337W        W12652   6.688  12.737  11.198
40338W        W12653  23.282   4.701  11.214
40339W        W12654  15.886  24.895   3.808
40340W        W12655  16.045  35.667  13.366
40341W        W12656  26.990  39.081  10.788
40342W        W12657  39.981  35.574   4.678
40343W        W12658  29.455  33.481   4.129
40344W        W12659  41.905  26.568   0.421
40345W        W12660  33.178  22.646   4.488
40346W        W12661  29.954  14.133  12.022
40347W        W12662   5.471  29.581  13.009
40348W        W12663  27.558  43.564  13.549
40349W        W12664   6.713  42.040  12.535
40350W        W12665   8.179  24.679  11.624
40351W        W12666  18.149  43.263   4.546
40352W        W12667  32.547  38.677   2.386
40353W        W12668  28.501  40.000  13.039
40354W        W12669   6.772   9.630  11.938
40355W        W12670  27.042  21.802   3.356
40356W        W12671   3.988  22.529   0.485
40357W        W12672  10.704  39.824  10.284
40358W        W12673  40.304   5.395  14.518
40359W        W12674  34.184  19.133  12.421
40360W        W12675   8.671  22.788   2.260
40361W        W12676  44.179  40.040  14.870
40362W        W12677   8.177  36.475   0.912
40363W        W12678  26.008  17.151  12.442
40364W        W12679  38.893   8.032   2.726
40365W        W12680   6.415  18.041  13.983
40366W        W12681  44.844  43.331   4.680
40367W        W12682  13.873  18.300  13.754
40368W        W12683  28.001  32.170   0.784
40369W        W12684  11.572   1.321  14.288
40370W        W12685   5.312  36.548   4.851
40371W        W12686  11.197   3.828   4.584
40372W        W12687  20.312  21.698  12.552
40373W        W12688   1.175  12.841  12.851
40374W        W12689   4.697  36.593  13.066
40375W        W12690  29.927  27.563   3.221
40376W        W12691  16.489  35.014   4.806
40377W        W12692  36.372  30.849  14.697
40378W        W12693  38.859   4.956  11.102
40379W        W12694   0.222  15.067  11.023
40380W        W12695   6.491  42.446  13.479
40381W        W12696   8.222  42.562  12.047
40382W        W12697  34.631  41.102   1.802
40383W        W12698  11.635  32.090  14.718
40384W        W12699  10.283  32.774  13.839
40385W        W12700  41.050  17.052   0.021
40386W        W12701  29.672  20.229   1.820
40387W        W12702  24.958  21.456   1.376
40388W        W12703  39.810  14.145  14.051
40389W        W12704  42.161   5.696   3.231
40390W        W12705  14.814  13.734  11.728
40391W        W12706   2.673  20.183   2.710
40392W        W12707  20.295  18.629  13.858
40393W        W12708  25.809  31.414   3.587
40394W        W12709  31.964  12.854  10.825
40395W        W12710  41.391  44.301   3.522
40396W        W12711  36.612  17.255   3.343
40397W        W12712  16.099   9.929   2.739
40398W        W12713  10.501  21.435  10.725
40399W        W12714  33.743  42.473  14.810
40400W        W12715  33.844  15.894  12.416
40401W        W12716   2.895  44.839  11.089
40402W        W12717  17.634   9.180   3.190
40403W        W12718  35.297   3.422   2.807
40404W        W12719  42.931   4.745  11.878
40405W        W12720  26.062  15.824   2.720
40406W        W12721   1.764  35.358   0.284
40407W        W12722  33.328  22.257  10.703
40408W        W12723  33.289  38.135   2.778
40409W        W12724  12.946  44.729  10.508
40410W        W12725   2.123  23.156   0.195
40411W        W12726  11.708  18.247   2.211
40412W        W12727   5.757  22.966   3.844
40413W        W12728   9.196  30.098   2.096
40414W        W12729  21.698  23.851   3.667
40415W        W12730  16.122  18.262   1.921
40416W        W12731   7.391  35.690   1.323
40417W        W12732  12.803  23.989   2.627
40418W        W12733   3.259  16.204  13.850
40419W        W12734   9.262  15.296   1.253
40420W        W12735   5.730  24.687   4.157
40421W        W12736   4.748   6.819  12.338
40422W        W12737  43.347   1.680   2.380
40423W        W12738  31.871  22.209  13.197
40424W        W12739  10.832   2.787   1.413
40425W        W12740  25.337  20.211  10.500
40426W        W12741   2.766   7.276   3.695
40427W        W12742  17.071  19.817   3.718
40428W        W12743  42.472  11.635   1.194
40429W        W12744  36.824  24.727   5.019
40430W        W12745   7.045  35.472   0.982
40431W        W12746   4.383  15.838  12.053
40432W        W12747  27.090  31.410  12.231
40433W        W12748  13.278  22.493   4.946
40434W        W12749  38.857   7.955  12.938
40435W        W12750  18.249  12.048  13.470
40436W        W12751   7.462  41.969   4.521
40437W        W12752  12.737  24.902  12.244
40438W        W12753   5.869  23.918   2.998
40439W        W12754  33.427   9.942   1.449
40440W        W12755  37.853  41.278  13.420
40441W        W12756  11.635  37.662  10.802
40442W        W12757   2.494  17.525  13.858
40443W        W12758   3.068  33.098   4.112
40444W        W12759  12.124   7.199   3.725
40445W        W12760  40.987  28.571   4.125
40446W        W12761  33.598  21.526  14.801
40447W        W12762  44.028   9.286   4.690
40448W        W12763  25.495  31.566  11.551
40449W        W12764  36.858  15.260  13.973
40450W        W12765  14.752  24.662  11.125
40451W        W12766  31.998  30.381   0.030
40452W        W12767   8.734   1.405  14.696
40453W        W12768   0.914  24.084   0.256
40454W        W12769   8.805  32.170   0.885
40455W        W12770   5.395  11.663   1.702
40456W        W12771   7.900  41.451  14.863
40457W        W12772  36.333  43.994  14.723
40458W        W12773  25.113  23.618   4.627
40459W        W12774  16.581  16.944  11.134
40460W        W12775  32.539  29.966   0.524
40461W        W12776  20.488  36.840  14.336
40462W        W12777  23.451  43.300  14.534
40463W        W12778   5.667  12.518   3.286
40464W        W12779   9.456  28.170   3.262
40465W        W12780  44.899  24.581   0.849
40466W        W12781  15.851  12.855  11.951
40467W        W12782  10.110   9.872   1.006
40468W        W12783  24.455  34.278  14.796
40469W        W12784  13.611  28.071  14.023
40470W        W12785  15.244  17.140  10.790
40471W        W12786   2.745  43.537  11.197
40472W        W12787  15.850  33.958   1.849
40473W        W12788  31.069  21.618   3.160
40474W        W12789  19.902  23.025  13.966
40475W        W12790  41.953  17.670  12.709
40476W        W12791  28.192  34.304   1.810
40477W        W12792  13.090  34.804   3.816
40478W        W12793  24.246  34.107   1.820
40479W        W12794  34.148  31.344   0.885
40480W        W12795  16.094  40.699   2.840
40481W        W12796  35.154  40.980   4.257
40482W        W12797  10.911  42.362   0.740
40483W        W12798  23.959  43.728  13.771
40484W        W12799  17.933  30.824  11.580
40485W        W12800  38.364   4.802  11.541
40486W        W12801   7.650  32.520   2.318
40487W        W12802  17.724  36.874   1.843
40488W        W12803  13.689  34.061   1.459
40489W        W12804  40.609  30.940   0.666
40490W        W12805  10.831   1.872   2.555
40491W        W12806  15.080  40.314  11.095
40492W        W12807  37.295   0.780   2.369
40493W        W12808   2.821  44.241  11.702
40494W        W12809  37.044  33.640   3.214
40495W        W12810  30.914  31.318   4.177
40496W        W12811  23.368  16.564  14.855
40497W        W12812  29.235  16.173   4.287
40498W        W12813   9.385   3.896   2.132
40499W        W12814  22.067  25.439  12.042
40500W        W12815  34.149  27.120  13.905
40501W        W12816   3.975   6.656  10.755
40502W        W12817   1.284  22.620   4.356
40503W        W12818  26.987  40.758   2.821
40504W        W12819  28.414   7.701   3.711
40505W        W12820  31.099  15.409   3.739
40506W        W12821  13.373   5.177   4.167
40507W        W12822  26.255  22.458   2.312
40508W        W12823  28.161  43.432   3.141
40509W        W12824  18.805   6.259   0.324
40510W        W12825   3.589  43.484  14.104
40511W        W12826  10.408  26.607   4.468
40512W        W12827  14.366  42.475   0.248
40513W        W12828  42.712  44.827  14.314
40514W        W12829  40.221  37.876  12.436
40515W        W12830  41.430  31.644   2.802
40516W        W12831  30.557  13.348  12.638
40517W        W12832  38.534   7.495  12.967
40518W        W12833  34.480  33.633  14.866
40519W        W12834  29.638  13.562  12.092
40520W        W12835   3.873  35.525  13.865
40521W        W12836  44.375  33.501   3.904
40522W        W12837  32.852  26.977   2.304
40523W        W12838  12.676  38.843   3.455
40524W        W12839   6.320  10.779   3.258
40525W        W12840  30.965  27.488   1.199
40526W        W12841  33.909   5.233  11.860
40527W        W12842  16.682  29.034   2.974
40528W        W12843  10.443   3.226  11.379
40529W        W12844  21.609  14.620   2.312
40530W        W12845  26.401  37.997   4.500
40531W        W12846  29.724  28.690  12.790
40532W        W12847  16.060  35.592   2.914
40533W        W12848  28.901  22.746   4.062
40534W        W12849  28.152  19.972  13.994
40535W        W12850  36.236   1.292   1.457
40536W        W12851  18.338  17.625  11.609
40537W        W12852  29.883  36.591  13.475
40538W        W12853  29.503   2.992  12.560
40539W        W12854  32.794   6.431   2.722
40540W        W12855  11.828  11.288   3.136
40541W        W12856  31.364   6.726  13.171
40542W        W12857  20.202  30.474   1.106
40543W        W12858  37.757   3.919   4.913
40544W        W12859   3.042   6.631  11.539
40545W        W12860   1.291  30.646  14.864
40546W        W12861  38.676   0.303  14.166
40547W        W12862   2.264  11.643   3.627
40548W        W12863  30.947  40.096   1.306
40549W        W12864  20.183  30.468  13.569
40550W        W12865  16.067  34.946  13.873
40551W        W12866  16.601  40.002   4.666
40552W        W12867  38.254  17.770  11.683
40553W        W12868  39.363   7.200   2.801
40554W        W12869  19.696  33.789  12.547
40555W        W12870  25.430   6.465  11.970
40556W        W12871  21.626  38.385   2.105
40557W        W12872  33.977  23.630  14.354
40558W        W12873   0.885   4.423   0.390
40559W        W12874  26.930  41.478   0.490
40560W        W12875  36.579  19.679  10.163
40561W        W12876  37.890  12.196  12.896
40562W        W12877  17.657  14.893  12.065
40563W        W12878  17.652  14.994   2.767
40564W        W12879   6.870  10.099  10.698
40565W        W12880   7.569  43.016  11.633
40566W        W12881  44.377  26.595   2.428
40567W        W12882   9.159  14.325  13.425
40568W        W12883  15.359  16.649  13.649
40569W        W12884  39.323  21.030   2.673
40570W        W12885  28.352   5.858  10.913
40571W        W12886  42.774  32.268   1.471
40572W        W12887   5.812  34.191   4.345
40573W        W12888  39.862   0.088  14.302
40574W        W12889  18.615  34.091  11.534
40575W        W12890  14.121  42.356   2.812
40576W        W12891  13.544  36.752  14.190
40577W        W12892  25.617  30.546  10.088
40578W        W12893  13.834  36.287  10.712
40579W        W12894  42.092  39.603  14.080
40580W        W12895  16.706  10.887   2.325
40581W        W12896  26.037  21.430  13.815
40582W        W12897  21.076   8.483   3.555
40583W        W12898  43.936  12.193   3.814
40584W        W12899  32.673  42.469   0.779
40585W        W12900  28.186  20.853   4.092
40586W        W12901   3.456   1.525  14.000
40587W        W12902  38.603  30.151  12.935
40588W        W12903  39.892  36.374   3.643
40589W        W12904   2.059   6.508  13.559
40590W        W12905  44.895  40.555  12.691
40591W        W12906   0.093  35.434  12.012
40592W        W12907  24.049  43.041  12.982
40593W        W12908  24.750  41.104  12.432
40594W        W12909  18.630  17.929  14.854
40595W        W12910  33.607   8.580   1.440
40596W        W12911  22.647  41.867  14.409
40597W        W12912   3.880  37.509   4.990
40598W        W12913   5.425  41.831   1.271
40599W        W12914  27.635   0.109   3.534
40600W        W12915  42.370  33.963   3.332
40601W        W12916  14.723  29.914   0.089
40602W        W12917  32.183  31.626  14.961
40603W        W12918  31.565  18.275  12.474
40604W        W12919   0.234  39.945   2.394
40605W        W12920   1.492  24.705  11.115
40606W        W12921   9.208  17.096   4.460
40607W        W12922  19.217  39.032   2.407
40608W        W12923  44.010   7.726   2.835
40609W        W12924  39.420  25.542   5.798
40610W        W12925  21.311  16.793  12.896
40611W        W12926  10.366  13.057   0.767
40612W        W12927  27.705   5.451   2.859
40613W        W12928  26.012  33.038   2.395
40614W        W12929  34.566   8.787   0.072
40615W        W12930  19.717  21.083  12.181
40616W        W12931  12.257  23.112   4.126
40617W        W12932  29.597  23.148   3.188
40618W        W12933  24.995  34.658  14.153
40619W        W12934   1.726  39.124  10.788
40620W        W12935  17.523   2.708   0.865
40621W        W12936   7.652  19.297  13.826
40622W        W12937  43.759  20.755  10.608
40623W        W12938  36.495   4.506   1.063
40624W        W12939  27.992  12.695   2.152
40625W        W12940   3.590  33.421   3.248
40626W        W12941  26.957  32.378   2.861
40627W        W12942  22.243   7.106   3.313
40628W        W12943  40.553   9.838   3.814
40629W        W12944  18.459  15.109   2.208
40630W        W12945  36.133  26.035   2.348
40631W        W12946  13.278  42.950  14.041
40632W        W12947  30.874  43.524  11.009
40633W        W12948   6.121  14.293  12.275
40634W        W12949  25.922  33.117  11.633
40635W        W12950  18.247  33.130  12.393
40636W        W12951  21.725  44.962  13.124
40637W        W12952  39.812   9.041  12.107
40638W        W12953   7.755  22.595   3.762
40639W        W12954  15.185  30.664  12.879
40640W        W12955  15.048   6.887  13.430
40641W        W12956  30.502  20.576  13.033
40642W        W12957  12.325  17.416   2.322
40643W        W12958  16.802   1.429  13.068
40644W        W12959  35.422  12.764   3.911
40645W        W12960  27.903  35.832  11.609
40646W        W12961  10.753  17.187  10.137
40647W        W12962  22.718  32.873   4.725
40648W        W12963   9.812  27.223   2.959
40649W        W12964  30.634  24.502   2.344
40650W        W12965   1.477  29.577   4.714
40651W        W12966  15.730  22.886   0.843
40652W        W12967  13.795  13.782   2.241
40653W        W12968  42.021  32.063   0.380
40654W        W12969  26.975   3.402  11.428
40655W        W12970  10.228  29.297  12.577
40656W        W12971  41.791  28.007   2.888
40657W        W12972  11.631  27.438  12.916
40658W        W12973  39.758  18.108  10.438
40659W        W12974  25.145  31.541   4.917
40660W        W12975  11.115  38.784  14.865
40661W        W12976   2.690  16.672   1.807
40662W        W12977   1.114   2.029   4.864
40663W        W12978  16.604  30.615  11.508
40664W        W12979  23.521  19.789  12.074
40665W        W12980  23.992  17.022   4.510
40666W        W12981  35.040  12.156  11.478
40667W        W12982  43.905  16.857   2.891
40668W        W12983  27.076  38.358  14.310
40669W        W12984  37.585   0.794  12.548
40670W        W12985  28.415   4.172   2.682
40671W        W12986  26.830  14.191  11.374
40672W        W12987  41.743  18.097  11.987
40673W        W12988  27.185  36.553  13.954
40674W        W12989  12.935  38.104   4.057
40675W        W12990  22.235  44.433  12.970
40676W        W12991  43.251   0.345   4.317
40677W        W12992  31.101   6.924  13.955
40678W        W12993  29.691   1.716  10.617
40679W        W12994   1.788   5.807   1.350
40680W        W12995   2.773  19.837   2.338
40681W        W12996   7.453  20.647  13.031
40682W        W12997  37.940  24.672   2.169
40683W        W12998   4.951  42.420   4.669
40684W        W12999  27.620   5.346   4.840
40685W        W13000   8.465  26.593   0.405
40686W        W13001   6.314  24.585   1.001
40687W        W13002  36.288  18.454  13.797
40688W        W13003  28.464  32.380   4.199
40689W        W13004  34.939  27.109  14.536
40690W        W13005  17.211  17.569  10.743
40691W        W13006   1.920  42.729  14.430
40692W        W13007  24.201  31.922   3.154
40693W        W13008  34.643  26.136  11.641
40694W        W13009  38.487   3.219   4.055
40695W        W13010  17.109  36.403  10.916
40696W        W13011  21.218  32.141  13.990
40697W        W13012  28.914   7.701   3.649
40698W        W13013  22.781  16.590   4.074
40699W        W13014  44.213   3.457  13.836
40700W        W13015  27.368  35.400   3.109
40701W        W13016  20.064  20.514  13.671
40702W        W13017   8.820  18.014   3.609
40703W        W13018  14.212  35.880   2.332
40704W        W13019  23.476  17.027   1.749
40705W        W13020  12.963  18.638  13.829
40706W        W13021  15.612  14.161   0.340
40707W        W13022  26.706  23.988   5.124
40708W        W13023  37.385  25.558  10.730
40709W        W13024  14.844  30.561   2.667
40710W        W13025  18.038  18.539   4.779
40711W        W13026  41.473  38.147  10.594
40712W        W13027  16.764  27.557   2.763
40713W        W13028  19.538  33.583  13.907
40714W        W13029  10.953  29.093   1.108
40715W        W13030  23.585   6.506  12.087
40716W        W13031  26.827   5.359   1.844
40717W        W13032   2.844  42.510   1.826
40718W        W13033  33.121   5.841  12.543
40719W        W13034  31.945  42.528   3.577
40720W        W13035  17.448  10.806  10.241
40721W        W13036  36.950   1.377  14.536
40722W        W13037  28.432  17.112   4.786
40723W        W13038  13.319  16.976   2.353
40724W        W13039  20.086  34.496  12.173
40725W        W13040  14.799  42.746  11.928
40726W        W13041  18.741  38.941   2.663
40727W        W13042   2.835  21.620  10.594
40728W        W13043  20.997  33.712  13.895
40729W        W13044   1.302  24.448   0.278
40730W        W13045  40.592  17.709  11.142
40731W        W13046  20.511  22.063  13.356
40732W        W13047  24.847  37.685  14.896
40733W        W13048  10.533  35.402   3.769
40734W        W13049  32.472  36.640   2.330
40735W        W13050  39.631   8.747  14.786
40736W        W13051  35.330   6.245  11.546
40737W        W13052   4.251   1.001  12.583
40738W        W13053  20.562  37.628  14.811
40739W        W13054  40.793   2.330   2.104
40740W        W13055  40.464  11.387   4.740
40741W        W13056  21.631   8.342  12.980
40742W        W13057   0.776  41.134   0.459
40743W        W13058  41.455  10.862  10.637
40744W        W13059  40.779  24.661   2.299
40745W        W13060  14.243  22.597   1.544
40746W        W13061  30.042  21.677   3.154
40747W        W13062  35.453  27.191  12.089
40748W        W13063  39.944  30.161  11.016
40749W        W13064  30.175  15.552  13.455
40750W        W13065  40.518   9.140  14.808
40751W        W13066  42.237  29.609  11.156
40752W        W13067   6.212  40.920  14.165
40753W        W13068   7.883   7.876   2.417
40754W        W13069  25.576   7.201   2.236
40755W        W13070  14.311  15.202   0.950
40756W        W13071  33.082  19.558   3.356
40757W        W13072  42.098   9.751   1.659
40758W        W13073  22.965  36.553  10.722
40759W        W13074  43.142  26.343   4.570
40760W        W13075   1.182  32.225   3.992
40761W        W13076  31.192  13.680  11.924
40762W        W13077   1.615  21.935  12.753
40763W        W13078   9.664  36.631   3.148
40764W        W13079  20.020  41.820   3.559
40765W        W13080  36.012   8.861   3.730
40766W        W13081  20.526   4.685  12.355
40767W        W13082  29.406  12.076   3.795
40768W        W13083   8.170  39.929   3.111
40769W        W13084  40.271  35.863  13.868
40770W        W13085  25.230  44.267  13.942
40771W        W13086  44.849  15.856  11.457
40772W        W13087  42.719  41.779  11.725
40773W        W13088  13.747  19.082  12.439
40774W        W13089  27.258  28.643  11.542
40775W        W13090  32.407  42.892   4.214
40776W        W13091  15.183  23.630   1.180
40777W        W13092  29.968  25.896  14.348
40778W        W13093  10.331  19.311  13.401
40779W        W13094  41.329  29.516  11.186
40780W        W13095   8.757   7.916  10.730
40781W        W13096  36.053   4.749   2.402
40782W        W13097  27.618  14.733  13.817
40783W        W13098   9.305  22.427   0.915
40784W        W13099  10.963  25.676   2.069
40785W        W13100   6.312  35.649  13.422
40786W        W13101  38.525   8.199  10.588
40787W        W13102  23.707  38.574   3.729
40788W        W13103  18.144  34.649   2.849
40789W        W13104  34.728  12.359  10.653
40790W        W13105   8.370  32.416  14.191
40791W        W13106   8.672  20.501   3.330
40792W        W13107  15.662  20.082   4.566
40793W        W13108  43.793  43.943   4.540
40794W        W13109  26.652  35.015  10.963
40795W        W13110  44.582  44.071  13.704
40796W        W13111  16.212   7.682  11.717
40797W        W13112   7.369  36.031  11.199
40798W        W13113   8.852  14.776  13.766
40799W        W13114  31.955   8.404  14.442
40800W        W13115  30.773  35.332   4.156
40801W        W13116  42.283  29.705  14.041
40802W        W13117  25.185  38.515   4.067
40803W        W13118   4.598   2.219  12.102
40804W        W13119  26.965  37.121  12.066
40805W        W13120  26.270   4.009  12.407
40806W        W13121  44.864  10.350   9.804
40807W        W13122   8.148  16.699   2.452
40808W        W13123  28.009  44.083  14.811
40809W        W13124  41.822  34.668  11.758
40810W        W13125  23.517  30.108  10.660
40811W        W13126  33.431  40.776   2.299
40812W        W13127  13.326  14.788  14.525
40813W        W13128  25.991  12.849   2.247
40814W        W13129  44.108  33.389  12.666
40815W        W13130  12.521  27.061   1.555
40816W        W13131   3.030  31.998  11.547
40817W        W13132  44.371  20.137  13.381
40818W        W13133  17.684   7.775  11.494
40819W        W13134  38.997  14.674  12.653
40820W        W13135  31.608  21.668  11.270
40821W        W13136  33.552  37.089   2.787
40822W        W13137   3.259  17.735  13.572
40823W        W13138  15.208  13.603  11.408
40824W        W13139  44.730   0.086  11.879
40825W        W13140  37.332  15.586  12.538
40826W        W13141  20.697  14.631   2.135
40827W        W13142  35.567  29.642  13.465
40828W        W13143   8.880   3.804   2.236
40829W        W13144  26.535  33.846   4.524
40830W        W13145  28.034  29.133   4.291
40831W        W13146  40.005   5.035   1.391
40832W        W13147  11.661  13.184  14.904
40833W        W13148   1.988  38.308  14.295
40834W        W13149  26.726  14.568  14.395
40835W        W13150  38.892  18.021   1.325
40836W        W13151  30.996  44.973   2.889
40837W        W13152  44.551  14.105   2.717
40838W        W13153  15.278  31.566  10.371
40839W        W13154  12.080  23.459  13.300
40840W        W13155  17.744  12.651   2.315
40841W        W13156   1.717  11.147   1.653
40842W        W13157  10.366  33.483  12.120
40843W        W13158  41.889  26.658  14.846
40844W        W13159  39.096   7.784  14.793
40845W        W13160  16.589  39.855  13.899
40846W        W13161   1.786  26.011  11.148
40847W        W13162  44.805  42.823   4.787
40848W        W13163   1.736  36.193  14.515
40849W        W13164  42.987   8.847  14.873
40850W        W13165   6.738  41.545   1.676
40851W        W13166   7.658  42.503   1.065
40852W        W13167  43.792  41.778   4.543
40853W        W13168   3.353  38.285  11.584
40854W        W13169  32.586   7.271  14.494
40855W        W13170  13.214  13.290  12.596
40856W        W13171  39.900  41.856   1.923
40857W        W13172  36.896  13.327  12.126
40858W        W13173  15.656   1.609  11.138
40859W        W13174  35.020  25.813   3.264
40860W        W13175  17.277  35.336   4.079
40861W        W13176   3.640  35.711   0.860
40862W        W13177  19.499  31.975   1.755
40863W        W13178  11.401  36.083   0.807
40864W        W13179  25.231  32.923   4.834
40865W        W13180   8.399  12.800   2.930
40866W        W13181   8.309  22.056  12.635
40867W        W13182   8.401  13.301   1.681
40868W        W13183  13.397  42.426   4.175
40869W        W13184  32.498  20.672  13.949
40870W        W13185   4.723   0.989   3.749
40871W        W13186  43.722  16.876  13.759
40872W        W13187  19.057  15.577   4.641
40873W        W13188  31.937  26.792  12.309
40874W        W13189  12.384  40.176   1.695
40875W        W13190  30.147  33.002   4.900
40876W        W13191   6.813  25.586   0.798
40877W        W13192  12.250   0.993  10.827
40878W        W13193  41.521   8.317  14.149
40879W        W13194  16.134   8.407   3.631
40880W        W13195  26.655  33.886   5.327
40881W        W13196  13.111  11.185   0.329
40882W        W13197  13.868  38.452   2.831
40883W        W13198  24.165  15.340  10.474
40884W        W13199  33.995  12.765   4.493
40885W        W13200  17.186  18.071   4.142
40886W        W13201   9.460  31.040   0.206
40887W        W13202   2.693  21.055   0.791
40888W        W13203  17.620  16.283  10.623
40889W        W13204  20.355   7.351  12.348
40890W        W13205  39.092  31.157   3.748
40891W        W13206   9.206  17.219   2.735
40892W        W13207  11.382  18.608  10.244
40893W        W13208  28.501  44.067   2.856
40894W        W13209  42.021   2.443  11.779
40895W        W13210  17.655  27.270   2.200
40896W        W13211  36.837  43.617  14.456
40897W        W13212  40.565  25.546   1.902
40898W        W13213  44.299  26.306  12.800
40899W        W13214  21.465   3.498   0.988
40900W        W13215   9.131  34.061  14.846
40901W        W13216  22.681  26.126   2.278
40902W        W13217  16.602  26.510   0.908
40903W        W13218  13.429  17.645   1.763
40904W        W13219  28.760  34.058  10.521
40905W        W13220  38.237   3.717   3.995
40906W        W13221  40.995  41.520  11.564
40907W        W13222  18.158  14.259  10.645
40908W        W13223  23.555  22.800  12.351
40909W        W13224  41.722  19.692  11.539
40910W        W13225  22.244   0.942   3.731
40911W        W13226  20.115  41.992  10.729
40912W        W13227  16.307  26.123   2.670
40913W        W13228   1.191  42.797  13.341
40914W        W13229   5.813  26.931   0.688
40915W        W13230  11.685  14.567   4.404
40916W        W13231  30.950  12.468  14.043
40917W        W13232  31.025  32.460  10.728
40918W        W13233  42.907   9.509  12.884
40919W        W13234  43.415  33.929   4.550
40920W        W13235  43.549   4.487   0.804
40921W        W13236  19.727  40.378  13.564
40922W        W13237  42.483  10.681  13.978
40923W        W13238  12.161  25.576   0.336
40924W        W13239  18.771  26.626   2.173
40925W        W13240  27.002   6.322   9.806
40926W        W13241  42.025  12.728   2.133
40927W        W13242   8.709  29.951   4.291
40928W        W13243  17.829  33.823  14.343
40929W        W13244  14.278  13.340  11.107
40930W        W13245  14.331  29.600   4.798
40931W        W13246  43.371  22.408   0.010
40932W        W13247  37.274  38.391   2.298
40933W        W13248  23.923  13.589   2.344
40934W        W13249  27.820  13.897  12.916
40935W        W13250   5.814  22.589  13.520
40936W        W13251  43.469  41.601  13.476
40937W        W13252  32.997  13.886   3.914
40938W        W13253   5.308  39.628   3.700
40939W        W13254  33.569  22.969  12.117
40940W        W13255  19.108  13.368   2.821
40941W        W13256  28.545  29.103  11.453
40942W        W13257  21.111  34.286   2.700
40943W        W13258  22.470   9.881   1.902
40944W        W13259  39.342  13.086  11.603
40945W        W13260   7.477  11.595   0.744
40946W        W13261  36.581  21.678   4.144
40947W        W13262  35.094  13.758   1.192
40948W        W13263   8.817  15.159   1.009
40949W        W13264   0.545  37.451   4.211
40950W        W13265  19.334  27.079   3.722
40951W        W13266  30.669   1.757  11.590
40952W        W13267  13.760  34.040  10.412
40953W        W13268  17.655   0.490   0.340
40954W        W13269  17.508  15.669   4.693
40955W        W13270   9.264  29.842   0.943
40956W        W13271  23.464  42.958   3.767
40957W        W13272  23.709  30.272   1.672
40958W        W13273  43.077  20.771  12.358
40959W        W13274  16.655   8.888   4.588
40960W        W13275  39.061   1.852  13.186
40961W        W13276  13.186  12.849   3.177
40962W        W13277   5.670  17.347   3.791
40963W        W13278  44.440  12.881  13.460
40964W        W13279  44.538  19.347   1.942
40965W        W13280  14.871  20.746  14.757
40966W        W13281   9.460  11.366   2.398
40967W        W13282  15.295  17.101   1.243
40968W        W13283  35.589  14.542  14.393
40969W        W13284  27.246  31.986  13.837
40970W        W13285  37.253  31.909  14.467
40971W        W13286  30.558  16.335   4.521
40972W        W13287   3.833  10.874  14.238
40973W        W13288  38.198  14.355   0.834
40974W        W13289  43.461  26.951  13.082
40975W        W13290  26.553  16.036   2.005
40976W        W13291  42.350  24.669  13.928
40977W        W13292  34.492  16.626   3.529
40978W        W13293  25.179  26.720  12.463
40979W        W13294  39.050   4.886  11.931
40980W        W13295   5.338  12.714  13.300
40981W        W13296  20.602   3.030  13.366
40982W        W13297  27.064   3.962  10.989
40983W        W13298  41.444  36.931  14.249
40984W        W13299   0.571   0.337   2.145
40985W        W13300  17.761  23.360  12.059
40986W        W13301  16.573  21.229  11.915
40987W        W13302  36.656  41.377  10.779
40988W        W13303  13.438  17.506   3.598
40989W        W13304  35.962  27.895   3.379
40990W        W13305  42.779  26.746  13.059
40991W        W13306  34.158  40.340   2.574
40992W        W13307  25.521  22.686   1.103
40993W        W13308  40.135  40.014  13.499
40994W        W13309  36.116  19.495  12.052
40995W        W13310  15.796  22.582   1.827
40996W        W13311  37.949   1.509   2.345
40997W        W13312  26.445  30.023  11.585
40998W        W13313  32.801  17.286  14.407
40999W        W13314  15.752   1.487   2.303
41000W        W13315  34.998  41.454   5.110
41001W        W13316   9.826  42.831  11.146
41002W        W13317  29.968   7.235   4.713
41003W        W13318  37.523  33.104  12.866
41004W        W13319  23.664  10.259  11.574
41005W        W13320  12.379  15.612  11.683
41006W        W13321  20.134  41.141  12.923
41007W        W13322  34.184  19.565  13.954
41008W        W13323  17.432   9.918  11.444
41009W        W13324  33.153  39.918   4.095
41010W        W13325  34.819   8.739  10.617
41011W        W13326  11.977  36.276   3.266
41012W        W13327  19.942  14.716   0.374
41013W        W13328   3.832  37.067   0.470
41014W        W13329  40.083  35.753  12.859
41015W        W13330  11.672  41.882  14.359
41016W        W13331  37.048  15.935  14.371
41017W        W13332   8.648   4.223   2.414
41018W        W13333   3.018   9.798   4.463
41019W        W13334   8.583  20.709  11.543
41020W        W13335  15.409  28.533   4.628
41021W        W13336  23.318  14.391  12.814
41022W        W13337   3.631  42.520   1.279
41023W        W13338  21.925  26.448   1.111
41024W        W13339  34.587  33.784  10.597
41025W        W13340  42.888  10.863  11.459
41026W        W13341  26.523  39.487   1.721
41027W        W13342  30.323  28.694  14.094
41028W        W13343   4.997  22.924  12.933
41029W        W13344  15.596  42.174  11.142
41030W        W13345  28.993  13.919  11.182
41031W        W13346  19.609  40.377  12.058
41032W        W13347   1.459   7.680   3.664
41033W        W13348   1.885  19.644  11.213
41034W        W13349  33.597  43.460   4.646
41035W        W13350   3.803   2.982   4.230
41036W        W13351  42.403  34.438   3.522
41037W        W13352  14.206  13.789   2.969
41038W        W13353  42.922  19.860   0.063
41039W        W13354  24.615  35.853  12.085
41040W        W13355   7.986   8.218  11.050
41041W        W13356  15.392  25.019  10.637
41042W        W13357  27.203  39.552   2.424
41043W        W13358  44.597  39.271   2.894
41044W        W13359  31.967  19.754  13.273
41045W        W13360  16.114  24.986   0.146
41046W        W13361  30.671  18.080   3.864
41047W        W13362  18.209  44.888   0.931
41048W        W13363   1.302  44.473   2.759
41049W        W13364  28.850  23.508  14.740
41050W        W13365   6.261  43.341   3.130
41051W        W13366   0.781  21.732  10.701
41052W        W13367  14.489   1.312  10.631
41053W        W13368   4.834  44.077  11.937
41054W        W13369  36.320   6.386  13.697
41055W        W13370  26.159  36.062   3.259
41056W        W13371  37.324   6.499   4.165
41057W        W13372  41.916  44.000   4.838
41058W        W13373   2.531   3.260  12.791
41059W        W13374  41.455  28.653   0.817
41060W        W13375   3.278  15.607  10.742
41061W        W13376  11.779  34.475   4.121
41062W        W13377  24.076  31.830   0.290
41063W        W13378   0.358   6.772   1.039
41064W        W13379   7.642  23.603   0.392
41065W        W13380  19.784  40.037   0.449
41066W        W13381  38.927  28.563   0.669
41067W        W13382  15.788  19.556   0.849
41068W        W13383  44.256  15.649  12.103
41069W        W13384  22.619  12.445   2.721
41070W        W13385  41.134   0.510   0.418
41071W        W13386   0.249  27.893  12.945
41072W        W13387  11.748  18.516  13.029
41073W        W13388  27.934  18.176  12.575
41074W        W13389  29.931  19.941   4.169
41075W        W13390  25.199  38.250   3.611
41076W        W13391  20.923  14.298  11.189
41077W        W13392   0.227  37.798   1.309
41078W        W13393  21.457  33.858   5.108
41079W        W13394  37.654   5.745  14.536
41080W        W13395  12.870  10.884   4.573
41081W        W13396  10.503   5.366  13.720
41082W        W13397  40.822  10.153  12.127
41083W        W13398   1.806  34.480  10.534
41084W        W13399  27.906  40.425  13.929
41085W        W13400  14.333   9.781   1.408
41086W        W13401  15.099  34.309  10.964
41087W        W13402   2.019  39.559  14.789
41088W        W13403  39.360  40.557   2.810
41089W        W13404  11.900  38.785   3.270
41090W        W13405   3.970  30.046   3.310
41091W        W13406   4.908   5.265   3.218
41092W        W13407  35.929  28.907  12.919
41093W        W13408  29.539   5.649   3.139
41094W        W13409  37.490  34.698  14.409
41095W        W13410  32.163  41.902   0.419
41096W        W13411  24.097  25.474  13.472
41097W        W13412  13.980  14.244  13.143
41098W        W13413  24.724  33.347  12.133
41099W        W13414  34.809  17.843  11.297
41100W        W13415  20.767  10.638   4.763
41101W        W13416  36.808  32.525   2.850
41102W        W13417  16.780  29.670  11.964
41103W        W13418   4.672  21.788   1.947
41104W        W13419  30.887  17.272   3.635
41105W        W13420  42.849  42.873  12.292
41106W        W13421  41.809   2.724  11.404
41107W        W13422  22.514  40.027   0.932
41108W        W13423  43.281  10.739   4.455
41109W        W13424  15.790   6.963   0.517
41110W        W13425   7.862  25.334  10.676
41111W        W13426  12.722  28.116  14.415
41112W        W13427  24.699  42.237  14.569
41113W        W13428   6.373  22.335   2.437
41114W        W13429  39.041  20.089   3.939
41115W        W13430  23.803   6.379  12.979
41116W        W13431  30.834  19.380  10.333
41117W        W13432   4.605  11.218  12.020
41118W        W13433   2.737  43.953  14.915
41119W        W13434  31.988  15.394   1.407
41120W        W13435  24.739  14.787   3.891
41121W        W13436  15.685  38.911   1.801
41122W        W13437  35.607   9.460  14.944
41123W        W13438  18.724  24.453   0.823
41124W        W13439  39.043  43.283  14.901
41125W        W13440   7.397  24.747  11.251
41126W        W13441  41.470  44.795   3.742
41127W        W13442   7.449  13.774   3.136
41128W        W13443  39.889  42.741   1.879
41129W        W13444   5.306  19.270   1.586
41130W        W13445  26.632   3.240  12.588
41131W        W13446  17.256   7.573  14.827
41132W        W13447  34.908  36.637  11.549
41133W        W13448  39.368  41.584   2.268
41134W        W13449  36.369   7.272  13.585
41135W        W13450  10.334  39.839   3.415
41136W        W13451   0.656  11.751  11.903
41137W        W13452  42.551  30.339   4.659
41138W        W13453   2.057  27.116  13.088
41139W        W13454  39.916  31.552   1.518
41140W        W13455   9.169  21.790   4.592
41141W        W13456   6.793  34.377  13.502
41142W        W13457  24.073  28.904   2.290
41143W        W13458  13.778   1.036   2.653
41144W        W13459  12.806  24.621  13.348
41145W        W13460   5.210  26.931  13.303
41146W        W13461  23.911   3.216  13.916
41147W        W13462  38.976  41.557   1.671
41148W        W13463   8.477  41.024  11.920
41149W        W13464  16.294  22.135   4.774
41150W        W13465  36.937  20.472  10.976
41151W        W13466  10.374  16.224  14.266
41152W        W13467  11.635   9.865  10.384
41153W        W13468  21.950  37.826   4.605
41154W        W13469  25.172  15.129   2.345
41155W        W13470  12.657   8.121  12.202
41156W        W13471  43.843  35.991   2.477
41157W        W13472  12.832  11.598  11.828
41158W        W13473   1.787   5.652  11.676
41159W        W13474  12.037  40.838  10.591
41160W        W13475  17.553  40.898  10.699
41161W        W13476  27.283  29.692   3.558
41162W        W13477  29.473  35.677   3.797
41163W        W13478  41.427  43.295   4.322
41164W        W13479   0.020   9.573  14.640
41165W        W13480   6.801  11.829   2.405
41166W        W13481  12.783  41.517  12.671
41167W        W13482  27.809  24.810   2.663
41168W        W13483  10.849  27.429  12.400
41169W        W13484  39.799  39.587   3.081
41170W        W13485  20.769  25.725  13.334
41171W        W13486  43.342  24.228  14.321
41172W        W13487  32.613   0.291  14.298
41173W        W13488  19.360   8.571   9.858
41174W        W13489   4.716  43.297   1.307
41175W        W13490  20.981   3.848  11.934
41176W        W13491  42.774   2.149  14.535
41177W        W13492   5.239  31.510   1.953
41178W        W13493  35.400  42.847  14.422
41179W        W13494   6.152   5.681   3.446
41180W        W13495  27.262  17.582  14.910
41181W        W13496  18.303   7.153  13.880
41182W        W13497  34.643  29.758  11.915
41183W        W13498  13.875   5.007  12.478
41184W        W13499   2.951  34.628  11.567
41185W        W13500  26.693  26.521  14.385
41186W        W13501  21.726  34.960  12.236
41187W        W13502  12.358   7.916  13.434
41188W        W13503  37.958   4.005  11.527
41189W        W13504  30.707  17.614  12.972
41190W        W13505  16.816  21.278  14.694
41191W        W13506  14.899  36.434   2.549
41192W        W13507  38.349  35.931  13.021
41193W        W13508  14.167  25.180   0.986
41194W        W13509  37.451   4.169   0.302
41195W        W13510  17.116  39.436  11.881
41196W        W13511  13.772  35.992  12.853
41197W        W13512  35.621  15.197  10.742
41198W        W13513  21.891  36.400   0.474
41199W        W13514  29.524  35.130  11.249
41200W        W13515  16.818  33.742  11.655
41201W        W13516  10.960   5.895   1.778
41202W        W13517  33.876  41.879  11.205
41203W        W13518  29.024  38.542   4.334
41204W        W13519   8.682  11.396   0.411
41205W        W13520  17.159  21.190   4.205
41206W        W13521  29.228   2.834   4.405
41207W        W13522  13.271  41.932  11.949
41208W        W13523  44.408  11.236   3.581
41209W        W13524  44.403   6.236  13.967
41210W        W13525   4.304  14.111  10.716
41211W        W13526   3.937  17.015   2.246
41212W        W13527  31.679  15.603   4.619
41213W        W13528  23.407  10.587   0.842
41214W        W13529  41.565   9.727   4.720
41215W        W13530  16.820  16.615   1.718
41216W        W13531   0.518  23.706   0.412
41217W        W13532  18.583   8.877   1.921
41218W        W13533  11.227   2.362   0.783
41219W        W13534  37.379  29.258   5.079
41220W        W13535  19.045  43.523  12.034
41221W        W13536   3.785  17.073   1.167
41222W        W13537   0.969  33.085   3.723
41223W        W13538  35.753  40.900  10.643
41224W        W13539  13.481  18.991   3.689
41225W        W13540  28.628   6.336  12.569
41226W        W13541  13.721  20.479  13.782
41227W        W13542  20.926   8.086  11.998
41228W        W13543  43.724   0.403   4.621
41229W        W13544  13.894  38.366  13.849
41230W        W13545  41.326  40.746  12.405
41231W        W13546   7.224  27.540  11.604
41232W        W13547  38.147  16.327  13.358
41233W        W13548  20.848   2.389   5.035
41234W        W13549   2.330   3.188  11.468
41235W        W13550  28.682  34.798   4.022
41236W        W13551  16.128  38.806   3.173
41237W        W13552  17.236   4.764  12.817
41238W        W13553  42.713  34.742  14.822
41239W        W13554  11.363  14.086   2.384
41240W        W13555  17.749  29.478  12.212
41241W        W13556  18.730  12.103   3.066
41242W        W13557  42.555  33.578  11.487
41243W        W13558   5.688  26.564  12.923
41244W        W13559   5.198   9.037  14.348
41245W        W13560   2.642   1.546  11.971
41246W        W13561  44.653   3.383   2.722
41247W        W13562  37.409  15.145   4.607
41248W        W13563  32.911  42.322  13.785
41249W        W13564   7.279  40.491  12.961
41250W        W13565   4.951  34.525  14.352
41251W        W13566  44.340  16.180   3.247
41252W        W13567   8.788   4.537  14.101
41253W        W13568  17.194  27.060  14.227
41254W        W13569  26.492  16.894  10.676
41255W        W13570  39.075  36.420   0.313
41256W        W13571  35.116  12.338   4.607
41257W        W13572  28.460  37.580   3.470
41258W        W13573   5.973   3.243  13.753
41259W        W13574   4.277  24.956  12.744
41260W        W13575   5.321  37.549  12.426
41261W        W13576   0.833   3.283   0.955
41262W        W13577   1.733  28.788   3.181
41263W        W13578  11.103  17.066  14.977
41264W        W13579  23.583  12.334   0.600
41265W        W13580  15.567  15.389   1.448
41266W        W13581  14.206  26.383   4.096
41267W        W13582  39.335   5.722  14.059
41268W        W13583  23.352  30.001   4.921
41269W        W13584  26.415   1.532  14.935
41270W        W13585  31.217  10.868   2.751
41271W        W13586  16.218  38.248  14.283
41272W        W13587  28.508  22.432   0.523
41273W        W13588  43.845   5.552   4.967
41274W        W13589  16.106  40.411  11.082
41275W        W13590  30.630  38.847   1.759
41276W        W13591  11.632   8.113   1.806
41277W        W13592  16.296   6.939  13.948
41278W        W13593  42.667  41.922  10.625
41279W        W13594  16.522  24.701  11.076
41280W        W13595   9.121  36.452   4.100
41281W        W13596   5.707  16.036  14.919
41282W        W13597   0.294  33.430  13.590
41283W        W13598  17.651  29.003   3.230
41284W        W13599  22.556   6.222   0.012
41285W        W13600  44.284  24.913   2.670
41286W        W13601   9.563   3.782  14.078
41287W        W13602   8.403  29.947   1.753
41288W        W13603   9.872  19.746  12.870
41289W        W13604  36.934  20.597  12.377
41290W        W13605  25.764  15.642   4.976
41291W        W13606  31.408   5.164   2.311
41292W        W13607  30.498  44.695   3.690
41293W        W13608   1.942  24.593   0.128
41294W        W13609   2.739  15.273   4.270
41295W        W13610  33.514  20.284  13.290
41296W        W13611  41.712   1.911   3.609
41297W        W13612  25.163  21.556  12.331
41298W        W13613  14.214  25.694   1.609
41299W        W13614  20.902  34.557   0.386
41300W        W13615  31.881   7.917  10.455
41301W        W13616  41.609  13.178  12.050
41302W        W13617  25.769  21.212  14.210
41303W        W13618  22.265  42.506  13.463
41304W        W13619   2.735  43.814   1.979
41305W        W13620  22.954  36.402  13.020
41306W        W13621  15.876  42.326  14.678
41307W        W13622   5.999  35.661  12.932
41308W        W13623  20.553  24.719   2.789
41309W        W13624  11.284  32.549  13.365
41310W        W13625  18.041  15.109  10.472
41311W        W13626  32.966  40.791  13.864
41312W        W13627  24.040  13.103   3.167
41313W        W13628  31.929   9.284   2.196
41314W        W13629  44.068  22.953   1.662
41315W        W13630  32.709  27.959   4.114
41316W        W13631   7.945  43.830  14.402
41317W        W13632  25.071  35.563   4.722
41318W        W13633   2.467  37.073   1.250
41319W        W13634  38.244  32.582   0.960
41320W        W13635  29.702  10.096   0.352
41321W        W13636  44.463  21.951  12.892
41322W        W13637  34.065  40.155   0.981
41323W        W13638   6.198  38.475   3.499
41324W        W13639  44.550   6.719   0.328
41325W        W13640  12.050  15.573   5.179
41326W        W13641  16.594  12.333   3.553
41327W        W13642  41.067  34.941   2.712
41328W        W13643   7.451  22.126   4.190
41329W        W13644  19.793   8.978  14.832
41330W        W13645  27.820   6.289   2.971
41331W        W13646  25.935  40.193  11.066
41332W        W13647  26.905   9.228  10.701
41333W        W13648  38.979  30.575   4.660
41334W        W13649   3.144  29.964  14.221
41335W        W13650  13.177   8.783  11.064
41336W        W13651  41.855  18.681   1.687
41337W        W13652  14.681  39.638  11.542
41338W        W13653   6.390  41.955   4.560
41339W        W13654  21.512   5.392  14.783
41340W        W13655  24.439  24.652   4.528
41341W        W13656  28.050  11.142   4.499
41342W        W13657   6.703  10.594  14.924
41343W        W13658  25.650   2.920   1.719
41344W        W13659  23.260  11.677  10.747
41345W        W13660  22.654  14.940  10.569
41346W        W13661  29.098   9.318   2.229
41347W        W13662  36.339  25.112   0.697
41348W        W13663  29.078  15.613   1.365
41349W        W13664   8.284  42.728   0.091
41350W        W13665  34.059  18.761   0.371
41351W        W13666  16.098  26.112  13.468
41352W        W13667   9.962   4.006  12.910
41353W        W13668   2.690  44.226   0.748
41354W        W13669  43.118   3.404   4.134
41355W        W13670  10.589  10.061  12.610
41356W        W13671   6.901  28.205  14.563
41357W        W13672  13.744  28.057   2.386
41358W        W13673  32.879   4.518  12.846
41359W        W13674  36.728  23.522   2.398
41360W        W13675   3.379  20.797   4.707
41361W        W13676   4.112   1.793   4.110
41362W        W13677   7.799  31.057   1.133
41363W        W13678  13.552  17.763  11.117
41364W        W13679   5.793   8.457   0.384
41365W        W13680  25.270  14.606  11.278
41366W        W13681  32.901  30.364   1.366
41367W        W13682  17.674   3.063   2.230
41368W        W13683  38.372  43.440  11.001
41369W        W13684  18.144  14.539  11.323
41370W        W13685   7.302   0.448   3.342
41371W        W13686  40.052   6.155  11.236
41372W        W13687  43.870   7.365  12.544
41373W        W13688  42.930  31.864   0.273
41374W        W13689  11.272   2.877   3.572
41375W        W13690  38.241  34.071   0.277
41376W        W13691  35.053  23.614  11.183
41377W        W13692   5.004  39.101   0.373
41378W        W13693  33.958  41.608  12.189
41379W        W13694  13.873  32.553  12.994
41380W        W13695   8.929   8.043   1.841
41381W        W13696   7.889  34.503   4.515
41382W        W13697  44.049   7.223   1.500
41383W        W13698  25.878  33.093  12.563
41384W        W13699  40.077   0.959  11.187
41385W        W13700  19.709  34.596  13.905
41386W        W13701  15.376  25.074   3.784
41387W        W13702  22.731  14.717  12.963
41388W        W13703  30.126  11.668  11.275
41389W        W13704  26.158  29.522  10.509
41390W        W13705  15.812  17.166  12.565
41391W        W13706   6.818   8.763  13.288
41392W        W13707   9.926   5.815   4.660
41393W        W13708  14.374  10.291  14.189
41394W        W13709  33.982  24.508  13.636
41395W        W13710   3.723   2.934  11.524
41396W        W13711   0.751  10.336   2.274
41397W        W13712  44.194   9.914   1.345
41398W        W13713  21.574  36.274   4.148
41399W        W13714  32.585  30.611   4.245
41400W        W13715  21.251  39.409   3.416
41401W        W13716  19.069  34.393  12.887
41402W        W13717  35.399  24.271   1.179
41403W        W13718   7.965  36.093   2.752
41404W        W13719   1.423  30.806  14.408
41405W        W13720  20.657  30.621  13.804
41406W        W13721  27.733  12.821   1.315
41407W        W13722  26.522  29.049  12.494
41408W        W13723   0.956  28.663  12.049
41409W        W13724   7.679   5.833  14.804
41410W        W13725   8.028  42.297  14.246
41411W        W13726  25.704  33.416   3.612
41412W        W13727   4.281   4.828  11.597
41413W        W13728  12.992  12.374   1.457
41414W        W13729  30.402  15.603   3.763
41415W        W13730  17.881  34.292   1.882
41416W        W13731  26.481   6.255   0.793
41417W        W13732   8.880  44.461   1.667
41418W        W13733  18.724  40.828   3.979
41419W        W13734  31.107  32.966  10.485
41420W        W13735  17.619  33.343   0.050
41421W        W13736  14.297  12.757   1.877
41422W        W13737  19.254  22.711  10.755
41423W        W13738  41.417  11.610  11.481
41424W        W13739   0.013   8.233  12.632
41425W        W13740  42.541  29.502  12.971
41426W        W13741  33.455  16.025  13.306
41427W        W13742  33.472  19.274  12.149
41428W        W13743   2.762  44.730  11.569
41429W        W13744  20.179  44.637  13.869
41430W        W13745   8.774  37.071   3.368
41431W        W13746  28.665  21.148   2.691
41432W        W13747   3.150  36.432  11.710
41433W        W13748  39.656  31.537  12.881
41434W        W13749   3.938  40.997  11.543
41435W        W13750  12.674  13.331  13.459
41436W        W13751  22.728  42.934  12.263
41437W        W13752  28.391  43.224  14.968
41438W        W13753  10.349  10.802  13.464
41439W        W13754  13.294  39.520   0.989
41440W        W13755   2.990  23.151   2.898
41441W        W13756  25.989  17.343  14.422
41442W        W13757  36.075  43.802  10.689
41443W        W13758  38.958  27.720  13.294
41444W        W13759  28.480  38.893  14.981
41445W        W13760  11.919  12.707   1.146
41446W        W13761  15.746  40.946  14.259
41447W        W13762  18.172  27.915   3.730
41448W        W13763   8.812   6.686   2.163
41449W        W13764   8.153   2.446   3.250
41450W        W13765  17.310  33.783   2.752
41451W        W13766  26.732   3.710  13.861
41452W        W13767  44.891  17.521   2.226
41453W        W13768   1.091  44.574  14.334
41454W        W13769  16.844  13.132   1.716
41455W        W13770  31.331  11.625   3.498
41456W        W13771  22.555  22.804  14.765
41457W        W13772   8.945  16.470   5.069
41458W        W13773  19.312  32.135   3.057
41459W        W13774  20.083   9.934   4.678
41460W        W13775  41.787  10.718  11.007
41461W        W13776   5.903  33.904  14.495
41462W        W13777  31.083   3.315  14.054
41463W        W13778  19.571  20.145  13.398
41464W        W13779   4.953  21.594   0.938
41465W        W13780  10.558  15.056   0.502
41466W        W13781  36.823   2.165  10.752
41467W        W13782  19.247  43.941   4.507
41468W        W13783  27.616   3.858  13.471
41469W        W13784  36.990   8.256  13.378
41470W        W13785  43.961  29.734  12.896
41471W        W13786  33.205   6.762  10.407
41472W        W13787  44.304  24.471   1.173
41473W        W13788  14.719  38.546   0.880
41474W        W13789  29.130  43.545  14.964
41475W        W13790  16.709  39.811  12.393
41476W        W13791  19.723   6.714  11.797
41477W        W13792   2.675  36.814   0.848
41478W        W13793   6.637   5.936   4.328
41479W        W13794   6.486  20.666  13.554
41480W        W13795  24.583  43.993   4.663
41481W        W13796  28.612  10.781  13.080
41482W        W13797  18.919  14.312  11.825
41483W        W13798  24.264  36.584  12.616
41484W        W13799  35.152  23.010   3.219
41485W        W13800  35.701  43.025  13.488
41486W        W13801   0.484   4.167  12.819
41487W        W13802  39.584  26.238  14.339
41488W        W13803  44.840   0.027  12.374
41489W        W13804  39.548  11.176   2.175
41490W        W13805  13.316  22.195  14.807
41491W        W13806  17.313  27.843  10.154
41492W        W13807   0.211  12.750  14.916
41493W        W13808  43.595  12.316  10.225
41494W        W13809  25.926  22.585   0.280
41495W        W13810  12.790   7.386   0.426
41496W        W13811   4.859  14.829  12.663
41497W        W13812  10.757  18.970   3.647
41498W        W13813  36.668  26.909   1.273
41499W        W13814  39.523   5.794   3.365
41500W        W13815  34.896  18.336   3.290
41501W        W13816  31.624   2.959  13.737
41502W        W13817  27.688  15.390   2.269
41503W        W13818   8.615  18.668  14.826
41504W        W13819  43.215   8.722   4.586
41505W        W13820  28.496  44.919  11.854
41506W        W13821  44.557  29.856   2.352
41507W        W13822   9.783  23.332   0.883
41508W        W13823  17.273  16.680   1.964
41509W        W13824  30.625  29.876  14.366
41510W        W13825   4.814  19.901  11.956
41511W        W13826   2.694  14.817  13.893
41512W        W13827  37.042  20.965   4.568
41513W        W13828   6.672   7.884  11.079
41514W        W13829  40.983  10.263   2.658
41515W        W13830  39.881  24.660   4.032
41516W        W13831  18.330  42.413   2.300
41517W        W13832  23.026  19.530   1.393
41518W        W13833  39.584  44.477   2.154
41519W        W13834   7.024   6.329   4.650
41520W        W13835  37.783  10.887   1.490
41521W        W13836   4.858  26.413  12.225
41522W        W13837  19.894  32.037   2.116
41523W        W13838  25.447  29.439  14.797
41524W        W13839  21.354  18.655   3.728
41525W        W13840   6.906  11.849   1.222
41526W        W13841  16.717  27.030  11.337
41527W        W13842  31.881   6.154   4.203
41528W        W13843  16.362  23.066   1.456
41529W        W13844  42.316   9.605  14.029
41530W        W13845  22.807   8.885   3.326
41531W        W13846  32.346  42.034  14.007
41532W        W13847  38.620  21.469   3.377
41533W        W13848  41.635  39.933  13.981
41534W        W13849  11.218  31.634  12.951
41535W        W13850   7.692  17.236  13.818
41536W        W13851  12.110  33.487  14.074
41537W        W13852   5.824  21.665   2.125
41538W        W13853  20.665   7.487  13.335
41539W        W13854  36.637  23.082   0.782
41540W        W13855  39.280   8.816   2.931
41541W        W13856  36.175  38.076   3.760
41542W        W13857   0.858  30.949   2.368
41543W        W13858  38.925  11.740  11.818
41544W        W13859  42.764  17.876  13.823
41545W        W13860  32.182  37.473  13.484
41546W        W13861   3.481  35.970   4.711
41547W        W13862   2.692  18.332  13.610
41548W        W13863  19.511  29.404   2.201
41549W        W13864  35.144  20.604  10.452
41550W        W13865  21.766   0.723  13.673
41551W        W13866  30.339  31.397  10.718
41552W        W13867  15.907   5.382   1.638
41553W        W13868  17.897  31.304  13.883
41554W        W13869  19.531  41.283   4.497
41555W        W13870  38.044   4.959   1.902
41556W        W13871  25.161  24.433   3.932
41557W        W13872   7.340  11.360  12.493
41558W        W13873   9.139   3.984  10.636
41559W        W13874   5.226  39.880  13.605
41560W        W13875  37.946  13.907   4.335
41561W        W13876  26.388  11.316  14.898
41562W        W13877  31.523  37.341   4.225
41563W        W13878   2.540  38.041   3.187
41564W        W13879  30.428  23.886  13.968
41565W        W13880   3.801  17.369  12.559
41566W        W13881  35.562   9.161  14.443
41567W        W13882   5.304  15.095   0.285
41568W        W13883   9.737  33.110   3.607
41569W        W13884  32.450  35.376  10.804
41570W        W13885   3.265  13.624   3.632
41571W        W13886  27.275  23.288   1.717
41572W        W13887  28.002  30.135  11.141
41573W        W13888  40.903  38.580  13.931
41574W        W13889   5.819  38.706   4.300
41575W        W13890   2.157   4.547  13.499
41576W        W13891  24.556  32.596   1.000
41577W        W13892  40.928   3.361  10.789
41578W        W13893  12.819  21.155   4.509
41579W        W13894  29.021  20.129   3.287
41580W        W13895  15.309  14.241   3.723
41581W        W13896  34.444   3.411  13.756
41582W        W13897  42.402  33.167  10.709
41583W        W13898  10.124  25.944   4.194
41584W        W13899  14.216  11.111  14.654
41585W        W13900  28.087   2.399  12.507
41586W        W13901  29.160  33.475   3.715
41587W        W13902  23.940  21.321   2.883
41588W        W13903  11.630  43.741  14.383
41589W        W13904  28.061  39.912  12.771
41590W        W13905  13.705  10.376  14.909
41591W        W13906   3.692  18.771  13.295
41592W        W13907  30.898   1.236   0.545
41593W        W13908  29.558  20.676   2.093
41594W        W13909  34.379  13.771  12.019
41595W        W13910  20.564  38.913  14.441
41596W        W13911   6.733  24.044   3.056
41597W        W13912  39.040  14.325  14.375
41598W        W13913  31.585  22.248  14.892
41599W        W13914  34.740  30.812  11.553
41600W        W13915   4.909   8.474  13.585
41601W        W13916  35.047  20.500   2.684
41602W        W13917  22.464  33.588  11.626
41603W        W13918  16.063   0.672  11.217
41604W        W13919  30.086   2.773  10.681
41605W        W13920  27.693  17.515   3.907
41606W        W13921  13.682  39.724  13.351
41607W        W13922  36.724  21.695   3.253
41608W        W13923   9.959  43.530  12.461
41609W        W13924   3.458   1.383  10.679
41610W        W13925  35.328   5.800  14.972
41611W        W13926  24.564  10.363   3.808
41612W        W13927   9.965  31.062   0.172
41613W        W13928  42.275  26.083   0.926
41614W        W13929  19.118  28.337   2.809
41615W        W13930   7.232  12.133  14.411
41616W        W13931  20.276  36.164   2.286
41617W        W13932  31.893  28.053   0.291
41618W        W13933  29.047  39.071  12.438
41619W        W13934   6.243  13.136  13.050
41620W        W13935  39.453  22.159   0.493
41621W        W13936  11.596  21.535  14.889
41622W        W13937   0.243  40.408  10.653
41623W        W13938  28.195  42.390  11.497
41624W        W13939  38.501  13.377   4.809
41625W        W13940  28.623  41.738   1.862
41626W        W13941  19.040  36.388  14.120
41627W        W13942  43.465  18.234   0.775
41628W        W13943  22.729  15.085   4.514
41629W        W13944  43.497  40.305  12.991
41630W        W13945  33.129  14.787   4.780
41631W        W13946   8.222   1.400   2.424
41632W        W13947  29.075   3.189  14.901
41633W        W13948   4.223   9.670  12.014
41634W        W13949   2.429   0.910  12.869
41635W        W13950   9.429  10.371   1.950
41636W        W13951  25.031  30.844   3.216
41637W        W13952  34.426   8.230  12.140
41638W        W13953   1.786   6.291  12.791
41639W        W13954  10.889   1.874  12.125
41640W        W13955  44.677  19.042  10.525
41641W        W13956  14.603   6.166   9.955
41642W        W13957  22.196  12.023   3.332
41643W        W13958  33.214  40.843   1.699
41644W        W13959  42.317  41.243  10.926
41645W        W13960  30.379  37.551  11.523
41646W        W13961  18.707  44.596  13.481
41647W        W13962   8.248  22.757   0.886
41648W        W13963   4.640   2.915  11.658
41649W        W13964  19.784  24.894  11.972
41650W        W13965  17.223   9.956  10.322
41651W        W13966  37.397  44.095  10.145
41652W        W13967  15.154  22.308   4.095
41653W        W13968   6.706   7.253  12.100
41654W        W13969  33.632  40.039   1.757
41655W        W13970  35.635  24.277  11.962
41656W        W13971  15.116  30.965   3.380
41657W        W13972  19.677  26.665   4.718
41658W        W13973  44.576   5.948  14.353
41659W        W13974  35.411  16.924   1.736
41660W        W13975   0.622   8.764  10.236
41661W        W13976  23.476   4.965   4.574
41662W        W13977  12.979  28.483   3.784
41663W        W13978  19.798  22.985   3.321
41664W        W13979   2.700  42.282  13.055
41665W        W13980  25.301  43.767   1.722
41666W        W13981  11.999   0.400   1.404
41667W        W13982  36.646  26.230  11.458
41668W        W13983   3.421  20.770  12.123
41669W        W13984   0.888  43.343  12.517
41670W        W13985   9.115  20.459   0.858
41671W        W13986  26.130  38.390  14.811
41672W        W13987   3.322   5.932  11.289
41673W        W13988  36.312  39.059   4.646
41674W        W13989  23.779  10.751  11.681
41675W        W13990   5.264  44.038  14.921
41676W        W13991  24.691  43.371  10.488
41677W        W13992  32.761  41.903   4.142
41678W        W13993   2.688  43.195  11.634
41679W        W13994  39.796  24.772   0.490
41680W        W13995  17.839  32.142   3.797
41681W        W13996  16.163  38.629  11.546
41682W        W13997  22.562  23.622  13.258
41683W        W13998   9.937  34.540   3.224
41684W        W13999   0.227   1.770  11.971
41685W        W14000  26.621  35.594   4.310
41686W        W14001  44.002  18.067   3.608
41687W        W14002  19.466  37.000   1.968
41688W        W14003  11.728  33.692  13.789
41689W        W14004  34.072  29.975  14.037
41690W        W14005  16.328  21.051  10.848
41691W        W14006  13.838  39.411   1.682
41692W        W14007  14.989  27.667  12.431
41693W        W14008   1.027  10.407  10.651
41694W        W14009  40.351   1.830   1.336
41695W        W14010  21.283   6.724   2.982
41696W        W14011  11.432   6.679  11.871
41697W        W14012  35.865   0.935  11.231
41698W        W14013  36.911  10.523  14.520
41699W        W14014  41.883  34.445   2.769
41700W        W14015   0.218  12.016  13.484
41701W        W14016   4.710  22.062   1.022
41702W        W14017   4.045  41.237  10.244
41703W        W14018  23.563  44.347   2.137
41704W        W14019  28.146  21.984  12.891
41705W        W14020  34.764  38.473   2.165
41706W        W14021  32.052  27.538   1.160
41707W        W14022  42.280  18.229  10.952
41708W        W14023  14.083  25.512   2.594
41709W        W14024  24.757  35.883  13.821
41710W        W14025  28.906  39.823  13.832
41711W        W14026  26.475   9.464   1.317
41712W        W14027  12.626  43.850   4.587
41713W        W14028  36.164  40.584  14.841
41714W        W14029   6.724  26.499   2.270
41715W        W14030  41.089   8.264  12.887
41716W        W14031   0.743  39.230  10.960
41717W        W14032  41.176  14.422   0.561
41718W        W14033  26.882  23.252  12.471
41719W        W14034  29.463  44.211  13.131
41720W        W14035  38.603  26.394  10.802
41721W        W14036  40.730  38.890  14.625
41722W        W14037  24.430   5.655  14.314
41723W        W14038  10.332   3.444   1.355
41724W        W14039  22.064  19.957  13.474
41725W        W14040   0.344   4.118   2.829
41726W        W14041  43.142  24.726  12.619
41727W        W14042  29.452  26.098   2.643
41728W        W14043  18.086  21.055   2.141
41729W        W14044   7.929   0.431   0.407
41730W        W14045  39.874  21.124  14.993
41731W        W14046  16.574  43.866   4.263
41732W        W14047  35.288  20.271   1.859
41733W        W14048   9.682  30.865   3.227
41734W        W14049  35.502  18.093   1.517
41735W        W14050  42.065   9.654  14.864
41736W        W14051  27.279  12.137   0.991
41737W        W14052  33.837  11.782  11.409
41738W        W14053  33.030   6.616  12.414
41739W        W14054  20.007  41.855   4.089
41740W        W14055  12.751  26.590  14.531
41741W        W14056  16.191  40.645   4.262
41742W        W14057  32.447  28.178  13.461
41743W        W14058  39.310  39.314   1.754
41744W        W14059  10.322   1.793   1.873
41745W        W14060  15.121  11.540  12.081
41746W        W14061   8.089  21.620   0.010
41747W        W14062   2.734   8.660   2.702
41748W        W14063  33.640  11.047   0.337
41749W        W14064   5.975  36.079   4.900
41750W        W14065  22.942   1.716  11.144
41751W        W14066  28.402  26.743  11.211
41752W        W14067  14.873  34.389   2.940
41753W        W14068  41.354  21.797  14.546
41754W        W14069  40.934   5.457   2.638
41755W        W14070  28.868  17.864  11.154
41756W        W14071   9.091  11.140   0.179
41757W        W14072  43.387  17.671   1.547
41758W        W14073  43.151  23.125  10.475
41759W        W14074  20.997  33.542  10.702
41760W        W14075  37.025  33.933  14.212
41761W        W14076  15.218  28.430   4.144
41762W        W14077  23.011  14.063   2.532
41763W        W14078   1.257  26.077   2.815
41764W        W14079  13.322  33.448  12.039
41765W        W14080  24.711  29.477   0.212
41766W        W14081  13.936  27.700  13.851
41767W        W14082  39.806  34.470  13.885
41768W        W14083  37.309  21.408   4.583
41769W        W14084  16.058  34.834  10.652
41770W        W14085  12.306  11.572   0.289
41771W        W14086  40.448  21.150   2.515
41772W        W14087  15.075  12.272  10.705
41773W        W14088   9.778   3.358  12.128
41774W        W14089   7.070   8.393   4.193
41775W        W14090  42.421   6.132   3.342
41776W        W14091   6.770  44.305   1.927
41777W        W14092  42.800  37.693   3.314
41778W        W14093  37.131  12.760  13.380
41779W        W14094  19.820  40.440  10.211
41780W        W14095  22.668  25.261  11.816
41781W        W14096  10.874  39.300   1.279
41782W        W14097  27.070  42.254   4.741
41783W        W14098  41.187   6.912  12.655
41784W        W14099  39.617  27.215  11.018
41785W        W14100   8.165  13.024   4.353
41786W        W14101  16.610   3.400   4.537
41787W        W14102  31.465  44.702  11.159
41788W        W14103   3.617  14.575   2.708
41789W        W14104  32.997  24.053  10.319
41790W        W14105   6.401  40.355   4.068
41791W        W14106  41.506  32.069   3.623
41792W        W14107  33.073  36.395  12.540
41793W        W14108  17.094  14.536   0.423
41794W        W14109   4.080  11.163  12.053
41795W        W14110   8.675  14.609  11.885
41796W        W14111   7.088  27.180   0.014
41797W        W14112   1.606  28.233  12.401
41798W        W14113  41.263   9.311   0.272
41799W        W14114  36.157  42.383  11.443
41800W        W14115  16.964   7.175  14.951
41801W        W14116  36.347  36.821  11.576
41802W        W14117  35.261   8.819  13.960
41803W        W14118  40.519  34.041  11.948
41804W        W14119  33.442  40.543  11.498
41805W        W14120  28.389  39.425   3.525
41806W        W14121   5.814  12.360  14.428
41807W        W14122  11.741  34.367  12.321
41808W        W14123  15.267  31.395   4.644
41809W        W14124  14.176  27.471  11.106
41810W        W14125  22.599  19.242   0.349
41811W        W14126  34.488   4.856   3.128
41812W        W14127   2.737  31.546   2.208
41813W        W14128  21.266  11.353   1.326
41814W        W14129  33.395  30.944   1.448
41815W        W14130  29.375  18.727  14.415
41816W        W14131  32.492  16.251   1.821
41817W        W14132  13.817  35.403   2.870
41818W        W14133  18.522  40.260   3.087
41819W        W14134   7.116  41.074   4.483
41820W        W14135  41.807  42.036   0.228
41821W        W14136  37.613  25.430   2.808
41822W        W14137  31.953  14.211   3.724
41823W        W14138  42.569  31.475   0.223
41824W        W14139  39.484  23.750   5.387
41825W        W14140   4.481   1.792  14.944
41826W        W14141  29.918  40.512  10.733
41827W        W14142  41.763  16.761  14.545
41828W        W14143   3.292  36.622   3.230
41829W        W14144  11.140  30.969   0.222
41830W        W14145   0.844  32.913  12.794
41831W        W14146  43.159  34.765  11.935
41832W        W14147  14.858  30.589  11.174
41833W        W14148  42.787  38.204   3.179
41834W        W14149  13.088  28.858  14.464
41835W        W14150  32.197  12.352  13.108
41836W        W14151   2.077  13.178   4.246
41837W        W14152  19.606  20.662   2.895
41838W        W14153   7.106   6.582  13.593
41839W        W14154  32.453   4.229  12.847
41840W        W14155  26.235  23.244   0.931
41841W        W14156   9.066  39.978  11.214
41842W        W14157  43.418  33.232  12.601
41843W        W14158  18.748  12.100  13.468
41844W        W14159  10.686   8.162   1.732
41845W        W14160  13.064  28.041  11.481
41846W        W14161   5.338   6.301  12.911
41847W        W14162  21.168   5.795  10.399
41848W        W14163  28.112  16.305  12.935
41849W        W14164  32.824  43.309  12.870
41850W        W14165  11.712  38.605   0.024
41851W        W14166  10.740  12.188   3.674
41852W        W14167  40.221  33.606  12.006
41853W        W14168  32.634  13.309   1.816
41854W        W14169  39.371  18.784   0.401
41855W        W14170  29.157  43.634  12.483
41856W        W14171  13.341  35.149   0.392
41857W        W14172  27.851  22.790  12.528
41858W        W14173   3.356  10.307   1.393
41859W        W14174  27.918  30.495   1.309
41860W        W14175  12.340   1.759  13.423
41861W        W14176  34.178  11.708   2.860
41862W        W14177  26.864   3.283   5.075
41863W        W14178  32.974  12.597  13.848
41864W        W14179  33.721  30.952   3.733
41865W        W14180  21.190   4.280  13.924
41866W        W14181  27.041  37.388  13.449
41867W        W14182  44.892   3.918  14.313
41868W        W14183  36.596  44.982   0.781
41869W        W14184   5.285  13.713  10.498
41870W        W14185  27.052  31.656   2.342
41871W        W14186  26.252  16.102  13.531
41872W        W14187  16.175  27.447   1.403
41873W        W14188  20.706   3.848   3.866
41874W        W14189  27.637  10.591  11.656
41875W        W14190  34.131  29.109   0.263
41876W        W14191  27.326  13.073  11.047
41877W        W14192   4.187  17.291  11.556
41878W        W14193  15.975   5.397  13.141
41879W        W14194  26.111  14.322  10.318
41880W        W14195  43.323  16.614  13.540
41881W        W14196  22.078  18.256  12.061
41882W        W14197  14.739  43.563  10.675
41883W        W14198   8.231   5.878  11.219
41884W        W14199   3.341  40.283  14.831
41885W        W14200  42.219  42.770   3.985
41886W        W14201   8.194  42.098  14.893
41887W        W14202  42.829   3.772   1.658
41888W        W14203  27.376  27.729   1.777
41889W        W14204  26.788   7.180   3.699
41890W        W14205  18.778  18.235   4.239
41891W        W14206   7.955  36.577   1.457
41892W        W14207  42.925  44.815  12.315
41893W        W14208  43.897  13.191  11.689
41894W        W14209  27.570   9.108  12.355
41895W        W14210   7.901  25.587  11.613
41896W        W14211  11.791  31.703  13.383
41897W        W14212  18.388  24.855  14.887
41898W        W14213  21.831  35.817   4.166
41899W        W14214  15.844  35.399  12.958
41900W        W14215  29.622  23.947   1.837
41901W        W14216  30.354  27.626   2.667
41902W        W14217  17.482   9.650   3.322
41903W        W14218  19.021  43.869  14.435
41904W        W14219   8.336   8.716  10.687
41905W        W14220  26.631  25.692  11.124
41906W        W14221  23.706  30.407   4.654
41907W        W14222  21.012  25.078  14.882
41908W        W14223  37.196  25.633   5.461
41909W        W14224   2.508  32.043  11.646
41910W        W14225  40.269   6.355  10.746
41911W        W14226   5.967  14.668   2.492
41912W        W14227  27.127  14.805  14.055
41913W        W14228  20.879   7.713  13.766
41914W        W14229  18.229  40.015  11.963
41915W        W14230   4.640   7.546   0.110
41916W        W14231   7.844  10.004   4.078
41917W        W14232  18.254  10.656  12.118
41918W        W14233   3.069  33.070  14.659
41919W        W14234  42.780  21.243   1.788
41920W        W14235  40.006  32.066   1.648
41921W        W14236  20.741  22.731  12.153
41922W        W14237   9.275  30.106   3.451
41923W        W14238  44.400   3.674   3.829
41924W        W14239  29.581   2.239  13.867
41925W        W14240  10.664  23.056   1.361
41926W        W14241  35.374   6.752  12.134
41927W        W14242  34.469   8.422  14.085
41928W        W14243  18.091  27.621   0.230
41929W        W14244  13.926  12.116   1.218
41930W        W14245  10.888   2.009   3.563
41931W        W14246  28.662  38.832   2.744
41932W        W14247  38.034   4.191  14.035
41933W        W14248  32.908   4.809   4.627
41934W        W14249  18.538  17.280  11.964
41935W        W14250  34.486  38.323  13.404
41936W        W14251   3.714  11.733  11.544
41937W        W14252  11.612   0.712  13.037
41938W        W14253  23.327  44.398   0.190
41939W        W14254  35.580  13.064   0.914
41940W        W14255  13.055   0.190   1.218
41941W        W14256  21.468  14.312  11.106
41942W        W14257  19.525   4.424   2.245
41943W        W14258  31.443  26.647   1.309
41944W        W14259  37.967  13.023  13.951
41945W        W14260  31.564  17.246  14.326
41946W        W14261   4.518  30.656   2.749
41947W        W14262  12.258   9.560  14.073
41948W        W14263   9.128   6.150  10.744
41949W        W14264  21.921   0.450   1.779
41950W        W14265   0.461  23.166  12.923
41951W        W14266   1.638  20.074   2.765
41952W        W14267   8.132  29.272  14.508
41953W        W14268  16.332  41.167   2.889
41954W        W14269  27.610  14.570  14.726
41955W        W14270  31.439  38.716  13.027
41956W        W14271  28.882  10.631  14.052
41957W        W14272  42.459   3.884  10.672
41958W        W14273  33.163  13.949  12.370
41959W        W14274   6.445   9.786  11.545
41960W        W14275  21.558   8.942  13.936
41961W        W14276  15.216  20.063  11.970
41962W        W14277   8.856  36.363  12.064
41963W        W14278   8.898  39.348   4.216
41964W        W14279   8.907  23.162   3.142
41965W        W14280  24.247  10.625  12.464
41966W        W14281  42.379  41.431  12.772
41967W        W14282   8.887  17.216  13.136
41968W        W14283  19.582   0.598  10.760
41969W        W14284  32.006  22.264   1.270
41970W        W14285  11.309  32.156  12.566
41971W        W14286  21.962  33.586  11.603
41972W        W14287  13.433  43.449  13.925
41973W        W14288  35.554   0.354  12.804
41974W        W14289  39.095   1.922   1.888
41975W        W14290  17.459  35.538  11.843
41976W        W14291  23.120   2.079   3.965
41977W        W14292  39.258  20.532   3.358
41978W        W14293   3.124  30.414  13.967
41979W        W14294   3.450  11.417   2.222
41980W        W14295  12.614   1.219  14.955
41981W        W14296  29.590  12.301  14.286
41982W        W14297  13.166  23.694   4.972
41983W        W14298  28.936   4.249   2.495
41984W        W14299   1.841  32.849   4.571
41985W        W14300  43.494  24.806   0.167
41986W        W14301  10.769  11.407   3.159
41987W        W14302  40.405  18.554  13.053
41988W        W14303  25.615  37.191   2.328
41989W        W14304  40.852   1.721   4.283
41990W        W14305  13.562  39.152  12.725
41991W        W14306  17.548   4.496   2.996
41992W        W14307  34.640  42.920  12.021
41993W        W14308  21.559   2.517   3.398
41994W        W14309  10.902  44.743   2.595
41995W        W14310  39.969  21.579   3.580
41996W        W14311  20.169  39.644  10.626
41997W        W14312  19.065  17.215  12.007
41998W        W14313   9.658  28.505  11.090
41999W        W14314  10.020   7.442  11.403
42000W        W14315  22.505  12.160   2.276
42001W        W14316  36.798  16.328  14.037
42002W        W14317  27.985  24.186  12.482
42003W        W14318  36.435  34.811   4.838
42004W        W14319  41.212  25.533  11.015
42005W        W14320   9.203  18.492   5.389
42006W        W14321  11.921  33.921   1.799
42007W        W14322  25.215  37.831   1.242
42008W        W14323  18.574  41.383  13.873
42009W        W14324  16.307  38.856  10.207
42010W        W14325  42.008  31.102  11.890
42011W        W14326  10.621  12.213  12.363
42012W        W14327  15.646  34.956  11.524
42013W        W14328  35.023  13.932  13.447
42014W        W14329  21.703   9.440  13.854
42015W        W14330  29.451  33.158  13.345
42016W        W14331  12.041  30.675   1.147
42017W        W14332   2.942   4.195  11.064
42018W        W14333  35.396  21.040  13.568
42019W        W14334  41.561  31.624   2.295
42020W        W14335  40.513   6.859  10.713
42021W        W14336  37.103  23.217  13.926
42022W        W14337  26.580  17.239   3.707
42023W        W14338  13.047  29.372  13.927
42024W        W14339   5.320  26.520   0.004
42025W        W14340   6.833  26.820  12.571
42026W        W14341  36.411   2.926   4.595
42027W        W14342  27.521   7.878   0.906
42028W        W14343  17.188   9.633   9.917
42029W        W14344  19.680   2.390  14.286
42030W        W14345  44.994  28.201  13.928
42031W        W14346  42.316  32.419   1.216
42032W        W14347  25.137   9.903   1.162
42033W        W14348  23.635  38.162  14.279
42034W        W14349   7.850   3.309   3.539
42035W        W14350  11.127  10.050   3.303
42036W        W14351  18.198  37.846   3.704
42037W        W14352   0.423  10.857  14.778
42038W        W14353  44.045  26.475   0.361
42039W        W14354  19.119  35.649  11.075
42040W        W14355  23.115  16.395  13.431
42041W        W14356   1.967  16.584  11.206
42042W        W14357  42.389  38.530  13.784
42043W        W14358   8.654  10.300   3.165
42044W        W14359  23.590  15.643  12.371
42045W        W14360  10.205  17.392   0.566
42046W        W14361  36.223  19.060  11.788
42047W        W14362  42.932  31.019   3.329
42048W        W14363  16.522  38.435   3.829
42049W        W14364  16.345  21.572   0.348
42050W        W14365  36.310   0.593   2.755
42051W        W14366  33.085  31.896   1.190
42052W        W14367  44.354  21.485   3.203
42053W        W14368   4.976  30.061   2.507
42054W        W14369  30.138  18.184   1.700
42055W        W14370  31.632  15.372  12.357
42056W        W14371  39.486  24.940  10.694
42057W        W14372  44.994   2.522  13.789
42058W        W14373  17.488  16.270   1.278
42059W        W14374  32.899  38.548   3.778
42060W        W14375  11.164  22.024   0.802
42061W        W14376   8.752  10.832   4.953
42062W        W14377  32.117   9.205   3.811
42063W        W14378  36.290  10.389  13.336
42064W        W14379   4.393   6.490   1.462
42065W        W14380  12.715   4.200  10.583
42066W        W14381  36.988  22.536  12.063
42067W        W14382   1.402   7.250   3.361
42068W        W14383  28.077  16.833  12.082
42069W        W14384  36.665  36.706   1.218
42070W        W14385  13.127  25.736  13.511
42071W        W14386  15.330  19.614  10.695
42072W        W14387  33.233  23.659  12.990
42073W        W14388   7.709  19.907  11.565
42074W        W14389  36.566  25.083   3.074
42075W        W14390  18.976  44.102   3.707
42076W        W14391   3.758  29.711   3.640
42077W        W14392  39.918  11.194  13.921
42078W        W14393  41.956  29.626   0.797
42079W        W14394  34.357  39.844   1.297
42080W        W14395  14.568   8.900  10.988
42081W        W14396  33.469  40.776  12.886
42082W        W14397   6.933  35.693  13.071
42083W        W14398  36.242  11.064  12.072
42084W        W14399  21.803  40.970   0.814
42085W        W14400  22.934  32.994  14.071
42086W        W14401  15.876  32.861   0.023
42087W        W14402  36.582  14.222   4.806
42088W        W14403   4.554  33.075   0.029
42089W        W14404  20.790  29.871   2.127
42090W        W14405  26.079  32.419   3.041
42091W        W14406  44.001  21.968   4.029
42092W        W14407  40.541  18.221  13.719
42093W        W14408  30.236  17.603   0.257
42094W        W14409   5.900  19.219   3.572
42095W        W14410  20.264  32.009   0.212
42096W        W14411  12.591  21.301  14.483
42097W        W14412  38.059  30.477   4.676
42098W        W14413  40.534  41.777   3.904
42099W        W14414  38.217  26.575  11.077
42100W        W14415  33.004  26.692  14.574
42101W        W14416  21.831  22.500   4.581
42102W        W14417  39.350   5.389  13.384
42103W        W14418  26.873  16.869  13.292
42104W        W14419  33.389  19.148  11.647
42105W        W14420  37.308   8.136   3.512
42106W        W14421  19.093  36.443   4.743
42107W        W14422  16.384  36.882  11.573
42108W        W14423  36.301   4.815   2.876
42109W        W14424  28.957  36.573   2.509
42110W        W14425  30.857  25.281   0.310
42111W        W14426  40.843  25.607  14.070
42112W        W14427   9.981  36.804   4.081
42113W        W14428  17.685  37.150  14.752
42114W        W14429  17.803  26.066   0.849
42115W        W14430  36.372  22.075   3.113
42116W        W14431   9.781  19.738  13.385
42117W        W14432  31.111  29.632  12.007
42118W        W14433   0.075  35.646   3.729
42119W        W14434  15.341  34.487   3.172
42120W        W14435  21.056  18.049  13.757
42121W        W14436   5.431  33.977   3.111
42122W        W14437  44.863  40.895   0.792
42123W        W14438   3.704  26.189   0.720
42124W        W14439  30.968  29.607   0.349
42125W        W14440  16.120  36.443   3.835
42126W        W14441   5.436  42.254  11.064
42127W        W14442   2.354  14.125   0.305
42128W        W14443  15.217  39.781   4.398
42129W        W14444  14.454  10.190  11.930
42130W        W14445   2.418  40.611   2.983
42131W        W14446  19.489   5.168  13.044
42132W        W14447   8.400  29.048   4.229
42133W        W14448  13.124   9.262   4.072
42134W        W14449  24.028  43.978  12.930
42135W        W14450   5.775  13.215   0.506
42136W        W14451  26.046  11.252   1.899
42137W        W14452  17.768  41.581  12.546
42138W        W14453  22.616  19.003  13.494
42139W        W14454  40.588  16.477   4.143
42140W        W14455  38.458   3.445  10.584
42141W        W14456  15.075  20.801   4.506
42142W        W14457  27.977  23.235   0.180
42143W        W14458  43.288  33.411   2.414
42144W        W14459  23.313  39.858  12.877
42145W        W14460   5.377   2.966   3.944
42146W        W14461  22.432  19.618   3.684
42147W        W14462  43.949  11.712  10.228
42148W        W14463  26.821  26.088  11.490
42149W        W14464  23.230  33.530   0.726
42150W        W14465  25.931  40.653   3.293
42151W        W14466  29.049  31.021   4.915
42152W        W14467  10.679  17.563   2.903
42153W        W14468  19.122  37.171   4.238
42154W        W14469  44.408  14.498   3.642
42155W        W14470  18.293  35.188  12.127
42156W        W14471  18.088  29.865  12.423
42157W        W14472  36.496  19.580   0.760
42158W        W14473  24.459   0.503  11.949
42159W        W14474  26.072   8.593   4.454
42160W        W14475  29.555  11.252   2.493
42161W        W14476  29.030   8.172  11.678
42162W        W14477  42.083  16.526  10.930
42163W        W14478  39.949  44.947   1.298
42164W        W14479  41.758  36.398   2.741
42165W        W14480  32.974  34.903   3.955
42166W        W14481  17.631  36.584   2.799
42167W        W14482   7.856  31.866   3.671
42168W        W14483  34.075  22.218   1.838
42169W        W14484  33.531  37.649  13.811
42170W        W14485  34.800   8.658  10.110
42171W        W14486  43.333   6.366  14.732
42172W        W14487  20.204   5.217  12.105
42173W        W14488  42.278   7.196   0.024
42174W        W14489  33.387   2.807  11.060
42175W        W14490  25.743   3.815   0.692
42176W        W14491  33.355  23.877   4.423
42177W        W14492   9.564   3.588   3.233
42178W        W14493   1.319  33.644  11.407
42179W        W14494  30.995  38.735  12.574
42180W        W14495  17.299  27.510  14.988
42181W        W14496  21.572  19.566  14.344
42182W        W14497  29.102   5.851   3.366
42183W        W14498  43.053  44.448   2.869
42184W        W14499  41.996   8.632  11.902
42185W        W14500  40.519  10.111   3.381
42186W        W14501   2.496  24.543  11.036
42187W        W14502  34.075  44.772  10.370
42188W        W14503   3.325  16.114  11.539
42189W        W14504  30.834  33.042  12.494
42190W        W14505  19.631  22.493   3.391
42191W        W14506  34.624   2.748  11.928
42192W        W14507   7.842  25.775  13.385
42193W        W14508  16.574   7.169   1.958
42194W        W14509  27.777  23.997  14.376
42195W        W14510  18.750  13.927  10.727
42196W        W14511  36.332   1.247  11.606
42197W        W14512  24.244  31.513   2.799
42198W        W14513  36.325  36.363   4.091
42199W        W14514   8.022  29.324  12.676
42200W        W14515  43.802  24.474  14.447
42201W        W14516   0.247   3.968   2.320
42202W        W14517   6.348  10.187  12.489
42203W        W14518  27.056  16.043  11.642
42204W        W14519  32.422  15.133  11.346
42205W        W14520  31.217  26.531   4.593
42206W        W14521  23.711   7.634   4.872
42207W        W14522   1.065  40.704  11.775
42208W        W14523  22.482   9.454  12.976
42209W        W14524  21.992  34.719   0.832
42210W        W14525  34.579  15.104   3.300
42211W        W14526   9.824  44.792  11.034
42212W        W14527  29.824  22.982   1.928
42213W        W14528   2.815  15.510   3.621
42214W        W14529  14.805  31.694  14.375
42215W        W14530  26.212  38.978   1.019
42216W        W14531  17.572  16.604   0.723
42217W        W14532  44.770  15.221   2.774
42218W        W14533  15.928   2.625  13.521
42219W        W14534  20.330  30.068   2.305
42220W        W14535  31.134  10.439   3.669
42221W        W14536  39.838  24.124  14.546
42222W        W14537   7.855  33.483  13.800
42223W        W14538  15.191  29.852   4.967
42224W        W14539   0.238  28.979  11.722
42225W        W14540  13.779  17.503  12.428
42226W        W14541  13.035   5.596   4.023
42227W        W14542  19.111  11.463  13.773
42228W        W14543  31.129  35.028   2.008
42229W        W14544  24.229  24.670  11.568
42230W        W14545  12.231  27.513  12.604
42231W        W14546  18.697  44.562   3.843
42232W        W14547  44.408  12.298  14.973
42233W        W14548  36.452   3.327   3.191
42234W        W14549  37.604   3.935  12.870
42235W        W14550   8.929  23.537   0.948
42236W        W14551  10.541  11.858  11.130
42237W        W14552   1.246  29.761   0.074
42238W        W14553  30.760   0.920  11.975
42239W        W14554  19.533  40.890  10.499
42240W        W14555  31.428  26.802   2.176
42241W        W14556  10.366   2.911  12.133
42242W        W14557  12.870  21.616   3.193
42243W        W14558  27.229  28.642  10.635
42244W        W14559   0.982  44.600   5.088
42245W        W14560  20.255   0.150  13.778
42246W        W14561  29.044  10.160  13.924
42247W        W14562  25.650  41.614   3.600
42248W        W14563  31.907   6.266   2.861
42249W        W14564   9.869   2.178  11.487
42250W        W14565  28.075  26.508   2.793
42251W        W14566  43.548  14.423   5.108
42252W        W14567  13.759  28.797  11.215
42253W        W14568  33.878  39.442  13.975
42254W        W14569   4.059  24.051   2.853
42255W        W14570  17.652  35.831   3.224
42256W        W14571   9.658  31.178  12.533
42257W        W14572   1.964  21.642  13.461
42258W        W14573  32.522  43.958   4.231
42259W        W14574  42.311  12.112   1.269
42260W        W14575  19.673  14.065  13.414
42261W        W14576   4.009   2.247   3.904
42262W        W14577  41.472  26.642   1.362
42263W        W14578  11.352   6.874   2.835
42264W        W14579   8.811  15.801   5.062
42265W        W14580  18.828  30.968  12.894
42266W        W14581  30.385  43.049  13.989
42267W        W14582  41.399  36.981   3.361
42268W        W14583  38.577  17.804  14.819
42269W        W14584  44.029  29.494   0.181
42270W        W14585  23.258  26.613   1.710
42271W        W14586  24.231  34.010   4.407
42272W        W14587  36.492  15.689   3.679
42273W        W14588   7.574   5.693   4.326
42274W        W14589  37.592  42.822  12.331
42275W        W14590  13.369  41.831   0.902
42276W        W14591  34.048  14.030   0.942
42277W        W14592   0.234  34.804  10.927
42278W        W14593  25.380  15.759  13.432
42279W        W14594   8.197  11.569   0.249
42280W        W14595  37.639  36.090  12.027
42281W        W14596  12.001  31.894   4.142
42282W        W14597  17.672  14.689  11.576
42283W        W14598  13.153  30.459   1.905
42284W        W14599  41.440  13.475  14.445
42285W        W14600  27.564  34.372   1.230
42286W        W14601   0.293  29.362   3.214
42287W        W14602  43.270  15.723   3.841
42288W        W14603   1.697  29.674  12.481
42289W        W14604  33.040  25.431  10.501
42290W        W14605  24.225  41.291   1.670
42291W        W14606  38.504  26.226   2.577
42292W        W14607  12.752  34.078  12.973
42293W        W14608  22.709   6.751  14.988
42294W        W14609  35.685  18.662   2.779
42295W        W14610  31.933  34.626  11.688
42296W        W14611  29.528  36.285  14.856
42297W        W14612  39.785  22.962   0.471
42298W        W14613  40.367  44.661   1.842
42299W        W14614  15.501   7.918  11.840
42300W        W14615  33.796  30.415  13.934
42301W        W14616  36.164   9.999   2.686
42302W        W14617  25.623  38.592  13.308
42303W        W14618  21.298  37.972   4.557
42304W        W14619  40.917  33.480  10.730
42305W        W14620  42.351  35.521   4.372
42306W        W14621  10.654  13.168   2.732
42307W        W14622   3.334  34.732  11.216
42308W        W14623   4.699  37.994  14.992
42309W        W14624  35.953  24.323  10.726
42310W        W14625  26.480   8.254   0.984
42311W        W14626  25.687  32.390  14.358
42312W        W14627  19.546  17.546   0.526
42313W        W14628  37.333  31.950  13.605
42314W        W14629  42.088  16.622   2.375
42315W        W14630   6.177  12.260  14.036
42316W        W14631  30.613  21.798  11.144
42317W        W14632  30.023  29.981  11.407
42318W        W14633  43.147   9.796   2.732
42319W        W14634  26.067  39.770   2.975
42320W        W14635  29.115  43.996  10.631
42321W        W14636  29.483  25.102   3.327
42322W        W14637  42.690  20.979   2.741
42323W        W14638  15.666  19.059  14.965
42324W        W14639  33.547  18.128  14.609
42325W        W14640  25.398  15.593  10.899
42326W        W14641  40.055  37.293   2.798
42327W        W14642  39.960  27.231   2.671
42328W        W14643  21.465  33.340   1.873
42329W        W14644  41.398  41.819  11.521
42330W        W14645  26.979  32.405  12.367
42331W        W14646  37.805  33.801  14.457
42332W        W14647  23.497  21.819  11.223
42333W        W14648  31.735   8.368  13.668
42334W        W14649  31.593   4.910  13.701
42335W        W14650  36.069  16.773  13.495
42336W        W14651  15.228  11.637  13.871
42337W        W14652  19.744   3.925   0.523
42338W        W14653  19.088  26.419  14.883
42339W        W14654  30.062   0.859  10.815
42340W        W14655  12.692   2.039   4.071
42341W        W14656  17.832  37.410   4.322
42342W        W14657  14.747  30.079   2.982
42343W        W14658  18.664   6.406  13.309
42344W        W14659  34.299  35.820   4.504
42345W        W14660  13.753  15.625  13.088
42346W        W14661  24.663  32.388   2.602
42347W        W14662  12.644  24.151  13.516
42348W        W14663  44.326   6.795  12.288
42349W        W14664   1.230  11.834  14.912
42350W        W14665  39.568   9.204  14.519
42351W        W14666  40.381  35.466  12.049
42352W        W14667  30.445  16.983   2.705
42353W        W14668   3.532   2.933   3.530
42354W        W14669   7.141  10.232   0.940
42355W        W14670  14.587   0.294   4.822
42356W        W14671  28.614   1.778   1.486
42357W        W14672  19.752  27.123   4.965
42358W        W14673  18.771  12.287  14.819
42359W        W14674  41.578  31.956   0.952
42360W        W14675  42.348  14.847   3.681
42361W        W14676   3.765  10.816   4.352
42362W        W14677  43.340  10.405  11.212
42363W        W14678  13.638  12.575  11.092
42364W        W14679  27.120  17.211  13.602
42365W        W14680  37.034  30.473  14.337
42366W        W14681  16.868  38.469  12.464
42367W        W14682   1.914  43.956   0.853
42368W        W14683   8.414   0.028  11.982
42369W        W14684  36.608  28.652  11.055
42370W        W14685   8.120  27.554   0.880
42371W        W14686  43.735  35.816  12.487
42372W        W14687  10.999  18.733   4.924
42373W        W14688  37.511  34.326   2.409
42374W        W14689  27.149  40.875  14.003
42375W        W14690   7.798  17.817   0.922
42376W        W14691  36.320   2.289   3.824
42377W        W14692  33.604   3.729   1.930
42378W        W14693   8.082  39.449  10.577
42379W        W14694  20.537  31.936  13.513
42380W        W14695  40.750  24.427  14.227
42381W        W14696  21.137  20.598   4.598
42382W        W14697   4.888  33.172   2.418
42383W        W14698   9.824   8.921  11.488
42384W        W14699  11.384  39.382   1.216
42385W        W14700  22.600  11.628   4.013
42386W        W14701  40.904   6.998   3.627
42387W        W14702  31.650  14.250   4.190
42388W        W14703  10.083  27.663   3.864
42389W        W14704  11.237  25.726  11.052
42390W        W14705  12.692  15.082  11.930
42391W        W14706   1.932  34.010  13.074
42392W        W14707   0.486  11.365  14.895
42393W        W14708  40.031  10.844   0.807
42394W        W14709  35.444  32.383   4.752
42395W        W14710  39.447  11.411  13.862
42396W        W14711  38.931  19.509  13.609
42397W        W14712  22.769   7.944  14.916
42398W        W14713  15.568  19.163   3.097
42399W        W14714  16.375  30.528   3.710
42400W        W14715  16.737  12.817  12.563
42401W        W14716  21.742  32.525   2.741
42402W        W14717   0.263  26.237  12.394
42403W        W14718  31.745  41.580  11.265
42404W        W14719  26.399  15.688   2.368
42405W        W14720  40.031  26.536  12.744
42406W        W14721  27.844   3.970   0.963
42407W        W14722   8.257  10.125   4.653
42408W        W14723  23.767   5.409   4.532
42409W        W14724  12.562   4.669   0.505
42410W        W14725  23.115  16.921  14.149
42411W        W14726   3.954  30.474  14.291
42412W        W14727  23.963  19.736   5.051
42413W        W14728  30.135  37.857   3.552
42414W        W14729  29.152  23.646  11.956
42415W        W14730  17.435  15.401   3.366
42416W        W14731  20.776  20.009  14.241
42417W        W14732  37.839  24.670  13.840
42418W        W14733  12.444  36.116   0.798
42419W        W14734   1.405   1.560   4.084
42420W        W14735  20.489  10.452  12.850
42421W        W14736   2.565  33.353  13.414
42422W        W14737   5.351  16.567   4.135
42423W        W14738  34.394  25.733   1.587
42424W        W14739  29.804   1.946   0.442
42425W        W14740  39.397   7.966   3.671
42426W        W14741   9.198  30.863  14.342
42427W        W14742   0.340  42.489  11.599
42428W        W14743  36.617   7.832  10.644
42429W        W14744  32.886  31.053  12.400
42430W        W14745  35.340   3.481   3.666
42431W        W14746  30.086  21.134   1.792
42432W        W14747  38.333  20.307   2.194
42433W        W14748   3.351  41.894  14.365
42434W        W14749   4.243  37.748   3.375
42435W        W14750  32.944  38.071   1.155
42436W        W14751  10.640  10.223   1.700
42437W        W14752   1.501  24.519  14.779
42438W        W14753  21.745  32.146  10.377
42439W        W14754  14.696  20.503   1.866
42440W        W14755  40.462  28.180  14.273
42441W        W14756  37.759  23.668   3.715
42442W        W14757  24.664  34.394   1.718
42443W        W14758   3.751  43.900  11.495
42444W        W14759  36.851  33.455   0.817
42445W        W14760   1.476   1.406  13.110
42446W        W14761  37.057   8.272  12.492
42447W        W14762  34.078  43.189  11.279
42448W        W14763  25.688  39.145  10.083
42449W        W14764  16.810  11.825  11.944
42450W        W14765  37.583  38.885   3.117
42451W        W14766  36.511  30.259  12.966
42452W        W14767  32.429   1.247   1.938
42453W        W14768  12.256  28.354  12.707
42454W        W14769  33.254   8.905   3.102
42455W        W14770  13.768  11.741   3.716
42456W        W14771  24.148  25.268   4.239
42457W        W14772  11.780   1.426   0.181
42458W        W14773   4.577  16.973  11.433
42459W        W14774  33.282  13.507   1.067
42460W        W14775  31.644  18.610   3.767
42461W        W14776  33.830  38.679   0.436
42462W        W14777  24.973  30.087   2.743
42463W        W14778  41.872  31.329   2.813
42464W        W14779   8.579  23.607  14.377
42465W        W14780  34.147  15.121   1.288
42466W        W14781  23.510   4.959   2.826
42467W        W14782  25.612  20.448  13.470
42468W        W14783  26.861  25.034  13.341
42469W        W14784  34.440  18.260   1.266
42470W        W14785  19.930  26.490  11.000
42471W        W14786  16.051  19.993   0.901
42472W        W14787  27.636  26.935   3.121
42473W        W14788  37.977  30.994   3.263
42474W        W14789  10.709  24.677  10.678
42475W        W14790   3.275   2.678   3.171
42476W        W14791  24.942  13.700  10.792
42477W        W14792   9.687  24.400   3.667
42478W        W14793  33.273  32.036   5.011
42479W        W14794  11.377  27.013   3.851
42480W        W14795  30.037  37.286  12.921
42481W        W14796   3.809  39.090   3.761
42482W        W14797  29.583  21.653   3.386
42483W        W14798  34.495  13.531   4.017
42484W        W14799  19.026  33.407  12.939
42485W        W14800   5.826  15.224  13.527
42486W        W14801  31.891   7.925  12.959
42487W        W14802   1.182  41.516  13.773
42488W        W14803  14.082  37.914   2.701
42489W        W14804  22.785  38.832   3.937
42490W        W14805  31.841   1.856  13.900
42491W        W14806   9.140  35.906  12.077
42492W        W14807  15.954  22.019   4.390
42493W        W14808  18.778   1.636  13.013
42494W        W14809  19.724  37.771   3.701
42495W        W14810  23.553  41.385   4.417
42496W        W14811  17.033  14.211  13.943
42497W        W14812  31.111  33.414   4.904
42498W        W14813  24.501  33.946  12.893
42499W        W14814  43.964  15.370  12.447
42500W        W14815  25.009  16.695  12.071
42501W        W14816   2.215   4.836   2.177
42502W        W14817  10.872  15.692  11.645
42503W        W14818  20.743  40.927   2.312
42504W        W14819  30.063  10.717   4.159
42505W        W14820   6.140  18.758  14.782
42506W        W14821  36.075   3.798   1.996
42507W        W14822  43.319  11.698  10.819
42508W        W14823  20.511  31.502  14.296
42509W        W14824  36.444  32.728  11.973
42510W        W14825   3.888  24.811   1.240
42511W        W14826  14.050   8.037  14.832
42512W        W14827  43.942   6.119   2.031
42513W        W14828  12.983  33.374   1.495
42514W        W14829  37.390   7.258   1.447
42515W        W14830  30.241  34.117   2.136
42516W        W14831  42.104   1.469   0.361
42517W        W14832  41.782  40.418   0.903
42518W        W14833  20.078   4.363   4.636
42519W        W14834   6.853   3.069   1.782
42520W        W14835  33.558  25.104  13.926
42521W        W14836   3.666  14.586   3.644
42522W        W14837  25.243  32.572  10.629
42523W        W14838  23.434  25.751   2.616
42524W        W14839   4.785  10.287   4.764
42525W        W14840  37.030  13.306   1.578
42526W        W14841   3.720  11.729   3.902
42527W        W14842  17.068  33.464  12.022
42528W        W14843  35.166  37.880   4.694
42529W        W14844  40.795  11.248  12.619
42530W        W14845  10.630  36.525  11.258
42531W        W14846  28.653  13.121  10.999
42532W        W14847  29.137   6.213  14.383
42533W        W14848  37.912  40.327  12.451
42534W        W14849  35.848  34.472  11.661
42535W        W14850  22.009  13.986  13.852
42536W        W14851   9.461  21.054  13.808
42537W        W14852  28.367  23.253  11.757
42538W        W14853  28.190   4.407   1.797
42539W        W14854   5.299  29.705   4.207
42540W        W14855  26.966  39.061   1.529
42541W        W14856  36.021  20.175  10.827
42542W        W14857  39.954  36.552  13.396
42543W        W14858   4.168  39.012  12.039
42544W        W14859  37.379  43.810  11.099
42545W        W14860  27.481  30.400   4.663
42546W        W14861  35.198  24.534  11.700
42547W        W14862  17.018   4.344   3.685
42548W        W14863  30.177  23.225   3.835
42549W        W14864  33.613  42.252  12.935
42550W        W14865   3.284  22.571  14.250
42551W        W14866  33.367  41.742  11.157
42552W        W14867   1.258  20.986  11.110
42553W        W14868  10.832  32.035   4.538
42554W        W14869  37.991  38.326   1.405
42555W        W14870  38.074  30.394  12.797
42556W        W14871   0.257  13.104  10.206
42557W        W14872   8.686  20.538  11.062
42558W        W14873  44.031  17.369  12.361
42559W        W14874   6.940   2.431   3.665
42560W        W14875  43.236  10.761   2.678
42561W        W14876  10.895  20.105   1.233
42562W        W14877  19.240   6.272  13.920
42563W        W14878   9.289  12.754  11.326
42564W        W14879  44.023   6.165  10.997
42565W        W14880   1.744   9.256   3.262
42566W        W14881  17.874   4.972   3.203
42567W        W14882   9.413  37.830  14.893
42568W        W14883  12.673  36.592  13.153
42569W        W14884  27.509   2.706  14.361
42570W        W14885   1.355  30.984   1.602
42571W        W14886  23.655  17.733  10.328
42572W        W14887  41.096  32.130  11.489
42573W        W14888  20.831  29.321  10.243
42574W        W14889  12.705  31.862  13.416
42575W        W14890  32.141  39.038   0.280
42576W        W14891   6.261  27.707  13.654
42577W        W14892   5.788  30.392  14.852
42578W        W14893  34.308  23.791  13.039
42579W        W14894   8.894   8.974   4.556
42580W        W14895  19.294  16.154  13.786
42581W        W14896  32.924  35.025  13.909
42582W        W14897  24.682  29.626  14.327
42583W        W14898  41.937  39.940   2.634
42584W        W14899  35.948  34.945  11.489
42585W        W14900   0.634  34.144  10.853
42586W        W14901  19.688   0.440   0.353
42587W        W14902  35.427  37.029  12.494
42588W        W14903   0.994  34.199  11.627
42589W        W14904  39.924  27.475   0.826
42590W        W14905  33.323   1.753  11.143
42591W        W14906  30.178  41.512   1.397
42592W        W14907  44.531  44.248  14.495
42593W        W14908  32.404  19.451   1.429
42594W        W14909  22.988   3.934   2.319
42595W        W14910   8.205  23.696  13.711
42596W        W14911   5.895  26.588   1.656
42597W        W14912  33.539  18.075   0.936
42598W        W14913  31.898  13.640   1.298
42599W        W14914  38.541  43.405  10.522
42600W        W14915  16.215  11.426  13.484
42601W        W14916  28.266  26.426  11.590
42602W        W14917  25.852  33.638  12.520
42603W        W14918  32.521  37.873   0.889
42604W        W14919  17.064  33.236   4.297
42605W        W14920  33.710   7.123   3.285
42606W        W14921   1.427  10.709  11.594
42607W        W14922  38.809  39.097  14.444
42608W        W14923   2.732  23.562   1.667
42609W        W14924  22.943   0.997  10.644
42610W        W14925  44.344  20.692   2.744
42611W        W14926  34.219  34.850   2.942
42612W        W14927   1.123  44.299   3.672
42613W        W14928   2.290  38.742   3.641
42614W        W14929  42.713  37.328   3.674
42615W        W14930  38.356  18.118  10.748
42616W        W14931   9.859  16.690  11.564
42617W        W14932  43.099   2.228  13.458
42618W        W14933  15.661   0.282   1.284
42619W        W14934  12.350   9.338   2.782
42620W        W14935  13.681  31.207   2.944
42621W        W14936  16.676  16.104   1.684
42622W        W14937  23.586  37.388  10.660
42623W        W14938  32.065  26.167   1.880
42624W        W14939  30.613  12.888   0.235
42625W        W14940  43.457  23.441   0.050
42626W        W14941   0.893  32.682   4.660
42627W        W14942  18.043  23.037   0.003
42628W        W14943   7.890  12.870   3.167
42629W        W14944  16.265  34.951   0.182
42630W        W14945  22.654  44.505   4.778
42631W        W14946  26.842   6.295   5.455
42632W        W14947   9.796  38.503  13.172
42633W        W14948  28.506  14.790   0.238
42634W        W14949  15.749  35.628  11.054
42635W        W14950  20.853  18.504  12.952
42636W        W14951  38.204  36.789  12.263
42637W        W14952  34.865  33.666   1.222
42638W        W14953  27.912  43.043  13.821
42639W        W14954  22.333  42.826   0.799
42640W        W14955   0.832  17.834   2.732
42641W        W14956  40.878  12.731  13.526
42642W        W14957  27.181   4.273  14.165
42643W        W14958  16.772  28.216   3.710
42644W        W14959  31.701   1.308   0.949
42645W        W14960   4.686  28.993   1.898
42646W        W14961  10.281  33.565  13.456
42647W        W14962  41.595   8.679   2.392
42648W        W14963   9.548   5.511  11.661
42649W        W14964  36.773   5.309  11.423
42650W        W14965  18.091  34.330  11.108
42651W        W14966  32.019  21.597  13.809
42652W        W14967  13.523  38.072   0.485
42653W        W14968  32.247  37.546  14.523
42654W        W14969  28.142  11.067  10.215
42655W        W14970  19.230   3.291  12.132
42656W        W14971  11.506  12.134  14.058
42657W        W14972   9.325  19.854  14.156
42658W        W14973  29.367  23.709  14.171
42659W        W14974  35.189  18.482  14.527
42660W        W14975  29.360   5.937  13.939
42661W        W14976  27.070   4.192   2.637
42662W        W14977  37.296  11.045  13.928
42663W        W14978  21.497   2.485  12.891
42664W        W14979  16.382  14.842   3.194
42665W        W14980  42.018  27.017  11.451
42666W        W14981  25.606   2.532  12.377
42667W        W14982  27.094   5.924   0.285
42668W        W14983  43.850  23.133  13.129
42669W        W14984   9.260  35.353   1.823
42670W        W14985  35.990  32.614  11.194
42671W        W14986  14.273  37.322  11.508
42672W        W14987  12.194  20.420   1.590
42673W        W14988  11.897   9.081   2.820
42674W        W14989  16.657  32.064   0.475
42675W        W14990  27.662   7.216  13.483
42676W        W14991  11.218  29.344  14.598
42677W        W14992  37.002  33.165  12.783
42678W        W14993   7.891  31.882  11.526
42679W        W14994  34.859  42.197  12.428
42680W        W14995  17.236  18.083  10.720
42681W        W14996   7.916  19.568   3.648
42682W        W14997  19.606  22.960  14.812
42683W        W14998  33.830   6.876   0.900
42684W        W14999   3.695  41.757  13.812
42685W        W15000  25.755  29.226   3.797
42686W        W15001  35.401   1.781  14.091
42687W        W15002  22.570   3.192   3.310
42688W        W15003  40.323  44.268  12.427
42689W        W15004  33.517  24.946  12.960
42690W        W15005  40.848  14.081  11.850
42691W        W15006  16.570  23.660   0.727
42692W        W15007   2.055  14.077   4.880
42693W        W15008  16.833  42.029  11.171
42694W        W15009  33.797   2.838   1.625
42695W        W15010  18.524  26.519  14.268
42696W        W15011  18.575  18.560   4.571
42697W        W15012   7.269  42.896   2.569
42698W        W15013   4.292  39.942  12.459
42699W        W15014  29.021  44.768   4.112
42700W        W15015   8.652  22.547  10.765
42701W        W15016  43.810  43.983   3.677
42702W        W15017  40.823   4.841  11.749
42703W        W15018  22.244  15.161   0.432
42704W        W15019  31.046   1.993   4.592
42705W        W15020   3.503  14.703  13.061
42706W        W15021  20.710  42.689   1.499
42707W        W15022  36.878  37.771  14.448
42708W        W15023  32.547  24.196   3.823
42709W        W15024   6.320  31.390   1.811
42710W        W15025   7.169  43.417   0.981
42711W        W15026   4.286  38.462   0.313
42712W        W15027  36.850  42.218   4.087
42713W        W15028  35.160  17.334   3.113
42714W        W15029  18.854  18.734  11.098
42715W        W15030  22.263  43.545  10.737
42716W        W15031  37.830  33.325  14.641
42717W        W15032  11.758  15.624   3.930
42718W        W15033   3.388  19.431   1.723
42719W        W15034  16.162  16.548   4.634
42720W        W15035  37.484  44.034   3.693
42721W        W15036  40.406  15.370  12.642
42722W        W15037  20.612  35.976   4.078
42723W        W15038  17.389   4.072  14.004
42724W        W15039  21.451   3.830  13.976
42725W        W15040  26.901  25.507   2.573
42726W        W15041  15.558  21.157  14.467
42727W        W15042  29.514   6.751  14.897
42728W        W15043  19.733  11.659  14.061
42729W        W15044  38.917  38.845   2.986
42730W        W15045   7.369   4.136   1.336
42731W        W15046  38.138  18.258  13.401
42732W        W15047  15.077  32.241   3.074
42733W        W15048  24.485   5.338   0.455
42734W        W15049  33.958  40.555   2.151
42735W        W15050  12.721   6.048  12.273
42736W        W15051   5.639  40.124  13.325
42737W        W15052  13.794  18.526   1.775
42738W        W15053  27.962  25.973   1.849
42739W        W15054  44.886   9.646   3.260
42740W        W15055   8.382  34.363   4.698
42741W        W15056  26.688   4.930  12.071
42742W        W15057  10.453  40.325  11.451
42743W        W15058  22.104  20.659  10.135
42744W        W15059  27.507   9.443   3.189
42745W        W15060  31.984  32.072  14.794
42746W        W15061  18.511  15.813   4.640
42747W        W15062  43.488  31.614   0.421
42748W        W15063  37.522  28.746  12.080
42749W        W15064   8.324  22.137  11.674
42750W        W15065  15.116  26.746   4.213
42751W        W15066  32.957  11.692   1.134
42752W        W15067  33.935  17.607   2.685
42753W        W15068  34.294  11.222   2.229
42754W        W15069  14.628  14.028   2.231
42755W        W15070  38.677  40.051   3.206
42756W        W15071  25.250   4.941   4.591
42757W        W15072  14.344  40.320   1.003
42758W        W15073  33.889  40.330  11.854
42759W        W15074  18.086  17.764   4.942
42760W        W15075  17.296  33.137  12.388
42761W        W15076  27.424  15.006   0.741
42762W        W15077  25.600   4.272   0.423
42763W        W15078  26.191  27.282   3.316
42764W        W15079  41.796  11.120  13.892
42765W        W15080  27.494  30.921  12.909
42766W        W15081  33.988  44.681  11.414
42767W        W15082   8.961  40.875   1.444
42768W        W15083  30.174  36.881   3.218
42769W        W15084  10.199  25.537  14.324
42770W        W15085  41.811  44.468   4.074
42771W        W15086  19.086   4.705  13.741
42772W        W15087   8.904  29.036  10.626
42773W        W15088  19.280  37.056  11.022
42774W        W15089  42.418  24.040  12.305
42775W        W15090  19.594  31.604   2.076
42776W        W15091  32.645  33.175   1.270
42777W        W15092  43.919  43.473  12.789
42778W        W15093  22.715  12.878   0.329
42779W        W15094   5.934  38.362   1.530
42780W        W15095  28.057  36.008  10.614
42781W        W15096  26.780  43.568   4.242
42782W        W15097  24.366  14.340  11.215
42783W        W15098  19.084  43.896  10.470
42784W        W15099  16.966   6.455  12.905
42785W        W15100   2.309  19.186   4.604
42786W        W15101   3.743  32.418   2.264
42787W        W15102   2.314   7.259  13.066
42788W        W15103  26.586  12.215   3.685
42789W        W15104  12.653  15.517   1.323
42790W        W15105  16.561   1.507   4.225
42791W        W15106   3.628  35.581  11.644
42792W        W15107   4.873   5.849  14.427
42793W        W15108  36.026  31.164   3.298
42794W        W15109  36.849   0.658   1.287
42795W        W15110  41.646  15.400   4.614
42796W        W15111   8.911  27.942   1.075
42797W        W15112  25.702  39.808   2.349
42798W        W15113  34.367   9.813  12.713
42799W        W15114  15.207   9.214  13.138
42800W        W15115   4.261  15.121   1.340
42801W        W15116  21.522  44.351  14.832
42802W        W15117  38.438   4.163  13.072
42803W        W15118  34.908  19.746   4.479
42804W        W15119  35.442   2.685   0.933
42805W        W15120  16.238  33.317   4.185
42806W        W15121  11.353  36.527  11.823
42807W        W15122   4.893  36.259  14.895
42808W        W15123  33.051  34.322  11.043
42809W        W15124  29.686  41.438   3.814
42810W        W15125  15.349  41.745  14.338
42811W        W15126  43.040  43.251   1.342
42812W        W15127  40.146  29.882   2.299
42813W        W15128  39.003  11.745   1.618
42814W        W15129  39.466  39.740  12.002
42815W        W15130  11.632  26.909  12.811
42816W        W15131  27.404   1.363   2.116
42817W        W15132  36.081  37.363  11.099
42818W        W15133  39.450  44.964   1.981
42819W        W15134  32.619  20.083  14.386
42820W        W15135  33.745  35.090   2.955
42821W        W15136   7.844  23.742  12.408
42822W        W15137  15.684  36.114  10.944
42823W        W15138  41.585  21.688   3.156
42824W        W15139  27.911  12.422  11.964
42825W        W15140   7.320  23.949  12.512
42826W        W15141   3.253  20.291  12.033
42827W        W15142  29.406  21.727   0.853
42828W        W15143   8.787  24.030   4.116
42829W        W15144   8.130   0.195  11.606
42830W        W15145  15.824  43.347   1.198
42831W        W15146  25.493  20.480  11.883
42832W        W15147   7.993   1.903   1.985
42833W        W15148  43.362  17.977  12.507
42834W        W15149  41.525  37.991   3.213
42835W        W15150  26.029  27.041  12.219
42836W        W15151   4.324  28.341  11.231
42837W        W15152  19.401   7.429   2.458
42838W        W15153  23.312  22.536   1.309
42839W        W15154  34.436   9.903   1.279
42840W        W15155  18.520  28.769   0.254
42841W        W15156  43.508  32.302   4.424
42842W        W15157  37.563  37.148   3.742
42843W        W15158  23.017  39.313  11.546
42844W        W15159  19.722   5.652  14.472
42845W        W15160  19.607  28.626  14.383
42846W        W15161  27.599   5.018  12.050
42847W        W15162  15.188  27.498  13.815
42848W        W15163  20.025  28.390   0.684
42849W        W15164  26.915  10.817   1.122
42850W        W15165  37.555  12.616  13.127
42851W        W15166  41.254  38.533   0.840
42852W        W15167  31.180  26.658   3.117
42853W        W15168  18.610  31.895   2.319
42854W        W15169  29.426  34.129   3.709
42855W        W15170  36.238  29.172  10.352
42856W        W15171  26.300   0.424  11.956
42857W        W15172  28.720   7.470   1.083
42858W        W15173  43.331  23.419   4.149
42859W        W15174   7.788  30.719  14.289
42860W        W15175   2.060   4.256  12.159
42861W        W15176   5.949  32.789   2.725
42862W        W15177   1.192  23.298   2.557
42863W        W15178  22.838   6.687  10.678
42864W        W15179  39.037  17.266   2.682
42865W        W15180  32.842  13.431   0.308
42866W        W15181  41.341  37.765   3.758
42867W        W15182   2.102  30.119   2.028
42868W        W15183  17.208  10.778   2.199
42869W        W15184  19.039   1.474  13.409
42870W        W15185   0.080  11.277   4.747
42871W        W15186  13.564  16.301   2.631
42872W        W15187   0.864  24.205   4.158
42873W        W15188  32.528  44.981  13.004
42874W        W15189   3.840   2.678   4.678
42875W        W15190   7.105  37.963   2.344
42876W        W15191  14.641   4.811  12.774
42877W        W15192  21.476  12.455   2.412
42878W        W15193  31.107   4.708   0.231
42879W        W15194  35.533  35.624  12.574
42880W        W15195  14.569  16.545   0.303
42881W        W15196  13.287  40.803   3.674
42882W        W15197  38.923  11.640  14.366
42883W        W15198  23.961  31.511  14.397
42884W        W15199  38.470   7.702  12.098
42885W        W15200  14.652  21.915  14.219
42886W        W15201  19.568   1.773  11.536
42887W        W15202  21.673   8.023   3.077
42888W        W15203  36.036  29.620  11.059
42889W        W15204  14.879   9.748  13.107
42890W        W15205  18.973   5.560  10.990
42891W        W15206   2.947  17.042  12.046
42892W        W15207   8.741  15.523  14.380
42893W        W15208  43.541   8.850  13.124
42894W        W15209  39.600  17.255  13.349
42895W        W15210  42.342   8.667   2.834
42896W        W15211   9.290  29.293   0.979
42897W        W15212  36.045  21.599   4.055
42898W        W15213  36.442  28.571   3.888
42899W        W15214  37.900  13.106  11.026
42900W        W15215   0.891  35.517  14.549
42901W        W15216  40.619  44.446   2.280
42902W        W15217  12.050  29.577   1.964
42903W        W15218   6.682  30.659  14.987
42904W        W15219   6.465  17.434   0.898
42905W        W15220   0.442  31.716   0.563
42906W        W15221   4.171  29.082  14.355
42907W        W15222  21.523  20.396   3.784
42908W        W15223   0.470  43.297  13.552
42909W        W15224   4.362   9.366   0.395
42910W        W15225  13.394  20.787   1.221
42911W        W15226  23.633  34.062  11.136
42912W        W15227   4.347   9.135   4.852
42913W        W15228  12.087  19.889   3.184
42914W        W15229  37.530   0.341  11.819
42915W        W15230  22.078  23.283   2.877
42916W        W15231  44.050  12.790  12.007
42917W        W15232  28.501  31.085  14.087
42918W        W15233   6.653  37.796  12.946
42919W        W15234  25.602  11.045   4.197
42920W        W15235  29.105  34.419  10.610
42921W        W15236  14.573   8.135  13.983
42922W        W15237  28.535  35.579   4.617
42923W        W15238  22.493  30.894  13.958
42924W        W15239  40.719  21.540   0.951
42925W        W15240  34.885  43.641   2.534
42926W        W15241  22.477  29.338  10.835
42927W        W15242  35.084  24.212  14.878
42928W        W15243   0.926   0.962   0.488
42929W        W15244  30.171  33.495   4.722
42930W        W15245  14.401   6.717  14.045
42931W        W15246  12.656  25.540  13.500
42932W        W15247  30.363  15.964   2.785
42933W        W15248  17.619  31.361  10.263
42934W        W15249   0.918  43.803   4.210
42935W        W15250  11.207  10.602   2.263
42936W        W15251   8.241  15.687   1.396
42937W        W15252  17.607  20.105  13.537
42938W        W15253  39.989   2.262   3.085
42939W        W15254   2.295  10.568   0.349
42940W        W15255   6.438   8.890  12.941
42941W        W15256  34.955   5.804   4.320
42942W        W15257  43.501  32.978   0.911
42943W        W15258   1.907   0.427  12.457
42944W        W15259  31.486  26.754  12.015
42945W        W15260  42.059   8.614   3.693
42946W        W15261  22.489   7.261  13.378
42947W        W15262  12.176   3.668   4.090
42948W        W15263  15.566   5.169   1.998
42949W        W15264  42.620  30.569   3.201
42950W        W15265  32.394   7.785  12.875
42951W        W15266  11.813  43.067  13.187
42952W        W15267  31.552   4.847   2.770
42953W        W15268  44.913  31.143  12.171
42954W        W15269  11.668  38.528   4.226
42955W        W15270  25.036  34.828   4.230
42956W        W15271  17.773  15.259   4.350
42957W        W15272  15.725  24.549  13.555
42958W        W15273  36.982  15.641  12.995
42959W        W15274  17.728  26.360   0.402
42960W        W15275  30.061  22.063   2.812
42961W        W15276   0.908  42.576   3.782
42962W        W15277  22.609  42.870  11.260
42963W        W15278  43.900  22.473   1.712
42964W        W15279  33.786  31.895   5.076
42965W        W15280  15.184  42.373  12.884
42966W        W15281  29.157  22.562  14.958
42967W        W15282  13.597  11.838  14.783
42968W        W15283   2.809  34.361  10.543
42969W        W15284   0.733   1.997  13.899
42970W        W15285  37.311  40.426  10.978
42971W        W15286  38.901  34.742   0.373
42972W        W15287  26.692   2.492   2.238
42973W        W15288  23.207   5.415   4.569
42974W        W15289  35.773  26.384   3.235
42975W        W15290  35.029  35.516   0.326
42976W        W15291  39.152  20.778   2.180
42977W        W15292  39.792  34.923   1.318
42978W        W15293  11.877  25.482   4.481
42979W        W15294  34.378   3.827  14.070
42980W        W15295   9.826  17.239  12.857
42981W        W15296   8.298  40.924  10.644
42982W        W15297  39.114  33.773  10.037
42983W        W15298  19.743  33.859   3.688
42984W        W15299  31.307   0.428  13.949
42985W        W15300  32.604   9.863  11.930
42986W        W15301  14.685  31.342  14.748
42987W        W15302  33.684  38.643  12.748
42988W        W15303  12.104  19.700   1.376
42989W        W15304  19.151  19.665  11.613
42990W        W15305  10.991  36.513  10.793
42991W        W15306   6.184  23.066  12.480
42992W        W15307   1.693  36.053   2.635
42993W        W15308  34.149   2.529  11.944
42994W        W15309   2.658  12.454   4.128
42995W        W15310   1.397  14.928   2.745
42996W        W15311  34.273  14.937   4.201
42997W        W15312  18.136  33.128  14.997
42998W        W15313   8.686  28.553  11.008
42999W        W15314   5.411  16.751  11.508
43000W        W15315  34.851  36.590  13.362
43001W        W15316  38.662  12.830  10.749
43002W        W15317  34.933  30.336   2.469
43003W        W15318  27.386  10.307  12.940
43004W        W15319   3.874  19.757  13.928
43005W        W15320  31.403  26.857   0.287
43006W        W15321  20.676  43.199   0.386
43007W        W15322   0.519  14.588   3.174
43008W        W15323  32.426  31.348  14.344
43009W        W15324   4.751  22.042   3.181
43010W        W15325  32.868  11.149   2.337
43011W        W15326  11.649   9.007  14.536
43012W        W15327  24.620  22.710  14.897
43013W        W15328   2.463  30.535   1.591
43014W        W15329  32.506   9.461  12.543
43015W        W15330   9.411  17.853   2.231
43016W        W15331  35.886  20.131  14.560
43017W        W15332  36.311   5.710   0.917
43018W        W15333  12.618   0.412   1.375
43019W        W15334  10.073   5.332  10.711
43020W        W15335   5.640  36.015  13.004
43021W        W15336  41.737  34.503  13.076
43022W        W15337  10.230  29.289   4.732
43023W        W15338   5.254  18.713  14.135
43024W        W15339  36.004   2.794  13.722
43025W        W15340  16.273  25.033   4.150
43026W        W15341   8.389  24.845   0.214
43027W        W15342  41.051  30.990  14.239
43028W        W15343  26.346  12.168  12.780
43029W        W15344   2.815  25.218   2.968
43030W        W15345  36.875  14.256   0.275
43031W        W15346  15.885  19.532  14.964
43032W        W15347   0.427  34.628  12.992
43033W        W15348  12.797  31.562  14.861
43034W        W15349  26.200  10.725  11.347
43035W        W15350  14.559  17.304  11.509
43036W        W15351  27.699  18.065   1.502
43037W        W15352  38.096  13.340  12.459
43038W        W15353  11.871  41.271  11.866
43039W        W15354  36.416  17.163  13.480
43040W        W15355  16.633   1.825   4.709
43041W        W15356  44.129  29.129   0.513
43042W        W15357  33.811  39.800   1.328
43043W        W15358   4.523  38.015  14.497
43044W        W15359  24.934  21.179  12.061
43045W        W15360  44.391  15.034  10.726
43046W        W15361  43.565  26.767   4.119
43047W        W15362  22.168  12.129  14.043
43048W        W15363   8.896  30.550   2.246
43049W        W15364  17.222  10.278  12.549
43050W        W15365  31.718  15.544   0.806
43051W        W15366  34.889  22.588   0.297
43052W        W15367  17.027  15.560   4.644
43053W        W15368  30.115  30.978  14.475
43054W        W15369  15.217  32.503  14.373
43055W        W15370  15.382  44.808   2.335
43056W        W15371  28.000   4.892  10.352
43057W        W15372  10.292   8.645   0.495
43058W        W15373  30.064   8.732   3.208
43059W        W15374  13.829  38.133  14.393
43060W        W15375  16.260  31.168   0.404
43061W        W15376  37.338  19.021  12.629
43062W        W15377  26.557  27.495  10.666
43063W        W15378   2.457  16.671   1.275
43064W        W15379   4.706  39.904  12.144
43065W        W15380  40.886  36.774  13.447
43066W        W15381   3.178  40.001   4.573
43067W        W15382  26.074  34.118  12.461
43068W        W15383  16.271  18.541   2.337
43069W        W15384  21.501  44.270   1.004
43070W        W15385  40.533  11.173  14.776
43071W        W15386  15.406  35.629  12.841
43072W        W15387  19.599  17.636   4.688
43073W        W15388   3.944   9.163   2.560
43074W        W15389  19.313  25.634  14.387
43075W        W15390  18.667  25.717   2.659
43076W        W15391  35.559  19.681   0.272
43077W        W15392  40.452   3.922   1.460
43078W        W15393   0.067   7.634   3.964
43079W        W15394  23.654  20.344   0.414
43080W        W15395  33.826  10.059  12.095
43081W        W15396  33.505   9.208   0.731
43082W        W15397  43.332   0.015  13.487
43083W        W15398   1.190  40.331   3.640
43084W        W15399  38.304  23.151  14.518
43085W        W15400   9.383  13.253   4.215
43086W        W15401  10.423  44.832   0.698
43087W        W15402  29.866   4.343  14.983
43088W        W15403   0.497   2.298  11.064
43089W        W15404  24.465  29.694   3.638
43090W        W15405  22.037  10.973  14.547
43091W        W15406  40.542  24.899   4.266
43092W        W15407  10.552  40.906   4.721
43093W        W15408  42.899  12.155  13.674
43094W        W15409   5.025  33.122  10.321
43095W        W15410   2.998  18.667   2.502
43096W        W15411   3.018  10.972  13.883
43097W        W15412  28.072  14.243   0.920
43098W        W15413  37.125   2.288   3.332
43099W        W15414  32.321  19.164   0.610
43100W        W15415  10.270  42.332  12.015
43101W        W15416  32.101  14.045   1.806
43102W        W15417  18.621   0.499   4.205
43103W        W15418  29.496   2.144   3.155
43104W        W15419  23.892  43.458   1.794
43105W        W15420  19.458  38.665   5.402
43106W        W15421  16.131  42.572   4.222
43107W        W15422  41.740  19.496   1.576
43108W        W15423   5.902  14.158   1.039
43109W        W15424   1.285  27.796  12.119
43110W        W15425   5.924  16.603   4.192
43111W        W15426  28.978  32.705  14.256
43112W        W15427  17.226  26.187  14.747
43113W        W15428  14.026  34.578  12.481
43114W        W15429  39.942  17.683  12.720
43115W        W15430  19.451  11.300   5.435
43116W        W15431  21.079   8.789   3.128
43117W        W15432  42.924  11.369   2.277
43118W        W15433  43.266  21.233  14.013
43119W        W15434  40.347  33.600   1.821
43120W        W15435   3.037  26.642   0.354
43121W        W15436  10.842   4.207   1.753
43122W        W15437   7.815  16.851  11.648
43123W        W15438   5.982  22.173   1.286
43124W        W15439  23.161   6.555   1.870
43125W        W15440  26.076  20.933  11.043
43126W        W15441  29.062  26.455  11.158
43127W        W15442   0.937  17.678   4.534
43128W        W15443  15.780  36.133   1.720
43129W        W15444  20.718  22.189   2.260
43130W        W15445  31.762  40.264  14.245
43131W        W15446  13.326  36.894   1.487
43132W        W15447  33.515  25.500   3.171
43133W        W15448  12.815   1.217  10.336
43134W        W15449  17.085   8.236  14.489
43135W        W15450   8.148  44.568  13.230
43136W        W15451  26.221  34.327   0.339
43137W        W15452  17.440  12.913   1.244
43138W        W15453  30.652   8.142  10.737
43139W        W15454  37.001  26.949   2.111
43140W        W15455  26.993   9.690  10.447
43141W        W15456  24.093   6.684  11.753
43142W        W15457  20.410  36.058   1.360
43143W        W15458   8.833  35.032  14.884
43144W        W15459  30.556  23.439   3.201
43145W        W15460  38.964  13.129   4.861
43146W        W15461  41.143  25.153  11.655
43147W        W15462   4.139  41.060   2.831
43148W        W15463  39.941  43.006   2.326
43149W        W15464  14.741  32.732  14.398
43150W        W15465  28.614  15.861   1.376
43151W        W15466  41.345  25.826  11.825
43152W        W15467   5.950   9.311  13.766
43153W        W15468  40.562  17.302  14.988
43154W        W15469  38.921  33.343   0.735
43155W        W15470  14.315  31.586  10.472
43156W        W15471  16.398  11.751  11.080
43157W        W15472  40.248  40.499  14.826
43158W        W15473  34.136  31.382  14.118
43159W        W15474  29.035  21.541   2.667
43160W        W15475  37.044   0.869  14.469
43161W        W15476  21.638  35.560   1.661
43162W        W15477  33.592  39.555  12.630
43163W        W15478  23.779  28.213   4.117
43164W        W15479  17.091  23.551  12.971
43165W        W15480  38.433   7.905   4.141
43166W        W15481   6.217  39.264   1.435
43167W        W15482  31.355  18.945   4.067
43168W        W15483  24.146   2.436  14.499
43169W        W15484  39.624   7.107   3.246
43170W        W15485  10.927  10.416  13.945
43171W        W15486  29.004  13.253  13.051
43172W        W15487  26.662   0.888   1.272
43173W        W15488   2.977   5.073  11.160
43174W        W15489  10.214   0.377  10.418
43175W        W15490  40.205  38.750   4.655
43176W        W15491  37.710  22.176  14.618
43177W        W15492  31.184  26.523   4.101
43178W        W15493  32.385  28.712  13.396
43179W        W15494  27.203  14.770   0.059
43180W        W15495   2.976  29.348  14.364
43181W        W15496  39.206   1.779   2.734
43182W        W15497  26.417  39.102  13.852
43183W        W15498  34.870   9.167  13.888
43184W        W15499  17.093  11.255  13.899
43185W        W15500  29.097  28.365  14.119
43186W        W15501   0.904   5.215  12.012
43187W        W15502  36.840  16.806   4.121
43188W        W15503   6.522  43.127  11.561
43189W        W15504  23.032  19.339   5.123
43190W        W15505  12.789   4.282  12.609
43191W        W15506   0.823   8.830  11.506
43192W        W15507  12.804  43.959  11.830
43193W        W15508   8.645  22.160  14.466
43194W        W15509  14.106  12.335   2.095
43195W        W15510   2.193  10.727  11.969
43196W        W15511  30.889  33.498  11.997
43197W        W15512   6.271  27.472   2.818
43198W        W15513   7.524   7.901   1.470
43199W        W15514  43.429   2.981  12.938
43200W        W15515  40.814  14.073  13.096
43201W        W15516  36.133  42.440   2.882
43202W        W15517  16.947  20.693   4.273
43203W        W15518  30.938   5.510   0.647
43204W        W15519  41.491   3.607   2.761
43205W        W15520  12.294  19.205  14.844
43206W        W15521  29.200   9.129   2.707
43207W        W15522  32.962  23.158   3.301
43208W        W15523  20.671  38.331   1.227
43209W        W15524  40.848  16.707  12.467
43210W        W15525  25.021  35.405  13.796
43211W        W15526  18.110  19.495   1.320
43212W        W15527  20.342   3.700  10.583
43213W        W15528  29.344  40.933  11.032
43214W        W15529  43.440  10.561   3.708
43215W        W15530   8.880  41.524   2.903
43216W        W15531  43.418  18.195  11.483
43217W        W15532  26.710  18.333   2.154
43218W        W15533  14.766  23.015   4.733
43219W        W15534  25.932  27.993   3.741
43220W        W15535  28.470  11.766   1.031
43221W        W15536  44.249   7.697  12.670
43222W        W15537  29.723  32.537  11.981
43223W        W15538  36.419  18.476   1.818
43224W        W15539   3.492  11.165  13.948
43225W        W15540  25.591  12.073   4.129
43226W        W15541  30.654  33.355   5.137
43227W        W15542  32.189  11.739   0.855
43228W        W15543  22.976  22.077   5.061
43229W        W15544  28.927  39.340  10.290
43230W        W15545  19.572  34.360  12.069
43231W        W15546  44.517  30.026  13.457
43232W        W15547  17.973  17.318  14.711
43233W        W15548  31.019  23.728  12.047
43234W        W15549  22.506   0.465  13.510
43235W        W15550  25.061   6.120  12.100
43236W        W15551  31.948  44.122   0.708
43237W        W15552  17.822  15.824   2.515
43238W        W15553   2.398   2.179   3.165
43239W        W15554  34.879  21.172  12.560
43240W        W15555  38.025  29.954   4.624
43241W        W15556  31.913  26.931  11.772
43242W        W15557  11.205  28.568  12.144
43243W        W15558   0.508  41.576   2.303
43244W        W15559  20.845  26.975   4.181
43245W        W15560  31.746  44.257   5.373
43246W        W15561   6.795  37.934   1.921
43247W        W15562   5.647  29.210   0.258
43248W        W15563  18.675  11.219  12.213
43249W        W15564  38.789   3.415   0.727
43250W        W15565  44.426  43.056   4.467
43251W        W15566  22.074  43.043   1.435
43252W        W15567   6.586  22.946  12.170
43253W        W15568   6.716  15.549   0.894
43254W        W15569   1.911  40.904  10.908
43255W        W15570  33.712  34.550  13.877
43256W        W15571  38.375   1.324   4.177
43257W        W15572  40.418  31.415   3.617
43258W        W15573  18.209  39.702   0.799
43259W        W15574   9.594  27.159  11.395
43260W        W15575   6.462   6.720   1.939
43261W        W15576  13.853  32.629  10.459
43262W        W15577  17.662  13.250   0.492
43263W        W15578  28.105   0.401  13.329
43264W        W15579  42.802  22.930  11.602
43265W        W15580  32.568  24.953   2.166
43266W        W15581  43.306  27.818  14.001
43267W        W15582   9.702   3.618   1.384
43268W        W15583  44.769  21.487  12.848
43269W        W15584  22.485   1.222   2.178
43270W        W15585  14.530  15.746   3.209
43271W        W15586  43.313  34.609   4.043
43272W        W15587  29.208  43.477   1.286
43273W        W15588  22.062   7.686  10.365
43274W        W15589  42.460   8.412  13.307
43275W        W15590  15.697  14.662  13.367
43276W        W15591   4.883  23.522  14.377
43277W        W15592  24.236  12.138  10.724
43278W        W15593  34.076  20.490   0.167
43279W        W15594  27.654  30.974   2.240
43280W        W15595  36.510   0.823  10.663
43281W        W15596  37.824   6.916  11.933
43282W        W15597  21.927  31.002   2.421
43283W        W15598  34.069   9.662   4.425
43284W        W15599  20.162  44.950   1.246
43285W        W15600  15.267  18.071  10.801
43286W        W15601  42.993  40.862   4.251
43287W        W15602   7.868  18.682  12.088
43288W        W15603  35.144   8.677   2.335
43289W        W15604  12.275  11.413   3.407
43290W        W15605  12.199  13.793  10.686
43291W        W15606  19.923  42.623  14.043
43292W        W15607  12.609  35.264  13.458
43293W        W15608  10.763  36.830   4.858
43294W        W15609   0.809  24.726   2.194
43295W        W15610  19.781   9.302  11.379
43296W        W15611   6.911  31.877   0.500
43297W        W15612   8.383  17.070   0.681
43298W        W15613  42.469  41.799  14.816
43299W        W15614  20.774  44.684  12.918
43300W        W15615  20.204  13.385   1.825
43301W        W15616   2.924  27.953  14.384
43302W        W15617   3.199  21.215   5.011
43303W        W15618  17.474  28.373   1.505
43304W        W15619  24.660   0.012  13.578
43305W        W15620  13.175  35.836   3.609
43306W        W15621   5.453  35.606  11.197
43307W        W15622  36.905  11.366  13.966
43308W        W15623  32.533  10.804   3.855
43309W        W15624   1.095  27.400  12.816
43310W        W15625  27.297  10.161   2.769
43311W        W15626   1.304  10.224   2.437
43312W        W15627  24.015  44.056  10.045
43313W        W15628  37.991   6.318   0.774
43314W        W15629  39.809   3.517   2.274
43315W        W15630  31.498  39.417   2.884
43316W        W15631  12.813   1.383   3.345
43317W        W15632   1.804   1.017   1.198
43318W        W15633  27.303  31.590  12.652
43319W        W15634  36.049  18.308   2.651
43320W        W15635  28.918   3.639  12.013
43321W        W15636  39.555  37.977  13.272
43322W        W15637  34.290   9.203   0.321
43323W        W15638   7.858  36.478  12.055
43324W        W15639  12.004  38.281   3.340
43325W        W15640  11.379  26.435   1.300
43326W        W15641   9.239  16.213   1.783
43327W        W15642  41.867  24.085   3.232
43328W        W15643   7.919  34.617  11.596
43329W        W15644  19.500  13.068  14.369
43330W        W15645  34.449   2.541   3.640
43331W        W15646   2.347   6.552   3.550
43332W        W15647  38.902  36.970   1.599
43333W        W15648  40.372  31.289   0.352
43334W        W15649  33.332  16.451   4.150
43335W        W15650  11.274  34.606   4.006
43336W        W15651  21.461  26.472  11.057
43337W        W15652  19.644   7.434   4.700
43338W        W15653   6.886  31.544  12.939
43339W        W15654   8.473   0.011  11.263
43340W        W15655  10.742  25.846  11.441
43341W        W15656  23.188  26.595   3.632
43342W        W15657   4.404   9.905   2.316
43343W        W15658   1.384  19.890   3.799
43344W        W15659  26.609  24.589   2.839
43345W        W15660  33.817  22.659   4.414
43346W        W15661  34.161  22.678   0.980
43347W        W15662  11.895  32.062   4.999
43348W        W15663  21.591  21.586  12.977
43349W        W15664   7.920  41.861  14.541
43350W        W15665  42.030  11.321   0.906
43351W        W15666  35.835  15.540   0.519
43352W        W15667   5.625  29.636  11.178
43353W        W15668   4.353  22.815   2.325
43354W        W15669  14.090  40.932   0.359
43355W        W15670   7.175  14.750   3.233
43356W        W15671  42.941  41.981  14.687
43357W        W15672  12.763  14.686  12.624
43358W        W15673  11.976  38.133  14.183
43359W        W15674  22.684  26.382   9.852
43360W        W15675   7.705  30.597  14.798
43361W        W15676   1.819  32.469   3.255
43362W        W15677  42.059  23.748  12.015
43363W        W15678   2.396  21.212  14.562
43364W        W15679  42.843  14.320   3.149
43365W        W15680  38.778   3.241   2.860
43366W        W15681  33.986  20.312   1.625
43367W        W15682   0.067  29.691  13.080
43368W        W15683  43.786  25.197   0.019
43369W        W15684  17.010  34.596   0.373
43370W        W15685  33.208  12.703   2.208
43371W        W15686  31.355  19.176   0.960
43372W        W15687   7.524  44.258   4.598
43373W        W15688  19.138  33.547   2.266
43374W        W15689   6.635  36.370   2.794
43375W        W15690  40.084   7.187   1.829
43376W        W15691   3.009  25.048  14.375
43377W        W15692   1.386  34.169  10.712
43378W        W15693   0.082  15.364   1.667
43379W        W15694  37.020  26.489  12.358
43380W        W15695  28.137  40.396  13.040
43381W        W15696  40.417  27.978  11.466
43382W        W15697  43.961  35.514  10.814
43383W        W15698  21.142  16.601   2.658
43384W        W15699  37.331  15.802   0.263
43385W        W15700  21.499  22.075   4.685
43386W        W15701  31.058  23.325   3.685
43387W        W15702  17.925   9.374  10.640
43388W        W15703  39.096  28.624   0.183
43389W        W15704  21.361  21.416  14.760
43390W        W15705  29.037   4.835   3.186
43391W        W15706  31.682  29.441  14.056
43392W        W15707  24.728  34.655  14.584
43393W        W15708   9.907   9.908  13.395
43394W        W15709   1.216   4.182  11.673
43395W        W15710  16.685  12.662   0.058
43396W        W15711  27.382  15.643  10.750
43397W        W15712  43.430  37.471  12.291
43398W        W15713  14.148  29.840  14.725
43399W        W15714   6.998   2.923  11.269
43400W        W15715  41.982  10.224  10.282
43401W        W15716  24.556   5.466  11.794
43402W        W15717  41.859  18.451   2.968
43403W        W15718  18.568  14.376  13.012
43404W        W15719  27.975  35.527  10.407
43405W        W15720  26.650  43.917   3.289
43406W        W15721  26.714  21.196  13.945
43407W        W15722  15.597   5.426  12.332
43408W        W15723  11.886   4.317  13.994
43409W        W15724  25.718   2.367   3.269
43410W        W15725  30.799  39.671  14.851
43411W        W15726  40.576  21.123   0.210
43412W        W15727  32.962  19.035   3.317
43413W        W15728  14.075   4.011   0.450
43414W        W15729  40.971  26.180   0.021
43415W        W15730  18.527   1.288  12.536
43416W        W15731  41.816  32.908  13.847
43417W        W15732   1.998  11.749   2.329
43418W        W15733  13.664  33.969  13.904
43419W        W15734  42.613   0.551   1.687
43420W        W15735  21.968  23.730  12.536
43421W        W15736  10.969  15.518   2.946
43422W        W15737  38.822  23.896   2.112
43423W        W15738   9.793  43.024  12.497
43424W        W15739  29.233  28.601  11.591
43425W        W15740  25.479  31.815   1.680
43426W        W15741  13.850  42.404  11.649
43427W        W15742  12.792   6.741   1.783
43428W        W15743  38.615   6.324  12.619
43429W        W15744  34.885  23.454   3.168
43430W        W15745  32.388  26.134  13.395
43431W        W15746  30.094  30.329   3.033
43432W        W15747  22.053  13.545   0.762
43433W        W15748  28.420   2.291  10.512
43434W        W15749  40.421  23.549  10.302
43435W        W15750  22.026  41.831  11.554
43436W        W15751  31.738   0.065   4.105
43437W        W15752   9.897  27.676   2.705
43438W        W15753  41.416   9.397  12.322
43439W        W15754  30.599  30.295   2.878
43440W        W15755  28.787  30.046   3.109
43441W        W15756  35.874  10.135  10.958
43442W        W15757  32.386  20.044  13.189
43443W        W15758  43.903  31.409   3.639
43444W        W15759  30.476   6.288   4.095
43445W        W15760  31.150   7.411   2.839
43446W        W15761  25.133  29.224  11.653
43447W        W15762  24.671  28.458  11.526
43448W        W15763  40.884  33.558  13.500
43449W        W15764  29.426  33.541  13.785
43450W        W15765  23.509  14.241   1.038
43451W        W15766  24.086  26.790   0.285
43452W        W15767   1.967  26.080  13.002
43453W        W15768  24.898  10.787   0.696
43454W        W15769  39.322  30.102   4.028
43455W        W15770   1.180  11.297  14.101
43456W        W15771  12.779  30.362  13.728
43457W        W15772  26.200  30.263  13.112
43458W        W15773  14.214  43.500   3.146
43459W        W15774  41.921  43.066  12.513
43460W        W15775   7.678  10.563  12.542
43461W        W15776  38.546   7.839   1.801
43462W        W15777  30.068  35.917   3.259
43463W        W15778  43.363  35.618  14.776
43464W        W15779  40.814   2.713   1.773
43465W        W15780  17.455  12.219  11.525
43466W        W15781   5.508   0.558   2.779
43467W        W15782  10.166  32.958  10.526
43468W        W15783  25.762  27.128  14.818
43469W        W15784  15.017  16.227  11.195
43470W        W15785  10.800   9.956  12.112
43471W        W15786  31.126  39.861  11.517
43472W        W15787  19.800  20.206   3.650
43473W        W15788   2.336  37.552   3.087
43474W        W15789  20.894  39.305  11.428
43475W        W15790  36.880  26.423  12.965
43476W        W15791  27.220  21.690   2.871
43477W        W15792  39.074   9.824  11.128
43478W        W15793   9.827   5.989   3.671
43479W        W15794  22.211  35.086  14.817
43480W        W15795  32.542  33.902  10.659
43481W        W15796  27.672   2.619   3.154
43482W        W15797   5.945  19.625  14.980
43483W        W15798   5.571  11.206   2.768
43484W        W15799   2.669  23.495   5.034
43485W        W15800   7.601  36.409   1.825
43486W        W15801   8.869  40.012   1.894
43487W        W15802   6.953   0.826  11.955
43488W        W15803   9.771  38.495  13.667
43489W        W15804   3.245  26.723  11.530
43490W        W15805  10.562  26.781   1.846
43491W        W15806  38.415  19.536  13.615
43492W        W15807   0.283  33.087   3.551
43493W        W15808  21.022  16.532  11.627
43494W        W15809  20.004   8.679  11.133
43495W        W15810  29.451  19.771  13.056
43496W        W15811  27.530  37.805   1.329
43497W        W15812  43.861  22.758   2.135
43498W        W15813   8.185   1.106  12.327
43499W        W15814  43.088  21.522  11.639
43500W        W15815  11.473  32.692   0.817
43501W        W15816  19.594   7.236   2.028
43502W        W15817  23.970  40.531   0.800
43503W        W15818  25.435  11.876  12.898
43504W        W15819  33.868   9.026  12.108
43505W        W15820  35.984  29.831   3.635
43506W        W15821  36.004  15.128  13.995
43507W        W15822  31.975  18.363   4.102
43508W        W15823  44.998   5.960  12.909
43509W        W15824  38.801  18.797   2.656
43510W        W15825  26.018  20.230   1.778
43511W        W15826  28.502  12.884   3.203
43512W        W15827   0.631  16.046  10.873
43513W        W15828  36.326  29.270   4.469
43514W        W15829  18.716  35.073  12.929
43515W        W15830  38.245  37.939   3.745
43516W        W15831  11.768   1.943   4.096
43517W        W15832  25.118   9.371   4.147
43518W        W15833  22.133  31.401   4.715
43519W        W15834  31.403  29.992  10.773
43520W        W15835  19.659  18.281   3.750
43521W        W15836  32.486  30.071   1.361
43522W        W15837   8.290  29.012   0.807
43523W        W15838  20.240   5.613   4.932
43524W        W15839  21.287  15.241   1.185
43525W        W15840   1.024   0.062  12.033
43526W        W15841  41.124   8.888  14.061
43527W        W15842  29.026  14.797  13.160
43528W        W15843  20.201  39.808  12.469
43529W        W15844  21.679  22.907   1.181
43530W        W15845  32.721  39.237  10.638
43531W        W15846   0.452  14.749   3.658
43532W        W15847   0.734  16.834  11.537
43533W        W15848  29.840   7.297   3.339
43534W        W15849  25.095   1.783   2.320
43535W        W15850  37.858  19.316  14.354
43536W        W15851   4.960   0.814  12.091
43537W        W15852  43.420  29.683   2.353
43538W        W15853  26.948  14.342   2.494
43539W        W15854  31.863   6.201  12.523
43540W        W15855   5.219  14.255   0.318
43541W        W15856  13.311  37.945  12.921
43542W        W15857   6.298  10.555  11.139
43543W        W15858  44.576   2.740   0.554
43544W        W15859  12.002  14.047   4.608
43545W        W15860  32.481  38.064  14.478
43546W        W15861  44.880  44.447  13.896
43547W        W15862   4.652  44.346   2.349
43548W        W15863  33.886  10.955  11.008
43549W        W15864  36.313  18.708   0.850
43550W        W15865   5.905  28.666   2.255
43551W        W15866  43.824  10.045   3.900
43552W        W15867  23.646  29.592  13.532
43553W        W15868   5.858  43.385  10.762
43554W        W15869  42.858   4.987  11.062
43555W        W15870   8.325  40.382   1.764
43556W        W15871  10.114  33.020   1.195
43557W        W15872  14.312  11.352   0.682
43558W        W15873   5.032  25.286  14.192
43559W        W15874  11.900  39.864  14.383
43560W        W15875   1.143  43.160  12.956
43561W        W15876  35.913  33.944  13.889
43562W        W15877   6.245  18.790   4.654
43563W        W15878   4.739  22.937  11.970
43564W        W15879  17.642   8.106   3.992
43565W        W15880  17.104  35.650   0.421
43566W        W15881  33.144  20.531  12.111
43567W        W15882   5.923   5.051  10.755
43568W        W15883  33.649   2.014  10.829
43569W        W15884  20.741   3.996  13.454
43570W        W15885  26.525   4.883   3.557
43571W        W15886  29.001  41.572  14.913
43572W        W15887  12.902  27.938  14.887
43573W        W15888  40.202  19.279  12.127
43574W        W15889  38.402  22.062   4.216
43575W        W15890   3.403  28.240  10.944
43576W        W15891  38.155  17.744   2.487
43577W        W15892  37.111  10.465   4.273
43578W        W15893  34.207  28.425   2.352
43579W        W15894   7.657  36.505   2.751
43580W        W15895  27.515  30.313  10.240
43581W        W15896  40.759  30.014   3.150
43582W        W15897  31.906  19.175   4.656
43583W        W15898  39.285  41.889   2.673
43584W        W15899  17.035  10.339   3.763
43585W        W15900  20.646  23.573   0.956
43586W        W15901   9.677  13.817  10.951
43587W        W15902   9.200  18.842   4.548
43588W        W15903  12.857  44.707  14.959
43589W        W15904   7.272  16.027   3.587
43590W        W15905  39.518  16.117   0.772
43591W        W15906  42.309  40.902   0.286
43592W        W15907   5.447   9.795   2.840
43593W        W15908   2.348  40.923   1.375
43594W        W15909  19.060   2.529   3.568
43595W        W15910  23.461   7.772   3.777
43596W        W15911   7.897   3.850   4.336
43597W        W15912  29.781  19.827  11.662
43598W        W15913   7.571  21.580  14.903
43599W        W15914  25.084  36.722  11.532
43600W        W15915   8.432  11.870  12.092
43601W        W15916   0.509   9.958   0.913
43602W        W15917   2.061  25.643   3.662
43603W        W15918  20.269  28.899   4.143
43604W        W15919  28.991  25.610   4.331
43605W        W15920  26.259   9.988   4.503
43606W        W15921  10.130   2.386  10.757
43607W        W15922   8.906  13.288   1.709
43608W        W15923   4.219  30.355  12.114
43609W        W15924  34.342  42.532   2.245
43610W        W15925  25.144  21.454  14.019
43611W        W15926  22.234  26.495   2.796
43612W        W15927  13.840  44.846   0.119
43613W        W15928  21.471  37.129  14.216
43614W        W15929   7.332  39.090  14.022
43615W        W15930  16.113  15.953  13.134
43616W        W15931  21.171  31.058   1.853
43617W        W15932  31.392  22.280   4.169
43618W        W15933  20.882  37.377  10.737
43619W        W15934   5.145  27.957   3.352
43620W        W15935  12.913   7.666  13.244
43621W        W15936  27.263   9.255   2.676
43622W        W15937   6.868   5.966   2.340
43623W        W15938  14.591   2.937  13.812
43624W        W15939  14.579  23.544  11.485
43625W        W15940  32.114  11.798  10.616
43626W        W15941  19.408   4.371   0.943
43627W        W15942  32.435  18.657   2.276
43628W        W15943   9.814   5.233  12.054
43629W        W15944  15.545  30.570   1.705
43630W        W15945   1.384   9.434   2.870
43631W        W15946   6.787   9.690   1.370
43632W        W15947   6.598  16.292   2.643
43633W        W15948  29.034  27.376  14.253
43634W        W15949  37.336  32.381  10.563
43635W        W15950  41.099  41.060   2.693
43636W        W15951  24.537  33.072  10.756
43637W        W15952  27.619  36.825  13.850
43638W        W15953  38.571   8.679   1.340
43639W        W15954  30.383  14.790  14.335
43640W        W15955  22.781   6.843  12.083
43641W        W15956  43.462   1.594  10.637
43642W        W15957  12.306  41.046  14.198
43643W        W15958  29.632  15.325   3.679
43644W        W15959   9.321  11.617   4.618
43645W        W15960  28.556  12.250   1.234
43646W        W15961  23.740  28.447  12.535
43647W        W15962  43.907  12.752   1.907
43648W        W15963   3.817   6.704  12.554
43649W        W15964  40.582  28.669  10.377
43650W        W15965  32.483   0.255  10.844
43651W        W15966  29.173   2.739  14.678
43652W        W15967  16.889  35.341   3.731
43653W        W15968  12.341   3.439  14.911
43654W        W15969   0.797  27.089   3.497
43655W        W15970  15.629  37.485   1.520
43656W        W15971  14.244  39.623   4.145
43657W        W15972  27.479   0.218   0.426
43658W        W15973   6.715   8.267  13.464
43659W        W15974  17.012  13.462   2.634
43660W        W15975  11.066  32.704   3.323
43661W        W15976   2.145  28.075   9.826
43662W        W15977  24.221  12.751   9.859
43663W        W15978   6.845  25.569   2.690
43664W        W15979   8.652  23.753  14.902
43665W        W15980  22.164   9.302  11.711
43666W        W15981  25.613  14.286  14.993
43667W        W15982   1.931  26.630  14.412
43668W        W15983  31.598  12.796   4.883
43669W        W15984   2.597   9.936   3.300
43670W        W15985  27.834   9.886  14.151
43671W        W15986   2.307   8.562  13.864
43672W        W15987  40.628  44.934  13.866
43673W        W15988  25.845   6.692   9.999
43674W        W15989   7.038  41.895  13.870
43675W        W15990  44.390  26.783  12.511
43676W        W15991  44.036   4.942  11.518
43677W        W15992   4.813  13.233  14.869
43678W        W15993  18.020  25.751   3.161
43679W        W15994  43.907  13.665   4.706
43680W        W15995  29.442  10.911   1.049
43681W        W15996   3.907  21.401   3.316
43682W        W15997  43.418  44.405  11.539
43683W        W15998  15.716   8.699   1.916
43684W        W15999  11.254  29.324  14.100
43685W        W16000  39.837  25.449  11.060
43686W        W16001  28.909  18.226   4.102
43687W        W16002  22.052   8.903  12.630
43688W        W16003  35.911  31.614  13.524
43689W        W16004  40.529  25.037   9.818
43690W        W16005   9.837  33.599   3.782
43691W        W16006  11.744  27.190   4.217
43692W        W16007  28.099  11.672   0.199
43693W        W16008  33.533  24.005   3.963
43694W        W16009  28.490  19.131   2.586
43695W        W16010   6.217  38.039  11.982
43696W        W16011   9.698  33.490  11.505
43697W        W16012  44.996  33.116  10.600
43698W        W16013  44.866  19.952   1.755
43699W        W16014  39.398   9.739  12.966
43700W        W16015  14.231  42.787  14.357
43701W        W16016  32.055  11.345   0.053
43702W        W16017  26.917  17.669  14.532
43703W        W16018  42.355  27.032   1.326
43704W        W16019   8.665  18.818   4.547
43705W        W16020   6.438  21.739  12.928
43706W        W16021   7.762   8.535  13.144
43707W        W16022  23.865  20.964  12.469
43708W        W16023  36.336  24.022  14.331
43709W        W16024  29.224  32.610  11.817
43710W        W16025  19.353   2.582   4.241
43711W        W16026  38.066  25.214   2.884
43712W        W16027  39.794  12.239   4.601
43713W        W16028  23.004  40.278   3.969
43714W        W16029  11.843   7.372   1.291
43715W        W16030  12.892  31.751   4.957
43716W        W16031  12.343   2.827  14.585
43717W        W16032  19.066  17.819   1.704
43718W        W16033   1.437  17.784  12.132
43719W        W16034   5.096   5.927  13.943
43720W        W16035  28.624  21.044  10.534
43721W        W16036  12.864   0.475   2.412
43722W        W16037  21.173   1.456  10.888
43723W        W16038  23.582  13.313   4.214
43724W        W16039  25.126  12.095  14.076
43725W        W16040  30.023   7.305   2.859
43726W        W16041  38.542  42.414  12.926
43727W        W16042  29.515  28.072  14.027
43728W        W16043  32.300  14.509  13.410
43729W        W16044  10.245   3.706  11.475
43730W        W16045  32.111  41.714   4.599
43731W        W16046  21.629   0.199   1.418
43732W        W16047   1.525  10.311  10.752
43733W        W16048  10.731  29.145   0.279
43734W        W16049  39.448  29.064   0.221
43735W        W16050  42.354   0.226   3.849
43736W        W16051   3.126  14.575   0.014
43737W        W16052  43.329   7.652   2.724
43738W        W16053  23.030  41.592  12.483
43739W        W16054  12.814  26.216   2.178
43740W        W16055  18.752  27.963   2.891
43741W        W16056   2.139  43.494  12.817
43742W        W16057  36.390  40.931   3.777
43743W        W16058  42.301  24.678   0.288
43744W        W16059   3.421  36.484  13.864
43745W        W16060  23.571   7.100  11.080
43746W        W16061  30.630  19.197  13.314
43747W        W16062   1.174  24.085  12.409
43748W        W16063   3.949   5.213   1.356
43749W        W16064   9.148   1.816   4.661
43750W        W16065  40.499   5.933  12.820
43751W        W16066   4.470  12.066   2.962
43752W        W16067   0.454  30.910   1.789
43753W        W16068  39.988  40.539   0.288
43754W        W16069   5.928  28.094   3.785
43755W        W16070  22.525  22.732   3.643
43756W        W16071  26.562  27.094  12.526
43757W        W16072   2.346   5.395   2.711
43758W        W16073  42.858  34.253  11.020
43759W        W16074  22.529   3.706   0.073
43760W        W16075  38.285   1.968   0.682
43761W        W16076  35.387   3.186  11.243
43762W        W16077  43.925  29.379   3.589
43763W        W16078  43.342  16.768   4.757
43764W        W16079  17.578   2.393  11.957
43765W        W16080  40.401  28.454   1.635
43766W        W16081  44.271  12.252   1.450
43767W        W16082  37.923  10.386   0.223
43768W        W16083  16.870  42.894  13.148
43769W        W16084   1.332  21.029   2.934
43770W        W16085  34.647  32.716  11.564
43771W        W16086  10.184  16.885   1.936
43772W        W16087  43.265  29.309   1.426
43773W        W16088  14.812  24.791  11.708
43774W        W16089   5.126   3.318   1.616
43775W        W16090  10.637  35.892   1.533
43776W        W16091  10.692  10.387   2.200
43777W        W16092  37.118   9.387   2.218
43778W        W16093   9.254  24.303  12.323
43779W        W16094  19.200   6.854   3.175
43780W        W16095   0.755  39.476   4.308
43781W        W16096   3.980  16.941   0.257
43782W        W16097  13.596  32.319  14.905
43783W        W16098   9.348  21.478  12.964
43784W        W16099  27.349  36.950  13.414
43785W        W16100   7.590  39.896   1.005
43786W        W16101  20.634  19.656   1.680
43787W        W16102   9.821  17.138  14.302
43788W        W16103  13.767  11.761   0.588
43789W        W16104  19.543  23.555  13.058
43790W        W16105   0.882  14.257  13.532
43791W        W16106  26.641  34.512  10.851
43792W        W16107  31.205  30.814  14.611
43793W        W16108  27.654  21.992   1.240
43794W        W16109  18.611   8.729  10.825
43795W        W16110  12.793  17.785  14.653
43796W        W16111  29.537  13.782  14.926
43797W        W16112  40.419  23.895   4.616
43798W        W16113  43.405   6.587  12.489
43799W        W16114  43.048  44.208   0.812
43800W        W16115  14.267  11.226   3.118
43801W        W16116  31.121  40.829   3.321
43802W        W16117  24.908  36.643   2.475
43803W        W16118  40.945   8.753   0.952
43804W        W16119   8.735  32.891   1.334
43805W        W16120  26.820   5.862   1.995
43806W        W16121  13.735  26.195  11.200
43807W        W16122  44.648   1.480   2.781
43808W        W16123  30.926  12.037  12.614
43809W        W16124   7.279  12.832  10.554
43810W        W16125  33.080  27.918  14.248
43811W        W16126   1.796   0.120   2.180
43812W        W16127  23.112  29.926  13.521
43813W        W16128  37.643  20.475   0.750
43814W        W16129  26.690  11.347   4.659
43815W        W16130   8.848  42.690   5.095
43816W        W16131  26.621  32.850  14.461
43817W        W16132  43.292  40.915  11.313
43818W        W16133   2.867  30.851   3.283
43819W        W16134  35.178  18.724   1.383
43820W        W16135   7.239   1.157   1.161
43821W        W16136  29.402   5.510   2.196
43822W        W16137  17.556  16.244   4.175
43823W        W16138  16.332  35.545   3.331
43824W        W16139  41.380  16.567  13.020
43825W        W16140  31.603  12.171   2.137
43826W        W16141   8.462   5.168   3.229
43827W        W16142  39.401   1.124   3.249
43828W        W16143   5.723  23.416   1.731
43829W        W16144  12.703  28.045   0.757
43830W        W16145  25.115   7.933  14.696
43831W        W16146  10.356  18.362   0.188
43832W        W16147  17.317  28.163  10.545
43833W        W16148  36.419  39.526   3.600
43834W        W16149  11.007  29.400   4.589
43835W        W16150  31.082  43.808  10.250
43836W        W16151  33.473   7.093  13.903
43837W        W16152   0.916   5.413   1.383
43838W        W16153  20.095  31.928  11.648
43839W        W16154  15.696   3.948  12.927
43840W        W16155  13.699  14.171   0.207
43841W        W16156  20.138   9.424   4.582
43842W        W16157  22.249  34.422   1.457
43843W        W16158  32.756  35.391  11.652
43844W        W16159  31.128  39.018   0.526
43845W        W16160  33.149  21.074  12.868
43846W        W16161  24.209  18.734   0.999
43847W        W16162  35.292  32.821  11.444
43848W        W16163   4.418  10.804  10.819
43849W        W16164   8.711  41.056   1.863
43850W        W16165  34.822   4.381  14.848
43851W        W16166  15.698   7.611  13.563
43852W        W16167  30.748  35.920   9.886
43853W        W16168  41.594  32.935   0.078
43854W        W16169   8.495   1.236   2.842
43855W        W16170   1.519  25.121  11.552
43856W        W16171  34.508  10.289   3.228
43857W        W16172  31.573  36.930   3.914
43858W        W16173  21.220  37.034   0.415
43859W        W16174  36.972  30.088   4.516
43860W        W16175  33.540  21.046  14.562
43861W        W16176  13.599   6.856  12.796
43862W        W16177  33.156  36.264  11.637
43863W        W16178   1.393  14.717   3.236
43864W        W16179   2.865  17.031   3.230
43865W        W16180  36.344  34.275  11.577
43866W        W16181  39.789  14.293  14.978
43867W        W16182  28.412  43.824   0.019
43868W        W16183  29.721   6.350  11.137
43869W        W16184  44.176  33.938  14.865
43870W        W16185  25.808  40.237  10.132
43871W        W16186  11.686  11.768   4.373
43872W        W16187  19.678  26.138  11.595
43873W        W16188  44.053  15.071   1.602
43874W        W16189   0.433  24.390  11.541
43875W        W16190  11.491   2.060   0.322
43876W        W16191  43.938  42.936  10.444
43877W        W16192  30.422  19.327  13.773
43878W        W16193  13.113  39.844   4.626
43879W        W16194   6.543   7.146  14.008
43880W        W16195  34.551  22.024   1.494
43881W        W16196  35.090  25.643  13.048
43882W        W16197  30.514  28.703   4.502
43883W        W16198  36.928  42.090   4.599
43884W        W16199  31.964  14.394  11.934
43885W        W16200  26.363   1.402  13.483
43886W        W16201  11.179  36.936  14.676
43887W        W16202  38.951  11.527  13.853
43888W        W16203  33.970  35.292  11.237
43889W        W16204  41.741  27.700  13.546
43890W        W16205   5.949   0.308  13.542
43891W        W16206  29.554  18.732   4.527
43892W        W16207   6.176  37.945   4.574
43893W        W16208  23.387  14.045  14.034
43894W        W16209   6.325  38.961  13.521
43895W        W16210   5.797   7.616   1.354
43896W        W16211  44.862  33.100   0.742
43897W        W16212  23.709   5.712  12.466
43898W        W16213  10.166  18.216   2.138
43899W        W16214  11.767   4.480   0.361
43900W        W16215  27.817  30.833   1.760
43901W        W16216  31.417   2.942   2.695
43902W        W16217  38.808  30.161   3.356
43903W        W16218  15.217  20.968  12.161
43904W        W16219  44.545  12.799   3.145
43905W        W16220   2.959  40.804   3.672
43906W        W16221  17.153  42.065  14.473
43907W        W16222  25.439   7.818  12.641
43908W        W16223  18.836  27.975   2.368
43909W        W16224  26.218  32.958  13.026
43910W        W16225  14.305  31.023   0.440
43911W        W16226   1.712  29.635  11.592
43912W        W16227  33.938  43.759  13.480
43913W        W16228  17.267   9.139   1.276
43914W        W16229  11.387  28.481   1.540
43915W        W16230  14.245  27.676   3.116
43916W        W16231  38.411  21.012   3.207
43917W        W16232  39.166  15.348  13.464
43918W        W16233  29.263  36.948   3.103
43919W        W16234  25.803   8.949  12.013
43920W        W16235   8.227  23.897   0.516
43921W        W16236   1.169  36.462   3.346
43922W        W16237  26.140  27.667  13.968
43923W        W16238  37.430  25.825   9.767
43924W        W16239  17.612  15.247  10.714
43925W        W16240  18.468  26.143   4.670
43926W        W16241  43.223  35.480  12.454
43927W        W16242  36.289   1.541   2.356
43928W        W16243  28.182   0.876  12.090
43929W        W16244  32.466  36.805  13.567
43930W        W16245  44.484   8.915   2.291
43931W        W16246  29.344  32.940   0.816
43932W        W16247  27.094   2.437   1.891
43933W        W16248  16.620  13.589   0.025
43934W        W16249   6.663   5.157   2.723
43935W        W16250  31.474  12.279  11.136
43936W        W16251  34.157   5.741  13.577
43937W        W16252  37.539  15.914   0.913
43938W        W16253  11.635  44.923  14.990
43939W        W16254  39.973  15.122  14.780
43940W        W16255  26.932  28.211   1.920
43941W        W16256  14.085   8.905  12.856
43942W        W16257   6.208  36.686  12.698
43943W        W16258  38.049   8.324  12.455
43944W        W16259  37.970  13.111   0.603
43945W        W16260  19.691  33.418  13.446
43946W        W16261   7.670  44.483  11.348
43947W        W16262  16.201   8.987  13.758
43948W        W16263  25.708   2.473  13.370
43949W        W16264  24.975  33.936   9.967
43950W        W16265   4.528  33.992  14.034
43951W        W16266  16.090  18.605   3.666
43952W        W16267  43.409  12.598  12.964
43953W        W16268  15.538  30.076   1.211
43954W        W16269  33.466  28.578   5.041
43955W        W16270  37.294  26.263  11.946
43956W        W16271  19.814  20.347   4.561
43957W        W16272  38.762   1.287   5.135
43958W        W16273  43.831   7.143   4.325
43959W        W16274   4.438  32.208  12.503
43960W        W16275  17.144  14.727  11.380
43961W        W16276   5.230  29.704  11.532
43962W        W16277  33.371  29.939   4.706
43963W        W16278  26.593  15.806  13.829
43964W        W16279  42.976   3.723   5.068
43965W        W16280  41.430  20.344  10.415
43966W        W16281  11.715  19.321   3.802
43967W        W16282  42.490  44.983  10.882
43968W        W16283  38.021  41.446  14.971
43969W        W16284  20.061  28.623  13.035
43970W        W16285  25.548  38.862  12.537
43971W        W16286  34.837  34.448  12.143
43972W        W16287   6.323  18.715  10.225
43973W        W16288  15.325   8.370   1.687
43974W        W16289  26.920  33.451   4.150
43975W        W16290  29.975  44.587   3.619
43976W        W16291  29.717   4.206  14.007
43977W        W16292  18.240  32.102  12.393
43978W        W16293  16.771  42.907   1.629
43979W        W16294   9.582  40.027   2.708
43980W        W16295  18.630   0.118  13.408
43981W        W16296   8.840  31.670  11.171
43982W        W16297  33.204  37.571  11.166
43983W        W16298  31.095  10.335  12.861
43984W        W16299  22.649  22.794   2.375
43985W        W16300  24.124   1.661  11.622
43986W        W16301  29.936  32.004   4.968
43987W        W16302   4.839  20.962   4.632
43988W        W16303  17.035  24.742  14.717
43989W        W16304  32.542   7.714  12.038
43990W        W16305   7.191  42.948   3.816
43991W        W16306  11.063  34.034  10.842
43992W        W16307  36.937  29.519   0.678
43993W        W16308  44.057  17.203   1.245
43994W        W16309  33.232  22.634   2.652
43995W        W16310  17.442   4.348  14.776
43996W        W16311  44.886   8.858  13.421
43997W        W16312  29.157  39.355  14.072
43998W        W16313  17.230   7.133  13.499
43999W        W16314  15.745  33.234  11.988
44000W        W16315   2.721  43.182   4.120
44001W        W16316  29.768  42.757   0.823
44002W        W16317   2.656  36.410   3.484
44003W        W16318  18.268  19.467  14.350
44004W        W16319  14.151  18.679  12.039
44005W        W16320  26.643  20.831   1.809
44006W        W16321  23.541  21.431   5.446
44007W        W16322  43.394  16.681  14.893
44008W        W16323  16.830  20.299  14.051
44009W        W16324  36.878  10.171   1.321
44010W        W16325  19.676   7.857  11.791
44011W        W16326  38.316  16.958  11.035
44012W        W16327  37.138  40.421   1.654
44013W        W16328  42.917  13.128  14.679
44014W        W16329  40.954   8.187   1.357
44015W        W16330  11.104  20.638  13.581
44016W        W16331  26.012  11.400   0.389
44017W        W16332  28.405  22.334  11.661
44018W        W16333   0.843  13.754   0.636
44019W        W16334  38.347  10.242   4.631
44020W        W16335   6.809   4.861   1.710
44021W        W16336   2.162  40.941   3.291
44022W        W16337  43.204  22.112   0.434
44023W        W16338  44.253  15.095   2.699
44024W        W16339  12.989  41.364   4.518
44025W        W16340  11.607   7.754   3.259
44026W        W16341  41.667  44.345   0.255
44027W        W16342  11.987   5.735  14.476
44028W        W16343   3.015  43.214  14.952
44029W        W16344   0.739  23.509   2.840
44030W        W16345   4.430  32.424   0.368
44031W        W16346  23.949   3.049   1.150
44032W        W16347  17.135  26.190  12.387
44033W        W16348  40.065   3.906  10.749
44034W        W16349  27.780  31.081   5.175
44035W        W16350  19.045  38.500  11.023
44036W        W16351  38.073  38.304   4.531
44037W        W16352  37.445  28.462   2.855
44038W        W16353  42.075  40.461   0.467
44039W        W16354  41.020  14.351   0.054
44040W        W16355  25.793  39.492  11.525
44041W        W16356   0.561  31.540  12.987
44042W        W16357  27.066  23.721   2.247
44043W        W16358  16.659   8.121   0.263
44044W        W16359  35.262  40.801  10.809
44045W        W16360   1.224  12.644   0.948
44046W        W16361  36.527  10.304   4.510
44047W        W16362  17.276   8.602   1.255
44048W        W16363  19.811  29.965   3.086
44049W        W16364  41.101  20.814   1.401
44050W        W16365  35.525  23.212  12.664
44051W        W16366  16.667  19.796   1.448
44052W        W16367  17.751  31.494   2.220
44053W        W16368  37.219  15.877  13.405
44054W        W16369   1.354  41.972  13.526
44055W        W16370  32.545  37.347   0.828
44056W        W16371   2.499   2.593  13.933
44057W        W16372  28.348   0.945   3.728
44058W        W16373   2.182  35.473   0.547
44059W        W16374  43.474  29.384  11.520
44060W        W16375  15.883   9.464   1.312
44061W        W16376  31.349  20.486  13.296
44062W        W16377   6.391  17.304   1.627
44063W        W16378  12.153  28.963   2.841
44064W        W16379  16.315  27.666   3.324
44065W        W16380  37.771  11.178   3.744
44066W        W16381  30.419  13.249  13.850
44067W        W16382   3.122  11.955   5.053
44068W        W16383  30.919   3.762   2.652
44069W        W16384  34.132  29.543  13.338
44070W        W16385  11.310  11.871  10.762
44071W        W16386   2.439  32.470  10.932
44072W        W16387   1.660   2.882   1.855
44073W        W16388  11.762   5.337   2.505
44074W        W16389  23.044  32.800   3.181
44075W        W16390  37.080  16.050  10.790
44076W        W16391  11.238  12.075   1.945
44077W        W16392  16.006  33.951  12.805
44078W        W16393  23.723  24.354  13.411
44079W        W16394  31.280  43.582  13.985
44080W        W16395  10.485  40.829   2.300
44081W        W16396   0.045  41.331   2.286
44082W        W16397  26.399  15.635  13.378
44083W        W16398   8.457  43.953  14.039
44084W        W16399  37.820  43.244   0.418
44085W        W16400  43.980  37.129   2.741
44086W        W16401  39.205  19.638  11.892
44087W        W16402   1.865  26.987   4.132
44088W        W16403  28.590   6.752  11.062
44089W        W16404  44.199  31.625  10.788
44090W        W16405  14.859  12.304  14.800
44091W        W16406  43.475  11.913   5.134
44092W        W16407  24.872  18.797   3.285
44093W        W16408  30.048  39.991   0.476
44094W        W16409  33.055  44.226   4.094
44095W        W16410   3.253   2.354   1.234
44096W        W16411  30.952  39.790  12.416
44097W        W16412  10.065  15.499  13.162
44098W        W16413  26.039  33.787  13.788
44099W        W16414  28.594  20.089   4.625
44100W        W16415  21.959  29.284  14.438
44101W        W16416  34.151  38.654  12.471
44102W        W16417   7.404  35.532  13.962
44103W        W16418  30.964  26.945  10.900
44104W        W16419  13.168   2.836  12.742
44105W        W16420  23.749  16.689  14.486
44106W        W16421  23.447  30.801  12.844
44107W        W16422   5.238  38.496   3.095
44108W        W16423  38.680  18.563   4.966
44109W        W16424  25.938  12.717  13.750
44110W        W16425  11.215  37.239   0.986
44111W        W16426   7.226  30.492  10.736
44112W        W16427  36.020  18.381  13.329
44113W        W16428  32.449  12.414   1.383
44114W        W16429  23.160  33.137  11.600
44115W        W16430  33.829  20.112  11.526
44116W        W16431  23.867   1.188   2.404
44117W        W16432  21.706  16.695   3.222
44118W        W16433  24.480   7.341  11.163
44119W        W16434   7.968   2.368   3.780
44120W        W16435  14.868   5.921   3.582
44121W        W16436   1.556   2.775   2.356
44122W        W16437  35.445  37.980  14.679
44123W        W16438  20.495   3.385   4.618
44124W        W16439  16.151  24.571   1.894
44125W        W16440  39.338  26.205  10.130
44126W        W16441  31.058  17.067  14.388
44127W        W16442   1.939  40.879  10.390
44128W        W16443  17.095  26.809  10.175
44129W        W16444   8.520  26.561  12.452
44130W        W16445  10.710  11.915   4.120
44131W        W16446  10.835  26.059   2.422
44132W        W16447   6.212  32.624   3.624
44133W        W16448  18.955   8.325   2.195
44134W        W16449  41.947  13.659  12.786
44135W        W16450   6.970  37.336  13.816
44136W        W16451  31.305  34.547   3.258
44137W        W16452  17.151   1.894   3.643
44138W        W16453  40.397  23.005   3.135
44139W        W16454  26.224  26.678   4.143
44140W        W16455   7.002  14.608   0.634
44141W        W16456  29.293  23.423   4.487
44142W        W16457   0.514  35.956   1.349
44143W        W16458  21.195  10.702  11.943
44144W        W16459  17.940  30.262  10.223
44145W        W16460  42.330  34.626  10.439
44146W        W16461  27.959  33.215   0.989
44147W        W16462   7.327   0.883   4.764
44148W        W16463  11.755  32.673   4.580
44149W        W16464  10.409  34.342   0.928
44150W        W16465   3.258  31.255   4.607
44151W        W16466  22.447  11.758  13.778
44152W        W16467  44.288   0.793   2.198
44153W        W16468  17.271   6.887   3.620
44154W        W16469  28.104  17.315  13.175
44155W        W16470  16.610  36.805   2.703
44156W        W16471  41.594   8.920   0.100
44157W        W16472   6.144   8.835  13.922
44158W        W16473  12.865  15.719  10.747
44159W        W16474   0.541  16.734   3.242
44160W        W16475  25.451   8.171  13.466
44161W        W16476   3.378  14.918   0.853
44162W        W16477  38.988  37.010  11.947
44163W        W16478  16.798  23.626   1.182
44164W        W16479  36.635  18.487   0.503
44165W        W16480  42.271  26.789   2.597
44166W        W16481   6.380  19.604  13.748
44167W        W16482  39.910  11.356   3.192
44168W        W16483  39.333  19.215   3.969
44169W        W16484  22.648  16.404   3.252
44170W        W16485  12.579  16.593   0.271
44171W        W16486  42.421  12.830   1.727
44172W        W16487  25.130  35.088   1.864
44173W        W16488  27.935  14.376  13.614
44174W        W16489  19.944  29.430  11.166
44175W        W16490  31.704  14.676   2.511
44176W        W16491  21.144   4.942  13.383
44177W        W16492  43.030  41.403   2.312
44178W        W16493  42.386  23.497   2.344
44179W        W16494  32.515   6.021   0.975
44180W        W16495  44.080  10.179  10.253
44181W        W16496  32.142  17.048   3.422
44182W        W16497  16.126  31.238  11.466
44183W        W16498  17.704  35.337   4.911
44184W        W16499   8.849  14.775   3.654
44185W        W16500   4.792  37.394   4.566
44186W        W16501  19.086  42.852   3.042
44187W        W16502  30.339  22.784   1.739
44188W        W16503   4.621  21.471  11.229
44189W        W16504   3.287   4.612  13.374
44190W        W16505  17.820   0.750   0.801
44191W        W16506  27.292   4.872   1.720
44192W        W16507  28.950  37.496   0.256
44193W        W16508  37.447  36.066   2.173
44194W        W16509   2.218  39.859  14.335
44195W        W16510  26.431   9.312  10.896
44196W        W16511  31.662  25.447   0.739
44197W        W16512  39.419  38.316   1.888
44198W        W16513   0.774  23.439   0.784
44199W        W16514  11.558   0.267   3.196
44200W        W16515  25.128  39.215   1.461
44201W        W16516  14.859  33.415   4.366
44202W        W16517   7.486  20.141  14.012
44203W        W16518  12.524   3.344   0.905
44204W        W16519  10.596  21.507   2.903
44205W        W16520  33.352  32.571   3.369
44206W        W16521  22.681  19.188   4.769
44207W        W16522  17.308  26.630   0.523
44208W        W16523  13.401   1.444  12.917
44209W        W16524   6.876  19.540   4.635
44210W        W16525  44.885   9.353  13.600
44211W        W16526   7.721  25.033   2.409
44212W        W16527   9.988  34.862  12.315
44213W        W16528   4.399  27.037   2.405
44214W        W16529  32.558  41.056  14.838
44215W        W16530   9.231  31.679  14.739
44216W        W16531  32.076  30.259  10.616
44217W        W16532  26.414  13.833   1.934
44218W        W16533  32.428  17.157  10.665
44219W        W16534   5.744  19.084   0.793
44220W        W16535  18.250  16.987   4.378
44221W        W16536  39.281  11.604  14.817
44222W        W16537  14.221  44.020  11.798
44223W        W16538  19.131   3.269  11.189
44224W        W16539  25.074  40.918  12.034
44225W        W16540   4.144   9.427  11.553
44226W        W16541   7.715  36.826  13.781
44227W        W16542  42.231  38.120   1.576
44228W        W16543   0.042   8.707   1.495
44229W        W16544   6.174  38.903  12.081
44230W        W16545  15.150  44.764   3.254
44231W        W16546   9.568   5.798  12.580
44232W        W16547  25.539   4.210  12.512
44233W        W16548  19.918  32.428  12.396
44234W        W16549  35.492  29.068   4.514
44235W        W16550  15.239  22.212  13.119
44236W        W16551  12.858   2.504  11.543
44237W        W16552  35.105   4.554   4.707
44238W        W16553  19.873  26.200   1.339
44239W        W16554  30.035   6.732   2.950
44240W        W16555   5.813  41.255   3.168
44241W        W16556   7.698  15.463   3.827
44242W        W16557  35.323  20.613   0.282
44243W        W16558  28.900  38.499  12.869
44244W        W16559   5.335   5.697  13.548
44245W        W16560  38.585  38.336   3.786
44246W        W16561  30.427  29.514  13.504
44247W        W16562  42.388  18.726   1.331
44248W        W16563  29.031  32.674  13.243
44249W        W16564  34.456  40.070  14.791
44250W        W16565  11.309  35.571   4.235
44251W        W16566  44.920  31.543   0.499
44252W        W16567  36.337  15.625   1.461
44253W        W16568  17.201  29.130   1.679
44254W        W16569  42.227  14.233   0.512
44255W        W16570   7.128  43.807   3.861
44256W        W16571  14.358   9.793  12.856
44257W        W16572  35.561  43.025   0.980
44258W        W16573   0.889  28.443  11.588
44259W        W16574   1.306  30.363   2.381
44260W        W16575  44.249  40.099  12.436
44261W        W16576  42.191  41.685  12.377
44262W        W16577  14.493  40.070   0.587
44263W        W16578  39.449  10.135  11.839
44264W        W16579  21.950  34.260  12.041
44265W        W16580  17.021  39.534   2.777
44266W        W16581  36.316  21.304   2.558
44267W        W16582  41.038  34.993   4.295
44268W        W16583  22.259  24.960  11.999
44269W        W16584  13.845  29.550   1.018
44270W        W16585   5.718  26.073  13.433
44271W        W16586  21.445   8.764   3.790
44272W        W16587  14.240  30.058  12.923
44273W        W16588  34.357  12.652   4.841
44274W        W16589  36.538  21.256  12.828
44275W        W16590  13.131  20.821   1.667
44276W        W16591  29.610  39.793   4.069
44277W        W16592  28.017  36.498   0.840
44278W        W16593   2.339  18.317   2.294
44279W        W16594  42.500  17.732  12.557
44280W        W16595  20.920  21.440   3.184
44281W        W16596   7.852   9.125   3.752
44282W        W16597  42.700   6.480  14.531
44283W        W16598  38.580  21.789  13.375
44284W        W16599   1.727  15.542  13.513
44285W        W16600  21.112  39.899   0.873
44286W        W16601  27.180  34.976   1.889
44287W        W16602  37.851  14.838  10.588
44288W        W16603  41.787  36.875  14.668
44289W        W16604   7.727  11.954  14.377
44290W        W16605  13.515  18.108  10.742
44291W        W16606  19.234  33.649   0.681
44292W        W16607   7.625  26.021   1.899
44293W        W16608   5.566  20.242  14.347
44294W        W16609   5.409  42.967   3.803
44295W        W16610  23.081  32.973  13.447
44296W        W16611   6.934  19.820  12.089
44297W        W16612  12.277   2.402  12.098
44298W        W16613  38.933  31.141  12.571
44299W        W16614  10.339  12.057  11.578
44300W        W16615  31.121  20.384  11.033
44301W        W16616  20.722  38.552  13.588
44302W        W16617  16.235  10.647   2.341
44303W        W16618  37.019  14.169   4.532
44304W        W16619  36.082  19.450  13.818
44305W        W16620  16.325  10.101  11.312
44306W        W16621  43.338  41.091  13.513
44307W        W16622  41.000  32.191   3.609
44308W        W16623   3.045   5.285  14.846
44309W        W16624  36.596   3.215  10.747
44310W        W16625  44.670   9.788   2.776
44311W        W16626  34.032   0.898   1.426
44312W        W16627  26.401  33.609   4.956
44313W        W16628  10.150  31.650   3.247
44314W        W16629  32.435  31.138  11.374
44315W        W16630   5.864  15.095  14.548
44316W        W16631   2.271  31.933   1.868
44317W        W16632  44.391   7.014   0.701
44318W        W16633  37.882  18.892   1.057
44319W        W16634   1.917  44.240  13.647
44320W        W16635  37.917  44.788   1.363
44321W        W16636  16.372  17.606   0.859
44322W        W16637   8.731  31.098  12.015
44323W        W16638  10.550  39.864   3.902
44324W        W16639  19.221   9.117   1.780
44325W        W16640  30.978  44.908   4.384
44326W        W16641  28.918   0.328   3.182
44327W        W16642  12.598  29.163   2.295
44328W        W16643   8.632  21.683  10.996
44329W        W16644   1.433  20.591   0.785
44330W        W16645  25.971  10.852   2.235
44331W        W16646  37.336  19.038   1.120
44332W        W16647  43.666   1.829  12.149
44333W        W16648  11.183  41.771  12.025
44334W        W16649  28.628  27.667  14.482
44335W        W16650  19.334  39.469   1.454
44336W        W16651  19.170   8.688  10.710
44337W        W16652   5.979  40.354  11.124
44338W        W16653  22.820  18.569  11.896
44339W        W16654   4.222  15.405   0.894
44340W        W16655  31.978  12.752   3.052
44341W        W16656  23.294   1.829   3.025
44342W        W16657   1.764  30.986   1.939
44343W        W16658   0.314  40.137   0.964
44344W        W16659  40.635  41.917  14.291
44345W        W16660  17.274  27.602   2.042
44346W        W16661  18.062  22.230   1.663
44347W        W16662  43.014  29.579   0.711
44348W        W16663  44.484  23.681   1.915
44349W        W16664  38.638  34.812  14.910
44350W        W16665  38.877  30.112   0.392
44351W        W16666  31.653  27.613  14.454
44352W        W16667  25.775  16.901   0.848
44353W        W16668  15.825  40.749   2.374
44354W        W16669  11.168  39.657  13.758
44355W        W16670   9.155  17.662  12.928
44356W        W16671  13.541  44.491   4.529
44357W        W16672  18.636  35.287   3.766
44358W        W16673   2.710  31.105   3.712
44359W        W16674  37.167  44.052  14.413
44360W        W16675  22.466  22.570   2.821
44361W        W16676  43.031  36.384  11.972
44362W        W16677  10.342  12.326   4.068
44363W        W16678  14.826   5.438   0.706
44364W        W16679  30.965  26.244   2.911
44365W        W16680  31.201  29.423   3.184
44366W        W16681  15.055  36.506   0.428
44367W        W16682  21.588  36.100  13.432
44368W        W16683  41.345  18.373   2.164
44369W        W16684  12.140  33.480  13.542
44370W        W16685  24.215  24.169   1.926
44371W        W16686  24.715  32.159   4.395
44372W        W16687  37.074  27.181   0.335
44373W        W16688   9.091  29.326   1.849
44374W        W16689  42.504  40.014  11.125
44375W        W16690   4.409  38.674   3.304
44376W        W16691  44.190   6.363   0.341
44377W        W16692  36.256  10.697   4.210
44378W        W16693  39.976  18.876   4.220
44379W        W16694  33.210  18.814  12.879
44380W        W16695  28.597   7.925  12.393
44381W        W16696  27.712  26.517   1.323
44382W        W16697  41.948  11.230  11.783
44383W        W16698  39.773  20.215   0.310
44384W        W16699  15.503  36.558  14.468
44385W        W16700   1.900   7.142  10.688
44386W        W16701  43.225   5.191  12.546
44387W        W16702  44.446  19.820   4.694
44388W        W16703  41.454  35.323  14.987
44389W        W16704   0.189  27.216  11.495
44390W        W16705  35.935   5.890   4.884
44391W        W16706  39.481  42.534  13.999
44392W        W16707  11.249  34.836  14.053
44393W        W16708  19.359  14.619  11.969
44394W        W16709  28.726   2.975   2.341
44395W        W16710  37.836  41.183  11.188
44396W        W16711  29.938  11.208   1.810
44397W        W16712   4.652  19.772  10.542
44398W        W16713  42.818  23.181  11.158
44399W        W16714  27.152   2.688   2.354
44400W        W16715  37.509  10.679   1.878
44401W        W16716  22.006  17.481  12.976
44402W        W16717  14.681  27.534   4.334
44403W        W16718   2.432  41.388  14.460
44404W        W16719  20.650  44.511   0.892
44405W        W16720  29.027   0.845   3.281
44406W        W16721   7.766  23.940   4.291
44407W        W16722  11.813   3.414  14.974
44408W        W16723   0.806  14.354  14.393
44409W        W16724  30.208   2.880  12.927
44410W        W16725  16.239  26.952  11.587
44411W        W16726  27.714  34.058  11.750
44412W        W16727  40.122  24.540  12.223
44413W        W16728  38.981  24.538  12.076
44414W        W16729  25.268  18.557   2.931
44415W        W16730  16.774  42.375   4.366
44416W        W16731  25.991   9.842   1.701
44417W        W16732  23.663   0.769  14.873
44418W        W16733   5.374   2.516   0.268
44419W        W16734   3.851  20.193  14.280
44420W        W16735   3.253   7.045   1.641
44421W        W16736  36.637  14.687   2.558
44422W        W16737  25.048   8.584   3.782
44423W        W16738  35.308  34.545  13.014
44424W        W16739   4.091  18.359  12.410
44425W        W16740  41.273  10.845  14.744
44426W        W16741  42.977  22.464  12.960
44427W        W16742   7.986   1.977  14.873
44428W        W16743   3.724   1.187   2.728
44429W        W16744  15.229  21.483  10.386
44430W        W16745  22.004  15.783   1.249
44431W        W16746   4.898   3.452   2.917
44432W        W16747  23.749  15.010  13.849
44433W        W16748   9.149  17.363  14.980
44434W        W16749  14.344  40.682  14.470
44435W        W16750  24.089  15.954   0.002
44436W        W16751  32.467  38.804   1.299
44437W        W16752  19.885  32.395  11.561
44438W        W16753   4.411  21.479   2.678
44439W        W16754  12.253   6.946  13.542
44440W        W16755  37.409   9.107   1.873
44441W        W16756   4.770   8.218  13.149
44442W        W16757  32.517  14.373  10.768
44443W        W16758  20.602  29.526   2.825
44444W        W16759  27.973  44.376   1.121
44445W        W16760   2.534   3.311   0.415
44446W        W16761   7.668  21.586  11.183
44447W        W16762  39.490  37.537   3.625
44448W        W16763  23.249   8.336  12.921
44449W        W16764   3.412  20.065  12.861
44450W        W16765  11.287  27.422   4.224
44451W        W16766  32.851  27.750   3.674
44452W        W16767  28.622  12.191   0.725
44453W        W16768  14.790  24.600   0.660
44454W        W16769   2.367   5.766  13.310
44455W        W16770  25.516   1.946   2.055
44456W        W16771   2.959  16.797   3.688
44457W        W16772  18.935  40.112   0.882
44458W        W16773  23.771   3.089  12.006
44459W        W16774  16.593  11.222  13.762
44460W        W16775  29.966  11.598   0.452
44461W        W16776  29.261  17.866  12.852
44462W        W16777  30.195  29.535  14.253
44463W        W16778  37.513  18.730  13.942
44464W        W16779  20.111   4.434  14.889
44465W        W16780  17.687  32.774  12.007
44466W        W16781  12.143  35.185   3.905
44467W        W16782  16.083  34.345   0.432
44468W        W16783   3.552  11.342  11.239
44469W        W16784  27.744  27.552  12.180
44470W        W16785  33.887  24.009  10.527
44471W        W16786  14.211  24.037  12.612
44472W        W16787  17.045  24.688  10.999
44473W        W16788  23.086  26.217  14.774
44474W        W16789  26.938  35.860   1.392
44475W        W16790  36.306   1.054  12.980
44476W        W16791  21.998   5.600  14.563
44477W        W16792   8.073  25.095  11.974
44478W        W16793  34.807  32.915  14.978
44479W        W16794   1.456   9.375  14.487
44480W        W16795  32.229  30.180   3.151
44481W        W16796  14.143  20.073  14.553
44482W        W16797  33.933  40.402   0.427
44483W        W16798  27.823  15.325   0.793
44484W        W16799   9.622   8.698  14.760
44485W        W16800  41.069   2.532  14.243
44486W        W16801  31.000  40.154  11.079
44487W        W16802  15.462  38.595   0.533
44488W        W16803   9.036  16.681   1.510
44489W        W16804  23.985  27.968  14.456
44490W        W16805  23.970  21.269   0.708
44491W        W16806  15.706   9.300   4.751
44492W        W16807  18.774  40.815  14.578
44493W        W16808  10.385   7.884  13.481
44494W        W16809  38.109  32.589   0.059
44495W        W16810   4.318   9.212   2.904
44496W        W16811  27.424  32.078  12.451
44497W        W16812  34.319  25.652   2.089
44498W        W16813  27.169  38.364   4.101
44499W        W16814  14.604   0.734   4.116
44500W        W16815  17.283  11.712  14.187
44501W        W16816  36.956  13.848  14.298
44502W        W16817   1.479  22.969  11.031
44503W        W16818  19.833  25.606   3.789
44504W        W16819  34.549  34.057   4.643
44505W        W16820  23.663  23.241  12.593
44506W        W16821   0.286  36.913  12.079
44507W        W16822   2.709  38.944  12.441
44508W        W16823  40.837  40.133   1.833
44509W        W16824  31.386  35.024   0.643
44510W        W16825  11.481  15.312   0.391
44511W        W16826   7.693   3.160  11.235
44512W        W16827   5.740   1.284   0.278
44513W        W16828   6.839  24.445  13.834
44514W        W16829  33.296  33.604  11.973
44515W        W16830  17.145   3.748  11.557
44516W        W16831  39.043  25.151  14.030
44517W        W16832  23.719  28.472  13.459
44518W        W16833  29.102  16.340   0.793
44519W        W16834  21.035  11.014  13.916
44520W        W16835  25.192  28.586  12.462
44521W        W16836  28.410   0.761  11.589
44522W        W16837   0.273  44.769  14.536
44523W        W16838  16.157   4.881  13.139
44524W        W16839  10.349  20.984   3.647
44525W        W16840   7.610  34.099  11.946
44526W        W16841  29.065  15.059   1.369
44527W        W16842  19.697   1.568  11.042
44528W        W16843   4.608  22.034  13.098
44529W        W16844  12.640  17.053  11.598
44530W        W16845   2.471  38.979   1.415
44531W        W16846  24.815  30.675   1.268
44532W        W16847  23.072  44.870   2.709
44533W        W16848  16.678  14.452  13.030
44534W        W16849  14.721  35.718  11.044
44535W        W16850  38.572  26.694   2.765
44536W        W16851  44.769  29.257  13.006
44537W        W16852  41.901  16.696   0.403
44538W        W16853  22.684  12.132   4.039
44539W        W16854  34.611   6.292   2.326
44540W        W16855  19.483  43.556  13.512
44541W        W16856  33.452  14.269  10.619
44542W        W16857   9.766  30.131   2.025
44543W        W16858  28.924  38.011  13.075
44544W        W16859   8.932   9.483   3.649
44545W        W16860  25.894  20.201   4.704
44546W        W16861  34.335  27.964   2.062
44547W        W16862  41.964  26.918   3.274
44548W        W16863  33.117  32.372  14.707
44549W        W16864   0.227  44.940   0.024
44550W        W16865  30.188   7.952  11.559
44551W        W16866  38.343   6.305  13.618
44552W        W16867   3.248  16.673   2.408
44553W        W16868  44.690   3.915   2.337
44554W        W16869   5.651  38.450   0.768
44555W        W16870   9.475  36.029   5.104
44556W        W16871   3.371  30.967   3.100
44557W        W16872  32.210   8.927   3.084
44558W        W16873  25.921  41.223   4.219
44559W        W16874   1.937  11.717  12.415
44560W        W16875  42.681   8.728  12.527
44561W        W16876  39.421  25.774  11.046
44562W        W16877   4.416  40.216   3.237
44563W        W16878   6.082   0.014  13.948
44564W        W16879   4.199  32.004  12.069
44565W        W16880   6.843   4.935   2.238
44566W        W16881   6.960  42.139  10.742
44567W        W16882  17.793  17.994   2.861
44568W        W16883  21.794  31.144  14.390
44569W        W16884  17.544   9.939  13.826
44570W        W16885   0.999  37.443  13.518
44571W        W16886  44.304  18.190   0.356
44572W        W16887  17.508  19.839   5.051
44573W        W16888  25.440   9.318  12.011
44574W        W16889   6.181  20.558  11.125
44575W        W16890  35.567  40.040  11.409
44576W        W16891   7.212   2.788  13.931
44577W        W16892   9.502  44.808   0.892
44578W        W16893  20.018  25.666  11.523
44579W        W16894  43.772  38.334   2.405
44580W        W16895  40.991  44.623   3.576
44581W        W16896  32.019  20.983   1.543
44582W        W16897  39.123   1.548   4.331
44583W        W16898  10.733  19.884  14.368
44584W        W16899  10.356  40.438   2.729
44585W        W16900  38.898  23.325   3.313
44586W        W16901  40.257  44.488   4.249
44587W        W16902  20.219  13.082  11.122
44588W        W16903   5.913  37.999   0.794
44589W        W16904  44.023  35.417  12.644
44590W        W16905  23.010  19.542   4.639
44591W        W16906  36.248  23.620  13.253
44592W        W16907   1.907   4.914   4.595
44593W        W16908  26.164  42.248   1.383
44594W        W16909  34.556  17.179  14.829
44595W        W16910  33.443  16.279  13.948
44596W        W16911   4.794  17.064   1.263
44597W        W16912  26.569   5.440  13.552
44598W        W16913  36.351  11.876   4.643
44599W        W16914  44.699  18.975   4.573
44600W        W16915   0.828  40.098  14.499
44601W        W16916  13.168  25.013   2.795
44602W        W16917  34.847  42.101  11.491
44603W        W16918  15.125  13.908  14.466
44604W        W16919  22.062  12.451  12.544
44605W        W16920  33.642  15.663  13.639
44606W        W16921  41.999  20.045  12.998
44607W        W16922  21.011  33.735   1.406
44608W        W16923  26.006  18.651   1.699
44609W        W16924   0.260  43.246   2.972
44610W        W16925  44.825   2.510  10.644
44611W        W16926  41.079  17.046  11.547
44612W        W16927  34.132  34.116   1.771
44613W        W16928  18.144  20.002  14.291
44614W        W16929  40.086  18.304   1.064
44615W        W16930  33.976  23.478   3.183
44616W        W16931  17.453   9.579  10.638
44617W        W16932  19.787  10.325  10.155
44618W        W16933  37.681  24.775  12.895
44619W        W16934   1.210  41.341  10.680
44620W        W16935  15.276  24.527  14.370
44621W        W16936  18.766  37.114   2.487
44622W        W16937  15.810  35.441  11.513
44623W        W16938  17.003  44.389   5.052
44624W        W16939  19.054  26.980  11.565
44625W        W16940  38.567  22.740  10.454
44626W        W16941   1.218   6.335  12.953
44627W        W16942   2.386  19.950  10.445
44628W        W16943  22.012  25.938  13.890
44629W        W16944  41.066  40.320   2.284
44630W        W16945  41.972  37.037  11.211
44631W        W16946  10.811  16.626  11.042
44632W        W16947  38.343   1.765  13.874
44633W        W16948  17.133   2.772  14.072
44634W        W16949  19.720  12.163  10.438
44635W        W16950  32.644  26.156  10.744
44636W        W16951  28.911  35.400  10.698
44637W        W16952  33.006   7.434   0.874
44638W        W16953  24.112  20.998  14.804
44639W        W16954   9.143  13.472   1.236
44640W        W16955  27.092   9.110  14.042
44641W        W16956  17.120  31.559  10.118
44642W        W16957  39.602   6.346  11.067
44643W        W16958   3.330   7.913   4.090
44644W        W16959  33.053  27.574  14.752
44645W        W16960   7.779   3.350   4.531
44646W        W16961  16.109  17.851  11.124
44647W        W16962  12.869  36.652  10.670
44648W        W16963   9.677  21.177  14.502
44649W        W16964  21.649  11.976   2.235
44650W        W16965  35.672   1.853   4.262
44651W        W16966  18.677  33.039  14.916
44652W        W16967   2.229  36.452   3.879
44653W        W16968  36.986  28.886   3.675
44654W        W16969  34.920   0.018   0.851
44655W        W16970  13.595  16.590   3.041
44656W        W16971  36.398  29.199  12.959
44657W        W16972  35.713  37.255   0.738
44658W        W16973  21.304   9.353  13.393
44659W        W16974  26.955  15.169   3.665
44660W        W16975  10.793  26.859  13.832
44661W        W16976  26.111  27.757   0.950
44662W        W16977  39.332  19.160  14.490
44663W        W16978  21.728  41.323  14.351
44664W        W16979  13.054  21.726   0.866
44665W        W16980   8.109   9.487  11.098
44666W        W16981  26.112  25.958   3.455
44667W        W16982   0.167  19.454  14.822
44668W        W16983  36.347  21.966  10.650
44669W        W16984  37.055  35.088   2.693
44670W        W16985  22.059  24.031  12.121
44671W        W16986  20.250  14.409  10.276
44672W        W16987  30.685  20.638  13.885
44673W        W16988  30.951  38.983  13.035
44674W        W16989  39.056  26.324  13.605
44675W        W16990  28.602  15.200  12.539
44676W        W16991  32.659  24.679   3.634
44677W        W16992  19.571   2.749  11.538
44678W        W16993  38.505  44.541   4.135
44679W        W16994  36.855  33.970  14.700
44680W        W16995  41.421  14.929   3.775
44681W        W16996   5.941   6.334  14.938
44682W        W16997  44.428   8.432  10.366
44683W        W16998  30.547   6.892  14.877
44684W        W16999  34.998  26.039  10.718
44685W        W17000  13.721  16.494  13.429
44686W        W17001  22.522   9.259  10.089
44687W        W17002  25.519  20.402   3.079
44688W        W17003   4.262  20.746  14.771
44689W        W17004  16.272  14.214   0.140
44690W        W17005  29.982  24.305   1.747
44691W        W17006   3.775  24.973   0.234
44692W        W17007  39.334   4.202   0.368
44693W        W17008  27.008   7.565   4.328
44694W        W17009  44.861  13.074   5.246
44695W        W17010  27.541  31.298   4.763
44696W        W17011  14.651  35.363  14.944
44697W        W17012  15.097  19.087   4.883
44698W        W17013  31.911  16.797  14.939
44699W        W17014  40.000  30.410  13.415
44700W        W17015   3.493  26.004  10.618
44701W        W17016  36.296  16.482  13.892
44702W        W17017   2.690   8.583  10.876
44703W        W17018  16.283   7.246   1.302
44704W        W17019  37.450  12.668   1.423
44705W        W17020  27.085   1.661  11.055
44706W        W17021  31.165  26.624   3.617
44707W        W17022  12.579   8.263   2.689
44708W        W17023  17.073  24.024  13.274
44709W        W17024  26.743   9.446   3.719
44710W        W17025   6.414  36.307   3.643
44711W        W17026  28.249   4.929  11.238
44712W        W17027  38.631  27.772   1.427
44713W        W17028   9.028  26.148  12.000
44714W        W17029  41.828  29.054   4.134
44715W        W17030  21.062  27.492   1.247
44716W        W17031  38.511   3.250   1.752
44717W        W17032  28.953  12.185   4.080
44718W        W17033  35.794  19.309  11.692
44719W        W17034  25.504  10.537   1.348
44720W        W17035   4.757  27.020   4.235
44721W        W17036   4.747   8.325  14.502
44722W        W17037   6.936  25.850   1.228
44723W        W17038  34.201  11.203  13.519
44724W        W17039  19.806  36.452   1.735
44725W        W17040  20.604  12.254   4.544
44726W        W17041  28.577  18.604  11.874
44727W        W17042  31.534  14.166   0.690
44728W        W17043  30.948  38.294  13.816
44729W        W17044  26.700  28.173  13.525
44730W        W17045  11.381  33.829  12.913
44731W        W17046  44.253  32.204   1.595
44732W        W17047   6.919  25.761  12.555
44733W        W17048  43.155  17.117  12.688
44734W        W17049  43.955   9.581   1.813
44735W        W17050  23.288  25.252   3.254
44736W        W17051  19.455   1.899  12.470
44737W        W17052   6.276  41.233  11.702
44738W        W17053  29.106   1.297   3.527
44739W        W17054  30.839  32.436  13.852
44740W        W17055  44.336  44.290  12.184
44741W        W17056  43.528  22.223  10.714
44742W        W17057   3.848  39.910  13.557
44743W        W17058  11.751  28.901   3.686
44744W        W17059  18.704  26.532  10.185
44745W        W17060  10.637   6.917   3.809
44746W        W17061  25.179  14.677  11.764
44747W        W17062  12.281   5.365  10.720
44748W        W17063  32.100  16.340   2.647
44749W        W17064  10.702  11.654   3.650
44750W        W17065  38.732  11.319   1.530
44751W        W17066   2.296  37.023  14.070
44752W        W17067  20.626  23.045  14.743
44753W        W17068  40.621   0.852   3.657
44754W        W17069  28.977  25.800   3.228
44755W        W17070   6.966  31.603  14.699
44756W        W17071  32.718  32.125  12.090
44757W        W17072  36.281  41.424   1.322
44758W        W17073   1.188   1.454   3.629
44759W        W17074  40.941  33.320  14.025
44760W        W17075  23.254  26.996   0.861
44761W        W17076   4.371  25.164   1.719
44762W        W17077  34.125  23.580  13.476
44763W        W17078   6.548  43.565  11.817
44764W        W17079   2.231  11.274  14.378
44765W        W17080  26.044  21.685  13.347
44766W        W17081  20.169  22.607   3.196
44767W        W17082  16.899  32.282  12.526
44768W        W17083  19.594  24.277   0.906
44769W        W17084  18.355  36.042   4.402
44770W        W17085  24.019  11.794   1.911
44771W        W17086  20.244  23.141  11.868
44772W        W17087  34.497  14.184   3.666
44773W        W17088  14.855  29.554   4.702
44774W        W17089  18.811  37.801  10.696
44775W        W17090  22.839  33.669  11.989
44776W        W17091  24.436  30.938  11.098
44777W        W17092   4.142  18.705   4.501
44778W        W17093  17.160  29.194   4.663
44779W        W17094  18.532  27.806  11.527
44780W        W17095  43.912  44.750   3.515
44781W        W17096  23.150   3.348  14.018
44782W        W17097  31.434  30.620  12.558
44783W        W17098  14.122  28.562  14.908
44784W        W17099  32.145   9.719   5.080
44785W        W17100  44.527   1.343  12.971
44786W        W17101  22.204   5.708  12.641
44787W        W17102  21.411  14.745   4.271
44788W        W17103  40.953  14.665  14.263
44789W        W17104   1.481  13.712  12.737
44790W        W17105  35.447  22.042   3.160
44791W        W17106   1.297  31.019  12.105
44792W        W17107  36.490  26.370  14.497
44793W        W17108  44.818   7.275  14.588
44794W        W17109   0.460  36.587   4.331
44795W        W17110   1.975  15.949  13.088
44796W        W17111  23.993   2.967   2.046
44797W        W17112  23.165   3.636   1.872
44798W        W17113  23.300   1.093   3.948
44799W        W17114  37.606  28.203   2.397
44800W        W17115  33.493  30.157   4.216
44801W        W17116   5.202   5.232  13.404
44802W        W17117  15.508  17.052  13.964
44803W        W17118   8.857  35.547   0.802
44804W        W17119  22.165  11.439  11.093
44805W        W17120   1.587  34.605  10.975
44806W        W17121   8.469  25.241  14.405
44807W        W17122  35.378  37.489  14.337
44808W        W17123  44.444  21.210   3.615
44809W        W17124  22.625  14.800  12.421
44810W        W17125  44.063  21.460   1.690
44811W        W17126   3.698  18.889   3.651
44812W        W17127  32.605   3.341   1.820
44813W        W17128   1.414  35.114  12.412
44814W        W17129  12.995  30.887   3.602
44815W        W17130  21.595  44.019  12.084
44816W        W17131  30.324  13.385  13.076
44817W        W17132   9.729   0.682   2.210
44818W        W17133  15.747  24.727   3.328
44819W        W17134  30.542  13.360   5.015
44820W        W17135   3.283  14.314   0.441
44821W        W17136  42.331  12.698  13.501
44822W        W17137   3.207  29.920  12.895
44823W        W17138  34.628  44.019  12.943
44824W        W17139  11.866  36.251   3.789
44825W        W17140   7.123  35.845  14.277
44826W        W17141  19.824   3.230   3.744
44827W        W17142  15.083  24.733   1.757
44828W        W17143  31.947  17.313   1.458
44829W        W17144  18.217  44.733  13.453
44830W        W17145   1.912  22.006   3.471
44831W        W17146  39.051  44.600  13.170
44832W        W17147  25.964   7.711  12.435
44833W        W17148  18.682  32.119  13.687
44834W        W17149  12.559   6.273  11.279
44835W        W17150  28.600   2.207  11.984
44836W        W17151  16.678  20.777  11.091
44837W        W17152  16.249  29.526   0.610
44838W        W17153  41.568  40.829   2.663
44839W        W17154  28.956  13.677   3.059
44840W        W17155  12.292  14.313   3.136
44841W        W17156   0.172  20.728  11.706
44842W        W17157  40.283  30.318   4.560
44843W        W17158  14.112  33.757   2.281
44844W        W17159  43.009  14.793   0.726
44845W        W17160  28.101  22.170  10.896
44846W        W17161  31.069  17.372  14.838
44847W        W17162  16.348  41.606   4.228
44848W        W17163  42.978  23.267  13.422
44849W        W17164   1.752   5.461  14.544
44850W        W17165  27.663  28.369   4.301
44851W        W17166  34.503   7.395   1.192
44852W        W17167  18.022  33.941   0.634
44853W        W17168  34.826   4.641   9.856
44854W        W17169  44.049  30.897   1.266
44855W        W17170   3.917  37.101   2.797
44856W        W17171  21.668  34.933   0.509
44857W        W17172   0.954  40.859  12.251
44858W        W17173  16.045  29.651   2.634
44859W        W17174  33.290  27.014  14.886
44860W        W17175   0.680  27.620   9.856
44861W        W17176  28.622   4.196   5.188
44862W        W17177  43.069  33.493  11.425
44863W        W17178  17.925  22.066   2.192
44864W        W17179  12.722  33.603   2.411
44865W        W17180  25.754  10.167  10.095
44866W        W17181  15.860   8.138   1.374
44867W        W17182  36.551  17.703   0.077
44868W        W17183  31.418   8.737   2.360
44869W        W17184  42.316  43.530  14.944
44870W        W17185   9.194   1.367   2.045
44871W        W17186  11.650  12.021  12.139
44872W        W17187   6.120  24.340   2.007
44873W        W17188  41.033   9.149  12.075
44874W        W17189   9.136  11.313  13.942
44875W        W17190  44.890  35.385  14.562
44876W        W17191  26.314  16.142  12.151
44877W        W17192  10.711   1.285   0.348
44878W        W17193  12.428   0.042  13.824
44879W        W17194  20.893  24.611  10.342
44880W        W17195  32.572  31.980   3.755
44881W        W17196  19.196   9.940  11.591
44882W        W17197  14.570  27.150   4.680
44883W        W17198  14.604  28.570  14.358
44884W        W17199  15.617   8.613  13.609
44885W        W17200  11.814  31.488  14.434
44886W        W17201  21.648  41.883   4.040
44887W        W17202   9.662  10.755   4.561
44888W        W17203  41.951  42.469   2.340
44889W        W17204  21.875  43.898  10.759
44890W        W17205  39.853  23.663   1.580
44891W        W17206   8.188  27.120  13.955
44892W        W17207  17.216  40.930   1.882
44893W        W17208  41.107  25.433  12.106
44894W        W17209  42.834  22.711  14.316
44895W        W17210  17.100  18.096  13.958
44896W        W17211   8.643   6.355  10.651
44897W        W17212  34.020  15.191   4.615
44898W        W17213   5.461  33.629  13.370
44899W        W17214  38.701  34.542   3.603
44900W        W17215   0.125   8.361  12.148
44901W        W17216  33.340  39.896   3.467
44902W        W17217  37.992  29.478   4.838
44903W        W17218  40.930  19.164   3.102
44904W        W17219   5.163  17.294   4.682
44905W        W17220  11.848  27.463   1.299
44906W        W17221  20.647  41.715  12.578
44907W        W17222  15.958  15.586   4.965
44908W        W17223  40.121  15.603   4.551
44909W        W17224  16.848  43.811   3.846
44910W        W17225  11.575  22.758  11.391
44911W        W17226  44.029  17.067  14.869
44912W        W17227  21.116  16.902   0.831
44913W        W17228  33.939  35.852   3.618
44914W        W17229  11.568  38.062  10.472
44915W        W17230  43.520  39.821   4.926
44916W        W17231  44.297   2.803  13.080
44917W        W17232  17.535  19.058  13.975
44918W        W17233  33.907  29.265  11.659
44919W        W17234  25.357  21.006  11.773
44920W        W17235  29.340  41.436   3.424
44921W        W17236  13.386  40.423  12.530
44922W        W17237  32.362  13.843  14.750
44923W        W17238  20.747   1.526  11.165
44924W        W17239  39.335  36.559  12.550
44925W        W17240  16.778  29.003  10.315
44926W        W17241   1.381  21.719  10.574
44927W        W17242  34.421  34.672  14.996
44928W        W17243  16.189  14.621   0.511
44929W        W17244  30.036  29.897  10.504
44930W        W17245  13.417  36.798   3.430
44931W        W17246  23.804   5.326   2.611
44932W        W17247  23.228  35.205  12.488
44933W        W17248  22.981  20.879   4.456
44934W        W17249  43.427  43.590   1.071
44935W        W17250  15.211  41.067   0.517
44936W        W17251  22.710  31.910   4.025
44937W        W17252   5.698  33.571  12.047
44938W        W17253  32.025  31.463  10.213
44939W        W17254  13.661   5.234   3.728
44940W        W17255   0.912  21.084   2.141
44941W        W17256   7.416  19.717  10.856
44942W        W17257   0.741  43.061   3.804
44943W        W17258   5.473  33.947  12.935
44944W        W17259  35.748  30.991  11.647
44945W        W17260  16.578  25.214  11.166
44946W        W17261  31.491  44.887  14.493
44947W        W17262  26.120  24.513  12.110
44948W        W17263   9.389  15.077   3.396
44949W        W17264  39.626   8.439   3.740
44950W        W17265   5.380  43.374  14.504
44951W        W17266  26.701  17.812   2.200
44952W        W17267   8.484  25.846  11.193
44953W        W17268   3.839  42.175  11.060
44954W        W17269   3.405  42.392  14.241
44955W        W17270   2.231  28.032  13.022
44956W        W17271  15.841  15.841   1.213
44957W        W17272  40.407  23.925  13.899
44958W        W17273  31.042   5.287   1.110
44959W        W17274  41.020   3.310   3.641
44960W        W17275  20.949  20.104   4.647
44961W        W17276   9.967  40.994   1.592
44962W        W17277  41.197  39.903   1.526
44963W        W17278  31.483  37.845   2.975
44964W        W17279  19.989  43.148  11.922
44965W        W17280   2.848   4.788  14.046
44966W        W17281  25.595  24.523  12.017
44967W        W17282  40.543  21.743   1.403
44968W        W17283  16.607  14.438   1.811
44969W        W17284  34.839  15.859   5.066
44970W        W17285   5.019  33.848  12.722
44971W        W17286  30.482  44.019  12.361
44972W        W17287   1.192  22.005  13.822
44973W        W17288  15.289  29.150  12.332
44974W        W17289  18.678   1.730   3.731
44975W        W17290  11.206  14.703   4.666
44976W        W17291   4.760  18.539  11.400
44977W        W17292  14.762   5.529   2.709
44978W        W17293  39.832  35.686   4.176
44979W        W17294  11.079  19.750  10.205
44980W        W17295  16.572  15.332   3.717
44981W        W17296  13.870  15.318   3.936
44982W        W17297  31.132  30.402  11.744
44983W        W17298   0.943  31.792  13.959
44984W        W17299  21.468  15.015  13.368
44985W        W17300   4.763   8.927   4.514
44986W        W17301   4.311  44.027  12.127
44987W        W17302  12.837  11.883  13.524
44988W        W17303  27.083  15.130   4.531
44989W        W17304   0.903  30.075  12.482
44990W        W17305  14.891  35.668  13.577
44991W        W17306  14.121   6.930   3.319
44992W        W17307   7.444  13.910  14.802
44993W        W17308   0.332  10.704   1.922
44994W        W17309  22.521  39.483  11.925
44995W        W17310  35.691  39.798   0.300
44996W        W17311  11.933   3.348  11.522
44997W        W17312  25.142  13.779  14.851
44998W        W17313  27.610  10.184  10.129
44999W        W17314   9.329  39.078  10.702
45000W        W17315   3.642   6.706   0.808
45001W        W17316  13.224  28.233   2.275
45002W        W17317  37.318  34.961   1.259
45003W        W17318  24.734  35.902  12.929
45004W        W17319  18.582   1.348   2.769
45005W        W17320  31.655  43.930  13.928
45006W        W17321  25.221  36.071   1.832
45007W        W17322  42.837  42.337   0.442
45008W        W17323  27.864  33.321   1.823
45009W        W17324  23.937  19.028   3.803
45010W        W17325  12.103  14.841   3.207
45011W        W17326  12.396  24.439   4.541
45012W        W17327  43.238  22.046  13.766
45013W        W17328  37.029   6.106  10.414
45014W        W17329   3.785  32.483  12.745
45015W        W17330   6.141  35.497  14.226
45016W        W17331  35.176  25.142  10.597
45017W        W17332  40.241  23.928  14.836
45018W        W17333  34.866  20.550  13.171
45019W        W17334  20.271  18.782  10.802
45020W        W17335  27.521  11.133  13.738
45021W        W17336   2.664   0.007  12.834
45022W        W17337  12.947  34.554  11.973
45023W        W17338  28.264  37.607   5.094
45024W        W17339  42.435  17.784  10.715
45025W        W17340   5.996  24.711   4.596
45026W        W17341  33.912  19.564  12.535
45027W        W17342   9.660  28.562   2.191
45028W        W17343  34.365   3.501  13.232
45029W        W17344  19.873   8.519   3.755
45030W        W17345  44.954  10.259  14.117
45031W        W17346   0.349  42.355   0.212
45032W        W17347  13.362   3.289  14.894
45033W        W17348  32.390   6.398   1.711
45034W        W17349  28.015  34.119  14.560
45035W        W17350  33.357  26.012  13.573
45036W        W17351  15.280  32.174   1.623
45037W        W17352   5.014   7.206   2.106
45038W        W17353  36.578  40.008  14.370
45039W        W17354   3.846  24.249  11.017
45040W        W17355   6.390  19.478   1.431
45041W        W17356  19.713  18.930   0.529
45042W        W17357  29.250  11.816  10.786
45043W        W17358  12.160  44.475   4.962
45044W        W17359   9.692  40.443   4.776
45045W        W17360  19.640  35.440   4.346
45046W        W17361  18.529   5.104   2.301
45047W        W17362  16.101   1.767   1.789
45048W        W17363  30.145   5.153   0.329
45049W        W17364   0.620   7.749  12.936
45050W        W17365  17.014  38.479  11.158
45051W        W17366  44.858  31.096  11.620
45052W        W17367   5.012  38.860   4.143
45053W        W17368  31.619   0.936  11.977
45054W        W17369   1.970  23.018  10.689
45055W        W17370  39.393  33.339   0.503
45056W        W17371  42.528  17.155  12.911
45057W        W17372   3.726  32.389   1.348
45058W        W17373  44.355  43.305   0.325
45059W        W17374  21.968  28.457   1.019
45060W        W17375  42.600  17.565   1.415
45061W        W17376   2.257  41.428  11.712
45062W        W17377   5.477  33.144  12.615
45063W        W17378  43.719  32.032  12.955
45064W        W17379   3.864  38.113   0.329
45065W        W17380  40.861  13.502   1.743
45066W        W17381  30.851   9.099   1.238
45067W        W17382  39.258  12.320   4.723
45068W        W17383  28.099  18.015  13.864
45069W        W17384  40.974   0.496  12.421
45070W        W17385  28.871  15.706  13.052
45071W        W17386  15.833  34.176   2.665
45072W        W17387  23.489   7.323  11.541
45073W        W17388  43.478   3.963  12.004
45074W        W17389  43.766  26.179   1.882
45075W        W17390  32.102  28.180   1.785
45076W        W17391   8.869   7.238  13.896
45077W        W17392  31.985  22.909   3.608
45078W        W17393  38.033  33.905   3.194
45079W        W17394   9.203   2.775  14.026
45080W        W17395   7.730  17.370   1.811
45081W        W17396   6.076  18.618  13.931
45082W        W17397  10.362  19.187   1.777
45083W        W17398  27.855  41.501  10.217
45084W        W17399  22.223  32.220  14.128
45085W        W17400  17.507  43.192   0.750
45086W        W17401  26.541   5.454  11.640
45087W        W17402  19.108  17.114  14.882
45088W        W17403  35.370  16.272  13.924
45089W        W17404  15.971  15.312  12.366
45090W        W17405  13.400  25.186   1.398
45091W        W17406  12.301  18.797  11.277
45092W        W17407   4.511   7.286  10.329
45093W        W17408   1.016  34.005   2.224
45094W        W17409  37.860  29.977   1.302
45095W        W17410   8.304  37.077  10.608
45096W        W17411  27.412  40.051  14.579
45097W        W17412  12.779  34.420   0.412
45098W        W17413   7.317  17.288   3.742
45099W        W17414  41.348   8.710  14.535
45100W        W17415  32.923  36.433   2.607
45101W        W17416  15.138   4.988   1.770
45102W        W17417  21.698  33.079   0.424
45103W        W17418  36.003  31.484  11.665
45104W        W17419   9.712  24.122  13.628
45105W        W17420  44.713   3.466  10.935
45106W        W17421  37.719  37.331  11.501
45107W        W17422  20.825  26.223   0.458
45108W        W17423  43.112  31.563  11.207
45109W        W17424   6.380  23.159   0.791
45110W        W17425  37.250  34.137  12.786
45111W        W17426  40.977  36.842  10.957
45112W        W17427  34.834   3.374  13.405
45113W        W17428  23.614   3.219   4.648
45114W        W17429  10.219  15.618  14.956
45115W        W17430  35.634  17.248   0.899
45116W        W17431   5.491  14.726  14.475
45117W        W17432   7.409  15.375  14.694
45118W        W17433  15.717  32.531   2.884
45119W        W17434  32.065  17.663   2.239
45120W        W17435  16.492  21.663   1.239
45121W        W17436   4.261  26.441  13.016
45122W        W17437  26.476  16.652   0.242
45123W        W17438   0.807   9.128   4.154
45124W        W17439  40.571   3.140   4.972
45125W        W17440   9.836  44.452   0.204
45126W        W17441  20.133  43.332  12.359
45127W        W17442  29.164  12.653  12.869
45128W        W17443  29.910  13.305  13.882
45129W        W17444  20.811  38.851   3.614
45130W        W17445  21.908  21.512   1.221
45131W        W17446  37.002  20.860  10.653
45132W        W17447  39.399  12.843   4.803
45133W        W17448  39.487   0.746   0.467
45134W        W17449  10.846  35.389   3.343
45135W        W17450  34.752  41.017   3.332
45136W        W17451  13.705  35.383  11.140
45137W        W17452  44.891  38.073   2.428
45138W        W17453  37.195  33.971  13.286
45139W        W17454  44.575  36.344   5.175
45140W        W17455  29.148  10.344   5.056
45141W        W17456  34.791  27.101   4.283
45142W        W17457   3.765   1.382  14.489
45143W        W17458  42.024  25.388   3.838
45144W        W17459  28.547   3.277   1.470
45145W        W17460  25.533  33.391   0.771
45146W        W17461  20.629   4.797   1.688
45147W        W17462  26.869  14.376  13.935
45148W        W17463  34.469  31.849  13.285
45149W        W17464  18.072  24.966  13.081
45150W        W17465  26.975   7.154   2.670
45151W        W17466  15.733   2.624  11.056
45152W        W17467  10.760  31.483   4.600
45153W        W17468  18.582  29.391   1.357
45154W        W17469  24.037  39.479  13.090
45155W        W17470  15.339  44.808   0.413
45156W        W17471  35.393   1.330  13.853
45157W        W17472  29.670  25.225   2.883
45158W        W17473   5.443  36.805   4.132
45159W        W17474  21.992  11.585   1.430
45160W        W17475  33.241   2.771   1.352
45161W        W17476  40.377  22.085  12.001
45162W        W17477  42.983  21.262   0.421
45163W        W17478  13.683  28.377   4.689
45164W        W17479  40.740  42.517   3.265
45165W        W17480  23.150  19.362   0.078
45166W        W17481  18.720  12.766  13.878
45167W        W17482  14.841  31.071  13.009
45168W        W17483  29.654  10.278   4.900
45169W        W17484  10.780  23.573   1.297
45170W        W17485  18.802   9.235  14.059
45171W        W17486  12.536  38.371   3.268
45172W        W17487   8.609   5.691   4.223
45173W        W17488   5.281   7.279   0.646
45174W        W17489  38.397  41.301   3.772
45175W        W17490   0.373  35.180   4.322
45176W        W17491  44.019  15.516  11.582
45177W        W17492  12.832  42.996   0.962
45178W        W17493  13.326  38.635   4.093
45179W        W17494  22.023   6.830   1.838
45180W        W17495  15.120  35.039  11.592
45181W        W17496   8.650  29.905   5.309
45182W        W17497  31.032  41.831  12.365
45183W        W17498  42.315   7.668   2.664
45184W        W17499  31.959  36.354   2.914
45185W        W17500  27.532  14.060  14.694
45186W        W17501   1.227   9.657   0.439
45187W        W17502  33.160  22.634   0.747
45188W        W17503   3.883  20.599  10.959
45189W        W17504  11.718  15.236  13.160
45190W        W17505  13.595  11.690  13.978
45191W        W17506  39.756  10.768   1.940
45192W        W17507  26.692  44.457  11.251
45193W        W17508   0.143  31.371   1.835
45194W        W17509  10.685   5.965   0.013
45195W        W17510  12.558  18.689   1.316
45196W        W17511   5.246  14.408   3.284
45197W        W17512  20.985  27.110  10.689
45198W        W17513  18.732  20.999   4.565
45199W        W17514   4.814  41.762   2.832
45200W        W17515  38.517   0.019  14.588
45201W        W17516  25.307  11.612  11.432
45202W        W17517  29.347  36.681  11.035
45203W        W17518  12.769   6.684  11.012
45204W        W17519  15.582  23.381  11.433
45205W        W17520   9.899  20.664  13.366
45206W        W17521  11.257   6.960  11.086
45207W        W17522  19.543  38.316   1.803
45208W        W17523  35.368   9.372   4.780
45209W        W17524  28.002  25.622   3.298
45210W        W17525  10.857   6.730   3.371
45211W        W17526  14.899  25.246   2.294
45212W        W17527  31.553  23.028  14.017
45213W        W17528   9.484  23.425  13.869
45214W        W17529  29.413  21.086   4.256
45215W        W17530  16.175   4.405  12.143
45216W        W17531  27.556  16.149   3.735
45217W        W17532  16.097   9.449   1.805
45218W        W17533  12.914  39.358   1.279
45219W        W17534  12.457  30.722  12.913
45220W        W17535  18.773  30.876   4.191
45221W        W17536   3.341  37.341   3.722
45222W        W17537   4.796  31.932   2.660
45223W        W17538  22.202  13.674  10.732
45224W        W17539   5.449  21.270   1.253
45225W        W17540   6.214   6.859   2.966
45226W        W17541   6.818  14.752  11.675
45227W        W17542  19.740  24.763   0.806
45228W        W17543  36.890  13.037  10.747
45229W        W17544  26.240  39.517   0.953
45230W        W17545  20.769  39.286   4.137
45231W        W17546  32.085  43.888   2.293
45232W        W17547  39.497   3.345   3.678
45233W        W17548  38.347  12.885  12.480
45234W        W17549  41.396  12.802  13.538
45235W        W17550   4.052  38.842  12.550
45236W        W17551  23.261  25.772  13.884
45237W        W17552  17.224  25.621  12.337
45238W        W17553  10.288  25.624   1.230
45239W        W17554  28.163   1.180   4.546
45240W        W17555   3.320  39.532   3.319
45241W        W17556   3.264   5.486  11.044
45242W        W17557  42.619  37.567  11.023
45243W        W17558  14.058   9.281   4.111
45244W        W17559  20.119  34.020   1.262
45245W        W17560  40.526   9.178  12.224
45246W        W17561   0.887  11.870   3.820
45247W        W17562   7.130  29.544   2.610
45248W        W17563  14.772  26.450   0.540
45249W        W17564  36.543   6.130  11.238
45250W        W17565   8.324  41.772  13.378
45251W        W17566  44.065  11.808   4.126
45252W        W17567  13.806   6.446   0.831
45253W        W17568  41.868  12.421  13.566
45254W        W17569  23.716  37.685  14.475
45255W        W17570  43.603  41.535  10.820
45256W        W17571  29.589   5.623   4.028
45257W        W17572  18.631  19.249  12.216
45258W        W17573  12.300  16.331   1.374
45259W        W17574  26.705  28.956   0.846
45260W        W17575  15.124  15.289  10.869
45261W        W17576   5.831  22.026  12.202
45262W        W17577  27.631  16.080   0.014
45263W        W17578  19.690   2.649  12.924
45264W        W17579  23.433   5.405  14.794
45265W        W17580   8.158  17.813  14.379
45266W        W17581   1.261  37.828   1.297
45267W        W17582  29.156  34.904  11.564
45268W        W17583  26.328  32.591  10.436
45269W        W17584  30.761  28.027  11.232
45270W        W17585  44.341  16.233   1.257
45271W        W17586  41.319   0.207   4.597
45272W        W17587  42.907  25.684  12.622
45273W        W17588  36.782  26.449  11.885
45274W        W17589  24.071  18.985  11.960
45275W        W17590  13.602  15.278  10.405
45276W        W17591  24.035  28.403   2.407
45277W        W17592  29.378  27.569   1.320
45278W        W17593  13.617  12.497   1.958
45279W        W17594  17.292  29.988  13.830
45280W        W17595   6.292  37.084  14.936
45281W        W17596  10.764  43.583   0.268
45282W        W17597  35.102  19.973   4.034
45283W        W17598  37.512  42.422   2.252
45284W        W17599  42.591   9.906  14.350
45285W        W17600  28.953  29.489  10.911
45286W        W17601  36.366  41.349  13.012
45287W        W17602  20.483   7.861   4.648
45288W        W17603   9.233  39.452  14.497
45289W        W17604  40.557   4.137  14.884
45290W        W17605   6.551  36.107  13.498
45291W        W17606  26.266  35.621  12.191
45292W        W17607   8.532   5.667   1.351
45293W        W17608  23.737  13.083  10.647
45294W        W17609  42.964  20.143   4.102
45295W        W17610  18.848   4.980  11.920
45296W        W17611  17.669  15.596   2.029
45297W        W17612  41.422   5.748  10.662
45298W        W17613  16.744  27.060  12.800
45299W        W17614  29.670  34.487   0.209
45300W        W17615   3.795  22.332   0.034
45301W        W17616  26.761   3.451   1.389
45302W        W17617  14.717  42.301   3.993
45303W        W17618  17.015  16.708   3.891
45304W        W17619  26.176  18.976   4.568
45305W        W17620  37.525  16.785   3.710
45306W        W17621  30.524  25.261  12.510
45307W        W17622  12.423   7.081  10.874
45308W        W17623  25.945  11.551   3.639
45309W        W17624   4.289  14.607  13.521
45310W        W17625  10.732  13.576   1.342
45311W        W17626   6.459  38.484  12.104
45312W        W17627  14.594  40.429   3.850
45313W        W17628  31.153  21.054   1.987
45314W        W17629  30.632  39.922  13.059
45315W        W17630  21.738  39.327   3.137
45316W        W17631  39.930   9.737  13.969
45317W        W17632  10.714  16.241   5.075
45318W        W17633   4.335   7.676   4.820
45319W        W17634   5.556  20.338   0.258
45320W        W17635  30.226  35.542  14.098
45321W        W17636  20.585  11.198   2.706
45322W        W17637  25.987  23.428   1.552
45323W        W17638  28.596  13.916  13.003
45324W        W17639  33.389  35.597  14.848
45325W        W17640  37.988   1.782   3.659
45326W        W17641   6.847  37.004  14.819
45327W        W17642   2.705  12.245   1.959
45328W        W17643   4.450   3.884  14.967
45329W        W17644   9.867  10.328   4.037
45330W        W17645  41.550  24.485  11.920
45331W        W17646  36.902   1.988   1.800
45332W        W17647  26.618  21.382   1.699
45333W        W17648  19.829   1.365   0.389
45334W        W17649  21.806  41.065  10.834
45335W        W17650  24.547  29.186   2.285
45336W        W17651  29.702  19.336   3.109
45337W        W17652   1.780  35.475  13.934
45338W        W17653   7.930  31.974   4.610
45339W        W17654  41.619  20.648  13.513
45340W        W17655  36.805  11.076   3.715
45341W        W17656  40.327   6.956  12.690
45342W        W17657  40.736  39.446  10.701
45343W        W17658  39.552  25.730  14.301
45344W        W17659   2.014  26.516   0.314
45345W        W17660  18.220  21.230   1.673
45346W        W17661   5.734  24.902  14.859
45347W        W17662   9.902  23.012   2.889
45348W        W17663  11.544  33.038  11.710
45349W        W17664  32.399  24.033  10.929
45350W        W17665  11.673  17.926   5.053
45351W        W17666  37.441   5.089   4.226
45352W        W17667   2.763  28.367  13.460
45353W        W17668  19.215  23.289   2.705
45354W        W17669   7.659  29.946  13.282
45355W        W17670  27.707  38.948  11.840
45356W        W17671   2.511  11.265  13.016
45357W        W17672  42.035  29.234   1.709
45358W        W17673  34.562  13.309   2.762
45359W        W17674  10.141  16.330   1.303
45360W        W17675  35.555  29.431  10.972
45361W        W17676  34.943  44.010   0.005
45362W        W17677  19.421  13.069   0.550
45363W        W17678  11.346  31.868   4.549
45364W        W17679  17.110  41.177   1.440
45365W        W17680  41.032  41.260  11.120
45366W        W17681   2.195  29.611  13.417
45367W        W17682   3.206  37.859   3.874
45368W        W17683   1.871  24.504  13.365
45369W        W17684  16.506  41.217  10.802
45370W        W17685  26.974  23.769  12.481
45371W        W17686  17.307  41.333  12.559
45372W        W17687  26.698  35.866   3.751
45373W        W17688  19.735  12.068  14.542
45374W        W17689  21.505  15.770  13.515
45375W        W17690  36.633  34.678   0.937
45376W        W17691  20.819   6.627  11.056
45377W        W17692  19.612  30.523  13.102
45378W        W17693  32.039  32.160  13.412
45379W        W17694  37.519  38.386   4.168
45380W        W17695   5.842  11.144  13.765
45381W        W17696  22.008  27.605  11.657
45382W        W17697  33.852  21.878  12.804
45383W        W17698   3.538  28.395  11.956
45384W        W17699  33.864  37.940   4.133
45385W        W17700  24.416  16.093  13.429
45386W        W17701  17.253  38.428   0.687
45387W        W17702   8.103  35.604   4.549
45388W        W17703  12.649  40.422   0.381
45389W        W17704  24.523  24.801  12.170
45390W        W17705  42.514  16.805  14.846
45391W        W17706  10.723  14.867  14.577
45392W        W17707  20.473  23.029  14.240
45393W        W17708  13.306   7.318  14.519
45394W        W17709  27.482  35.276  14.015
45395W        W17710  15.754  24.048   1.926
45396W        W17711  38.840  25.593  12.236
45397W        W17712  29.157  21.776   3.133
45398W        W17713  41.831  41.355  14.590
45399W        W17714   7.346  23.850   5.077
45400W        W17715  40.476  12.352   2.348
45401W        W17716  17.684  15.840   3.264
45402W        W17717   4.646  16.112   2.560
45403W        W17718  29.522   8.406   4.641
45404W        W17719   1.235  25.993  14.292
45405W        W17720  20.193   6.134  11.996
45406W        W17721  20.146   2.244  14.493
45407W        W17722  13.622   4.261  14.747
45408W        W17723  35.441   5.286   3.243
45409W        W17724  20.470  29.951  14.386
45410W        W17725   0.938  13.329  12.834
45411W        W17726  34.387  23.003   3.839
45412W        W17727   4.716  28.437   4.509
45413W        W17728  31.570  34.807  10.498
45414W        W17729   3.392  43.467   1.812
45415W        W17730  40.211  20.598   1.849
45416W        W17731  39.530   7.437   1.891
45417W        W17732  29.329   0.445   4.417
45418W        W17733   6.337  28.502  12.836
45419W        W17734  20.319  18.174  13.598
45420W        W17735  16.585  32.910   3.803
45421W        W17736  28.110  21.370   4.582
45422W        W17737  44.860  43.853   1.019
45423W        W17738   5.218   8.103   3.266
45424W        W17739   8.690   8.735  13.525
45425W        W17740  13.949  29.389  14.920
45426W        W17741  16.177   5.511  10.703
45427W        W17742   9.821   4.657   4.074
45428W        W17743  29.002  35.145  11.143
45429W        W17744  11.788  19.026  10.961
45430W        W17745  33.517  23.273  13.865
45431W        W17746  12.384  18.469   5.086
45432W        W17747  20.086  10.264  14.084
45433W        W17748  36.451  17.442  13.903
45434W        W17749  36.517  37.947   4.168
45435W        W17750   9.886  25.699   3.050
45436W        W17751   3.746   4.452   2.696
45437W        W17752   7.787  38.558   2.154
45438W        W17753  22.260   9.338  13.447
45439W        W17754  40.528  17.431   4.019
45440W        W17755  12.185  34.640   3.784
45441W        W17756  32.445   2.360  12.005
45442W        W17757  18.331  33.079   3.297
45443W        W17758  43.733  17.544  11.596
45444W        W17759  38.978  36.595   2.507
45445W        W17760   8.736  35.894  10.902
45446W        W17761  18.771  43.603   2.837
45447W        W17762  12.696  37.162  14.840
45448W        W17763  36.561  12.626  13.485
45449W        W17764  37.824  14.689  13.437
45450W        W17765  20.085  41.010   9.945
45451W        W17766  12.291   8.297  11.888
45452W        W17767  27.748   5.770  13.570
45453W        W17768  40.817  38.347  11.629
45454W        W17769  33.903  33.054  11.149
45455W        W17770   9.681  37.445   1.737
45456W        W17771   3.462  24.691   3.278
45457W        W17772  19.647  39.874   3.643
45458W        W17773  21.013   7.887   2.736
45459W        W17774  16.240   5.628  14.413
45460W        W17775  30.708  36.080   2.041
45461W        W17776  32.437  16.332  13.875
45462W        W17777  15.321   1.068   3.765
45463W        W17778  39.244   4.180  12.900
45464W        W17779   0.578  19.934  11.525
45465W        W17780   8.794  15.389  12.958
45466W        W17781  17.549  40.055  12.552
45467W        W17782  28.084  12.072  12.313
45468W        W17783  32.401  18.715  13.810
45469W        W17784  15.619  12.656   3.653
45470W        W17785   4.344  15.893   4.151
45471W        W17786  10.823  39.257  12.217
45472W        W17787  29.209  42.183  10.903
45473W        W17788  41.243  18.654  12.399
45474W        W17789  24.144   4.216   1.780
45475W        W17790  25.195  24.204  13.106
45476W        W17791  34.888   0.692   2.635
45477W        W17792  36.777  35.641   1.810
45478W        W17793  10.255  28.890   0.356
45479W        W17794  41.811  34.702  14.223
45480W        W17795   0.866  25.235   4.125
45481W        W17796   7.703   3.394   2.569
45482W        W17797   0.983  34.877   0.260
45483W        W17798   3.000  31.365   1.799
45484W        W17799  26.362  31.977   5.060
45485W        W17800  31.036   5.293  11.578
45486W        W17801  41.810  40.698  13.000
45487W        W17802   4.490  36.643  14.454
45488W        W17803  30.655  36.589   3.218
45489W        W17804  40.367  24.007  11.095
45490W        W17805  14.619  28.058   3.265
45491W        W17806  35.648  40.368  12.728
45492W        W17807  24.277  17.063  12.857
45493W        W17808  31.921  12.409   2.620
45494W        W17809  10.814  44.929   4.355
45495W        W17810  25.109  36.962   4.351
45496W        W17811   9.236  14.043   3.286
45497W        W17812  34.465   1.720   0.927
45498W        W17813   3.778  10.797   3.810
45499W        W17814  24.943  25.853   3.822
45500W        W17815  41.101  27.110  12.324
45501W        W17816   8.622  37.466  14.789
45502W        W17817  15.816  38.923  11.788
45503W        W17818   6.540  18.230  10.137
45504W        W17819  25.149   3.353  10.517
45505W        W17820  11.710  33.488   5.108
45506W        W17821  19.306   5.357   3.240
45507W        W17822  40.214  26.010  10.032
45508W        W17823  37.291  12.871  12.432
45509W        W17824  13.551   5.260  13.402
45510W        W17825  33.872  27.025   3.133
45511W        W17826  31.082   0.804   0.823
45512W        W17827  32.665   0.966   3.792
45513W        W17828  35.972  11.189  11.001
45514W        W17829  19.560  36.887  11.506
45515W        W17830  37.727  35.365  12.505
45516W        W17831  33.893  40.022  13.459
45517W        W17832  10.233   2.349   3.215
45518W        W17833  37.212  20.743   2.155
45519W        W17834  19.480  36.956   4.590
45520W        W17835  36.480  12.807  12.079
45521W        W17836  22.049  16.679  11.562
45522W        W17837  10.622  23.611  14.425
45523W        W17838  14.176   9.972  10.644
45524W        W17839  19.008   6.360  12.019
45525W        W17840  10.469  34.062  13.439
45526W        W17841  40.506  26.848   3.181
45527W        W17842  14.134  34.339   1.444
45528W        W17843  15.671   6.304  14.235
45529W        W17844  11.218  25.597  11.547
45530W        W17845  34.844  30.123   0.431
45531W        W17846  17.764  17.246   4.262
45532W        W17847  23.541  39.651  13.318
45533W        W17848  28.043  27.731   0.897
45534W        W17849  16.010  32.972  11.536
45535W        W17850  36.990   8.394   1.904
45536W        W17851  22.790  38.913  14.047
45537W        W17852  34.549  39.842  11.349
45538W        W17853  36.023  42.775   2.189
45539W        W17854  16.896  28.162  12.144
45540W        W17855   4.963  23.732  13.505
45541W        W17856  29.075  12.337  14.964
45542W        W17857   2.592  14.729  12.871
45543W        W17858  10.143  32.435  11.265
45544W        W17859  20.158  12.090   2.149
45545W        W17860  41.964   0.761   4.183
45546W        W17861  19.743  37.257   3.625
45547W        W17862  12.795  29.136  11.577
45548W        W17863  37.863   0.640  12.145
45549W        W17864  28.140   9.389  12.993
45550W        W17865   2.528   6.307   0.880
45551W        W17866  16.903   9.342   1.571
45552W        W17867  17.822  37.367   3.191
45553W        W17868  24.337  28.082   0.868
45554W        W17869  34.612  12.742   0.706
45555W        W17870  32.555  10.573   1.003
45556W        W17871  24.108   4.994   0.511
45557W        W17872   2.698  35.852  12.391
45558W        W17873   0.261  21.704   0.388
45559W        W17874  44.413  11.593  14.207
45560W        W17875  34.654   7.195   0.719
45561W        W17876   5.851  17.732  14.929
45562W        W17877  17.030  19.202  11.865
45563W        W17878  33.925   6.208   4.071
45564W        W17879   2.677   1.176   3.539
45565W        W17880  32.571  44.262  10.590
45566W        W17881   2.193  14.870  14.758
45567W        W17882   9.367  31.655   1.835
45568W        W17883  43.517  22.944  12.334
45569W        W17884  32.431  42.063   1.856
45570W        W17885  19.351  20.097  13.877
45571W        W17886  40.186   9.276   4.896
45572W        W17887  39.134   3.720   3.684
45573W        W17888  24.169  36.373   2.477
45574W        W17889   9.752   4.375   4.541
45575W        W17890  36.322   5.326  10.618
45576W        W17891   2.534  11.370  12.086
45577W        W17892  22.697  42.295   4.333
45578W        W17893  17.617  31.604  13.519
45579W        W17894  38.566  12.243  13.674
45580W        W17895  34.599   6.964  13.619
45581W        W17896   3.451  21.696   3.241
45582W        W17897   0.445  36.048  14.541
45583W        W17898  11.896  20.131  13.761
45584W        W17899  22.881  36.273   3.489
45585W        W17900  23.615   9.090   2.927
45586W        W17901  29.752  32.268   4.519
45587W        W17902  28.181  18.615  12.774
45588W        W17903  19.300  34.891  13.958
45589W        W17904  39.806  38.855   2.895
45590W        W17905  31.721  30.638  10.663
45591W        W17906   9.370  23.363   1.212
45592W        W17907  25.184  27.423   4.428
45593W        W17908   8.074   9.733  10.629
45594W        W17909  21.216  40.303  10.669
45595W        W17910  12.613   4.303   2.105
45596W        W17911  42.267  32.861   3.260
45597W        W17912  33.734  10.916  14.380
45598W        W17913  37.184  25.832  13.552
45599W        W17914  30.328  39.858  12.097
45600W        W17915  41.941   9.461   2.620
45601W        W17916  42.933  36.041   2.111
45602W        W17917  10.746  22.161  10.563
45603W        W17918  21.080   2.858   4.872
45604W        W17919  11.496  27.852  13.244
45605W        W17920  15.710  24.633  14.074
45606W        W17921  37.863  25.240  13.088
45607W        W17922   2.761  27.494   2.493
45608W        W17923  35.646  25.895   2.239
45609W        W17924   2.892  11.201   1.242
45610W        W17925  16.364  40.024   3.679
45611W        W17926  32.998  23.216  14.330
45612W        W17927   4.622  14.195   1.531
45613W        W17928  31.187  34.480   4.551
45614W        W17929   7.888  35.043   2.762
45615W        W17930  43.775  12.303   5.035
45616W        W17931  26.209  40.049   0.306
45617W        W17932  22.259   7.603   2.352
45618W        W17933  43.040  26.577   4.111
45619W        W17934  39.252   8.385  13.938
45620W        W17935   6.268  25.020   3.700
45621W        W17936  29.759   0.718   3.202
45622W        W17937  41.561   2.961  11.016
45623W        W17938  12.196  44.758   4.484
45624W        W17939   0.842   4.470  14.576
45625W        W17940   9.365  36.811  12.835
45626W        W17941   3.422   1.195  14.850
45627W        W17942  31.224  31.516  13.984
45628W        W17943  30.209  28.494  14.991
45629W        W17944  33.180  14.140  11.039
45630W        W17945  34.106   6.316  14.268
45631W        W17946   4.405  17.821  14.861
45632W        W17947  18.708  20.070  11.604
45633W        W17948  35.918  34.025  11.424
45634W        W17949  20.125  19.567  11.919
45635W        W17950  39.326   2.861   4.571
45636W        W17951   4.676   7.173  12.928
45637W        W17952  37.951  27.236   1.679
45638W        W17953   4.895  36.959  14.363
45639W        W17954  12.199   8.866  14.923
45640W        W17955   4.446   9.253   1.837
45641W        W17956  12.186   4.953  11.639
45642W        W17957  37.476  20.534   1.741
45643W        W17958  40.129   5.174  13.756
45644W        W17959   5.372  30.206  10.644
45645W        W17960  43.897  22.626  12.242
45646W        W17961   8.265   9.762  12.524
45647W        W17962  37.532  35.864   4.166
45648W        W17963  15.895  43.636  14.770
45649W        W17964  11.329  20.731   4.153
45650W        W17965  42.578  21.505   2.299
45651W        W17966   2.866  25.963   4.239
45652W        W17967   3.863   4.540   0.793
45653W        W17968  32.472   6.451   4.571
45654W        W17969   5.776   3.296  14.259
45655W        W17970   2.902  12.576   1.618
45656W        W17971  32.415  13.305  12.434
45657W        W17972  43.169   8.192   3.152
45658W        W17973  29.227  18.176   2.836
45659W        W17974  31.027  37.151  11.854
45660W        W17975  33.138  13.849   4.422
45661W        W17976  18.122   9.852  14.986
45662W        W17977  34.373  21.004  12.565
45663W        W17978  19.561  40.355  14.085
45664W        W17979  42.044  41.062   4.603
45665W        W17980   1.958   8.746  14.185
45666W        W17981  36.507   3.429  13.934
45667W        W17982  39.840  34.537  11.865
45668W        W17983  44.418  17.850  10.591
45669W        W17984   4.346  29.973  14.835
45670W        W17985  26.303  36.853  13.494
45671W        W17986  13.886  37.414  13.255
45672W        W17987  11.848  16.191   3.358
45673W        W17988  18.558   5.465  14.224
45674W        W17989  39.296  25.558   1.011
45675W        W17990   3.122   2.377  14.469
45676W        W17991   1.997  37.337   2.761
45677W        W17992   6.394  32.119   3.088
45678W        W17993  19.086   7.753   5.698
45679W        W17994  31.089  18.100   2.073
45680W        W17995  13.817   8.382   1.409
45681W        W17996  25.446  13.782  13.977
45682W        W17997  44.238   6.638  14.902
45683W        W17998  39.583   6.946   1.747
45684W        W17999  41.587  21.901   1.298
45685W        W18000  26.769  13.051   0.194
45686W        W18001  42.818  23.437  10.722
45687W        W18002   5.394  14.695   4.242
45688W        W18003  16.328  27.708   2.388
45689W        W18004  41.708  38.380  13.329
45690W        W18005  11.397  12.675   3.412
45691W        W18006  35.468  42.110  11.080
45692W        W18007   3.903  29.108  13.876
45693W        W18008  32.054  34.450  13.909
45694W        W18009  37.925   9.733   2.220
45695W        W18010  16.777  31.072   9.770
45696W        W18011   3.749  35.435   1.441
45697W        W18012  36.039  31.392   4.069
45698W        W18013  14.761  21.396  14.107
45699W        W18014  25.617  34.194   1.503
45700W        W18015  25.488  26.925   2.399
45701W        W18016   1.296  11.432  14.596
45702W        W18017  29.564  11.835   0.225
45703W        W18018   1.494  11.662  10.459
45704W        W18019  28.392  36.118   1.472
45705W        W18020  39.831  18.722  13.353
45706W        W18021  15.404   4.655   4.998
45707W        W18022  40.472   9.335   4.024
45708W        W18023  42.729  33.109  11.546
45709W        W18024  31.520  17.795   3.200
45710W        W18025  11.363  17.293   2.251
45711W        W18026  15.050  15.765  14.976
45712W        W18027   5.112  34.577  11.086
45713W        W18028  14.332  16.043   4.612
45714W        W18029  10.836   4.350  12.991
45715W        W18030  11.898  25.698  14.890
45716W        W18031  23.943  44.219   2.484
45717W        W18032  25.344  19.234  12.497
45718W        W18033   6.423  25.635  11.221
45719W        W18034   1.006  23.580   0.319
45720W        W18035  29.942  15.610   4.467
45721W        W18036  26.622  34.254  14.836
45722W        W18037  23.185  34.432   1.238
45723W        W18038  44.299  36.781  10.658
45724W        W18039  11.070  23.543  13.393
45725W        W18040  41.937  12.676  13.118
45726W        W18041  41.063   9.795   1.390
45727W        W18042  40.011   1.023  14.083
45728W        W18043  18.043  37.833  11.571
45729W        W18044  19.621  22.724  14.325
45730W        W18045  23.484  34.558  11.553
45731W        W18046  19.547   9.807  11.083
45732W        W18047   9.168   5.305  13.811
45733W        W18048   9.232  36.728   3.500
45734W        W18049  15.330  16.677  10.586
45735W        W18050  44.255  42.435  10.757
45736W        W18051  26.553  41.302   3.633
45737W        W18052  29.923  35.971   1.425
45738W        W18053  31.547  18.800  12.399
45739W        W18054  23.245  44.364   4.840
45740W        W18055  12.666  38.788  11.991
45741W        W18056   3.396  31.436   2.840
45742W        W18057  23.865  29.820  10.880
45743W        W18058   6.795  20.476  12.361
45744W        W18059   3.700  39.665   1.579
45745W        W18060   9.239  37.304  12.908
45746W        W18061  33.048  33.419  12.566
45747W        W18062  30.505  40.175   0.297
45748W        W18063  33.330  35.812  12.950
45749W        W18064  23.724   7.238   4.523
45750W        W18065  44.344  34.753   2.709
45751W        W18066  31.605  19.635   2.737
45752W        W18067   8.669  11.116  13.014
45753W        W18068  28.119  30.225  14.795
45754W        W18069  27.351  33.850  13.905
45755W        W18070  12.112  30.041   3.125
45756W        W18071   8.908   5.448   3.144
45757W        W18072  38.977  26.922  11.617
45758W        W18073  24.110   4.363   4.080
45759W        W18074  11.169  35.838   2.875
45760W        W18075  37.159   5.875  13.613
45761W        W18076   2.859  38.978  13.425
45762W        W18077  20.658   6.899   1.297
45763W        W18078  37.853   4.448   1.740
45764W        W18079  11.857  30.702   1.967
45765W        W18080  26.686  26.902   0.787
45766W        W18081  34.578  36.583  11.990
45767W        W18082  11.866   6.310   3.327
45768W        W18083  18.355   6.447  14.464
45769W        W18084   3.651   7.959  13.466
45770W        W18085  42.812   6.383   0.031
45771W        W18086   3.785  30.643  12.049
45772W        W18087  18.242  16.755  13.973
45773W        W18088  29.133  10.232  12.035
45774W        W18089  13.194  24.156  10.987
45775W        W18090  19.745  21.136  11.206
45776W        W18091   6.763  37.870  12.076
45777W        W18092   8.813  43.942   4.563
45778W        W18093  20.171  28.928  11.727
45779W        W18094  33.398   5.239  14.053
45780W        W18095  17.528  37.544  12.540
45781W        W18096   5.899  16.951   0.387
45782W        W18097  28.046   1.436  11.432
45783W        W18098  26.738  28.631  13.755
45784W        W18099  16.796  10.293   3.307
45785W        W18100  37.939   3.780   2.405
45786W        W18101   5.578  15.201   1.768
45787W        W18102  36.130  10.539  12.118
45788W        W18103  30.900  42.340  12.419
45789W        W18104  31.348  37.824  12.347
45790W        W18105  34.876  30.120   4.163
45791W        W18106  14.742   5.669   4.012
45792W        W18107   3.260  12.387   3.292
45793W        W18108  12.866  23.191  12.036
45794W        W18109   3.247  11.550  11.651
45795W        W18110  35.163  20.716   4.656
45796W        W18111  12.350   0.833   2.657
45797W        W18112   0.329   2.542  14.521
45798W        W18113   4.529   6.662  13.079
45799W        W18114  37.040   9.154   1.478
45800W        W18115  31.778  27.612  10.713
45801W        W18116   0.720  12.757  14.905
45802W        W18117   4.519  40.346   0.902
45803W        W18118  34.981  29.020   3.130
45804W        W18119  27.698  13.230   2.106
45805W        W18120  34.280  29.978  13.561
45806W        W18121   0.899  26.397   4.748
45807W        W18122   3.816  39.026   0.054
45808W        W18123  37.517  31.035   5.001
45809W        W18124   6.653  41.900   3.230
45810W        W18125  38.445  18.281  11.683
45811W        W18126   1.821  10.061   4.633
45812W        W18127  36.116  23.000  11.210
45813W        W18128  14.549  42.754  11.051
45814W        W18129  34.024  19.532   4.549
45815W        W18130  19.644   3.879  12.522
45816W        W18131   3.932  12.126  12.933
45817W        W18132  13.185  16.717   3.306
45818W        W18133  24.302  18.630   2.934
45819W        W18134   1.284  36.401  11.038
45820W        W18135  25.261  40.570  13.392
45821W        W18136   2.260  31.243   0.418
45822W        W18137  38.810  39.497   1.847
45823W        W18138   6.815  19.606  13.422
45824W        W18139  34.443   8.969   4.865
45825W        W18140   0.230  33.953  12.471
45826W        W18141   0.313  38.047  11.045
45827W        W18142  34.381  11.901   0.331
45828W        W18143  17.105  13.233   3.257
45829W        W18144  18.831  33.753  11.199
45830W        W18145   0.717  36.916  12.406
45831W        W18146  25.997  30.815  11.352
45832W        W18147   9.634   5.399   4.546
45833W        W18148  23.920  41.988   3.215
45834W        W18149  17.638   0.737   2.852
45835W        W18150  26.443  36.470   0.725
45836W        W18151   7.925  16.046  11.436
45837W        W18152  40.869   7.967  12.511
45838W        W18153  28.424  27.092   3.728
45839W        W18154   5.490   2.925   1.824
45840W        W18155  14.766   9.886   2.228
45841W        W18156  27.148  38.338  11.006
45842W        W18157  27.183  11.899  14.794
45843W        W18158   9.752  17.192   2.273
45844W        W18159  17.731  21.487  10.636
45845W        W18160  28.935  11.776  13.007
45846W        W18161  43.976  43.464   3.653
45847W        W18162   3.563  34.445   0.464
45848W        W18163  27.593  32.982   4.763
45849W        W18164  18.065  34.643   4.237
45850W        W18165   5.758  28.219   0.382
45851W        W18166  33.032  24.142   4.099
45852W        W18167   4.980   8.154   1.762
45853W        W18168  36.597  14.924  10.995
45854W        W18169  15.574  42.760  14.505
45855W        W18170   3.013   7.399  13.832
45856W        W18171  44.348   0.484   2.695
45857W        W18172  41.846  22.265   0.351
45858W        W18173  11.702  15.604   2.226
45859W        W18174  24.151  40.842   1.380
45860W        W18175  30.147   4.338  14.538
45861W        W18176  44.513   3.752  12.375
45862W        W18177  39.875  18.828  13.865
45863W        W18178  10.258  26.029  11.523
45864W        W18179  42.031   8.984   5.082
45865W        W18180  29.559  11.893  11.493
45866W        W18181  30.441   1.389   0.390
45867W        W18182   2.757  16.722  10.835
45868W        W18183  23.561  24.193   3.757
45869W        W18184  25.281  23.007   1.796
45870W        W18185  33.649   0.479  12.448
45871W        W18186  12.263  13.831   3.344
45872W        W18187  39.112  18.151   4.908
45873W        W18188  19.591   5.864   2.079
45874W        W18189  37.087  15.713   0.748
45875W        W18190  40.857  30.496  13.050
45876W        W18191  29.712  25.937  10.589
45877W        W18192  10.007  15.794   2.740
45878W        W18193   6.968   7.797  10.663
45879W        W18194  22.529  18.761  10.359
45880W        W18195   7.774   2.846   3.771
45881W        W18196  25.479  43.068   4.340
45882W        W18197  18.833  32.129   4.677
45883W        W18198  32.417  38.446  14.035
45884W        W18199   2.557  11.038   4.564
45885W        W18200  19.845  40.811  11.170
45886W        W18201  18.655  41.370  12.798
45887W        W18202  34.075   1.759  14.807
45888W        W18203  13.149  32.528  13.773
45889W        W18204  17.013   6.372  11.085
45890W        W18205   1.495   4.946  13.028
45891W        W18206   5.174  15.546  11.554
45892W        W18207  35.396  37.384   1.818
45893W        W18208   5.968  44.774  14.799
45894W        W18209   3.615  30.487  13.892
45895W        W18210  20.329  41.713   0.674
45896W        W18211  16.337  19.174  14.381
45897W        W18212  20.882  38.824  11.082
45898W        W18213  37.284   5.000   3.700
45899W        W18214  23.545  34.579  13.825
45900W        W18215  21.680  10.470  11.965
45901W        W18216  25.967   6.203   3.672
45902W        W18217   9.402  23.187  13.394
45903W        W18218   8.745  17.255   3.283
45904W        W18219   5.015  36.395   3.602
45905W        W18220  44.723  30.848   4.565
45906W        W18221  11.228   2.004  10.978
45907W        W18222  27.654   7.473   3.200
45908W        W18223   5.419  18.875   1.199
45909W        W18224  42.539  12.168  14.041
45910W        W18225   4.365  32.093   3.636
45911W        W18226  10.066  16.856   1.406
45912W        W18227  11.818  26.146  10.628
45913W        W18228  30.387  19.068   3.766
45914W        W18229  43.898  28.050   2.773
45915W        W18230  37.497   5.146  11.013
45916W        W18231  34.102  43.986   0.404
45917W        W18232  19.194  32.037  13.940
45918W        W18233  22.165  30.073   2.327
45919W        W18234  20.170   9.666   0.257
45920W        W18235   8.705  17.150  10.344
45921W        W18236   8.268  30.150   4.443
45922W        W18237  10.679  22.469   1.808
45923W        W18238  21.757   7.450   1.432
45924W        W18239  31.439  29.716  12.469
45925W        W18240  36.692  37.417   2.713
45926W        W18241  12.337  13.925   0.781
45927W        W18242  23.195  14.777   3.739
45928W        W18243  28.174  24.676   0.411
45929W        W18244   9.597  39.807  13.882
45930W        W18245  17.566   9.706   1.355
45931W        W18246  17.542  14.071  13.891
45932W        W18247  44.513  29.598   4.227
45933W        W18248  38.954  36.092   0.760
45934W        W18249  25.282   5.184  12.059
45935W        W18250  38.154  26.150   2.187
45936W        W18251  14.300  20.065  12.296
45937W        W18252  19.080  26.706  11.139
45938W        W18253  15.706  37.959  14.865
45939W        W18254   6.717  34.270   4.279
45940W        W18255  13.036   9.289  13.995
45941W        W18256   0.182  23.746   4.355
45942W        W18257  30.300  38.554  14.310
45943W        W18258   5.425  34.674  14.426
45944W        W18259  21.032  16.462   4.659
45945W        W18260  38.019  31.369  10.611
45946W        W18261  11.316  26.366   3.120
45947W        W18262  20.662  17.326  10.697
45948W        W18263  20.037  35.350  12.584
45949W        W18264  21.958  28.654  12.817
45950W        W18265   0.512   9.665   3.364
45951W        W18266  23.303  33.692   4.060
45952W        W18267  34.510  21.215   4.154
45953W        W18268   7.747  42.834  11.208
45954W        W18269  22.185  19.728   4.144
45955W        W18270  31.166  35.528  13.732
45956W        W18271   6.629  42.432   0.486
45957W        W18272  24.987  30.411  13.290
45958W        W18273  17.862  12.559   1.288
45959W        W18274   6.257  39.159  10.206
45960W        W18275  21.126  38.600  11.889
45961W        W18276  30.444  12.385  14.369
45962W        W18277  33.328   2.279  11.157
45963W        W18278  44.247  10.704  11.970
45964W        W18279  44.910  43.295  13.580
45965W        W18280  31.128  41.812   2.905
45966W        W18281   0.524  11.804  10.387
45967W        W18282   7.219  39.394   3.788
45968W        W18283  17.836   0.350  11.965
45969W        W18284  40.655  18.848  11.759
45970W        W18285  14.170  23.229  14.896
45971W        W18286   2.059  31.942  10.483
45972W        W18287  39.858   5.494  13.456
45973W        W18288  24.688  24.463   0.380
45974W        W18289  28.088   1.937   0.465
45975W        W18290   4.536  32.136   3.150
45976W        W18291  20.353  13.596   0.902
45977W        W18292  30.924  12.305   4.115
45978W        W18293  18.667   3.224   3.760
45979W        W18294  31.952  13.082  12.482
45980W        W18295  26.946   8.273   3.204
45981W        W18296  29.035  39.079  11.134
45982W        W18297  22.430  35.527  13.072
45983W        W18298  12.829   8.399   2.251
45984W        W18299  33.895   3.505  12.017
45985W        W18300  15.660  34.617   2.442
45986W        W18301  23.052  35.439   2.364
45987W        W18302  26.505  27.906   2.275
45988W        W18303  19.163   2.742  11.191
45989W        W18304  17.139  43.237   3.624
45990W        W18305  15.536  18.687   1.285
45991W        W18306  22.640  38.969   0.039
45992W        W18307  43.888  31.627   1.105
45993W        W18308  22.499   6.686  12.499
45994W        W18309  43.435  11.326   3.632
45995W        W18310   4.667  41.813   4.136
45996W        W18311  36.568  16.073  11.537
45997W        W18312  30.107  26.500   3.158
45998W        W18313  16.063  35.640   0.475
45999W        W18314   3.983  32.645  14.469
46000W        W18315   1.882  27.502   4.233
46001W        W18316  20.635  27.655   0.979
46002W        W18317  37.833  28.013   0.938
46003W        W18318   0.796  38.737  10.752
46004W        W18319   0.185   9.168   1.680
46005W        W18320  12.076  24.569   3.628
46006W        W18321  37.836   8.361   1.764
46007W        W18322   6.284  10.708  12.549
46008W        W18323   4.732  34.546   3.566
46009W        W18324   5.384  20.175   1.705
46010W        W18325  26.401  13.615  12.374
46011W        W18326  23.162  43.316  13.160
46012W        W18327  33.866  18.003   0.025
46013W        W18328  39.381  30.859  12.505
46014W        W18329  34.092  17.096   0.088
46015W        W18330  41.279  39.529   4.090
46016W        W18331   8.259  35.878   3.440
46017W        W18332   6.387   8.867  10.658
46018W        W18333  20.422  23.117  12.351
46019W        W18334   3.812  15.262   0.102
46020W        W18335  13.362   8.181  12.782
46021W        W18336  19.984  15.802  13.513
46022W        W18337   8.184  33.021  10.516
46023W        W18338   3.976  16.791   4.547
46024W        W18339   3.337  30.383  12.048
46025W        W18340  42.017  15.753   4.400
46026W        W18341  23.192  38.077   1.193
46027W        W18342   6.975  30.843  11.685
46028W        W18343  12.232  33.166   3.838
46029W        W18344  15.713  17.376   0.405
46030W        W18345  36.328   2.271  12.526
46031W        W18346   8.115  28.602   4.132
46032W        W18347  28.210  33.657  12.356
46033W        W18348  44.068  18.194   5.045
46034W        W18349  29.563  33.449   0.736
46035W        W18350  27.005  26.463  11.167
46036W        W18351  36.495  41.420   0.340
46037W        W18352  33.859  32.480  12.111
46038W        W18353   4.839  16.695   4.190
46039W        W18354  39.431  30.801  11.548
46040W        W18355   5.277  14.407   4.639
46041W        W18356   0.216  24.235  11.125
46042W        W18357  31.584  35.417   1.309
46043W        W18358  13.603  13.571   2.669
46044W        W18359   0.301  28.690   4.918
46045W        W18360  23.562  42.525  11.533
46046W        W18361   4.293  40.995   1.368
46047W        W18362  13.606  28.121   0.453
46048W        W18363  35.343  18.389   4.167
46049W        W18364  14.643  43.847  12.510
46050W        W18365  19.857  43.935  13.968
46051W        W18366   0.611  23.943   3.616
46052W        W18367   6.743  30.403   3.926
46053W        W18368  17.057  24.041   4.721
46054W        W18369  17.487  27.176   1.300
46055W        W18370  20.429   8.900   1.883
46056W        W18371   5.977   8.716  14.413
46057W        W18372  26.769  14.549   0.249
46058W        W18373  17.794  21.774   1.450
46059W        W18374  36.549  43.973  10.464
46060W        W18375  17.622  14.370  12.010
46061W        W18376  10.614  24.931  13.918
46062W        W18377   2.775   3.936  14.906
46063W        W18378  15.827   7.968   3.504
46064W        W18379  15.321  41.665   4.180
46065W        W18380  30.736  32.157   1.709
46066W        W18381  30.501   3.345  12.718
46067W        W18382  16.496  42.843  14.586
46068W        W18383  20.062   1.004   1.463
46069W        W18384   2.408  35.998  13.341
46070W        W18385  40.067  15.846   0.244
46071W        W18386  22.020  12.070   1.040
46072W        W18387  21.204  11.738  10.417
46073W        W18388   7.388  21.160   1.889
46074W        W18389  35.396  35.637   1.448
46075W        W18390   6.818  34.147  13.030
46076W        W18391  40.331  14.879  14.480
46077W        W18392  12.727  36.631  11.178
46078W        W18393  43.001  27.712  13.087
46079W        W18394  31.837  37.108  13.680
46080W        W18395  26.948  39.248  12.543
46081W        W18396  36.418  27.082  11.315
46082W        W18397  26.005   5.990   2.103
46083W        W18398  19.293  26.480   5.035
46084W        W18399   3.273  10.265   0.387
46085W        W18400  37.995  35.850  14.009
46086W        W18401  22.913   7.759   3.711
46087W        W18402  21.315  15.134   2.727
46088W        W18403  11.588   3.428  14.491
46089W        W18404  39.671  40.985  14.274
46090W        W18405  28.182  32.426  10.280
46091W        W18406   6.430  24.260  13.548
46092W        W18407  26.263   5.476   1.337
46093W        W18408  43.825  24.603  13.555
46094W        W18409  14.134   5.931   3.217
46095W        W18410   4.188  34.469   0.696
46096W        W18411  33.066  36.960   2.716
46097W        W18412  10.593   0.010  12.440
46098W        W18413  44.029   2.910   2.354
46099W        W18414  16.638   7.178  11.162
46100W        W18415  42.805   0.211   1.310
46101W        W18416   0.265  27.418   4.560
46102W        W18417  24.671  24.995   0.388
46103W        W18418  38.783  32.517   0.958
46104W        W18419  23.725  31.974  14.288
46105W        W18420  30.128  16.127   0.326
46106W        W18421  20.547   0.822   1.272
46107W        W18422  18.105  31.889  14.494
46108W        W18423   4.210  44.137  13.080
46109W        W18424  12.717  39.897   2.769
46110W        W18425  27.428  22.931  11.662
46111W        W18426   9.135  44.539   3.073
46112W        W18427   7.425  18.645  13.530
46113W        W18428  13.541  13.937   3.604
46114W        W18429   9.366  39.103  11.639
46115W        W18430  31.359  17.063   3.667
46116W        W18431  20.819  15.655   3.928
46117W        W18432  38.751  22.726  11.468
46118W        W18433  31.916  12.916  14.916
46119W        W18434   6.345  24.437  14.452
46120W        W18435  40.606   2.672   0.914
46121W        W18436  26.658  39.946   3.796
46122W        W18437  43.605  11.959   4.195
46123W        W18438  38.411   4.400   4.540
46124W        W18439   2.327  44.854   2.219
46125W        W18440  35.801   9.691   1.738
46126W        W18441  27.913  41.010   0.768
46127W        W18442  19.592  10.359  12.813
46128W        W18443   4.129  21.252  12.208
46129W        W18444  24.087  19.079   4.652
46130W        W18445  29.574   9.181  10.382
46131W        W18446  10.788  35.241  11.005
46132W        W18447  35.074  17.344  12.523
46133W        W18448  30.275  26.661   4.580
46134W        W18449  26.203   4.718  13.897
46135W        W18450   2.741  20.805  14.695
46136W        W18451  34.113  34.979  14.261
46137W        W18452  25.332  43.943  14.936
46138W        W18453   8.851  43.244   4.116
46139W        W18454  25.367  38.414  11.470
46140W        W18455  18.061   9.809   1.479
46141W        W18456  21.011  11.826   2.725
46142W        W18457   6.342  16.261   1.279
46143W        W18458   4.910  13.128   0.422
46144W        W18459   7.706  28.646   0.001
46145W        W18460   3.147  42.325   0.018
46146W        W18461  35.154  20.667   2.192
46147W        W18462  15.331   6.939   1.749
46148W        W18463   2.662  27.580  11.349
46149W        W18464   7.298   5.194  12.017
46150W        W18465   9.642  37.401  10.814
46151W        W18466  22.481   9.328   3.231
46152W        W18467  26.148   1.965   4.839
46153W        W18468   6.645  26.429   2.801
46154W        W18469  17.619  37.810  13.028
46155W        W18470  40.878  12.043   3.692
46156W        W18471  40.102  40.038   0.026
46157W        W18472  27.409   8.525   3.232
46158W        W18473   4.278  44.565  12.014
46159W        W18474   0.839  28.071   0.306
46160W        W18475  10.817  32.344  12.624
46161W        W18476   1.768  30.093   2.432
46162W        W18477  24.125  10.728   4.935
46163W        W18478  17.567   6.333   1.656
46164W        W18479  29.215  35.498  13.806
46165W        W18480  15.264  37.955  11.953
46166W        W18481  42.677  16.320   4.700
46167W        W18482  29.819   2.280  11.102
46168W        W18483  39.664   5.671  11.111
46169W        W18484   0.999  20.221   3.607
46170W        W18485  11.578   2.732  11.511
46171W        W18486   7.992  12.221   1.304
46172W        W18487  39.757  15.592  11.446
46173W        W18488   9.909  13.876  12.906
46174W        W18489   4.262   7.543  14.106
46175W        W18490   3.383  23.267   4.550
46176W        W18491   9.894  14.591   4.222
46177W        W18492  25.091   6.817  11.029
46178W        W18493   5.391   7.593  10.717
46179W        W18494   2.233  12.737   3.212
46180W        W18495  40.481  36.826  14.898
46181W        W18496  34.223  19.741  12.179
46182W        W18497  28.432  21.720  11.886
46183W        W18498   1.530  33.582  14.969
46184W        W18499  30.657  29.151   1.532
46185W        W18500  43.559  10.933  13.043
46186W        W18501   6.776  21.851  12.148
46187W        W18502   5.386  29.921  11.986
46188W        W18503  36.953  15.210  12.043
46189W        W18504  27.460  14.293   0.160
46190W        W18505   3.683  33.658  11.065
46191W        W18506  28.568   9.309  11.695
46192W        W18507  18.619  33.195   2.881
46193W        W18508  37.260  13.024  12.958
46194W        W18509  41.830  43.551   4.521
46195W        W18510   7.800  32.145  11.977
46196W        W18511   6.474  26.617  11.200
46197W        W18512  24.738  26.474  12.585
46198W        W18513  39.659  41.315  13.865
46199W        W18514  25.911  14.001  13.101
46200W        W18515  26.492   8.863  10.660
46201W        W18516   0.081  18.534  11.167
46202W        W18517   8.861  15.553   2.627
46203W        W18518  33.363  44.976   2.626
46204W        W18519   3.428   5.899   1.819
46205W        W18520  29.736   7.415  13.708
46206W        W18521  42.435   9.853  10.741
46207W        W18522  44.934  12.043   0.895
46208W        W18523  18.419  41.584   0.757
46209W        W18524   3.506  33.873   4.143
46210W        W18525  23.274  25.034   0.727
46211W        W18526  40.513  15.170   2.891
46212W        W18527   7.800  12.781   1.545
46213W        W18528  22.586  42.064   0.393
46214W        W18529   5.242  41.891   3.113
46215W        W18530   9.866   6.928   0.791
46216W        W18531  17.232  30.521   4.895
46217W        W18532  42.260  14.128   2.266
46218W        W18533  21.129  15.606  13.877
46219W        W18534  44.538  31.470  12.055
46220W        W18535  28.269  12.917  10.219
46221W        W18536  24.529  38.078  11.566
46222W        W18537  40.954  11.766  13.088
46223W        W18538  33.390  25.085  13.442
46224W        W18539  40.023  24.963   3.294
46225W        W18540  38.777  35.996   0.249
46226W        W18541  28.076   6.844  14.055
46227W        W18542  19.781  34.845   0.306
46228W        W18543  15.194  23.387   2.203
46229W        W18544   7.294  26.547  12.525
46230W        W18545  15.742  18.774   0.408
46231W        W18546   2.488  19.553   1.759
46232W        W18547  39.121   5.856  13.551
46233W        W18548   6.301  32.895  14.720
46234W        W18549  21.917  15.152   3.510
46235W        W18550  34.366  15.394  11.653
46236W        W18551  34.084  37.170   2.224
46237W        W18552  34.874  44.197   2.643
46238W        W18553  24.551  42.161   2.033
46239W        W18554  32.030  28.904   1.207
46240W        W18555   0.783  28.180   3.072
46241W        W18556  13.722  21.521  13.845
46242W        W18557  40.883  34.086  12.592
46243W        W18558   6.413  16.476  14.959
46244W        W18559   5.085  16.852   3.217
46245W        W18560  34.120  19.061  13.852
46246W        W18561  41.905  12.632  10.507
46247W        W18562  44.933  36.895  11.054
46248W        W18563   5.112   2.161  12.068
46249W        W18564  36.576   1.941  10.281
46250W        W18565  44.135  29.012   1.386
46251W        W18566  33.877  18.591   1.922
46252W        W18567  19.035  40.480  14.174
46253W        W18568  27.904  24.496  10.661
46254W        W18569  42.347   7.927  11.168
46255W        W18570  11.240  38.252   4.293
46256W        W18571  20.964  36.014  10.291
46257W        W18572  27.026  41.738   4.742
46258W        W18573  35.330   2.029   4.624
46259W        W18574  18.446  28.044   1.423
46260W        W18575   0.566   2.779   4.797
46261W        W18576  10.573  15.371   4.729
46262W        W18577   9.695  34.153  14.037
46263W        W18578  32.833  38.073   4.009
46264W        W18579  17.047   1.574   4.070
46265W        W18580  28.569   2.894   3.758
46266W        W18581   0.429  24.028  11.935
46267W        W18582   2.828  22.583  10.587
46268W        W18583  18.616  27.777  10.693
46269W        W18584  29.492  22.245  13.655
46270W        W18585  10.705  17.589  12.916
46271W        W18586  26.197  29.068  11.645
46272W        W18587   6.915   9.677  12.835
46273W        W18588   2.679  14.247   2.630
46274W        W18589   8.609  43.877  13.418
46275W        W18590  23.921  20.298  10.675
46276W        W18591  34.177  26.631  12.206
46277W        W18592  23.691  35.306   3.669
46278W        W18593  11.154  41.011   3.523
46279W        W18594   9.200  39.590   0.971
46280W        W18595  17.588  33.995   4.070
46281W        W18596  28.909   8.871   0.376
46282W        W18597  29.179  16.994  11.141
46283W        W18598  39.894  19.476  14.473
46284W        W18599   5.309   0.151  11.234
46285W        W18600   0.912   3.667  12.037
46286W        W18601   0.546  17.991  12.964
46287W        W18602  13.810  26.872   1.243
46288W        W18603   2.461  13.073   0.287
46289W        W18604  26.075  27.071   2.877
46290W        W18605   5.809  18.031  13.389
46291W        W18606  27.467  11.527  11.929
46292W        W18607  38.114  40.371   1.307
46293W        W18608  34.929  35.159   3.572
46294W        W18609   3.391  27.546   3.167
46295W        W18610  28.983  35.408   3.684
46296W        W18611   0.404  28.407   0.294
46297W        W18612  19.286  11.184   4.162
46298W        W18613  41.851  28.408  10.790
46299W        W18614  44.806  25.662  10.890
46300W        W18615  11.238  40.767   1.707
46301W        W18616  21.202  16.151   0.325
46302W        W18617  14.244  26.147   1.374
46303W        W18618  18.637   3.739  10.658
46304W        W18619   2.828   0.434   2.815
46305W        W18620  44.288  21.525  14.409
46306W        W18621   0.802  43.643   1.467
46307W        W18622  44.723  35.527   4.553
46308W        W18623   6.301  25.731   3.413
46309W        W18624  14.171  14.750   3.334
46310W        W18625  10.104  32.574   0.929
46311W        W18626  26.957   0.017  14.270
46312W        W18627  42.410   3.788  12.771
46313W        W18628  18.114  37.504  11.952
46314W        W18629  18.484  34.012   4.632
46315W        W18630  18.879  38.649  14.942
46316W        W18631  30.989  36.559   4.491
46317W        W18632  31.446  44.741   2.772
46318W        W18633  39.465  27.403   3.233
46319W        W18634  30.463   6.959   0.862
46320W        W18635   1.939  39.276  12.154
46321W        W18636  43.980  14.771   0.591
46322W        W18637   9.168  16.983   3.188
46323W        W18638  42.491   8.268   4.469
46324W        W18639  12.585  15.735  13.558
46325W        W18640   0.694  25.136  13.855
46326W        W18641  31.885  26.319   9.782
46327W        W18642   8.205   8.140  11.502
46328W        W18643   8.926  23.154   1.318
46329W        W18644  35.534  19.714   0.786
46330W        W18645  18.611  19.256   4.427
46331W        W18646  30.634  41.765  14.332
46332W        W18647  24.053  25.774   4.145
46333W        W18648  18.803  15.280  12.194
46334W        W18649   9.828  17.735   0.452
46335W        W18650  43.958  25.114   3.212
46336W        W18651  15.782   1.719  13.243
46337W        W18652  30.487  41.103   1.488
46338W        W18653  13.332  34.639   4.675
46339W        W18654  43.893  29.890   1.183
46340W        W18655  17.850  44.900   0.249
46341W        W18656   1.862  24.535   2.078
46342W        W18657  14.512  16.672   3.163
46343W        W18658  34.341   6.449  12.437
46344W        W18659  17.183  22.968  10.702
46345W        W18660  32.864  11.901  14.378
46346W        W18661  31.535  18.991  13.790
46347W        W18662   7.751  39.056  13.232
46348W        W18663  26.168  17.895   4.602
46349W        W18664  31.819  44.827   3.622
46350W        W18665  23.314  14.380   4.040
46351W        W18666   9.889  19.089   0.818
46352W        W18667  20.561  13.102   3.799
46353W        W18668  18.651  11.575   2.356
46354W        W18669  44.531  18.755  14.928
46355W        W18670  27.722  15.597  14.862
46356W        W18671  16.801  40.552  10.303
46357W        W18672  12.042   8.668  14.471
46358W        W18673  44.772  36.041   0.916
46359W        W18674  33.013  31.876  14.787
46360W        W18675  35.422   0.803  10.949
46361W        W18676  14.694  42.877  14.552
46362W        W18677  43.063  14.481  14.753
46363W        W18678   1.913  26.309  14.849
46364W        W18679   5.750  32.422  11.267
46365W        W18680  23.048  39.519  13.445
46366W        W18681  13.081   1.921   4.869
46367W        W18682  21.271  16.614   1.229
46368W        W18683  36.009  14.614  12.954
46369W        W18684  18.031   6.223   4.942
46370W        W18685  17.026   6.694  14.436
46371W        W18686  43.833  28.033  10.711
46372W        W18687   7.357  13.690   4.093
46373W        W18688  30.888  17.198   4.568
46374W        W18689  22.219  11.593  10.604
46375W        W18690  16.784   0.768   2.904
46376W        W18691  12.406   9.313  13.456
46377W        W18692  32.522  28.641   3.704
46378W        W18693   0.462  11.821  11.406
46379W        W18694  43.887  21.221  10.390
46380W        W18695  37.929  10.405   1.619
46381W        W18696  14.248  25.613   4.673
46382W        W18697   4.363  20.216  11.207
46383W        W18698  25.204  38.881  11.589
46384W        W18699  23.595  17.318  10.716
46385W        W18700   1.809   1.706  12.848
46386W        W18701  10.401   3.382   4.341
46387W        W18702  28.581  15.559   4.400
46388W        W18703   7.046  13.599   3.369
46389W        W18704  19.648  22.005   3.203
46390W        W18705  18.079   5.457   3.106
46391W        W18706   5.779  41.991   2.354
46392W        W18707  30.492  15.851   1.261
46393W        W18708   8.332  22.070  14.870
46394W        W18709  29.195  20.580  11.743
46395W        W18710  36.862  36.861  12.290
46396W        W18711   0.034  41.942   1.914
46397W        W18712  25.735  15.729   1.175
46398W        W18713  38.718  14.102   0.024
46399W        W18714   6.993  24.462  11.005
46400W        W18715  40.151   4.427  14.802
46401W        W18716  43.066  38.330  11.565
46402W        W18717  36.357  37.417   2.304
46403W        W18718  25.190  41.785  11.803
46404W        W18719  37.859   5.858   4.587
46405W        W18720  31.917  17.629   0.408
46406W        W18721   2.886   8.127  14.605
46407W        W18722  42.182  39.946  13.277
46408W        W18723   6.977   6.764  14.463
46409W        W18724  24.619  21.678  10.402
46410W        W18725  32.791   7.725   4.400
46411W        W18726  44.486  25.649   0.388
46412W        W18727  34.432  28.128  11.271
46413W        W18728  25.246   4.693   1.839
46414W        W18729   8.899  18.798   1.844
46415W        W18730  10.671  42.371   2.258
46416W        W18731  13.730   2.019  11.276
46417W        W18732   2.623  31.482   4.617
46418W        W18733  31.308  34.061  12.683
46419W        W18734  11.252  41.267   1.804
46420W        W18735   1.012  35.950  11.150
46421W        W18736  34.443  42.502   1.225
46422W        W18737  37.472  18.673  13.011
46423W        W18738  41.559  23.726   4.205
46424W        W18739  15.373   4.360  12.999
46425W        W18740  12.064  40.298   2.715
46426W        W18741   9.380  15.501  13.974
46427W        W18742   3.223  44.653   5.144
46428W        W18743  11.758  29.616  13.492
46429W        W18744   5.456   2.384   1.758
46430W        W18745  39.956  43.522  14.723
46431W        W18746  37.217   3.401  13.591
46432W        W18747  14.760  15.095  13.098
46433W        W18748  26.870  43.962  11.471
46434W        W18749   5.314  29.839   3.647
46435W        W18750  12.199   6.730   3.954
46436W        W18751   0.311  10.968   3.240
46437W        W18752  23.773  13.132   2.716
46438W        W18753  33.676  34.629  14.384
46439W        W18754  26.432  21.718   1.156
46440W        W18755   6.194  28.109   3.323
46441W        W18756   0.506  15.925  13.910
46442W        W18757  22.468   6.950   0.968
46443W        W18758  40.379  29.383   4.420
46444W        W18759  22.520  13.238  14.912
46445W        W18760  44.356  38.851  11.924
46446W        W18761  11.534  32.923   3.270
46447W        W18762  12.645  31.573   1.050
46448W        W18763  37.417  41.794   0.509
46449W        W18764  13.583  29.470  12.952
46450W        W18765  39.917  31.392   1.029
46451W        W18766  40.782  16.295   2.262
46452W        W18767  17.246  13.703  12.979
46453W        W18768  40.814  16.758  13.358
46454W        W18769  32.141  32.141  11.132
46455W        W18770  40.496   7.768  12.173
46456W        W18771  32.348  18.931  12.929
46457W        W18772  17.861  10.700   0.261
46458W        W18773  19.401  36.846  11.994
46459W        W18774  42.938  13.605  10.626
46460W        W18775  31.999  16.793   1.384
46461W        W18776  19.250   6.787  14.063
46462W        W18777  27.843   3.307   9.807
46463W        W18778  13.417  29.141   0.365
46464W        W18779  19.250   7.450  10.217
46465W        W18780  14.244  30.738   1.314
46466W        W18781  31.136  14.064  12.515
46467W        W18782   2.746  43.527   2.868
46468W        W18783  27.727  32.179  10.203
46469W        W18784  43.524   3.141  11.590
46470W        W18785   1.103  27.958  11.654
46471W        W18786   0.880   0.008  10.572
46472W        W18787  39.313  19.248   4.961
46473W        W18788  18.119  33.875  12.859
46474W        W18789  12.566  29.212  11.139
46475W        W18790  20.423  30.732   4.126
46476W        W18791   6.140   7.880   2.345
46477W        W18792  16.138   8.683   3.151
46478W        W18793  22.685  31.392   1.220
46479W        W18794   3.389  31.334   3.971
46480W        W18795   4.068  38.873  11.164
46481W        W18796  20.060  12.390   3.203
46482W        W18797  23.155  24.759   3.174
46483W        W18798  29.945  31.904   0.936
46484W        W18799  29.000  19.755  10.764
46485W        W18800  32.146  16.093  12.054
46486W        W18801  28.135  16.453  10.597
46487W        W18802  21.213   9.308  14.797
46488W        W18803  38.394  11.223   0.256
46489W        W18804  21.512   8.925  12.032
46490W        W18805  21.758  10.313  13.841
46491W        W18806  28.009  35.437  14.269
46492W        W18807  18.029   9.039   3.464
46493W        W18808  10.744  11.388   4.123
46494W        W18809  44.458  31.505   3.861
46495W        W18810  28.841  27.081   2.265
46496W        W18811  34.712  19.753  13.043
46497W        W18812   1.933  18.994   0.239
46498W        W18813  39.608   4.827   0.449
46499W        W18814   3.503   9.719   2.823
46500W        W18815  32.962  13.952   3.220
46501W        W18816  14.106  17.886   1.489
46502W        W18817  39.993  36.497  14.943
46503W        W18818  29.135  15.414  11.976
46504W        W18819  34.100   8.706   0.781
46505W        W18820  37.488  12.690  14.029
46506W        W18821   0.260  14.005  10.638
46507W        W18822  41.071  36.343  12.130
46508W        W18823  13.589  44.329  13.827
46509W        W18824   4.466  21.945  11.065
46510W        W18825  34.516  21.468   4.606
46511W        W18826  35.539  32.509   3.595
46512W        W18827  34.680  13.253   0.766
46513W        W18828  14.676  30.405   4.567
46514W        W18829  11.768   1.317  10.399
46515W        W18830  13.945  23.177  14.253
46516W        W18831  26.888  37.834   2.791
46517W        W18832   5.469   1.966   0.949
46518W        W18833  33.558  42.264  11.112
46519W        W18834  21.649  35.140   1.972
46520W        W18835   1.895  34.924  13.041
46521W        W18836   4.864  19.301   4.369
46522W        W18837  12.349  29.837  14.892
46523W        W18838  15.838   6.365   3.648
46524W        W18839  26.093  41.613   2.287
46525W        W18840  14.689  14.775   2.605
46526W        W18841  29.960  42.494   2.863
46527W        W18842  12.104   1.673   1.425
46528W        W18843  29.052  18.577  14.825
46529W        W18844  44.705  26.882  14.911
46530W        W18845   5.375  40.533   3.447
46531W        W18846  35.007  10.177   4.631
46532W        W18847  43.070  39.931  10.246
46533W        W18848  42.824  17.648   0.212
46534W        W18849  12.394  28.009   1.971
46535W        W18850  37.501   1.680  10.294
46536W        W18851  30.623  36.843   2.751
46537W        W18852  21.695  32.525  14.574
46538W        W18853  29.786  15.238   2.690
46539W        W18854  23.208  19.216  14.047
46540W        W18855  17.127  40.913   0.901
46541W        W18856  24.287  38.658  14.309
46542W        W18857  20.047  10.406  14.595
46543W        W18858  27.475  20.037  11.466
46544W        W18859  35.464   9.609  13.521
46545W        W18860  20.799  33.202   1.326
46546W        W18861  38.540  21.772  12.232
46547W        W18862  26.189  33.965  10.880
46548W        W18863  22.048   2.680   2.752
46549W        W18864  24.279   1.491  11.129
46550W        W18865  26.507  14.697   2.478
46551W        W18866  24.240  36.605   3.621
46552W        W18867  35.403   1.755   0.549
46553W        W18868  11.812  18.580  11.202
46554W        W18869  20.551  32.022   4.670
46555W        W18870  37.242  38.670  14.471
46556W        W18871  36.518  27.674   3.301
46557W        W18872  36.833  21.503   3.739
46558W        W18873  32.638  29.005  11.626
46559W        W18874  26.553  25.471  13.422
46560W        W18875  44.923   4.448  14.428
46561W        W18876  13.578  12.086  10.907
46562W        W18877  20.260  42.491  13.295
46563W        W18878  33.392   0.181   0.281
46564W        W18879  27.413  33.051  13.361
46565W        W18880  17.535   8.250  14.747
46566W        W18881  33.154  35.459  12.088
46567W        W18882   6.670  20.284  14.530
46568W        W18883   7.781   9.460   2.312
46569W        W18884  14.210  15.322   0.453
46570W        W18885  10.905   4.898   3.150
46571W        W18886  12.234  12.769  13.587
46572W        W18887  19.051   7.855   5.189
46573W        W18888  38.828   4.628  11.553
46574W        W18889  19.013  14.597  13.216
46575W        W18890   8.280  27.926  12.720
46576W        W18891  31.179   8.408   1.753
46577W        W18892  37.492  22.267   9.638
46578W        W18893   6.724  27.242   3.078
46579W        W18894  24.493  23.866  11.034
46580W        W18895  17.061  28.561  13.059
46581W        W18896  35.494  39.848  10.948
46582W        W18897  26.550  34.648   4.247
46583W        W18898  40.204  17.398   3.339
46584W        W18899  22.157  25.903   0.664
46585W        W18900  44.198  44.522   4.966
46586W        W18901  22.161   2.105   1.826
46587W        W18902  39.609  41.992   3.648
46588W        W18903  20.061  27.453  14.559
46589W        W18904   1.351  23.054  14.738
46590W        W18905  17.544  21.114   2.180
46591W        W18906   2.866  21.149  14.341
46592W        W18907  29.489  14.048   4.247
46593W        W18908  20.659  20.209   3.374
46594W        W18909  10.706   0.950  14.282
46595W        W18910  21.235  12.641  13.836
46596W        W18911  12.156  23.032   0.817
46597W        W18912  20.677  30.182  12.640
46598W        W18913  31.837  30.821   4.220
46599W        W18914   3.295  27.722   4.480
46600W        W18915  34.668  31.612  12.855
46601W        W18916   0.748   9.236   0.017
46602W        W18917  38.369  11.453  14.774
46603W        W18918   9.132  16.360  10.518
46604W        W18919  27.708  37.112   2.372
46605W        W18920  39.575  41.920  14.491
46606W        W18921  31.892  12.218  14.346
46607W        W18922   1.723   4.033  14.285
46608W        W18923  12.842   9.176   2.780
46609W        W18924  42.040   7.688  12.027
46610W        W18925  41.923  40.847  11.194
46611W        W18926  42.960  30.580  14.924
46612W        W18927   5.394   3.294  11.341
46613W        W18928   6.922   8.785  12.780
46614W        W18929  40.534  32.947   0.815
46615W        W18930  27.518   6.581   1.545
46616W        W18931  12.609  14.155  11.890
46617W        W18932  27.754  26.748   4.949
46618W        W18933  16.706  22.008   3.640
46619W        W18934  34.107   1.331  13.562
46620W        W18935  19.142  15.747  12.159
46621W        W18936  37.007  19.563  11.462
46622W        W18937  23.256   8.855   2.512
46623W        W18938  36.879  40.905   0.046
46624W        W18939  34.172  20.230   4.143
46625W        W18940   7.359  34.900  12.955
46626W        W18941  19.998   4.404  11.214
46627W        W18942  29.235  44.321  11.916
46628W        W18943  25.510   5.790  12.788
46629W        W18944  31.366  17.715  11.468
46630W        W18945  26.733   1.531   0.953
46631W        W18946  17.856  16.215  13.882
46632W        W18947  11.736   0.291  10.461
46633W        W18948  35.424  26.432  14.554
46634W        W18949  15.540  27.627  10.594
46635W        W18950  38.801   1.344  12.024
46636W        W18951  10.190   8.102   2.255
46637W        W18952   5.204  10.301   3.874
46638W        W18953  18.831  28.567  11.134
46639W        W18954  34.624  17.069   0.856
46640W        W18955   7.545   2.758   1.329
46641W        W18956  44.030  26.506  13.477
46642W        W18957  29.983   8.326   2.420
46643W        W18958  13.160  18.740   4.065
46644W        W18959  29.079   7.116   0.398
46645W        W18960  30.152   1.208  14.984
46646W        W18961  44.743  43.009  12.012
46647W        W18962   1.199  41.362  12.954
46648W        W18963   6.624  42.301   1.002
46649W        W18964  32.191  10.227  10.518
46650W        W18965  34.123  43.018   2.281
46651W        W18966  38.451   9.153  14.299
46652W        W18967   5.454  23.579  13.440
46653W        W18968   7.182  36.917  13.588
46654W        W18969   7.633  28.270   1.460
46655W        W18970  18.150   4.900   3.632
46656W        W18971  38.118  23.215   2.765
46657W        W18972  31.180  37.052   0.101
46658W        W18973  36.969   3.866  10.686
46659W        W18974  19.847  36.554  12.023
46660W        W18975  16.033  13.177   1.407
46661W        W18976  35.635  14.239  11.632
46662W        W18977  19.515  24.586   0.371
46663W        W18978  18.169  20.197   1.822
46664W        W18979  33.529   8.175  13.029
46665W        W18980   3.360   0.798  13.011
46666W        W18981   4.515   7.889   0.961
46667W        W18982  21.149   2.515  10.793
46668W        W18983  14.550  23.653   4.202
46669W        W18984   2.911  17.221   1.136
46670W        W18985  18.628   3.271   1.220
46671W        W18986  15.910  33.977   4.555
46672W        W18987  22.765  40.509   1.182
46673W        W18988  19.111  44.491  11.203
46674W        W18989  34.948   7.360  12.975
46675W        W18990  21.331  24.631   3.346
46676W        W18991   9.072  14.430  11.588
46677W        W18992  13.996  15.610   0.910
46678W        W18993  22.120   2.812   1.290
46679W        W18994  36.517  39.905   2.175
46680W        W18995  19.506  32.411  14.868
46681W        W18996  32.450  10.159   0.677
46682W        W18997  12.627   9.644   3.182
46683W        W18998  37.801  37.403  10.032
46684W        W18999  12.358  35.160   4.839
46685W        W19000   0.217  15.085  14.872
46686W        W19001  31.493  17.071  14.799
46687W        W19002  34.816  18.359   4.902
46688W        W19003  28.122  19.613   0.747
46689W        W19004  29.515   2.460  12.508
46690W        W19005  20.904  33.913  12.133
46691W        W19006  38.416   9.885  14.923
46692W        W19007   6.562  10.373   4.448
46693W        W19008   2.042  44.697  10.966
46694W        W19009  28.738  10.937  13.579
46695W        W19010  42.404   3.841   4.367
46696W        W19011  18.846  41.951  12.024
46697W        W19012  39.553   1.188  13.394
46698W        W19013  41.882   4.437   4.471
46699W        W19014  37.528  33.420   2.342
46700W        W19015  33.208   0.777   2.008
46701W        W19016  13.869   5.319   4.213
46702W        W19017  22.759   9.258   0.238
46703W        W19018   1.734   4.917   2.326
46704W        W19019  31.465  13.098   2.180
46705W        W19020  21.975   1.262   2.224
46706W        W19021  13.104  15.089   4.218
46707W        W19022   0.670  29.714  10.716
46708W        W19023   3.326   5.949   4.178
46709W        W19024  27.662   4.685  11.177
46710W        W19025  37.147  24.253  14.855
46711W        W19026  12.832  44.967  11.689
46712W        W19027  44.811  44.762   3.133
46713W        W19028   0.222  43.806   1.896
46714W        W19029  25.448  35.587   3.148
46715W        W19030  28.742  21.229   1.257
46716W        W19031   6.763  13.141   3.237
46717W        W19032  16.791   8.626   5.009
46718W        W19033  36.390  21.237   3.917
46719W        W19034  19.154  28.491  11.525
46720W        W19035  34.226  33.137  12.860
46721W        W19036  28.929   6.723  10.665
46722W        W19037  37.586  27.717   0.516
46723W        W19038  21.821  34.889  14.051
46724W        W19039   9.279  24.384   1.232
46725W        W19040  29.943  18.101  14.041
46726W        W19041  32.342  44.274  14.274
46727W        W19042   9.573  18.507  13.910
46728W        W19043  17.686   8.373   1.888
46729W        W19044  16.288  42.538   1.343
46730W        W19045  11.799   8.175   2.313
46731W        W19046   6.616  15.828   4.452
46732W        W19047   5.787  34.046   1.446
46733W        W19048  27.970  10.660   0.588
46734W        W19049  19.931  29.509  14.971
46735W        W19050  24.434  17.183   1.857
46736W        W19051  41.801   1.849   9.866
46737W        W19052   8.160  33.954  13.144
46738W        W19053  19.704   0.035   4.698
46739W        W19054  39.850   0.006  14.830
46740W        W19055  13.598  43.796   4.421
46741W        W19056  40.600  33.490   4.007
46742W        W19057   5.251  23.684   2.816
46743W        W19058  38.623  31.967  11.998
46744W        W19059   6.693  40.260   1.410
46745W        W19060   9.857   1.182   2.916
46746W        W19061  40.993  23.977   2.217
46747W        W19062  36.033  35.343   0.292
46748W        W19063   7.320   1.512   3.606
46749W        W19064  38.892  14.715  13.554
46750W        W19065  30.337  44.804   0.201
46751W        W19066  19.849  11.099   2.313
46752W        W19067   9.920  33.930  14.438
46753W        W19068   9.401  16.781  10.598
46754W        W19069  26.137  38.088   2.254
46755W        W19070  26.726  37.801  13.479
46756W        W19071  15.238  23.552   4.787
46757W        W19072  11.230   7.848   2.900
46758W        W19073  40.904  32.648   3.852
46759W        W19074  19.746   1.906   2.860
46760W        W19075   1.446   2.839   0.827
46761W        W19076  29.046   4.789  10.696
46762W        W19077   8.218  20.424   4.075
46763W        W19078  17.804  21.753  13.945
46764W        W19079   7.571  35.383   0.912
46765W        W19080  14.550   0.345   0.464
46766W        W19081  42.966  43.764   1.268
46767W        W19082  19.596  26.658  11.622
46768W        W19083   0.251  11.520  13.643
46769W        W19084  29.605  32.596  11.161
46770W        W19085  35.010   2.001   0.812
46771W        W19086  30.466  31.684  13.368
46772W        W19087  11.968  17.745   4.664
46773W        W19088  12.517  32.249   3.302
46774W        W19089  12.463  41.346   4.603
46775W        W19090   0.827  41.812  11.181
46776W        W19091  34.384  41.524   1.165
46777W        W19092  14.760  31.525   4.676
46778W        W19093  35.279  32.499   4.053
46779W        W19094  28.523  34.330   3.861
46780W        W19095  13.826  34.374  12.957
46781W        W19096  43.065  33.619  12.535
46782W        W19097  28.029  13.648   3.116
46783W        W19098  44.422  24.113  13.961
46784W        W19099  32.073  38.006   1.249
46785W        W19100  20.128  23.232  10.586
46786W        W19101  23.994   6.312  13.463
46787W        W19102  30.025  30.388  12.510
46788W        W19103  43.585  25.726  14.225
46789W        W19104  35.444   3.923  14.434
46790W        W19105  19.800  31.616  12.380
46791W        W19106  30.464  18.151  10.757
46792W        W19107  32.463  31.611   3.011
46793W        W19108  21.234  19.141   0.484
46794W        W19109  35.453  27.379  11.020
46795W        W19110  28.181  36.391   2.773
46796W        W19111  30.597   1.296   2.745
46797W        W19112  17.039  37.239   3.710
46798W        W19113  33.032  34.593  11.854
46799W        W19114  20.878  17.495   4.595
46800W        W19115   0.915  42.415   0.862
46801W        W19116  39.550  30.835   1.816
46802W        W19117   7.798  16.661  10.764
46803W        W19118  42.180   5.239   2.945
46804W        W19119   8.030  39.872   1.260
46805W        W19120  15.345  14.461   0.021
46806W        W19121   2.437   8.802   2.293
46807W        W19122  30.305  11.095  14.440
46808W        W19123  28.163   1.590  12.145
46809W        W19124   5.750  23.771  13.990
46810W        W19125   2.345   8.749   0.991
46811W        W19126  10.109  43.511   1.240
46812W        W19127  39.073   7.493  13.047
46813W        W19128  10.715   7.651   2.634
46814W        W19129  35.863  25.749   1.141
46815W        W19130   8.247  26.562   3.847
46816W        W19131  39.710  42.691   3.243
46817W        W19132   6.629  31.826   4.642
46818W        W19133  27.058  22.438  13.115
46819W        W19134   9.211  37.324   4.818
46820W        W19135  25.566  22.744   3.709
46821W        W19136  13.839  15.495   1.834
46822W        W19137  26.147  14.706   1.134
46823W        W19138   5.279  38.762   0.077
46824W        W19139  24.593  23.394   1.200
46825W        W19140  36.577   1.477  12.941
46826W        W19141  20.950   5.587   2.203
46827W        W19142   6.326  26.628   1.936
46828W        W19143  10.638  20.410  13.755
46829W        W19144  18.141  20.236  11.364
46830W        W19145  17.643  38.826  12.923
46831W        W19146  18.866   3.950  11.142
46832W        W19147  11.336  44.245   1.850
46833W        W19148  21.575   1.110  11.660
46834W        W19149  21.601  18.256   3.193
46835W        W19150  22.023  43.561   1.544
46836W        W19151   9.643  18.024   4.391
46837W        W19152  16.309  36.130  13.409
46838W        W19153  17.594  13.314  12.820
46839W        W19154  32.478  16.669  12.982
46840W        W19155   4.525  16.707   1.525
46841W        W19156  32.140  36.587  11.007
46842W        W19157  30.653  40.517   3.567
46843W        W19158   9.119  25.976   0.373
46844W        W19159  12.772  11.407   1.246
46845W        W19160  32.660  21.071  10.717
46846W        W19161  31.224  23.800  14.277
46847W        W19162   7.177  14.899  11.378
46848W        W19163  31.909  32.624  11.075
46849W        W19164  28.974  40.781   2.721
46850W        W19165   4.790  39.530   3.695
46851W        W19166  17.744  28.704  10.058
46852W        W19167  26.477   6.720   2.427
46853W        W19168  13.857  39.031   0.512
46854W        W19169  26.471  22.073  10.673
46855W        W19170  24.081  25.777   0.456
46856W        W19171  27.951   9.927   2.500
46857W        W19172  26.080  29.374  13.508
46858W        W19173  19.505  33.097   4.222
46859W        W19174  44.545  26.635  13.513
46860W        W19175  39.562  19.272  12.712
46861W        W19176  16.552  37.537  12.475
46862W        W19177  28.485  27.505  13.981
46863W        W19178  13.820   8.086   3.315
46864W        W19179   8.460   4.241  10.528
46865W        W19180  29.981   7.260   0.934
46866W        W19181  40.516  38.942  12.469
46867W        W19182   5.834   9.218  11.005
46868W        W19183  11.112  18.199   4.658
46869W        W19184   7.951  15.764  10.712
46870W        W19185   3.534  28.502  12.879
46871W        W19186  17.724  34.126   0.277
46872W        W19187  40.725  38.452  12.942
46873W        W19188   7.850  14.345  12.030
46874W        W19189   7.854  27.229  14.343
46875W        W19190  39.532  14.133   3.846
46876W        W19191  25.477  19.579  13.980
46877W        W19192  43.726  29.233   4.082
46878W        W19193  19.968  11.715   4.672
46879W        W19194  30.389  44.769   4.475
46880W        W19195  35.306  36.708  13.947
46881W        W19196  24.947  33.335  10.985
46882W        W19197   6.689  37.727   2.539
46883W        W19198   3.804  44.523  12.255
46884W        W19199  37.926  31.660  12.336
46885W        W19200  21.014  14.816   1.249
46886W        W19201   1.978   8.739  12.636
46887W        W19202  18.453  37.095  11.882
46888W        W19203  43.886  21.469   4.047
46889W        W19204  38.519  31.453   3.933
46890W        W19205  40.438   3.162   0.839
46891W        W19206  17.514  26.642  11.835
46892W        W19207  33.966  20.600  11.688
46893W        W19208  42.994  32.851   2.778
46894W        W19209  34.147  13.680  12.483
46895W        W19210   4.420  25.958   4.574
46896W        W19211   0.868  11.851   1.449
46897W        W19212  34.491   4.500   2.730
46898W        W19213  26.783   9.457  12.912
46899W        W19214  20.828  26.964  13.910
46900W        W19215   2.220  40.207   3.832
46901W        W19216  33.513  36.671  11.382
46902W        W19217  27.919   9.109  10.566
46903W        W19218  25.501   0.111   2.265
46904W        W19219  19.036  30.998  12.058
46905W        W19220  40.410  33.899  11.466
46906W        W19221   9.524   7.345  11.522
46907W        W19222  14.691  33.397  10.782
46908W        W19223  33.057   8.447  12.365
46909W        W19224  29.753  16.763  14.526
46910W        W19225  17.895   5.076  11.534
46911W        W19226   4.680  24.586  13.550
46912W        W19227  17.580   8.211   4.496
46913W        W19228  32.010  41.133   3.587
46914W        W19229   3.782  36.586   0.256
46915W        W19230  30.712  31.534  14.067
46916W        W19231  18.218  13.378   2.218
46917W        W19232  28.277  41.489  14.321
46918W        W19233   0.767  13.684  10.959
46919W        W19234  38.622   0.869  10.820
46920W        W19235  16.597  14.741  13.535
46921W        W19236  19.545  44.844  14.500
46922W        W19237  42.246  26.648  12.318
46923W        W19238  33.856  18.554  14.954
46924W        W19239  16.682   3.685  10.868
46925W        W19240  19.629   3.815   2.826
46926W        W19241  37.905  37.228   0.440
46927W        W19242   0.215   2.433   1.265
46928W        W19243  44.854  32.523  12.537
46929W        W19244  14.209  29.897   1.749
46930W        W19245  41.860   6.260  13.371
46931W        W19246  42.978  19.375  10.782
46932W        W19247   2.587  22.433  13.880
46933W        W19248  18.477  15.706  13.502
46934W        W19249  43.062  40.481  12.748
46935W        W19250  35.905  25.058   1.837
46936W        W19251  13.828  38.318  13.338
46937W        W19252   5.295  22.478   2.643
46938W        W19253   5.132  39.985  13.071
46939W        W19254   9.413  17.557   4.336
46940W        W19255  12.288  30.134   2.653
46941W        W19256  38.268   5.712  13.859
46942W        W19257  21.332  15.841  14.888
46943W        W19258  26.844   7.193  11.378
46944W        W19259  15.581  14.913   4.128
46945W        W19260   2.806   6.347   3.459
46946W        W19261  42.292   6.921   4.203
46947W        W19262  19.746   0.108  10.712
46948W        W19263  26.120  42.831   3.675
46949W        W19264  37.378  20.784   2.646
46950W        W19265   4.827  32.192   4.787
46951W        W19266   7.814  41.650   2.704
46952W        W19267  31.404  35.970  13.562
46953W        W19268  16.511  31.439   1.320
46954W        W19269  38.899  36.277  12.481
46955W        W19270  22.770  44.520   1.468
46956W        W19271  41.716  17.260   1.827
46957W        W19272   5.699  25.267   5.157
46958W        W19273  42.668  22.770  12.520
46959W        W19274  39.389  10.694  11.153
46960W        W19275  20.519  12.131   1.424
46961W        W19276   5.025  23.216   1.935
46962W        W19277  26.587  34.681   0.124
46963W        W19278  18.368  17.693  12.979
46964W        W19279  31.588  19.203   1.793
46965W        W19280  38.572   3.662  13.104
46966W        W19281  18.240  16.617  12.561
46967W        W19282  36.323  34.984   2.203
46968W        W19283  16.391   3.285   2.842
46969W        W19284  42.059   0.368   1.807
46970W        W19285  38.569  27.151  14.096
46971W        W19286   6.663  17.492  13.455
46972W        W19287  28.910  23.011  14.875
46973W        W19288  19.781  44.371  14.450
46974W        W19289  24.034  40.775   0.339
46975W        W19290   2.930  42.350  12.522
46976W        W19291  31.241  10.085   1.318
46977W        W19292   7.786  32.980   0.469
46978W        W19293  24.748   8.839  12.012
46979W        W19294  41.764   4.412   1.240
46980W        W19295  18.005  21.005  12.946
46981W        W19296  28.223   7.336   4.406
46982W        W19297  28.105  18.056  14.705
46983W        W19298   8.613  25.190  13.000
46984W        W19299  32.743   2.339  13.937
46985W        W19300  44.416   5.742  10.799
46986W        W19301  25.505   6.192  12.422
46987W        W19302  18.620   6.883   0.900
46988W        W19303  29.670  30.064  12.846
46989W        W19304  12.239   0.338   2.741
46990W        W19305  42.821  27.049   3.597
46991W        W19306   3.546  11.179  12.958
46992W        W19307  41.301  13.740   1.303
46993W        W19308  40.067  39.361   3.745
46994W        W19309  21.121  42.209  10.992
46995W        W19310  44.008  44.433  14.471
46996W        W19311   0.136  16.457   0.909
46997W        W19312  36.701   1.374   3.748
46998W        W19313  42.480   7.582  12.658
46999W        W19314   6.294  42.664   2.329
47000W        W19315  16.527  28.476  11.945
47001W        W19316  21.495   6.297   2.273
47002W        W19317  26.260   5.342   2.670
47003W        W19318  18.318  30.258   2.810
47004W        W19319  35.091  27.997   3.180
47005W        W19320  31.612  43.238  14.898
47006W        W19321  17.469  39.491   2.509
47007W        W19322  16.581  21.713  14.848
47008W        W19323  12.223  30.170   3.620
47009W        W19324   3.154  36.918  13.815
47010W        W19325  42.228  17.135   3.201
47011W        W19326  35.853  21.490   0.372
47012W        W19327  44.897  24.180   4.235
47013W        W19328  25.162  28.726  11.524
47014W        W19329  33.767   9.708   0.740
47015W        W19330  36.437  38.059  14.365
47016W        W19331  28.106  28.999   0.207
47017W        W19332   1.523  13.677   1.336
47018W        W19333  28.607   5.462  10.641
47019W        W19334  21.178  40.627   2.306
47020W        W19335  44.444   1.520  13.450
47021W        W19336  39.136  31.987  12.034
47022W        W19337  19.271  22.600  12.432
47023W        W19338  33.895  39.404  11.340
47024W        W19339  32.853  32.949   4.825
47025W        W19340  18.950  26.713  14.491
47026W        W19341  19.771  14.365   3.230
47027W        W19342  18.759  31.238  13.344
47028W        W19343  24.102  32.258  11.140
47029W        W19344  35.269  16.585  11.152
47030W        W19345   9.822  29.476   1.820
47031W        W19346  14.311  44.889   4.147
47032W        W19347  44.549  25.646   4.424
47033W        W19348  22.929   5.763   1.892
47034W        W19349   8.706  23.738   1.404
47035W        W19350  14.541  40.556  13.809
47036W        W19351  34.629  16.267   0.909
47037W        W19352  43.130  36.355   2.912
47038W        W19353   2.805  37.851   4.225
47039W        W19354  13.837  34.941   3.122
47040W        W19355   8.665  19.796  14.291
47041W        W19356  19.801  38.822  13.937
47042W        W19357  41.897   8.656   1.423
47043W        W19358  15.754  35.214  11.974
47044W        W19359   4.425  13.231  10.730
47045W        W19360  29.825   0.413   4.240
47046W        W19361  40.064  33.004  12.476
47047W        W19362  27.174   5.727   4.972
47048W        W19363  34.095   1.308   0.747
47049W        W19364  10.649  30.442  11.924
47050W        W19365  22.267  13.689  12.956
47051W        W19366  41.415  29.641   4.398
47052W        W19367  35.567  35.458   0.460
47053W        W19368  37.024  18.316  12.986
47054W        W19369  21.525   3.216  10.446
47055W        W19370  13.290  17.120  13.859
47056W        W19371  23.773  41.857  14.821
47057W        W19372  24.032   5.595  13.967
47058W        W19373   7.945   4.898   4.081
47059W        W19374  11.122  33.142   1.334
47060W        W19375  42.993  38.663  12.614
47061W        W19376  19.536  37.994   3.229
47062W        W19377   9.374  18.281  11.200
47063W        W19378  19.008  38.314  13.557
47064W        W19379  10.790  20.048   3.472
47065W        W19380  15.168  18.234   1.017
47066W        W19381  23.751  35.497  11.605
47067W        W19382  18.672   1.908  13.510
47068W        W19383   9.669   4.706   1.331
47069W        W19384   2.613  18.226  12.152
47070W        W19385  21.031  27.892   4.135
47071W        W19386  38.658  21.284   3.862
47072W        W19387   9.924  36.657   2.311
47073W        W19388  26.719  40.871   1.297
47074W        W19389  38.531  19.606   1.792
47075W        W19390   5.470  41.396  11.100
47076W        W19391  31.124  22.561  14.934
47077W        W19392  14.313  27.191   3.370
47078W        W19393  25.026  24.718   1.196
47079W        W19394  10.707  24.719   2.475
47080W        W19395  14.113  30.643   4.896
47081W        W19396  37.930  44.731  10.350
47082W        W19397  28.096  19.093  12.590
47083W        W19398  24.625  35.807   3.704
47084W        W19399  23.503  30.642  11.217
47085W        W19400  23.744   8.357  13.723
47086W        W19401  24.745   3.295   4.278
47087W        W19402  38.941   1.873   3.160
47088W        W19403   3.757  43.364   1.274
47089W        W19404  21.675  39.418  13.394
47090W        W19405  20.188   4.344   3.105
47091W        W19406  17.291  44.832  10.716
47092W        W19407  32.128  18.649   4.643
47093W        W19408   5.599  13.294   1.038
47094W        W19409  38.355  42.128  12.509
47095W        W19410  40.116  31.975  11.486
47096W        W19411  11.747  23.099   1.295
47097W        W19412  11.792  21.133   1.898
47098W        W19413  32.479   1.493   3.427
47099W        W19414   5.928  26.763   1.174
47100W        W19415  26.566  41.516  10.378
47101W        W19416  33.292  27.507   1.134
47102W        W19417  19.139  22.926  11.215
47103W        W19418  26.467  44.983   1.460
47104W        W19419  30.468  39.869   1.782
47105W        W19420  21.542  38.126  13.221
47106W        W19421  23.984  15.514   1.847
47107W        W19422  40.738  15.877   3.164
47108W        W19423  41.331  41.007   5.010
47109W        W19424  40.863  33.048   4.686
47110W        W19425  43.398   6.334  12.033
47111W        W19426  44.797   4.800  14.070
47112W        W19427  32.978  10.101   3.595
47113W        W19428   4.919  26.699   3.662
47114W        W19429   5.746  28.277  11.472
47115W        W19430  33.367   5.385  13.574
47116W        W19431  39.279  40.589   2.279
47117W        W19432  20.319  35.527  11.480
47118W        W19433  21.297  25.538  14.908
47119W        W19434   0.824  12.349   3.167
47120W        W19435  15.649  40.326   0.304
47121W        W19436  42.586   3.352   4.201
47122W        W19437  43.105   7.312   0.232
47123W        W19438   6.649   3.049   1.316
47124W        W19439  29.116  21.455  11.183
47125W        W19440  27.126  40.389   3.218
47126W        W19441  22.023  42.997   4.541
47127W        W19442  20.109  12.327   1.182
47128W        W19443   5.985   8.195  14.941
47129W        W19444  26.878  31.173  14.002
47130W        W19445  42.936  27.882   4.558
47131W        W19446  19.841  39.900   1.015
47132W        W19447  31.571  20.282  11.631
47133W        W19448   3.009  24.011  14.675
47134W        W19449  11.646  41.307  10.092
47135W        W19450  31.684  17.639   2.716
47136W        W19451   9.921   2.464   0.465
47137W        W19452  13.102  26.990   2.599
47138W        W19453  14.585  42.299  12.121
47139W        W19454   0.957  23.857   5.059
47140W        W19455  42.493  14.516  13.092
47141W        W19456  21.087  20.642   4.086
47142W        W19457  32.684  36.458  13.218
47143W        W19458  39.557  27.027   2.394
47144W        W19459   1.875  37.549  10.396
47145W        W19460  34.097  17.732   4.383
47146W        W19461  18.050  28.528   0.223
47147W        W19462  44.778  15.782  10.451
47148W        W19463  26.722   6.409  10.234
47149W        W19464   0.472   9.743  12.450
47150W        W19465  26.727   6.722   2.872
47151W        W19466  26.289  13.273  14.361
47152W        W19467  32.627   8.151   1.008
47153W        W19468  40.504   3.665   0.063
47154W        W19469  12.385  35.362  12.837
47155W        W19470  22.464   3.474   0.718
47156W        W19471  32.968  33.126   2.727
47157W        W19472   3.287   7.956  12.564
47158W        W19473  12.457  37.448   2.007
47159W        W19474  10.016  13.867  14.264
47160W        W19475  33.719   5.125   4.715
47161W        W19476  13.703  21.521  12.933
47162W        W19477  18.692  10.309   0.297
47163W        W19478  27.358   8.927  11.901
47164W        W19479   8.799  15.522   1.380
47165W        W19480  21.931   9.717  11.876
47166W        W19481   5.473  42.773  13.898
47167W        W19482  34.496  24.026   3.920
47168W        W19483  13.427  39.017  11.557
47169W        W19484  28.183  20.144   3.719
47170W        W19485   3.974  14.630  11.156
47171W        W19486   6.598  25.452  14.777
47172W        W19487   7.318  41.536   2.818
47173W        W19488  18.741  25.672   4.625
47174W        W19489  21.166   8.223  12.601
47175W        W19490  37.919  34.551  14.680
47176W        W19491  31.926  35.159  11.674
47177W        W19492  28.065  13.330  12.625
47178W        W19493  37.408   3.739   4.589
47179W        W19494  30.237  27.095  11.506
47180W        W19495  28.820  13.201  14.487
47181W        W19496  18.851  17.449  11.589
47182W        W19497  43.321   1.644  11.520
47183W        W19498  37.122  13.766   0.359
47184W        W19499  22.993  21.348  14.024
47185W        W19500  16.300  35.959  14.297
47186W        W19501  23.323  32.245  11.591
47187W        W19502  32.115  28.967  11.687
47188W        W19503  16.225  22.617   3.893
47189W        W19504  21.358  22.616   4.416
47190W        W19505   8.175  23.318  13.362
47191W        W19506  33.091  16.137  10.427
47192W        W19507   8.993  44.834   0.761
47193W        W19508  26.018  38.341  12.770
47194W        W19509  35.304  28.007   1.794
47195W        W19510  44.843  30.647   5.042
47196W        W19511  25.055  28.936   1.395
47197W        W19512  41.657   5.443   3.725
47198W        W19513  28.613  17.609   4.844
47199W        W19514  12.705  17.999   0.738
47200W        W19515  17.415  24.668   2.973
47201W        W19516  19.712  24.573   4.647
47202W        W19517  33.060   8.928   0.753
47203W        W19518   9.616   7.109  11.993
47204W        W19519  31.857  25.499   2.557
47205W        W19520  20.996   0.437   1.687
47206W        W19521  44.516   3.721   3.324
47207W        W19522  10.448  29.927  14.003
47208W        W19523  19.673  29.421   3.871
47209W        W19524  36.901   0.569   4.170
47210W        W19525  27.663  33.315  14.615
47211W        W19526   3.624  44.333   4.735
47212W        W19527  30.837  41.450   3.137
47213W        W19528   6.380  32.902  13.754
47214W        W19529  38.842  20.343   1.980
47215W        W19530  20.832  41.581   3.732
47216W        W19531   0.887  12.885   3.317
47217W        W19532  14.111   3.217   2.131
47218W        W19533  16.771  39.828  14.906
47219W        W19534   6.431  39.474   0.542
47220W        W19535  28.678  32.501   4.647
47221W        W19536  10.178  24.222  12.381
47222W        W19537  39.067  13.791  13.133
47223W        W19538  23.919   5.158  12.941
47224W        W19539   3.902  36.044  14.501
47225W        W19540  27.974  30.564   3.056
47226W        W19541  27.015  37.446  11.182
47227W        W19542  35.006  23.929   4.051
47228W        W19543  29.060  35.462   4.605
47229W        W19544  30.564   5.455   1.847
47230W        W19545   2.403  28.707  12.570
47231W        W19546  31.515  23.131  13.002
47232W        W19547  25.728  44.005   0.388
47233W        W19548  15.042  31.662   4.247
47234W        W19549   5.339   6.897   2.879
47235W        W19550  21.517   6.160   0.260
47236W        W19551  11.366  38.407   1.249
47237W        W19552  25.616  23.741  14.805
47238W        W19553   9.872   4.715  12.025
47239W        W19554  39.650  12.213  10.300
47240W        W19555  31.298  36.857   3.495
47241W        W19556  36.887  40.061   1.376
47242W        W19557  39.065  32.903  10.715
47243W        W19558  39.085  42.028  14.342
47244W        W19559  44.683  19.575  10.439
47245W        W19560  41.325  25.907  13.985
47246W        W19561  11.257  10.422   4.213
47247W        W19562   8.098   0.894   2.852
47248W        W19563  14.578  40.917   4.112
47249W        W19564  29.459  43.307   1.716
47250W        W19565  35.371  39.553  11.391
47251W        W19566   6.089  30.625  13.133
47252W        W19567  43.926  15.366  13.330
47253W        W19568  44.078  19.916   1.179
47254W        W19569  17.236  31.306   5.553
47255W        W19570  28.257   4.824   2.691
47256W        W19571   9.368   3.971  14.531
47257W        W19572  31.690   4.920  11.522
47258W        W19573  20.014   0.286  13.307
47259W        W19574  31.387  38.492  11.610
47260W        W19575   8.450   5.706  14.567
47261W        W19576  34.286   0.694   1.845
47262W        W19577  28.883  17.498  12.878
47263W        W19578  10.988  33.460   1.710
47264W        W19579   8.325  26.149  14.733
47265W        W19580  12.652  41.210  13.065
47266W        W19581  19.718  15.250   2.788
47267W        W19582  40.577  44.411  14.421
47268W        W19583  15.704  43.887  13.048
47269W        W19584   1.714  40.442  11.130
47270W        W19585  13.236  12.944   4.110
47271W        W19586  27.736   0.580  12.087
47272W        W19587  30.632   0.353  14.587
47273W        W19588   0.709   2.908  13.011
47274W        W19589  36.988  10.281  14.973
47275W        W19590  26.429   8.171   2.390
47276W        W19591  34.225  17.320   2.339
47277W        W19592  22.117  43.050   2.811
47278W        W19593   2.416  10.655  10.101
47279W        W19594  15.447  21.471  11.548
47280W        W19595   4.473  33.040   2.116
47281W        W19596   2.538  34.140   2.318
47282W        W19597  41.938   9.424  11.954
47283W        W19598   2.721  30.078   2.367
47284W        W19599   3.235  16.638  13.446
47285W        W19600  11.229  38.386   0.239
47286W        W19601  11.182   7.154   1.140
47287W        W19602   1.952  23.607   3.133
47288W        W19603  35.967  22.228   1.099
47289W        W19604  23.733  32.251   9.953
47290W        W19605  10.332   1.936  14.894
47291W        W19606   2.432  10.412   2.466
47292W        W19607  43.018   7.419   2.338
47293W        W19608  14.343  35.316   0.489
47294W        W19609  10.425  33.952  14.344
47295W        W19610   9.601  20.527  13.944
47296W        W19611  19.934  36.806   4.348
47297W        W19612  14.739  43.499   2.440
47298W        W19613   1.915   2.460  11.671
47299W        W19614  10.348  43.554   4.153
47300W        W19615  36.825  44.530   4.059
47301W        W19616  25.478  43.795   0.839
47302W        W19617  24.937  23.506   0.819
47303W        W19618   8.889   8.604  14.556
47304W        W19619  26.755   0.829  10.688
47305W        W19620  13.226  15.303  14.499
47306W        W19621   8.147  20.013  13.298
47307W        W19622  34.429  15.728  12.401
47308W        W19623  19.035  12.368  13.932
47309W        W19624   7.389   4.339  13.825
47310W        W19625  30.398   4.438   2.410
47311W        W19626  44.265  38.495  10.689
47312W        W19627  25.539  42.266   0.035
47313W        W19628  37.438   4.836  11.890
47314W        W19629  18.985   9.804  12.864
47315W        W19630  18.093  26.968  10.570
47316W        W19631  30.996   8.890   3.170
47317W        W19632  40.480   8.178   3.319
47318W        W19633  10.221  12.496   4.529
47319W        W19634  31.424  22.166  12.918
47320W        W19635   7.058  39.948  14.822
47321W        W19636  31.619  35.080   2.137
47322W        W19637  34.892  29.634  12.804
47323W        W19638   5.391  42.640   1.811
47324W        W19639  26.030  16.364   3.658
47325W        W19640  19.225  20.304  11.897
47326W        W19641  30.698   1.765  10.364
47327W        W19642  15.845  28.379  10.222
47328W        W19643  27.581  31.374   1.936
47329W        W19644   8.711   4.880   3.737
47330W        W19645  22.503   8.198  13.285
47331W        W19646  43.945  18.695  12.924
47332W        W19647  33.737  26.463  12.887
47333W        W19648  20.865  35.925  11.163
47334W        W19649   1.583   7.232  12.359
47335W        W19650   7.001  32.501  14.384
47336W        W19651   2.829  32.295   1.082
47337W        W19652  21.505  27.692   2.244
47338W        W19653   0.966  13.084   0.951
47339W        W19654  18.813  40.750  13.554
47340W        W19655  41.319   9.301   0.801
47341W        W19656  30.935  22.279  10.506
47342W        W19657  15.821  14.987  12.006
47343W        W19658  36.117  13.183   1.757
47344W        W19659  35.504   4.000   0.431
47345W        W19660  21.692   2.163   1.292
47346W        W19661  11.659   7.699  10.730
47347W        W19662  20.418  35.893   4.975
47348W        W19663  32.539  37.652   2.290
47349W        W19664  20.073  15.550  11.526
47350W        W19665  20.236  10.179  10.354
47351W        W19666   0.729   8.123  11.099
47352W        W19667  17.595  26.646   3.336
47353W        W19668   0.710  16.636  12.527
47354W        W19669  27.210   8.989   3.119
47355W        W19670  13.128  16.760   1.918
47356W        W19671   5.306  42.542   0.714
47357W        W19672  25.216  20.944  13.960
47358W        W19673   3.165  16.802   4.153
47359W        W19674  24.171  17.344  14.691
47360W        W19675  38.421  34.550   0.377
47361W        W19676  37.532   7.916   4.650
47362W        W19677  39.018  39.482  14.784
47363W        W19678  32.259  30.023   3.974
47364W        W19679  17.318  33.690   1.833
47365W        W19680  25.432   1.335  12.850
47366W        W19681  41.170   4.820   3.829
47367W        W19682  15.563  10.780  14.444
47368W        W19683  33.092  32.916  13.876
47369W        W19684  34.889  15.944  10.727
47370W        W19685  24.031   1.857   4.614
47371W        W19686  28.963  19.184   2.822
47372W        W19687   7.932  44.776   0.830
47373W        W19688  20.349  21.596  14.570
47374W        W19689   4.993  24.193   0.591
47375W        W19690  42.623  24.249   0.879
47376W        W19691  22.784  34.586  12.950
47377W        W19692  28.936   0.390  11.984
47378W        W19693  26.202  16.536   4.113
47379W        W19694  37.468  27.589  11.225
47380W        W19695  33.474  15.220   1.040
47381W        W19696  14.847  16.744   4.653
47382W        W19697  16.597  10.465  11.573
47383W        W19698   7.182  14.721  10.903
47384W        W19699   4.433  16.270  11.048
47385W        W19700  22.662  36.419  14.000
47386W        W19701   1.578  38.640   1.721
47387W        W19702  38.040  18.499   1.402
47388W        W19703  23.185  24.740  12.433
47389W        W19704   3.694  33.193   2.774
47390W        W19705   7.978  38.533   1.302
47391W        W19706  21.831   4.797  13.062
47392W        W19707  33.522  36.833  11.904
47393W        W19708  38.454  31.115   4.752
47394W        W19709  21.549  21.956   2.461
47395W        W19710   4.277  23.600  14.825
47396W        W19711   3.296  35.467   1.198
47397W        W19712  33.414  29.358   0.305
47398W        W19713   5.239   4.191  11.256
47399W        W19714  34.155  29.009   1.167
47400W        W19715   3.266  44.779   3.205
47401W        W19716  15.541  11.314   1.778
47402W        W19717  39.277  34.601   0.046
47403W        W19718  14.857  40.837   1.443
47404W        W19719  27.578  42.456   4.647
47405W        W19720  22.449  16.058   1.222
47406W        W19721  21.321  34.504   4.068
47407W        W19722  17.265  33.430   0.935
47408W        W19723  15.273  34.425   2.144
47409W        W19724  19.176  10.852   0.792
47410W        W19725  37.891  27.100  12.370
47411W        W19726   8.143   3.153   1.291
47412W        W19727  12.193  28.918   4.051
47413W        W19728  17.734  35.538   3.880
47414W        W19729  28.897   9.731   1.228
47415W        W19730  27.879   7.055  11.391
47416W        W19731  38.328   5.294   0.230
47417W        W19732  40.068   7.392   3.154
47418W        W19733  42.323  43.082  11.012
47419W        W19734  39.541   6.773  13.261
47420W        W19735  37.289  17.367   0.873
47421W        W19736   0.257  34.105   9.925
47422W        W19737  34.106   9.940   3.312
47423W        W19738  16.604  22.364  12.600
47424W        W19739   6.793  21.609   4.188
47425W        W19740  21.015   5.242   0.907
47426W        W19741  13.698   2.928  13.413
47427W        W19742  12.203  28.743   3.338
47428W        W19743   1.258  17.259   4.455
47429W        W19744  39.983  16.795   0.390
47430W        W19745  11.279  13.752  12.075
47431W        W19746  35.318  44.687   3.247
47432W        W19747  15.269  19.662  11.194
47433W        W19748  12.217  18.160   0.873
47434W        W19749  22.120   9.527  10.330
47435W        W19750  38.649  18.178  13.522
47436W        W19751  16.958  36.993   1.327
47437W        W19752   6.913  23.950   2.054
47438W        W19753  22.146  28.189   2.776
47439W        W19754  13.358  43.423  10.658
47440W        W19755   5.259  24.114   4.727
47441W        W19756  31.383  33.620   1.667
47442W        W19757  31.327   3.433  10.653
47443W        W19758   5.651  12.168  13.989
47444W        W19759  29.128  13.127  11.547
47445W        W19760   7.774  21.560   3.094
47446W        W19761  43.091  13.083  12.138
47447W        W19762  25.535  15.061  11.597
47448W        W19763  19.561  43.220  11.140
47449W        W19764   3.720  11.765   3.380
47450W        W19765  44.787  25.910   0.057
47451W        W19766  34.690  35.022   2.732
47452W        W19767   1.996  32.931   1.336
47453W        W19768  18.714  36.103  13.871
47454W        W19769  13.619  12.723  14.016
47455W        W19770  20.842  19.723  10.577
47456W        W19771  31.835  19.726  14.710
47457W        W19772  11.212  43.922   2.808
47458W        W19773  37.551  39.992  10.738
47459W        W19774  29.761  42.107  13.820
47460W        W19775   2.398  44.542   4.114
47461W        W19776  35.535  29.551  11.476
47462W        W19777  12.125  10.225   0.313
47463W        W19778  17.042  35.056  11.663
47464W        W19779  22.468  40.008  11.946
47465W        W19780  23.418  27.571  11.560
47466W        W19781   0.051  43.955  13.945
47467W        W19782   4.179  11.678   3.145
47468W        W19783  35.944  29.135   4.797
47469W        W19784  29.878  28.475   2.767
47470W        W19785  44.785   2.329   4.147
47471W        W19786  43.904  36.960  14.949
47472W        W19787  32.824  36.436  14.811
47473W        W19788  29.146  44.523  12.376
47474W        W19789  26.097   9.103   1.286
47475W        W19790  35.020  39.487   0.275
47476W        W19791  27.645   1.423  14.888
47477W        W19792  11.247  27.218  12.635
47478W        W19793  23.666  22.021  11.691
47479W        W19794  22.773   1.797   0.784
47480W        W19795  39.108  44.323  12.726
47481W        W19796  18.431   3.500   4.114
47482W        W19797  28.567  42.735   0.066
47483W        W19798  26.024  33.932  11.963
47484W        W19799  11.734  29.430   3.634
47485W        W19800  16.313  35.401  11.218
47486W        W19801   1.693  23.019   0.471
47487W        W19802   4.167  37.122   0.872
47488W        W19803   3.870  22.647  12.019
47489W        W19804   1.677  20.103  12.936
47490W        W19805  14.626  13.899   4.172
47491W        W19806  28.019   4.456   3.998
47492W        W19807  43.790  21.516   0.830
47493W        W19808   8.851  36.945  10.692
47494W        W19809  33.071  23.573   0.998
47495W        W19810  26.400  13.627   4.129
47496W        W19811   8.342   5.985   1.753
47497W        W19812  22.979  42.919  12.869
47498W        W19813   6.023  30.162   3.320
47499W        W19814  33.030  43.861  11.818
47500W        W19815  26.622  35.438   2.557
47501W        W19816  21.805  34.177   3.706
47502W        W19817  14.046  30.144  11.136
47503W        W19818   0.637  17.576  13.573
47504W        W19819  14.227  29.899  13.797
47505W        W19820  28.080  33.145   4.615
47506W        W19821   9.662  28.580  13.388
47507W        W19822   6.022  29.557  13.147
47508W        W19823  14.787   7.233   4.743
47509W        W19824  15.622  32.846   1.344
47510W        W19825   3.713  13.670   3.905
47511W        W19826   5.441  22.594   3.625
47512W        W19827   1.667  38.091   1.660
47513W        W19828  25.596  16.694   4.620
47514W        W19829  20.765  41.040  13.333
47515W        W19830  14.850  44.262  14.471
47516W        W19831  13.780  38.925  14.507
47517W        W19832  16.223  43.289  14.517
47518W        W19833  15.019  24.072   3.587
47519W        W19834  13.597  43.051   9.884
47520W        W19835   9.455   4.744  12.969
47521W        W19836  12.106   2.967   0.013
47522W        W19837  28.810  21.247  14.349
47523W        W19838  13.706  20.065   2.665
47524W        W19839   0.685  35.574   3.333
47525W        W19840  18.841  35.878   3.143
47526W        W19841  25.143  14.995   4.153
47527W        W19842  36.421  42.887  12.097
47528W        W19843  21.619  31.314   0.340
47529W        W19844  30.666  44.328   2.278
47530W        W19845  39.612  39.562   3.564
47531W        W19846  10.202  10.270  11.339
47532W        W19847   6.939  29.944   3.709
47533W        W19848  44.531  28.279   3.700
47534W        W19849  12.863   7.228   4.377
47535W        W19850  42.059   4.943  13.800
47536W        W19851  23.485  15.606  13.470
47537W        W19852  15.678  30.070  14.355
47538W        W19853  30.597  33.595  13.131
47539W        W19854  13.888  40.388   4.493
47540W        W19855  30.942  39.861   3.068
47541W        W19856  34.012   3.776   3.823
47542W        W19857  25.549   7.491   4.962
47543W        W19858  33.100  26.395  10.653
47544W        W19859   8.440  18.179  14.907
47545W        W19860  19.371  30.077   2.757
47546W        W19861   2.722  24.625  11.760
47547W        W19862  22.825  10.303   3.327
47548W        W19863  30.605  19.818   0.688
47549W        W19864  44.708  29.478  12.533
47550W        W19865  23.000  27.391  12.950
47551W        W19866  28.853   0.078  14.462
47552W        W19867  44.963   1.204  11.031
47553W        W19868  34.843  16.751  14.922
47554W        W19869  23.917  13.597  13.969
47555W        W19870  10.690   0.844   1.311
47556W        W19871  15.486  17.796   1.260
47557W        W19872  21.606  43.981   2.174
47558W        W19873  17.226  24.744   3.454
47559W        W19874  10.586   5.654  12.568
47560W        W19875  36.330  19.177   1.199
47561W        W19876  32.514   2.786   2.580
47562W        W19877  23.373  12.888  11.151
47563W        W19878  16.578  20.761   1.223
47564W        W19879  34.820  24.049  14.433
47565W        W19880   7.714  12.629  10.345
47566W        W19881  22.347  44.454   1.146
47567W        W19882  43.970  36.360   2.858
47568W        W19883  17.590  36.402  14.347
47569W        W19884  12.300   3.244   4.904
47570W        W19885  33.158  26.799   3.636
47571W        W19886   6.881  16.600   3.204
47572W        W19887  33.303  24.618  14.929
47573W        W19888  18.755  32.542   3.565
47574W        W19889  39.360  31.601   2.278
47575W        W19890  21.440   0.297   1.893
47576W        W19891  35.575  36.013  12.236
47577W        W19892  16.855  10.763  13.951
47578W        W19893  25.910  10.223  10.782
47579W        W19894  39.262   6.557   1.806
47580W        W19895   6.227  11.728   0.283
47581W        W19896  33.180  35.467  13.838
47582W        W19897  16.753  10.154   4.154
47583W        W19898  10.184  34.352  10.954
47584W        W19899  27.723  35.898   3.791
47585W        W19900  24.130   4.422  13.617
47586W        W19901  14.760  19.908   0.801
47587W        W19902   2.705  19.848  14.443
47588W        W19903  22.576   5.425   1.721
47589W        W19904  43.040  38.567   0.509
47590W        W19905   5.898  25.899   2.342
47591W        W19906  12.710  15.699   3.935
47592W        W19907  37.894  42.990   4.865
47593W        W19908  23.022  14.171   1.211
47594W        W19909  10.190   7.190   3.703
47595W        W19910  11.872   0.435  11.514
47596W        W19911  29.726  34.522   1.178
47597W        W19912   3.313   9.824   2.330
47598W        W19913  14.868  18.789  11.566
47599W        W19914  20.801  31.713  11.299
47600W        W19915  29.890  26.131  11.875
47601W        W19916  24.453  13.654   2.363
47602W        W19917  41.382  11.406   1.739
47603W        W19918  43.031  14.615   0.247
47604W        W19919  34.494   3.058  12.433
47605W        W19920  22.959   6.736   4.717
47606W        W19921  21.141  31.627  13.876
47607W        W19922  40.470  32.344  11.474
47608W        W19923  30.111  36.099   0.938
47609W        W19924   8.378  25.515   2.233
47610W        W19925  28.970  14.216  11.999
47611W        W19926   0.120  38.846  11.632
47612W        W19927  38.036  27.182   3.154
47613W        W19928   4.945   6.334   2.347
47614W        W19929  18.661  18.579   2.832
47615W        W19930  40.554  41.771   4.921
47616W        W19931  22.870   4.952  13.056
47617W        W19932  26.630  31.994   4.083
47618W        W19933  42.016   4.886  14.655
47619W        W19934  23.915  15.347  13.454
47620W        W19935  42.053  41.925   3.179
47621W        W19936  23.455  24.788  13.420
47622W        W19937  11.892  37.337   1.262
47623W        W19938  25.960  17.705   0.243
47624W        W19939  15.114   2.166  14.812
47625W        W19940  22.100  24.058  14.627
47626W        W19941   2.730  37.350  11.661
47627W        W19942  44.525  23.744  11.270
47628W        W19943  19.695  24.659  12.447
47629W        W19944  28.607  14.307   3.048
47630W        W19945  14.553  14.359  11.163
47631W        W19946   7.109   8.897   0.976
47632W        W19947  34.102  24.212   1.243
47633W        W19948  35.110  44.299  14.603
47634W        W19949   5.761  38.460  13.825
47635W        W19950  38.188  37.829   4.698
47636W        W19951  27.161  33.225   4.583
47637W        W19952  37.610  24.075   4.697
47638W        W19953  29.938  29.665  13.183
47639W        W19954  39.099   2.351  14.241
47640W        W19955  44.776  32.311  10.780
47641W        W19956  38.080   9.868   0.312
47642W        W19957  29.069   3.868  12.450
47643W        W19958  20.482  27.283  14.268
47644W        W19959   8.669   8.496   3.741
47645W        W19960  42.454  33.122   4.711
47646W        W19961  39.469   0.282   4.591
47647W        W19962  11.168  24.442  10.636
47648W        W19963  33.325  41.537   2.934
47649W        W19964  17.997  28.873   3.591
47650W        W19965   7.155   6.859  10.909
47651W        W19966  28.181  21.110  12.701
47652W        W19967   3.360  34.343   3.278
47653W        W19968  19.019  37.430  13.291
47654W        W19969   3.649  36.926   0.930
47655W        W19970  34.052  24.274  11.813
47656W        W19971  25.448  20.929  13.397
47657W        W19972  43.861  25.253   4.185
47658W        W19973  31.598  29.044  11.648
47659W        W19974  44.367  30.475   4.934
47660W        W19975   2.908  36.566  12.933
47661W        W19976  39.805  25.850   1.840
47662W        W19977  38.622   9.253   2.301
47663W        W19978  35.503  29.682  13.965
47664W        W19979  13.218   2.357   4.614
47665W        W19980  22.194  13.917  14.861
47666W        W19981  34.431  42.326   2.712
47667W        W19982  21.007  34.130  13.000
47668W        W19983  25.967   4.844  11.577
47669W        W19984  19.567   6.722  10.648
47670W        W19985  32.540  34.897   4.638
47671W        W19986  13.911  12.245   3.847
47672W        W19987  15.711  24.841   2.520
47673W        W19988  28.080  19.794   4.917
47674W        W19989  16.021  34.362   2.139
47675W        W19990  27.730  36.219   1.788
47676W        W19991  43.839  35.518   4.462
47677W        W19992  19.296  25.792   2.148
47678W        W19993  22.321   7.488  12.524
47679W        W19994  36.400  38.542  13.430
47680W        W19995  23.432  29.489   3.850
47681W        W19996  10.431   8.335   2.636
47682W        W19997  29.441  27.571  13.875
47683W        W19998  18.914   2.520  12.092
47684W        W19999  40.113  13.074  10.667
47685W        W20000  31.326  12.236   3.169
47686W        W20001   7.317  21.456  10.560
47687W        W20002   7.749  18.404   1.693
47688W        W20003  35.445  24.762   1.385
47689W        W20004  11.753  35.740  14.891
47690W        W20005  23.203  26.148   3.868
47691W        W20006   7.805  34.704  14.740
47692W        W20007  24.356  17.579   0.129
47693W        W20008  14.777   0.841  10.618
47694W        W20009   1.438  40.461  12.102
47695W        W20010  41.809  12.140  11.889
47696W        W20011  24.512  30.897  11.975
47697W        W20012   1.964   4.384   2.163
47698W        W20013  34.470  18.698  13.980
47699W        W20014  42.491  37.611   2.076
47700W        W20015  27.676  26.749   1.786
47701W        W20016  24.056   0.258   4.636
47702W        W20017  16.229  43.443   4.179
47703W        W20018   7.700   8.278  11.458
47704W        W20019  44.939  26.030  14.593
47705W        W20020  35.088  23.589  10.142
47706W        W20021  40.941  42.668   0.484
47707W        W20022  30.694  22.511   3.470
47708W        W20023   3.999  35.813   1.227
47709W        W20024   5.303   5.902  12.150
47710W        W20025  16.264  28.610   4.852
47711W        W20026  23.723  29.131   3.592
47712W        W20027   0.690  39.586   1.180
47713W        W20028  24.304  21.855  12.505
47714W        W20029  41.780  15.769   1.865
47715W        W20030  37.662   6.797  13.330
47716W        W20031   7.624  33.375  12.441
47717W        W20032  37.969  20.129  13.933
47718W        W20033  29.327  17.763   3.139
47719W        W20034  38.559  16.675  12.514
47720W        W20035  10.157  41.554   2.206
47721W        W20036  30.010  22.764  11.960
47722W        W20037  20.556  41.992  13.859
47723W        W20038  14.004  37.414  12.713
47724W        W20039   0.918  42.997  12.075
47725W        W20040  18.111  19.028   1.122
47726W        W20041   8.396  39.878  13.129
47727W        W20042   7.861   6.206  11.338
47728W        W20043   4.032  44.013   2.603
47729W        W20044  33.636  36.773  12.808
47730W        W20045  38.594  19.473  14.115
47731W        W20046  12.158  32.519  13.254
47732W        W20047  30.335   7.952  13.061
47733W        W20048  43.537  16.261   4.549
47734W        W20049  40.423  41.485  12.710
47735W        W20050  11.610  35.025   1.289
47736W        W20051   3.282  25.181   3.216
47737W        W20052   5.762  43.517  11.251
47738W        W20053  30.010  35.425   3.134
47739W        W20054  14.131  23.822  11.497
47740W        W20055  17.999  35.944   1.187
47741W        W20056  30.099  44.879  13.944
47742W        W20057  11.783  43.261   2.508
47743W        W20058  37.342  35.955   0.003
47744W        W20059  29.969  22.974   1.431
47745W        W20060  35.972  21.806   0.772
47746W        W20061  16.822   5.686  14.085
47747W        W20062  32.062  43.827  11.171
47748W        W20063  12.863  23.205  14.274
47749W        W20064  18.456  26.071   1.496
47750W        W20065  30.523   3.777   4.279
47751W        W20066   8.760  24.610  10.347
47752W        W20067  43.903   9.373  12.838
47753W        W20068  34.700  12.290   1.641
47754W        W20069  18.643  34.988   4.646
47755W        W20070  18.952  37.112  11.966
47756W        W20071   5.069  36.406   1.740
47757W        W20072  24.574  20.011  10.148
47758W        W20073   2.938   2.949   0.840
47759W        W20074  15.616   2.259  11.816
47760W        W20075  11.430  43.259  10.652
47761W        W20076  15.834  33.531  13.477
47762W        W20077  17.485  37.080   2.848
47763W        W20078  39.298   6.332  13.355
47764W        W20079   2.079  10.994   9.898
47765W        W20080   3.590   6.257   1.059
47766W        W20081  21.113  28.609   0.322
47767W        W20082  39.069  44.710   1.745
47768W        W20083  19.997  23.226   2.098
47769W        W20084  29.114  33.424  11.458
47770W        W20085  27.599   4.253  11.502
47771W        W20086   3.607  41.695  11.073
47772W        W20087  17.738  22.014  14.395
47773W        W20088   9.811   7.653   1.607
47774W        W20089   2.215  26.727  14.856
47775W        W20090  31.188  13.014   1.603
47776W        W20091   2.831  42.693  11.613
47777W        W20092  12.699  22.660   4.223
47778W        W20093  40.772  39.026   2.689
47779W        W20094  18.610  23.539  14.563
47780W        W20095  31.404   7.772  14.321
47781W        W20096  12.185  36.554   0.820
47782W        W20097   4.853   1.459   1.429
47783W        W20098  16.129  40.178   2.742
47784W        W20099  29.090  30.766  13.797
47785W        W20100  20.174  29.160  10.776
47786W        W20101   2.733  30.548  13.280
47787W        W20102  16.657  36.912   3.216
47788W        W20103  31.554  14.362  14.299
47789W        W20104  43.056  34.035  10.585
47790W        W20105  18.738  42.538   9.896
47791W        W20106  15.604  39.460   0.480
47792W        W20107  21.200  25.725   3.241
47793W        W20108  35.635  11.693   0.691
47794W        W20109  14.786  40.447  14.273
47795W        W20110   3.478  24.621  11.931
47796W        W20111  36.343   1.777  14.292
47797W        W20112  27.562   6.999   9.462
47798W        W20113  34.008  10.098   0.989
47799W        W20114  41.490  12.915  13.044
47800W        W20115  37.166  35.145  14.743
47801W        W20116  13.881  26.617  11.470
47802W        W20117   7.483  18.716  10.846
47803W        W20118  17.557  39.342  10.875
47804W        W20119  17.152   0.960  11.121
47805W        W20120  11.121  14.500  13.684
47806W        W20121  22.507   9.838  10.464
47807W        W20122   1.886  10.015   3.699
47808W        W20123  33.205  18.745  12.009
47809W        W20124  25.056   5.928   2.598
47810W        W20125  18.958  35.453  14.537
47811W        W20126  39.187  14.795   0.800
47812W        W20127  20.589   0.301  11.728
47813W        W20128  31.817  19.110   3.802
47814W        W20129   9.706  36.099   3.175
47815W        W20130  22.570   3.253  14.837
47816W        W20131  31.975  42.029  14.424
47817W        W20132  43.921  27.539   2.298
47818W        W20133  22.394  40.366   5.151
47819W        W20134  10.950  32.359   0.461
47820W        W20135   7.479  19.045  14.414
47821W        W20136  12.637  11.852  10.852
47822W        W20137  43.195  10.266   0.979
47823W        W20138   9.674  38.081   2.421
47824W        W20139   6.314   8.368  10.542
47825W        W20140   7.266  33.361  11.995
47826W        W20141  43.408  23.399  13.160
47827W        W20142  33.184  28.948   0.028
47828W        W20143  31.863   6.820  14.455
47829W        W20144  19.049  40.113  10.247
47830W        W20145  32.549  28.972  14.911
47831W        W20146   3.469   2.005  11.421
47832W        W20147  43.590  43.369   2.345
47833W        W20148  13.920  26.619   1.683
47834W        W20149  35.050   4.696   1.398
47835W        W20150  37.244  38.155   3.677
47836W        W20151  44.905  27.466  12.272
47837W        W20152  32.441  26.036  12.483
47838W        W20153  30.303  21.997  11.523
47839W        W20154  10.834  33.858  12.258
47840W        W20155   5.462  42.439  13.429
47841W        W20156  19.314  38.101  14.051
47842W        W20157  16.764   3.891   4.585
47843W        W20158   7.151  42.360   1.781
47844W        W20159  37.267  29.181   3.314
47845W        W20160  25.526   8.493   4.665
47846W        W20161  23.422  20.631  13.992
47847W        W20162   6.752  22.633  12.594
47848W        W20163  31.360  37.541  10.617
47849W        W20164  36.024  15.207   4.551
47850W        W20165   0.418  18.525  12.172
47851W        W20166  44.828   1.499  13.861
47852W        W20167  38.511   1.743   1.086
47853W        W20168  13.574  31.216   0.864
47854W        W20169  39.531  12.571   2.558
47855W        W20170  34.971   7.960  14.223
47856W        W20171  14.151  28.240  14.481
47857W        W20172  44.469  20.706  14.758
47858W        W20173  28.968  22.561  11.241
47859W        W20174   5.777  33.879   4.749
47860W        W20175  15.624  14.713   0.500
47861W        W20176   5.199  43.355   4.693
47862W        W20177  22.626  20.782  12.823
47863W        W20178  18.466   6.677   4.298
47864W        W20179   3.984  12.797  13.352
47865W        W20180  32.983   3.413  10.619
47866W        W20181  13.215  12.145  13.106
47867W        W20182   3.282  21.740  11.966
47868W        W20183   5.366   0.487  10.849
47869W        W20184  22.363   1.948   3.449
47870W        W20185  41.544   1.469  10.442
47871W        W20186   9.226  10.764   4.237
47872W        W20187   6.648  43.361  12.323
47873W        W20188  11.571  21.814  10.967
47874W        W20189  26.285  27.608  14.554
47875W        W20190  33.818  35.268   1.044
47876W        W20191  16.359   8.941  11.662
47877W        W20192  25.744   5.331  14.444
47878W        W20193  24.647  24.254   3.308
47879W        W20194  30.011   5.727   2.935
47880W        W20195   9.610  23.538   0.387
47881W        W20196   2.219  37.823  13.416
47882W        W20197   9.697  23.700   4.934
47883W        W20198  19.952  28.669   3.794
47884W        W20199   9.195  41.904  13.423
47885W        W20200  35.496   9.321   1.490
47886W        W20201  44.623  15.333   0.760
47887W        W20202  39.904  43.436   2.681
47888W        W20203   2.528  30.896   2.774
47889W        W20204  29.425  18.236  12.218
47890W        W20205   0.043  32.179   3.167
47891W        W20206  11.193   4.682   0.391
47892W        W20207  14.784   8.920   0.422
47893W        W20208  37.107  33.311   0.357
47894W        W20209   3.155  40.295  10.727
47895W        W20210   1.750  40.978   4.086
47896W        W20211  20.691  26.717   0.627
47897W        W20212  17.241  39.836   4.087
47898W        W20213  14.627  35.736   1.208
47899W        W20214  30.859  34.381   4.154
47900W        W20215   4.165  23.569  12.036
47901W        W20216  42.287   2.066   1.667
47902W        W20217  30.481   0.504  12.057
47903W        W20218  44.825   2.940   2.869
47904W        W20219   7.059   3.355   0.410
47905W        W20220  12.491  20.624   3.221
47906W        W20221  28.390   6.228  12.114
47907W        W20222  30.066  22.602   2.780
47908W        W20223  24.937  40.117  13.386
47909W        W20224  27.085  35.497  14.306
47910W        W20225  25.077   0.367   2.102
47911W        W20226  36.445  13.864  12.189
47912W        W20227  19.310  42.020  12.211
47913W        W20228  23.698  18.280   0.442
47914W        W20229  19.067  14.632   4.381
47915W        W20230  32.619   0.030   3.148
47916W        W20231  11.068   6.140  11.663
47917W        W20232   1.159   5.415   1.859
47918W        W20233  24.683   0.793  14.883
47919W        W20234  16.395   0.071  14.102
47920W        W20235  24.178  41.549  14.410
47921W        W20236  35.082  26.998   4.706
47922W        W20237   5.921   7.415   2.284
47923W        W20238  42.425  13.325  14.408
47924W        W20239   8.402  24.671   4.128
47925W        W20240  26.517   3.337   0.046
47926W        W20241   3.433   1.933  14.349
47927W        W20242  41.909  21.042  14.363
47928W        W20243  29.929   4.287   1.471
47929W        W20244  34.562  44.208   1.769
47930W        W20245  15.017  34.475  14.210
47931W        W20246  35.455  19.157   1.230
47932W        W20247   2.029  32.182  14.336
47933W        W20248   4.338  41.813   1.755
47934W        W20249  43.827   0.363   1.393
47935W        W20250   0.470  44.794   3.891
47936W        W20251  37.019  30.166  14.821
47937W        W20252  34.866  14.604   1.672
47938W        W20253   8.729   6.211   3.829
47939W        W20254  33.653  41.977  13.412
47940W        W20255  29.479  12.139  13.377
47941W        W20256  12.258  10.314   1.806
47942W        W20257  11.013  36.891   1.365
47943W        W20258   5.094  39.911  10.171
47944W        W20259  16.179   4.443   0.721
47945W        W20260   9.929  18.512  11.048
47946W        W20261  44.281  29.215  12.421
47947W        W20262  43.364   6.196  12.955
47948W        W20263  25.815   3.327   0.526
47949W        W20264  12.784   7.226  10.509
47950W        W20265  39.968  33.127   4.123
47951W        W20266  38.095  44.319  13.462
47952W        W20267  24.789  26.596  13.420
47953W        W20268  18.980  24.528   1.801
47954W        W20269   6.745  13.627  12.355
47955W        W20270   6.383   4.794  14.431
47956W        W20271  11.897  36.922   3.159
47957W        W20272  10.690  43.873  12.166
47958W        W20273   0.744  26.060   1.002
47959W        W20274  10.168  36.040   0.048
47960W        W20275  20.586  10.704  11.056
47961W        W20276   4.051  44.417   3.211
47962W        W20277  16.677  39.348  13.855
47963W        W20278   7.274   7.869   4.689
47964W        W20279  29.497  31.360  10.541
47965W        W20280  25.461  11.357   0.309
47966W        W20281   6.411  43.333  12.882
47967W        W20282   5.654  23.170  11.177
47968W        W20283  35.069  27.531  12.182
47969W        W20284  24.913  27.007  13.721
47970W        W20285  31.553  34.186  13.966
47971W        W20286   9.417  19.053  13.026
47972W        W20287  33.045  31.068   0.796
47973W        W20288  31.037  10.085  14.441
47974W        W20289  19.493  40.505   4.046
47975W        W20290  35.291   5.230  10.639
47976W        W20291  39.568   9.681  13.446
47977W        W20292  17.280   5.976  11.238
47978W        W20293  24.436  34.752  14.992
47979W        W20294  42.996  37.930  14.282
47980W        W20295  14.207  27.507   4.571
47981W        W20296  32.024  23.576  14.839
47982W        W20297  22.128  21.590  14.504
47983W        W20298  17.159   7.287  11.856
47984W        W20299  30.271  15.448   2.710
47985W        W20300   4.361  22.505   4.072
47986W        W20301  27.484   6.270  11.508
47987W        W20302   9.683  30.844  14.741
47988W        W20303  28.078   7.329  12.679
47989W        W20304  27.903  17.922  11.098
47990W        W20305   6.602  38.230   2.349
47991W        W20306  28.397  18.757  11.438
47992W        W20307  25.994  20.911   3.301
47993W        W20308   2.738  26.736  14.918
47994W        W20309  23.702  24.640   3.550
47995W        W20310  19.790  11.888   0.025
47996W        W20311  26.603  22.093  14.753
47997W        W20312  21.297  34.043   3.688
47998W        W20313   4.932   7.764  12.923
47999W        W20314  23.527  33.829   3.283
48000W        W20315  20.203  41.612  13.929
48001W        W20316  25.473  22.014  14.447
48002W        W20317  38.630  32.462  14.968
48003W        W20318   3.759  31.690  11.195
48004W        W20319  22.476  40.885   1.365
48005W        W20320  31.671  35.870  12.412
48006W        W20321  44.194   7.416  11.449
48007W        W20322   9.723  26.597  12.240
48008W        W20323  11.424  38.947  10.724
48009W        W20324  13.440  25.558  14.760
48010W        W20325  22.520  41.250  11.620
48011W        W20326   8.428   3.636  11.530
48012W        W20327   7.328   2.738  12.425
48013W        W20328  44.799   5.695  13.899
48014W        W20329  36.444   4.531   5.185
48015W        W20330  29.368  38.443  11.615
48016W        W20331  33.674  21.957  12.026
48017W        W20332  15.682  27.635  11.103
48018W        W20333  38.649  44.293   4.572
48019W        W20334  29.661  16.872   1.221
48020W        W20335  17.418  17.610   2.752
48021W        W20336  41.026   0.502  14.536
48022W        W20337  21.287  28.089  12.886
48023W        W20338  22.634  29.559   2.756
48024W        W20339  20.328   3.206   2.826
48025W        W20340  19.255  34.431   2.775
48026W        W20341  27.853   0.847   5.145
48027W        W20342   0.551  24.178   1.006
48028W        W20343   4.625  10.911  11.615
48029W        W20344  35.172  12.161  10.469
48030W        W20345  31.784  21.330  11.670
48031W        W20346  43.003  43.379  12.355
48032W        W20347  30.724  18.936   1.686
48033W        W20348  15.508  21.395   2.854
48034W        W20349  33.146  14.110  13.251
48035W        W20350   6.946  26.226  14.350
48036W        W20351  37.495  11.877   5.128
48037W        W20352  15.675   9.364   2.169
48038W        W20353  10.701   9.319   0.103
48039W        W20354   0.250  30.056  11.846
48040W        W20355   4.693  16.247  10.368
48041W        W20356  22.953  30.595   4.308
48042W        W20357  44.789   4.684  12.513
48043W        W20358   3.631  23.548  14.476
48044W        W20359  20.120  33.036   3.590
48045W        W20360  14.613  35.026  12.886
48046W        W20361   9.861  34.763   0.421
48047W        W20362  10.357  25.499  10.979
48048W        W20363   5.846  33.143  13.052
48049W        W20364  13.087  11.301  11.475
48050W        W20365  14.306   0.818  11.485
48051W        W20366  34.555   3.935   0.501
48052W        W20367   1.440  30.508  10.696
48053W        W20368  44.772  22.291   0.592
48054W        W20369  38.974   3.113   5.354
48055W        W20370  35.357  22.168  10.733
48056W        W20371   3.488   9.613   4.397
48057W        W20372  24.102  34.005  12.549
48058W        W20373  24.927  10.929  13.217
48059W        W20374  25.901   5.422  12.924
48060W        W20375  35.053  21.291  12.086
48061W        W20376  26.681  37.044  11.279
48062W        W20377  19.086   1.916  11.620
48063W        W20378  42.034  16.190   0.810
48064W        W20379  43.323  22.703  14.537
48065W        W20380  26.705  29.374  12.139
48066W        W20381  36.476  43.500   4.925
48067W        W20382  18.651  17.795  11.983
48068W        W20383   5.432  23.160  14.583
48069W        W20384   0.801  18.845  11.100
48070W        W20385  30.243  40.477  14.501
48071W        W20386  37.278  11.238   3.684
48072W        W20387  36.542  19.838   3.898
48073W        W20388  35.117  18.663   4.550
48074W        W20389   6.641  42.259   4.212
48075W        W20390  44.608   1.321   0.201
48076W        W20391   0.257  30.863   2.793
48077W        W20392   6.858   3.294  12.002
48078W        W20393  40.550  11.319   4.171
48079W        W20394   8.007  32.281   1.636
48080W        W20395  34.037  42.551  12.822
48081W        W20396  26.852  22.074  11.019
48082W        W20397  32.978   9.114  14.861
48083W        W20398  21.437   8.142   2.629
48084W        W20399  23.109  34.957   1.200
48085W        W20400   1.830  12.678  14.108
48086W        W20401   3.317  38.559  12.021
48087W        W20402  20.295   8.958  12.550
48088W        W20403  17.674   5.970  10.897
48089W        W20404   2.874   9.493  11.043
48090W        W20405  24.050   0.380   1.064
48091W        W20406  11.408   9.404   2.696
48092W        W20407  29.974  37.816   1.287
48093W        W20408  44.876  10.047   0.896
48094W        W20409  15.128   0.846  12.405
48095W        W20410  37.879   5.723  12.048
48096W        W20411  18.522   1.410  13.478
48097W        W20412  26.274  43.775   0.106
48098W        W20413   7.643  17.843   0.074
48099W        W20414  15.103  31.996  10.617
48100W        W20415  42.487  24.620   3.315
48101W        W20416   7.494   9.106  12.036
48102W        W20417  14.855  35.465  14.049
48103W        W20418   7.199  25.276  13.813
48104W        W20419   2.966  19.289  13.028
48105W        W20420  20.759  34.749   9.963
48106W        W20421  32.243  11.763  12.322
48107W        W20422  18.363  16.299   0.846
48108W        W20423  30.100  38.266  12.572
48109W        W20424  37.145  19.139  13.976
48110W        W20425  36.527  18.935   2.166
48111W        W20426  16.318  19.622  11.895
48112W        W20427  29.635  40.302   0.834
48113W        W20428   3.649  25.190   4.980
48114W        W20429  20.690  17.116   1.638
48115W        W20430  16.785  19.537   1.006
48116W        W20431  21.561  22.761   3.642
48117W        W20432  10.602  41.874  12.281
48118W        W20433  21.627  43.913   0.645
48119W        W20434  31.521  29.195   2.850
48120W        W20435  17.119  35.793   3.894
48121W        W20436  26.126  44.666  12.944
48122W        W20437  32.325   9.282   0.352
48123W        W20438  12.794  37.464  14.433
48124W        W20439  38.945  34.288  10.903
48125W        W20440  31.548  27.197   4.664
48126W        W20441  15.373  27.891  14.921
48127W        W20442   9.455  18.502   4.194
48128W        W20443  40.600   7.940  14.447
48129W        W20444  13.320  18.538   2.325
48130W        W20445   0.753  27.947  12.863
48131W        W20446  32.065  38.550   4.047
48132W        W20447   1.734  14.133   2.656
48133W        W20448  23.758   8.876  13.468
48134W        W20449  38.036  35.872   3.439
48135W        W20450   3.365  12.885   4.554
48136W        W20451  33.605  30.012   1.644
48137W        W20452  33.952  23.692  12.676
48138W        W20453  36.121  44.015   0.195
48139W        W20454   6.177  36.424  11.224
48140W        W20455  17.287  44.189   2.261
48141W        W20456  37.854  41.530  13.890
48142W        W20457  43.235  33.018  11.546
48143W        W20458   7.367   5.725   3.851
48144W        W20459  15.385  28.761  14.265
48145W        W20460   3.072  34.525   4.279
48146W        W20461  34.132  36.017   3.157
48147W        W20462  35.889  35.439   4.043
48148W        W20463  18.066  41.366  13.790
48149W        W20464  15.230  16.305   3.279
48150W        W20465   9.833  34.457  10.593
48151W        W20466  44.766  27.974  11.157
48152W        W20467  18.662   4.252   1.294
48153W        W20468  29.918  23.598   2.574
48154W        W20469  25.725  21.319  11.039
48155W        W20470   8.823  24.893   2.952
48156W        W20471  30.647   9.810   2.072
48157W        W20472  21.109  17.300   1.389
48158W        W20473   9.194  33.055   1.710
48159W        W20474   7.795   2.063  10.280
48160W        W20475  25.236  33.714  14.462
48161W        W20476  42.347   9.891  13.517
48162W        W20477  27.739  15.321   4.061
48163W        W20478  22.705  14.325   3.684
48164W        W20479  15.910  21.121   5.359
48165W        W20480  17.881  41.502   1.389
48166W        W20481  20.128  28.026  14.768
48167W        W20482  35.104  20.502  13.624
48168W        W20483  13.626  20.251  13.324
48169W        W20484  12.699  29.636   3.094
48170W        W20485  30.727   0.289  11.594
48171W        W20486  30.438  25.178  14.320
48172W        W20487   9.069   2.913   5.375
48173W        W20488  10.366   6.761   0.531
48174W        W20489  24.116   8.352   0.814
48175W        W20490   4.069  11.635  14.920
48176W        W20491  22.418   3.684   4.056
48177W        W20492  29.661  11.635  11.056
48178W        W20493  22.887   0.477  12.073
48179W        W20494   2.045  32.877  13.970
48180W        W20495   1.053  20.653   2.415
48181W        W20496  11.672   9.602   4.136
48182W        W20497   4.075  43.781   3.963
48183W        W20498  22.134  30.646  10.749
48184W        W20499  27.670  18.987   1.893
48185W        W20500  15.629  43.609  11.940
48186W        W20501  21.125  32.543   2.438
48187W        W20502  10.747  23.904   0.000
48188W        W20503  43.286  24.165  12.649
48189W        W20504  30.310   9.412  14.494
48190W        W20505  34.010  33.365  14.845
48191W        W20506  32.667  24.204  11.686
48192W        W20507  19.258   0.366  11.116
48193W        W20508  27.861  21.679  13.256
48194W        W20509  40.310  36.490   0.905
48195W        W20510  17.074  19.318   3.561
48196W        W20511  31.767  18.678  11.047
48197W        W20512   2.017  38.870  12.937
48198W        W20513  10.230   1.920  14.030
48199W        W20514  14.213  33.929   0.053
48200W        W20515   1.976   9.896  14.878
48201W        W20516  15.740  42.270   1.336
48202W        W20517  13.594  19.803  11.039
48203W        W20518   8.155   0.936  11.033
48204W        W20519  37.107   6.208  11.948
48205W        W20520  37.468  10.750   2.880
48206W        W20521  33.667  16.901   4.275
48207W        W20522  20.393  34.555   3.720
48208W        W20523  33.914  36.140   4.576
48209W        W20524  21.078  14.336  14.763
48210W        W20525  42.586  16.620   1.464
48211W        W20526  22.755   8.884   4.636
48212W        W20527  42.354  17.599  11.613
48213W        W20528  24.724  40.170  12.490
48214W        W20529  14.547  21.069  12.905
48215W        W20530   4.913   8.308  11.205
48216W        W20531  19.690  12.618  14.556
48217W        W20532  10.812  28.146   2.752
48218W        W20533  31.631  37.997  10.748
48219W        W20534  33.010   3.516  14.933
48220W        W20535  35.978  26.686   0.359
48221W        W20536  18.876  16.388  13.968
48222W        W20537  15.636  12.705   1.184
48223W        W20538  29.456   3.418   5.034
48224W        W20539  39.299  30.336  12.452
48225W        W20540   3.475   8.666   4.766
48226W        W20541  32.052  23.785   4.986
48227W        W20542   4.932   3.883   0.241
48228W        W20543   0.511  13.063   1.197
48229W        W20544  10.958  35.551  11.610
48230W        W20545  20.469  11.728  13.409
48231W        W20546   7.678  33.421  13.327
48232W        W20547  27.514  31.279   0.917
48233W        W20548  20.658  34.053   2.859
48234W        W20549  44.840  22.774   2.305
48235W        W20550  26.198  15.309  14.431
48236W        W20551  29.937  37.393   4.956
48237W        W20552  32.046  27.858  14.825
48238W        W20553  27.166   6.430  11.085
48239W        W20554   9.668  12.639   1.394
48240W        W20555  19.132  15.446  12.586
48241W        W20556  21.529   3.156  11.686
48242W        W20557  43.251  41.518   1.839
48243W        W20558  16.231  41.980   0.642
48244W        W20559   8.779  11.468  13.404
48245W        W20560   1.503  26.179   2.348
48246W        W20561  29.712  24.586  10.983
48247W        W20562  33.710  19.293   4.182
48248W        W20563  29.450  41.996   2.187
48249W        W20564  20.153   3.229  12.613
48250W        W20565  13.284  12.500  14.390
48251W        W20566  32.540  36.529   0.293
48252W        W20567  35.443   9.016  12.674
48253W        W20568   0.276  32.857   5.542
48254W        W20569  16.486  16.138  11.405
48255W        W20570  19.517  30.927  10.413
48256W        W20571  20.264  39.584   1.130
48257W        W20572  40.794  16.465  12.924
48258W        W20573  10.725  39.916  12.004
48259W        W20574   7.082  20.544  14.918
48260W        W20575  14.736  12.675  10.609
48261W        W20576  14.516  13.127   3.210
48262W        W20577   6.368  14.727  14.524
48263W        W20578  20.282  33.802  14.791
48264W        W20579  36.491  14.652  14.335
48265W        W20580  31.360  17.873  10.958
48266W        W20581  21.767  35.480   2.767
48267W        W20582  29.494  38.793  12.948
48268W        W20583   9.389  27.560  13.982
48269W        W20584   1.260  22.173   4.076
48270W        W20585  44.453  39.815   3.751
48271W        W20586  14.213  20.279   1.841
48272W        W20587  30.576   4.738  12.939
48273W        W20588  12.741  24.291  11.301
48274W        W20589  23.018  33.889   3.112
48275W        W20590  29.083  18.093  11.552
48276W        W20591  19.968  37.781   0.328
48277W        W20592  28.142  39.058  13.485
48278W        W20593   0.366  43.257  12.649
48279W        W20594  20.994   2.486  14.530
48280W        W20595  30.898   3.396   1.425
48281W        W20596   1.232  19.959  13.208
48282W        W20597   6.915  22.391  13.030
48283W        W20598   9.155   4.964  12.496
48284W        W20599   9.802  40.745  11.112
48285W        W20600  20.238  23.699   5.088
48286W        W20601  24.217   8.807   2.353
48287W        W20602  35.370   2.880   2.847
48288W        W20603  39.504  20.093   3.678
48289W        W20604  12.350  32.386   0.731
48290W        W20605  31.252  37.632  11.886
48291W        W20606  19.111   6.936  12.667
48292W        W20607  20.525   5.361  14.922
48293W        W20608  12.417  20.744   1.262
48294W        W20609   7.053   7.499  11.166
48295W        W20610  20.662   9.640   3.963
48296W        W20611   8.681  43.514   2.847
48297W        W20612  13.286  37.319   4.099
48298W        W20613  36.491  14.108  14.371
48299W        W20614  20.071  21.377  11.514
48300W        W20615  19.520  11.237  14.287
48301W        W20616  35.384   8.986  14.882
48302W        W20617  34.814  26.385   2.200
48303W        W20618   6.654  27.214   3.609
48304W        W20619  13.979  37.563   0.408
48305W        W20620  19.326  11.742   0.207
48306W        W20621  29.099  39.864  14.310
48307W        W20622  34.815  10.848  11.145
48308W        W20623  41.714  34.883   3.668
48309W        W20624  25.308   4.265  12.969
48310W        W20625  26.395   7.603   1.795
48311W        W20626  42.898  30.151   3.474
48312W        W20627  16.352  13.655  12.942
48313W        W20628  20.818   4.616  11.560
48314W        W20629  28.746  32.130  15.000
48315W        W20630  41.424  35.792  12.844
48316W        W20631  39.438  36.288   2.257
48317W        W20632  40.027  16.366  14.261
48318W        W20633  34.092  31.377   1.754
48319W        W20634   5.940  28.502  13.153
48320W        W20635  31.666  35.373   0.425
48321W        W20636  31.116  14.110  14.459
48322W        W20637  10.189  32.071   1.808
48323W        W20638  27.994  25.600   0.871
48324W        W20639  43.847  29.548   2.028
48325W        W20640  30.553  11.774   1.746
48326W        W20641   4.098  26.985   1.809
48327W        W20642  34.378  21.502  10.719
48328W        W20643  12.934   8.571  13.425
48329W        W20644  32.188   6.707  10.766
48330W        W20645  14.652   9.779   3.291
48331W        W20646   7.985  18.203   5.119
48332W        W20647  26.527   1.527   2.314
48333W        W20648   3.340   6.962   3.105
48334W        W20649  36.571  24.468   0.381
48335W        W20650   9.810   0.989   3.604
48336W        W20651  23.462  33.037  13.996
48337W        W20652  30.928  28.082  13.968
48338W        W20653   1.434   8.870  13.444
48339W        W20654  11.667  37.881   0.538
48340W        W20655  24.562  33.557   4.874
48341W        W20656   5.695   4.375  11.168
48342W        W20657  30.445  18.683  11.663
48343W        W20658   0.116  33.496   4.590
48344W        W20659  17.086  39.290  14.525
48345W        W20660  32.036  30.986   3.774
48346W        W20661   8.041  37.477  11.553
48347W        W20662  15.109  25.928   3.893
48348W        W20663   5.272  33.984   1.288
48349W        W20664   5.277  43.416  11.978
48350W        W20665  39.427  30.655  10.512
48351W        W20666  42.755   7.877   2.267
48352W        W20667  44.743   8.786  10.583
48353W        W20668  11.703  37.575   3.728
48354W        W20669   4.732  18.210   5.136
48355W        W20670   1.580  41.465   1.277
48356W        W20671  26.520  25.048   3.101
48357W        W20672  12.320  37.227  14.446
48358W        W20673  27.532  20.194   0.940
48359W        W20674  19.163  43.953  10.985
48360W        W20675  31.390   2.066  11.133
48361W        W20676  29.409  11.575   4.532
48362W        W20677  21.200  17.556  12.784
48363W        W20678  26.965   4.197  13.690
48364W        W20679  23.575   0.425  13.345
48365W        W20680   5.914  21.136   1.909
48366W        W20681  44.639  21.739  12.427
48367W        W20682  27.546  28.904  12.795
48368W        W20683   0.752  41.276  13.619
48369W        W20684  42.921  33.176  14.699
48370W        W20685  20.269  44.627   3.139
48371W        W20686  20.630  26.425  12.793
48372W        W20687  40.196   1.125   3.702
48373W        W20688  12.660  44.299   3.273
48374W        W20689  41.417   6.274  11.994
48375W        W20690  13.701  35.874  13.824
48376W        W20691  13.820  31.146   2.440
48377W        W20692  36.985  13.519  10.938
48378W        W20693  35.863  32.095   3.568
48379W        W20694   0.467  36.543   2.417
48380W        W20695  12.182  23.805  13.967
48381W        W20696  13.448  40.370  13.044
48382W        W20697  11.845  22.780  10.950
48383W        W20698  37.143  15.108  12.499
48384W        W20699  23.069  34.953  14.775
48385W        W20700  17.270  23.575  13.475
48386W        W20701  40.894  15.339  12.447
48387W        W20702   7.226  27.061  11.821
48388W        W20703  33.804  27.210   0.752
48389W        W20704  44.936  30.246  12.219
48390W        W20705  38.818  33.968  12.489
48391W        W20706  33.673  33.616  13.573
48392W        W20707  26.453   2.301  12.997
48393W        W20708  14.669  20.909   0.328
48394W        W20709  19.243  25.186   2.960
48395W        W20710  37.303  33.486   3.636
48396W        W20711  10.691  38.388   0.325
48397W        W20712  44.943  30.713  14.015
48398W        W20713  22.980   8.793  12.659
48399W        W20714  37.456  13.877   0.768
48400W        W20715  22.107  34.623  12.369
48401W        W20716  26.783  40.345   4.573
48402W        W20717   0.532  10.658   4.055
48403W        W20718  18.066  12.753   3.338
48404W        W20719  30.208  18.072   3.604
48405W        W20720  17.203   7.820   2.614
48406W        W20721  31.217  27.404   1.654
48407W        W20722  40.469  10.379   1.908
48408W        W20723  11.280  40.744   3.957
48409W        W20724  33.330  33.901  11.155
48410W        W20725  43.155  39.111  13.316
48411W        W20726  29.677   5.437  11.001
48412W        W20727  42.773  17.082  11.908
48413W        W20728  32.658  29.917  11.577
48414W        W20729  34.582  18.075   1.771
48415W        W20730  34.502   9.215   3.320
48416W        W20731   5.656   9.790  13.886
48417W        W20732  37.015  20.688   4.119
48418W        W20733  28.584  28.220   0.399
48419W        W20734  13.871  30.444   3.109
48420W        W20735  13.741  26.133  13.971
48421W        W20736   6.208  35.172   4.693
48422W        W20737  40.128  41.660  11.079
48423W        W20738   5.960  30.989  11.486
48424W        W20739  31.979  19.747   4.140
48425W        W20740  42.905  37.039  11.295
48426W        W20741   5.358  11.269   0.005
48427W        W20742  28.296  39.555  13.472
48428W        W20743  31.088  28.995  13.946
48429W        W20744  11.314  29.117  10.359
48430W        W20745  21.849  42.559  10.661
48431W        W20746  35.067  35.322  12.051
48432W        W20747  16.750  22.729   4.257
48433W        W20748   4.929  25.987  14.248
48434W        W20749  42.848  13.108   1.594
48435W        W20750  24.278  43.313   3.841
48436W        W20751  25.629   0.333  12.347
48437W        W20752   3.648  39.282   2.868
48438W        W20753  16.195  19.118  11.638
48439W        W20754  31.421  11.328   9.843
48440W        W20755   9.618  15.800   4.930
48441W        W20756  12.271  27.763  13.613
48442W        W20757  14.586  16.221   2.599
48443W        W20758  15.566  28.361  14.888
48444W        W20759  13.189  20.306  12.410
48445W        W20760  27.376  13.618   1.901
48446W        W20761  20.909  44.209  12.613
48447W        W20762  22.575  13.880  10.431
48448W        W20763   3.578  32.659  12.128
48449W        W20764  37.153  29.381  10.859
48450W        W20765  12.554  21.957  10.918
48451W        W20766  35.041  12.767   0.387
48452W        W20767  12.901  10.210   0.692
48453W        W20768  30.588  18.695   4.649
48454W        W20769  43.374  30.625   4.066
48455W        W20770  36.248  37.668   2.834
48456W        W20771   5.782  39.035  13.425
48457W        W20772  40.896  30.666   0.223
48458W        W20773  19.750  15.389  13.876
48459W        W20774   2.941  26.666   4.785
48460W        W20775  27.533  23.732  12.936
48461W        W20776  35.055   8.635  11.485
48462W        W20777  32.363  14.525   3.860
48463W        W20778   0.890   9.915   4.569
48464W        W20779  10.713  31.481   0.948
48465W        W20780  44.909  18.567  10.679
48466W        W20781  40.880  13.991   1.942
48467W        W20782  31.384  28.235   0.208
48468W        W20783  32.122  34.115   1.675
48469W        W20784  38.949   7.514   2.760
48470W        W20785  31.380  12.152  14.250
48471W        W20786  41.269   6.958  14.517
48472W        W20787  41.383  28.209   3.124
48473W        W20788  18.914  15.976  11.742
48474W        W20789  41.835  23.523   3.231
48475W        W20790   0.387  15.261  12.511
48476W        W20791  43.505  16.224  11.631
48477W        W20792  17.659  17.207   2.415
48478W        W20793  41.328  11.819   2.885
48479W        W20794   8.324   4.489   4.720
48480W        W20795  43.499  34.156  14.345
48481W        W20796  26.154  18.197  10.857
48482W        W20797  12.055   7.133  11.247
48483W        W20798  16.337  16.612  11.603
48484W        W20799  23.682  39.407   4.615
48485W        W20800  27.004  10.378   0.825
48486W        W20801  12.189  32.102   0.288
48487W        W20802  17.120   5.519  11.083
48488W        W20803   9.281  20.957  13.000
48489W        W20804  13.130  15.450   2.720
48490W        W20805  33.312  12.060   4.022
48491W        W20806  12.471  18.145   5.500
48492W        W20807   3.218  25.620  14.849
48493W        W20808  37.527  42.060  13.407
48494W        W20809   2.746   9.710   2.057
48495W        W20810  40.815  11.786  12.581
48496W        W20811  42.923  42.083   3.763
48497W        W20812  26.512  25.417   5.075
48498W        W20813  25.678  37.644   3.270
48499W        W20814  23.228  10.972   4.133
48500W        W20815  37.864  28.195   1.453
48501W        W20816  14.648  17.143   0.132
48502W        W20817  38.399  27.638   3.416
48503W        W20818  37.660  13.990  11.186
48504W        W20819   2.889  37.569  13.556
48505W        W20820   3.190  20.722  14.464
48506W        W20821  21.069  24.800   2.935
48507W        W20822  35.534  11.326   1.797
48508W        W20823  24.760  40.322  14.590
48509W        W20824  44.891  31.120   0.829
48510W        W20825  12.331   8.298  14.260
48511W        W20826  34.994  41.503   2.429
48512W        W20827   8.215  25.017   2.230
48513W        W20828  16.013  36.148   0.239
48514W        W20829   9.305  15.342  13.472
48515W        W20830  30.092  23.551   4.845
48516W        W20831  44.886  29.960  10.804
48517W        W20832  18.238  35.799   0.745
48518W        W20833  19.530   8.911  11.106
48519W        W20834  22.012  25.162   3.514
48520W        W20835  40.061  15.897  11.175
48521W        W20836  14.808  29.016  12.552
48522W        W20837  11.345  44.471   0.001
48523W        W20838  37.847  20.693   0.281
48524W        W20839  27.563  11.846   3.221
48525W        W20840   2.624  17.198   3.682
48526W        W20841   4.109  13.190  11.138
48527W        W20842  36.626  34.578   4.033
48528W        W20843  16.229  37.157  12.416
48529W        W20844   3.018  13.768   1.198
48530W        W20845  41.245   7.966  13.880
48531W        W20846  25.647  15.971   1.972
48532W        W20847   7.325  18.107  11.581
48533W        W20848  38.272  14.415  14.933
48534W        W20849  30.516   3.931   2.347
48535W        W20850  40.541  33.955   4.263
48536W        W20851  36.141  40.168   2.871
48537W        W20852  17.974  23.398  11.585
48538W        W20853   2.864  33.891  12.286
48539W        W20854   1.965  33.847   1.861
48540W        W20855  23.498  41.498  13.969
48541W        W20856  21.702  12.156  14.801
48542W        W20857  14.625  36.758   1.381
48543W        W20858   0.459  13.122   3.098
48544W        W20859  24.210  38.268   2.202
48545W        W20860  22.908  22.001   3.737
48546W        W20861  30.643   5.524   0.159
48547W        W20862   2.649  20.863   4.249
48548W        W20863  38.829  19.025  14.396
48549W        W20864   1.796  21.700   2.506
48550W        W20865   5.831  37.518  12.260
48551W        W20866   6.321  24.446  11.661
48552W        W20867   7.201   3.320   2.697
48553W        W20868  24.435   0.369  13.284
48554W        W20869  36.956   6.309  13.089
48555W        W20870  19.987  26.942  10.755
48556W        W20871  22.502   4.797  13.503
48557W        W20872  18.500  20.987  13.086
48558W        W20873  38.049  16.177   0.212
48559W        W20874  32.692  33.814  12.618
48560W        W20875   8.737   5.945   2.892
48561W        W20876  18.301  28.761   2.781
48562W        W20877   0.005  42.055   4.114
48563W        W20878  38.092  40.054  10.656
48564W        W20879  21.015   0.855  12.020
48565W        W20880   2.703  11.683  14.948
48566W        W20881  30.100   1.594   3.621
48567W        W20882  27.005  27.835  10.053
48568W        W20883  10.901  33.210   4.054
48569W        W20884  38.660   2.280   3.335
48570W        W20885   0.937  14.705   3.863
48571W        W20886   6.192   7.402   2.876
48572W        W20887  36.338  30.942  12.470
48573W        W20888  33.065  20.584   3.337
48574W        W20889  15.785  26.221   4.355
48575W        W20890  35.581   2.830   5.015
48576W        W20891  44.943  38.128   0.387
48577W        W20892   5.129  17.044  10.530
48578W        W20893  11.952  22.653  13.663
48579W        W20894  34.127   2.935   2.470
48580W        W20895   0.527  11.099  11.885
48581W        W20896  29.487  29.378   4.436
48582W        W20897  34.355  21.279   0.825
48583W        W20898  22.812  23.263   3.330
48584W        W20899   0.533   0.350  13.348
48585W        W20900  29.940  24.624  10.512
48586W        W20901  39.864  26.637  14.192
48587W        W20902  18.527   0.548  10.640
48588W        W20903  12.385  39.047   2.626
48589W        W20904  30.453  19.848   4.167
48590W        W20905  29.690   3.695   4.463
48591W        W20906  41.904  21.587  13.289
48592W        W20907  15.496  31.022  10.813
48593W        W20908  14.617  11.926   0.055
48594W        W20909  38.471  23.457  11.991
48595W        W20910  31.648  44.556   4.066
48596W        W20911   3.779   2.348  12.442
48597W        W20912  41.751  42.193  14.290
48598W        W20913  24.253   7.609   3.481
48599W        W20914  33.922  29.920   4.680
48600W        W20915  35.774  21.280  12.641
48601W        W20916  36.144  18.995  14.034
48602W        W20917   2.461  12.149  11.212
48603W        W20918  34.058  14.046   3.985
48604W        W20919   7.974  38.013   1.312
48605W        W20920  22.934   3.244  12.584
48606W        W20921  42.337  32.596   4.938
48607W        W20922  35.811  40.286   4.148
48608W        W20923  13.544  42.122  10.684
48609W        W20924  15.190  20.644  10.861
48610W        W20925  28.417   0.864  13.118
48611W        W20926  31.407  39.866   2.284
48612W        W20927  36.406  39.928   1.274
48613W        W20928  11.395  13.112   3.103
48614W        W20929  36.475  31.479  13.482
48615W        W20930  11.123  11.709  14.010
48616W        W20931  31.172  19.820  13.834
48617W        W20932  25.113  12.335  12.527
48618W        W20933  40.395   5.634  13.823
48619W        W20934  40.870  38.285   4.355
48620W        W20935  40.024  43.961  12.143
48621W        W20936   3.953  13.197   2.894
48622W        W20937  12.012  25.465  12.028
48623W        W20938  41.551  40.930   4.494
48624W        W20939  33.636  29.090  13.963
48625W        W20940  44.535  22.685   1.501
48626W        W20941  11.155  36.865   3.562
48627W        W20942  30.031   6.615   2.436
48628W        W20943  19.966   1.760   0.699
48629W        W20944   4.598  26.189   2.854
48630W        W20945   2.831  25.935  13.353
48631W        W20946  40.528  12.077  12.946
48632W        W20947  15.746  28.744   2.800
48633W        W20948  44.840   1.256   4.248
48634W        W20949   8.724  18.267  10.598
48635W        W20950  12.447  10.053  13.951
48636W        W20951  24.092  39.383   4.981
48637W        W20952  43.421  29.992   1.939
48638W        W20953  28.086  35.550  13.782
48639W        W20954  17.748   3.079  12.559
48640W        W20955  22.923  27.439  10.794
48641W        W20956  17.361  30.899   1.879
48642W        W20957  24.536  17.660   0.629
48643W        W20958  38.313  17.367   0.705
48644W        W20959  34.638  42.951  13.897
48645W        W20960  32.688  15.072   4.105
48646W        W20961  43.940  21.531  11.302
48647W        W20962   2.783  20.087   3.212
48648W        W20963  34.299  13.706   3.568
48649W        W20964   8.432  34.580   0.783
48650W        W20965  32.624  17.493   2.890
48651W        W20966  30.214   1.582  11.812
48652W        W20967  34.178  30.969  11.057
48653W        W20968  30.307  14.101   4.917
48654W        W20969  24.059  34.171  14.089
48655W        W20970  22.625  26.136  11.188
48656W        W20971  33.658  20.217   0.312
48657W        W20972  25.167  10.839   2.196
48658W        W20973  17.536  10.295   3.801
48659W        W20974   4.436  20.822  11.998
48660W        W20975   2.661  43.767  10.408
48661W        W20976  39.118  41.252   0.860
48662W        W20977  43.326   5.431  14.282
48663W        W20978  23.207  18.781  14.815
48664W        W20979  43.851  42.880   1.174
48665W        W20980  29.022  33.797  10.151
48666W        W20981   0.115   4.528   1.758
48667W        W20982  28.982  19.111  14.875
48668W        W20983   3.400   8.687  10.712
48669W        W20984  29.370  37.964   2.288
48670W        W20985  33.944  35.482   0.007
48671W        W20986  13.918   5.763  14.916
48672W        W20987  10.667  16.972  12.407
48673W        W20988   3.748  11.484   1.797
48674W        W20989  10.197  26.357   1.798
48675W        W20990  19.761   0.317  11.174
48676W        W20991  12.190  28.014   0.643
48677W        W20992  38.542  39.998   4.106
48678W        W20993  30.352   1.917   3.313
48679W        W20994  41.706  28.191   0.792
48680W        W20995  23.504   9.007   1.814
48681W        W20996  22.214  32.242   1.799
48682W        W20997  15.087  36.482   1.329
48683W        W20998  25.157  13.700   1.813
48684W        W20999   6.938  30.250   2.661
48685W        W21000  39.157   9.297  12.961
48686W        W21001  40.915  37.878  11.866
48687W        W21002   2.469  12.421   2.832
48688W        W21003   7.083  19.665  12.954
48689W        W21004  39.749  41.547   0.295
48690W        W21005  31.584   7.420  10.738
48691W        W21006   0.238  26.232  11.142
48692W        W21007  30.953  18.565   3.368
48693W        W21008  15.758  40.598  12.869
48694W        W21009   7.555  30.002  11.627
48695W        W21010  35.162  16.862  12.611
48696W        W21011  32.698  12.060   2.190
48697W        W21012  19.329  15.267  10.836
48698W        W21013  26.603  44.493   4.678
48699W        W21014  10.365  27.334  11.031
48700W        W21015   0.477  24.624   1.704
48701W        W21016   2.955  20.629   2.637
48702W        W21017  40.057  11.812  12.856
48703W        W21018  12.402  41.722   0.456
48704W        W21019   8.815  24.250  12.074
48705W        W21020  23.447  28.354   4.848
48706W        W21021  24.246  17.195  11.926
48707W        W21022  36.642   9.326  13.103
48708W        W21023  43.094  35.905   0.180
48709W        W21024  36.533  14.121   1.910
48710W        W21025  26.955  14.133   3.732
48711W        W21026  44.390   1.506   1.189
48712W        W21027   2.668  12.140   1.423
48713W        W21028  10.346  14.655   0.779
48714W        W21029   6.801   2.215   3.213
48715W        W21030  38.916  10.333  11.157
48716W        W21031  14.352  44.342   3.486
48717W        W21032  15.799   8.173  11.175
48718W        W21033  20.685  28.392  11.001
48719W        W21034  14.953  34.628   4.956
48720W        W21035  18.066  22.980   2.237
48721W        W21036  30.841   1.734   0.367
48722W        W21037  27.204  33.273  12.828
48723W        W21038  25.731  44.449  10.686
48724W        W21039  28.034   5.209   2.173
48725W        W21040  39.069  40.859   0.118
48726W        W21041  16.428  23.602   3.634
48727W        W21042   3.696   6.957   4.868
48728W        W21043  31.392  37.318  12.921
48729W        W21044  26.665  25.312  12.906
48730W        W21045  31.971  35.392  12.186
48731W        W21046  22.103   0.360   1.230
48732W        W21047  34.457  23.963  11.708
48733W        W21048  32.999   1.297   4.118
48734W        W21049  11.798   3.003   0.435
48735W        W21050  19.721  30.505  12.199
48736W        W21051  10.403   2.387   4.602
48737W        W21052  22.152  36.002  13.327
48738W        W21053  34.373  22.816  12.859
48739W        W21054  27.417   3.495  10.035
48740W        W21055  23.057  30.433   0.267
48741W        W21056  44.054  17.165  12.830
48742W        W21057   6.854  41.390   3.125
48743W        W21058  28.632   3.991   3.675
48744W        W21059  42.240   7.511   0.478
48745W        W21060  31.849   2.346  11.047
48746W        W21061   0.563  33.503   4.860
48747W        W21062  44.305   5.309  11.092
48748W        W21063  39.035   0.545  14.528
48749W        W21064   2.680  17.382   2.250
48750W        W21065   6.793  11.358   1.258
48751W        W21066  25.775  24.550   1.718
48752W        W21067   0.743   2.359  14.260
48753W        W21068  35.588  25.102  14.891
48754W        W21069   5.007  16.555  14.918
48755W        W21070  41.878  38.849  12.555
48756W        W21071  42.478  44.028   3.118
48757W        W21072  38.565  12.621  13.302
48758W        W21073   0.071  35.936   0.508
48759W        W21074  36.424   1.366   3.315
48760W        W21075  42.115  34.921   5.070
48761W        W21076   4.592  18.635  14.504
48762W        W21077   1.721  26.472  12.490
48763W        W21078  31.641   2.479  14.509
48764W        W21079  39.390  22.848  11.373
48765W        W21080  14.200   9.735   2.843
48766W        W21081  33.332  32.235   4.250
48767W        W21082  11.303  35.997   4.586
48768W        W21083  15.038  35.950   2.429
48769W        W21084   4.988   8.648   3.272
48770W        W21085  33.001  38.048   0.228
48771W        W21086  21.903  24.612  14.560
48772W        W21087  25.467  38.458   2.752
48773W        W21088   0.156  18.303   1.418
48774W        W21089  43.403  38.824   4.754
48775W        W21090  22.102  22.717  12.528
48776W        W21091  34.023  29.148  13.021
48777W        W21092  12.020  39.380   2.133
48778W        W21093  25.185   0.228  12.627
48779W        W21094  16.562  35.630  13.422
48780W        W21095  44.446  23.022  14.330
48781W        W21096  17.839  29.969  11.954
48782W        W21097  23.643  41.489  11.619
48783W        W21098  31.181  17.596   2.358
48784W        W21099  17.865  25.455  11.034
48785W        W21100   8.731  33.575   0.670
48786W        W21101   0.957   5.419  14.419
48787W        W21102  44.274  34.970   1.677
48788W        W21103  21.039  20.708   0.314
48789W        W21104  11.816  34.137  14.081
48790W        W21105   3.796  20.787  13.842
48791W        W21106  42.373   6.636   1.856
48792W        W21107  38.089  23.815  11.399
48793W        W21108   7.931  40.629  13.104
48794W        W21109   3.648  43.567  14.605
48795W        W21110  20.489  31.668   1.494
48796W        W21111   2.891  36.064  11.429
48797W        W21112  15.134  18.238  13.466
48798W        W21113  24.582  15.086  10.640
48799W        W21114   1.541  33.084   4.198
48800W        W21115  21.565  38.821   2.828
48801W        W21116  12.231  27.612  10.894
48802W        W21117  28.012  40.698   0.347
48803W        W21118  43.354  42.396   2.177
48804W        W21119  16.240  16.836  13.433
48805W        W21120  23.170  23.309   4.218
48806W        W21121  38.195  15.300  13.358
48807W        W21122  35.016  44.391  10.781
48808W        W21123  16.692  14.212   1.335
48809W        W21124  30.111  37.510   3.963
48810W        W21125  18.677  16.841   3.763
48811W        W21126  13.284  34.480   4.180
48812W        W21127   1.283   8.243  13.638
48813W        W21128  35.270  18.678  10.959
48814W        W21129  20.443  31.179  11.934
48815W        W21130   0.351  21.402  11.156
48816W        W21131  13.542  22.545   4.468
48817W        W21132  43.797  43.949  12.980
48818W        W21133  19.244  36.297   1.108
48819W        W21134  15.096   4.919   4.633
48820W        W21135  27.054  22.260  14.596
48821W        W21136  18.564  12.352  13.044
48822W        W21137   4.589  44.869  11.396
48823W        W21138  29.397  17.717  13.734
48824W        W21139   9.755  23.048   0.377
48825W        W21140   1.929   0.175  13.861
48826W        W21141  38.390  17.166   3.282
48827W        W21142  30.897   4.360   1.370
48828W        W21143   3.406  28.644  14.978
48829W        W21144  36.154  15.283   3.066
48830W        W21145  34.133  24.423   1.738
48831W        W21146  29.891  37.131  14.815
48832W        W21147  30.091   6.726  12.808
48833W        W21148  32.048  30.982   2.887
48834W        W21149  15.196  40.069   1.283
48835W        W21150  10.256  32.968   1.699
48836W        W21151  17.715   3.052   2.764
48837W        W21152  43.009   4.309   4.267
48838W        W21153  13.328  39.814  11.082
48839W        W21154  27.870  10.937   3.486
48840W        W21155  32.970  26.529   4.280
48841W        W21156  23.811   6.921  13.990
48842W        W21157  25.628   7.245   0.289
48843W        W21158  23.807  24.963   2.451
48844W        W21159   6.180   7.229  14.400
48845W        W21160  15.342  35.465  14.258
48846W        W21161  18.272  22.757  13.289
48847W        W21162  34.993  25.158   3.148
48848W        W21163  31.949   8.926   0.324
48849W        W21164  29.281  19.850   4.146
48850W        W21165   0.835  42.360   1.798
48851W        W21166   5.442  17.297   2.002
48852W        W21167  39.138  12.103   2.678
48853W        W21168   9.117  38.372   4.371
48854W        W21169  39.959  14.828   4.446
48855W        W21170  18.825  19.551   2.095
48856W        W21171  37.934  25.928   3.503
48857W        W21172  31.355  37.322  11.485
48858W        W21173   1.290   4.904  11.224
48859W        W21174  41.617  43.415   1.505
48860W        W21175   9.812  15.099   2.345
48861W        W21176  32.748  23.802  11.216
48862W        W21177  36.620   5.010  12.335
48863W        W21178   7.957  43.838  10.719
48864W        W21179   1.343   6.455  13.732
48865W        W21180  14.647  37.638  11.636
48866W        W21181  43.418   6.778   3.200
48867W        W21182  11.933  36.115   0.625
48868W        W21183  16.874  39.140  11.361
48869W        W21184  41.808   6.856   4.066
48870W        W21185  15.260   0.280  13.679
48871W        W21186  41.623  35.086   1.805
48872W        W21187  22.575  41.016   3.701
48873W        W21188  37.583  30.517  13.384
48874W        W21189  41.389  16.647  14.139
48875W        W21190   3.862  33.126   0.785
48876W        W21191  42.836   4.684  14.253
48877W        W21192  29.675  26.971  13.603
48878W        W21193  10.333  44.532   1.915
48879W        W21194  20.219  19.779   1.971
48880W        W21195  22.245  35.540   0.458
48881W        W21196   9.268  25.999  11.579
48882W        W21197  43.325  30.413  14.583
48883W        W21198  35.166  30.620  10.631
48884W        W21199  35.025  29.635  14.805
48885W        W21200  24.851  13.389  14.341
48886W        W21201  30.566   5.972   1.892
48887W        W21202   7.430  23.443  12.490
48888W        W21203  19.655   3.943  13.435
48889W        W21204  34.875  36.407  13.840
48890W        W21205  23.191  32.144   2.176
48891W        W21206  18.769  17.737  13.836
48892W        W21207  33.988  33.502  13.982
48893W        W21208  27.203  23.948  10.761
48894W        W21209  11.145  21.494   0.773
48895W        W21210  30.437  41.535   0.037
48896W        W21211  31.821  31.140   2.446
48897W        W21212  25.317  39.312  13.242
48898W        W21213  32.537  43.852  11.596
48899W        W21214  19.694  15.767   4.558
48900W        W21215  41.548   3.625  12.590
48901W        W21216   5.879  39.175   3.107
48902W        W21217   9.021  19.941   0.922
48903W        W21218  21.583   7.246  14.479
48904W        W21219   5.976  37.634  11.775
48905W        W21220  11.368  24.661   4.343
48906W        W21221  34.059   1.803  14.285
48907W        W21222  38.379  32.858   3.017
48908W        W21223  13.759  10.874  14.777
48909W        W21224  25.206  29.428  13.391
48910W        W21225  41.904  29.669   4.729
48911W        W21226  12.283  42.403   3.680
48912W        W21227   7.173  35.240  14.340
48913W        W21228  36.053   1.068   5.123
48914W        W21229  40.148  25.348  13.405
48915W        W21230  23.301  32.973  14.499
48916W        W21231  44.893  31.075  12.700
48917W        W21232  42.539  10.277   3.241
48918W        W21233  21.975  30.475   0.832
48919W        W21234  14.212  34.507   4.133
48920W        W21235  14.047   4.452   1.290
48921W        W21236  33.975  16.642   0.319
48922W        W21237  40.517  34.296  14.495
48923W        W21238  13.276   0.539   3.668
48924W        W21239  41.414  22.209   2.879
48925W        W21240  23.147  26.041  10.983
48926W        W21241  19.785   2.942   3.112
48927W        W21242  35.462   4.234  13.074
48928W        W21243  12.171  22.822   2.360
48929W        W21244   6.106  33.669   3.759
48930W        W21245  26.141  13.221   3.846
48931W        W21246  29.052  24.799   4.624
48932W        W21247  20.575   2.742   4.087
48933W        W21248  34.114   0.018   0.528
48934W        W21249  11.246  42.703   0.293
48935W        W21250  12.409   0.275   2.250
48936W        W21251   4.512  11.800   2.139
48937W        W21252   1.956  17.630  12.119
48938W        W21253  24.268  35.572  14.333
48939W        W21254  42.910  33.171  13.301
48940W        W21255  34.451  35.727   3.634
48941W        W21256   2.342  29.603   5.012
48942W        W21257  12.810   8.802  10.679
48943W        W21258  43.081  18.007  14.947
48944W        W21259   4.495  12.060   4.866
48945W        W21260  23.759  29.765  14.526
48946W        W21261  26.146  43.171  12.005
48947W        W21262   9.693  23.982   3.983
48948W        W21263  27.284  37.840  10.973
48949W        W21264  21.078   2.847   2.832
48950W        W21265  35.663  27.566   3.873
48951W        W21266   0.558  17.504  10.918
48952W        W21267  25.930   5.039  14.836
48953W        W21268  11.960  32.429   4.114
48954W        W21269   0.286  13.690   4.311
48955W        W21270  33.159  34.608   3.601
48956W        W21271  36.816   2.338  12.977
48957W        W21272  21.739  35.307  14.979
48958W        W21273  33.849  37.852   0.891
48959W        W21274  13.259  17.300   4.113
48960W        W21275  25.638  12.581  11.609
48961W        W21276  34.949   2.539   0.692
48962W        W21277  38.511  13.922   0.837
48963W        W21278  24.704  19.136  10.961
48964W        W21279  18.573   5.778   0.428
48965W        W21280  40.614  43.250   4.217
48966W        W21281   4.880  33.454  12.407
48967W        W21282   7.906  29.798   2.615
48968W        W21283   1.424  19.614   3.382
48969W        W21284  12.225  30.496   2.246
48970W        W21285  24.138  41.505   3.230
48971W        W21286  37.348  33.382  12.437
48972W        W21287  38.959   4.896  13.037
48973W        W21288  38.473  31.666   1.039
48974W        W21289  13.422  22.183  11.940
48975W        W21290   7.374  43.482  11.548
48976W        W21291  11.707  28.669  12.056
48977W        W21292  40.976  29.752  14.891
48978W        W21293  25.836  10.014  11.291
48979W        W21294  33.983  19.986  12.850
48980W        W21295  36.449  22.275  12.890
48981W        W21296  17.686  11.792  10.887
48982W        W21297  33.608  32.181  13.845
48983W        W21298  16.488   9.563   5.437
48984W        W21299  14.649  25.597   3.810
48985W        W21300  37.853  17.071   2.103
48986W        W21301  43.090   1.930  14.867
48987W        W21302  26.599  33.160  12.026
48988W        W21303  23.357  38.373   4.277
48989W        W21304  18.523   6.108  14.891
48990W        W21305  11.277  25.065  14.564
48991W        W21306  33.582  20.339  12.787
48992W        W21307  28.583  43.059   0.524
48993W        W21308  12.746   6.679  13.344
48994W        W21309   0.017  14.111  14.880
48995W        W21310   2.845   0.791  13.177
48996W        W21311   3.740  40.062   1.885
48997W        W21312   2.734  44.941   4.066
48998W        W21313  32.897  11.196  13.336
48999W        W21314  44.878  44.267   4.253
49000W        W21315  12.215  18.151   3.657
49001W        W21316   2.701  32.266   3.225
49002W        W21317  22.667  40.619   3.390
49003W        W21318  15.726  22.246  11.840
49004W        W21319   3.504  30.093   1.045
49005W        W21320  15.253  31.024  14.011
49006W        W21321  16.597  13.550   4.069
49007W        W21322  34.827  41.792  12.786
49008W        W21323  16.262  17.354  11.137
49009W        W21324  36.548  30.582  13.386
49010W        W21325  24.000  39.234   1.367
49011W        W21326  29.122  31.046   3.283
49012W        W21327   1.906  24.113  12.958
49013W        W21328   4.133   2.465  12.091
49014W        W21329  28.490  38.570  10.685
49015W        W21330  14.836  17.462   0.529
49016W        W21331  30.857   9.388  13.766
49017W        W21332  24.019   4.816   2.739
49018W        W21333  15.304   4.713  11.512
49019W        W21334   8.959  38.992  13.906
49020W        W21335  27.135  44.441   2.839
49021W        W21336  29.487   6.798   0.443
49022W        W21337  10.115  31.157   3.187
49023W        W21338  13.378  29.150  13.504
49024W        W21339   9.433  22.717  12.449
49025W        W21340   9.162   1.970  10.627
49026W        W21341  34.370   8.957  12.406
49027W        W21342  10.258   1.743   2.921
49028W        W21343   4.758  15.440  10.563
49029W        W21344   3.890  26.633   3.263
49030W        W21345  20.468  16.673   4.703
49031W        W21346  23.446   7.423   1.741
49032W        W21347  29.653  25.654   4.549
49033W        W21348   8.320  43.013  14.447
49034W        W21349  37.168  29.376   0.214
49035W        W21350  26.016  44.577  12.436
49036W        W21351  38.480  35.504   3.369
49037W        W21352  14.754   9.763   4.825
49038W        W21353  35.342   4.470   2.748
49039W        W21354  33.378   4.167   1.739
49040W        W21355  18.492   3.991  12.081
49041W        W21356  12.165  12.661   4.464
49042W        W21357  28.006   1.646  13.031
49043W        W21358  28.874  28.918   3.663
49044W        W21359  36.841  17.818  11.898
49045W        W21360  40.417  11.784   2.238
49046W        W21361  16.809   2.534   3.340
49047W        W21362  15.753  20.886  13.915
49048W        W21363  31.572   8.266  14.133
49049W        W21364  21.541  36.124  14.346
49050W        W21365  29.675   3.907   1.732
49051W        W21366  29.179  38.790   0.745
49052W        W21367   2.043  24.179  14.195
49053W        W21368  20.611  43.873  11.910
49054W        W21369   5.322  26.732   5.065
49055W        W21370  35.435   3.496  14.761
49056W        W21371  40.245  40.332  12.458
49057W        W21372  27.141  40.523   1.200
49058W        W21373   4.245  37.459   1.867
49059W        W21374  32.042   0.480   4.250
49060W        W21375  10.334  18.798   0.752
49061W        W21376  19.531   7.273  10.616
49062W        W21377  31.004   7.962  11.928
49063W        W21378  43.297  30.987  12.030
49064W        W21379   0.006  12.818   1.364
49065W        W21380  34.456  35.557  11.159
49066W        W21381  26.041  42.383   3.952
49067W        W21382  25.239  40.900  14.444
49068W        W21383  13.351   9.591   4.403
49069W        W21384   8.975  30.567   2.762
49070W        W21385   6.368   7.310   0.826
49071W        W21386  15.373  24.143  12.164
49072W        W21387   7.494  41.998  14.262
49073W        W21388  15.180  40.553   0.296
49074W        W21389   8.745   6.301   0.063
49075W        W21390  13.293   2.786   3.072
49076W        W21391   1.251   5.669  12.533
49077W        W21392  43.007  12.164   2.763
49078W        W21393  34.050  29.511  10.249
49079W        W21394  15.866  19.327   2.123
49080W        W21395   1.183  17.050   3.917
49081W        W21396  42.598  21.294  11.172
49082W        W21397  21.639  33.133  11.409
49083W        W21398  43.998  35.775  12.045
49084W        W21399  16.121  22.128   3.723
49085W        W21400  38.823  22.562   2.662
49086W        W21401  25.212  21.679   3.618
49087W        W21402  42.960  18.828  12.826
49088W        W21403  24.002  12.618  10.685
49089W        W21404  11.750  38.357   5.022
49090W        W21405  10.641  15.376  14.509
49091W        W21406   5.382  31.225   0.803
49092W        W21407  32.337  25.178  14.290
49093W        W21408  12.723  25.988  13.837
49094W        W21409   4.787  24.039  13.908
49095W        W21410   7.945  32.090   2.385
49096W        W21411  24.601  40.316  12.993
49097W        W21412   3.810  32.069  10.488
49098W        W21413   9.380  24.534  13.057
49099W        W21414  18.497  42.836  12.918
49100W        W21415   2.961   0.469   1.294
49101W        W21416  14.996  18.234   2.341
49102W        W21417  17.096  10.842  10.609
49103W        W21418  14.585  12.313   0.392
49104W        W21419  31.919  17.077   4.692
49105W        W21420  36.779  32.328   0.435
49106W        W21421  29.164  24.701   0.408
49107W        W21422  37.611  27.723  14.982
49108W        W21423  15.686   9.487  14.769
49109W        W21424  14.633  39.919  14.350
49110W        W21425   9.648  32.629   3.772
49111W        W21426  10.338  15.325   1.358
49112W        W21427  10.664  23.137  11.695
49113W        W21428  13.232  26.068  13.894
49114W        W21429  27.428  21.298  11.023
49115W        W21430  29.566   2.671   4.046
49116W        W21431  26.847  27.931   2.886
49117W        W21432   1.857   6.723  14.933
49118W        W21433   9.750  26.625   1.747
49119W        W21434  17.904  31.335  12.529
49120W        W21435  29.610  23.010   0.619
49121W        W21436  25.368   9.928   5.042
49122W        W21437  28.906  27.447  11.069
49123W        W21438   5.025  39.617   0.352
49124W        W21439   2.551  29.596  10.803
49125W        W21440  44.226  31.009  13.373
49126W        W21441  12.831  21.719  12.386
49127W        W21442  17.772  30.569  12.045
49128W        W21443  23.656  20.262  11.134
49129W        W21444  15.834  35.807  10.560
49130W        W21445  32.074  28.706  10.984
49131W        W21446  18.815   5.872  12.935
49132W        W21447  24.625  26.871  11.737
49133W        W21448  35.619   4.725   4.613
49134W        W21449  35.282  22.639  13.934
49135W        W21450   6.971  36.827  10.610
49136W        W21451   4.354  44.095   0.025
49137W        W21452   6.762  24.488  11.916
49138W        W21453  26.441  23.999  13.421
49139W        W21454  37.136   3.107  11.414
49140W        W21455  43.502  35.497   4.083
49141W        W21456  22.629  37.832  10.313
49142W        W21457  39.286  26.473  11.488
49143W        W21458  26.989  15.861  12.458
49144W        W21459  39.827  10.877  14.806
49145W        W21460  35.897  37.345  14.400
49146W        W21461  15.542   3.161   0.294
49147W        W21462  35.002   0.891  11.242
49148W        W21463  34.500  32.694   4.463
49149W        W21464  39.572   1.219  14.334
49150W        W21465  11.675  32.556  11.503
49151W        W21466  12.668   7.923   4.658
49152W        W21467  29.978  39.831   2.372
49153W        W21468  30.190   7.444  11.538
49154W        W21469  43.382  18.419  14.416
49155W        W21470   1.083  21.019   5.084
49156W        W21471  24.116  17.745   1.827
49157W        W21472  14.323   2.527   0.345
49158W        W21473   0.397   9.629  10.703
49159W        W21474   5.958  13.240  12.002
49160W        W21475  15.708  20.202  12.014
49161W        W21476   6.499  13.500   4.549
49162W        W21477  16.717  44.346   0.638
49163W        W21478  12.385  40.318  12.945
49164W        W21479  42.486  11.267  11.025
49165W        W21480   8.914  21.601   0.834
49166W        W21481  22.677  17.864  10.161
49167W        W21482  22.095  10.186   2.179
49168W        W21483  18.030  28.593   1.385
49169W        W21484  18.953  33.857   4.373
49170W        W21485  21.659  11.654  14.850
49171W        W21486   0.223  14.281   3.523
49172W        W21487  16.799  38.077  13.368
49173W        W21488   7.232   7.612   4.073
49174W        W21489  35.958  10.077   1.364
49175W        W21490  32.559   4.346  10.476
49176W        W21491   1.513  12.685  14.524
49177W        W21492  22.980  24.263  13.837
49178W        W21493   4.792  35.173   1.758
49179W        W21494   4.916  31.453  10.609
49180W        W21495  28.930  31.792  13.700
49181W        W21496   2.338  32.665   0.303
49182W        W21497  26.423  31.559  13.470
49183W        W21498   4.852   4.675   0.060
49184W        W21499  40.896  14.537  12.817
49185W        W21500  24.078  43.515  12.731
49186W        W21501  32.384  40.800  14.417
49187W        W21502   1.177   1.868   1.068
49188W        W21503  14.085  31.933   0.772
49189W        W21504  21.061  12.129  12.200
49190W        W21505  27.618  20.502  12.421
49191W        W21506  37.079  29.541   4.473
49192W        W21507  42.094  29.412  10.651
49193W        W21508  40.205  32.495  12.445
49194W        W21509  33.551  21.727  11.543
49195W        W21510  20.174  16.452  12.434
49196W        W21511  37.622  21.188  11.232
49197W        W21512  17.913  24.284  12.190
49198W        W21513  32.197  22.563  12.951
49199W        W21514  30.350  26.493  13.040
49200W        W21515  29.404  41.888   3.656
49201W        W21516   1.467  33.582   2.072
49202W        W21517   2.536  31.095  12.497
49203W        W21518  34.570  35.130  14.080
49204W        W21519  10.240   0.093   5.081
49205W        W21520  17.496   5.324   4.520
49206W        W21521  15.830  40.733   1.446
49207W        W21522  35.842  34.072  14.765
49208W        W21523  43.463  14.140  14.658
49209W        W21524  15.063  16.638  14.531
49210W        W21525  29.564  11.307   3.314
49211W        W21526  17.334  16.215  12.439
49212W        W21527  27.011  10.850   0.615
49213W        W21528  16.823   0.248   4.639
49214W        W21529  17.508   0.259  10.521
49215W        W21530  13.902  36.473   2.773
49216W        W21531  18.729  34.800   3.650
49217W        W21532  17.029  20.620  11.594
49218W        W21533  19.844  30.090  12.983
49219W        W21534  18.510   7.595   2.304
49220W        W21535  23.967  11.767   2.846
49221W        W21536  39.263  32.658  13.423
49222W        W21537  13.235  40.822   0.520
49223W        W21538  12.724  19.778  10.703
49224W        W21539   9.713   2.553   2.472
49225W        W21540  44.963  25.650   2.688
49226W        W21541  15.103  42.669   4.219
49227W        W21542  23.499  15.640   1.762
49228W        W21543   1.013  28.959  11.154
49229W        W21544  27.727  36.934  12.492
49230W        W21545  11.120   3.041  14.861
49231W        W21546  32.517  35.580   0.486
49232W        W21547  12.670  30.653  14.632
49233W        W21548   1.695   6.265   3.256
49234W        W21549   0.428  22.503   3.388
49235W        W21550   5.307   4.596   0.900
49236W        W21551  28.866  16.591  11.645
49237W        W21552  44.275  39.787  11.033
49238W        W21553   3.278  16.253  14.840
49239W        W21554  35.481  24.789  13.297
49240W        W21555  23.224   9.235   0.589
49241W        W21556   2.403  35.869  11.508
49242W        W21557  20.053  35.107  11.501
49243W        W21558  12.743  31.865   4.383
49244W        W21559   9.522  41.619  14.883
49245W        W21560  35.517  23.935   0.794
49246W        W21561  32.425  27.093   3.278
49247W        W21562  26.894  21.486  13.473
49248W        W21563  25.739   3.104   3.829
49249W        W21564   7.817  43.410   4.268
49250W        W21565   2.076  44.210  11.105
49251W        W21566  31.353  41.399   3.110
49252W        W21567  11.600   3.187   0.893
49253W        W21568   4.592  40.042   1.346
49254W        W21569  11.698  28.582  14.506
49255W        W21570  44.417   5.156   1.642
49256W        W21571  34.879   0.226  11.998
49257W        W21572  29.885  17.614  13.857
49258W        W21573   8.298  22.226   1.681
49259W        W21574   0.249   2.221  11.527
49260W        W21575  24.067  30.682  13.866
49261W        W21576  27.727  36.847  14.760
49262W        W21577   9.227  31.695  13.133
49263W        W21578  28.416  24.102  12.181
49264W        W21579  32.417  22.437   0.989
49265W        W21580  31.159  43.573   3.361
49266W        W21581  29.123   4.336  14.347
49267W        W21582  41.594  26.956  11.145
49268W        W21583  17.056  31.941   0.834
49269W        W21584   7.861  27.707  12.310
49270W        W21585   9.646  31.240   1.113
49271W        W21586  19.081  20.670   2.944
49272W        W21587  31.115  38.934  14.463
49273W        W21588  30.535  35.932  10.545
49274W        W21589  14.747  18.066   3.685
49275W        W21590  31.876  40.335   1.773
49276W        W21591  33.205  40.080  11.469
49277W        W21592  32.714  25.666   2.813
49278W        W21593   4.645  35.565  13.328
49279W        W21594  28.393  28.346  13.087
49280W        W21595  34.480  25.757  13.070
49281W        W21596  28.528   3.889   0.309
49282W        W21597  23.539   5.448  13.881
49283W        W21598   5.690  33.066  12.147
49284W        W21599  43.999  41.111   1.623
49285W        W21600  26.893  24.713   0.032
49286W        W21601   5.119   8.724  10.999
49287W        W21602  22.011  18.329   4.438
49288W        W21603  13.483  41.598  10.698
49289W        W21604  43.197   7.208   3.012
49290W        W21605  11.245   9.428   1.787
49291W        W21606  18.214   3.281  13.353
49292W        W21607  29.675   3.227  13.038
49293W        W21608  10.868  33.610   4.721
49294W        W21609   0.032  41.915   3.271
49295W        W21610   5.198   8.302   0.392
49296W        W21611  21.255  32.312  12.740
49297W        W21612  15.649  25.559   4.650
49298W        W21613  40.601  10.784   2.267
49299W        W21614  20.802  15.617  14.735
49300W        W21615  19.825  39.992  11.478
49301W        W21616   3.130   8.607   0.771
49302W        W21617   3.696  21.702   1.962
49303W        W21618  36.788  44.893  10.043
49304W        W21619  29.104  44.687   0.808
49305W        W21620  36.538  21.134   1.115
49306W        W21621  27.675  18.498   3.732
49307W        W21622  25.277  44.905   3.193
49308W        W21623  31.949  24.141   1.845
49309W        W21624  18.672  42.055   3.612
49310W        W21625  34.266  44.546   4.539
49311W        W21626   5.409   7.345   2.414
49312W        W21627  42.087  30.770  13.441
49313W        W21628  40.992  33.955  14.888
49314W        W21629   1.325   3.208   1.685
49315W        W21630   8.481   8.917   4.092
49316W        W21631  27.008  20.256  11.946
49317W        W21632   6.382  29.051   4.421
49318W        W21633  28.217  41.096  12.575
49319W        W21634  44.027  39.883   4.733
49320W        W21635  24.186  37.362   0.322
49321W        W21636  32.587  32.328  14.424
49322W        W21637  25.135  17.083   3.314
49323W        W21638   2.872  21.629  12.949
49324W        W21639  20.776   7.920   3.213
49325W        W21640   7.681  14.708   3.329
49326W        W21641  38.260  35.909   0.331
49327W        W21642  28.573  37.259  13.931
49328W        W21643   8.705  27.960  12.417
49329W        W21644  19.555  40.909  11.575
49330W        W21645  16.208  43.498  13.959
49331W        W21646  11.135  36.490  11.357
49332W        W21647  41.074  43.574  13.358
49333W        W21648  18.969  26.149   3.373
49334W        W21649  15.319  24.950   2.197
49335W        W21650   1.470   6.524  12.058
49336W        W21651  17.557   4.340   1.434
49337W        W21652  44.338  23.524   2.441
49338W        W21653   9.530  13.923   3.727
49339W        W21654  30.345  40.982  14.633
49340W        W21655  29.507  36.882   1.206
49341W        W21656  25.260  40.222   1.229
49342W        W21657  31.969  41.746  12.830
49343W        W21658  16.108  44.850  11.665
49344W        W21659  34.671  39.941   0.266
49345W        W21660  21.222  16.099   2.658
49346W        W21661  20.544  38.042  12.419
49347W        W21662  26.240  21.604   4.830
49348W        W21663  12.676  13.264  12.501
49349W        W21664  37.446  19.531  11.736
49350W        W21665  14.218  10.518   4.910
49351W        W21666   1.224  25.653  11.572
49352W        W21667   5.758   7.797  14.049
49353W        W21668  26.125  24.324   0.415
49354W        W21669  38.516  16.769  13.906
49355W        W21670  32.746   6.272   1.365
49356W        W21671  25.013  44.276   1.438
49357W        W21672  40.938   8.954   2.341
49358W        W21673  41.710  15.209  14.464
49359W        W21674  26.896  17.705   1.276
49360W        W21675  29.483  13.720   3.806
49361W        W21676  23.456  40.470   1.890
49362W        W21677  21.526  43.215  14.851
49363W        W21678   3.391  14.108  10.668
49364W        W21679  23.811  44.390   3.746
49365W        W21680   9.883  18.640   5.091
49366W        W21681  26.010  10.813  12.956
49367W        W21682  21.895  19.624   0.741
49368W        W21683  31.506  43.921  12.117
49369W        W21684  26.059  23.777  10.820
49370W        W21685  35.626  12.338   4.780
49371W        W21686  32.373  39.008   4.141
49372W        W21687  30.799   8.713  14.772
49373W        W21688  16.472  42.985  13.574
49374W        W21689   5.956  33.032   1.374
49375W        W21690  11.697  30.838   1.498
49376W        W21691  27.320   4.946   3.113
49377W        W21692   5.694  26.952  13.442
49378W        W21693  16.978  34.031  12.476
49379W        W21694  11.983  30.950  11.157
49380W        W21695  31.742   5.889  11.523
49381W        W21696  42.362  30.118   3.361
49382W        W21697  17.191  27.053  14.748
49383W        W21698  26.795  34.886  10.094
49384W        W21699  40.405  23.135   1.272
49385W        W21700  41.710   5.193   2.354
49386W        W21701  28.652   5.885   3.620
49387W        W21702  44.237   7.375   1.030
49388W        W21703  25.098  17.425   2.777
49389W        W21704  31.925   9.626  11.471
49390W        W21705  20.334  29.901  13.827
49391W        W21706  38.728  27.302   4.720
49392W        W21707  27.985  15.691   3.747
49393W        W21708  17.461  33.465   3.430
49394W        W21709  15.326   2.249   2.036
49395W        W21710  35.879   5.171   2.806
49396W        W21711  14.479  41.317   4.551
49397W        W21712  32.350  36.889   0.979
49398W        W21713  35.299   2.977  14.768
49399W        W21714  43.575  35.733   1.469
49400W        W21715  15.783   9.167   2.901
49401W        W21716  20.722  40.001   0.407
49402W        W21717  14.598  41.094   1.810
49403W        W21718  24.586  23.576   2.134
49404W        W21719   5.004  32.101  11.654
49405W        W21720  21.979  38.066  14.400
49406W        W21721   2.031  42.221  13.570
49407W        W21722  13.338   1.053   2.913
49408W        W21723  36.327   8.191  13.916
49409W        W21724  17.732  39.813   2.811
49410W        W21725  34.428  41.777  12.435
49411W        W21726  11.874  28.478   1.346
49412W        W21727  42.704  36.626  11.040
49413W        W21728   2.485   8.141  11.041
49414W        W21729  11.782  16.257   0.503
49415W        W21730  18.290  27.680   4.245
49416W        W21731  40.834  22.480  13.765
49417W        W21732  16.751  18.632   4.846
49418W        W21733  42.308  27.290   4.149
49419W        W21734  41.306  13.423  12.416
49420W        W21735  24.038  36.794   4.060
49421W        W21736  30.179  39.035  14.610
49422W        W21737  16.363  40.857  11.191
49423W        W21738  13.206  19.576   2.337
49424W        W21739   3.145   8.417   4.161
49425W        W21740  26.383  42.429  12.936
49426W        W21741  12.586  33.480  13.788
49427W        W21742  26.113  34.906  11.648
49428W        W21743   4.037  13.591   2.049
49429W        W21744  40.069   7.320  13.029
49430W        W21745  33.640  32.091  11.375
49431W        W21746  43.308  19.581  14.677
49432W        W21747  31.474  12.544  13.303
49433W        W21748  13.611  17.639   0.366
49434W        W21749  30.015  17.573   3.639
49435W        W21750  14.748  26.636   1.016
49436W        W21751  23.209  19.834   5.012
49437W        W21752  16.661   0.169   0.366
49438W        W21753  38.360  16.850   0.758
49439W        W21754  36.929   9.632   1.326
49440W        W21755  26.544  11.008  13.930
49441W        W21756  38.318   3.227   0.749
49442W        W21757  40.631  41.323   0.555
49443W        W21758  18.161  28.057   0.488
49444W        W21759   2.063  36.490  10.916
49445W        W21760  24.526  24.966   1.290
49446W        W21761  11.881  15.773  11.478
49447W        W21762  25.115  33.592   4.100
49448W        W21763   4.669  44.644   4.135
49449W        W21764  40.338  28.210   1.182
49450W        W21765  25.967  23.491   3.220
49451W        W21766   4.411   7.223   2.289
49452W        W21767  37.394  33.570  11.940
49453W        W21768  25.605   4.501   2.801
49454W        W21769  11.262  32.380   4.548
49455W        W21770  44.355   2.283  11.556
49456W        W21771   7.803  43.364  10.532
49457W        W21772  27.575   7.422   1.193
49458W        W21773   9.926  37.264  14.420
49459W        W21774  15.227  36.434   4.321
49460W        W21775  25.196   2.337  12.044
49461W        W21776   9.130  17.796  13.421
49462W        W21777   7.659  28.683  10.955
49463W        W21778   1.561  34.901  14.663
49464W        W21779  30.437   9.509   4.106
49465W        W21780  18.603  10.175  13.726
49466W        W21781   0.411  35.063   0.033
49467W        W21782  39.183  29.918   1.276
49468W        W21783  41.869  17.241   0.359
49469W        W21784  31.309  30.836   4.931
49470W        W21785  31.641   1.482   0.034
49471W        W21786  43.411  17.115  13.448
49472W        W21787  26.390  25.126   1.335
49473W        W21788  37.836  14.237  13.994
49474W        W21789  36.274  38.474  10.728
49475W        W21790   5.784  31.033  13.002
49476W        W21791  37.988  18.243   4.040
49477W        W21792  19.982  37.673  10.432
49478W        W21793  29.321   2.131  11.173
49479W        W21794   2.305  10.208   3.971
49480W        W21795  39.852  19.217   0.313
49481W        W21796   1.170  18.052   1.242
49482W        W21797  25.018  20.560  14.284
49483W        W21798  30.685  42.879   3.738
49484W        W21799  13.545  14.222  12.822
49485W        W21800  29.859  29.080   4.259
49486W        W21801  25.491   5.826   5.239
49487W        W21802  23.104  21.801   5.475
49488W        W21803  20.610   0.285   2.728
49489W        W21804  42.852   0.365   4.652
49490W        W21805   4.201   1.301   4.193
49491W        W21806   2.486  43.135  12.903
49492W        W21807   3.945  26.242   2.848
49493W        W21808   8.981  32.888  10.075
49494W        W21809  21.483   1.216   4.459
49495W        W21810   9.274  18.567  14.392
49496W        W21811  22.995  19.591   2.417
49497W        W21812   6.181   2.758   3.924
49498W        W21813  11.741  27.278   3.299
49499W        W21814  42.556   5.711  14.854
49500W        W21815  41.896  44.742   4.625
49501W        W21816  43.234  15.317  10.671
49502W        W21817  25.170  34.558   1.768
49503W        W21818  38.613   5.663  11.614
49504W        W21819  22.307  30.415  12.558
49505W        W21820  40.377   8.270   4.907
49506W        W21821   2.442  15.196  11.671
49507W        W21822  29.125   1.994  13.796
49508W        W21823  35.076   5.868   3.740
49509W        W21824  23.500   2.447   1.634
49510W        W21825   5.264  16.415  13.963
49511W        W21826  19.320   5.183  11.043
49512W        W21827   6.373   1.006   3.254
49513W        W21828  43.470  17.449  10.726
49514W        W21829  25.814   3.759  12.387
49515W        W21830  25.274   1.466  11.174
49516W        W21831  14.685  15.329  12.634
49517W        W21832  34.423  33.164  11.629
49518W        W21833   9.942  13.648   0.252
49519W        W21834   1.054   6.415   3.368
49520W        W21835  23.735  43.874   3.336
49521W        W21836   4.665   8.113   4.117
49522W        W21837  44.414  18.568  13.109
49523W        W21838  23.926  43.857  10.523
49524W        W21839  44.408  17.173   4.129
49525W        W21840  18.609  12.160   1.640
49526W        W21841  41.872  20.541  14.506
49527W        W21842  33.425  41.028  11.574
49528W        W21843   7.742   2.590  12.687
49529W        W21844  25.009   6.844   3.367
49530W        W21845  36.579  32.705   4.308
49531W        W21846  21.271  22.951   3.128
49532W        W21847  21.330  13.556  11.527
49533W        W21848  32.200  23.267  12.460
49534W        W21849  30.351  19.159   4.682
49535W        W21850   3.673  36.423  13.408
49536W        W21851  43.040  19.375   0.088
49537W        W21852  42.883   4.697   0.159
49538W        W21853  29.202  26.218   0.509
49539W        W21854  12.751  33.589  12.040
49540W        W21855  21.061  15.319   1.654
49541W        W21856  26.461   8.739  14.542
49542W        W21857  33.587  14.913  13.853
49543W        W21858  32.166  32.132   3.486
49544W        W21859  28.617  39.932   0.300
49545W        W21860  13.965  37.648   2.236
49546W        W21861  30.474  40.873   0.882
49547W        W21862  31.980  11.665  11.519
49548W        W21863  37.441   8.244  12.108
49549W        W21864  13.598   6.420  11.173
49550W        W21865  34.926  40.504   2.441
49551W        W21866  23.212   9.776  14.031
49552W        W21867  42.461  30.034  11.620
49553W        W21868  30.975   9.065   2.165
49554W        W21869  20.249  25.350   4.624
49555W        W21870  26.564   0.259  14.522
49556W        W21871  10.224  12.577   0.790
49557W        W21872  23.115  10.453   2.633
49558W        W21873  38.425  26.595   2.222
49559W        W21874  20.061  27.997   4.603
49560W        W21875  14.854  11.060   3.599
49561W        W21876  19.363  14.077  11.961
49562W        W21877  33.560  29.713  12.581
49563W        W21878  20.232  14.208   0.323
49564W        W21879  27.506   5.721   4.069
49565W        W21880   6.409  25.477  12.587
49566W        W21881  12.659  38.893  13.063
49567W        W21882   3.188   0.445  13.535
49568W        W21883  30.030  34.568  12.538
49569W        W21884  31.392  33.129  11.664
49570W        W21885   2.356   4.619   4.720
49571W        W21886  19.092   2.481  13.938
49572W        W21887   9.604  33.922  13.145
49573W        W21888   8.568  35.482   2.241
49574W        W21889   5.803  15.311   3.715
49575W        W21890  34.103  22.989   3.064
49576W        W21891  39.039   7.071   0.421
49577W        W21892  37.117  11.810   4.109
49578W        W21893  43.301   7.017   3.860
49579W        W21894  13.397  23.546  14.897
49580W        W21895   7.173  13.843  14.106
49581W        W21896   8.727   6.298  12.636
49582W        W21897  17.806  33.820   3.635
49583W        W21898  26.953   8.566  12.950
49584W        W21899  17.114  37.538   0.531
49585W        W21900  17.064  14.615   0.952
49586W        W21901  33.115  13.138  14.776
49587W        W21902  39.036  21.824  12.374
49588W        W21903  32.445  29.397  10.725
49589W        W21904  38.865   9.771  12.974
49590W        W21905  12.429  35.595   4.030
49591W        W21906  11.833  21.602  14.392
49592W        W21907   7.702   0.198  10.759
49593W        W21908   5.441  35.558  12.919
49594W        W21909   2.365  26.559  11.004
49595W        W21910  10.331  24.589  12.024
49596W        W21911  10.715  26.697   0.302
49597W        W21912  39.555  34.142   0.936
49598W        W21913  28.055  17.528  10.197
49599W        W21914  31.758  37.690  12.054
49600W        W21915  16.944  12.199  13.860
49601W        W21916  43.534  36.467   2.611
49602W        W21917  10.151  24.234   1.569
49603W        W21918  22.649  26.927  13.614
49604W        W21919  34.355  31.918   1.262
49605W        W21920  16.601  21.563  10.557
49606W        W21921   4.532  41.056  12.866
49607W        W21922   7.180  17.584  14.448
49608W        W21923  33.587   8.782   4.653
49609W        W21924  18.584   0.421   2.752
49610W        W21925  38.124  19.514  14.951
49611W        W21926  12.991  38.351   1.131
49612W        W21927  39.570  30.981  12.028
49613W        W21928   1.442  28.908   1.301
49614W        W21929  24.617   3.170  14.426
49615W        W21930  21.215  11.780   5.030
49616W        W21931  10.252  44.025   1.280
49617W        W21932  16.656  38.823  13.827
49618W        W21933  43.499  36.890   0.290
49619W        W21934  27.468  28.476  12.027
49620W        W21935   2.935  26.451  12.128
49621W        W21936  28.608   2.231   1.836
49622W        W21937  32.319  24.738  12.514
49623W        W21938  36.093  22.246   1.605
49624W        W21939  28.728  16.569   3.041
49625W        W21940   2.960  18.561   1.152
49626W        W21941  20.978  21.052   1.792
49627W        W21942   1.836  35.901   0.916
49628W        W21943   5.607  40.835  14.867
49629W        W21944  14.707  38.752  13.384
49630W        W21945  13.623  33.135   2.614
49631W        W21946   8.342  37.773   1.685
49632W        W21947   0.203  38.435   2.782
49633W        W21948  11.871  18.409   5.098
49634W        W21949  11.871  32.959   4.160
49635W        W21950  34.053  33.011  11.978
49636W        W21951   5.736  17.582   2.507
49637W        W21952   3.028  30.094   3.707
49638W        W21953  38.770   0.485  13.681
49639W        W21954  41.480  43.954   4.219
49640W        W21955  37.841  37.646  10.523
49641W        W21956  26.149  10.674  14.001
49642W        W21957  15.428   1.434   0.697
49643W        W21958  36.105  31.378   5.063
49644W        W21959  34.013  18.284   2.326
49645W        W21960  38.068  30.573  14.281
49646W        W21961  28.353  42.402  12.774
49647W        W21962   4.143   6.780   4.692
49648W        W21963   7.701   1.766  11.069
49649W        W21964  32.831  13.192   1.198
49650W        W21965  20.417  31.955   1.928
49651W        W21966   7.673  43.913  11.550
49652W        W21967   8.619  24.843  14.744
49653W        W21968  36.261   6.186   5.184
49654W        W21969  20.682  16.850   3.400
49655W        W21970  34.136   6.329  14.782
49656W        W21971  22.017  43.894  12.980
49657W        W21972  17.229   7.072   5.228
49658W        W21973   3.344  19.416   0.655
49659W        W21974  31.953  23.783   0.343
49660W        W21975   4.799  26.212   2.331
49661W        W21976  25.935  15.335   2.796
49662W        W21977   6.870  23.715  13.503
49663W        W21978   5.177  21.978   1.817
49664W        W21979  24.187  11.511   4.323
49665W        W21980  10.948  10.763   0.369
49666W        W21981  17.188   4.024  11.998
49667W        W21982  12.203   9.791  13.593
49668W        W21983  39.611   7.652  11.995
49669W        W21984  41.990   8.293   2.211
49670W        W21985   2.823   8.414   0.090
49671W        W21986   6.518  34.658   2.266
49672W        W21987   5.028   7.638   1.834
49673W        W21988  39.003  20.586   3.789
49674W        W21989  10.325  10.743   2.399
49675W        W21990  16.273  13.118  10.769
49676W        W21991  17.931  19.199  10.851
49677W        W21992  12.682  13.726   0.263
49678W        W21993  42.897  13.500   1.917
49679W        W21994  34.246  40.718   4.214
49680W        W21995   4.843  32.312   3.620
49681W        W21996  36.915  41.258  11.216
49682W        W21997  44.370  26.113   4.262
49683W        W21998  12.571  28.003  11.745
49684W        W21999  38.484  13.300   2.216
49685W        W22000  39.622  13.989   4.322
49686W        W22001  39.449  28.380  11.500
49687W        W22002  40.821  12.319  11.021
49688W        W22003  35.322  24.074   2.635
49689W        W22004  18.367   2.441   4.100
49690W        W22005  14.194  26.524  12.062
49691W        W22006   0.897  38.116   1.554
49692W        W22007  34.585  34.142   0.867
49693W        W22008  36.491  16.659  14.366
49694W        W22009  32.135  14.540  13.907
49695W        W22010  21.092  28.650  13.295
49696W        W22011  20.674  32.307   5.065
49697W        W22012  10.363  28.833   2.315
49698W        W22013  30.844  36.727  14.903
49699W        W22014  28.998  38.566   3.799
49700W        W22015  35.882  39.046   1.918
49701W        W22016   9.501   6.184  12.263
49702W        W22017  18.825  28.951  13.360
49703W        W22018  14.566  22.852  13.970
49704W        W22019  32.581   1.533   1.464
49705W        W22020   3.241   6.423  12.575
49706W        W22021  16.660  28.516   0.828
49707W        W22022   0.403   3.907   3.668
49708W        W22023  21.045  29.522  13.185
49709W        W22024  27.425  28.219   2.665
49710W        W22025  16.108  34.558   3.978
49711W        W22026  24.243  11.006  14.371
49712W        W22027  35.955  25.536   4.716
49713W        W22028  17.534  17.188  12.939
49714W        W22029  21.138  26.508   3.858
49715W        W22030  17.637  12.343  13.035
49716W        W22031  40.014  27.686  11.244
49717W        W22032   4.825  24.460   1.920
49718W        W22033  35.802  32.853  11.619
49719W        W22034  16.679   7.566   0.152
49720W        W22035  26.646  32.019  13.536
49721W        W22036  43.915  19.593  14.323
49722W        W22037  34.641  42.601   3.099
49723W        W22038  26.562  22.088  12.007
49724W        W22039   6.224  13.648  14.293
49725W        W22040  42.303  19.512   3.716
49726W        W22041  27.639  15.549   4.566
49727W        W22042  27.528  33.505   0.815
49728W        W22043  19.651  16.131   2.696
49729W        W22044  35.900  38.116   1.392
49730W        W22045  25.944  39.971  11.698
49731W        W22046  43.993   7.448   3.324
49732W        W22047  17.505  38.441  11.130
49733W        W22048  40.643  21.167   5.057
49734W        W22049  41.288   8.169  12.022
49735W        W22050  21.036  17.812   2.746
49736W        W22051  41.289   6.168   4.063
49737W        W22052  32.032  40.987  14.940
49738W        W22053  24.783   6.301   1.347
49739W        W22054  26.834   5.028   0.782
49740W        W22055  34.445  24.011  11.199
49741W        W22056  40.822   3.919  11.222
49742W        W22057  20.671  10.798   0.118
49743W        W22058  17.336  32.649   1.904
49744W        W22059  11.101  32.918  14.978
49745W        W22060  23.313  19.876  10.228
49746W        W22061   5.169   6.635  13.446
49747W        W22062  35.180   3.033   0.646
49748W        W22063  30.424  25.602   0.250
49749W        W22064  22.055  15.603   3.712
49750W        W22065  29.600  29.032  12.411
49751W        W22066  18.432  34.590   2.133
49752W        W22067  44.249  34.595  10.587
49753W        W22068   3.283   3.052   4.929
49754W        W22069  15.576   2.978  10.688
49755W        W22070  31.959   5.184  11.188
49756W        W22071  14.657   3.385  13.554
49757W        W22072  28.597   7.701   2.198
49758W        W22073  19.294   0.953   2.594
49759W        W22074   6.455  33.629   1.192
49760W        W22075   2.346  38.410  10.731
49761W        W22076   6.376  28.886  10.716
49762W        W22077  31.503  13.831  14.252
49763W        W22078  43.904  13.083   3.731
49764W        W22079  15.726   5.205   0.731
49765W        W22080  14.456  25.795  11.480
49766W        W22081  17.781  11.734  14.078
49767W        W22082  24.021  32.264  13.942
49768W        W22083   7.404  28.272   2.254
49769W        W22084  10.438  36.399  12.116
49770W        W22085  41.840   1.032   0.310
49771W        W22086  32.153  43.252   3.361
49772W        W22087  30.546  21.614   3.287
49773W        W22088  31.887   9.161  11.239
49774W        W22089  22.718  26.241   1.176
49775W        W22090  35.989  11.639  11.235
49776W        W22091   5.201  37.618  13.371
49777W        W22092  21.072  26.005  11.688
49778W        W22093  13.866  35.444  14.102
49779W        W22094  21.427  16.075  11.550
49780W        W22095  29.715   6.888   2.027
49781W        W22096  39.777  20.663   3.321
49782W        W22097  31.785  11.384   4.100
49783W        W22098  13.705  30.729   2.726
49784W        W22099   2.175   0.508   3.773
49785W        W22100  27.881   3.511  10.987
49786W        W22101   4.291  30.399   1.035
49787W        W22102  36.476  18.975   0.385
49788W        W22103  10.902  24.698  12.952
49789W        W22104   3.291  16.364   3.614
49790W        W22105  29.980  38.974  13.601
49791W        W22106  25.722  21.021   5.008
49792W        W22107  19.741  36.107  14.919
49793W        W22108   6.152   5.876  14.811
49794W        W22109  11.136   1.108   1.313
49795W        W22110  20.147   9.451  10.518
49796W        W22111   9.231  16.029   3.232
49797W        W22112  39.358   6.770  14.747
49798W        W22113  17.032  35.432   0.883
49799W        W22114  31.413  33.585  14.332
49800W        W22115  13.588   1.366  11.020
49801W        W22116  18.087  19.252   2.636
49802W        W22117  33.873  36.921   3.178
49803W        W22118  43.166  29.606  11.178
49804W        W22119  14.825  39.934   2.063
49805W        W22120  30.352  22.591   0.790
49806W        W22121  42.457   1.285  11.106
49807W        W22122  11.615  12.875  14.346
49808W        W22123   6.652   6.455   3.686
49809W        W22124   3.808   3.003   0.900
49810W        W22125  41.963  38.845  12.028
49811W        W22126  38.318  20.511  14.001
49812W        W22127  21.540  42.797   4.581
49813W        W22128  15.554  37.650   4.070
49814W        W22129  20.552   8.162   2.749
49815W        W22130  37.967  18.194  11.548
49816W        W22131  37.843  39.050  10.748
49817W        W22132  15.784  11.628  13.854
49818W        W22133  40.486   8.401   1.261
49819W        W22134  41.882  18.640   1.176
49820W        W22135   6.119  40.061   1.268
49821W        W22136  30.054   1.850  10.959
49822W        W22137  40.392  42.715  10.058
49823W        W22138   9.209  20.166  12.415
49824W        W22139  39.335  11.515  11.538
49825W        W22140  11.798  43.495   0.329
49826W        W22141  33.859   4.499  13.576
49827W        W22142  19.484   2.868   2.705
49828W        W22143   7.207  17.631   1.950
49829W        W22144   4.308  14.934   3.238
49830W        W22145  10.147   3.986  11.062
49831W        W22146   4.172  33.714   2.829
49832W        W22147   3.942  33.128  14.331
49833W        W22148  22.032  40.732   0.417
49834W        W22149  40.604  17.378  10.702
49835W        W22150   1.060  12.728  11.078
49836W        W22151   8.252  16.889   3.088
49837W        W22152  40.111   1.379   1.247
49838W        W22153  41.481  24.052   0.258
49839W        W22154  38.599  16.065  12.531
49840W        W22155  37.353  30.572  12.930
49841W        W22156  19.196  31.547   1.765
49842W        W22157  32.949  39.181   0.051
49843W        W22158  33.612   6.837   1.364
49844W        W22159  44.845  38.861  12.119
49845W        W22160  28.525   7.946   4.180
49846W        W22161  26.033   2.400  11.425
49847W        W22162  29.536  28.167   0.470
49848W        W22163  26.236  41.896   1.793
49849W        W22164  18.262  37.319  11.466
49850W        W22165  35.791  30.404   2.816
49851W        W22166   3.463  21.193  10.076
49852W        W22167  30.034  37.767  12.515
49853W        W22168  32.044  10.806  14.780
49854W        W22169  44.081  28.033   0.311
49855W        W22170  28.460  20.179  14.353
49856W        W22171   1.684   4.987   4.128
49857W        W22172   3.875  23.897  11.535
49858W        W22173  23.130  42.348   3.609
49859W        W22174  37.580   9.701  10.843
49860W        W22175   7.886  11.508  12.873
49861W        W22176   6.698  34.271  11.619
49862W        W22177  11.314  23.304  13.766
49863W        W22178   5.527  44.407   1.441
49864W        W22179  27.208  20.351   2.371
49865W        W22180  13.778  30.484   4.134
49866W        W22181   5.194  37.380  11.387
49867W        W22182   8.269  36.817  11.979
49868W        W22183  44.431  25.152   2.229
49869W        W22184  18.516  21.266  14.500
49870W        W22185  16.414  39.844   0.353
49871W        W22186  13.122  39.027  11.974
49872W        W22187  21.628  44.196   4.627
49873W        W22188  34.486  12.942  12.911
49874W        W22189  38.414  27.609   1.878
49875W        W22190  34.925  19.069  13.270
49876W        W22191  23.971   1.488  13.048
49877W        W22192  19.700  35.452   2.203
49878W        W22193  20.513  13.082  13.019
49879W        W22194  16.234  43.049   1.373
49880W        W22195  40.520  16.299  12.379
49881W        W22196   3.246   3.195   3.138
49882W        W22197  18.233  36.554  12.840
49883W        W22198  33.109  26.205  12.074
49884W        W22199   0.498   7.820  14.533
49885W        W22200  19.481  19.675  14.968
49886W        W22201  39.007  30.482  10.745
49887W        W22202  31.569   1.779  12.374
49888W        W22203  31.555  31.683   3.036
49889W        W22204   1.790   4.911  13.445
49890W        W22205   1.356  43.406   3.416
49891W        W22206  32.504  18.967  14.720
49892W        W22207  34.130  25.018  13.396
49893W        W22208  16.502  26.801  12.138
49894W        W22209   9.545  20.908   4.154
49895W        W22210  44.056   7.972   3.299
49896W        W22211  22.558  44.799   3.953
49897W        W22212   0.417  43.726   0.295
49898W        W22213   1.992  16.359  14.043
49899W        W22214  13.098   3.812   3.725
49900W        W22215  16.588  25.546   1.792
49901W        W22216  21.094  24.197  10.645
49902W        W22217  19.783  12.671   0.442
49903W        W22218  18.295  12.708  10.622
49904W        W22219   7.265  24.288   1.243
49905W        W22220   1.430  24.532   4.555
49906W        W22221   3.948  19.963   4.963
49907W        W22222  24.185  23.558   2.993
49908W        W22223  13.057  39.012   9.871
49909W        W22224  41.347  22.149   0.456
49910W        W22225   8.512   2.844   2.250
49911W        W22226  24.964  25.628  11.910
49912W        W22227  14.566  43.956  12.995
49913W        W22228   7.511  29.356  12.798
49914W        W22229  11.072   0.219  13.916
49915W        W22230   8.817   3.500   3.196
49916W        W22231  32.314  41.261   4.728
49917W        W22232  20.144  13.842   1.367
49918W        W22233   6.407   5.431  14.887
49919W        W22234   7.393  21.711   3.914
49920W        W22235   5.970   5.485   2.223
49921W        W22236   5.546  27.671  10.783
49922W        W22237  21.763  35.885   0.831
49923W        W22238  24.194  44.893  13.328
49924W        W22239  35.082   3.656  11.180
49925W        W22240   3.691  22.609  11.125
49926W        W22241  25.727   1.222   4.361
49927W        W22242  11.931  12.890  11.652
49928W        W22243  35.632  18.785   0.349
49929W        W22244  25.696   2.614   4.464
49930W        W22245  14.674  16.255  13.873
49931W        W22246  43.231  37.970   1.150
49932W        W22247  22.209  38.803   3.800
49933W        W22248  36.905  44.449  14.187
49934W        W22249  18.328   0.435   0.874
49935W        W22250  26.962  34.131  11.842
49936W        W22251  32.631  14.698   0.899
49937W        W22252  23.804  22.728  10.508
49938W        W22253   5.658   7.977   0.316
49939W        W22254  28.483  12.894  11.506
49940W        W22255   0.768   4.384   3.106
49941W        W22256  26.524  38.088   4.016
49942W        W22257   8.305  29.672  14.935
49943W        W22258  41.816  21.957  14.084
49944W        W22259  19.128  29.931  12.617
49945W        W22260   7.183  35.585   4.239
49946W        W22261  37.279   7.108  11.184
49947W        W22262  13.717   6.184   4.168
49948W        W22263  39.549   9.170   3.186
49949W        W22264  43.383  27.117   1.464
49950W        W22265  34.868  22.371   2.366
49951W        W22266   4.674   1.451  10.707
49952W        W22267  43.926  11.346  13.341
49953W        W22268  43.744  31.839  14.361
49954W        W22269  30.499   3.736  10.701
49955W        W22270  12.189  15.087   2.767
49956W        W22271   0.836   2.757  14.574
49957W        W22272  36.380  43.978   4.755
49958W        W22273  22.978  23.935   1.777
49959W        W22274  15.143  18.175   0.028
49960W        W22275  40.638  30.175   0.226
49961W        W22276  12.126   4.185  12.502
49962W        W22277  28.039   2.685  14.366
49963W        W22278  31.050  38.213  12.537
49964W        W22279  31.957  42.950   2.693
49965W        W22280  30.174  13.424   0.679
49966W        W22281  35.850  41.708   1.308
49967W        W22282   1.527  40.334   2.136
49968W        W22283  38.016  13.597  11.044
49969W        W22284   0.358   6.178   1.971
49970W        W22285  21.524  44.615  10.272
49971W        W22286   4.291  16.538  10.572
49972W        W22287  20.104  14.546  11.473
49973W        W22288  39.856  10.958  10.407
49974W        W22289   6.466   6.768   1.384
49975W        W22290   2.380  15.683  13.329
49976W        W22291  34.841  41.597  11.318
49977W        W22292  40.081  17.737  14.892
49978W        W22293  21.013  12.199   2.356
49979W        W22294  30.304   0.666  14.328
49980W        W22295  37.733  33.873   2.301
49981W        W22296  42.315  30.718  10.265
49982W        W22297  27.850  21.123   2.369
49983W        W22298  18.051   4.233   3.132
49984W        W22299  26.649  33.200  10.972
49985W        W22300  18.316   8.833  14.995
49986W        W22301  39.269  11.193  11.140
49987W        W22302  31.946   4.315  14.916
49988W        W22303  11.839  17.777  14.722
49989W        W22304  42.009  14.305  14.691
49990W        W22305   8.388  39.076   1.758
49991W        W22306  20.198   0.294  10.914
49992W        W22307  10.786   7.642  12.511
49993W        W22308   6.087   2.245   3.913
49994W        W22309  25.975  43.347   4.381
49995W        W22310  12.880  13.308  12.995
49996W        W22311  33.372  38.857   1.370
49997W        W22312  17.029  41.765  12.468
49998W        W22313  33.848   8.249   0.209
49999W        W22314  39.514  38.074  11.511
50000W        W22315  42.533  17.033   2.210
50001W        W22316  25.005  42.035   2.599
50002W        W22317  15.825   0.832   4.620
50003W        W22318  14.287  26.649   1.293
50004W        W22319  29.571  31.006   2.441
50005W        W22320  41.007  18.214   3.162
50006W        W22321  33.103  33.907  10.690
50007W        W22322  27.278  41.508   4.351
50008W        W22323  29.472  25.044  13.772
50009W        W22324  38.119  39.308   3.606
50010W        W22325  37.061  24.233   9.702
50011W        W22326  44.306  38.820  14.454
50012W        W22327  22.230  16.232   0.355
50013W        W22328  27.530  27.406  12.643
50014W        W22329  30.437  25.491   4.104
50015W        W22330  38.411  28.158   0.680
50016W        W22331  40.674   7.925   2.619
50017W        W22332  43.439  43.097   3.416
50018W        W22333   2.550   3.713   1.209
50019W        W22334   0.830  27.589  11.409
50020W        W22335  31.506  31.082   1.147
50021W        W22336  32.010  16.635  12.780
50022W        W22337   9.083  38.743   3.631
50023W        W22338  41.263  21.416   4.143
50024W        W22339   9.387   8.304   1.824
50025W        W22340  31.917   6.483   2.365
50026W        W22341  40.316  38.324  11.635
50027W        W22342   8.838   7.069   4.123
50028W        W22343  33.590  17.195   0.035
50029W        W22344  15.242  30.174   2.734
50030W        W22345  30.615  33.534  12.468
50031W        W22346  17.465  19.066  11.643
50032W        W22347   7.246  29.261   2.207
50033W        W22348  11.379  12.988   0.305
50034W        W22349  16.342  35.277   1.454
50035W        W22350  14.227  13.189  13.516
50036W        W22351   4.818  13.884  12.572
50037W        W22352  16.487  12.104  10.701
50038W        W22353  18.058  11.304  13.955
50039W        W22354  16.756  42.381  14.646
50040W        W22355  29.732   8.843  14.905
50041W        W22356  23.736  28.656   0.563
50042W        W22357  37.852  43.572  11.065
50043W        W22358  25.576   8.279  10.731
50044W        W22359  31.090  10.584   2.291
50045W        W22360  22.562  17.137   3.994
50046W        W22361  34.896   3.670  11.676
50047W        W22362  24.100  35.230   0.327
50048W        W22363  14.520  33.998   1.369
50049W        W22364  12.720  16.874   2.619
50050W        W22365  36.429  20.096  10.467
50051W        W22366  38.775  35.332   4.323
50052W        W22367  33.668  39.169   0.421
50053W        W22368  42.822  40.945   2.095
50054W        W22369   1.500  38.288  14.478
50055W        W22370  38.170  32.032   4.865
50056W        W22371  41.749  16.524  10.545
50057W        W22372   0.779  30.687  14.866
50058W        W22373  20.862  36.956   2.348
50059W        W22374  13.755  16.008   0.174
50060W        W22375  39.326  29.678   2.391
50061W        W22376  36.124   0.955   4.220
50062W        W22377  16.775  14.151   0.291
50063W        W22378   8.448  32.025   2.355
50064W        W22379  20.229  10.117   5.165
50065W        W22380  40.797  35.898   3.401
50066W        W22381  20.742   5.433  11.683
50067W        W22382  17.978  11.279   4.982
50068W        W22383  23.848  28.914  11.972
50069W        W22384  20.609   7.148   3.691
50070W        W22385  13.798  13.002   1.862
50071W        W22386  38.011   1.275   3.745
50072W        W22387  23.732  25.827  13.670
50073W        W22388  18.111  41.826  11.567
50074W        W22389  33.070   7.945   1.890
50075W        W22390  23.976  38.517  14.720
50076W        W22391  33.048  17.594   3.182
50077W        W22392  27.414  35.207  13.087
50078W        W22393  41.676   3.001   1.420
50079W        W22394  41.781   0.697  11.479
50080W        W22395  39.270   0.849   2.792
50081W        W22396  22.996   6.971   0.937
50082W        W22397  35.894  37.883   0.004
50083W        W22398  31.469   1.380  14.226
50084W        W22399  13.124  43.376  14.338
50085W        W22400  37.521   9.732   1.436
50086W        W22401   8.306  13.680   0.337
50087W        W22402  10.804  29.155  12.352
50088W        W22403  36.521  33.389  12.378
50089W        W22404  27.716  32.421   4.602
50090W        W22405   5.392  10.227  13.794
50091W        W22406  44.534  34.931  11.603
50092W        W22407   0.825  43.881   1.911
50093W        W22408  31.957   0.956   2.662
50094W        W22409  40.153  35.758  13.374
50095W        W22410  33.967  35.600   1.384
50096W        W22411   3.807  24.641   1.770
50097W        W22412  12.828  13.840   1.991
50098W        W22413  26.540  18.852  10.910
50099W        W22414  43.411  38.497  12.082
50100W        W22415  24.061  37.340   2.197
50101W        W22416  37.422   4.917   5.126
50102W        W22417  25.299  41.591  13.007
50103W        W22418  20.527  36.938  11.487
50104W        W22419  11.215   5.244  11.602
50105W        W22420  40.345  36.354  11.530
50106W        W22421  23.448   8.684  12.480
50107W        W22422  16.695  38.194   9.807
50108W        W22423   6.577  39.811   0.007
50109W        W22424  11.695  16.864  11.493
50110W        W22425  34.510  40.620  12.961
50111W        W22426  14.848  33.025  14.854
50112W        W22427  40.270   3.232   0.232
50113W        W22428   7.180   0.223  12.094
50114W        W22429  19.154  10.412   3.544
50115W        W22430  44.334  16.878   4.736
50116W        W22431  24.063   5.814  10.978
50117W        W22432  26.974  39.879   4.769
50118W        W22433  19.521   2.208   4.548
50119W        W22434  21.655   6.610  11.049
50120W        W22435   0.729  40.548   3.256
50121W        W22436  44.833  17.196  14.457
50122W        W22437  43.388   9.328  12.931
50123W        W22438  25.293   6.908   0.074
50124W        W22439   0.322  22.784   0.390
50125W        W22440   1.513  10.574  14.786
50126W        W22441  11.122  43.429   1.251
50127W        W22442  25.195  33.188  14.433
50128W        W22443  11.130  15.190  12.424
50129W        W22444   3.109  22.493   4.761
50130W        W22445  26.575  37.085   4.351
50131W        W22446  14.436  36.971  11.062
50132W        W22447   3.498  23.045  14.505
50133W        W22448  30.013  29.210  13.439
50134W        W22449   5.376  34.608   4.634
50135W        W22450  29.435  25.702   2.986
50136W        W22451  36.946  44.476  13.671
50137W        W22452   6.949  15.055   0.851
50138W        W22453  31.613  44.580   1.407
50139W        W22454  23.128  12.866  14.837
50140W        W22455  28.032   4.813  13.378
50141W        W22456  14.277  28.048   2.767
50142W        W22457   6.153  37.617  14.816
50143W        W22458  14.343  20.501   1.365
50144W        W22459  37.667  25.089   1.962
50145W        W22460   9.185  39.010   2.275
50146W        W22461  17.739  28.188  14.586
50147W        W22462  32.956  11.040  14.828
50148W        W22463  38.118  26.140  14.957
50149W        W22464  16.714   2.921  13.212
50150W        W22465  15.310   9.303   2.690
50151W        W22466  25.789   8.604  13.397
50152W        W22467  17.166  27.915   5.524
50153W        W22468  42.271  44.176   1.897
50154W        W22469  18.835   3.355  12.624
50155W        W22470  26.981  22.127   2.732
50156W        W22471  32.123  31.614  11.134
50157W        W22472   2.460  32.723   4.094
50158W        W22473   1.450  16.172   3.859
50159W        W22474  43.781  18.669   1.937
50160W        W22475  10.295  16.583   3.714
50161W        W22476  35.330  16.277   3.825
50162W        W22477  27.969  10.196   4.581
50163W        W22478  14.073   8.968   3.260
50164W        W22479  34.556  42.086   0.070
50165W        W22480  20.629  26.562   3.113
50166W        W22481  28.150  33.022  12.825
50167W        W22482   2.891  22.649   3.063
50168W        W22483  10.825  32.518  10.616
50169W        W22484  21.185  40.449  12.639
50170W        W22485  36.981   3.386  10.424
50171W        W22486   5.827  29.829   3.655
50172W        W22487  27.999   1.231   2.132
50173W        W22488  26.211  21.247   1.149
50174W        W22489  16.688  13.202   2.955
50175W        W22490  19.225  41.766   1.274
50176W        W22491   4.751  28.456  11.589
50177W        W22492  24.577  32.126   3.444
50178W        W22493   6.392  35.135   4.214
50179W        W22494  39.018  19.765  14.039
50180W        W22495  28.957  25.738   0.612
50181W        W22496  19.311  18.682  12.836
50182W        W22497  36.589  13.290  13.991
50183W        W22498   3.763  22.967  10.758
50184W        W22499   8.030  30.954   0.674
50185W        W22500  11.819   2.945  13.103
50186W        W22501  17.703  21.128   1.672
50187W        W22502  31.066   2.881  14.872
50188W        W22503   9.516  19.244  10.877
50189W        W22504  31.562  12.530  10.666
50190W        W22505  24.675   2.268   2.356
50191W        W22506  31.303  44.375  13.146
50192W        W22507   2.669   4.446  13.504
50193W        W22508  43.233  40.088   3.500
50194W        W22509  13.119   1.372  14.797
50195W        W22510   3.988  35.617   0.479
50196W        W22511   7.693  14.731   2.343
50197W        W22512  17.202  14.386   1.406
50198W        W22513  41.675  20.117   4.815
50199W        W22514  10.068   0.281   2.916
50200W        W22515  44.354  22.497  10.440
50201W        W22516  18.614  44.796   2.283
50202W        W22517  43.918   4.216  12.160
50203W        W22518  27.726  35.174   1.007
50204W        W22519   2.278  28.218  13.493
50205W        W22520  37.511  21.046  12.630
50206W        W22521  43.940  30.510  12.090
50207W        W22522  29.183  24.155   4.219
50208W        W22523  36.363  22.079  13.363
50209W        W22524  43.508  32.447   0.857
50210W        W22525  11.803  12.765   2.290
50211W        W22526  28.714  17.636   0.333
50212W        W22527  39.046  35.326  11.442
50213W        W22528  18.499  33.392   0.259
50214W        W22529  12.201  32.418   4.713
50215W        W22530  19.303  19.532  13.971
50216W        W22531  21.756  31.170   4.219
50217W        W22532  40.069  20.816   2.323
50218W        W22533  31.317   4.647   2.341
50219W        W22534  34.452  34.691   2.388
50220W        W22535  35.016   8.420   1.910
50221W        W22536  17.781  19.281   4.279
50222W        W22537   7.889  25.225  13.366
50223W        W22538  35.889  15.661   4.325
50224W        W22539  25.429   5.177   1.730
50225W        W22540  24.009   8.657   1.884
50226W        W22541  18.265  15.261   1.751
50227W        W22542  37.832   1.852   3.163
50228W        W22543   9.803   0.271  14.604
50229W        W22544  12.854   7.914   0.486
50230W        W22545  42.364  16.151  12.074
50231W        W22546  23.642  24.594   4.060
50232W        W22547  10.172  13.817   3.162
50233W        W22548  12.292   7.664   1.356
50234W        W22549   6.901   7.213   0.825
50235W        W22550  16.645  34.090  10.718
50236W        W22551  42.088  20.198   2.668
50237W        W22552  10.576  22.199  14.426
50238W        W22553   5.755  35.493   3.661
50239W        W22554  26.002  24.276  13.440
50240W        W22555  17.138  19.776   4.641
50241W        W22556  41.543  12.384   1.494
50242W        W22557  22.309  24.029  13.455
50243W        W22558  41.931  44.605  14.900
50244W        W22559  43.672  11.961   9.867
50245W        W22560  42.504  20.490   2.638
50246W        W22561  13.752  26.764   2.858
50247W        W22562  21.938   0.297  11.150
50248W        W22563  27.506  33.523  10.649
50249W        W22564  28.095  23.573   3.022
50250W        W22565  15.628   3.411   2.346
50251W        W22566  31.646   7.235   0.462
50252W        W22567  35.015  38.034   0.816
50253W        W22568  18.308   8.750   5.006
50254W        W22569  43.904  41.768   0.762
50255W        W22570  32.553   6.230  10.591
50256W        W22571  44.201  28.552  13.546
50257W        W22572  34.024  26.186  10.440
50258W        W22573  20.033   4.336   2.203
50259W        W22574   3.014   5.880   4.606
50260W        W22575  35.333  41.592   1.258
50261W        W22576   9.904  20.565  10.625
50262W        W22577   0.875  19.365  11.146
50263W        W22578  17.952   2.862  11.591
50264W        W22579  39.898  25.478   3.328
50265W        W22580   5.443  11.407  11.694
50266W        W22581  44.909  18.323   1.873
50267W        W22582   1.011  11.627  10.283
50268W        W22583  26.759  11.146   0.252
50269W        W22584  24.943  24.787   4.267
50270W        W22585  35.441  21.241  11.182
50271W        W22586  10.722  21.123   3.253
50272W        W22587  34.845   6.706  12.148
50273W        W22588  10.109  44.892  14.795
50274W        W22589   2.666  14.821  14.997
50275W        W22590  12.269  21.753   0.252
50276W        W22591  42.281  30.609   0.771
50277W        W22592  16.856  12.772   3.635
50278W        W22593  37.161  33.073  14.435
50279W        W22594  25.043  27.445   1.127
50280W        W22595  41.875  41.064  10.732
50281W        W22596   3.676   1.866   3.606
50282W        W22597  17.440  31.598  12.458
50283W        W22598  27.959  28.163  12.080
50284W        W22599  24.054  39.514  11.579
50285W        W22600  40.951  12.278   4.169
50286W        W22601  13.479  29.514   3.382
50287W        W22602  42.507  28.554  11.708
50288W        W22603  21.975  13.427  11.127
50289W        W22604  27.111  39.802  14.206
50290W        W22605  14.795  22.654  13.557
50291W        W22606   9.012  21.020  11.659
50292W        W22607  36.836   7.379  11.251
50293W        W22608  19.037   0.703  13.957
50294W        W22609   7.279  27.761   4.528
50295W        W22610  44.052  20.145   4.395
50296W        W22611  11.652   0.924   3.846
50297W        W22612  17.311  32.918   0.830
50298W        W22613  31.602  17.275  12.438
50299W        W22614   1.825   0.103  14.903
50300W        W22615   4.276   3.789   4.588
50301W        W22616  30.182  34.758   0.920
50302W        W22617  21.546  20.084   9.718
50303W        W22618  38.894  29.957  14.375
50304W        W22619  16.791  44.996  13.770
50305W        W22620  18.539  13.755   2.192
50306W        W22621  29.174   1.755  12.027
50307W        W22622  17.951  35.862   0.297
50308W        W22623  21.653   5.557   2.845
50309W        W22624  17.741  37.020  13.420
50310W        W22625  39.815  31.408  11.925
50311W        W22626   0.972  32.451  10.979
50312W        W22627  36.357  38.616   3.246
50313W        W22628   3.199  44.524   1.388
50314W        W22629  25.878   1.962  13.460
50315W        W22630  13.784  41.496   0.989
50316W        W22631  20.535  44.269   4.427
50317W        W22632  38.424  11.093   4.245
50318W        W22633  29.543   3.864  11.511
50319W        W22634  25.190   0.193  13.948
50320W        W22635  35.221   4.408  12.642
50321W        W22636  14.154  28.725   2.835
50322W        W22637   2.467   5.088   3.661
50323W        W22638  20.941  14.391  12.471
50324W        W22639  28.883   3.660  14.978
50325W        W22640  38.191  24.133  13.256
50326W        W22641  42.505  17.480  12.084
50327W        W22642  33.690  15.211   1.509
50328W        W22643  26.122   0.910   3.171
50329W        W22644  18.086  13.227   4.857
50330W        W22645  23.579  11.206   2.643
50331W        W22646  32.661  15.394  10.966
50332W        W22647  25.170  38.971  10.681
50333W        W22648  30.197   7.595  12.024
50334W        W22649  14.650   8.121   2.770
50335W        W22650  15.234  39.540  12.491
50336W        W22651  35.009  18.027  10.874
50337W        W22652   4.219  15.390   4.126
50338W        W22653  25.837   3.900  11.030
50339W        W22654  17.786  32.609   4.020
50340W        W22655  15.584  40.542  11.964
50341W        W22656  12.388  24.734   2.239
50342W        W22657  41.939  17.140   4.526
50343W        W22658   9.371   5.730   1.926
50344W        W22659   9.364  22.682   0.018
50345W        W22660   5.788  16.328   0.377
50346W        W22661  10.219   0.822   2.264
50347W        W22662   2.686   7.615  14.635
50348W        W22663  39.836  10.475   0.154
50349W        W22664  38.851  29.859   2.940
50350W        W22665   5.032  13.712  14.893
50351W        W22666   9.931  17.560   4.455
50352W        W22667  24.583   7.799   3.824
50353W        W22668  17.356  32.628  13.984
50354W        W22669  19.904  35.880   3.500
50355W        W22670  21.230  41.871   0.859
50356W        W22671   8.402  16.710  12.533
50357W        W22672  32.906  28.694   2.794
50358W        W22673  38.609  41.884  11.392
50359W        W22674  31.399  40.404   4.222
50360W        W22675   9.614  13.001  12.526
50361W        W22676  36.607  25.116  14.802
50362W        W22677  40.610  24.236  11.503
50363W        W22678  33.190  36.402   0.729
50364W        W22679  13.651  33.786   0.753
50365W        W22680  44.319  14.387  12.922
50366W        W22681  35.568  43.727  11.228
50367W        W22682  17.155  39.794  11.508
50368W        W22683  31.114  38.055   1.901
50369W        W22684   1.752  31.411   0.270
50370W        W22685   3.940  44.922  12.611
50371W        W22686  31.493  18.679  13.361
50372W        W22687  42.360  15.700  11.827
50373W        W22688  33.881  25.739  11.060
50374W        W22689  13.335  10.036  10.214
50375W        W22690  14.924  36.847  13.013
50376W        W22691  23.028  15.363  13.552
50377W        W22692  12.972  24.039  13.078
50378W        W22693  17.314  42.466   0.495
50379W        W22694  32.680  34.843  14.736
50380W        W22695  44.724  25.251  13.715
50381W        W22696  34.994   3.235   1.446
50382W        W22697  15.200  14.815  13.344
50383W        W22698  40.791  38.614   3.914
50384W        W22699  22.748  40.087   1.443
50385W        W22700  34.390  12.194  13.511
50386W        W22701   6.892  23.495   4.334
50387W        W22702  12.140  36.916  10.643
50388W        W22703  37.346  19.318   2.114
50389W        W22704  41.937  41.390  14.075
50390W        W22705  22.144  20.025  12.509
50391W        W22706  34.477  14.244   2.682
50392W        W22707  26.030  32.599  12.381
50393W        W22708  31.054  20.812  13.571
50394W        W22709  24.071  34.616   2.572
50395W        W22710  38.476  17.617  10.946
50396W        W22711  40.703  15.638  10.425
50397W        W22712  28.892  15.399   2.667
50398W        W22713  29.588  16.407   3.247
50399W        W22714  10.753  27.099   2.820
50400W        W22715  25.452   7.631   1.352
50401W        W22716  43.208  17.119   1.816
50402W        W22717   9.238  24.222   3.864
50403W        W22718   0.779   7.365   1.612
50404W        W22719   7.288  29.966   3.315
50405W        W22720   1.753  44.737   3.073
50406W        W22721  24.234   8.693  13.414
50407W        W22722  27.041  17.270  11.186
50408W        W22723  34.632  36.203   3.205
50409W        W22724   9.619  30.434  10.328
50410W        W22725  34.295  35.898   1.632
50411W        W22726   8.181   8.308   1.250
50412W        W22727  36.292  26.959  12.458
50413W        W22728  14.708  18.476  13.083
50414W        W22729   0.893  40.031  12.786
50415W        W22730   2.524  11.684  13.365
50416W        W22731  29.268  44.791  14.548
50417W        W22732  35.359  25.182  12.067
50418W        W22733  10.111   6.318   3.986
50419W        W22734  32.615   8.221  10.657
50420W        W22735  33.619  33.023   3.387
50421W        W22736  37.573  22.624  14.846
50422W        W22737  40.569   8.654  14.961
50423W        W22738  13.866   3.912  13.341
50424W        W22739  31.811  10.272  13.456
50425W        W22740  36.895  10.216  12.074
50426W        W22741  44.511  30.227  12.567
50427W        W22742  37.539   2.553  11.959
50428W        W22743  19.206  43.814  12.427
50429W        W22744   9.870  12.245  13.157
50430W        W22745  13.001  18.282  11.570
50431W        W22746  36.968  20.000   3.618
50432W        W22747  33.899  35.480  12.556
50433W        W22748  25.280   2.163   4.652
50434W        W22749  25.164  15.032  13.834
50435W        W22750  34.859   9.421   3.670
50436W        W22751  43.581  24.088  14.831
50437W        W22752  30.860  13.717   0.809
50438W        W22753  14.509  43.878   3.337
50439W        W22754  29.986  31.440  14.711
50440W        W22755  16.815  33.140   4.756
50441W        W22756  29.047  44.449   3.520
50442W        W22757  28.222  19.995  11.149
50443W        W22758  16.788  10.915  12.957
50444W        W22759   0.587  12.248   5.456
50445W        W22760  11.606  20.114   3.185
50446W        W22761  35.435  31.370  12.435
50447W        W22762  29.578  37.192  10.093
50448W        W22763  15.930  39.777  10.113
50449W        W22764  10.747  23.190   4.484
50450W        W22765  27.014  26.952   0.391
50451W        W22766  20.765   1.230  12.997
50452W        W22767  33.168   9.448  12.979
50453W        W22768  21.103  30.574  14.065
50454W        W22769  43.988   7.206  14.005
50455W        W22770  40.364  16.055   4.430
50456W        W22771  10.338  34.474  10.470
50457W        W22772  11.332  32.364   2.802
50458W        W22773  28.213  43.977   0.914
50459W        W22774  37.913  18.874  12.829
50460W        W22775  44.990  33.737   3.645
50461W        W22776   4.792  17.034  14.964
50462W        W22777  31.085  19.525  12.565
50463W        W22778  30.477   2.025   1.331
50464W        W22779  42.407   0.047  13.362
50465W        W22780   2.107   2.302   4.482
50466W        W22781  18.915  20.276  14.591
50467W        W22782  33.976  19.128   1.068
50468W        W22783  17.486   9.029  14.062
50469W        W22784   9.862  25.162   2.106
50470W        W22785   6.391  20.867   0.286
50471W        W22786  33.331  38.870   2.316
50472W        W22787  21.156   6.865   1.149
50473W        W22788  21.619  16.139  11.015
50474W        W22789  11.634  39.913   3.578
50475W        W22790  12.863   0.248   0.000
50476W        W22791  38.917  27.650   0.657
50477W        W22792  20.650  17.611   1.842
50478W        W22793  35.881   9.469   4.715
50479W        W22794   8.117  16.595  14.333
50480W        W22795   0.880   7.856   1.736
50481W        W22796  19.779  27.771   4.187
50482W        W22797  16.429  20.741   4.278
50483W        W22798  34.825   6.263  12.447
50484W        W22799   2.264  14.533   2.719
50485W        W22800  10.627   0.468  14.110
50486W        W22801  11.793  33.391   0.431
50487W        W22802  34.005   4.272  12.877
50488W        W22803  43.548  33.630   2.801
50489W        W22804   1.556   9.044  14.052
50490W        W22805  30.884   4.321   2.278
50491W        W22806  31.521  12.382   4.576
50492W        W22807  23.138  15.646  12.620
50493W        W22808   9.976   4.762  14.465
50494W        W22809  11.228  40.032  14.939
50495W        W22810  21.395  21.181  12.094
50496W        W22811  41.671  29.894   2.214
50497W        W22812  40.947  18.911  14.734
50498W        W22813  29.020   2.157  11.641
50499W        W22814  33.855  27.978   2.235
50500W        W22815  31.240  33.569   0.282
50501W        W22816   7.792  11.870   2.288
50502W        W22817  35.129  11.742   1.295
50503W        W22818  15.377  34.997   3.243
50504W        W22819  17.895  12.161   2.333
50505W        W22820  22.149  38.844   1.232
50506W        W22821  34.868  42.503   4.280
50507W        W22822   7.774  43.734   3.592
50508W        W22823  24.409  16.371  13.860
50509W        W22824  44.297  42.425   2.925
50510W        W22825  32.147  29.560  11.128
50511W        W22826  20.628  25.229  11.985
50512W        W22827  13.635  31.863  14.046
50513W        W22828  18.914  40.392  10.665
50514W        W22829  10.853  29.382  13.328
50515W        W22830  44.458  26.719  14.488
50516W        W22831  19.554   0.142  12.031
50517W        W22832  15.827  12.727  10.686
50518W        W22833   2.987  42.543  13.379
50519W        W22834  29.890  30.780   3.190
50520W        W22835  21.613  14.740  11.392
50521W        W22836   8.281  22.771   3.792
50522W        W22837   6.762  33.901  12.571
50523W        W22838   0.083   3.452  14.475
50524W        W22839  37.482   6.179   2.761
50525W        W22840  35.949  24.970   4.721
50526W        W22841  11.040  26.196  11.156
50527W        W22842  14.037  15.133  11.511
50528W        W22843  37.632  38.027   4.560
50529W        W22844   1.605  22.758  13.823
50530W        W22845  33.994   7.970  11.952
50531W        W22846  25.560  42.357  13.549
50532W        W22847   0.070  20.244   1.369
50533W        W22848  23.031  19.074   4.243
50534W        W22849  20.895  17.181  12.584
50535W        W22850  31.992  27.357  14.769
50536W        W22851   4.903   2.415  11.649
50537W        W22852  34.630   7.234   2.301
50538W        W22853   3.280  38.941   5.002
50539W        W22854   9.810  30.541   0.886
50540W        W22855   9.832  33.566  11.004
50541W        W22856  30.955   0.768   2.396
50542W        W22857  40.912  15.587   5.049
50543W        W22858  39.390   3.407  10.432
50544W        W22859  42.285  31.420   3.855
50545W        W22860  38.628  20.558  14.427
50546W        W22861  10.399  18.489  11.259
50547W        W22862  22.570  40.894  13.359
50548W        W22863  44.613   8.770   1.814
50549W        W22864  16.219  16.439   2.369
50550W        W22865  25.155  33.123  11.976
50551W        W22866  25.953  41.949   4.235
50552W        W22867  29.192   9.492  10.584
50553W        W22868  22.667  43.063   2.617
50554W        W22869   8.806  22.723  12.128
50555W        W22870  18.866  28.303  14.859
50556W        W22871  32.139  14.138  12.623
50557W        W22872  41.081  27.595  13.027
50558W        W22873  29.826   3.548   3.969
50559W        W22874  33.366  10.283  12.119
50560W        W22875  32.051  27.219  10.903
50561W        W22876   4.777  15.435  14.237
50562W        W22877   1.354  29.055  11.996
50563W        W22878  11.333  42.334  13.315
50564W        W22879   4.712   0.267  13.875
50565W        W22880   3.427  12.283   0.849
50566W        W22881   4.794   4.760   1.926
50567W        W22882  35.276  41.065   2.418
50568W        W22883  16.693   4.320  13.459
50569W        W22884  38.157  31.552   4.609
50570W        W22885  41.075  17.715  14.512
50571W        W22886  44.835  39.856   4.205
50572W        W22887   9.853  30.479   2.424
50573W        W22888  20.093  23.815  11.412
50574W        W22889  33.866   4.656   4.921
50575W        W22890   4.609  40.913  11.447
50576W        W22891  34.438  33.366  12.403
50577W        W22892   5.675  14.673   1.057
50578W        W22893  29.564  24.586  14.540
50579W        W22894  25.253  14.209   4.622
50580W        W22895  18.582  20.255  14.987
50581W        W22896   5.207   0.333  12.070
50582W        W22897  19.373   0.496   3.786
50583W        W22898  16.739   9.830  11.103
50584W        W22899  41.837  22.637  12.971
50585W        W22900   4.296  37.368  11.495
50586W        W22901   9.628  31.396   3.260
50587W        W22902  43.265  41.583   3.148
50588W        W22903  40.453   0.573   1.789
50589W        W22904  41.773  39.948   2.151
50590W        W22905  22.552  27.613  12.858
50591W        W22906  32.935  11.896  11.153
50592W        W22907  34.167  17.578  11.988
50593W        W22908  33.812  38.316   3.773
50594W        W22909  34.913  17.509  11.687
50595W        W22910  37.138  30.538   3.158
50596W        W22911  42.484   7.892   0.096
50597W        W22912  42.283  29.247   3.346
50598W        W22913  28.707  21.758  13.560
50599W        W22914  14.070  19.139   2.611
50600W        W22915   8.276  13.711  12.104
50601W        W22916  31.349  44.944  12.137
50602W        W22917  30.345  27.105   0.785
50603W        W22918  27.698  23.203   1.385
50604W        W22919  35.513  19.164   3.669
50605W        W22920  11.359   7.361   3.029
50606W        W22921  33.967  25.552   0.724
50607W        W22922  21.374  15.611   2.616
50608W        W22923  15.723  22.307  10.587
50609W        W22924  29.519   0.408   0.180
50610W        W22925  33.452  41.267   3.931
50611W        W22926  44.951  34.042  10.344
50612W        W22927  17.150  42.724   3.713
50613W        W22928  29.326  10.808   2.888
50614W        W22929   1.845  34.528  13.414
50615W        W22930  39.860  25.575  14.718
50616W        W22931  31.705  37.201  11.150
50617W        W22932  22.732   3.880   0.937
50618W        W22933   1.215  25.994   4.568
50619W        W22934   9.874  34.909  12.815
50620W        W22935   5.332  12.056   1.353
50621W        W22936   4.421  40.556  12.815
50622W        W22937   2.576  20.081  14.906
50623W        W22938  35.982   1.942  12.784
50624W        W22939  18.383  10.630  14.490
50625W        W22940   7.977  19.497   4.607
50626W        W22941  43.478  18.213   2.727
50627W        W22942  35.364   4.997  11.447
50628W        W22943  38.018  31.637  13.354
50629W        W22944  39.011  36.130  13.820
50630W        W22945   3.029  17.079   0.174
50631W        W22946  43.557  40.760  13.947
50632W        W22947  12.698  42.157   4.033
50633W        W22948  43.924  33.518  12.129
50634W        W22949  34.390   6.691  13.205
50635W        W22950  18.890   9.205   2.191
50636W        W22951  22.035  22.040  10.658
50637W        W22952  25.816  38.441  10.602
50638W        W22953   2.643  42.085  11.114
50639W        W22954   1.338   4.979  12.135
50640W        W22955  16.785  40.027   3.380
50641W        W22956  37.602  25.385  11.534
50642W        W22957  42.524  33.585   3.648
50643W        W22958  24.227  32.163   4.583
50644W        W22959  40.398   9.429   2.042
50645W        W22960  42.281  36.788  13.125
50646W        W22961  23.717   5.938   1.425
50647W        W22962  13.384  25.576  13.934
50648W        W22963  36.358  32.075   2.225
50649W        W22964  10.474   7.273  11.533
50650W        W22965   4.894   6.495   0.635
50651W        W22966  15.591  26.335  10.602
50652W        W22967  41.375   0.782  12.104
50653W        W22968  31.245  12.137  11.593
50654W        W22969  16.065  13.270  13.106
50655W        W22970  11.548   1.392   1.449
50656W        W22971  38.551  18.771  14.759
50657W        W22972  30.066  36.831   4.270
50658W        W22973  24.934  26.377  14.350
50659W        W22974  18.708  11.749  10.305
50660W        W22975  20.902  20.291  11.112
50661W        W22976  25.198  26.152  11.107
50662W        W22977   1.946  20.703   0.105
50663W        W22978   9.601   4.487   0.813
50664W        W22979  13.717  10.532   0.725
50665W        W22980  14.033  11.852   4.189
50666W        W22981  37.392  20.136   3.877
50667W        W22982   2.509  35.844  12.860
50668W        W22983  15.618   1.962   3.275
50669W        W22984  41.644   7.330   3.761
50670W        W22985  34.315  23.032  14.562
50671W        W22986   4.960  14.745   2.309
50672W        W22987  14.207  34.138   4.525
50673W        W22988  24.635   5.829  12.839
50674W        W22989   5.212   3.759  12.029
50675W        W22990  36.676  26.015   1.520
50676W        W22991  25.454   7.191   0.788
50677W        W22992   4.941  17.577  12.871
50678W        W22993  41.489   7.820   0.172
50679W        W22994  29.567   4.805   2.811
50680W        W22995  34.140  27.555   2.343
50681W        W22996  31.084   9.328   2.878
50682W        W22997  16.201  29.500   4.407
50683W        W22998   9.322  23.121  10.529
50684W        W22999  40.040  15.327  13.339
50685W        W23000   2.328  34.075   0.560
50686W        W23001   3.801  38.451  11.056
50687W        W23002  24.605   4.474  10.959
50688W        W23003  10.778  34.917  12.393
50689W        W23004  21.164   4.332   2.646
50690W        W23005  23.537  39.479   1.438
50691W        W23006  44.436  31.424   0.775
50692W        W23007  33.392  32.734   4.230
50693W        W23008  23.523  26.549   2.173
50694W        W23009  18.798  37.627  14.883
50695W        W23010  35.584  17.114  12.436
50696W        W23011  29.916  21.620   1.821
50697W        W23012  28.564  26.558  13.052
50698W        W23013   3.092   8.709  12.167
50699W        W23014  33.001  28.250   1.873
50700W        W23015  31.148  20.833  11.945
50701W        W23016  19.971  19.188  10.701
50702W        W23017  18.116  33.614   4.570
50703W        W23018  32.030  36.628  14.937
50704W        W23019  21.976  44.074   2.930
50705W        W23020  26.213  13.150  13.839
50706W        W23021  44.904  27.480  13.496
50707W        W23022   6.690   2.594   2.772
50708W        W23023  40.426  26.519   4.955
50709W        W23024  11.079  14.529   2.338
50710W        W23025  15.539  19.094   2.575
50711W        W23026  42.049  15.642  10.807
50712W        W23027  28.903  39.327   1.537
50713W        W23028  20.771  21.581  13.509
50714W        W23029  34.926  10.073  10.660
50715W        W23030  35.361  29.965  12.573
50716W        W23031  32.103  23.281  14.261
50717W        W23032  24.928  13.232   0.036
50718W        W23033  41.059  24.553  14.723
50719W        W23034  12.837  30.924   0.479
50720W        W23035  17.212  18.785   4.719
50721W        W23036  40.615  11.835  12.093
50722W        W23037  27.038   4.052   0.648
50723W        W23038  32.528  34.272  12.455
50724W        W23039  29.598  15.400   3.156
50725W        W23040  38.869  32.700  14.437
50726W        W23041   7.956  19.082   1.139
50727W        W23042  16.374  27.753  14.721
50728W        W23043   5.916  18.068  11.654
50729W        W23044   1.032  19.273   3.266
50730W        W23045   4.428   2.928   3.638
50731W        W23046  20.943  21.842  10.120
50732W        W23047  31.047  40.992  14.387
50733W        W23048  21.570  43.795  14.264
50734W        W23049  44.494  42.002  14.855
50735W        W23050  12.514  11.531   0.782
50736W        W23051  27.903  17.882   2.796
50737W        W23052  31.689  26.255  12.038
50738W        W23053  11.350  42.870   1.883
50739W        W23054  26.070  23.321  10.569
50740W        W23055  18.532  12.838   1.010
50741W        W23056  25.497  16.857   0.408
50742W        W23057  33.015   4.996   0.254
50743W        W23058   2.690   1.243   0.243
50744W        W23059  13.223  23.530   0.389
50745W        W23060  23.570  26.140  14.565
50746W        W23061  23.027  25.157  10.398
50747W        W23062  39.445  21.407  11.717
50748W        W23063  35.312   1.091   5.266
50749W        W23064   8.582   9.729  11.023
50750W        W23065  38.282  25.721   3.841
50751W        W23066  19.706   9.161   4.510
50752W        W23067  32.047   5.057   0.506
50753W        W23068   7.230  41.643   4.208
50754W        W23069   8.843  35.418  13.628
50755W        W23070  24.987  43.251   1.211
50756W        W23071  33.216  38.392  14.905
50757W        W23072   5.185  30.764   3.244
50758W        W23073  37.906   6.921   2.394
50759W        W23074  39.992   2.765   2.216
50760W        W23075  29.409   2.888  13.317
50761W        W23076  34.079   7.128   1.282
50762W        W23077   8.246   0.530  11.985
50763W        W23078  41.959   2.514   1.477
50764W        W23079   0.489  40.522  14.525
50765W        W23080   6.896   5.966   3.839
50766W        W23081  19.261  41.348  10.598
50767W        W23082  26.009  41.371   0.262
50768W        W23083   4.429  35.535   4.883
50769W        W23084  17.037   8.170   1.074
50770W        W23085  16.706  11.397   2.351
50771W        W23086  42.971  33.633   1.850
50772W        W23087   1.282   4.149   1.468
50773W        W23088  29.179   9.361  12.971
50774W        W23089   3.430  28.686   4.403
50775W        W23090  33.900  30.882   1.785
50776W        W23091  35.513  16.105   0.816
50777W        W23092   7.477   6.370   1.748
50778W        W23093  32.206   4.601  13.797
50779W        W23094  20.481  19.405   3.795
50780W        W23095  13.671  38.049  10.644
50781W        W23096  43.338   7.383   0.710
50782W        W23097   1.543  19.133   3.280
50783W        W23098  36.042   6.125  11.160
50784W        W23099  12.103  43.800  10.428
50785W        W23100  40.346  21.523   2.863
50786W        W23101   7.660  37.385  12.002
50787W        W23102  36.857  30.681  14.844
50788W        W23103  43.403  10.226   9.800
50789W        W23104  11.198  17.272   3.213
50790W        W23105   4.330   5.612  11.978
50791W        W23106  17.723   7.636   3.805
50792W        W23107  34.059  44.784   2.390
50793W        W23108  33.650  44.452  11.989
50794W        W23109   1.526  18.339  11.626
50795W        W23110  26.732  15.104   4.120
50796W        W23111  26.115   8.941  13.139
50797W        W23112  13.561   3.779  14.980
50798W        W23113  36.380  26.485   1.327
50799W        W23114   9.852  22.282   4.237
50800W        W23115  35.965  41.097  13.951
50801W        W23116  36.981  35.846  12.505
50802W        W23117  27.032  43.945  11.984
50803W        W23118  20.911  42.500  12.075
50804W        W23119  40.078  29.877  11.990
50805W        W23120  44.956  16.613  13.836
50806W        W23121  10.279   0.197   9.891
50807W        W23122  18.203   0.202   1.353
50808W        W23123  34.497   4.007   1.444
50809W        W23124  26.070   5.754  11.181
50810W        W23125   5.247  23.914   2.269
50811W        W23126  44.329  23.460   3.860
50812W        W23127  28.449  40.594   4.117
50813W        W23128  35.887  27.903  11.672
50814W        W23129  10.111   3.715   4.605
50815W        W23130  38.830  15.728   2.758
50816W        W23131  32.844  20.179   4.631
50817W        W23132  38.805   8.867  14.545
50818W        W23133  36.493  27.679  12.779
50819W        W23134  22.648  25.836  14.280
50820W        W23135   2.577   9.446   1.524
50821W        W23136  31.035  16.600  11.286
50822W        W23137  25.364  35.956   9.998
50823W        W23138  36.908  23.536   3.215
50824W        W23139  21.027   9.531   4.543
50825W        W23140  39.394  26.912  13.653
50826W        W23141  27.884  39.597   1.740
50827W        W23142  26.077  21.025  14.645
50828W        W23143  21.854   0.488   4.148
50829W        W23144  20.350  29.051   9.879
50830W        W23145  24.681   9.581   0.344
50831W        W23146  39.986  30.633   3.682
50832W        W23147  18.575  29.435   2.276
50833W        W23148  11.334  21.769   0.360
50834W        W23149   0.219  44.671  13.575
50835W        W23150   9.065  38.467   0.940
50836W        W23151   9.408  29.901  12.080
50837W        W23152   4.438  41.446  14.410
50838W        W23153   8.904  22.291  13.838
50839W        W23154  30.852  33.058  11.475
50840W        W23155  33.524   9.771   1.948
50841W        W23156  12.890   9.273   0.886
50842W        W23157  24.339  19.229   0.820
50843W        W23158  43.057  21.017  13.096
50844W        W23159   1.798  14.851  12.505
50845W        W23160   1.523  44.860  13.924
50846W        W23161  22.470  38.849  13.441
50847W        W23162   3.224  38.991  14.279
50848W        W23163  20.137  20.808   2.850
50849W        W23164  19.557  43.403  12.090
50850W        W23165  32.913  24.145  10.845
50851W        W23166  36.937  31.402   1.366
50852W        W23167  44.358  23.480   3.322
50853W        W23168  31.029  40.618   1.434
50854W        W23169  14.901  27.569   0.417
50855W        W23170  41.379  13.830   1.803
50856W        W23171  44.432  42.637   2.476
50857W        W23172  39.912   2.544   4.522
50858W        W23173   9.957  31.709  11.511
50859W        W23174  34.445  21.781  14.278
50860W        W23175  14.745   4.674   4.298
50861W        W23176  21.504  30.190  11.739
50862W        W23177  21.014   9.738  13.618
50863W        W23178  32.823  17.714  11.116
50864W        W23179  25.667  27.519  11.092
50865W        W23180  17.627  25.868   0.398
50866W        W23181  39.503  25.476  10.630
50867W        W23182   0.779  17.285   3.704
50868W        W23183  11.095  30.480  11.642
50869W        W23184  33.331  41.363   4.484
50870W        W23185   4.999  44.676  14.581
50871W        W23186  24.483  18.285   4.639
50872W        W23187  25.062  33.868   2.636
50873W        W23188  33.948  10.590   4.132
50874W        W23189   1.724   2.695   2.853
50875W        W23190   4.433   9.434  12.438
50876W        W23191   8.342  26.841   1.790
50877W        W23192  13.466  44.627   5.019
50878W        W23193  40.013  13.596   3.014
50879W        W23194  40.380  20.514  12.507
50880W        W23195  28.405  20.110   0.468
50881W        W23196  38.570  30.912   2.164
50882W        W23197   6.254  25.205  12.148
50883W        W23198  11.314  27.659  11.693
50884W        W23199  39.581  28.426  13.558
50885W        W23200  31.197  31.582   4.616
50886W        W23201  23.184  30.263   1.782
50887W        W23202  16.392   7.909  14.866
50888W        W23203  39.815  16.152   3.673
50889W        W23204   4.170  24.300  11.506
50890W        W23205   8.730  17.172  14.782
50891W        W23206  29.889   8.652  14.347
50892W        W23207  35.566  11.129  13.548
50893W        W23208   2.802  33.350  14.981
50894W        W23209   2.360   2.719   3.040
50895W        W23210  17.884  22.313   0.248
50896W        W23211  15.395   8.200   4.662
50897W        W23212  35.085   7.186   3.094
50898W        W23213  17.720  38.296   0.466
50899W        W23214  21.139  26.953  14.846
50900W        W23215  13.227   2.140  11.553
50901W        W23216  13.211   9.638  14.439
50902W        W23217  18.567  41.806  13.023
50903W        W23218  16.700   9.165   5.110
50904W        W23219   4.733  28.470   4.000
50905W        W23220   0.971   8.373   1.744
50906W        W23221  40.291  14.693   3.119
50907W        W23222  16.814  19.714   3.291
50908W        W23223  38.872  27.974  10.672
50909W        W23224  23.996  29.438  11.211
50910W        W23225  29.415  37.456   0.526
50911W        W23226  27.500   9.865  10.567
50912W        W23227   2.983  26.272  11.539
50913W        W23228  21.819  28.441   1.798
50914W        W23229  13.696   5.792   1.388
50915W        W23230  14.151  23.670   3.312
50916W        W23231  39.859  18.722  11.383
50917W        W23232  18.129  36.008  10.860
50918W        W23233  20.475  20.268   1.970
50919W        W23234  19.890  33.171  12.976
50920W        W23235  24.565  29.826   4.841
50921W        W23236  13.206  12.999  14.443
50922W        W23237  41.935  38.009  11.531
50923W        W23238  43.580  26.716   0.418
50924W        W23239  28.970  33.415   4.990
50925W        W23240   0.868  12.322   2.240
50926W        W23241  25.486  23.994  12.514
50927W        W23242   0.202  39.818  12.400
50928W        W23243  34.094  40.316   1.686
50929W        W23244  40.925  21.672   3.709
50930W        W23245  32.361   3.314  12.330
50931W        W23246  11.531  13.310  12.533
50932W        W23247  36.175   3.402  11.097
50933W        W23248  35.303  43.526  12.372
50934W        W23249   9.190  21.275   1.122
50935W        W23250   8.332  26.154  14.222
50936W        W23251  29.475  33.522   4.994
50937W        W23252  42.149  13.166  10.462
50938W        W23253  36.239   1.416  13.500
50939W        W23254  30.167   3.156   3.084
50940W        W23255  36.019  29.412   2.695
50941W        W23256  32.487  12.743   3.229
50942W        W23257  37.567  43.845  13.584
50943W        W23258  22.226  28.560   1.475
50944W        W23259   9.177  33.892  13.441
50945W        W23260  19.217  26.575   4.536
50946W        W23261  24.492   4.917   1.391
50947W        W23262  40.271  12.747  10.286
50948W        W23263  25.479  34.096  12.585
50949W        W23264   5.645  35.696   1.834
50950W        W23265   0.327  26.975   3.288
50951W        W23266  12.360  19.111  11.690
50952W        W23267  16.589  19.285  10.998
50953W        W23268  19.425   4.010   3.266
50954W        W23269  37.820   3.425   4.714
50955W        W23270  38.477  20.702   4.529
50956W        W23271  15.049   7.395  13.502
50957W        W23272  31.856  24.800   4.131
50958W        W23273   3.701  43.167  10.995
50959W        W23274  32.591  39.371   3.633
50960W        W23275  37.945   8.299  13.412
50961W        W23276  24.493  37.060   3.658
50962W        W23277  11.595   9.735   0.704
50963W        W23278  16.685  11.668   2.904
50964W        W23279  15.311  35.963  10.600
50965W        W23280  26.061  19.867   3.534
50966W        W23281   4.365  25.125   2.698
50967W        W23282   3.149  10.573  11.853
50968W        W23283  10.228  28.478  12.901
50969W        W23284  37.031  20.088  14.168
50970W        W23285  37.810  39.636   3.879
50971W        W23286  28.143   0.345   2.671
50972W        W23287  12.750  31.361   3.633
50973W        W23288  39.806  31.915   4.050
50974W        W23289  38.045  38.342   4.015
50975W        W23290  21.152  26.596   2.830
50976W        W23291  13.192  23.457   1.893
50977W        W23292  41.824  35.655  13.735
50978W        W23293  15.740  11.858   4.542
50979W        W23294  36.924   3.865  12.551
50980W        W23295   1.541  22.716  11.497
50981W        W23296   7.695  24.736   1.547
50982W        W23297  27.735   8.222  13.390
50983W        W23298  15.544   0.876   1.690
50984W        W23299  42.834  15.724   1.871
50985W        W23300   4.360  13.632  11.929
50986W        W23301   6.884  35.683   1.468
50987W        W23302  24.168   4.781   3.682
50988W        W23303  33.535  12.370  14.974
50989W        W23304  25.497  22.734  13.917
50990W        W23305  28.904  38.954   1.158
50991W        W23306  22.134   7.821  10.884
50992W        W23307  38.876  13.793  12.112
50993W        W23308  20.656  21.046   0.347
50994W        W23309  44.507  27.483   2.509
50995W        W23310   3.932  41.571  14.460
50996W        W23311   1.723   0.297   3.786
50997W        W23312   1.977  11.751   4.060
50998W        W23313  43.874  21.105  13.096
50999W        W23314  24.205  42.583  11.109
51000W        W23315   3.718  24.496  13.742
51001W        W23316  20.129   9.211  13.031
51002W        W23317   6.674   6.898  10.745
51003W        W23318   7.576   3.242   0.428
51004W        W23319  22.538  20.188  14.265
51005W        W23320  28.119  17.368  12.121
51006W        W23321  35.567   2.833  13.433
51007W        W23322  18.079  35.000  14.331
51008W        W23323  24.941   3.789  12.091
51009W        W23324  44.536  36.013  11.072
51010W        W23325  14.242  24.776  12.845
51011W        W23326  19.777  17.339   2.092
51012W        W23327  40.256  28.930   4.174
51013W        W23328   7.169  31.983   1.937
51014W        W23329   3.731   9.796  14.835
51015W        W23330  21.026  34.324   0.841
51016W        W23331  10.168  18.289  13.469
51017W        W23332   7.236  21.667  11.974
51018W        W23333  44.866  42.197   0.748
51019W        W23334  26.476  20.239  12.110
51020W        W23335  34.671   4.504   2.231
51021W        W23336  17.265  22.700   4.132
51022W        W23337   8.822  24.486  14.409
51023W        W23338  41.956  13.810  10.939
51024W        W23339  33.282  37.347   1.439
51025W        W23340  15.803  24.226   1.395
51026W        W23341  12.117  31.054   2.340
51027W        W23342  24.136   5.731   2.666
51028W        W23343  13.324  35.360   2.207
51029W        W23344  15.557  26.412   4.976
51030W        W23345  14.838  37.509   0.925
51031W        W23346  37.588  29.557  12.542
51032W        W23347  44.227  13.616  12.626
51033W        W23348  18.328  44.023  11.978
51034W        W23349  42.100  34.778   3.259
51035W        W23350   1.846  23.192  14.761
51036W        W23351   9.452  20.687   3.713
51037W        W23352  27.467   5.732  14.038
51038W        W23353   5.765  28.749  13.994
51039W        W23354  40.083  40.075   0.546
51040W        W23355  11.250  30.110   0.836
51041W        W23356   3.568  17.186  10.270
51042W        W23357  33.079  43.738   3.111
51043W        W23358  37.108   7.787   3.940
51044W        W23359   7.682  15.228   0.501
51045W        W23360  14.363  32.588  13.070
51046W        W23361  43.933  37.515  12.920
51047W        W23362  22.730  11.652  11.647
51048W        W23363  43.441  41.761  13.983
51049W        W23364  38.301  39.220   1.781
51050W        W23365  26.008  15.622  14.831
51051W        W23366   4.916   4.884   3.804
51052W        W23367   8.248   3.136  13.244
51053W        W23368  12.445  34.572  10.699
51054W        W23369  16.507  43.427   0.402
51055W        W23370  13.310  33.343  11.193
51056W        W23371  17.683   8.961   1.026
51057W        W23372  40.335  32.105  13.117
51058W        W23373  11.619  37.777  11.714
51059W        W23374   4.475  43.403   0.396
51060W        W23375  35.497  22.183  13.779
51061W        W23376  15.661  21.604   1.043
51062W        W23377  40.244  23.450   5.514
51063W        W23378   0.283  43.452   4.388
51064W        W23379  25.193  13.797   2.769
51065W        W23380  33.656   9.580   4.809
51066W        W23381  39.454  42.888  11.184
51067W        W23382  39.041  23.642  10.657
51068W        W23383  13.261  22.095   3.072
51069W        W23384  21.967   0.803  11.458
51070W        W23385   7.293  22.645  10.697
51071W        W23386  24.200   4.825   0.050
51072W        W23387  29.323  44.876   1.346
51073W        W23388  22.940  36.082   0.323
51074W        W23389   1.353  33.494  12.887
51075W        W23390   7.460   2.715  11.435
51076W        W23391  18.768  31.957   0.645
51077W        W23392   6.326   1.371   2.273
51078W        W23393   1.595  22.123   0.728
51079W        W23394   4.740  18.254   2.909
51080W        W23395   3.844   2.218   4.945
51081W        W23396  42.916  20.618  13.375
51082W        W23397  41.331  17.159   0.450
51083W        W23398  34.999  39.009   1.508
51084W        W23399  27.467  29.019   2.214
51085W        W23400  42.750  16.258   4.185
51086W        W23401  10.434  28.537   2.760
51087W        W23402   8.725   9.872   3.908
51088W        W23403  31.420  35.977   1.456
51089W        W23404  42.733  12.646   5.003
51090W        W23405  35.487   5.341  12.009
51091W        W23406  35.378   5.810   4.678
51092W        W23407  18.176   6.875   3.255
51093W        W23408  33.411  15.333   2.665
51094W        W23409  38.539  34.975  14.066
51095W        W23410  42.804  31.982   3.848
51096W        W23411  10.156  29.927   0.323
51097W        W23412   9.870   1.399   1.544
51098W        W23413  33.402   8.212  14.930
51099W        W23414  17.799  26.130   2.644
51100W        W23415  34.227  26.714  14.947
51101W        W23416  15.482  26.622   2.135
51102W        W23417  12.627  34.621   4.059
51103W        W23418  12.729  13.797  13.214
51104W        W23419  28.652   8.678  13.303
51105W        W23420   9.159  23.644  10.616
51106W        W23421  29.052  31.955   9.834
51107W        W23422  10.350  42.572   1.244
51108W        W23423  20.599   0.366  11.210
51109W        W23424  29.163  23.190  13.516
51110W        W23425  39.662  11.735   3.933
51111W        W23426  42.777  26.632  12.327
51112W        W23427  34.322  10.271  11.475
51113W        W23428  32.492  28.557  12.547
51114W        W23429  40.424   8.816   0.836
51115W        W23430  28.824  31.037   0.890
51116W        W23431  14.633  25.469   1.829
51117W        W23432  25.422  14.747   4.554
51118W        W23433  19.125   1.962   1.792
51119W        W23434  24.204  31.137   1.673
51120W        W23435  11.003  10.901   4.174
51121W        W23436  22.597   2.363   1.673
51122W        W23437  30.009  22.134  12.900
51123W        W23438  23.162   7.176   1.384
51124W        W23439  19.706  36.534   1.208
51125W        W23440   7.746   1.258  10.972
51126W        W23441  35.395  18.729   0.892
51127W        W23442  35.381  31.938  11.652
51128W        W23443  36.596  31.600  14.395
51129W        W23444   6.907  30.800   1.281
51130W        W23445  21.134   5.448  12.539
51131W        W23446  11.756  27.981   3.739
51132W        W23447  17.474  37.528  11.159
51133W        W23448  25.019  35.134   2.385
51134W        W23449  14.930  34.576  12.070
51135W        W23450  42.381  26.478  14.685
51136W        W23451  24.164  24.609  14.562
51137W        W23452  37.235   7.561  14.936
51138W        W23453  37.006  30.163  12.885
51139W        W23454   5.750  13.242   2.000
51140W        W23455  31.115  36.829   2.512
51141W        W23456  10.443  17.807   2.330
51142W        W23457  12.185   6.841   0.744
51143W        W23458  32.124  44.989  11.129
51144W        W23459  15.698  16.491  10.927
51145W        W23460  21.176  13.841  14.880
51146W        W23461  42.885   5.926   1.236
51147W        W23462  19.361  19.038  13.502
51148W        W23463   8.741  36.242   2.719
51149W        W23464   9.816  37.931  11.503
51150W        W23465  29.008  19.029   4.524
51151W        W23466  10.276   7.870   2.836
51152W        W23467  42.049  29.483   9.964
51153W        W23468  27.711  41.234  12.507
51154W        W23469  33.349  35.591  14.323
51155W        W23470   3.348  31.424  12.029
51156W        W23471   9.262  26.387   1.797
51157W        W23472  22.217  27.665   1.911
51158W        W23473  37.884   6.877  12.873
51159W        W23474  24.735  13.184   2.377
51160W        W23475   7.972   1.713  13.100
51161W        W23476  42.871  14.884  12.976
51162W        W23477  32.607  38.174   2.309
51163W        W23478   9.900  34.123   2.404
51164W        W23479   4.969   7.159   2.622
51165W        W23480   5.634   5.938  14.847
51166W        W23481   2.341  39.782   4.109
51167W        W23482  13.558  28.948   3.930
51168W        W23483  23.479  37.675   4.490
51169W        W23484  12.534   9.857   0.575
51170W        W23485  25.210  17.856  12.579
51171W        W23486  18.669  13.663   1.202
51172W        W23487  37.168  26.609   0.787
51173W        W23488  22.470   9.244   2.277
51174W        W23489   9.172   3.452   1.344
51175W        W23490  24.286   3.268   3.574
51176W        W23491  37.897  32.932   3.175
51177W        W23492   2.554  25.599   2.706
51178W        W23493   0.844  43.892   3.701
51179W        W23494  20.271  10.861  14.789
51180W        W23495  37.594  17.095  12.541
51181W        W23496   9.352  12.884   4.591
51182W        W23497  35.394  13.372  13.061
51183W        W23498  42.436  39.635  11.861
51184W        W23499  11.979  32.307  11.144
51185W        W23500   2.494  26.206  10.634
51186W        W23501   9.703   2.393   1.971
51187W        W23502  33.055  35.389   1.246
51188W        W23503  10.857  16.235  10.174
51189W        W23504  35.095  23.120  14.079
51190W        W23505  40.411  19.600   1.026
51191W        W23506  23.536  23.236  12.067
51192W        W23507  28.160  38.057   4.838
51193W        W23508  30.354  28.792   1.310
51194W        W23509  19.006  10.134   1.804
51195W        W23510  37.127  16.924   3.267
51196W        W23511   0.683  41.771   2.857
51197W        W23512  25.255  31.837   4.090
51198W        W23513  40.510  40.402  13.444
51199W        W23514   7.329  35.570   1.860
51200W        W23515  39.492  25.740   4.802
51201W        W23516   8.771   3.775  12.989
51202W        W23517  28.391  28.173  11.608
51203W        W23518   7.465  12.893  14.112
51204W        W23519  29.869  21.210   3.273
51205W        W23520   1.712  17.318  11.630
51206W        W23521  12.808  41.892   0.161
51207W        W23522   0.402  35.473   1.372
51208W        W23523  32.228  40.038   0.928
51209W        W23524  14.055  13.352   3.204
51210W        W23525  13.089   7.883  14.444
51211W        W23526  43.699  35.791   3.345
51212W        W23527  33.968  44.276   2.633
51213W        W23528   9.448   6.124  13.821
51214W        W23529  18.629   4.792  13.019
51215W        W23530  21.510  43.986  11.118
51216W        W23531  34.485  20.939  11.394
51217W        W23532  36.849  29.508   2.327
51218W        W23533  12.304   6.585  13.906
51219W        W23534  14.375  24.150  13.908
51220W        W23535   4.135  42.408  10.695
51221W        W23536  33.182  42.911   2.119
51222W        W23537  33.560  17.364  13.929
51223W        W23538   3.254  22.620  11.407
51224W        W23539   5.237  12.574   4.146
51225W        W23540  28.535   4.334  14.408
51226W        W23541  22.952  38.998  13.556
51227W        W23542  19.855  21.877  11.716
51228W        W23543  43.545  42.098  13.603
51229W        W23544  25.625  17.242   2.556
51230W        W23545  12.259  42.554   0.305
51231W        W23546   1.452  18.917   4.464
51232W        W23547  28.346  10.205   1.793
51233W        W23548  12.462  17.563   0.568
51234W        W23549   8.081  35.710   2.368
51235W        W23550  30.639  39.293   2.648
51236W        W23551  28.681  24.270   1.713
51237W        W23552  18.377   8.406   4.611
51238W        W23553  27.798  18.506  11.101
51239W        W23554  28.078  13.232   3.406
51240W        W23555   0.861  42.961   4.657
51241W        W23556  42.410  42.687  13.843
51242W        W23557   6.277  19.629   0.437
51243W        W23558  27.109  28.869  11.991
51244W        W23559   6.468  29.333   5.134
51245W        W23560   7.290  13.362  13.975
51246W        W23561  15.165   3.411  14.429
51247W        W23562   4.869   7.344   4.523
51248W        W23563  16.746  33.617  13.038
51249W        W23564  19.565  20.016   2.304
51250W        W23565  30.006  27.746  11.190
51251W        W23566  27.683   8.217   3.970
51252W        W23567  23.117   7.120   0.446
51253W        W23568   4.247  23.580   1.632
51254W        W23569  33.476   1.485  11.558
51255W        W23570  34.810  30.890   4.541
51256W        W23571  22.948   7.200   2.618
51257W        W23572  35.690  10.552  11.722
51258W        W23573  42.802  22.701   1.590
51259W        W23574  36.616  15.657  14.261
51260W        W23575  13.736  37.431  14.820
51261W        W23576   0.980  16.752   2.331
51262W        W23577  18.269  14.847  13.955
51263W        W23578  37.577   1.662   2.691
51264W        W23579  42.270  35.025   4.551
51265W        W23580  36.094  11.251  11.579
51266W        W23581  14.115  16.968   5.048
51267W        W23582  37.048   1.708   2.688
51268W        W23583  16.353  33.024   1.783
51269W        W23584  16.955  12.294  11.398
51270W        W23585  30.142  30.697  13.865
51271W        W23586  39.281   0.847  13.110
51272W        W23587  17.320   5.589   0.076
51273W        W23588  13.685  18.222   1.360
51274W        W23589  38.722  25.673   2.307
51275W        W23590  32.031  22.951   4.632
51276W        W23591  34.063  10.879  13.963
51277W        W23592  18.125   0.267  13.520
51278W        W23593  39.609  11.001  12.127
51279W        W23594  32.030   9.247   0.757
51280W        W23595  37.125  42.635  12.407
51281W        W23596  22.717  36.171  10.405
51282W        W23597  25.997  24.116  12.494
51283W        W23598  19.198  19.183  14.972
51284W        W23599  36.300   3.487   5.068
51285W        W23600  37.351  26.609   3.587
51286W        W23601  12.098  15.173  11.632
51287W        W23602  22.721   5.513  12.406
51288W        W23603  29.654  38.593  13.443
51289W        W23604  14.167   8.116  11.649
51290W        W23605   9.191  43.088   5.062
51291W        W23606   0.100  28.533   0.702
51292W        W23607   5.661  22.573  11.659
51293W        W23608  34.392   7.880   2.853
51294W        W23609  42.123  12.670   3.631
51295W        W23610  34.861  19.484  11.456
51296W        W23611  43.098  43.224   2.299
51297W        W23612  42.128  21.605  10.672
51298W        W23613  32.987   9.644   1.304
51299W        W23614  30.493  22.105   4.615
51300W        W23615  25.047  39.919  12.162
51301W        W23616  34.587  22.198  13.986
51302W        W23617  16.233  30.185  12.877
51303W        W23618  25.040  27.812   2.035
51304W        W23619  19.760  40.923  13.608
51305W        W23620  33.421  40.987  14.462
51306W        W23621   8.454  24.703  12.064
51307W        W23622  33.157  25.194   4.212
51308W        W23623  26.271  37.427   1.803
51309W        W23624   6.299  41.404   2.703
51310W        W23625   0.932   1.348   2.858
51311W        W23626   6.383   4.153   2.406
51312W        W23627   8.735  43.311   2.361
51313W        W23628   7.297  33.000   2.923
51314W        W23629  13.388  14.220  14.773
51315W        W23630  44.750   3.163   0.235
51316W        W23631  17.622  11.503  14.571
51317W        W23632  43.893   3.028  13.897
51318W        W23633  28.108   9.788  10.154
51319W        W23634  44.053  12.170  10.993
51320W        W23635  25.675  25.964   2.256
51321W        W23636  40.393  42.930  13.465
51322W        W23637  25.652  35.750  13.340
51323W        W23638  36.991   3.179  14.013
51324W        W23639  43.457   3.127   1.709
51325W        W23640  23.074  17.278   1.964
51326W        W23641  18.368  34.135   0.935
51327W        W23642  22.047  35.059  12.764
51328W        W23643  14.250  33.063  12.060
51329W        W23644   1.064  20.253   4.623
51330W        W23645  33.588   4.969   5.243
51331W        W23646  31.592  17.849   2.225
51332W        W23647  43.510  28.450  12.997
51333W        W23648  33.614  38.535  13.386
51334W        W23649   7.631  22.330   0.822
51335W        W23650  30.432  30.164  11.158
51336W        W23651  20.073  27.997  13.441
51337W        W23652  41.763  42.492   0.489
51338W        W23653  23.592  18.571   1.691
51339W        W23654  37.886  36.434  14.456
51340W        W23655   7.589   6.705   2.835
51341W        W23656  33.622   6.049  11.995
51342W        W23657  17.204   0.289  12.442
51343W        W23658   5.941  21.191   1.404
51344W        W23659  10.787  26.172  12.029
51345W        W23660   9.529  44.849   2.860
51346W        W23661  37.027  36.310  10.996
51347W        W23662  12.752  19.785  13.493
51348W        W23663  33.591   9.986  13.539
51349W        W23664  10.391  19.667  10.677
51350W        W23665  36.923  10.844   0.945
51351W        W23666  26.994  36.897   1.896
51352W        W23667  29.940   4.698  14.185
51353W        W23668  10.187  31.991   2.761
51354W        W23669  23.997   3.861   4.160
51355W        W23670  10.254  15.811  11.948
51356W        W23671  31.550  18.755   2.087
51357W        W23672  24.306  16.391   0.131
51358W        W23673   4.926  21.132  10.534
51359W        W23674  22.250  30.407  14.883
51360W        W23675   4.685   2.756   1.493
51361W        W23676  10.758  25.965   5.044
51362W        W23677  10.420  14.646  12.464
51363W        W23678  42.316  13.602  14.822
51364W        W23679  35.026  23.223  12.908
51365W        W23680  11.700   8.522   4.080
51366W        W23681  18.554   3.647   1.941
51367W        W23682  40.359  32.269   3.198
51368W        W23683  40.917   9.754   0.357
51369W        W23684  41.041  11.462  13.562
51370W        W23685  25.026  12.490   1.171
51371W        W23686  34.825  17.548   0.935
51372W        W23687  43.423  21.299   2.463
51373W        W23688  27.125  35.627  13.820
51374W        W23689  14.315  35.266   3.788
51375W        W23690  42.725  19.747   4.304
51376W        W23691  18.479  13.564   3.263
51377W        W23692  43.216  36.991   0.712
51378W        W23693  29.152  19.307  14.401
51379W        W23694  23.274  38.883   4.203
51380W        W23695  19.544  27.647  12.920
51381W        W23696  39.533  14.722  12.796
51382W        W23697  40.255  40.565  11.111
51383W        W23698  23.656   9.239  12.523
51384W        W23699   1.485  22.222   3.605
51385W        W23700  43.473  30.573   0.046
51386W        W23701  41.349   5.833   2.856
51387W        W23702   4.032  43.415   3.095
51388W        W23703  10.878   2.764  12.921
51389W        W23704  27.530  44.250   1.402
51390W        W23705  29.323  39.465  12.617
51391W        W23706  15.604   2.009  12.788
51392W        W23707  21.565  43.720   3.701
51393W        W23708   3.989  32.149  13.164
51394W        W23709  24.651   6.502   3.505
51395W        W23710   3.550   0.733  10.751
51396W        W23711  12.346  44.024  14.010
51397W        W23712  24.070  14.209   3.991
51398W        W23713  21.982  22.790   2.841
51399W        W23714  21.148  42.973  14.320
51400W        W23715  22.685   4.961  12.481
51401W        W23716  27.243   3.787  13.848
51402W        W23717  35.912   7.416  10.740
51403W        W23718  16.258  37.449  12.916
51404W        W23719   7.394  18.308   2.067
51405W        W23720  20.128   6.969   3.114
51406W        W23721  26.449  23.165  12.161
51407W        W23722  16.211  27.028  11.033
51408W        W23723   8.449  38.761   1.347
51409W        W23724  35.632  29.163  14.081
51410W        W23725   0.756   3.346  10.265
51411W        W23726   1.056  42.524  11.938
51412W        W23727  33.144   7.419   4.106
51413W        W23728   1.834  10.280   4.162
51414W        W23729  12.770  12.819  13.531
51415W        W23730  23.119  38.746  12.246
51416W        W23731  23.170  31.928   1.705
51417W        W23732   0.591  42.497   4.678
51418W        W23733  33.423  32.414  13.429
51419W        W23734  32.950  31.963   4.076
51420W        W23735  11.758   3.914  12.821
51421W        W23736   2.236  12.698  11.910
51422W        W23737  26.596  28.010  10.835
51423W        W23738  26.538  17.775  12.935
51424W        W23739  16.363   4.724  14.542
51425W        W23740  33.080  34.083  11.966
51426W        W23741  27.275  21.001   3.157
51427W        W23742  39.003   0.341  12.063
51428W        W23743   7.833  25.252  12.493
51429W        W23744  11.795  29.964  10.655
51430W        W23745  26.972  14.564   4.958
51431W        W23746  44.224   0.765   5.254
51432W        W23747   0.550  37.981  11.494
51433W        W23748  25.750  33.055   0.081
51434W        W23749  26.895  34.894   2.344
51435W        W23750  22.632  34.815  14.011
51436W        W23751  15.475  33.961  11.629
51437W        W23752   7.270  15.673  11.245
51438W        W23753  15.962  35.999  12.984
51439W        W23754  30.486  34.910   0.133
51440W        W23755  11.241  14.123  14.046
51441W        W23756  32.647  15.352   0.845
51442W        W23757  22.128  31.093   0.268
51443W        W23758   2.919  33.636  13.163
51444W        W23759  21.749  44.315   2.520
51445W        W23760  10.817  26.848   4.641
51446W        W23761  38.888  26.919   0.376
51447W        W23762  21.979  34.312   4.222
51448W        W23763  28.496  35.067  10.444
51449W        W23764  32.126  24.944  12.978
51450W        W23765  31.682   0.409   3.365
51451W        W23766  17.548  28.387  13.831
51452W        W23767   1.647  21.069  12.444
51453W        W23768   4.566  25.221   2.206
51454W        W23769  32.891  30.886   1.301
51455W        W23770   3.615  15.517  13.884
51456W        W23771   8.410   2.841  14.523
51457W        W23772  34.127  32.841  10.734
51458W        W23773  41.358  22.475  12.826
51459W        W23774   9.326  30.573  11.667
51460W        W23775  33.834   6.668   0.017
51461W        W23776  34.897  34.625   4.676
51462W        W23777  18.277  24.238   0.689
51463W        W23778  28.455  41.000  14.453
51464W        W23779   0.464  26.474   1.300
51465W        W23780  34.028  27.097  14.427
51466W        W23781  37.861  44.169  10.435
51467W        W23782  17.150  11.182   2.499
51468W        W23783   9.832  24.639   1.999
51469W        W23784  13.966  43.514  13.973
51470W        W23785  40.743  18.461  14.892
51471W        W23786   6.794  21.171   0.972
51472W        W23787  27.777   8.624  11.843
51473W        W23788  20.798  24.797   2.316
51474W        W23789  10.649  30.353  11.413
51475W        W23790  18.060  21.937  10.713
51476W        W23791  28.237  39.023  12.992
51477W        W23792  28.642  14.860  14.279
51478W        W23793  27.993  25.045   4.981
51479W        W23794  21.675  16.041  14.526
51480W        W23795   1.415  30.595   1.938
51481W        W23796   8.870  38.813  12.517
51482W        W23797  15.218  29.260   2.134
51483W        W23798   2.004  20.180  12.445
51484W        W23799  29.923   9.727   0.806
51485W        W23800  39.328  34.548   4.537
51486W        W23801  27.460  17.573  11.014
51487W        W23802   0.258  40.315  12.443
51488W        W23803  44.239  30.455  14.328
51489W        W23804  22.450  13.278  11.039
51490W        W23805  24.836  14.362  11.055
51491W        W23806  14.763  40.053   4.684
51492W        W23807   2.743  23.175   4.249
51493W        W23808  32.333  22.800   5.090
51494W        W23809  23.061   1.225  13.580
51495W        W23810  17.145  23.129   3.872
51496W        W23811  12.594  20.572  12.544
51497W        W23812  31.059  10.812   4.686
51498W        W23813  34.680  33.270  13.483
51499W        W23814  28.230  38.059  13.531
51500W        W23815   5.074   3.394  12.428
51501W        W23816   7.789  41.554   2.143
51502W        W23817  23.922  38.234   0.686
51503W        W23818  22.779   9.391   2.676
51504W        W23819   6.651  29.317  12.467
51505W        W23820  41.653  30.195  10.750
51506W        W23821  23.045  36.850  11.546
51507W        W23822  17.765   0.990   4.245
51508W        W23823  35.835  32.621  13.639
51509W        W23824   9.886  44.495   4.561
51510W        W23825  10.691   1.353   1.241
51511W        W23826  14.287  44.145  12.318
51512W        W23827  14.088   1.625  10.936
51513W        W23828  41.133  16.516  11.593
51514W        W23829  39.215   1.079   1.396
51515W        W23830   6.928  25.086   1.750
51516W        W23831  34.018  32.899   1.850
51517W        W23832  39.641  21.224  11.086
51518W        W23833  35.630   8.695  13.575
51519W        W23834  18.742  15.630   4.227
51520W        W23835  29.439  15.566  12.382
51521W        W23836   9.002  16.059   3.714
51522W        W23837  35.271  38.434  14.017
51523W        W23838  35.589  36.652  12.856
51524W        W23839  26.191   9.762  14.335
51525W        W23840   1.235  38.026  14.842
51526W        W23841  19.562  27.875  13.386
51527W        W23842   4.043  27.426   4.626
51528W        W23843  32.951  19.517   1.512
51529W        W23844  15.153   3.859  14.673
51530W        W23845  20.644  13.242   2.880
51531W        W23846  32.148  17.585   4.673
51532W        W23847  38.607  37.004   2.407
51533W        W23848   9.655  20.069   2.703
51534W        W23849  18.139  13.752  11.543
51535W        W23850   5.056  40.034  12.540
51536W        W23851  18.806  37.586   0.737
51537W        W23852  29.815  12.682  11.915
51538W        W23853  33.202  22.465  12.953
51539W        W23854   2.341  28.209   0.466
51540W        W23855  11.758   6.768   3.139
51541W        W23856   1.854   8.915  10.640
51542W        W23857   8.284  20.932   4.179
51543W        W23858  17.475  33.495  14.112
51544W        W23859   4.263  43.368   4.212
51545W        W23860   8.301  36.480   0.395
51546W        W23861  42.040   3.019  13.040
51547W        W23862  16.277   8.743   5.016
51548W        W23863  41.981  12.180   2.806
51549W        W23864   3.704  23.034   3.888
51550W        W23865  12.193  33.578   1.485
51551W        W23866   6.181  17.228  12.662
51552W        W23867  41.018  15.345   2.827
51553W        W23868  44.431  37.612  13.085
51554W        W23869   7.863  10.778  10.383
51555W        W23870   0.670  36.098  12.839
51556W        W23871  20.829   6.731  14.776
51557W        W23872   5.921  37.934   1.871
51558W        W23873  37.906  10.636  14.766
51559W        W23874  15.258   2.730   0.188
51560W        W23875  16.686  40.424   5.003
51561W        W23876   3.775  35.641  11.170
51562W        W23877   0.024  23.983  14.716
51563W        W23878   7.653   1.915   4.639
51564W        W23879  10.321  17.785   3.218
51565W        W23880   5.034  44.351   1.330
51566W        W23881  11.718  33.182   3.715
51567W        W23882  18.325  16.996   2.085
51568W        W23883  33.239  42.026   1.928
51569W        W23884  33.639  17.558  11.946
51570W        W23885  23.575  25.645  14.298
51571W        W23886  27.627   5.454   2.348
51572W        W23887  17.746   0.992   1.333
51573W        W23888  12.590   5.199   4.631
51574W        W23889  18.512  23.933   2.314
51575W        W23890  24.721  29.515  11.645
51576W        W23891  33.681  42.035   1.675
51577W        W23892   6.282   2.393   1.148
51578W        W23893  37.083  21.927   4.632
51579W        W23894  24.332  11.677  10.443
51580W        W23895  43.262  30.890   4.492
51581W        W23896  24.917   7.180   0.871
51582W        W23897  40.403  29.821   4.725
51583W        W23898   1.740  30.917  10.891
51584W        W23899  26.414  31.790  12.455
51585W        W23900   7.269   2.268  13.978
51586W        W23901  13.423  31.157   4.667
51587W        W23902  27.499  33.652   3.121
51588W        W23903  37.352   0.454   4.972
51589W        W23904  11.402  40.919  14.755
51590W        W23905  11.759  21.984   2.425
51591W        W23906  19.511  26.273   0.965
51592W        W23907   9.628  33.388   0.230
51593W        W23908  38.151  26.986   2.382
51594W        W23909   6.227  38.568   4.011
51595W        W23910  44.643  25.065   4.651
51596W        W23911   5.679   8.836   3.763
51597W        W23912  24.380  11.347   0.446
51598W        W23913  17.612  34.071  11.513
51599W        W23914  27.403  27.585  11.122
51600W        W23915  26.530  13.164  12.549
51601W        W23916  43.323  18.833   3.696
51602W        W23917  22.199  39.491  14.515
51603W        W23918  17.775  12.798  10.650
51604W        W23919  33.155  44.870  10.824
51605W        W23920  30.083  26.613  14.949
51606W        W23921  29.696  23.154  12.630
51607W        W23922   1.083  11.178   2.364
51608W        W23923   5.227  38.423   0.471
51609W        W23924  13.322  38.038  14.277
51610W        W23925  17.394   2.032  11.620
51611W        W23926  30.059  40.350   3.286
51612W        W23927  12.133  37.838  13.780
51613W        W23928  26.588  14.118  10.491
51614W        W23929   2.325  44.033   4.019
51615W        W23930  28.666  35.978   4.927
51616W        W23931   5.383  35.078  12.767
51617W        W23932   0.756  37.413   3.378
51618W        W23933  44.164  22.725  13.985
51619W        W23934   8.007  16.216  10.969
51620W        W23935  11.758  17.979   4.226
51621W        W23936  10.802  30.440   4.916
51622W        W23937   7.234   7.352   1.699
51623W        W23938  11.408  11.611   1.745
51624W        W23939  24.767  42.114   3.872
51625W        W23940  17.109  26.547   3.640
51626W        W23941  26.552  22.223   1.279
51627W        W23942   4.969  15.107  11.342
51628W        W23943   4.326  28.198  10.745
51629W        W23944  26.626  17.304   1.489
51630W        W23945  42.530  38.485   1.269
51631W        W23946  33.423   0.231  12.854
51632W        W23947  30.396  42.332  13.420
51633W        W23948  30.539   1.483  12.679
51634W        W23949  11.271  10.844   3.754
51635W        W23950   4.903  28.960  11.588
51636W        W23951  23.033  26.106  11.481
51637W        W23952  16.703  42.939   3.568
51638W        W23953  23.260  25.566  11.198
51639W        W23954   3.412  26.134  14.883
51640W        W23955  18.601  24.180   1.246
51641W        W23956  15.044  23.048  10.807
51642W        W23957  33.604   2.913  13.987
51643W        W23958  26.334  27.967  11.669
51644W        W23959   5.556  25.205   3.318
51645W        W23960  24.215  18.283   1.863
51646W        W23961  14.787  44.083   3.724
51647W        W23962  37.826  12.840  10.588
51648W        W23963  41.795  25.088   2.851
51649W        W23964  17.117  26.606   3.128
51650W        W23965  32.685  35.619  12.935
51651W        W23966   7.711  26.750  10.724
51652W        W23967  22.574  39.851  14.513
51653W        W23968  24.893  41.808   4.922
51654W        W23969  12.019  41.774  12.565
51655W        W23970  12.179  40.393  13.492
51656W        W23971   3.534  19.013  13.810
51657W        W23972  37.311  33.969   4.172
51658W        W23973  20.266  18.366   1.266
51659W        W23974  34.328  14.784  14.834
51660W        W23975  23.435  25.282   1.909
51661W        W23976  42.873  25.765   3.577
51662W        W23977  14.802  39.231   2.426
51663W        W23978  11.678   1.105  14.758
51664W        W23979   0.103  13.807  13.885
51665W        W23980  25.698  20.222   1.376
51666W        W23981  44.656  38.851   4.101
51667W        W23982  36.161  15.675   2.365
51668W        W23983   8.820  28.939   4.588
51669W        W23984   5.058  39.066  14.230
51670W        W23985  35.430  38.324   4.782
51671W        W23986  39.758   6.342  13.054
51672W        W23987  41.836  26.412   3.276
51673W        W23988  17.331  15.118   4.620
51674W        W23989  36.631  13.278   1.934
51675W        W23990  23.291   4.457  10.774
51676W        W23991  40.147  42.798   0.422
51677W        W23992  30.953  19.590  14.255
51678W        W23993   6.465  22.646  11.118
51679W        W23994  16.629  39.344  14.777
51680W        W23995  38.506  14.226  10.665
51681W        W23996  28.749  31.414   3.333
51682W        W23997   7.256  42.907  12.024
51683W        W23998  36.159  20.221   1.426
51684W        W23999  18.522  25.227   3.676
51685W        W24000   1.473  26.267  12.962
51686W        W24001   4.653  34.833  11.188
51687W        W24002  30.705  27.953  14.447
51688W        W24003  20.905  26.603  13.468
51689W        W24004  26.716  22.681   2.237
51690W        W24005  44.831  17.607  12.860
51691W        W24006  21.494  35.089   1.490
51692W        W24007  21.861   6.243  11.602
51693W        W24008  11.507  22.551  13.441
51694W        W24009  34.172  37.451  13.105
51695W        W24010  12.614  43.886   1.831
51696W        W24011  25.022  38.143  13.999
51697W        W24012  21.965  13.621  12.092
51698W        W24013   9.474  39.888   1.323
51699W        W24014  13.802  38.331  12.840
51700W        W24015  11.136   5.307  10.701
51701W        W24016  20.703  28.269   3.985
51702W        W24017  38.758   2.687  14.061
51703W        W24018  43.007  25.407   0.340
51704W        W24019  12.319  30.591  11.026
51705W        W24020  15.125  27.443  11.144
51706W        W24021  40.560  17.953   4.893
51707W        W24022   1.424  13.367   2.770
51708W        W24023  17.708  42.515   1.372
51709W        W24024  24.650  13.306   4.660
51710W        W24025  30.485  18.894  11.195
51711W        W24026  18.267  24.380   2.279
51712W        W24027  20.067   9.339   1.449
51713W        W24028   0.428   9.634  14.959
51714W        W24029  18.757  39.362   0.378
51715W        W24030  15.114  38.619   0.054
51716W        W24031   6.198  12.346   4.995
51717W        W24032  13.786  18.548  12.406
51718W        W24033  41.341  41.037  12.886
51719W        W24034  22.480  18.173  11.497
51720W        W24035   3.269  27.422   2.683
51721W        W24036  40.811   2.467  14.689
51722W        W24037  17.224  39.301  10.484
51723W        W24038  24.243   0.308  10.611
51724W        W24039  20.296  26.529  12.402
51725W        W24040  27.060  40.569  11.699
51726W        W24041   4.578   5.791  11.497
51727W        W24042  21.802  23.152  13.410
51728W        W24043  12.232   0.272   4.566
51729W        W24044   7.765   9.151  12.477
51730W        W24045   1.836   9.934   5.139
51731W        W24046  44.496   8.586  12.776
51732W        W24047   6.141  31.558  13.412
51733W        W24048  21.655  35.599   2.234
51734W        W24049  17.656  24.156   0.008
51735W        W24050   6.420  10.394  12.960
51736W        W24051  21.477  23.212  11.374
51737W        W24052   8.664  23.793  10.725
51738W        W24053  35.647  15.207   1.806
51739W        W24054  13.773   2.199  14.474
51740W        W24055  43.795  11.341   1.408
51741W        W24056   2.807  23.119  14.956
51742W        W24057   7.770  32.853   2.806
51743W        W24058   6.251   3.721   4.649
51744W        W24059   9.710  22.798   0.839
51745W        W24060  19.041  44.560  14.987
51746W        W24061   2.682  38.085  14.759
51747W        W24062  33.603  13.219  11.465
51748W        W24063  20.793  10.881   0.599
51749W        W24064  26.334  18.185   4.997
51750W        W24065  27.187  24.529  12.075
51751W        W24066  15.555  22.273   0.289
51752W        W24067  26.732  35.419  12.035
51753W        W24068   7.192  42.529   1.286
51754W        W24069  24.909  29.605   2.217
51755W        W24070  24.768  21.014   3.018
51756W        W24071  14.899  26.981   2.427
51757W        W24072   8.780  10.839   3.905
51758W        W24073  24.150  35.923  10.819
51759W        W24074  20.794  13.888   0.922
51760W        W24075  33.352   8.627   3.522
51761W        W24076   8.164  10.635  12.734
51762W        W24077  11.180  13.311   1.271
51763W        W24078  39.975  30.098  11.533
51764W        W24079  32.050  11.938   2.788
51765W        W24080   9.044  26.647   2.380
51766W        W24081  42.561  24.732   0.776
51767W        W24082   4.696  16.554  13.120
51768W        W24083  13.575  21.813  13.384
51769W        W24084  30.631  15.297   4.129
51770W        W24085  21.999  19.150   2.411
51771W        W24086   6.838  12.353   0.313
51772W        W24087  44.508  41.353   2.222
51773W        W24088  18.217  44.549   4.114
51774W        W24089  35.824  36.603   0.790
51775W        W24090   9.483  43.769  12.489
51776W        W24091   8.107   4.632   2.150
51777W        W24092   1.051  13.748   4.168
51778W        W24093  36.573  32.980  13.566
51779W        W24094  22.022  21.822  12.675
51780W        W24095   7.050  13.370   2.879
51781W        W24096  40.211  20.644  11.000
51782W        W24097  32.751   2.449  13.002
51783W        W24098   5.287   0.414   1.389
51784W        W24099  37.079  30.894  10.681
51785W        W24100  36.942  35.869  13.033
51786W        W24101   4.596  19.951   1.234
51787W        W24102  18.202  12.776  11.576
51788W        W24103  26.187  41.387   1.827
51789W        W24104  33.915   0.363  14.587
51790W        W24105  40.324  31.194   2.241
51791W        W24106  17.637   0.204  14.895
51792W        W24107  28.822  11.872  12.035
51793W        W24108  18.612  29.883  12.432
51794W        W24109  41.068   6.227  14.025
51795W        W24110  28.662  26.162   0.529
51796W        W24111  40.323  28.523   3.451
51797W        W24112   4.959  35.527  11.061
51798W        W24113  24.010  16.525   4.627
51799W        W24114  39.055  14.371   0.346
51800W        W24115   3.030  11.233  13.026
51801W        W24116   6.350   6.158  11.014
51802W        W24117   2.109   6.309   5.043
51803W        W24118  25.758  38.938   5.000
51804W        W24119  17.016  21.525  12.015
51805W        W24120  20.976  31.077  12.040
51806W        W24121  39.277  34.915   1.341
51807W        W24122  19.331   5.899   3.427
51808W        W24123  28.100  11.738  14.687
51809W        W24124  25.369  39.243  14.991
51810W        W24125  35.797   7.701   1.459
51811W        W24126   8.760  17.138   1.495
51812W        W24127  32.906   1.844  14.052
51813W        W24128  25.459  23.761  12.989
51814W        W24129  10.983  20.314   2.331
51815W        W24130  37.002  16.191  13.033
51816W        W24131  22.134  40.097   4.576
51817W        W24132   6.369  12.686   0.332
51818W        W24133  28.890   3.853   0.869
51819W        W24134   0.404  13.845  14.318
51820W        W24135  26.419  41.894  14.087
51821W        W24136   1.656  29.784   3.159
51822W        W24137  25.038   0.458  11.207
51823W        W24138  24.524  27.599   1.296
51824W        W24139  22.684  29.384  13.866
51825W        W24140  39.116   7.079  11.545
51826W        W24141  27.264  34.228   5.325
51827W        W24142  35.491  34.257   3.509
51828W        W24143  44.937  25.740   4.100
51829W        W24144  41.260  34.869  14.396
51830W        W24145  10.025  16.688  12.920
51831W        W24146   1.259  14.664   1.327
51832W        W24147  27.458  16.715  12.435
51833W        W24148  27.221  32.412   3.321
51834W        W24149  41.561  25.500   4.105
51835W        W24150  13.585  23.165   2.112
51836W        W24151  11.916  34.467  11.423
51837W        W24152  30.552  19.275  14.305
51838W        W24153  32.453  44.430   2.724
51839W        W24154  27.184  16.751   4.046
51840W        W24155  25.761  44.279  13.972
51841W        W24156  27.776   5.707   3.654
51842W        W24157  34.382   1.007  13.861
51843W        W24158   2.331  15.976  14.015
51844W        W24159   7.957  11.667  11.388
51845W        W24160  22.670  11.276  10.404
51846W        W24161  27.554  14.798   1.261
51847W        W24162  15.738  13.565  14.729
51848W        W24163  36.291   1.290  10.648
51849W        W24164   1.795  20.976   3.156
51850W        W24165   1.828  43.546  14.021
51851W        W24166   1.394  30.264   0.963
51852W        W24167  39.137   4.993   2.244
51853W        W24168  30.999  16.085   4.997
51854W        W24169  19.939  28.435   4.288
51855W        W24170  44.218   8.327  13.609
51856W        W24171  32.982  35.945   1.291
51857W        W24172  39.257   0.496  11.178
51858W        W24173  40.596  13.271  11.994
51859W        W24174   3.030  14.511   1.704
51860W        W24175  39.436  30.577   3.853
51861W        W24176  15.327  13.870  13.824
51862W        W24177  25.112  22.710  10.892
51863W        W24178  43.572  21.626   1.681
51864W        W24179   7.101   4.825   0.976
51865W        W24180  15.212  25.111   2.697
51866W        W24181  39.914   2.865   0.373
51867W        W24182  18.456  35.257   0.837
51868W        W24183  22.422  40.769  10.266
51869W        W24184  14.289   5.354   2.772
51870W        W24185  12.700  34.211   4.810
51871W        W24186  25.421  33.641  12.826
51872W        W24187  34.122   9.137  10.673
51873W        W24188  29.570  35.234   2.927
51874W        W24189  28.646  25.007  10.754
51875W        W24190  36.279  33.609   3.679
51876W        W24191  19.914  43.350   2.390
51877W        W24192  29.520  12.410  12.461
51878W        W24193  40.798  27.510   2.662
51879W        W24194   8.634   4.287   4.284
51880W        W24195  19.653  21.453   1.306
51881W        W24196  13.162  27.467  14.961
51882W        W24197  33.694  43.650   0.399
51883W        W24198  27.709   0.873   4.618
51884W        W24199  36.279   8.838   4.172
51885W        W24200  17.778   6.803  11.337
51886W        W24201  41.560   2.669  14.795
51887W        W24202   7.690  44.939  11.611
51888W        W24203  40.947   2.956  14.526
51889W        W24204  13.740   5.389  12.005
51890W        W24205   9.962   6.891   1.768
51891W        W24206  32.880  40.449   0.383
51892W        W24207   3.954   9.715   2.533
51893W        W24208  21.640  19.613   0.278
51894W        W24209   1.683  22.267   4.439
51895W        W24210   3.690  37.980   0.814
51896W        W24211  32.632  24.066   3.318
51897W        W24212  42.357   2.346  13.045
51898W        W24213  26.622  12.020   1.721
51899W        W24214  42.253  29.462   5.066
51900W        W24215   4.563  38.937  14.347
51901W        W24216  21.497  42.968  11.206
51902W        W24217  29.912  34.058  14.276
51903W        W24218  18.517  26.485   3.535
51904W        W24219  34.199   1.817  12.778
51905W        W24220   0.869  21.511   2.433
51906W        W24221  43.012   2.061   2.472
51907W        W24222  10.215  37.665   4.070
51908W        W24223  14.570  41.541   5.040
51909W        W24224  17.724  16.142   0.394
51910W        W24225   3.103  36.509   3.706
51911W        W24226   4.870   2.302   4.607
51912W        W24227  23.603  33.355   2.227
51913W        W24228  37.798  44.379   0.695
51914W        W24229  39.040  31.676   4.695
51915W        W24230  21.192   2.274   2.064
51916W        W24231  11.839  44.883  10.089
51917W        W24232   4.712  29.169  14.301
51918W        W24233  36.551  16.654   3.708
51919W        W24234  23.646   2.486  11.665
51920W        W24235   2.255  36.484   0.265
51921W        W24236   6.228  40.035   2.196
51922W        W24237   8.285  15.497  14.947
51923W        W24238  10.424  26.011   3.731
51924W        W24239   1.691  40.278   3.786
51925W        W24240  23.223  30.865  11.652
51926W        W24241   1.816  14.217  13.140
51927W        W24242  19.517   4.290  10.370
51928W        W24243  38.817  33.398  13.218
51929W        W24244  36.567  18.608  13.401
51930W        W24245  42.453  31.887   1.566
51931W        W24246  16.897  23.118   2.855
51932W        W24247  35.368  20.209  14.564
51933W        W24248  27.156  30.456  10.607
51934W        W24249  43.854  20.139   2.148
51935W        W24250  27.464  28.625   0.426
51936W        W24251  16.824   7.142   3.678
51937W        W24252  35.120  21.090   4.269
51938W        W24253  26.541  29.112   1.796
51939W        W24254  34.755  39.232   4.066
51940W        W24255  12.248   0.684  11.842
51941W        W24256  22.065  18.615   1.861
51942W        W24257  23.896   9.055   0.550
51943W        W24258  35.057  24.078  11.911
51944W        W24259   4.703  40.407   1.708
51945W        W24260  38.875  14.185   4.719
51946W        W24261  20.573  30.642  13.292
51947W        W24262  44.037  36.191   1.421
51948W        W24263  14.241  18.157   3.590
51949W        W24264   2.652  21.922   2.274
51950W        W24265  28.588  38.918  10.221
51951W        W24266  12.163  19.177   3.999
51952W        W24267  17.576   5.327  11.179
51953W        W24268  26.098  27.617  13.093
51954W        W24269  37.303  33.942  10.796
51955W        W24270  41.925   4.019  14.945
51956W        W24271  19.247  41.331   0.439
51957W        W24272  35.008  20.674   3.327
51958W        W24273  40.308  14.689  13.190
51959W        W24274  38.121   8.387  11.953
51960W        W24275   3.895  26.736  14.532
51961W        W24276  40.535  34.129  13.997
51962W        W24277  22.663  28.568  12.546
51963W        W24278  14.535  17.593  13.236
51964W        W24279  15.414  37.749   3.139
51965W        W24280  42.989  23.391  11.585
51966W        W24281  25.616  15.781  13.899
51967W        W24282   3.293  44.796   4.606
51968W        W24283  32.683  25.119  11.425
51969W        W24284   4.835  14.291   1.021
51970W        W24285  17.854  34.639  13.325
51971W        W24286  43.690   9.349  14.329
51972W        W24287  24.044   8.689  14.595
51973W        W24288  29.669  40.075   4.483
51974W        W24289  22.348  14.567  12.061
51975W        W24290  33.444   5.206  12.116
51976W        W24291  20.117  31.728  10.819
51977W        W24292  22.812  39.998   0.495
51978W        W24293  33.102  21.281   1.729
51979W        W24294   1.395  25.441  12.012
51980W        W24295  25.583  25.681  14.701
51981W        W24296   8.146  40.060   0.777
51982W        W24297  15.890  15.703  11.004
51983W        W24298  38.088  32.445   4.076
51984W        W24299  43.834  38.643   3.737
51985W        W24300  43.426  23.956   3.251
51986W        W24301  15.652  20.324   1.739
51987W        W24302  35.852  44.424   2.456
51988W        W24303  19.110  14.285  10.882
51989W        W24304  14.731  19.817  12.451
51990W        W24305  10.150  33.643  12.595
51991W        W24306  33.945   1.717  11.571
51992W        W24307  20.792  31.400   1.165
51993W        W24308   3.991   9.471   4.563
51994W        W24309   8.390  38.356  13.160
51995W        W24310  30.057  32.390  12.504
51996W        W24311  28.270  24.134  10.318
51997W        W24312   6.878  23.949  13.955
51998W        W24313  26.522  19.141   2.260
51999W        W24314  36.987   1.693  10.986
52000W        W24315  20.698  21.504  14.151
52001W        W24316  14.283   8.783  14.529
52002W        W24317  25.225   1.268   4.597
52003W        W24318   1.655   1.516   2.213
52004W        W24319  36.807   8.626   1.033
52005W        W24320  11.362  20.967   3.709
52006W        W24321  40.364  26.627   3.642
52007W        W24322  15.689  10.636  11.492
52008W        W24323   6.450  32.077  11.505
52009W        W24324   3.551   0.288   0.788
52010W        W24325  39.038  44.553   2.690
52011W        W24326   9.789  32.978   3.090
52012W        W24327  10.680  22.711  14.468
52013W        W24328  35.015  37.955  11.056
52014W        W24329  22.058  14.410  14.763
52015W        W24330   8.910  44.510   0.376
52016W        W24331  17.118  20.866  10.286
52017W        W24332  25.227  34.368   0.446
52018W        W24333  19.350  20.487   4.207
52019W        W24334  40.445  29.209   1.361
52020W        W24335  39.812   1.339   2.223
52021W        W24336  21.079  26.406   0.863
52022W        W24337  17.241   7.932   2.097
52023W        W24338  18.026  35.875   3.623
52024W        W24339  18.041  43.477  11.225
52025W        W24340   4.924  11.446   2.268
52026W        W24341  42.786  12.639  14.874
52027W        W24342  26.638  10.381   1.206
52028W        W24343   5.043  31.471   0.283
52029W        W24344  21.466  42.481  11.911
52030W        W24345  21.081  20.430  11.600
52031W        W24346  15.331   5.366  13.961
52032W        W24347  10.263   6.271  13.585
52033W        W24348  11.528  16.732  13.900
52034W        W24349  30.937  25.966  12.408
52035W        W24350   6.273  22.950   3.737
52036W        W24351  31.136   9.312   4.335
52037W        W24352  22.789  26.945  10.646
52038W        W24353  38.347  29.383  14.762
52039W        W24354  17.278  42.360   3.345
52040W        W24355  24.573  31.431   0.880
52041W        W24356  31.990  12.069   1.278
52042W        W24357  16.153   3.453   2.159
52043W        W24358   2.993  41.540  12.374
52044W        W24359  24.799   8.886  13.357
52045W        W24360  33.229   7.990  10.677
52046W        W24361  34.057  26.532   4.589
52047W        W24362  17.327  10.772   3.675
52048W        W24363  23.762  11.386  12.042
52049W        W24364  27.038   6.321  14.860
52050W        W24365   8.294  17.401   3.077
52051W        W24366  22.759  25.055  13.016
52052W        W24367  20.307  14.758  14.435
52053W        W24368   1.773  25.489   3.264
52054W        W24369  34.787   8.206   2.339
52055W        W24370   6.815  15.937   1.274
52056W        W24371   6.969  11.597   0.738
52057W        W24372  24.502  25.792   0.888
52058W        W24373  24.768  18.394   2.943
52059W        W24374  19.502  28.955   3.721
52060W        W24375  12.885  32.397  11.485
52061W        W24376  34.819  16.988   3.313
52062W        W24377   6.294  13.309   1.912
52063W        W24378  22.163  40.833  11.625
52064W        W24379  19.182   2.547   0.894
52065W        W24380  43.299  21.110   4.926
52066W        W24381  16.513  27.626  13.797
52067W        W24382  14.865   7.732  14.926
52068W        W24383  20.303  42.789   1.130
52069W        W24384   4.573   6.627   3.219
52070W        W24385   1.609  30.109   1.890
52071W        W24386   3.765  18.864  11.795
52072W        W24387  44.446  28.724   2.852
52073W        W24388   3.666   4.419   4.478
52074W        W24389   0.945  27.019   0.766
52075W        W24390  38.852  42.247   3.247
52076W        W24391  23.086   1.918   4.459
52077W        W24392   4.449   8.935   1.381
52078W        W24393  12.150  10.919   3.290
52079W        W24394  38.534  36.415  13.089
52080W        W24395  10.746  42.573   0.297
52081W        W24396   3.686  40.960  13.077
52082W        W24397  29.598  21.068  14.991
52083W        W24398  38.090  29.608   3.088
52084W        W24399   6.469  20.291  12.744
52085W        W24400  41.949  19.289  10.570
52086W        W24401  38.162   2.779   2.230
52087W        W24402  22.595  38.531  12.846
52088W        W24403  28.086  22.089  11.973
52089W        W24404  12.174   1.482  14.851
52090W        W24405  44.260   3.363   2.406
52091W        W24406  40.110  25.996  12.705
52092W        W24407   1.779  35.518   5.454
52093W        W24408   4.409  35.349  13.830
52094W        W24409  10.147   3.207  10.605
52095W        W24410  44.787   1.274   1.468
52096W        W24411  10.843  41.527  11.012
52097W        W24412  11.185  18.220  12.431
52098W        W24413  33.537   1.767   0.479
52099W        W24414  41.501   8.158   2.260
52100W        W24415   6.008  27.461  10.669
52101W        W24416  20.265  11.157  11.003
52102W        W24417  40.504  30.550  13.452
52103W        W24418   0.388  28.355   3.420
52104W        W24419  20.129  33.181  13.448
52105W        W24420  29.092  12.605  11.479
52106W        W24421  42.903  31.358   2.728
52107W        W24422   0.233  17.264  14.091
52108W        W24423  38.189  22.522   0.841
52109W        W24424  32.739  23.100   1.826
52110W        W24425  42.277  15.278   1.290
52111W        W24426  14.634  23.145  12.411
52112W        W24427  33.859  40.768   2.616
52113W        W24428   6.667   4.848   0.699
52114W        W24429  36.028  43.290   0.912
52115W        W24430  40.142   7.604  11.014
52116W        W24431  22.717   0.274   4.124
52117W        W24432  20.794  25.955  12.507
52118W        W24433   4.221  38.783   3.762
52119W        W24434   6.360  24.965  14.457
52120W        W24435  40.521  42.489   1.222
52121W        W24436  24.561  14.796   0.359
52122W        W24437  27.282  11.754   4.243
52123W        W24438  35.508  11.136   3.659
52124W        W24439  35.934  36.863  12.518
52125W        W24440  42.881  11.651  10.532
52126W        W24441  21.128   6.274   3.734
52127W        W24442  26.143  44.099   3.366
52128W        W24443  24.188   1.462   2.733
52129W        W24444   0.863  30.486   1.212
52130W        W24445  17.195  37.029  13.008
52131W        W24446   8.151  39.056   2.220
52132W        W24447  14.139  41.764  14.284
52133W        W24448  37.043  35.372   3.139
52134W        W24449  39.596  16.248   2.371
52135W        W24450   8.411  20.724   3.712
52136W        W24451  32.833  31.175   3.626
52137W        W24452  21.189  10.361   3.970
52138W        W24453  27.605  21.480   4.176
52139W        W24454  17.643  39.902  10.795
52140W        W24455  22.125  11.442   4.169
52141W        W24456  31.234  11.603  12.620
52142W        W24457  29.982  13.357   1.184
52143W        W24458  23.642  33.383  10.849
52144W        W24459  40.303  24.166  14.346
52145W        W24460  14.674  20.478  13.606
52146W        W24461  13.435  22.569   3.174
52147W        W24462  25.179   9.883  10.877
52148W        W24463  33.154  37.869  10.699
52149W        W24464  28.911  19.708  11.276
52150W        W24465   3.886  15.345  13.457
52151W        W24466  44.434  17.658   4.848
52152W        W24467  38.346  39.032   4.507
52153W        W24468  15.018  32.157   4.085
52154W        W24469  28.989  36.317  10.303
52155W        W24470  15.807  22.626  13.664
52156W        W24471   2.015  41.976   3.214
52157W        W24472  11.937  28.129  13.354
52158W        W24473  33.823   2.647   0.269
52159W        W24474  32.358  21.559   4.694
52160W        W24475   1.389  21.704   4.307
52161W        W24476  42.301  15.766   0.986
52162W        W24477  19.095  26.551  10.547
52163W        W24478   0.041  44.362  10.717
52164W        W24479  40.994  26.197  12.562
52165W        W24480  13.686  39.864  14.450
52166W        W24481  34.494  40.464   3.708
52167W        W24482  37.459  14.806   0.014
52168W        W24483  22.260   5.377   3.547
52169W        W24484   2.992   8.880   3.096
52170W        W24485  17.806   4.636   0.951
52171W        W24486  18.580  29.593  11.126
52172W        W24487  14.307  21.795   2.378
52173W        W24488  13.843   0.393  10.590
52174W        W24489  14.356   5.895   2.760
52175W        W24490  33.993  32.901   2.760
52176W        W24491  41.414   6.645  14.981
52177W        W24492  31.114   7.469  11.901
52178W        W24493  25.719   0.661  10.254
52179W        W24494  42.857  11.379  11.497
52180W        W24495  19.182   6.415   4.102
52181W        W24496  17.215  10.615   3.163
52182W        W24497  12.352  15.165  14.352
52183W        W24498  19.266   9.464  13.986
52184W        W24499  35.855  34.149  10.933
52185W        W24500  31.640  26.244   4.275
52186W        W24501  24.572  12.329   1.327
52187W        W24502  38.346   8.431   1.809
52188W        W24503  17.401  39.513  12.701
52189W        W24504  41.825  23.969  13.455
52190W        W24505  28.971  18.268  12.458
52191W        W24506   7.985  25.900   4.299
52192W        W24507   7.635  40.866   4.475
52193W        W24508  11.682  42.536  12.015
52194W        W24509  37.564   5.253   4.703
52195W        W24510  38.556  13.383  14.490
52196W        W24511  30.424  13.715  10.969
52197W        W24512  10.633   2.200   1.583
52198W        W24513  27.149  35.465   4.051
52199W        W24514  37.781  12.962  14.775
52200W        W24515  24.255  23.951   4.263
52201W        W24516  33.105  39.974   0.426
52202W        W24517  16.408  14.322  10.692
52203W        W24518  26.165   8.865  12.621
52204W        W24519  13.621  23.029   3.246
52205W        W24520  21.545  24.662   2.717
52206W        W24521   8.579  40.027  12.631
52207W        W24522   5.436  39.983  10.542
52208W        W24523  40.042  30.686   1.693
52209W        W24524  21.108  40.427  13.863
52210W        W24525  14.592  17.564  11.937
52211W        W24526  22.730  15.766  13.903
52212W        W24527  25.461   3.722   2.789
52213W        W24528  37.632  44.325   2.462
52214W        W24529  36.652  18.317  11.937
52215W        W24530  44.369  32.567   0.058
52216W        W24531  12.913   2.719  11.062
52217W        W24532  41.323  20.144   0.284
52218W        W24533  35.751  30.145  10.486
52219W        W24534  41.274  35.428   4.137
52220W        W24535   3.450  38.486  14.469
52221W        W24536  12.256  32.365  14.756
52222W        W24537  41.765   7.243  11.944
52223W        W24538  26.685  44.440  10.731
52224W        W24539  39.609  31.705  14.469
52225W        W24540   9.760  36.118  11.142
52226W        W24541  16.599   1.432  14.430
52227W        W24542  24.016  30.467  11.535
52228W        W24543  24.533  42.902   2.646
52229W        W24544  42.138  26.874   0.877
52230W        W24545  17.985  24.105  13.008
52231W        W24546   2.223  21.950  12.453
52232W        W24547  34.638  15.668   2.266
52233W        W24548  13.752  14.062  12.365
52234W        W24549  20.867  10.924   2.360
52235W        W24550  36.518  24.028  13.805
52236W        W24551   1.374  26.501   4.562
52237W        W24552  35.039   7.209  11.468
52238W        W24553  42.767  16.596  13.957
52239W        W24554  14.226  36.394   4.609
52240W        W24555  28.623   0.078   2.781
52241W        W24556   7.500  29.523  11.449
52242W        W24557  35.382   1.836  13.583
52243W        W24558  38.118  36.995  10.989
52244W        W24559  30.598  21.589  11.646
52245W        W24560  31.008   1.765  13.466
52246W        W24561  27.457  11.170   3.787
52247W        W24562  27.843  26.296  14.918
52248W        W24563  31.166   5.188   3.652
52249W        W24564  13.154   4.502   1.912
52250W        W24565   2.328  28.617   0.981
52251W        W24566  36.904  43.462  11.702
52252W        W24567  32.427  42.367   0.276
52253W        W24568   8.769   6.151   2.003
52254W        W24569  10.363   5.998   3.355
52255W        W24570  16.468  15.159   1.389
52256W        W24571  12.212  17.076  13.558
52257W        W24572  38.162   0.380  14.895
52258W        W24573   6.447   6.764  14.414
52259W        W24574  23.355  18.584   5.489
52260W        W24575   2.271  12.135  10.220
52261W        W24576  17.138  30.037  11.960
52262W        W24577   4.472  12.626   1.217
52263W        W24578  41.491  40.063  10.727
52264W        W24579   2.831   3.187   4.642
52265W        W24580  29.508  30.155  14.484
52266W        W24581  41.576  27.439  13.082
52267W        W24582   8.876  29.924  12.043
52268W        W24583   9.133  41.891   2.602
52269W        W24584  11.206  28.339  14.508
52270W        W24585  37.157  16.667  12.781
52271W        W24586  38.539  27.543  12.999
52272W        W24587  44.426   1.833   0.213
52273W        W24588  18.831   7.437  12.698
52274W        W24589  13.261  30.969   3.160
52275W        W24590   6.338   6.349   0.893
52276W        W24591  14.343  14.265  10.700
52277W        W24592  32.574  12.163  10.685
52278W        W24593  30.648  20.337   1.801
52279W        W24594   7.296   9.607   1.466
52280W        W24595  32.036  38.013   0.727
52281W        W24596   9.138   5.795   0.940
52282W        W24597  43.766  18.327   3.180
52283W        W24598  12.283  31.108   0.292
52284W        W24599  27.523  33.676   1.702
52285W        W24600  23.090  42.579   4.068
52286W        W24601  38.755  25.513   9.833
52287W        W24602  20.798  35.175   2.798
52288W        W24603  18.277  24.597   4.892
52289W        W24604  37.555  15.273  10.700
52290W        W24605   8.582  39.075   5.044
52291W        W24606  14.326  29.622   0.761
52292W        W24607  44.362  24.524  12.272
52293W        W24608  32.005  40.825   1.761
52294W        W24609  30.402  11.869   0.302
52295W        W24610  12.743  20.866  10.718
52296W        W24611  37.332  38.166  14.408
52297W        W24612  19.091  40.300  11.131
52298W        W24613  32.474  28.033  14.524
52299W        W24614   4.239  17.097  12.597
52300W        W24615  13.059  14.586   4.168
52301W        W24616  21.008  16.148  12.045
52302W        W24617  33.553  33.210  13.905
52303W        W24618   7.803  39.054  10.716
52304W        W24619  33.161  27.163  12.877
52305W        W24620  38.830  40.251  10.480
52306W        W24621  13.628  25.145  13.826
52307W        W24622  15.042   8.018   0.822
52308W        W24623  31.204  42.868   3.764
52309W        W24624  38.506  17.203  12.371
52310W        W24625  19.619  18.188  12.974
52311W        W24626  12.302  11.419  14.524
52312W        W24627  31.024  31.809   4.178
52313W        W24628  14.769   9.410   0.614
52314W        W24629  17.798  38.455  12.329
52315W        W24630  39.348  22.356  13.367
52316W        W24631  30.224  11.823   1.343
52317W        W24632  24.472   7.807   1.347
52318W        W24633  16.729  10.057  12.480
52319W        W24634   5.896  18.607   1.902
52320W        W24635  28.996  32.198   3.139
52321W        W24636  38.933  43.504   4.782
52322W        W24637  31.814   3.929  12.398
52323W        W24638   8.888  12.174  11.549
52324W        W24639  13.192  10.880   1.300
52325W        W24640   3.659  37.920  11.352
52326W        W24641  22.541  15.049  14.241
52327W        W24642  36.052  36.058  11.961
52328W        W24643  27.108  33.215  12.052
52329W        W24644  27.445  10.886   4.259
52330W        W24645  26.781  31.418  12.662
52331W        W24646   1.568  39.392   2.157
52332W        W24647   6.248  22.578  11.929
52333W        W24648   5.136  15.641  12.532
52334W        W24649  28.656  33.319   1.409
52335W        W24650   8.633  14.545  14.742
52336W        W24651  35.906  40.234  11.085
52337W        W24652  22.806   0.254   0.708
52338W        W24653  14.276  40.282   1.857
52339W        W24654  42.875  44.893   2.598
52340W        W24655  17.793  26.277  13.969
52341W        W24656  42.108  33.936   2.761
52342W        W24657  23.543  40.419  13.010
52343W        W24658  35.638  18.659   4.499
52344W        W24659  12.075  12.192   1.349
52345W        W24660  28.458  31.934   9.809
52346W        W24661  14.644   1.451   2.312
52347W        W24662   8.566  12.661  14.392
52348W        W24663  44.234  12.190  12.075
52349W        W24664  23.596  35.490   2.695
52350W        W24665  33.075   6.308   0.422
52351W        W24666  17.721   7.703   4.311
52352W        W24667  23.177   1.922  11.590
52353W        W24668   8.875   6.558   1.626
52354W        W24669  21.428  17.696   4.578
52355W        W24670  35.078  38.995   0.488
52356W        W24671  25.491  22.645   0.587
52357W        W24672  21.644   7.855  10.625
52358W        W24673  26.661  37.315  10.360
52359W        W24674  14.591  32.262   0.965
52360W        W24675  16.773  31.890  13.510
52361W        W24676  26.834   9.939   3.675
52362W        W24677  22.547  20.582  13.812
52363W        W24678  15.279   0.791  10.578
52364W        W24679  10.174  40.948  12.262
52365W        W24680   8.986  14.578   4.093
52366W        W24681  30.872   5.794   4.087
52367W        W24682  22.568  13.283  13.064
52368W        W24683   2.864  17.131  13.886
52369W        W24684  35.058  44.794   4.338
52370W        W24685  43.728  36.943   4.054
52371W        W24686   1.526  21.173   4.840
52372W        W24687  39.779  36.327  14.471
52373W        W24688   4.744  20.976   3.332
52374W        W24689  30.196   2.040  14.553
52375W        W24690  42.900  32.004  14.770
52376W        W24691  43.429   7.138   2.535
52377W        W24692  33.544  14.086   3.835
52378W        W24693  21.724  43.033  12.992
52379W        W24694  10.348   1.809  12.700
52380W        W24695   7.960  22.039   0.328
52381W        W24696  14.330  41.371  13.460
52382W        W24697  19.099  33.418  12.069
52383W        W24698  37.645  32.863   0.808
52384W        W24699  44.935  39.026   1.017
52385W        W24700  44.492   3.184   3.241
52386W        W24701   0.535  33.552  10.683
52387W        W24702  34.522   9.084   3.837
52388W        W24703  38.058  36.400   0.398
52389W        W24704  17.305  18.121  11.556
52390W        W24705  27.957  38.962   0.036
52391W        W24706   1.436   5.311  10.896
52392W        W24707   6.822   6.385   4.162
52393W        W24708  13.111  10.809   3.544
52394W        W24709  12.430  19.661   0.036
52395W        W24710  33.222  30.650  12.581
52396W        W24711  34.329   9.290  11.137
52397W        W24712  41.891  13.797  14.579
52398W        W24713  33.658  28.518  12.905
52399W        W24714  19.151  44.695   2.356
52400W        W24715  37.582  13.706  13.452
52401W        W24716   9.582  31.707   0.898
52402W        W24717  24.480  31.534   0.388
52403W        W24718  26.463   7.216   2.725
52404W        W24719  43.248  26.635   0.024
52405W        W24720  29.247  21.069  11.949
52406W        W24721  21.654  25.530   3.407
52407W        W24722  37.960  19.138   4.901
52408W        W24723  28.893   1.321   2.197
52409W        W24724   2.501  38.468   1.461
52410W        W24725  24.777  12.470  14.023
52411W        W24726  41.279  28.187   2.118
52412W        W24727  21.733  30.461   4.589
52413W        W24728  33.327  18.814  11.114
52414W        W24729  22.198   1.278   1.179
52415W        W24730  30.165   1.881   2.471
52416W        W24731  11.289  16.749   3.352
52417W        W24732  24.407  29.448  14.784
52418W        W24733  21.352  32.904  14.754
52419W        W24734  26.548  44.387  13.038
52420W        W24735   8.204   8.248  13.058
52421W        W24736  15.211  18.702  11.984
52422W        W24737   7.979  34.794   0.687
52423W        W24738  23.486  13.617  11.836
52424W        W24739  39.438  12.750  13.378
52425W        W24740  41.883  40.331   3.851
52426W        W24741  15.852  34.127   4.057
52427W        W24742  15.843  11.813   1.958
52428W        W24743   1.874  27.649   4.729
52429W        W24744   2.392  16.687   3.749
52430W        W24745  12.115   6.749  10.609
52431W        W24746  29.190   3.430  11.605
52432W        W24747  13.315   7.903  12.344
52433W        W24748  13.385   0.880   0.612
52434W        W24749   2.418  34.314   1.000
52435W        W24750  19.744  23.876  12.170
52436W        W24751  19.954   5.232   0.827
52437W        W24752  23.529  22.378  10.258
52438W        W24753  15.850  12.766  14.365
52439W        W24754  16.347   6.795  11.547
52440W        W24755  25.352  23.680   2.844
52441W        W24756  29.657  14.744   4.710
52442W        W24757  35.519  35.842   4.231
52443W        W24758  43.254  32.524   3.230
52444W        W24759   4.848   8.896  13.265
52445W        W24760  40.542  35.653   3.782
52446W        W24761  42.139   8.588  12.429
52447W        W24762  22.520  21.460   0.236
52448W        W24763  23.733  27.527   1.551
52449W        W24764  12.559  34.407  11.641
52450W        W24765  27.173  39.284  11.210
52451W        W24766   4.805  36.049   2.308
52452W        W24767   5.686  15.225   2.272
52453W        W24768  24.116  30.439  12.489
52454W        W24769  37.490  44.661  12.096
52455W        W24770  42.306  43.764   2.627
52456W        W24771  30.862  22.274  14.124
52457W        W24772  41.113  24.974   0.419
52458W        W24773  29.130  22.432   1.272
52459W        W24774  25.160  26.403  10.618
52460W        W24775  40.275  23.294  11.685
52461W        W24776  22.145  39.239  14.964
52462W        W24777  22.548  36.909  11.455
52463W        W24778  37.329  10.269   4.914
52464W        W24779  26.376  17.684   1.192
52465W        W24780  26.590  42.052   4.616
52466W        W24781   5.318  26.171  13.766
52467W        W24782   8.886  21.482  11.415
52468W        W24783   3.418  37.957   5.034
52469W        W24784  26.257   7.272   4.513
52470W        W24785  14.408  11.108  12.973
52471W        W24786  22.018  28.118  11.478
52472W        W24787  17.545  27.016   4.288
52473W        W24788   8.767  17.517   3.732
52474W        W24789  18.600  25.681   1.862
52475W        W24790   2.011  33.937   3.744
52476W        W24791   1.172  41.957  14.590
52477W        W24792  26.840  11.229   1.431
52478W        W24793   6.948   8.806   3.137
52479W        W24794  44.521  13.839  11.673
52480W        W24795  42.845   7.965   2.774
52481W        W24796  44.773   0.875  11.851
52482W        W24797  22.445  21.488   1.216
52483W        W24798  36.080  20.790   0.751
52484W        W24799  30.911  20.651   3.284
52485W        W24800  11.932  35.922   2.176
52486W        W24801   2.372  29.395  12.017
52487W        W24802  13.624  44.566   2.747
52488W        W24803  35.047  10.695  13.747
52489W        W24804  27.008  30.617   0.031
52490W        W24805  12.275  25.243   2.852
52491W        W24806  18.123   0.516  13.983
52492W        W24807   2.861  25.483   3.943
52493W        W24808  11.952  37.594  13.323
52494W        W24809  19.693  38.233  11.991
52495W        W24810  24.453  13.334   3.740
52496W        W24811  19.926  20.981  13.860
52497W        W24812   7.738  22.346   2.711
52498W        W24813  39.116  44.565  10.989
52499W        W24814  18.099   5.385   2.265
52500W        W24815   0.789   6.457  13.394
52501W        W24816  37.902  16.820  10.735
52502W        W24817   4.451  29.704  10.474
52503W        W24818  20.601  38.988  12.859
52504W        W24819  14.118  15.532   2.283
52505W        W24820  18.059  30.518  13.089
52506W        W24821  16.328   5.131   3.681
52507W        W24822  26.880  10.707  13.388
52508W        W24823   3.694   3.762   4.683
52509W        W24824   6.225  42.568   0.773
52510W        W24825   8.408  27.597  10.737
52511W        W24826  25.073  28.425   1.265
52512W        W24827  16.845  28.032  10.278
52513W        W24828  41.911   2.249   0.506
52514W        W24829   5.628  44.011  11.404
52515W        W24830   6.783  23.080   4.656
52516W        W24831  27.290   5.794   0.753
52517W        W24832  10.564  42.872  10.630
52518W        W24833   7.988  24.600  11.130
52519W        W24834   9.864  37.606   2.233
52520W        W24835  21.781  25.147   4.345
52521W        W24836  19.096  25.485   1.757
52522W        W24837  40.996  29.087  13.767
52523W        W24838   3.445  24.555  12.449
52524W        W24839  19.179  33.205  13.384
52525W        W24840   9.098   5.309  10.446
52526W        W24841  35.647   5.964  13.332
52527W        W24842  35.680  26.486  10.927
52528W        W24843  35.337   3.044  14.259
52529W        W24844  24.724  18.789   0.863
52530W        W24845  22.484  13.292   1.300
52531W        W24846   4.836  27.103   0.451
52532W        W24847  16.756  16.847   1.257
52533W        W24848  33.606   8.138   1.714
52534W        W24849   9.012  35.309   3.461
52535W        W24850  15.156  32.981   4.948
52536W        W24851  17.988  24.777   1.805
52537W        W24852  27.787   0.190  11.193
52538W        W24853   2.457  40.618   2.479
52539W        W24854  23.258   9.615  13.539
52540W        W24855  30.478  43.479  14.898
52541W        W24856  36.080   7.349   4.523
52542W        W24857  19.724  15.028  11.075
52543W        W24858   2.064  37.456  14.759
52544W        W24859  23.223   0.784   1.739
52545W        W24860  17.090   7.946  14.031
52546W        W24861   3.331  29.815  12.015
52547W        W24862  10.760  10.426   4.080
52548W        W24863  33.387  18.534  12.473
52549W        W24864   9.166  16.749  11.468
52550W        W24865   5.232   0.509  11.593
52551W        W24866  18.176  36.527   1.127
52552W        W24867  27.867  20.584   3.726
52553W        W24868  25.922  15.609   2.200
52554W        W24869  39.659  42.700  11.633
52555W        W24870  30.771  28.582  13.879
52556W        W24871  24.166  38.333   1.258
52557W        W24872  36.969   2.670  13.994
52558W        W24873  34.790  25.656  13.480
52559W        W24874  43.367  31.893  14.990
52560W        W24875  18.189  12.536  12.024
52561W        W24876  14.018  44.461   0.416
52562W        W24877  19.235  11.153  11.076
52563W        W24878  44.454  19.950   0.841
52564W        W24879  22.333  19.206   2.824
52565W        W24880  19.184  23.789   2.801
52566W        W24881   4.944  13.387  10.777
52567W        W24882  38.929  15.360  10.896
52568W        W24883  11.249  14.335   0.058
52569W        W24884  12.302   1.497   3.306
52570W        W24885  31.421  40.058   3.145
52571W        W24886  34.942  26.154  13.619
52572W        W24887  35.659   9.872   2.696
52573W        W24888  43.398  16.110   1.648
52574W        W24889  23.134  35.621  10.503
52575W        W24890  35.609  20.159   0.034
52576W        W24891  13.413   8.615   2.786
52577W        W24892  20.506   7.805  14.100
52578W        W24893  43.567  26.529   2.725
52579W        W24894   5.290  24.607   0.765
52580W        W24895  13.049  18.628   1.503
52581W        W24896  13.106  15.329   3.262
52582W        W24897  15.415   3.453  11.132
52583W        W24898  27.100  32.972   5.031
52584W        W24899  24.429  27.439   2.683
52585W        W24900  18.686  31.494   1.229
52586W        W24901  33.485   5.792  11.490
52587W        W24902   6.433  16.937   4.842
52588W        W24903  44.322  43.318  12.107
52589W        W24904  21.980   9.487  14.392
52590W        W24905  17.021  41.865   4.780
52591W        W24906  22.207  16.403  11.062
52592W        W24907  31.154  43.247  13.517
52593W        W24908  12.696  33.551   4.170
52594W        W24909   6.417  43.670   2.756
52595W        W24910  38.270   6.892   4.152
52596W        W24911  11.732   5.756   2.201
52597W        W24912  34.439   2.515  11.519
52598W        W24913  34.201  33.475  13.515
52599W        W24914  41.077   7.643   3.314
52600W        W24915  17.097   1.948  12.058
52601W        W24916   3.126  12.258   4.181
52602W        W24917   6.309  43.772  13.145
52603W        W24918  31.216  44.465   0.255
52604W        W24919  13.572   7.289   2.661
52605W        W24920  18.450   2.749  11.647
52606W        W24921  35.794   8.714   3.288
52607W        W24922   6.913  23.192   2.435
52608W        W24923  16.219  40.830  14.461
52609W        W24924  30.044  24.769   0.002
52610W        W24925  10.332  34.101   4.162
52611W        W24926   7.250   0.979  13.359
52612W        W24927  37.892  39.020   2.718
52613W        W24928  21.351   8.164  11.712
52614W        W24929   4.438  31.856  14.552
52615W        W24930  44.807  10.859   3.557
52616W        W24931  39.063  23.087   9.766
52617W        W24932  28.961   9.581  11.489
52618W        W24933  18.014   1.315  14.939
52619W        W24934   7.400  19.511   4.713
52620W        W24935   2.894  31.703   3.789
52621W        W24936  25.912   4.003   2.720
52622W        W24937  29.638  44.485   2.238
52623W        W24938  41.778  13.171   2.092
52624W        W24939  26.560  21.876  13.357
52625W        W24940   4.239   5.497   1.688
52626W        W24941   9.650  39.962  12.590
52627W        W24942  32.839  28.170   0.399
52628W        W24943  44.546  10.959   3.137
52629W        W24944  28.467  19.905  14.834
52630W        W24945  29.183  30.828   3.739
52631W        W24946   4.437  17.660   1.273
52632W        W24947  22.734  10.364   1.318
52633W        W24948  41.451  37.138  12.003
52634W        W24949  13.130   7.706   1.802
52635W        W24950  11.813  20.221  13.255
52636W        W24951  39.689  33.722  12.055
52637W        W24952  32.575   0.832  14.243
52638W        W24953  21.798  31.138  13.511
52639W        W24954  28.619  27.389   4.160
52640W        W24955  27.756  20.219  11.077
52641W        W24956   0.489  16.249   0.218
52642W        W24957  32.537  34.341  11.117
52643W        W24958  23.268  30.550  12.128
52644W        W24959  21.250  42.783   4.146
52645W        W24960  32.606  37.928  13.971
52646W        W24961  23.869  29.957   4.917
52647W        W24962  24.506   1.297  14.814
52648W        W24963  36.901   7.864  11.100
52649W        W24964  36.451   7.478   4.126
52650W        W24965   6.592  28.226   0.011
52651W        W24966   1.388  34.450  14.442
52652W        W24967  30.732  10.074   2.796
52653W        W24968  24.104  19.764   3.249
52654W        W24969  44.782  18.676   0.396
52655W        W24970  39.629  13.082   3.894
52656W        W24971   3.926  13.383  10.691
52657W        W24972  17.796  14.049   2.837
52658W        W24973  28.970  12.195  11.032
52659W        W24974  30.899  36.858  12.308
52660W        W24975  25.907  36.504  13.406
52661W        W24976  18.388  33.857   3.696
52662W        W24977  14.009   1.882  11.772
52663W        W24978   8.340  26.132   3.527
52664W        W24979   6.710  18.556  13.423
52665W        W24980  22.983  30.527   1.282
52666W        W24981  38.623   2.375  14.441
52667W        W24982  12.267  35.843   3.094
52668W        W24983  18.734  11.136   4.105
52669W        W24984  15.603  13.135   0.345
52670W        W24985  24.477  32.622   0.000
52671W        W24986  37.405  21.711  14.809
52672W        W24987  13.139  20.552  11.594
52673W        W24988  38.508  38.747   1.703
52674W        W24989  12.645   3.166  10.358
52675W        W24990   2.304  27.628   2.250
52676W        W24991  26.489  13.341  14.846
52677W        W24992  40.874  42.826  10.281
52678W        W24993   2.386  23.864  13.908
52679W        W24994  20.940  10.143  13.014
52680W        W24995  42.386  37.984  13.566
52681W        W24996  22.241  16.597   1.520
52682W        W24997  18.890  17.720  12.836
52683W        W24998   9.651  35.847  12.818
52684W        W24999  39.463  39.098   3.757
52685W        W25000   1.238  18.795  11.918
52686W        W25001   5.717  10.551   1.013
52687W        W25002  36.079   3.341   0.428
52688W        W25003   4.503   9.345  10.674
52689W        W25004  43.880  32.739  14.883
52690W        W25005  33.408  38.349   1.363
52691W        W25006   0.201  15.626  11.753
52692W        W25007  15.914  13.509   4.494
52693W        W25008   5.342   0.863  10.494
52694W        W25009  43.492  25.604   4.206
52695W        W25010  17.105   0.764  12.594
52696W        W25011  11.383  19.996   2.268
52697W        W25012  37.009  23.481   5.038
52698W        W25013  32.640  28.553   3.223
52699W        W25014  12.900   0.079   4.392
52700W        W25015  23.140  40.415   0.448
52701W        W25016  38.018  36.707   4.956
52702W        W25017  31.483  10.582  13.122
52703W        W25018   6.048  25.659   0.375
52704W        W25019  21.621  14.192  10.593
52705W        W25020  13.507   1.023  14.927
52706W        W25021  22.896  37.310   0.110
52707W        W25022  26.589  40.821   2.230
52708W        W25023   9.190  28.002  10.701
52709W        W25024  37.799  25.824  10.140
52710W        W25025  37.649   2.275  14.458
52711W        W25026  35.880  19.188  14.419
52712W        W25027  24.994  33.125  11.483
52713W        W25028   6.851  16.850   4.541
52714W        W25029  12.428  22.537  14.817
52715W        W25030  13.227   1.001   1.493
52716W        W25031  41.457  31.780  11.506
52717W        W25032   0.965  16.260  13.230
52718W        W25033  38.361  34.072   1.744
52719W        W25034  11.607  14.770  12.979
52720W        W25035  17.072   9.632   2.167
52721W        W25036   6.312   4.678  13.496
52722W        W25037  25.200   0.208   0.332
52723W        W25038  24.789  32.076  13.461
52724W        W25039  22.343  36.418   1.259
52725W        W25040  22.535  35.921  12.357
52726W        W25041   5.557  26.216  11.373
52727W        W25042   1.965  13.623  13.867
52728W        W25043  30.911  42.343   4.218
52729W        W25044   7.812  24.096  11.988
52730W        W25045  18.099  30.089   4.194
52731W        W25046  41.153  44.975  13.821
52732W        W25047   6.339  23.730   4.155
52733W        W25048  29.702   9.610  12.114
52734W        W25049  24.330  10.769   2.738
52735W        W25050  32.904   6.011  11.598
52736W        W25051  34.330   2.442   4.644
52737W        W25052  41.811  33.164   0.518
52738W        W25053  17.196  36.005   2.228
52739W        W25054  44.332  13.872   1.781
52740W        W25055  38.821   2.277  14.913
52741W        W25056  10.659  38.009   2.869
52742W        W25057  34.454  19.533  12.629
52743W        W25058  11.165  34.070   4.549
52744W        W25059  19.119   9.121   2.637
52745W        W25060  35.678  14.664   2.872
52746W        W25061  15.124   9.240  10.573
52747W        W25062   3.371   5.161   3.578
52748W        W25063  34.325  22.179  10.570
52749W        W25064   3.468  25.643  10.999
52750W        W25065  38.959  12.376  11.644
52751W        W25066  32.152  30.828   0.299
52752W        W25067  43.773  22.949   3.735
52753W        W25068  38.839  18.115  10.522
52754W        W25069  21.622  32.517  14.050
52755W        W25070  19.491  39.932  14.518
52756W        W25071  36.439  36.504  14.338
52757W        W25072  42.177  40.019   1.781
52758W        W25073  38.314  21.497  13.038
52759W        W25074  17.656  15.693   0.833
52760W        W25075  32.962  40.907  12.955
52761W        W25076  32.034   7.985  13.482
52762W        W25077  29.752  31.634   1.355
52763W        W25078   9.635  38.042  13.417
52764W        W25079  24.258  44.422  13.037
52765W        W25080  38.838   8.349   4.865
52766W        W25081  20.738  40.470  11.902
52767W        W25082  26.573  21.089  11.027
52768W        W25083  28.498  36.804   2.684
52769W        W25084  18.559  22.837  12.064
52770W        W25085  32.437  17.431  14.745
52771W        W25086   0.819  36.113  12.075
52772W        W25087   6.785  27.755  14.343
52773W        W25088  39.536  20.157  11.080
52774W        W25089  12.423  37.263  11.986
52775W        W25090  44.937  22.789   4.268
52776W        W25091  38.314  39.331  14.420
52777W        W25092  15.351  39.535  10.632
52778W        W25093  32.081  37.531  12.520
52779W        W25094  18.035  13.816   1.909
52780W        W25095  42.369   5.704  11.382
52781W        W25096  23.924  28.449  10.792
52782W        W25097  40.328  36.599   4.147
52783W        W25098  29.120   3.503  13.899
52784W        W25099  32.154  24.336  14.391
52785W        W25100  10.338  19.982  12.777
52786W        W25101  36.396   6.576   1.737
52787W        W25102  20.455  35.409  12.920
52788W        W25103  29.120  27.872  14.274
52789W        W25104  18.686  18.339   3.738
52790W        W25105   2.632   8.586   0.589
52791W        W25106  10.229  33.434   2.438
52792W        W25107  28.553  26.968  11.835
52793W        W25108   4.205  34.021   3.243
52794W        W25109   5.926  14.175  14.032
52795W        W25110  22.582   2.564   1.200
52796W        W25111   3.559  39.358  12.384
52797W        W25112  38.264  12.238   3.751
52798W        W25113  13.589  23.224  12.528
52799W        W25114  20.027   4.363   4.113
52800W        W25115  10.901  36.043  11.491
52801W        W25116  20.120  10.140  13.580
52802W        W25117  37.313  25.617   3.675
52803W        W25118  23.931  10.862   3.054
52804W        W25119   2.264  17.598   0.343
52805W        W25120  14.425   8.223   1.812
52806W        W25121  13.164  37.863   4.792
52807W        W25122  11.941  10.189  13.857
52808W        W25123   9.192   7.020   2.421
52809W        W25124  39.899  35.840  12.362
52810W        W25125  17.305   3.888   4.704
52811W        W25126  34.519  19.323   4.498
52812W        W25127  17.051  12.179   1.752
52813W        W25128  42.291  36.440   1.098
52814W        W25129  15.294   4.439  11.951
52815W        W25130  39.650   8.673   1.197
52816W        W25131  24.693   8.500   0.180
52817W        W25132  23.089   5.241   0.526
52818W        W25133  42.961  27.202  11.628
52819W        W25134  40.945   1.974  12.404
52820W        W25135  40.932   5.176  12.992
52821W        W25136  21.714   1.836  12.868
52822W        W25137  21.561   0.385  12.370
52823W        W25138  39.380  38.021   1.465
52824W        W25139  28.573  32.427   3.336
52825W        W25140  13.774  24.894   1.164
52826W        W25141  12.582  24.188   4.105
52827W        W25142   5.106  39.927   2.899
52828W        W25143  14.171  43.358  13.512
52829W        W25144  33.557   6.952  10.748
52830W        W25145  26.224  43.005   0.770
52831W        W25146  14.854  27.508  11.564
52832W        W25147  14.835  30.985   0.487
52833W        W25148  18.229  11.830  11.624
52834W        W25149   3.479  19.760   2.799
52835W        W25150   5.244  20.569   4.677
52836W        W25151   2.488  25.379   2.015
52837W        W25152   9.878  16.195   2.456
52838W        W25153  13.640  22.742  14.237
52839W        W25154  40.110  16.835  11.075
52840W        W25155  43.785   3.463  10.599
52841W        W25156  28.980  37.437  14.730
52842W        W25157  22.273   6.254   4.248
52843W        W25158  13.239  43.412   0.263
52844W        W25159   7.441   4.733   4.088
52845W        W25160  37.791  28.862  13.051
52846W        W25161  38.317   2.307   2.018
52847W        W25162  42.935  20.766   0.314
52848W        W25163  20.038  21.077   2.162
52849W        W25164  11.969   8.594   5.089
52850W        W25165   2.220  44.980   3.866
52851W        W25166  24.983   6.753   1.431
52852W        W25167   8.765  44.575  12.656
52853W        W25168  44.947  20.698   0.005
52854W        W25169  22.294  38.906  12.383
52855W        W25170  11.744   5.889   0.483
52856W        W25171  34.957  25.247   5.080
52857W        W25172  38.914  25.303  13.564
52858W        W25173  20.250   7.811   2.338
52859W        W25174  41.350   5.730  13.380
52860W        W25175  28.402  16.699  14.871
52861W        W25176  33.819  11.319   1.313
52862W        W25177  38.496  37.362  13.519
52863W        W25178  14.470  28.271  13.537
52864W        W25179  27.422  16.322   4.195
52865W        W25180  19.085  17.612   0.777
52866W        W25181  10.431  37.317  13.510
52867W        W25182  14.386  19.168   1.112
52868W        W25183   1.770  26.780  11.987
52869W        W25184  16.819  30.476  14.981
52870W        W25185  34.165   3.112   3.332
52871W        W25186  16.978  31.232  12.504
52872W        W25187   5.440  20.105  11.535
52873W        W25188  31.222  26.019   0.052
52874W        W25189  25.696  16.097  14.412
52875W        W25190  41.692  21.701  12.347
52876W        W25191   0.755  31.451   2.211
52877W        W25192  20.796  37.316   1.990
52878W        W25193  26.826  31.164  10.210
52879W        W25194  14.803  19.482   3.702
52880W        W25195  26.500  17.674   0.318
52881W        W25196  38.286   2.780  13.876
52882W        W25197  17.251  44.318  10.500
52883W        W25198  26.995   1.893   4.553
52884W        W25199  10.167  17.592  11.152
52885W        W25200   0.996   0.199  13.849
52886W        W25201  34.144   9.232   1.471
52887W        W25202  13.726  30.837  14.886
52888W        W25203  41.255   0.380   4.071
52889W        W25204   6.136   9.266   0.904
52890W        W25205  10.819  39.554   3.586
52891W        W25206  34.549  38.761   5.135
52892W        W25207  14.079  36.050  14.578
52893W        W25208  10.207  24.191   3.735
52894W        W25209  41.981  33.416   2.813
52895W        W25210  29.376   9.977  12.418
52896W        W25211   9.266  41.866  14.357
52897W        W25212  21.255   7.745   2.284
52898W        W25213   6.760  12.729  13.517
52899W        W25214   4.085   5.427   0.869
52900W        W25215   9.735  15.630   0.184
52901W        W25216  34.410  38.515  11.091
52902W        W25217  26.148  16.554  14.849
52903W        W25218  28.565  44.565   2.775
52904W        W25219  12.830  31.473  11.964
52905W        W25220  25.537  17.152  14.989
52906W        W25221  43.219  41.680   3.669
52907W        W25222  23.758  39.130   4.167
52908W        W25223   5.202   9.660  11.949
52909W        W25224  44.903  30.525   0.445
52910W        W25225  43.959  27.752   1.278
52911W        W25226  44.655  44.559   4.618
52912W        W25227  13.106   9.396   3.177
52913W        W25228   7.952  23.095   1.624
52914W        W25229  25.115   7.711   3.599
52915W        W25230  24.524  42.992   0.256
52916W        W25231  38.483  20.130   2.679
52917W        W25232  38.876  25.115  11.981
52918W        W25233  33.539  24.430  14.502
52919W        W25234  15.316  26.781  12.615
52920W        W25235   3.085   0.635  14.006
52921W        W25236  12.111  27.550   0.865
52922W        W25237   9.236  36.516   2.667
52923W        W25238  18.669   2.816   0.030
52924W        W25239  28.155  34.321   0.023
52925W        W25240  27.483  28.977   3.169
52926W        W25241   2.921  27.160   1.012
52927W        W25242  41.803  32.086   4.219
52928W        W25243  19.769  43.768   4.111
52929W        W25244   9.351   8.734  11.706
52930W        W25245  18.227  41.343  10.111
52931W        W25246  16.807  17.971  14.403
52932W        W25247  14.350  11.257   3.672
52933W        W25248  14.795  33.368   1.145
52934W        W25249   0.008  35.545  10.615
52935W        W25250  17.030  11.778  14.641
52936W        W25251   3.244  22.501   0.927
52937W        W25252   6.753  15.565  11.156
52938W        W25253   2.015   6.271  11.102
52939W        W25254  31.097  37.006   4.133
52940W        W25255   6.471  24.225   4.111
52941W        W25256  28.736   3.934  11.161
52942W        W25257  15.695  25.273   0.275
52943W        W25258  16.875   1.676  10.634
52944W        W25259  22.362  22.572   4.578
52945W        W25260  17.970  19.070   3.672
52946W        W25261  38.327   8.650  13.427
52947W        W25262  39.013  21.511  13.334
52948W        W25263  29.391  14.816   1.906
52949W        W25264  33.806  38.648   2.225
52950W        W25265  37.914  40.817  12.551
52951W        W25266  39.827  20.902  10.715
52952W        W25267  27.407  32.658   2.889
52953W        W25268  28.162  23.244  12.624
52954W        W25269  21.719  37.761   0.517
52955W        W25270  26.898  10.897   2.323
52956W        W25271   9.655   8.964   0.803
52957W        W25272  18.887  32.541   1.318
52958W        W25273  33.640  17.088  12.609
52959W        W25274  26.561  30.728  10.143
52960W        W25275  31.004  26.511  11.708
52961W        W25276  30.144  36.565   2.794
52962W        W25277  37.898   4.031  12.239
52963W        W25278  22.033  25.217  12.525
52964W        W25279  17.620   7.354   0.093
52965W        W25280  26.906  18.798  12.144
52966W        W25281  33.558   7.143   1.953
52967W        W25282  35.653  42.782  14.889
52968W        W25283  19.561  29.119   4.695
52969W        W25284   8.447  19.599  14.767
52970W        W25285  43.739  37.469   4.534
52971W        W25286   1.223  17.040   2.844
52972W        W25287  26.929  34.346   0.824
52973W        W25288  34.592  34.619  14.145
52974W        W25289  26.882  30.940   9.755
52975W        W25290  21.506   5.310  10.733
52976W        W25291   3.109   6.969   2.136
52977W        W25292  42.303  42.262   1.254
52978W        W25293  13.571  29.923   3.776
52979W        W25294  12.610  22.763  10.621
52980W        W25295   5.962   7.670   0.012
52981W        W25296   6.761  36.041   2.428
52982W        W25297   4.635  35.805  14.892
52983W        W25298   3.440  44.653  12.609
52984W        W25299  15.035   9.190   1.359
52985W        W25300  42.634  32.395  11.150
52986W        W25301  37.048  14.202   1.691
52987W        W25302  31.158  32.443   2.648
52988W        W25303  26.045  18.431   4.637
52989W        W25304  14.079   2.481  12.383
52990W        W25305  11.160  38.019   1.529
52991W        W25306  30.392  13.563   3.992
52992W        W25307  27.520  13.884  10.586
52993W        W25308   1.811  41.203  11.842
52994W        W25309  24.675  21.041   4.594
52995W        W25310  34.860  10.628  12.818
52996W        W25311  22.539  31.207  11.141
52997W        W25312  30.017   8.772   2.689
52998W        W25313  27.463   7.635   0.436
52999W        W25314  37.504  40.434   4.582
53000W        W25315  41.806  33.155   1.451
53001W        W25316   8.736  36.526   1.744
53002W        W25317  18.822  10.816   1.787
53003W        W25318  29.658  14.888  11.614
53004W        W25319   2.905  15.248  14.102
53005W        W25320  31.455   9.315  12.537
53006W        W25321  44.730   2.997  10.420
53007W        W25322  24.488   8.825  12.464
53008W        W25323  38.125  33.397   3.127
53009W        W25324  37.254   1.681   0.540
53010W        W25325   0.214  19.772   4.259
53011W        W25326  13.140  33.875   2.300
53012W        W25327  35.405  32.043   4.295
53013W        W25328  18.558  27.579   3.794
53014W        W25329  22.451  15.547  11.912
53015W        W25330   8.471   0.884  10.631
53016W        W25331  37.528  38.394  13.374
53017W        W25332  40.345  25.679  10.425
53018W        W25333   8.163  43.852  11.692
53019W        W25334   4.837  30.908  12.513
53020W        W25335  37.960  42.228  14.293
53021W        W25336  44.864  25.246   4.222
53022W        W25337   5.592  17.237   2.878
53023W        W25338  35.355  14.640   2.452
53024W        W25339  42.536   0.427  10.606
53025W        W25340  27.996  34.201  10.048
53026W        W25341   2.912  40.368   0.749
53027W        W25342  16.259  38.523   1.402
53028W        W25343  37.558   8.917  11.069
53029W        W25344   4.458  23.213   1.970
53030W        W25345   7.831  17.788  10.722
53031W        W25346  18.546   9.789  12.296
53032W        W25347  34.341  13.727  10.624
53033W        W25348   7.432  12.799   2.378
53034W        W25349  18.595  36.271   3.350
53035W        W25350   3.897   4.661  14.955
53036W        W25351  26.661  44.590  13.504
53037W        W25352  20.083   2.845   4.009
53038W        W25353  30.406  24.095   0.432
53039W        W25354  27.783   8.803   0.814
53040W        W25355  11.681   0.005   0.520
53041W        W25356  25.779  25.966   1.186
53042W        W25357  15.664  13.992   4.474
53043W        W25358  39.518   6.513   0.758
53044W        W25359  35.298  40.495   4.129
53045W        W25360   8.615   4.643   2.018
53046W        W25361  40.759  24.594  13.745
53047W        W25362  13.194   9.345  12.127
53048W        W25363  10.256  38.380  12.929
53049W        W25364  44.890  23.673  12.979
53050W        W25365  33.321  18.198  10.345
53051W        W25366  31.514  40.711  14.287
53052W        W25367  28.179  43.339  14.343
53053W        W25368  30.107   9.188  10.769
53054W        W25369  16.747  34.361  13.771
53055W        W25370  24.198  15.085   2.004
53056W        W25371   0.842  43.729  14.345
53057W        W25372  22.249   9.175  14.728
53058W        W25373  37.572  22.976  12.547
53059W        W25374  11.911  14.507  11.036
53060W        W25375  44.562  10.823   1.286
53061W        W25376  36.043  15.747   3.315
53062W        W25377  14.196   1.385  12.628
53063W        W25378  26.134  41.321   2.868
53064W        W25379  11.828  10.232   3.750
53065W        W25380  21.188  30.142  10.925
53066W        W25381  33.148  13.201   2.629
53067W        W25382  21.971  30.363   1.338
53068W        W25383  23.127  39.162  14.930
53069W        W25384  42.446  43.225  11.515
53070W        W25385  19.907  22.517  14.746
53071W        W25386   8.244  41.925   1.367
53072W        W25387  17.085  30.130   2.382
53073W        W25388  18.794  30.067  11.084
53074W        W25389  19.795  42.050   2.091
53075W        W25390  19.538  19.123   2.396
53076W        W25391  32.104  21.460  11.212
53077W        W25392  34.965  39.830   4.575
53078W        W25393   7.818  37.330  13.891
53079W        W25394  32.652  11.577   3.135
53080W        W25395  34.308  29.204  10.920
53081W        W25396  36.948  19.700   2.161
53082W        W25397  41.934  23.474  13.384
53083W        W25398   1.476  43.284   4.817
53084W        W25399  29.707  20.128  14.387
53085W        W25400  34.212  35.447   1.874
53086W        W25401  28.742  42.521   0.503
53087W        W25402  38.084  33.452  11.234
53088W        W25403  43.323  29.433   1.929
53089W        W25404  37.230  39.331  12.470
53090W        W25405  41.070  15.223  11.573
53091W        W25406  36.507  10.434  11.140
53092W        W25407  16.730   2.572   2.073
53093W        W25408  10.271  11.650   4.360
53094W        W25409   5.914  40.301  14.025
53095W        W25410  22.656  44.879  14.299
53096W        W25411  17.651  21.069  13.315
53097W        W25412  16.715   5.958  14.506
53098W        W25413  22.364  21.543   5.482
53099W        W25414   3.281   4.256  11.614
53100W        W25415  33.377  33.017  12.558
53101W        W25416  18.700  38.985   3.695
53102W        W25417  42.873  14.617   1.190
53103W        W25418  41.315   1.863  14.265
53104W        W25419  29.593  23.976   2.792
53105W        W25420  37.011  25.477  12.130
53106W        W25421   7.889  43.428  11.579
53107W        W25422  24.496  21.275  11.785
53108W        W25423  17.672  27.290  10.624
53109W        W25424   3.242  24.043  14.167
53110W        W25425  42.759  18.342  10.792
53111W        W25426  41.768  37.314   2.356
53112W        W25427   6.439  24.830   2.815
53113W        W25428  13.267  10.090   4.499
53114W        W25429  35.568  23.313   1.967
53115W        W25430   4.695   7.791  10.451
53116W        W25431  21.577   1.186  13.600
53117W        W25432   4.433   6.956   2.751
53118W        W25433  42.853  24.410  11.593
53119W        W25434   3.302   1.657  12.840
53120W        W25435  11.157  26.707  14.525
53121W        W25436  38.800  39.842   1.007
53122W        W25437  11.594  17.875  10.712
53123W        W25438  36.180  27.507   1.651
53124W        W25439  30.482   2.396  12.190
53125W        W25440   6.238  22.746   4.197
53126W        W25441  37.599  42.363  12.617
53127W        W25442  14.813  40.911   4.568
53128W        W25443  11.362  22.952  12.844
53129W        W25444  41.848  13.462  13.724
53130W        W25445   3.346   1.044   4.991
53131W        W25446  22.954  10.390  13.189
53132W        W25447  11.233  14.795   1.185
53133W        W25448  34.267  33.155   4.600
53134W        W25449  36.037  16.758   3.698
53135W        W25450   8.897  11.608  12.904
53136W        W25451  31.551  41.121  11.084
53137W        W25452  40.739  15.187  14.446
53138W        W25453  35.108  43.867  11.002
53139W        W25454  14.832  40.410   1.156
53140W        W25455  31.560  36.503  13.019
53141W        W25456  30.152  12.331  13.095
53142W        W25457  11.201  39.537  11.485
53143W        W25458  16.131  14.947  13.341
53144W        W25459   7.913  32.629  11.081
53145W        W25460   2.306  41.177   2.843
53146W        W25461  30.695   1.051   0.099
53147W        W25462  29.035  26.981   4.723
53148W        W25463  24.337  30.495   1.516
53149W        W25464  33.135  27.450   2.284
53150W        W25465  33.105  38.422   4.287
53151W        W25466  24.686  40.109   3.957
53152W        W25467  19.766  37.396   1.757
53153W        W25468  34.138   5.916   3.638
53154W        W25469  15.138  34.499   1.110
53155W        W25470  33.647  43.072  14.006
53156W        W25471  41.815  18.247   0.418
53157W        W25472  12.549   6.984   4.753
53158W        W25473  43.200  19.779  13.774
53159W        W25474  26.220   2.350   3.361
53160W        W25475  33.157  31.614  14.349
53161W        W25476  41.076  38.405   1.302
53162W        W25477  11.652   3.142   2.839
53163W        W25478  35.808  42.532   0.312
53164W        W25479  37.505  28.218  14.723
53165W        W25480  24.529  40.496   3.204
53166W        W25481  33.594   2.141   3.227
53167W        W25482  18.156   1.317   1.409
53168W        W25483  11.587   8.447  11.228
53169W        W25484  24.607  30.352   4.801
53170W        W25485  17.210  10.700  11.608
53171W        W25486  10.314  44.802   4.599
53172W        W25487  19.332  29.686  14.313
53173W        W25488  42.959   0.717   1.311
53174W        W25489   6.743  31.725   2.884
53175W        W25490  36.767  23.930   5.132
53176W        W25491  42.282  13.167  13.900
53177W        W25492  18.770  23.662   1.339
53178W        W25493  40.611  43.185   1.807
53179W        W25494  28.997   8.362   0.324
53180W        W25495   9.701  11.675  13.362
53181W        W25496  16.088  35.173   0.721
53182W        W25497   3.758  31.461  14.733
53183W        W25498  36.893   0.727   4.889
53184W        W25499  13.848  12.638   0.552
53185W        W25500   6.246  32.019  12.794
53186W        W25501  27.777   2.494  13.951
53187W        W25502   5.369  13.627   2.926
53188W        W25503  31.917  39.047  11.077
53189W        W25504  26.101   9.636  14.844
53190W        W25505  16.856  41.536   3.114
53191W        W25506  18.920  27.714   0.258
53192W        W25507  32.135   4.700  11.137
53193W        W25508  10.425   1.956   4.316
53194W        W25509   6.750   4.455  10.633
53195W        W25510  30.790  29.091   0.520
53196W        W25511   9.621  38.431   4.333
53197W        W25512  13.498  16.266   9.941
53198W        W25513  39.551  12.606   0.628
53199W        W25514  12.447  15.353  13.854
53200W        W25515   3.825  14.840   1.404
53201W        W25516  17.694  27.032  11.546
53202W        W25517  22.465   0.284   3.115
53203W        W25518  24.578  18.951   9.931
53204W        W25519   3.831  15.109   0.985
53205W        W25520  11.199  15.110  12.967
53206W        W25521  24.476  21.218  10.645
53207W        W25522   2.770  34.922   4.628
53208W        W25523  10.647  31.628  10.403
53209W        W25524  15.086  29.574   1.708
53210W        W25525  37.774   6.776   4.401
53211W        W25526  14.084  29.451  12.953
53212W        W25527   9.592  42.892  10.335
53213W        W25528  15.853  17.702  14.334
53214W        W25529  44.474  28.049   0.643
53215W        W25530  29.610  21.889   2.915
53216W        W25531  41.030   4.312  14.889
53217W        W25532  12.272  30.447   0.739
53218W        W25533  28.380   8.892  10.430
53219W        W25534  31.820  11.711   2.235
53220W        W25535  19.076   4.576   1.300
53221W        W25536  14.245  33.361   3.207
53222W        W25537  43.421   5.684  12.716
53223W        W25538   7.340  13.290  10.807
53224W        W25539  32.318  24.516   1.947
53225W        W25540   8.874  15.063  13.349
53226W        W25541  14.262  32.795  12.551
53227W        W25542  24.860  28.435  14.058
53228W        W25543   0.065  25.233  11.086
53229W        W25544  10.433  34.851   1.689
53230W        W25545   5.540  29.222  10.836
53231W        W25546  41.721  23.112  10.368
53232W        W25547  14.732  43.816  11.117
53233W        W25548  25.251  16.291  14.989
53234W        W25549   1.466  42.509  14.306
53235W        W25550  27.967   4.693   2.194
53236W        W25551  31.695  29.162   4.626
53237W        W25552   5.771  22.272  12.627
53238W        W25553  20.477   9.978   4.302
53239W        W25554  29.890  31.422   3.808
53240W        W25555   2.000  25.563  11.135
53241W        W25556  22.220  15.894   2.849
53242W        W25557  33.697  39.158   3.762
53243W        W25558  14.197   7.619  12.379
53244W        W25559  26.215  30.736  10.545
53245W        W25560  16.145  29.702  14.246
53246W        W25561  13.334  36.453  10.676
53247W        W25562  32.100   0.482  12.592
53248W        W25563  44.238  38.261   3.729
53249W        W25564  38.336  22.562  13.786
53250W        W25565   7.899  13.829   3.376
53251W        W25566  34.423   4.396   4.233
53252W        W25567  43.934  31.406   3.130
53253W        W25568  11.297   7.602  11.455
53254W        W25569  25.742  42.809   0.808
53255W        W25570  15.767   7.271  10.661
53256W        W25571  27.002  41.585   2.223
53257W        W25572   5.154  18.246  11.214
53258W        W25573  36.881  26.467   2.379
53259W        W25574  18.305   0.956  14.662
53260W        W25575  40.308  12.295  10.983
53261W        W25576  25.270   4.518   3.233
53262W        W25577  29.461  29.551  13.979
53263W        W25578   6.414  15.591   1.331
53264W        W25579  42.312   2.471   3.728
53265W        W25580  44.166  28.500  12.652
53266W        W25581  37.886  10.675  12.325
53267W        W25582  23.616  22.900  13.086
53268W        W25583  24.723  31.857  11.937
53269W        W25584  27.640  31.239  10.668
53270W        W25585   4.737   2.168  11.205
53271W        W25586  20.577  18.031  14.026
53272W        W25587  25.684  25.422  13.772
53273W        W25588  21.889  19.677  14.806
53274W        W25589  40.412  21.485   4.372
53275W        W25590  34.144  16.603   1.760
53276W        W25591  33.308  11.365  13.622
53277W        W25592  30.067  34.215   1.640
53278W        W25593  28.622  36.977  10.676
53279W        W25594   2.527   9.641   0.745
53280W        W25595  20.756  29.694   3.286
53281W        W25596  29.057  38.565   4.855
53282W        W25597   6.743  41.273   1.221
53283W        W25598   4.461  43.329  10.591
53284W        W25599  17.994  30.525   0.487
53285W        W25600  38.713  19.939  13.474
53286W        W25601  37.123  37.516   1.719
53287W        W25602   8.806  23.158  14.205
53288W        W25603  21.525   9.333   4.555
53289W        W25604  35.975  16.208  14.216
53290W        W25605   7.294  12.594   0.336
53291W        W25606  35.282   8.683   3.306
53292W        W25607  14.951  14.407   2.370
53293W        W25608  14.066  22.618  11.536
53294W        W25609  20.038  27.557   4.987
53295W        W25610  28.016  27.123   0.581
53296W        W25611  36.892  23.626  13.159
53297W        W25612  37.040  25.078   1.289
53298W        W25613  39.337  17.352   4.973
53299W        W25614  12.584  25.632  10.734
53300W        W25615  20.299  14.327   1.265
53301W        W25616  16.610  21.072   1.690
53302W        W25617  32.438  27.202   1.322
53303W        W25618   1.194  18.695   3.254
53304W        W25619   1.437   1.712  14.494
53305W        W25620  21.095  43.936  14.327
53306W        W25621  39.742  38.117  14.467
53307W        W25622  13.346  37.047   1.005
53308W        W25623  41.567  22.488  14.860
53309W        W25624  43.277  18.443  10.671
53310W        W25625  11.123  14.273   0.948
53311W        W25626  40.053  15.870  12.080
53312W        W25627  42.540  40.970   1.660
53313W        W25628   4.023  20.624   2.842
53314W        W25629  27.886  20.483   1.276
53315W        W25630  23.572  29.553   4.749
53316W        W25631  36.326  36.885   4.063
53317W        W25632  20.254  17.603   2.236
53318W        W25633  35.598   5.817  13.816
53319W        W25634  25.253  12.671   3.653
53320W        W25635  10.183  21.764  13.885
53321W        W25636  32.634  21.060  12.943
53322W        W25637   4.388  26.164   1.969
53323W        W25638  18.530  23.647  14.053
53324W        W25639   8.641  18.791  13.096
53325W        W25640  17.916  17.308   1.934
53326W        W25641  10.125  43.753   5.028
53327W        W25642  21.586  26.893   1.908
53328W        W25643   7.661   3.044  14.093
53329W        W25644   2.941   9.161   2.676
53330W        W25645   9.443  34.778  13.404
53331W        W25646  10.645  27.962   4.627
53332W        W25647  18.252  40.476   4.916
53333W        W25648  30.114   3.777   0.349
53334W        W25649  35.577  28.575   3.667
53335W        W25650  13.082  21.373   2.806
53336W        W25651  25.813   9.354   1.719
53337W        W25652   2.056  29.603   4.567
53338W        W25653   1.299  44.634   0.710
53339W        W25654  32.013  32.019   3.009
53340W        W25655   0.040  37.518   4.191
53341W        W25656  11.201  43.864  11.971
53342W        W25657  24.144  38.151  14.336
53343W        W25658  20.715   5.770  13.130
53344W        W25659  39.482  18.434   3.653
53345W        W25660   1.355  37.745   0.320
53346W        W25661  38.967  25.780   1.836
53347W        W25662  25.138   9.770  14.276
53348W        W25663  13.747  36.840  12.228
53349W        W25664   3.611  44.011   1.720
53350W        W25665  25.600  36.448  14.095
53351W        W25666   1.208  22.696   2.088
53352W        W25667   9.150  10.075  12.409
53353W        W25668  22.636  13.811  10.940
53354W        W25669  28.730  13.637   1.380
53355W        W25670  27.854   1.859   4.076
53356W        W25671   5.753  22.722  14.477
53357W        W25672  23.222  40.449   1.410
53358W        W25673   5.291   2.857  11.092
53359W        W25674  25.062  32.653   0.830
53360W        W25675  23.048  30.852   3.868
53361W        W25676  12.620  36.786   2.837
53362W        W25677   5.046  14.713  14.053
53363W        W25678  28.811  16.862   1.718
53364W        W25679  42.034  29.470   2.941
53365W        W25680  26.617  10.215   3.294
53366W        W25681  44.162   9.160  11.009
53367W        W25682  26.135   5.286  11.373
53368W        W25683  28.928  42.604  14.676
53369W        W25684  12.898  30.553   3.241
53370W        W25685   5.684  13.345  13.479
53371W        W25686  37.874  32.146  12.516
53372W        W25687  36.857  22.901  10.966
53373W        W25688  42.744   8.001  14.594
53374W        W25689  10.122  13.201   3.632
53375W        W25690  26.666  32.903   1.275
53376W        W25691  16.714   0.768  11.847
53377W        W25692  12.679   7.594  13.715
53378W        W25693  27.717  28.451  10.673
53379W        W25694  35.122  30.454   4.526
53380W        W25695  38.497   7.766  13.897
53381W        W25696   4.868   1.271   4.611
53382W        W25697  17.738   2.446   3.270
53383W        W25698  21.531  35.521   1.138
53384W        W25699   6.238  34.474  10.734
53385W        W25700   5.373  29.491  14.504
53386W        W25701   8.449  39.053  14.017
53387W        W25702  37.635  38.314  14.947
53388W        W25703  34.474  32.654   0.760
53389W        W25704   5.309   1.962   2.848
53390W        W25705   1.706   1.282  14.393
53391W        W25706  31.505  16.141   4.784
53392W        W25707  15.152   7.818  14.478
53393W        W25708  30.885  15.594  11.955
53394W        W25709  28.956   7.294   2.440
53395W        W25710  33.013  22.990  13.866
53396W        W25711  25.987  16.749   0.326
53397W        W25712  25.203  21.845   2.630
53398W        W25713  36.939  12.669   0.261
53399W        W25714  31.346  34.509   1.870
53400W        W25715  42.876   2.652  14.611
53401W        W25716  42.966  33.891  13.830
53402W        W25717  10.328  11.825   0.348
53403W        W25718  17.638   9.460  11.533
53404W        W25719  29.348  20.622   4.053
53405W        W25720   0.737  13.810  13.273
53406W        W25721  27.274   3.917   9.765
53407W        W25722  17.260  26.947  12.921
53408W        W25723  44.483  34.413  12.387
53409W        W25724  30.213  13.274   1.822
53410W        W25725  37.511  21.543   1.703
53411W        W25726  22.716  12.344  14.310
53412W        W25727  37.230  32.140   3.104
53413W        W25728  19.464   4.996  13.919
53414W        W25729  33.652  27.202   4.342
53415W        W25730   6.723  28.900  11.569
53416W        W25731  13.007  23.546   2.795
53417W        W25732  10.993  26.512  13.514
53418W        W25733  12.816   0.932   4.647
53419W        W25734  42.088  33.470   3.902
53420W        W25735  20.013  18.924   0.955
53421W        W25736  24.039  42.346   2.806
53422W        W25737  31.396   8.673  11.148
53423W        W25738   1.877  19.199  12.924
53424W        W25739  24.174  17.200  13.343
53425W        W25740  39.024  33.602   3.217
53426W        W25741  14.250  31.616  14.809
53427W        W25742  33.527  44.915   3.115
53428W        W25743   0.809   1.178  14.982
53429W        W25744  18.150  30.383  11.782
53430W        W25745  16.052  14.810  12.449
53431W        W25746  15.243  21.360  12.489
53432W        W25747  20.490   1.909   1.710
53433W        W25748   7.262   9.123  10.776
53434W        W25749  23.565  38.440  13.000
53435W        W25750  37.992  16.059   0.707
53436W        W25751   6.977   6.856   0.372
53437W        W25752   6.383  37.862   0.612
53438W        W25753   9.718  15.315   4.707
53439W        W25754  36.011   3.265  13.927
53440W        W25755  26.565  19.575   4.530
53441W        W25756  43.347   2.714   4.571
53442W        W25757  21.783  36.005   4.653
53443W        W25758  28.872  22.984   2.867
53444W        W25759   3.523  25.884  11.851
53445W        W25760   8.683   0.883  11.364
53446W        W25761  29.460  43.270   0.862
53447W        W25762  28.642  43.651   4.033
53448W        W25763  29.707  17.929   3.443
53449W        W25764  31.423  40.437   0.701
53450W        W25765   5.259  20.099  13.559
53451W        W25766  34.326  36.183   0.297
53452W        W25767  25.384  37.733  14.714
53453W        W25768  28.706  23.925   2.245
53454W        W25769   9.181  35.028  13.805
53455W        W25770   9.329  38.620  11.482
53456W        W25771  29.157  15.208  14.549
53457W        W25772  16.868   4.815  14.540
53458W        W25773  19.757  35.663  13.922
53459W        W25774  23.985  16.351  13.523
53460W        W25775  40.460  15.287   1.957
53461W        W25776  32.410  35.844   5.045
53462W        W25777  21.769   0.749  10.986
53463W        W25778  36.613   5.751  11.614
53464W        W25779   3.012  44.350   3.393
53465W        W25780  39.836  10.858  10.909
53466W        W25781  21.227  10.587   0.403
53467W        W25782  25.098  10.320   2.443
53468W        W25783  20.653  37.919  11.459
53469W        W25784  35.165   1.885   4.161
53470W        W25785   8.407  15.351  11.931
53471W        W25786  39.922  19.713   0.474
53472W        W25787   4.699  42.781  14.347
53473W        W25788  25.618  32.190   3.261
53474W        W25789  13.236  11.799  12.685
53475W        W25790  17.755  32.430  14.910
53476W        W25791  22.677   4.492   0.401
53477W        W25792  43.712  42.587  14.482
53478W        W25793  44.254  39.211   4.203
53479W        W25794   2.586  40.297  10.679
53480W        W25795  34.544  23.104  14.068
53481W        W25796  15.310  10.648   0.494
53482W        W25797  21.639  22.566   3.157
53483W        W25798  35.249  28.082   9.819
53484W        W25799  42.189  29.718   1.279
53485W        W25800  30.923  15.282  14.961
53486W        W25801   3.770  15.586  13.018
53487W        W25802  13.325  29.008   1.779
53488W        W25803   7.305  17.548  12.427
53489W        W25804  28.301  28.776  14.546
53490W        W25805  14.735  28.963   0.412
53491W        W25806   3.794  16.327   2.665
53492W        W25807  27.488  43.308   2.480
53493W        W25808   6.472  35.906  12.977
53494W        W25809  23.311  26.179  13.530
53495W        W25810   8.125  25.052   3.348
53496W        W25811  11.065  44.270  14.027
53497W        W25812  25.735  34.334   3.745
53498W        W25813  14.130  32.076  11.839
53499W        W25814  20.654  29.008  11.974
53500W        W25815  37.355  31.006  13.508
53501W        W25816   5.288  12.586   1.434
53502W        W25817  39.342  19.530   2.698
53503W        W25818  42.920  19.635   2.216
53504W        W25819  18.800  16.003  10.062
53505W        W25820  40.145  30.362  12.160
53506W        W25821  40.441  40.831  11.866
53507W        W25822  44.801  35.798   1.832
53508W        W25823   8.441  39.504   2.332
53509W        W25824  15.829  37.989  11.939
53510W        W25825  43.599   8.690   3.768
53511W        W25826  29.782  33.618   0.288
53512W        W25827  22.656   8.036   0.774
53513W        W25828  39.790  33.990   3.240
53514W        W25829   9.336  14.113   5.066
53515W        W25830  32.455  41.920  14.977
53516W        W25831  40.852  42.546  11.618
53517W        W25832   0.237  26.484  12.914
53518W        W25833  15.741   2.955  14.862
53519W        W25834  13.769  17.999  11.533
53520W        W25835  16.131   1.383   2.650
53521W        W25836  19.619  12.398   0.020
53522W        W25837  43.246  24.335   0.214
53523W        W25838  16.053  13.290  11.705
53524W        W25839  39.584  11.146   2.719
53525W        W25840  23.456  23.983  11.053
53526W        W25841  14.207   3.143   0.792
53527W        W25842   0.975   0.241  14.736
53528W        W25843  13.327  30.649  11.169
53529W        W25844  24.130  44.415   1.446
53530W        W25845  13.790  13.772  12.823
53531W        W25846  31.927  40.711  12.888
53532W        W25847  40.786  19.032  14.253
53533W        W25848  17.298   8.718   2.176
53534W        W25849  24.329  27.452   0.846
53535W        W25850  35.577  15.144   0.265
53536W        W25851  27.027  17.801  11.210
53537W        W25852  21.734  42.344   1.407
53538W        W25853  33.338  11.659  14.383
53539W        W25854  15.617  19.659  14.501
53540W        W25855   5.737   9.330   2.876
53541W        W25856   6.336  27.039  14.305
53542W        W25857  23.760   3.403   4.189
53543W        W25858  32.392  41.501  11.916
53544W        W25859  18.413  44.205  13.337
53545W        W25860  20.089  28.704  12.169
53546W        W25861  39.466  18.238   1.269
53547W        W25862  17.842  16.282   2.233
53548W        W25863  37.333  40.984  11.182
53549W        W25864  43.666   8.794  10.685
53550W        W25865  26.106  17.782  11.178
53551W        W25866  20.547  19.271   4.641
53552W        W25867  13.055  15.619   5.074
53553W        W25868   7.635  44.393  10.334
53554W        W25869  31.143  10.387   0.380
53555W        W25870  31.408  41.761  11.622
53556W        W25871  12.293  29.955  10.413
53557W        W25872  36.300  32.692   1.038
53558W        W25873  10.132  33.074  14.765
53559W        W25874  17.262  13.186   0.819
53560W        W25875  25.656  18.793  14.480
53561W        W25876  11.118  21.573   4.504
53562W        W25877  41.791   1.042   5.140
53563W        W25878  32.508  10.765  13.855
53564W        W25879  13.639  11.629  12.349
53565W        W25880  16.277  30.551  11.892
53566W        W25881  23.082   4.162  12.125
53567W        W25882  44.812   2.176   0.307
53568W        W25883  38.348  24.674  10.028
53569W        W25884   3.226  24.900   3.686
53570W        W25885  43.212  20.794  10.613
53571W        W25886  34.569   2.217  11.975
53572W        W25887  22.978  10.950   0.933
53573W        W25888  31.034   3.338  12.938
53574W        W25889  18.367  41.444   4.513
53575W        W25890   6.988  37.248   4.955
53576W        W25891  23.827  22.822  11.894
53577W        W25892  43.755  41.567   1.801
53578W        W25893  27.106   5.926  12.789
53579W        W25894  16.751  40.922   2.669
53580W        W25895  29.193  30.034   0.269
53581W        W25896  13.300  30.923  10.734
53582W        W25897  26.243   8.318   1.458
53583W        W25898  29.024  39.540  11.372
53584W        W25899  14.587  40.724  14.950
53585W        W25900  18.467  26.273  12.435
53586W        W25901  34.940  25.473  11.976
53587W        W25902  16.739  40.205   1.369
53588W        W25903  18.245   9.084  10.958
53589W        W25904  16.370   6.411   3.546
53590W        W25905  12.147  24.274  13.772
53591W        W25906  18.974  35.964   0.359
53592W        W25907  31.419   5.974   1.916
53593W        W25908   0.753  22.100  11.500
53594W        W25909  21.503  32.515   4.056
53595W        W25910  15.516   1.700   5.259
53596W        W25911   0.933   1.822   3.341
53597W        W25912  23.885  37.184  14.532
53598W        W25913  21.029  41.415   1.808
53599W        W25914  44.713  18.116   4.861
53600W        W25915  30.436  22.660  13.345
53601W        W25916  41.899  36.007   4.071
53602W        W25917   2.454  38.546  12.055
53603W        W25918  43.993  43.081   2.681
53604W        W25919  25.601   3.039  13.468
53605W        W25920   9.457  43.754  13.704
53606W        W25921  38.767  25.595   3.723
53607W        W25922   9.752  21.473  14.024
53608W        W25923  20.719  31.912  14.000
53609W        W25924  15.401   6.679  13.754
53610W        W25925  37.147   5.603  12.632
53611W        W25926  13.344  42.213   0.218
53612W        W25927  27.559  24.121   0.763
53613W        W25928  12.401  31.214  12.780
53614W        W25929  17.243  30.934   9.529
53615W        W25930  28.967   4.423  11.455
53616W        W25931   3.446  34.575   2.140
53617W        W25932  39.556  31.022  14.888
53618W        W25933  13.896   9.242   4.604
53619W        W25934  40.383  14.283   0.701
53620W        W25935  39.734  16.813  12.460
53621W        W25936  23.645  40.437   0.353
53622W        W25937  30.694  23.996  14.887
53623W        W25938  38.705  26.129   3.508
53624W        W25939   7.120  27.153   3.897
53625W        W25940  39.472  37.003  13.784
53626W        W25941  27.983  28.211   0.693
53627W        W25942  28.987  22.713  14.458
53628W        W25943   5.735  34.216   1.931
53629W        W25944  27.978   4.756   5.309
53630W        W25945  44.141  36.018  13.771
53631W        W25946  35.483   2.469  14.974
53632W        W25947  12.849   9.685  11.931
53633W        W25948  36.039  17.101  12.178
53634W        W25949   1.074  27.987   1.673
53635W        W25950  27.747  39.122  14.329
53636W        W25951   8.317  38.957  11.619
53637W        W25952  43.899  32.030  10.999
53638W        W25953  14.878  19.973   0.269
53639W        W25954  25.464  14.297  14.057
53640W        W25955  26.109  23.965   4.332
53641W        W25956  13.400  26.065  10.837
53642W        W25957  32.539  21.172   3.256
53643W        W25958  29.281  20.241  14.967
53644W        W25959  13.840  41.553  12.589
53645W        W25960  36.109  30.537   0.026
53646W        W25961  31.520  40.898  14.774
53647W        W25962   7.365  35.851   0.828
53648W        W25963  32.954   8.312  11.036
53649W        W25964   0.255  31.596   2.286
53650W        W25965  37.800   1.988   2.134
53651W        W25966  37.628  34.178  11.147
53652W        W25967   0.103  41.600   3.712
53653W        W25968  11.778  19.309   5.193
53654W        W25969  21.322  16.409   0.754
53655W        W25970  24.808  22.454  10.558
53656W        W25971  13.037  24.013  13.952
53657W        W25972  43.425   6.824  11.996
53658W        W25973  35.310  13.166   4.262
53659W        W25974  36.307  24.588   1.367
53660W        W25975  40.693   9.183  13.028
53661W        W25976  21.811  13.719  10.395
53662W        W25977  13.601   4.851  12.070
53663W        W25978  17.873  13.833  10.703
53664W        W25979   1.481  22.289  12.164
53665W        W25980  34.934  18.050   0.828
53666W        W25981  18.628   8.666   2.392
53667W        W25982  17.286  40.474  14.359
53668W        W25983  11.754  23.111  13.530
53669W        W25984  25.279  15.643   3.629
53670W        W25985  14.394  13.724   0.006
53671W        W25986  14.314  43.982   1.801
53672W        W25987  40.703  30.150   1.494
53673W        W25988  29.182  43.276   2.150
53674W        W25989  19.968   2.679   3.532
53675W        W25990  31.942   5.712  11.093
53676W        W25991  24.724  39.356   2.743
53677W        W25992   8.376  31.924   4.346
53678W        W25993  17.333  29.474  13.941
53679W        W25994  15.721  26.203  11.586
53680W        W25995  40.003  43.689  13.572
53681W        W25996  41.358   7.827  13.385
53682W        W25997  42.942  14.403  12.230
53683W        W25998  36.488  29.193   1.713
53684W        W25999  18.819  19.089  13.482
53685W        W26000  44.232  31.509  13.505
53686W        W26001  24.822  18.504  14.472
53687W        W26002  17.176  40.513   4.803
53688W        W26003  22.750  42.776  10.226
53689W        W26004  24.668  14.004   2.801
53690W        W26005  20.139  22.001   2.317
53691W        W26006   3.210  36.019  13.995
53692W        W26007  33.215   4.156   3.821
53693W        W26008   6.359  24.054   1.245
53694W        W26009   9.122  15.341   1.742
53695W        W26010  23.057  19.757  10.657
53696W        W26011  10.300  14.318   3.253
53697W        W26012   2.918  36.419  13.867
53698W        W26013  44.509  16.972  10.206
53699W        W26014  19.280  34.138   0.848
53700W        W26015  19.386  39.528  10.165
53701W        W26016  44.257  11.518   4.513
53702W        W26017   9.894  11.204  13.635
53703W        W26018  38.117  42.308   0.967
53704W        W26019   4.477   1.945   1.251
53705W        W26020  30.712  24.083  13.313
53706W        W26021  20.605  20.602  11.438
53707W        W26022  24.216  16.708   4.160
53708W        W26023  31.194   2.169  12.470
53709W        W26024   6.346  33.160  13.330
53710W        W26025  37.717   8.319  11.642
53711W        W26026   3.123  41.879  11.097
53712W        W26027  13.660   4.184   4.738
53713W        W26028  17.033  41.585   3.596
53714W        W26029  13.144   4.890  14.314
53715W        W26030  18.662  11.777  12.177
53716W        W26031  22.982  44.490  12.548
53717W        W26032  23.981  22.683  11.419
53718W        W26033   5.886   1.582   0.738
53719W        W26034  30.477   8.253   2.273
53720W        W26035   1.485  30.465  11.540
53721W        W26036  36.515  13.246   4.649
53722W        W26037  15.869  16.572  11.867
53723W        W26038   6.516   9.644   0.376
53724W        W26039   2.057  40.417  11.533
53725W        W26040  16.835  27.225   0.285
53726W        W26041  12.177  19.212   5.505
53727W        W26042  31.972  10.150  11.438
53728W        W26043   9.541  26.715   3.130
53729W        W26044  29.958  17.149   2.795
53730W        W26045  27.015   5.197  13.350
53731W        W26046  27.254  43.003  14.294
53732W        W26047  14.290   2.409  13.134
53733W        W26048  19.183  23.772  11.988
53734W        W26049  18.080  30.213   1.349
53735W        W26050   9.498   9.254   3.757
53736W        W26051   2.029  22.820  12.544
53737W        W26052  11.104  33.293  11.596
53738W        W26053   1.340  20.307   5.064
53739W        W26054   0.327  14.280  11.507
53740W        W26055  40.548   0.880   2.226
53741W        W26056  20.108  11.078  11.984
53742W        W26057  36.803  34.903   0.438
53743W        W26058  31.436  34.842  11.634
53744W        W26059  36.821  24.130   4.271
53745W        W26060  17.791  37.947   2.803
53746W        W26061  41.131   6.331   1.221
53747W        W26062  21.100  40.753  13.047
53748W        W26063  44.490  33.676  12.842
53749W        W26064  42.209  33.147  11.621
53750W        W26065  30.966  33.607   0.963
53751W        W26066  24.513  33.880   0.747
53752W        W26067  44.736  42.070   3.657
53753W        W26068  28.947  25.573   2.258
53754W        W26069   5.255   9.230   3.200
53755W        W26070  39.352  22.651   0.319
53756W        W26071  31.571  22.458   2.253
53757W        W26072  19.178   3.717  11.523
53758W        W26073  28.972   3.317  10.986
53759W        W26074  32.884  24.017   4.599
53760W        W26075  23.668  25.147   4.705
53761W        W26076  21.234   5.712  13.006
53762W        W26077  43.985  15.695  11.065
53763W        W26078  12.981   5.048   1.940
53764W        W26079   4.343  35.049  12.547
53765W        W26080   7.352  17.247   0.944
53766W        W26081  41.074  13.158  13.274
53767W        W26082   7.960  19.164  14.664
53768W        W26083  13.351  31.159   1.715
53769W        W26084  15.922  21.710   3.221
53770W        W26085  19.366  40.035   4.224
53771W        W26086  33.294  29.828  13.462
53772W        W26087  20.527  14.214  11.500
53773W        W26088  16.285  36.430   2.871
53774W        W26089  20.634  15.822  10.722
53775W        W26090  32.674   4.638  12.191
53776W        W26091  26.017   5.201   0.473
53777W        W26092  13.666   9.912  11.542
53778W        W26093  24.553  43.899   3.279
53779W        W26094   3.790  31.396   3.654
53780W        W26095  29.068   7.548   0.674
53781W        W26096  40.408   7.452  12.577
53782W        W26097  18.643   2.707   2.496
53783W        W26098  22.255  30.601   3.127
53784W        W26099   8.586  42.627  13.670
53785W        W26100   3.172  31.237  13.340
53786W        W26101   9.173  17.119  12.719
53787W        W26102  12.961  29.454   4.405
53788W        W26103  35.251   6.310   5.030
53789W        W26104  13.809  41.806  13.466
53790W        W26105  42.402  41.294  14.781
53791W        W26106  30.836   5.860  11.276
53792W        W26107  20.356  18.647  12.958
53793W        W26108  39.211  26.125   2.207
53794W        W26109  31.076  10.057   2.355
53795W        W26110  44.974  28.547   1.205
53796W        W26111  10.626   8.859   4.641
53797W        W26112   0.664   9.160  13.014
53798W        W26113  24.788  11.394   3.179
53799W        W26114  23.027  15.799  10.566
53800W        W26115  30.681   7.155  10.695
53801W        W26116   2.765  31.045   0.368
53802W        W26117   6.980  10.105   2.299
53803W        W26118   7.839   8.446  14.470
53804W        W26119  29.112  20.575  11.229
53805W        W26120  30.564  13.208  12.160
53806W        W26121  37.475  15.844   3.258
53807W        W26122  13.240  21.355   5.006
53808W        W26123  17.358  12.099   3.114
53809W        W26124  22.784  19.606   5.532
53810W        W26125   9.833   8.189   1.148
53811W        W26126  36.231  32.103   3.184
53812W        W26127  13.305  12.839  13.557
53813W        W26128  38.235  38.382   2.651
53814W        W26129   7.636  22.987  12.598
53815W        W26130  24.679  35.886   4.615
53816W        W26131   3.899  27.509  14.932
53817W        W26132   4.806  20.526  11.174
53818W        W26133  26.528  30.399   2.282
53819W        W26134  37.573   9.930  12.497
53820W        W26135   2.821  13.299   2.725
53821W        W26136  29.877   0.755  14.996
53822W        W26137  27.890  13.723  11.471
53823W        W26138  38.069  43.861  11.902
53824W        W26139  32.990  21.533  14.025
53825W        W26140  22.322  26.571   1.419
53826W        W26141  18.117  12.175   2.821
53827W        W26142   8.856  38.853  14.407
53828W        W26143  39.841  20.199   2.162
53829W        W26144  44.545  11.404   0.881
53830W        W26145  19.285  10.565   1.811
53831W        W26146  21.221   5.832   2.920
53832W        W26147  43.974  16.650  14.125
53833W        W26148   2.710  21.939  13.896
53834W        W26149   9.589  11.236   3.394
53835W        W26150  24.928   2.818   3.049
53836W        W26151  33.608   1.847  13.514
53837W        W26152  28.214  27.937  13.873
53838W        W26153   9.307  34.616   2.362
53839W        W26154  24.485  22.940   4.543
53840W        W26155  24.708  13.149   4.165
53841W        W26156  41.472  11.577  13.836
53842W        W26157   8.428  44.002  10.903
53843W        W26158  44.371  43.944   3.078
53844W        W26159  40.979   0.510   2.674
53845W        W26160  27.943  20.248  14.415
53846W        W26161  32.123  29.442   4.644
53847W        W26162  21.836  39.911  10.726
53848W        W26163  41.329  34.041   1.466
53849W        W26164   6.812  24.630   4.111
53850W        W26165  29.689  31.479   2.209
53851W        W26166  27.406  41.515   1.321
53852W        W26167   6.818  33.342  13.459
53853W        W26168  32.158  30.521   3.932
53854W        W26169   5.292  17.639  12.051
53855W        W26170  36.948  30.979   2.293
53856W        W26171   7.327  16.846   3.096
53857W        W26172  25.513  14.048  14.512
53858W        W26173  11.565  21.963  14.134
53859W        W26174   3.330   0.138   1.404
53860W        W26175  12.668  14.590   1.246
53861W        W26176   4.461  35.303  11.071
53862W        W26177  18.080  15.736   1.656
53863W        W26178   1.018  44.677   1.155
53864W        W26179   8.942  13.300  12.005
53865W        W26180   5.483  33.127  13.480
53866W        W26181  36.978   5.432   0.428
53867W        W26182  24.012  19.223   5.145
53868W        W26183  12.845  33.899   3.758
53869W        W26184  28.059   7.778   0.902
53870W        W26185   6.804  37.645   3.044
53871W        W26186  16.373  38.001  11.943
53872W        W26187  34.865  27.305   5.042
53873W        W26188   6.659  28.624  12.004
53874W        W26189  31.536  31.333   3.451
53875W        W26190   9.548  18.022   2.755
53876W        W26191  12.648  14.577   3.423
53877W        W26192  35.149  33.124  13.243
53878W        W26193   4.049  19.172   3.871
53879W        W26194  37.560  12.771   0.575
53880W        W26195   4.808  10.199  10.727
53881W        W26196  32.281  33.469  10.808
53882W        W26197  27.207  10.793  12.861
53883W        W26198  41.960  44.308  11.797
53884W        W26199  27.002  21.218   2.628
53885W        W26200  33.405  28.551   2.782
53886W        W26201  25.423   2.896   2.167
53887W        W26202  30.174  37.925   3.047
53888W        W26203  31.465  12.553  12.561
53889W        W26204  25.863  26.869   1.185
53890W        W26205   2.862  24.568   1.908
53891W        W26206  24.163  20.111  14.711
53892W        W26207  38.974   1.303   2.677
53893W        W26208  44.944  36.058   3.359
53894W        W26209   0.814  36.297  11.605
53895W        W26210   9.787  35.316   1.863
53896W        W26211  14.639  13.045   4.129
53897W        W26212  35.399  25.565  10.417
53898W        W26213  43.179  13.548   3.637
53899W        W26214  27.671   5.861   3.190
53900W        W26215  17.347   5.319   3.616
53901W        W26216   7.662  11.155  11.170
53902W        W26217  31.940  12.726  10.338
53903W        W26218  25.605  16.651  13.665
53904W        W26219  18.280  26.077   2.815
53905W        W26220  24.201  32.730   0.584
53906W        W26221   4.013   0.887  13.979
53907W        W26222   9.151   3.802  13.770
53908W        W26223  18.749  25.202   4.380
53909W        W26224  19.207   3.819   4.815
53910W        W26225  28.201  41.831  10.393
53911W        W26226  27.157  44.939   3.689
53912W        W26227  23.611  42.977   0.281
53913W        W26228  34.127  21.779   4.674
53914W        W26229   6.282  11.784  13.869
53915W        W26230  16.322  10.200   3.126
53916W        W26231   4.623  41.125  13.400
53917W        W26232  22.678  36.007  10.887
53918W        W26233  35.971  28.653  13.374
53919W        W26234  21.741  18.995   1.940
53920W        W26235  41.952  30.620  12.047
53921W        W26236  17.256  40.267   1.247
53922W        W26237  19.048  29.662   2.269
53923W        W26238  34.640  22.201   0.020
53924W        W26239  18.506  41.788   5.048
53925W        W26240  42.433   3.927  12.270
53926W        W26241   7.811  21.605   4.204
53927W        W26242  26.430  28.588  13.328
53928W        W26243  21.157  26.738  14.359
53929W        W26244   3.297  16.775   3.290
53930W        W26245  39.024  39.887  11.200
53931W        W26246  41.499  27.100   2.169
53932W        W26247  23.133  20.294   0.472
53933W        W26248  43.988  37.996   1.913
53934W        W26249   8.267  37.490   3.590
53935W        W26250  30.633  30.626   3.689
53936W        W26251  24.129  17.046   5.022
53937W        W26252  24.573  35.283   3.735
53938W        W26253  25.171   4.170   2.785
53939W        W26254   2.660   1.258  10.690
53940W        W26255  27.088  18.547   1.175
53941W        W26256  33.609  12.833   4.156
53942W        W26257   4.822  28.905   4.332
53943W        W26258   2.193  26.488   3.395
53944W        W26259  25.422  31.970  11.205
53945W        W26260  29.921  43.950  13.084
53946W        W26261   0.854  36.459   0.840
53947W        W26262  18.085  28.451   5.070
53948W        W26263  28.645  21.558   0.414
53949W        W26264  24.263  31.572  12.039
53950W        W26265  25.508  17.670   3.412
53951W        W26266  30.655   4.539   1.891
53952W        W26267  12.952  11.067  11.029
53953W        W26268   0.843  32.025   2.292
53954W        W26269  40.902  30.866   3.387
53955W        W26270  34.919  24.963  11.868
53956W        W26271  22.378  16.420   0.837
53957W        W26272  21.099  25.368  14.439
53958W        W26273  19.568  43.876   1.173
53959W        W26274  39.648  35.924  10.943
53960W        W26275   2.572  22.565   3.480
53961W        W26276  34.502  30.368   1.345
53962W        W26277  25.564  25.268   3.778
53963W        W26278  26.422  30.598  13.428
53964W        W26279  24.371  11.644  12.707
53965W        W26280  11.741  17.184  13.759
53966W        W26281  19.032  17.115   1.370
53967W        W26282  28.632   6.352   9.768
53968W        W26283  21.056  23.663  12.587
53969W        W26284  40.364  36.809  11.746
53970W        W26285  44.959   1.360   0.989
53971W        W26286  40.151  29.726   1.279
53972W        W26287  32.519  40.018  13.838
53973W        W26288  24.742  19.553  13.268
53974W        W26289  29.831  31.027   0.859
53975W        W26290  22.615  12.231  13.814
53976W        W26291  26.382  21.116   4.892
53977W        W26292  14.614   8.383  11.579
53978W        W26293  14.679  24.531  13.405
53979W        W26294  19.810   7.291   1.179
53980W        W26295  21.242  23.606  10.806
53981W        W26296  19.786  42.238  11.021
53982W        W26297   4.870  33.880   0.425
53983W        W26298  33.998  36.649  11.568
53984W        W26299   5.308  40.979   4.374
53985W        W26300  34.511   7.915  13.954
53986W        W26301  44.996  30.072   3.755
53987W        W26302   2.269  26.875  11.433
53988W        W26303  26.802  16.353  12.121
53989W        W26304  28.988  41.103   3.583
53990W        W26305  11.641  33.469  12.405
53991W        W26306  38.574  29.720  10.643
53992W        W26307  35.593   9.753   3.189
53993W        W26308  24.452  11.363   1.298
53994W        W26309  12.240  42.238  12.610
53995W        W26310  12.186  23.512   1.706
53996W        W26311  30.995  18.385  14.587
53997W        W26312  39.517  26.657  12.825
53998W        W26313   6.227  18.558  13.038
53999W        W26314  15.514   8.390  11.576
54000W        W26315   4.499  34.364   0.234
54001W        W26316   3.554   9.551   0.839
54002W        W26317  24.228   4.985   3.189
54003W        W26318  15.546   1.268  13.460
54004W        W26319  42.936   9.456   3.095
54005W        W26320  38.521  32.106   1.313
54006W        W26321  24.182  18.054  11.981
54007W        W26322  32.279  13.666  11.218
54008W        W26323   8.829  33.068   3.367
54009W        W26324  29.895   7.553   0.188
54010W        W26325  30.044  37.607   0.825
54011W        W26326  23.594   5.759   3.238
54012W        W26327  13.335  36.300   1.256
54013W        W26328   0.369   4.238  10.517
54014W        W26329  24.552   2.495  11.998
54015W        W26330  39.341  16.911   3.610
54016W        W26331  25.676  19.076  12.076
54017W        W26332  14.002  20.652   3.326
54018W        W26333  43.755  18.601  10.562
54019W        W26334  12.627   3.572   1.912
54020W        W26335  14.258  36.647   1.866
54021W        W26336  40.798  20.599   0.794
54022W        W26337  14.890  31.884  11.595
54023W        W26338   4.952  31.126  11.594
54024W        W26339  29.491  18.288  14.163
54025W        W26340  21.347  44.265   0.401
54026W        W26341  11.281  27.950   4.198
54027W        W26342  15.292  26.072  14.749
54028W        W26343  35.336  42.934   3.534
54029W        W26344  39.592  13.696  13.891
54030W        W26345  34.906  39.804  14.823
54031W        W26346  14.443  15.711   5.049
54032W        W26347   0.781  44.581  11.994
54033W        W26348   2.680  38.000   3.734
54034W        W26349  37.640  18.902   1.984
54035W        W26350  37.511  18.061   4.153
54036W        W26351  39.879  44.571  13.902
54037W        W26352  30.486  41.413   0.968
54038W        W26353  35.847  37.085   0.041
54039W        W26354  27.960  11.676  10.988
54040W        W26355  18.141  27.532  10.610
54041W        W26356   8.292  28.520  11.924
54042W        W26357  20.171  26.141  11.782
54043W        W26358  27.723  43.003   1.400
54044W        W26359   6.799  36.552   3.864
54045W        W26360  44.841  32.247   0.590
54046W        W26361  25.603  14.133  12.651
54047W        W26362   5.336  17.811  13.407
54048W        W26363   3.817  37.495   1.545
54049W        W26364  18.095  14.636  12.998
54050W        W26365   7.690  32.502   1.305
54051W        W26366   2.905  39.817   2.251
54052W        W26367   1.761   3.330   0.832
54053W        W26368  39.708  15.260   4.578
54054W        W26369  10.850  27.667  11.929
54055W        W26370   3.921  28.554  11.014
54056W        W26371  10.207  43.286  14.303
54057W        W26372  25.407  23.673  12.113
54058W        W26373  25.207  42.844   2.427
54059W        W26374  26.977  29.958  13.079
54060W        W26375   0.188  16.681   1.880
54061W        W26376   3.329  30.525   4.124
54062W        W26377   1.551  22.787  12.396
54063W        W26378  27.964  14.271  12.599
54064W        W26379  24.388  44.371  14.309
54065W        W26380  10.730  10.378   3.186
54066W        W26381  32.571  10.398   1.498
54067W        W26382  19.349   4.756  10.205
54068W        W26383  30.614   5.253  14.322
54069W        W26384  18.593  19.067   1.384
54070W        W26385  21.353  29.653  14.526
54071W        W26386  25.022  37.037   0.214
54072W        W26387   4.970  24.188   4.312
54073W        W26388   8.770  23.310   2.316
54074W        W26389  42.098  43.046   3.192
54075W        W26390  38.392  33.072   4.444
54076W        W26391  17.764  11.804  11.889
54077W        W26392   4.180  18.731   1.843
54078W        W26393  41.108   2.927   4.368
54079W        W26394   5.945  22.451   3.033
54080W        W26395  20.116  29.731  12.167
54081W        W26396  44.968  33.529  12.611
54082W        W26397  30.607  11.539  13.278
54083W        W26398  40.709  31.954   2.164
54084W        W26399  38.923   5.817   4.623
54085W        W26400  38.962   7.193  14.245
54086W        W26401  20.612  38.078   2.498
54087W        W26402  21.620  11.604   4.030
54088W        W26403  33.092  35.829  12.473
54089W        W26404  24.070  39.819  11.992
54090W        W26405  10.088  35.085  14.074
54091W        W26406  31.534  38.049   0.421
54092W        W26407  30.196  14.742   4.880
54093W        W26408  42.360   9.700   0.800
54094W        W26409  30.985   0.485   2.827
54095W        W26410  12.161   1.902  11.344
54096W        W26411  15.602   0.895   0.781
54097W        W26412   2.546  15.201   0.461
54098W        W26413  35.546   6.927  13.436
54099W        W26414  26.995  26.435   3.707
54100W        W26415   5.517  25.615  13.467
54101W        W26416   3.231  32.911   1.857
54102W        W26417  22.285  34.615  12.840
54103W        W26418  44.761   3.808   1.513
54104W        W26419  21.715   5.734  11.549
54105W        W26420  27.467   7.892  14.991
54106W        W26421  23.052  27.911   2.446
54107W        W26422  27.610  44.926   0.003
54108W        W26423  20.204   7.186  11.086
54109W        W26424  12.426   3.198  11.518
54110W        W26425  23.738   6.767  13.503
54111W        W26426  17.282  20.037  13.931
54112W        W26427  37.076  25.170   2.890
54113W        W26428  20.773  23.515   0.468
54114W        W26429  34.482  21.793   0.796
54115W        W26430  36.003  28.872   3.736
54116W        W26431  36.012   1.413  14.516
54117W        W26432  31.510  35.571  10.588
54118W        W26433  38.068  35.587  11.527
54119W        W26434  38.433  31.958  13.403
54120W        W26435   0.343  19.775   0.263
54121W        W26436  16.693   3.846   0.508
54122W        W26437  37.404   7.913  10.694
54123W        W26438  31.856  36.156  13.329
54124W        W26439  23.786  34.378   4.131
54125W        W26440   4.308  17.873   4.081
54126W        W26441  19.791   5.672   1.168
54127W        W26442  38.912  33.882  11.613
54128W        W26443  39.772  15.283   2.158
54129W        W26444   8.834   9.872  14.226
54130W        W26445  22.592  32.957   3.391
54131W        W26446  44.198  41.779   0.247
54132W        W26447  17.458  15.680  13.414
54133W        W26448  24.617  22.235  13.996
54134W        W26449   3.466   5.836   5.025
54135W        W26450  39.982   5.160   4.199
54136W        W26451  15.164  33.020  14.449
54137W        W26452  29.390  16.764   0.722
54138W        W26453  33.492  37.982  13.400
54139W        W26454  20.089  36.386   2.759
54140W        W26455  31.474  14.651   1.590
54141W        W26456  12.559  17.458   1.820
54142W        W26457  37.091  25.945   1.207
54143W        W26458  23.449  34.641   1.803
54144W        W26459   4.517  33.038  10.416
54145W        W26460  26.178   5.199  11.932
54146W        W26461  27.119  35.246   0.333
54147W        W26462  18.526  40.117   4.588
54148W        W26463  44.250  12.232   5.151
54149W        W26464  29.975   6.967  13.685
54150W        W26465  13.196  42.402  13.909
54151W        W26466  17.337  33.623  11.604
54152W        W26467  20.905  32.467  11.495
54153W        W26468  34.517   2.050  12.470
54154W        W26469  29.965  18.839   2.358
54155W        W26470   9.670  22.236  14.502
54156W        W26471  18.127   2.905   4.961
54157W        W26472  31.600  36.021   0.925
54158W        W26473  19.361  39.216   0.976
54159W        W26474  15.774  28.243   1.798
54160W        W26475  39.022   3.301   1.882
54161W        W26476  39.715  20.351  13.396
54162W        W26477   5.850  19.739  12.465
54163W        W26478  16.687  38.821   1.435
54164W        W26479   3.742  27.814  12.384
54165W        W26480  43.370  19.174  12.894
54166W        W26481  28.371   3.934   0.839
54167W        W26482  27.142  20.788   0.256
54168W        W26483  25.467  44.406   4.158
54169W        W26484  18.486  38.827   4.954
54170W        W26485  19.577  33.888   1.254
54171W        W26486  35.809  29.201  11.777
54172W        W26487   4.391  28.919  11.494
54173W        W26488  28.398  24.920  12.139
54174W        W26489  15.826  20.205  13.005
54175W        W26490   3.284  10.048   1.839
54176W        W26491  22.681  38.612   0.401
54177W        W26492   3.806  43.861  13.512
54178W        W26493  23.663   4.461   2.800
54179W        W26494   0.741  33.601   3.845
54180W        W26495  27.061  44.363   1.198
54181W        W26496  18.733  12.171  11.122
54182W        W26497  22.201   5.857  11.745
54183W        W26498  31.571  10.732   4.593
54184W        W26499  39.432  40.264   1.882
54185W        W26500   6.882  32.279  13.424
54186W        W26501   9.728  24.814   3.367
54187W        W26502  12.676  30.006  14.544
54188W        W26503  42.764  25.880   4.881
54189W        W26504  44.087  29.083   4.609
54190W        W26505  23.214  44.293   9.958
54191W        W26506  23.798   0.268   1.528
54192W        W26507   8.847  25.681   2.326
54193W        W26508   3.502  32.178  13.388
54194W        W26509  40.088  38.322  11.118
54195W        W26510  14.227  38.326  11.724
54196W        W26511  11.937  29.705   2.670
54197W        W26512  29.642  14.252   3.799
54198W        W26513   3.860  21.215   1.810
54199W        W26514   2.666  33.913  13.533
54200W        W26515   1.149   0.555   0.867
54201W        W26516  14.105  19.684  11.464
54202W        W26517  22.009   5.769   2.087
54203W        W26518   4.360  16.899   4.217
54204W        W26519  20.798   1.811  13.851
54205W        W26520   7.918   4.093   3.887
54206W        W26521  18.562  23.435   2.199
54207W        W26522  32.452  41.006   2.324
54208W        W26523  44.893  34.704  12.413
54209W        W26524  10.292  39.105  14.805
54210W        W26525  28.085  16.072  12.441
54211W        W26526   5.141  22.272   0.843
54212W        W26527  16.888  40.940   4.690
54213W        W26528  23.245  25.660  12.535
54214W        W26529  33.938  42.245   4.915
54215W        W26530   0.873  19.348   0.060
54216W        W26531  43.978  27.381   0.892
54217W        W26532  35.196   1.407   3.655
54218W        W26533  16.183  42.392   2.200
54219W        W26534  18.690  17.510   2.774
54220W        W26535  27.714  25.517   0.349
54221W        W26536  14.721  43.216  13.712
54222W        W26537   6.991  37.339  11.436
54223W        W26538  39.090  36.051   3.772
54224W        W26539  28.387  22.005   0.231
54225W        W26540  25.089  21.957  13.928
54226W        W26541  21.638  11.300  13.171
54227W        W26542  31.912  40.038   1.340
54228W        W26543   7.142  10.253   3.242
54229W        W26544  44.023   4.671   2.419
54230W        W26545  25.197  32.328   4.223
54231W        W26546  30.990  12.215   2.772
54232W        W26547  17.783  10.180   1.220
54233W        W26548  43.048   1.794   4.650
54234W        W26549  40.278  40.795   1.425
54235W        W26550  25.087   6.996   2.412
54236W        W26551  37.900   6.702  11.482
54237W        W26552  37.261  35.811   0.493
54238W        W26553  36.430  21.143  14.659
54239W        W26554  29.242  23.945  12.387
54240W        W26555  15.343  14.802   4.724
54241W        W26556  20.680  26.468  13.909
54242W        W26557   3.924  10.270  11.448
54243W        W26558  43.890  36.038   1.948
54244W        W26559  31.952   9.256  12.295
54245W        W26560  16.079  14.591   1.873
54246W        W26561   8.291   0.863  13.195
54247W        W26562   5.604  35.870   3.343
54248W        W26563   7.985  34.009   4.733
54249W        W26564   6.774  22.108  12.597
54250W        W26565  27.682  30.434  11.934
54251W        W26566  43.318  36.021   2.441
54252W        W26567  12.822  40.861  13.411
54253W        W26568   1.480   3.259   3.154
54254W        W26569  12.804   1.532  13.432
54255W        W26570  34.660  36.352   2.699
54256W        W26571  44.904  35.038  11.250
54257W        W26572   2.843  25.129  13.081
54258W        W26573   6.478  10.636  11.980
54259W        W26574  24.108  22.178  12.888
54260W        W26575  25.178  21.552  12.849
54261W        W26576   0.537  15.320  14.531
54262W        W26577   8.853   0.924   4.740
54263W        W26578  36.503  15.152   3.421
54264W        W26579  44.017  19.053  14.987
54265W        W26580   5.512  25.615  12.533
54266W        W26581  42.827  26.307  14.921
54267W        W26582  17.122  40.543   3.779
54268W        W26583  39.523  26.992   2.898
54269W        W26584   4.724  38.532   3.856
54270W        W26585  35.058  18.379  13.020
54271W        W26586  35.797  19.684  14.299
54272W        W26587  36.429   5.392  13.739
54273W        W26588  20.533  22.487   3.555
54274W        W26589   2.345  44.404  13.406
54275W        W26590  19.534  41.560   4.050
54276W        W26591  23.681  37.095   0.249
54277W        W26592   5.826   4.228  14.913
54278W        W26593  23.165  12.399   4.074
54279W        W26594  17.563  14.604   0.185
54280W        W26595  41.313  14.732  14.914
54281W        W26596  28.564  32.498  13.028
54282W        W26597   1.904  34.172  10.939
54283W        W26598  20.599   0.352  14.919
54284W        W26599  35.060   2.825  12.163
54285W        W26600   5.962  19.755   2.733
54286W        W26601   7.987  36.533  13.421
54287W        W26602  20.754  21.020   3.448
54288W        W26603  35.835  11.869   4.674
54289W        W26604  20.147  14.006  13.908
54290W        W26605   1.978  33.022   0.384
54291W        W26606  21.702  25.853  11.039
54292W        W26607  19.771  26.933  11.223
54293W        W26608   1.785  22.297   1.306
54294W        W26609  43.893  41.047  11.506
54295W        W26610  36.150  17.097   5.269
54296W        W26611  27.112  36.817  11.108
54297W        W26612  15.907  20.799  10.653
54298W        W26613  30.394   0.675  14.935
54299W        W26614  23.248  27.638  13.456
54300W        W26615  13.965   9.668  14.267
54301W        W26616  36.131  41.232  10.822
54302W        W26617  30.125   4.910  11.556
54303W        W26618  13.436  27.322  13.103
54304W        W26619  12.702   4.924  12.980
54305W        W26620  18.161  38.112   1.663
54306W        W26621  26.700  15.623   4.157
54307W        W26622  38.002   5.998  14.218
54308W        W26623  43.803  10.662  11.074
54309W        W26624  17.682  21.548   2.934
54310W        W26625  11.144  40.842  12.326
54311W        W26626   1.771  30.541  13.376
54312W        W26627  24.354  42.550  13.454
54313W        W26628  40.458  25.819  13.353
54314W        W26629  16.299  26.923   4.699
54315W        W26630  22.521   0.919   1.400
54316W        W26631  14.304  12.763   0.343
54317W        W26632  35.096  20.079  13.313
54318W        W26633   8.755  25.593  12.340
54319W        W26634  12.629  30.844  14.141
54320W        W26635  35.203  31.770  14.496
54321W        W26636  43.651  12.263  11.318
54322W        W26637  10.767  34.899   0.324
54323W        W26638  43.272   1.035  13.189
54324W        W26639  20.328   0.979   2.791
54325W        W26640  16.131   5.292  11.661
54326W        W26641  40.983  42.618   0.991
54327W        W26642  28.542  20.961  12.392
54328W        W26643  14.355  38.316   3.677
54329W        W26644  33.862   3.864   5.008
54330W        W26645  42.458  21.026   1.038
54331W        W26646  33.617  39.142  14.315
54332W        W26647   8.339  38.926  14.525
54333W        W26648  34.367  39.585  14.039
54334W        W26649  33.153  20.566  13.009
54335W        W26650  15.712  41.639  12.672
54336W        W26651  11.448  28.643   1.048
54337W        W26652   4.528  30.859   0.868
54338W        W26653  37.962  20.247   4.758
54339W        W26654  44.789  39.687  11.644
54340W        W26655   4.819  13.613   1.785
54341W        W26656  37.693  38.887  13.308
54342W        W26657  13.819  30.448  13.833
54343W        W26658   6.875  29.266  14.902
54344W        W26659  20.236   3.900   4.128
54345W        W26660  13.789   1.266  11.822
54346W        W26661  40.288  19.855   2.284
54347W        W26662  26.845  43.835   2.106
54348W        W26663   7.645  17.645  13.490
54349W        W26664  21.700  26.109  13.007
54350W        W26665   0.026  44.345   1.200
54351W        W26666  34.348   9.884   1.925
54352W        W26667  15.132  30.519   4.304
54353W        W26668  33.619   0.427  13.845
54354W        W26669  42.804  11.262   1.209
54355W        W26670   3.782  25.726   0.956
54356W        W26671  19.027  39.967   2.299
54357W        W26672  26.153   5.797   4.017
54358W        W26673  40.992   9.896  13.421
54359W        W26674  17.268   5.382   2.716
54360W        W26675  19.279  34.021   3.552
54361W        W26676  43.577  39.555   3.534
54362W        W26677  43.942  28.535  10.775
54363W        W26678  22.516   7.731   2.771
54364W        W26679  12.070   2.837  11.421
54365W        W26680  24.767  25.209  13.949
54366W        W26681  33.112  18.779   2.833
54367W        W26682  15.659  30.459   4.456
54368W        W26683   6.658   3.532  11.515
54369W        W26684  42.813   2.509   2.294
54370W        W26685  14.730   5.779  13.076
54371W        W26686  18.106  19.481  12.962
54372W        W26687  21.785   8.298   1.740
54373W        W26688  19.719  22.047  14.836
54374W        W26689  40.304   3.890  11.227
54375W        W26690  29.259  21.420   1.236
54376W        W26691  19.614   4.745  10.654
54377W        W26692  27.421  37.526   0.527
54378W        W26693  24.396  43.849  11.581
54379W        W26694  11.870  35.884  11.617
54380W        W26695  41.751  19.570  14.286
54381W        W26696   3.755  26.514   4.215
54382W        W26697  23.405  38.424   0.777
54383W        W26698  32.382   9.846  11.468
54384W        W26699  24.773  40.938   4.101
54385W        W26700  28.536   3.430   3.667
54386W        W26701   9.335   8.677  14.312
54387W        W26702  19.453   7.726   3.354
54388W        W26703  26.008  22.816  10.571
54389W        W26704  18.986  38.026   1.834
54390W        W26705  36.098   6.465   0.517
54391W        W26706  19.952  11.902   4.141
54392W        W26707  23.949  31.407  11.664
54393W        W26708  13.731  18.831  14.599
54394W        W26709  12.844  29.846   2.636
54395W        W26710   9.340  24.883   1.324
54396W        W26711  30.396  39.501  12.479
54397W        W26712   3.411  41.454  12.061
54398W        W26713   9.686  27.474   0.528
54399W        W26714  22.516  38.497   2.325
54400W        W26715   6.445  23.658   3.263
54401W        W26716  44.849  28.405  14.807
54402W        W26717  19.467  44.090   0.299
54403W        W26718  27.325   2.256  13.991
54404W        W26719  25.976   4.915   2.784
54405W        W26720  23.037  27.165  13.395
54406W        W26721  40.435  14.697   4.192
54407W        W26722  18.226  22.221  14.841
54408W        W26723   4.361  37.109  14.284
54409W        W26724  33.545  28.124   4.778
54410W        W26725  24.036  36.275   0.286
54411W        W26726  27.526  25.041   4.631
54412W        W26727   8.315  36.061   4.381
54413W        W26728  13.656   8.106   4.376
54414W        W26729  11.844  12.679  14.781
54415W        W26730   2.816  39.039  14.575
54416W        W26731  15.780  42.036   0.882
54417W        W26732  28.608  33.889  13.172
54418W        W26733  22.640  35.859  14.805
54419W        W26734  21.004  42.447  14.469
54420W        W26735  43.247   5.007  14.954
54421W        W26736  31.576  40.481  13.799
54422W        W26737  28.035  37.016  11.153
54423W        W26738  40.463  11.276   2.394
54424W        W26739  22.743  28.719   1.385
54425W        W26740  24.490  18.185  10.513
54426W        W26741  32.903  40.676  14.925
54427W        W26742  18.239  27.478  14.761
54428W        W26743  30.347  18.802  13.518
54429W        W26744  27.928  18.577   5.086
54430W        W26745  40.053  11.244  12.154
54431W        W26746  28.657   8.423   0.954
54432W        W26747  23.002   8.676   3.759
54433W        W26748   7.887   3.395  12.954
54434W        W26749  25.387   0.382   3.024
54435W        W26750  13.429  21.728  14.612
54436W        W26751  27.449  10.367  14.915
54437W        W26752  30.161   7.079   2.232
54438W        W26753  16.803  34.927   0.005
54439W        W26754  42.821  41.102  10.593
54440W        W26755  33.829  14.235   0.514
54441W        W26756   6.886   5.457   2.366
54442W        W26757  43.204  13.740  11.471
54443W        W26758   1.411  44.419   1.452
54444W        W26759   5.187  16.561  12.943
54445W        W26760  20.412  20.259  14.516
54446W        W26761  44.914  30.680  11.938
54447W        W26762   6.685  42.532   1.999
54448W        W26763  16.786   8.068  11.946
54449W        W26764  21.552  29.090   3.667
54450W        W26765  10.523  39.964   2.917
54451W        W26766   7.510  25.254   4.167
54452W        W26767   7.250   7.722  12.392
54453W        W26768  11.524  19.122  10.074
54454W        W26769  28.872   3.240   1.888
54455W        W26770  26.679   1.839  12.939
54456W        W26771  16.374  40.829   4.803
54457W        W26772  32.008  18.028  12.546
54458W        W26773  31.012  15.116  11.026
54459W        W26774  12.906  14.286  13.361
54460W        W26775  18.658  13.294   3.673
54461W        W26776  40.891  41.873  14.741
54462W        W26777  16.793  40.615  14.297
54463W        W26778  41.905  42.509   0.995
54464W        W26779  32.442  13.540  13.384
54465W        W26780  10.301  35.872  13.333
54466W        W26781  43.414  42.054   3.316
54467W        W26782  27.054  42.871  12.044
54468W        W26783  35.276  17.733  12.797
54469W        W26784  30.115  30.056  14.997
54470W        W26785   7.374  18.798  11.334
54471W        W26786  13.779   1.461  14.928
54472W        W26787  17.490   8.570  12.414
54473W        W26788  34.332  33.515   1.412
54474W        W26789  12.287   8.258  10.579
54475W        W26790   1.656  32.319   3.717
54476W        W26791  24.377   3.754   2.686
54477W        W26792  18.617   1.271  11.142
54478W        W26793  15.851  40.327   0.809
54479W        W26794  39.755   3.234   1.373
54480W        W26795  30.558  41.515   4.128
54481W        W26796  31.559  12.918  12.934
54482W        W26797  15.719  29.880   5.582
54483W        W26798  22.026   7.546  12.082
54484W        W26799   5.286  30.426  13.533
54485W        W26800  32.588  13.875   2.669
54486W        W26801  39.921  39.735   4.596
54487W        W26802  25.247  11.559   3.314
54488W        W26803  13.033  44.387  12.367
54489W        W26804  22.946  39.260  10.265
54490W        W26805  16.008   1.076  12.499
54491W        W26806  29.230  32.902   9.774
54492W        W26807  25.687   4.791   0.542
54493W        W26808  34.348  18.715  11.000
54494W        W26809   0.263  34.386   3.982
54495W        W26810  18.041  26.954   4.074
54496W        W26811  13.767  39.471  13.794
54497W        W26812  41.740  36.925   3.766
54498W        W26813  29.656  25.606  14.837
54499W        W26814  17.113  24.258   1.666
54500W        W26815  43.939  24.711  14.901
54501W        W26816  17.731  22.518   3.365
54502W        W26817  27.773  37.869  10.907
54503W        W26818  37.994  28.979   5.082
54504W        W26819   8.431  25.625   4.177
54505W        W26820   1.515  39.543  14.885
54506W        W26821   1.244   7.744   3.202
54507W        W26822  30.962  27.657   2.291
54508W        W26823  25.131  15.910  13.002
54509W        W26824   8.510  43.021   2.752
54510W        W26825  43.912  28.486   2.471
54511W        W26826   6.962  20.046  14.115
54512W        W26827  30.130  13.912  13.097
54513W        W26828   1.878  28.162   3.953
54514W        W26829   5.099  37.687   1.774
54515W        W26830  22.193  21.620   1.679
54516W        W26831  11.329   6.352  13.654
54517W        W26832  11.127  25.424   1.440
54518W        W26833  13.511   2.238   4.194
54519W        W26834  40.467  39.982   0.890
54520W        W26835  11.704  22.958   0.018
54521W        W26836  36.491  12.103  13.461
54522W        W26837  40.420  13.158  11.064
54523W        W26838  21.462  12.251   3.747
54524W        W26839   6.188   9.439   2.209
54525W        W26840  12.681   5.669  11.908
54526W        W26841  41.544   2.833   4.111
54527W        W26842  10.028  26.565   3.108
54528W        W26843  36.549  31.435  10.507
54529W        W26844  10.070   1.215  11.127
54530W        W26845  13.445   9.693   1.233
54531W        W26846  30.937  39.852   0.319
54532W        W26847   7.301  28.436  11.882
54533W        W26848  13.211  27.913   0.806
54534W        W26849  31.375  15.874  12.946
54535W        W26850  16.679  44.676   4.650
54536W        W26851   2.218  12.248  11.656
54537W        W26852   7.871  13.422  11.999
54538W        W26853  39.516  16.256  14.345
54539W        W26854  23.028  43.976   0.808
54540W        W26855  13.296  39.023   2.312
54541W        W26856  17.266  40.607  13.326
54542W        W26857  30.458   8.688   1.363
54543W        W26858   8.956  22.439  14.791
54544W        W26859  16.860   7.692   3.672
54545W        W26860  16.109  36.814   2.384
54546W        W26861  20.154  15.151  14.095
54547W        W26862  28.931  10.717   4.796
54548W        W26863   7.755  10.312   2.617
54549W        W26864   9.376  43.975   1.384
54550W        W26865  26.213   8.786   2.238
54551W        W26866  29.131  20.654  10.717
54552W        W26867  16.542   3.811   4.108
54553W        W26868  13.697  20.600   0.818
54554W        W26869  13.094  23.449  12.532
54555W        W26870   9.224  33.385  13.315
54556W        W26871  39.272  16.020   2.772
54557W        W26872   3.266  20.179   3.075
54558W        W26873  20.460  15.896   3.656
54559W        W26874  17.472  12.159  13.951
54560W        W26875  20.704   2.241   1.181
54561W        W26876   6.070   9.404   0.280
54562W        W26877   7.724  44.806  13.499
54563W        W26878   1.702  17.728   1.763
54564W        W26879  33.947   3.547   4.600
54565W        W26880  40.569  20.699  13.470
54566W        W26881   0.536  30.222  14.884
54567W        W26882  19.690  14.739   1.031
54568W        W26883  20.155  36.401   0.033
54569W        W26884  22.868  42.491  12.031
54570W        W26885   4.598   6.136   0.416
54571W        W26886  37.203  16.612  11.446
54572W        W26887  27.893   5.919  14.855
54573W        W26888  22.710  28.928   4.845
54574W        W26889  15.087  31.171  13.478
54575W        W26890  39.010  22.772  10.163
54576W        W26891  36.504  20.757   4.060
54577W        W26892   7.671   5.382  14.315
54578W        W26893  16.448   8.756  12.473
54579W        W26894   9.544  44.454  14.272
54580W        W26895  24.340   9.771  12.696
54581W        W26896  11.152  44.419   0.935
54582W        W26897  42.658  13.155  10.595
54583W        W26898   9.266  24.428  11.818
54584W        W26899   6.001   4.961   2.398
54585W        W26900   4.562  19.590   2.414
54586W        W26901   0.815  12.152   4.982
54587W        W26902  35.908  22.569   4.540
54588W        W26903  17.177  37.560  12.973
54589W        W26904  10.227  35.544   1.725
54590W        W26905   1.109  13.117  11.457
54591W        W26906  22.673  30.753  12.482
54592W        W26907  16.835  16.700  11.930
54593W        W26908  31.460  25.821   2.591
54594W        W26909  42.118   6.387   1.389
54595W        W26910   1.100  12.347   2.696
54596W        W26911  26.993  22.715   0.982
54597W        W26912  43.722  13.321  14.382
54598W        W26913   3.823  22.553   4.121
54599W        W26914  25.419  40.472   0.313
54600W        W26915   6.450  22.728  13.909
54601W        W26916  40.175  41.640  10.243
54602W        W26917   7.931   3.686  14.534
54603W        W26918  18.171  38.134  12.443
54604W        W26919  11.806  14.742   4.871
54605W        W26920  11.330  24.630  11.128
54606W        W26921   8.699   3.713  14.904
54607W        W26922  16.826  44.433   3.179
54608W        W26923  12.731   6.371   3.916
54609W        W26924  41.060  34.008   4.184
54610W        W26925  17.091  18.647   1.727
54611W        W26926  15.183  26.628   1.385
54612W        W26927   1.307  20.957  10.198
54613W        W26928   4.297  25.569   0.830
54614W        W26929  14.563  32.315   3.261
54615W        W26930  29.106  31.981   0.409
54616W        W26931   9.267   6.711   1.952
54617W        W26932  33.914   4.101   3.299
54618W        W26933  19.078  13.773  11.090
54619W        W26934  22.797  13.688   1.187
54620W        W26935  40.944  36.326   2.308
54621W        W26936  15.102  22.243  14.982
54622W        W26937  21.580   9.416   1.970
54623W        W26938  26.574  36.185  12.840
54624W        W26939   1.948  27.608  12.972
54625W        W26940  32.017  22.338  10.197
54626W        W26941  38.094  20.794  10.566
54627W        W26942  27.599  43.225  11.500
54628W        W26943  32.433  16.758  13.565
54629W        W26944  17.332   1.034   9.938
54630W        W26945  19.768   7.586  10.259
54631W        W26946  40.522   3.271  13.729
54632W        W26947  44.284  41.696   4.412
54633W        W26948  20.071   2.766  14.553
54634W        W26949  43.435  12.404   0.102
54635W        W26950  44.761   9.837  13.867
54636W        W26951  20.801  28.092  12.116
54637W        W26952  31.990   0.947  14.781
54638W        W26953  23.224  13.764   4.853
54639W        W26954  22.005  24.598   0.490
54640W        W26955  12.097  20.847   2.957
54641W        W26956   1.462  19.527   1.227
54642W        W26957  16.086  30.429  10.353
54643W        W26958  26.515  21.412   0.750
54644W        W26959  42.894  27.174  12.286
54645W        W26960  15.751   3.490   3.228
54646W        W26961   7.838  16.373  11.824
54647W        W26962  33.511  21.029   2.042
54648W        W26963  17.379  17.445   5.028
54649W        W26964  40.626  42.408   1.870
54650W        W26965  14.315  14.807  11.047
54651W        W26966   4.928  31.455   2.822
54652W        W26967  24.577  44.813  14.466
54653W        W26968  40.943  27.893   0.351
54654W        W26969  39.592  31.032   3.674
54655W        W26970  20.568  19.299  11.980
54656W        W26971   5.954  40.699   0.492
54657W        W26972  41.080  18.168   2.630
54658W        W26973  30.501  22.948  11.950
54659W        W26974  40.004   0.717  10.735
54660W        W26975  17.209  32.908  11.932
54661W        W26976  37.984  44.547   4.153
54662W        W26977  38.318  41.504   0.438
54663W        W26978  37.971  18.357  12.902
54664W        W26979  34.038   0.990   4.592
54665W        W26980  22.156  34.544  13.837
54666W        W26981   1.314  15.787  13.933
54667W        W26982   2.872   8.369  11.828
54668W        W26983  41.889  43.371  13.357
54669W        W26984  31.925   4.670  13.367
54670W        W26985  16.849  18.826  11.016
54671W        W26986  36.558  44.909   2.763
54672W        W26987  14.765  36.363   4.657
54673W        W26988  18.619  31.162  11.835
54674W        W26989  26.181  25.718  14.025
54675W        W26990  24.235  28.493  13.486
54676W        W26991  13.862  26.121  12.128
54677W        W26992  32.878  13.539   2.908
54678W        W26993  23.150  34.806  14.279
54679W        W26994   9.185  22.388  12.112
54680W        W26995   0.323  26.095  14.260
54681W        W26996  10.453  12.898   1.809
54682W        W26997   7.228  12.813  13.665
54683W        W26998   5.090  14.807  13.120
54684W        W26999  22.541  15.567   9.963
54685W        W27000   2.028   6.320   0.786
54686W        W27001  35.840  37.066  10.751
54687W        W27002  40.356  28.720  12.443
54688W        W27003  40.937  15.602  13.947
54689W        W27004  37.307  35.910  10.734
54690W        W27005  42.459  23.446   3.659
54691W        W27006   9.312  38.527  13.391
54692W        W27007   6.742   3.361   2.439
54693W        W27008  26.705  15.475   0.361
54694W        W27009   2.826  27.832  12.442
54695W        W27010  41.907  14.147  10.120
54696W        W27011   7.916  17.675  13.945
54697W        W27012  30.844  16.555  12.436
54698W        W27013  20.593   8.653  14.705
54699W        W27014  18.828  41.838  14.003
54700W        W27015  41.333  13.312   1.843
54701W        W27016  41.935  44.021   3.285
54702W        W27017  29.460  27.029   5.040
54703W        W27018  11.221  27.354   2.871
54704W        W27019  22.498  31.623  14.281
54705W        W27020  28.606  31.647   3.788
54706W        W27021  32.499  25.512   3.368
54707W        W27022  13.056  16.747   0.277
54708W        W27023  18.266  10.849   9.716
54709W        W27024   3.213  28.638   4.940
54710W        W27025  35.926   8.197  11.191
54711W        W27026  16.166  38.006   2.116
54712W        W27027  22.406  39.489   0.771
54713W        W27028  28.635  18.669  13.996
54714W        W27029  42.810  25.283  14.860
54715W        W27030   8.776  31.173  11.144
54716W        W27031  31.845   9.793   3.468
54717W        W27032  40.449  24.985  11.157
54718W        W27033  26.142  30.639   3.921
54719W        W27034  28.078  37.131   0.018
54720W        W27035   4.409  35.478   4.334
54721W        W27036  27.668   2.216  14.391
54722W        W27037  20.196  34.257   0.790
54723W        W27038  37.515  19.586  10.751
54724W        W27039   7.923  37.503   1.379
54725W        W27040  43.074  18.662  11.097
54726W        W27041  32.476  22.776   0.019
54727W        W27042  10.699  13.411   4.436
54728W        W27043  20.239  11.234   3.092
54729W        W27044  30.949  17.614  11.169
54730W        W27045  31.124  23.117   4.210
54731W        W27046  43.705  43.085  14.533
54732W        W27047  16.582   9.216   0.580
54733W        W27048   8.474  33.921   2.730
54734W        W27049  31.123   2.504  14.384
54735W        W27050  17.441  14.425   9.867
54736W        W27051  41.252   5.144  11.294
54737W        W27052  25.213  38.030  13.529
54738W        W27053  28.653  40.393  11.078
54739W        W27054  37.361   6.927   0.811
54740W        W27055  32.103  10.157   2.199
54741W        W27056  29.559  17.165  11.536
54742W        W27057   7.961  28.411   3.654
54743W        W27058  38.441  29.753   4.890
54744W        W27059  38.311  43.258  13.094
54745W        W27060   6.150  17.217   3.479
54746W        W27061  34.302   7.878   3.616
54747W        W27062   4.443  11.324   2.373
54748W        W27063   5.234   6.479  12.415
54749W        W27064  33.606   6.844   0.442
54750W        W27065  13.532  22.204  14.327
54751W        W27066  25.078   6.971   4.389
54752W        W27067  33.328  33.094   4.695
54753W        W27068   5.135   9.869  11.196
54754W        W27069  16.290  41.259  11.995
54755W        W27070  32.806   1.856   4.721
54756W        W27071  17.701  27.749  13.795
54757W        W27072  37.370  29.763  14.916
54758W        W27073  35.987   0.977  13.406
54759W        W27074   0.994  26.559  14.006
54760W        W27075   4.788  20.089   2.538
54761W        W27076  34.480  21.692  13.253
54762W        W27077   2.701  39.433   0.480
54763W        W27078  29.228  14.913  11.905
54764W        W27079  40.402  38.415   1.743
54765W        W27080  40.030  22.593  10.722
54766W        W27081   7.726   7.442   4.031
54767W        W27082   5.837  25.583   4.192
54768W        W27083  33.885   0.216   3.499
54769W        W27084  41.689  44.427   3.086
54770W        W27085   4.184  42.280   3.352
54771W        W27086   5.763  32.807  11.699
54772W        W27087  24.645  34.798   3.559
54773W        W27088  35.070  37.405  11.094
54774W        W27089  15.219  23.128   4.486
54775W        W27090  29.224  42.970  10.696
54776W        W27091  20.407  43.916  13.292
54777W        W27092  23.669   9.808   2.369
54778W        W27093  40.352  36.151   3.370
54779W        W27094  30.804  39.293   0.214
54780W        W27095   5.248  15.851   3.201
54781W        W27096  36.391  18.920   4.108
54782W        W27097  30.687   4.984   3.638
54783W        W27098  44.480   8.710  11.026
54784W        W27099  11.603  25.083  14.086
54785W        W27100   2.327  29.500   3.643
54786W        W27101   8.029  42.507   0.688
54787W        W27102  42.273  26.113  13.903
54788W        W27103  32.693  27.590  14.357
54789W        W27104  44.263  28.057  14.227
54790W        W27105  16.321  33.341  13.550
54791W        W27106  42.180   1.748  13.926
54792W        W27107  16.152   2.854  14.010
54793W        W27108  29.466  33.646   1.741
54794W        W27109  37.826   4.138  14.522
54795W        W27110  38.799   1.058  13.022
54796W        W27111  36.934  39.226   4.234
54797W        W27112  33.679  24.484   1.451
54798W        W27113  15.214  40.101  14.018
54799W        W27114  13.051  34.962   0.798
54800W        W27115   3.267  23.888  10.738
54801W        W27116   2.308  29.429  13.897
54802W        W27117   6.328  33.658  13.329
54803W        W27118  19.576  27.268  10.738
54804W        W27119   5.173   0.977   2.838
54805W        W27120  31.759  15.665   2.766
54806W        W27121  31.920  42.947   4.070
54807W        W27122  22.810  33.428  13.302
54808W        W27123  10.669  19.285   2.186
54809W        W27124  37.542  44.551   3.865
54810W        W27125  15.292  25.486   0.544
54811W        W27126  44.825  12.673   5.550
54812W        W27127   3.862  32.520  10.834
54813W        W27128  40.889  38.102   3.846
54814W        W27129  15.934  38.989  13.036
54815W        W27130  24.706   1.947   1.527
54816W        W27131   6.745  33.506  12.052
54817W        W27132   5.423  38.897   0.613
54818W        W27133  34.442  32.163   1.697
54819W        W27134  11.267  18.022   0.464
54820W        W27135  10.753  38.458   3.085
54821W        W27136   9.849   9.433   0.945
54822W        W27137   3.202  15.631  11.603
54823W        W27138   5.921  18.642   0.993
54824W        W27139  43.008  43.106   3.704
54825W        W27140  20.794   9.360   3.236
54826W        W27141  15.567  26.751   2.691
54827W        W27142  43.125  44.034   1.691
54828W        W27143  42.618  43.435   3.603
54829W        W27144   0.374  15.207   3.403
54830W        W27145  35.550  10.905   2.143
54831W        W27146   1.447  10.890   2.760
54832W        W27147  20.863  18.164  12.450
54833W        W27148   0.206   4.883   3.885
54834W        W27149   9.948  10.722  11.356
54835W        W27150  12.827   9.311   4.480
54836W        W27151  18.594  10.235  11.998
54837W        W27152  32.342  37.612   4.986
54838W        W27153  41.386  36.434   1.223
54839W        W27154  18.520   5.410  11.142
54840W        W27155   4.384   8.864   2.416
54841W        W27156   6.561  32.594  11.628
54842W        W27157  38.018  25.136   1.263
54843W        W27158  44.687   4.586  14.863
54844W        W27159  39.197  35.575  13.019
54845W        W27160  18.668  26.013  14.305
54846W        W27161  36.145  42.949  14.796
54847W        W27162  44.502   0.860  11.398
54848W        W27163  35.796  11.665  11.702
54849W        W27164  32.157   3.526  11.557
54850W        W27165  12.792  36.289   2.846
54851W        W27166  23.004  30.757  10.460
54852W        W27167   0.408   5.504   4.262
54853W        W27168  18.966  20.745  11.780
54854W        W27169  18.530  43.813  14.619
54855W        W27170  18.997  29.293  14.452
54856W        W27171  17.051  29.802  14.267
54857W        W27172  21.411  42.282   4.289
54858W        W27173  23.085  16.170   3.098
54859W        W27174   6.288  27.893   0.513
54860W        W27175  42.419  43.369  14.446
54861W        W27176  21.281  10.783  13.447
54862W        W27177  23.453  14.876   3.300
54863W        W27178  41.026  28.479  12.021
54864W        W27179  23.707  43.729   1.370
54865W        W27180  37.560  41.553   0.939
54866W        W27181  12.140  36.550   2.825
54867W        W27182  35.805  14.735  11.588
54868W        W27183  19.576  32.511   4.681
54869W        W27184  24.152  36.470   1.436
54870W        W27185  24.161  12.076  14.730
54871W        W27186  39.937  28.898   0.304
54872W        W27187  21.086  35.963  14.550
54873W        W27188  14.195  37.588  10.502
54874W        W27189   0.015  29.922  13.544
54875W        W27190  27.176   2.943  10.827
54876W        W27191  11.954  27.140  14.247
54877W        W27192  31.657  37.081  10.655
54878W        W27193  40.521  36.501   4.619
54879W        W27194  22.200   4.247   1.857
54880W        W27195  38.941   2.436  12.394
54881W        W27196   9.754  25.251  11.529
54882W        W27197   4.886  32.177  12.869
54883W        W27198  18.583  19.114   1.907
54884W        W27199  10.782  10.907   2.217
54885W        W27200  41.038  30.904   0.939
54886W        W27201  19.819  17.189   0.789
54887W        W27202  32.064  30.556  14.552
54888W        W27203  41.809  30.327  11.231
54889W        W27204  41.990  20.778   0.953
54890W        W27205  28.534   1.215  12.301
54891W        W27206  29.673  32.998   1.213
54892W        W27207  28.970  20.195  10.490
54893W        W27208   6.806  37.324  14.316
54894W        W27209   9.516  43.094   2.663
54895W        W27210   1.458  17.500  11.205
54896W        W27211   5.816  10.439   0.509
54897W        W27212  30.788  28.919   4.116
54898W        W27213  16.395  23.673  11.036
54899W        W27214  34.490  25.928   0.012
54900W        W27215  43.326  23.161   3.703
54901W        W27216  31.429  25.774  11.989
54902W        W27217  17.545   8.345   5.029
54903W        W27218  18.063  21.970   4.621
54904W        W27219  24.602  26.760  14.449
54905W        W27220   0.479  17.000   0.099
54906W        W27221  27.638  21.486  12.367
54907W        W27222  38.989   9.533   4.584
54908W        W27223  32.644  43.260   3.557
54909W        W27224   4.665   6.113   4.155
54910W        W27225  34.278   8.641   2.152
54911W        W27226  36.832  20.798   0.310
54912W        W27227  44.757  13.289  14.540
54913W        W27228   3.247  36.978   4.122
54914W        W27229  16.803  23.913   3.424
54915W        W27230  36.598  41.023  11.544
54916W        W27231  29.984   4.311  13.532
54917W        W27232   9.188   2.216  11.934
54918W        W27233  11.414   1.920  14.359
54919W        W27234   2.656   5.454   1.803
54920W        W27235  11.868   2.231   2.992
54921W        W27236  44.004   1.291   0.859
54922W        W27237   3.230  44.551  11.627
54923W        W27238  23.907  30.923  11.078
54924W        W27239  42.797  24.661   1.257
54925W        W27240   4.427  32.956  10.948
54926W        W27241   4.140  26.128   1.020
54927W        W27242   3.302  39.034   2.580
54928W        W27243  33.920  17.198  13.194
54929W        W27244  13.468  21.746   2.750
54930W        W27245  43.273  32.444  12.018
54931W        W27246  15.741   1.001  10.520
54932W        W27247  37.489  11.520   4.302
54933W        W27248  16.390  36.934  14.472
54934W        W27249  40.368   3.200  10.692
54935W        W27250  20.503  42.412   4.474
54936W        W27251  15.780  11.879  12.895
54937W        W27252  40.755  44.780   3.127
54938W        W27253  15.058   5.901   0.876
54939W        W27254  33.088  43.316   3.827
54940W        W27255  18.114  17.213   0.709
54941W        W27256  19.152  23.041   4.528
54942W        W27257  30.655  23.142  13.344
54943W        W27258   5.575  34.726  11.256
54944W        W27259  40.861  14.196   0.919
54945W        W27260  37.807  18.285   4.530
54946W        W27261  40.816  19.287   0.559
54947W        W27262  14.327  39.091   0.254
54948W        W27263  10.082  26.901  14.941
54949W        W27264  35.559  21.930   0.430
54950W        W27265  23.018  15.475  10.147
54951W        W27266  11.261   3.554  13.857
54952W        W27267   8.606  13.675  13.099
54953W        W27268   3.812  29.137  10.831
54954W        W27269   8.242  38.405  12.268
54955W        W27270  42.870   0.759  13.442
54956W        W27271  37.470  10.426  12.518
54957W        W27272  38.142   4.191  14.920
54958W        W27273  31.971  19.816  13.774
54959W        W27274   4.341  44.520   0.336
54960W        W27275  26.742   8.780   3.148
54961W        W27276  44.004  42.798  12.131
54962W        W27277  41.397  39.327  13.379
54963W        W27278  18.116  11.049  11.171
54964W        W27279  37.091   1.181  14.006
54965W        W27280   4.357  18.705   0.067
54966W        W27281  15.502  11.776  14.288
54967W        W27282  27.018   5.432  11.873
54968W        W27283   4.827  32.563  12.547
54969W        W27284  17.210  36.876  12.513
54970W        W27285  19.301   0.470   1.236
54971W        W27286  23.231  19.222   2.694
54972W        W27287  30.492  28.440  13.447
54973W        W27288   0.740  14.820  13.239
54974W        W27289   8.253  15.305  14.255
54975W        W27290   7.028  11.149   5.254
54976W        W27291  20.050  20.186   2.261
54977W        W27292  40.514  24.574  12.837
54978W        W27293  17.357  11.717   4.652
54979W        W27294  40.071  25.082   4.266
54980W        W27295  39.635  38.932  10.645
54981W        W27296  17.221  40.806  14.900
54982W        W27297  18.196   0.227   2.294
54983W        W27298   2.375  32.360   2.772
54984W        W27299  15.659  28.891  13.127
54985W        W27300  18.797  22.055  11.112
54986W        W27301  10.001  20.666   4.851
54987W        W27302  28.533  39.086   3.178
54988W        W27303  11.116  14.350  10.570
54989W        W27304   1.408  10.147   4.921
54990W        W27305   6.621  17.409   3.658
54991W        W27306  30.375  33.623  12.022
54992W        W27307  25.051  15.125   1.824
54993W        W27308  21.259  18.612   2.359
54994W        W27309  25.438  38.348   1.809
54995W        W27310  26.124   5.121   3.258
54996W        W27311  32.163  19.684   3.612
54997W        W27312  34.318   6.830  14.894
54998W        W27313  12.570   7.898  14.554
54999W        W27314  26.025  21.968   2.290
55000W        W27315  19.089  18.184  11.110
55001W        W27316  43.881  37.366   3.225
55002W        W27317  14.859  39.835  11.097
55003W        W27318  23.148  42.584   3.139
55004W        W27319  34.850  12.792  10.405
55005W        W27320   2.343  24.713  12.840
55006W        W27321  27.404  33.429   2.135
55007W        W27322   7.965  28.964  12.203
55008W        W27323   4.007  16.231  14.270
55009W        W27324  28.245  10.473  11.384
55010W        W27325  18.508  28.466   1.132
55011W        W27326   2.735  44.087   3.734
55012W        W27327  32.932  42.363  10.739
55013W        W27328  37.220  41.388  10.803
55014W        W27329  12.151  16.135  11.735
55015W        W27330   4.780  16.216  13.891
55016W        W27331  27.652  43.012   4.546
55017W        W27332   1.883  22.259   2.684
55018W        W27333   0.690  41.531  14.060
55019W        W27334  12.324  41.136   4.159
55020W        W27335  44.029  23.772  13.952
55021W        W27336  17.017  17.699  14.822
55022W        W27337   6.367  18.484   5.091
55023W        W27338  37.125   5.208   1.949
55024W        W27339  27.512  31.980   5.311
55025W        W27340  35.396  34.241  11.479
55026W        W27341  14.350  10.729  13.354
55027W        W27342  18.360   8.317   3.712
55028W        W27343  12.368  17.823  13.985
55029W        W27344  21.185  18.545   3.241
55030W        W27345  29.010  17.112  11.627
55031W        W27346  24.708   0.525  13.676
55032W        W27347   8.403  13.343   0.753
55033W        W27348  10.187   6.839   4.117
55034W        W27349  42.787  32.321   0.459
55035W        W27350  20.951  36.487   2.612
55036W        W27351  27.729   9.002   1.820
55037W        W27352  25.173  34.937   0.460
55038W        W27353  37.488  11.426   0.744
55039W        W27354   0.989   3.103  12.466
55040W        W27355  27.339  31.617  10.807
55041W        W27356  20.640  27.787   3.833
55042W        W27357  44.239   9.101  12.100
55043W        W27358  23.261   2.958  10.797
55044W        W27359  16.771  23.423   3.260
55045W        W27360  38.735  12.525   9.744
55046W        W27361   1.725  44.346  12.157
55047W        W27362  44.274   7.910   4.411
55048W        W27363  42.212  33.395  11.133
55049W        W27364  27.239  38.463  14.818
55050W        W27365   6.897  26.860  11.486
55051W        W27366  29.944   0.552  12.057
55052W        W27367  18.901  31.137   0.803
55053W        W27368  16.917  26.513   4.115
55054W        W27369  25.263  10.671  12.321
55055W        W27370  19.704   4.635   3.823
55056W        W27371   5.161  31.118   2.312
55057W        W27372  29.258  41.808  12.020
55058W        W27373  28.608   0.402  13.323
55059W        W27374  35.136  28.066   4.690
55060W        W27375  27.293  22.800   1.406
55061W        W27376  39.060  33.393  10.897
55062W        W27377  27.991  37.192   1.934
55063W        W27378  20.674  34.566  12.305
55064W        W27379  12.073  13.804   3.818
55065W        W27380   5.982   0.347   3.776
55066W        W27381  41.283  25.111  10.716
55067W        W27382  41.992   0.837   3.217
55068W        W27383   6.669   0.892   0.342
55069W        W27384  39.419  32.235   2.345
55070W        W27385  36.853  28.472  14.770
55071W        W27386  38.147  14.720  13.010
55072W        W27387  30.027  24.358  14.669
55073W        W27388  10.707  27.362  10.625
55074W        W27389  42.682  42.443   0.931
55075W        W27390   6.991  42.935   2.124
55076W        W27391  37.532  41.886  11.845
55077W        W27392   7.653  24.099   3.271
55078W        W27393  40.518  23.369  10.785
55079W        W27394  29.596  42.501  11.608
55080W        W27395   0.918  13.195   1.857
55081W        W27396  43.727  37.821   4.153
55082W        W27397  12.634  23.065  14.721
55083W        W27398  25.266  38.435   0.296
55084W        W27399  42.741   3.397   2.307
55085W        W27400  29.639  44.488  12.221
55086W        W27401  36.391  18.977   1.679
55087W        W27402  24.784   2.010  11.913
55088W        W27403   0.549  25.499   0.265
55089W        W27404  18.774   1.849   2.754
55090W        W27405   7.702  20.768   0.912
55091W        W27406   1.641   5.769   3.052
55092W        W27407   5.640  11.286   3.294
55093W        W27408  28.198  33.091   1.456
55094W        W27409   0.389  11.016   1.209
55095W        W27410  27.123  17.464   0.860
55096W        W27411  11.024  23.982   3.127
55097W        W27412  15.994  43.372   0.508
55098W        W27413  16.313  33.074   3.059
55099W        W27414  40.010   6.008  12.607
55100W        W27415   0.879  19.209   1.035
55101W        W27416   2.203  14.841   4.371
55102W        W27417  19.683   7.925   0.906
55103W        W27418  15.617  12.370  12.014
55104W        W27419  42.017  44.995   2.246
55105W        W27420  12.216  23.498  11.032
55106W        W27421   2.386  25.269   3.767
55107W        W27422  18.763  12.644   1.449
55108W        W27423  15.152  23.767  13.971
55109W        W27424  13.192   5.369  10.918
55110W        W27425  34.443   5.438   4.145
55111W        W27426  31.601  11.734  12.944
55112W        W27427   6.199  31.090  12.443
55113W        W27428  29.160  20.151   2.696
55114W        W27429  41.262  19.240  14.500
55115W        W27430  39.298  25.015  13.322
55116W        W27431  32.585   5.534  14.283
55117W        W27432  23.549   0.660   3.217
55118W        W27433  15.528  33.041   0.843
55119W        W27434  15.958   7.807  13.089
55120W        W27435  14.135  37.525   1.381
55121W        W27436  18.727  29.700  13.777
55122W        W27437  13.333  32.711  14.212
55123W        W27438  34.338   8.726  10.411
55124W        W27439  17.583  21.050  10.395
55125W        W27440  32.789  38.986  13.533
55126W        W27441  27.968  18.095   1.925
55127W        W27442  29.417  10.143  13.564
55128W        W27443  30.289   5.894  14.936
55129W        W27444  36.361   6.766   2.217
55130W        W27445  33.905  31.720  12.540
55131W        W27446   7.655  25.461  12.063
55132W        W27447  37.646  30.985  13.050
55133W        W27448  12.766  25.938   3.752
55134W        W27449  28.449  28.302   1.898
55135W        W27450  33.724  10.023   4.574
55136W        W27451   8.217  40.957  12.788
55137W        W27452   4.179  24.598  13.486
55138W        W27453   3.719   5.836  13.633
55139W        W27454  21.237  38.918  11.473
55140W        W27455  37.841  39.967   4.725
55141W        W27456  21.735  24.204   4.071
55142W        W27457  11.126  24.932   1.305
55143W        W27458  30.140  26.077  13.883
55144W        W27459  37.757   5.801  13.796
55145W        W27460  38.247  19.643  14.458
55146W        W27461  19.107  20.185   3.099
55147W        W27462  20.230   8.528  10.697
55148W        W27463  23.612  28.842  10.686
55149W        W27464   3.336  26.210   4.005
55150W        W27465  32.551   5.698   1.872
55151W        W27466   0.952  15.161  11.748
55152W        W27467  13.284   1.692  13.368
55153W        W27468  20.370   1.962  10.333
55154W        W27469  13.325   5.952  14.377
55155W        W27470  18.086  18.551   0.955
55156W        W27471  32.963  42.446  14.331
55157W        W27472  13.163  42.908  14.557
55158W        W27473   3.532  17.260   0.206
55159W        W27474  33.066  33.834   0.743
55160W        W27475  11.717  18.459  14.360
55161W        W27476  38.363  25.397  11.070
55162W        W27477  27.010   5.453  14.394
55163W        W27478  23.546   6.587  11.058
55164W        W27479  10.227  32.056   4.945
55165W        W27480   5.499  32.267  11.699
55166W        W27481  27.299  21.778  14.413
55167W        W27482  37.885   0.297  12.584
55168W        W27483  27.631  39.831  12.499
55169W        W27484  34.396  35.412  12.576
55170W        W27485  25.642  30.325   2.379
55171W        W27486   2.004  12.204   3.777
55172W        W27487  27.017  14.318  14.823
55173W        W27488   2.633   5.797   3.225
55174W        W27489   7.211  18.347  11.113
55175W        W27490   0.314  27.960   1.265
55176W        W27491   4.784  44.298   1.824
55177W        W27492  36.988  39.399  14.946
55178W        W27493  29.369  38.783  10.812
55179W        W27494  18.489  11.756   3.355
55180W        W27495  33.657  22.712  12.956
55181W        W27496  33.037  23.033   4.823
55182W        W27497  15.898   0.389   1.820
55183W        W27498  21.586   5.219  11.584
55184W        W27499  23.678   0.693   0.805
55185W        W27500  42.989  26.176   3.250
55186W        W27501  13.302  23.438   1.371
55187W        W27502  26.387   6.377  13.712
55188W        W27503   2.388  23.417   4.570
55189W        W27504  13.754  19.571   1.758
55190W        W27505  43.515  40.566  12.533
55191W        W27506  32.242  12.118   0.397
55192W        W27507  29.531  34.895   2.090
55193W        W27508  42.604  43.163   3.166
55194W        W27509  14.628  44.537   3.891
55195W        W27510  22.598  30.169   0.189
55196W        W27511  12.136  34.602  12.557
55197W        W27512  11.178   5.679   1.327
55198W        W27513  34.889   4.159   4.134
55199W        W27514  13.736   7.724  12.587
55200W        W27515  11.344   6.448   3.363
55201W        W27516  44.940  43.537  10.436
55202W        W27517   3.028  30.760   2.797
55203W        W27518   4.525  31.447   0.350
55204W        W27519   1.198  38.585   2.808
55205W        W27520   0.629   2.529   1.573
55206W        W27521  44.978  25.133   2.205
55207W        W27522  17.630   3.011  14.955
55208W        W27523  16.339  27.933  10.653
55209W        W27524  17.778  43.752   1.952
55210W        W27525  30.528  28.088  14.939
55211W        W27526  11.143  13.259  12.189
55212W        W27527  27.943  29.463  13.924
55213W        W27528  15.605   0.031   3.236
55214W        W27529  31.829   5.781   1.671
55215W        W27530  24.750  19.584   4.690
55216W        W27531   2.297  13.177  11.709
55217W        W27532  36.810  35.869  10.776
55218W        W27533  31.046  27.160  11.849
55219W        W27534  30.875  11.765   0.485
55220W        W27535  35.763  26.200  14.253
55221W        W27536  39.006  33.044   4.087
55222W        W27537  16.149  31.800   1.182
55223W        W27538  44.723  30.999   3.854
55224W        W27539  43.035  20.679  11.097
55225W        W27540  28.483   2.378  11.022
55226W        W27541   9.718  35.873   0.330
55227W        W27542  15.382  36.849   0.213
55228W        W27543  40.399  43.794  14.945
55229W        W27544  24.149  31.416   3.290
55230W        W27545  33.919   8.158   2.150
55231W        W27546  22.971  26.532   0.804
55232W        W27547  25.513  30.491  13.101
55233W        W27548  18.853  23.301   1.779
55234W        W27549   4.786  16.276   4.536
55235W        W27550  28.953   4.882  12.492
55236W        W27551  25.018  21.590  10.051
55237W        W27552  18.944  41.591   0.831
55238W        W27553  32.191   5.850  13.807
55239W        W27554  35.819  34.494   1.828
55240W        W27555  34.092  28.174   0.590
55241W        W27556  30.504  16.383  13.926
55242W        W27557   7.863   0.488   3.943
55243W        W27558  18.734  23.840   3.721
55244W        W27559  44.100  25.818  14.295
55245W        W27560  20.130  24.310   0.752
55246W        W27561  24.599  10.471  13.276
55247W        W27562  11.766  14.167  13.961
55248W        W27563   9.441  43.303   4.073
55249W        W27564  38.380  32.027  14.762
55250W        W27565  14.710  33.244  14.376
55251W        W27566  30.606  39.072   4.346
55252W        W27567  20.653   6.004  12.247
55253W        W27568  11.218  32.117   0.090
55254W        W27569  35.947  29.914   2.754
55255W        W27570  32.699  30.023  12.356
55256W        W27571  33.146   9.742   2.811
55257W        W27572   7.869   9.202  13.866
55258W        W27573  13.062  13.116  11.120
55259W        W27574  10.228   1.584   1.233
55260W        W27575  23.438  10.920   3.244
55261W        W27576  26.038  41.985   3.606
55262W        W27577  10.130   5.258   4.666
55263W        W27578  17.984  11.826  14.941
55264W        W27579  30.662  17.223   3.172
55265W        W27580  22.675  33.943   0.248
55266W        W27581  15.881  44.290   1.840
55267W        W27582  24.547  10.188  12.438
55268W        W27583  24.725  30.309   0.592
55269W        W27584  10.183   0.730  14.308
55270W        W27585   7.936  31.375  11.543
55271W        W27586  24.700  17.141  13.472
55272W        W27587  30.460  25.508   3.228
55273W        W27588  30.742  30.990  12.068
55274W        W27589  41.834  31.008   3.239
55275W        W27590  25.124  40.577   4.234
55276W        W27591  39.896   5.725  11.568
55277W        W27592  12.361   4.916  10.406
55278W        W27593  30.237  41.341  10.958
55279W        W27594  11.241  14.865  12.024
55280W        W27595  20.675   2.182  12.110
55281W        W27596  38.400   5.995   0.860
55282W        W27597  24.689   4.215  13.594
55283W        W27598  19.646  25.879  11.138
55284W        W27599  33.857  29.593  14.352
55285W        W27600  19.023  21.115   4.143
55286W        W27601  38.013   7.693   3.916
55287W        W27602  37.920  28.385   4.089
55288W        W27603  38.986  33.866  10.605
55289W        W27604   0.643  30.132   4.791
55290W        W27605  40.508  32.222   5.028
55291W        W27606  44.844  31.657   1.018
55292W        W27607   4.248  37.424   4.625
55293W        W27608  38.074  38.870   3.267
55294W        W27609  44.799   4.170  12.487
55295W        W27610   1.296  27.002   0.268
55296W        W27611   1.974  18.531  14.970
55297W        W27612  11.942   4.970  10.779
55298W        W27613  12.449  14.784  10.808
55299W        W27614  14.547   8.164  14.895
55300W        W27615  37.998  40.290   3.734
55301W        W27616  29.670  16.785   0.278
55302W        W27617   3.078  31.009   1.132
55303W        W27618  43.857  20.520   3.660
55304W        W27619  36.889  18.806   4.206
55305W        W27620  21.530  34.805   4.846
55306W        W27621  13.546  37.813  13.870
55307W        W27622  28.185   3.674   2.252
55308W        W27623   7.820   6.261   0.564
55309W        W27624  21.325   1.795  13.892
55310W        W27625   6.234  35.377  11.014
55311W        W27626  12.138  22.632  14.360
55312W        W27627  33.483  38.380  10.674
55313W        W27628   6.327   5.755   4.736
55314W        W27629  34.720  19.577   3.561
55315W        W27630  20.065  43.702  11.980
55316W        W27631   3.805  15.625   3.444
55317W        W27632   3.874  40.471   2.167
55318W        W27633  16.227  16.109   4.396
55319W        W27634  17.170  33.282   2.764
55320W        W27635  12.590  33.294  13.314
55321W        W27636  26.430   8.408   4.043
55322W        W27637  24.214   6.234   3.595
55323W        W27638  43.868  32.581  12.576
55324W        W27639   1.926  22.091  12.000
55325W        W27640  17.572  36.896  11.554
55326W        W27641   1.043  22.140  11.936
55327W        W27642   8.921  37.370  14.353
55328W        W27643   6.326  14.224  10.040
55329W        W27644  41.137  28.713   0.393
55330W        W27645   4.098   0.795  11.646
55331W        W27646  43.274  11.910  11.281
55332W        W27647  28.531  33.663  10.707
55333W        W27648   6.310   3.231   3.717
55334W        W27649  40.026  34.929  14.738
55335W        W27650  17.160   1.466  14.448
55336W        W27651  37.492   4.775  11.356
55337W        W27652  30.802  42.833  11.503
55338W        W27653   9.242  44.021   2.874
55339W        W27654   2.055  18.573   3.716
55340W        W27655  17.133  23.748   1.753
55341W        W27656  23.509  21.042  14.890
55342W        W27657  43.917   0.998  10.641
55343W        W27658  17.156  25.462   2.674
55344W        W27659   7.897  42.012  13.444
55345W        W27660  28.074  28.718   3.212
55346W        W27661  21.531  43.295   4.393
55347W        W27662  26.205  17.494  13.951
55348W        W27663  10.835   8.404   4.934
55349W        W27664  38.917  31.256  11.458
55350W        W27665   9.074  16.640  10.973
55351W        W27666  44.253  37.444   4.579
55352W        W27667  21.972   3.294  13.545
55353W        W27668  25.256  43.407  11.857
55354W        W27669   2.362  44.762   0.013
55355W        W27670  11.474  25.657   2.903
55356W        W27671  42.866  44.433   2.368
55357W        W27672  14.377  37.477   2.488
55358W        W27673   8.308  15.611  11.103
55359W        W27674   9.698   6.666   4.137
55360W        W27675  26.803  29.847   3.673
55361W        W27676   1.435  23.249  13.721
55362W        W27677  30.094  42.426  12.984
55363W        W27678  25.541  32.770  13.520
55364W        W27679  15.202  35.291   2.819
55365W        W27680  34.858  20.957  13.489
55366W        W27681  42.548  38.861   2.381
55367W        W27682   7.372  25.504  12.526
55368W        W27683  20.655   3.044   0.922
55369W        W27684  30.011  38.047  14.015
55370W        W27685  32.990  12.125  14.831
55371W        W27686  21.248  34.121  14.046
55372W        W27687   9.750  31.590  11.038
55373W        W27688  31.694  23.516   0.704
55374W        W27689  30.531  11.414   3.188
55375W        W27690  13.553  41.886   1.395
55376W        W27691   3.878  12.482  11.007
55377W        W27692  36.163   9.976  13.725
55378W        W27693   9.260  10.092  14.449
55379W        W27694   9.355  41.528   1.149
55380W        W27695   8.315  41.989  12.889
55381W        W27696  13.270  16.209   3.451
55382W        W27697  38.072  30.731  12.407
55383W        W27698  24.183   5.911  12.581
55384W        W27699  24.890  21.068  11.566
55385W        W27700  18.137   5.119   2.704
55386W        W27701  31.578   7.430  12.606
55387W        W27702  19.212   6.658   4.595
55388W        W27703  14.086  17.385   1.345
55389W        W27704  41.822  29.783  13.337
55390W        W27705  19.542  29.450   0.325
55391W        W27706  24.211  44.736   3.321
55392W        W27707  10.812  36.423   2.423
55393W        W27708  23.011  11.804  12.089
55394W        W27709  19.262  33.555   3.815
55395W        W27710  14.601   1.370   3.766
55396W        W27711   4.739   6.294  13.998
55397W        W27712   4.410  23.098  11.565
55398W        W27713  11.605  11.566   0.732
55399W        W27714   6.207  26.652  12.963
55400W        W27715  29.026  11.129  13.989
55401W        W27716  32.085  17.777  14.035
55402W        W27717  42.294  37.099  14.424
55403W        W27718  33.472   2.272   0.385
55404W        W27719  44.947  20.972   1.846
55405W        W27720   7.204  21.771  10.953
55406W        W27721  23.558  38.928   0.667
55407W        W27722  26.126  24.022   3.309
55408W        W27723  17.311  17.914  14.445
55409W        W27724  39.613   2.984  11.657
55410W        W27725  20.831   1.640   0.393
55411W        W27726  23.679  25.652   1.245
55412W        W27727  13.891  15.068  13.761
55413W        W27728   8.384  36.142   3.867
55414W        W27729  35.406  42.946   5.083
55415W        W27730   6.364  35.523   1.152
55416W        W27731  22.468  25.925   4.562
55417W        W27732   1.672  36.502   3.258
55418W        W27733  12.659  19.296   2.201
55419W        W27734  43.352   3.559   0.871
55420W        W27735   0.005  23.647   0.482
55421W        W27736  27.502  22.675  12.950
55422W        W27737   3.639  30.180  12.951
55423W        W27738  22.055  24.323   1.853
55424W        W27739  36.543   2.517  12.073
55425W        W27740  16.083  21.160   3.152
55426W        W27741  26.684  19.317  11.104
55427W        W27742  25.073  11.632  11.921
55428W        W27743  15.151  32.676   1.497
55429W        W27744   0.700  37.813  12.480
55430W        W27745   7.270  38.795  12.318
55431W        W27746   6.780   7.672   4.626
55432W        W27747   5.175  33.862  14.827
55433W        W27748  17.847  27.730  10.992
55434W        W27749  37.543  34.446   4.581
55435W        W27750  37.272  37.393   5.080
55436W        W27751   4.221  13.557   1.038
55437W        W27752  34.463  22.007  12.363
55438W        W27753  11.932   1.942   0.081
55439W        W27754  28.215   6.401   0.838
55440W        W27755  15.859   7.448   3.620
55441W        W27756  25.228   7.177  14.256
55442W        W27757   2.326  32.985   0.796
55443W        W27758  38.299  10.124   3.335
55444W        W27759   1.875  19.278  14.795
55445W        W27760  43.399  35.995  11.233
55446W        W27761   0.682  35.106   1.998
55447W        W27762  40.974   0.348   0.929
55448W        W27763  33.369  17.510  12.437
55449W        W27764  35.317  32.141   2.724
55450W        W27765   1.699  19.736  13.434
55451W        W27766  41.840  31.202  14.815
55452W        W27767  32.446   5.129   0.816
55453W        W27768  30.626  41.466  12.545
55454W        W27769  43.928  34.463   2.789
55455W        W27770  37.405   0.779  11.162
55456W        W27771  42.903  41.443  14.869
55457W        W27772  34.876  11.175   3.264
55458W        W27773   4.189   1.869   3.596
55459W        W27774   5.319  33.813  11.424
55460W        W27775  26.263  12.389   3.144
55461W        W27776   8.380   3.479  12.863
55462W        W27777  18.806   4.840   4.061
55463W        W27778  28.040  25.183   1.246
55464W        W27779  40.478  37.603   4.585
55465W        W27780  25.095  23.911  11.460
55466W        W27781  30.355   5.458   3.628
55467W        W27782  22.984  12.715  12.075
55468W        W27783  38.476  11.586   3.327
55469W        W27784  22.466  24.926  12.604
55470W        W27785  32.992  22.788   0.252
55471W        W27786  38.393   0.316  13.340
55472W        W27787  32.527  37.773   3.717
55473W        W27788  19.777  23.515   0.449
55474W        W27789   5.411  44.377   0.474
55475W        W27790  40.017  27.973  10.491
55476W        W27791  33.488  18.633  11.580
55477W        W27792   9.160  30.578   1.295
55478W        W27793  34.587  23.056  12.263
55479W        W27794  23.708  37.412  12.610
55480W        W27795  33.881  20.044   2.622
55481W        W27796   9.746  28.808  12.901
55482W        W27797   7.238   5.460   1.886
55483W        W27798   9.929  11.325  14.626
55484W        W27799  20.013  17.612  10.728
55485W        W27800  43.640  12.360  14.372
55486W        W27801  11.890  43.042  13.684
55487W        W27802  18.272  29.263   2.658
55488W        W27803  25.136  30.867   4.143
55489W        W27804  39.550   7.289  12.977
55490W        W27805  26.871   3.718   0.285
55491W        W27806  19.324  35.330   2.766
55492W        W27807  23.304   3.474  10.764
55493W        W27808  23.452   7.921  12.087
55494W        W27809  35.845  25.545  14.952
55495W        W27810  26.502  44.872  13.923
55496W        W27811  19.929  23.894  14.228
55497W        W27812   8.119  31.137  12.422
55498W        W27813  25.955   9.315  14.432
55499W        W27814  39.397   4.502   0.789
55500W        W27815   0.452  36.607   1.894
55501W        W27816  12.321   0.166   1.735
55502W        W27817   1.880  30.742  13.846
55503W        W27818  33.718  38.378   0.019
55504W        W27819  21.525  11.096  14.026
55505W        W27820   5.758  42.710   4.107
55506W        W27821  36.896   7.300   3.225
55507W        W27822  44.725  31.375  14.403
55508W        W27823  12.096  42.599  12.966
55509W        W27824   8.914   2.282  14.296
55510W        W27825  36.556  37.621  11.161
55511W        W27826  43.788  25.018  14.510
55512W        W27827  27.519   0.469   4.325
55513W        W27828   4.620  15.192  10.976
55514W        W27829   6.342  34.153  13.341
55515W        W27830  38.933   5.396  10.178
55516W        W27831  18.239   3.500   0.370
55517W        W27832  17.632  44.925   4.869
55518W        W27833  25.904  22.709   2.046
55519W        W27834  34.057  31.844   0.856
55520W        W27835  27.128  34.672   1.176
55521W        W27836  34.713  14.735   2.882
55522W        W27837  38.420  32.931   3.537
55523W        W27838  19.706  17.031  11.979
55524W        W27839  34.860  18.989  10.767
55525W        W27840  15.615  25.713  10.747
55526W        W27841  20.478  44.882  11.050
55527W        W27842  16.842  14.441  14.498
55528W        W27843  42.423   7.299  14.017
55529W        W27844  33.385  20.104   2.201
55530W        W27845  37.060   3.461  14.426
55531W        W27846  28.018  29.168  12.084
55532W        W27847  38.429  16.335   0.740
55533W        W27848   3.531  24.060  14.574
55534W        W27849  42.319  31.639  13.855
55535W        W27850   1.504   5.803  10.700
55536W        W27851  12.744  36.650   2.351
55537W        W27852  30.931  19.620   2.312
55538W        W27853   6.387  30.971   3.668
55539W        W27854   0.323  19.606   3.669
55540W        W27855  30.208  35.550  11.961
55541W        W27856   9.603   1.330  12.488
55542W        W27857  44.829  29.237  11.580
55543W        W27858  33.100  18.038   2.178
55544W        W27859  24.195  42.336  11.570
55545W        W27860  16.058  44.276   3.845
55546W        W27861  37.936   2.705   3.513
55547W        W27862  39.782  22.170   4.815
55548W        W27863   3.884  43.409  11.410
55549W        W27864  25.053  15.292  13.383
55550W        W27865  20.568  24.073   4.855
55551W        W27866  22.509  24.160  14.996
55552W        W27867  44.199  35.506   0.390
55553W        W27868  33.553  34.336   1.790
55554W        W27869  22.111  26.465   0.549
55555W        W27870  21.182  14.321   4.094
55556W        W27871   0.994   7.314  13.805
55557W        W27872   0.414  44.193  13.673
55558W        W27873  41.851  13.588   1.787
55559W        W27874  23.071  44.702  13.205
55560W        W27875  30.864  20.584   0.543
55561W        W27876  35.068  18.511  11.835
55562W        W27877  43.475  42.870   3.900
55563W        W27878   8.776  14.258   3.151
55564W        W27879  44.453  37.651  14.143
55565W        W27880  28.716  16.068   4.376
55566W        W27881   2.011  40.372   2.326
55567W        W27882  38.070  14.868  11.367
55568W        W27883  38.840   1.928   1.427
55569W        W27884  11.223  26.834   2.909
55570W        W27885  14.818  31.589   3.776
55571W        W27886  24.576  37.456  12.016
55572W        W27887  32.682  26.120   4.181
55573W        W27888   4.230  37.658   0.833
55574W        W27889   9.856   7.280   4.091
55575W        W27890   7.843   7.410  10.733
55576W        W27891  34.883  19.489  14.423
55577W        W27892  40.948  12.814   0.850
55578W        W27893  15.791  14.957  10.181
55579W        W27894  28.477  37.070   1.753
55580W        W27895   6.193  14.523   4.653
55581W        W27896  42.795  23.659   3.309
55582W        W27897  34.549   5.412   0.227
55583W        W27898  18.450  40.463   5.408
55584W        W27899  27.129  21.934  13.251
55585W        W27900  22.169  14.943  12.581
55586W        W27901  16.848  24.725  11.470
55587W        W27902  11.772  12.112  10.555
55588W        W27903  36.943  37.538   0.215
55589W        W27904  24.578  36.930  12.417
55590W        W27905  17.160   2.231  13.997
55591W        W27906  24.237   8.418  14.991
55592W        W27907  38.267  11.253   1.778
55593W        W27908  39.696  27.018  14.462
55594W        W27909  35.769  17.822  14.288
55595W        W27910  30.197   7.215   0.452
55596W        W27911  32.673  13.670   4.280
55597W        W27912   4.227  31.207   1.098
55598W        W27913  27.365   3.331   2.203
55599W        W27914  21.159  43.914  11.491
55600W        W27915  37.594  16.004   2.747
55601W        W27916  20.154  34.310  13.971
55602W        W27917   5.702  10.308   3.691
55603W        W27918  34.048  34.536  13.432
55604W        W27919  39.971  23.604   2.085
55605W        W27920  25.891  13.669   4.109
55606W        W27921   8.812  41.816  14.139
55607W        W27922   6.285  40.958   1.435
55608W        W27923  44.474  41.989   3.193
55609W        W27924  29.524  27.067   1.313
55610W        W27925  10.848  15.539  14.058
55611W        W27926  33.138  27.167  13.748
55612W        W27927  29.979   2.265   3.380
55613W        W27928   8.680   2.179   1.852
55614W        W27929  40.551   6.124  13.917
55615W        W27930  36.791  24.641   1.235
55616W        W27931  31.615  23.438   4.990
55617W        W27932  41.769  33.485  12.798
55618W        W27933  37.505  35.198  14.317
55619W        W27934   4.260  14.097   1.183
55620W        W27935   1.816   9.616   1.170
55621W        W27936  15.136  12.846   3.745
55622W        W27937  16.881  12.360   2.250
55623W        W27938   7.219  17.390   1.458
55624W        W27939  35.024  13.383   3.377
55625W        W27940  24.247  35.563  13.438
55626W        W27941   1.368  19.085  12.885
55627W        W27942  42.378  21.434  14.370
55628W        W27943  16.474   7.749  12.905
55629W        W27944  21.625   4.232   2.333
55630W        W27945  38.495  10.471  11.808
55631W        W27946  16.807  16.355   3.207
55632W        W27947  10.160  41.971   0.448
55633W        W27948  17.680  20.075  14.504
55634W        W27949  19.011  39.954   5.053
55635W        W27950  40.138   9.799  12.419
55636W        W27951   6.457   0.571   3.673
55637W        W27952   0.418   6.709  14.083
55638W        W27953  29.911  39.345  11.457
55639W        W27954  36.099  24.826  10.717
55640W        W27955  14.233   4.868  14.966
55641W        W27956  19.794  24.415  14.986
55642W        W27957  31.165  26.026  10.413
55643W        W27958  14.051  30.668  12.458
55644W        W27959   2.919  22.804  13.976
55645W        W27960  10.908  22.256   2.768
55646W        W27961  36.304  27.931   1.915
55647W        W27962   9.248  36.912   3.021
55648W        W27963  30.215  38.545   1.811
55649W        W27964  39.361  22.577  13.848
55650W        W27965   7.137   1.701  11.565
55651W        W27966  44.454   7.648   3.280
55652W        W27967   8.392   6.512   1.864
55653W        W27968   8.788  16.778   0.137
55654W        W27969  21.077  30.510  12.617
55655W        W27970  40.478  41.850   2.773
55656W        W27971  38.907  43.091   3.798
55657W        W27972  14.145  35.643   0.957
55658W        W27973   7.886  32.425  12.524
55659W        W27974   6.617  21.140  14.436
55660W        W27975   8.672   2.233  14.746
55661W        W27976  42.279  29.866  13.557
55662W        W27977  44.990   5.718   0.283
55663W        W27978   3.205  34.372  12.906
55664W        W27979  27.941   6.594   4.674
55665W        W27980  38.495  44.254  11.456
55666W        W27981  20.128   7.931  11.589
55667W        W27982   6.673  38.594   3.744
55668W        W27983  14.576  15.962  11.174
55669W        W27984  38.571  19.972  11.213
55670W        W27985  11.840  31.818  11.074
55671W        W27986  23.648  35.812   0.791
55672W        W27987  31.422  44.055   3.304
55673W        W27988  15.176   0.594  11.621
55674W        W27989  34.001  21.477  13.113
55675W        W27990  27.490  29.959   4.374
55676W        W27991   3.446  18.027   0.731
55677W        W27992  24.225  25.253   0.461
55678W        W27993   0.543  43.735  12.522
55679W        W27994   8.952  36.410   2.225
55680W        W27995   6.294  42.860   3.325
55681W        W27996   5.183  19.236   2.589
55682W        W27997  14.511  44.941  11.626
55683W        W27998  22.860  25.947  13.386
55684W        W27999  29.543  43.199  12.847
55685W        W28000   6.084  19.558  12.891
55686W        W28001  19.715  16.532   4.093
55687W        W28002  17.406  34.989  10.308
55688W        W28003  38.245  31.908   3.223
55689W        W28004  19.802  23.945   5.044
55690W        W28005   5.668   2.724   1.377
55691W        W28006  29.613  16.641   2.784
55692W        W28007   6.081  20.221  12.358
55693W        W28008   7.237  19.218   2.118
55694W        W28009   0.440   1.367  11.143
55695W        W28010  38.061  27.906   2.322
55696W        W28011  29.022   7.825   4.157
55697W        W28012  25.046  34.799   3.256
55698W        W28013  39.923  15.049  11.531
55699W        W28014  12.693   4.427  13.642
55700W        W28015   7.438  19.269   3.654
55701W        W28016  41.436  10.891  12.045
55702W        W28017  33.507  15.597   9.972
55703W        W28018   8.192   8.954  11.122
55704W        W28019  38.392  25.847   1.815
55705W        W28020  37.014   2.825   1.393
55706W        W28021  23.463  12.381  11.165
55707W        W28022  12.548   8.854  12.666
55708W        W28023  30.659   6.452   3.599
55709W        W28024  23.226  17.729   2.199
55710W        W28025  24.624  26.558   2.881
55711W        W28026  30.129  38.012   4.053
55712W        W28027  28.125  26.876  14.324
55713W        W28028  26.993   8.051  13.122
55714W        W28029  10.126  16.487  10.214
55715W        W28030   4.026  26.208   3.626
55716W        W28031   6.443  42.824  13.011
55717W        W28032  34.293  16.183   3.798
55718W        W28033  33.079  13.713   2.472
55719W        W28034  17.744  32.928  14.741
55720W        W28035  14.842  29.708   0.840
55721W        W28036  29.587  19.106   0.688
55722W        W28037  31.694   4.451   0.818
55723W        W28038  12.849  13.743  12.707
55724W        W28039  32.002  36.397   2.398
55725W        W28040  31.924  14.869  13.536
55726W        W28041   7.781  25.646   1.169
55727W        W28042  20.775  31.671   0.722
55728W        W28043   5.417  34.060   0.785
55729W        W28044  27.154  26.683   4.142
55730W        W28045  18.612  13.104  10.642
55731W        W28046   1.490  34.573  12.399
55732W        W28047   0.786  28.190   4.607
55733W        W28048  17.104  20.990   4.692
55734W        W28049  33.017  12.275   3.608
55735W        W28050  37.564   2.698  11.458
55736W        W28051   3.846  28.665   2.803
55737W        W28052  32.549  44.209   0.386
55738W        W28053   9.180  40.866   0.433
55739W        W28054  29.033  16.659  10.729
55740W        W28055   0.932   2.850  10.258
55741W        W28056  20.204  31.619  12.037
55742W        W28057  19.286  32.574  13.794
55743W        W28058   7.748  21.553   0.406
55744W        W28059   2.317  12.168  13.520
55745W        W28060  20.105  22.536  14.267
55746W        W28061  27.560  37.009  10.940
55747W        W28062   5.656  37.710  13.110
55748W        W28063  17.241  27.784   2.663
55749W        W28064  31.728   4.665  14.540
55750W        W28065  12.227  18.216   4.156
55751W        W28066  33.035  16.585   3.128
55752W        W28067  29.951  43.358   1.823
55753W        W28068  31.176  41.277   3.561
55754W        W28069  16.486   8.126  11.502
55755W        W28070  14.695  12.260  12.080
55756W        W28071  39.629  25.920   1.340
55757W        W28072  19.236  33.520   2.803
55758W        W28073  36.098  25.108  14.806
55759W        W28074   5.527   2.548  14.432
55760W        W28075  34.898   2.790  12.648
55761W        W28076  43.783  32.943  10.846
55762W        W28077  19.140   3.847  13.421
55763W        W28078  33.472  38.141  13.932
55764W        W28079  41.858  41.806   1.825
55765W        W28080  41.601   5.373  14.011
55766W        W28081  22.724  38.713  10.618
55767W        W28082  26.619   5.711  10.985
55768W        W28083   1.926   2.984   1.189
55769W        W28084  12.558  34.326  14.529
55770W        W28085  16.149  25.022   2.144
55771W        W28086  20.166  26.017   3.841
55772W        W28087  25.082   7.920  11.454
55773W        W28088  10.807  32.224  14.375
55774W        W28089  36.964  39.909  14.872
55775W        W28090  44.814  14.658  14.139
55776W        W28091  17.961   2.291  14.935
55777W        W28092  43.230  27.158  10.978
55778W        W28093  29.466   8.947  14.451
55779W        W28094   4.673   3.249   1.356
55780W        W28095  25.563  27.081  14.323
55781W        W28096  15.287   3.280  13.393
55782W        W28097   9.774  42.421   2.869
55783W        W28098  29.991  16.601   3.549
55784W        W28099  42.141  39.397   2.770
55785W        W28100   9.475  26.325  11.052
55786W        W28101   6.244   2.889   2.833
55787W        W28102  25.170   0.746   0.430
55788W        W28103  39.255  21.177  12.976
55789W        W28104  43.404   2.350  12.084
55790W        W28105  27.376   4.830   4.062
55791W        W28106   3.980   6.040   2.806
55792W        W28107  28.120  23.211  13.409
55793W        W28108  17.634  28.778   0.406
55794W        W28109  30.902   6.701   0.724
55795W        W28110  44.488  42.303   1.143
55796W        W28111  27.142   7.338   9.546
55797W        W28112  41.447  32.840  13.485
55798W        W28113   0.889   6.897   1.917
55799W        W28114  39.450  24.979   1.685
55800W        W28115  18.063  42.480  12.037
55801W        W28116  33.936  19.776   4.102
55802W        W28117  43.322  32.912  14.996
55803W        W28118  41.272  29.565   2.270
55804W        W28119  18.925  30.856  11.562
55805W        W28120  29.704  18.093  12.637
55806W        W28121  26.717  22.568  11.047
55807W        W28122  30.718  27.224  11.465
55808W        W28123  19.529   0.005   3.751
55809W        W28124  20.182   6.359   4.021
55810W        W28125   3.258  23.136  11.483
55811W        W28126   2.977  33.952   2.144
55812W        W28127   5.055  17.318   0.303
55813W        W28128   7.197  31.793  13.902
55814W        W28129   6.837   1.497   3.848
55815W        W28130  42.350   3.443  10.960
55816W        W28131  15.999  24.952  13.773
55817W        W28132  44.415   7.351  14.256
55818W        W28133  27.047  17.005   0.076
55819W        W28134  24.114  40.308  13.195
55820W        W28135  13.906  34.611   2.728
55821W        W28136   4.432  26.607   1.698
55822W        W28137  10.523  15.699   2.822
55823W        W28138   1.523  20.581  10.604
55824W        W28139  43.529  38.255   2.872
55825W        W28140   2.812  11.809  11.954
55826W        W28141   3.763  38.466  14.048
55827W        W28142  41.145  20.605   2.696
55828W        W28143  33.227  25.679   2.781
55829W        W28144  40.042   8.937  11.168
55830W        W28145  27.807   8.910  11.081
55831W        W28146  34.682  36.223   9.955
55832W        W28147  27.021  16.374   2.759
55833W        W28148  36.030  43.708  14.398
55834W        W28149  16.824  40.892  12.986
55835W        W28150  39.248  22.222   0.020
55836W        W28151  36.681  37.393   4.085
55837W        W28152  14.355  33.016  14.726
55838W        W28153  22.211   3.711   1.837
55839W        W28154  30.331   1.883   0.483
55840W        W28155   3.390   2.420   4.676
55841W        W28156  17.028  40.155  13.207
55842W        W28157  26.576   8.774   4.389
55843W        W28158  18.606  26.914   4.068
55844W        W28159  21.540  38.257  14.101
55845W        W28160  27.797  26.319  13.966
55846W        W28161  31.190  25.616  13.670
55847W        W28162  30.510  33.184   2.795
55848W        W28163  16.824  30.621  11.047
55849W        W28164  44.947  11.893   4.137
55850W        W28165  24.001  15.690   0.832
55851W        W28166  17.017  30.131  14.656
55852W        W28167  24.049  39.053  10.844
55853W        W28168  28.100   3.483  11.449
55854W        W28169  39.367  29.900   1.759
55855W        W28170  30.209  38.620   0.910
55856W        W28171  36.486  38.133  11.077
55857W        W28172  21.551   4.908   3.058
55858W        W28173  34.397   2.993   3.887
55859W        W28174  35.081  44.288   1.783
55860W        W28175  44.988  19.037  12.946
55861W        W28176  18.769   4.933   1.845
55862W        W28177  16.377  17.804   1.809
55863W        W28178   5.915  10.271  10.793
55864W        W28179   6.660  20.747  10.983
55865W        W28180  30.423  12.566   1.159
55866W        W28181  36.817  25.992  11.055
55867W        W28182   2.401  10.369   1.518
55868W        W28183  28.183  21.651  10.999
55869W        W28184  28.305  11.114  11.878
55870W        W28185  37.011  16.839  13.250
55871W        W28186  41.982  19.239  13.355
55872W        W28187   2.850  40.655  12.390
55873W        W28188  39.384  38.839  11.087
55874W        W28189  13.991   3.743   2.224
55875W        W28190  19.757  30.719  11.721
55876W        W28191  39.222   3.020   0.957
55877W        W28192  17.143  43.505  14.200
55878W        W28193  17.855  12.860   2.865
55879W        W28194  36.919   4.404  10.562
55880W        W28195   1.129  10.681   2.255
55881W        W28196  18.344  12.646   2.902
55882W        W28197  32.429  38.583   0.381
55883W        W28198   1.758  23.269  12.505
55884W        W28199   6.129  20.056  13.703
55885W        W28200  26.952   3.883  12.932
55886W        W28201  24.208   4.454  12.181
55887W        W28202  28.742   1.753   1.994
55888W        W28203  20.092  18.508   3.591
55889W        W28204  10.926   4.451   3.753
55890W        W28205  36.457  26.268   4.547
55891W        W28206  34.878  30.633   4.097
55892W        W28207  42.544  29.664   3.209
55893W        W28208  22.596  34.281  13.771
55894W        W28209   7.694  36.550  12.531
55895W        W28210  29.993  12.640  12.410
55896W        W28211   3.906  38.349  10.548
55897W        W28212  12.072  15.620  13.571
55898W        W28213  18.797  42.831  14.757
55899W        W28214  17.530  26.671   5.022
55900W        W28215  40.529  41.323  12.226
55901W        W28216   9.834  11.706   4.700
55902W        W28217   7.888  29.156   4.213
55903W        W28218  42.766  39.912  12.451
55904W        W28219  21.706   3.955   0.975
55905W        W28220   7.453  13.016   2.861
55906W        W28221  42.142  12.645  13.976
55907W        W28222  39.058   7.050   1.857
55908W        W28223  22.204  16.914  11.102
55909W        W28224   5.973  41.505  13.436
55910W        W28225  18.534  20.234  12.592
55911W        W28226   4.742  18.764  14.016
55912W        W28227  42.939  25.036  13.010
55913W        W28228   4.710  11.311  13.480
55914W        W28229  30.107   6.329   0.413
55915W        W28230  39.257  44.490   0.968
55916W        W28231  23.657   3.925  11.734
55917W        W28232  38.909  19.825   2.670
55918W        W28233   5.886   3.345  12.099
55919W        W28234  22.672  29.012   3.717
55920W        W28235  24.740  30.103  12.931
55921W        W28236  36.633  37.508  12.643
55922W        W28237  16.601   2.525  11.697
55923W        W28238   7.292  38.370   2.105
55924W        W28239  29.928   9.956   3.050
55925W        W28240  19.027   9.684  14.782
55926W        W28241   2.023  24.008  12.125
55927W        W28242  12.933  24.196   0.515
55928W        W28243  29.594  24.767   3.681
55929W        W28244   9.621  15.175   0.405
55930W        W28245  24.068  29.920   4.120
55931W        W28246   4.607  35.806   3.277
55932W        W28247  29.255  20.182   3.754
55933W        W28248   0.895  41.095  14.278
55934W        W28249  37.907  28.455  10.857
55935W        W28250  38.677  38.087  11.099
55936W        W28251   4.908   3.189  11.210
55937W        W28252   9.224  14.381   3.673
55938W        W28253  13.783   7.194   3.910
55939W        W28254  41.083  39.003   4.133
55940W        W28255  18.550  19.238   2.406
55941W        W28256  39.544  21.524  13.232
55942W        W28257  24.020   0.076  11.023
55943W        W28258   5.240  36.827   2.107
55944W        W28259   1.251  24.635   4.074
55945W        W28260  12.799  22.662   1.855
55946W        W28261  10.142  34.586   2.714
55947W        W28262  38.795  39.053  13.343
55948W        W28263  42.855   4.403  12.496
55949W        W28264  39.780  17.832   1.715
55950W        W28265  11.564   1.908   2.046
55951W        W28266  21.166   5.829   3.437
55952W        W28267  24.736  20.812   5.054
55953W        W28268  39.939  31.380  14.249
55954W        W28269  22.072  16.998  14.839
55955W        W28270  43.873  14.274  14.368
55956W        W28271  19.677  22.773  13.445
55957W        W28272  31.199  41.000   2.836
55958W        W28273  21.524  42.343   0.922
55959W        W28274  32.503  27.741   1.307
55960W        W28275  12.558  32.994   0.027
55961W        W28276   1.815  40.942  11.403
55962W        W28277  42.816  29.028  12.941
55963W        W28278  31.934  37.805   1.712
55964W        W28279   5.973  30.086  13.100
55965W        W28280  44.495   1.254   1.898
55966W        W28281  36.959   3.921   0.320
55967W        W28282  26.210   1.772   1.912
55968W        W28283   9.423   5.985   4.009
55969W        W28284  34.457  31.413  11.506
55970W        W28285  11.926   0.381   3.719
55971W        W28286  30.701  22.540   2.021
55972W        W28287  36.085  16.218   1.633
55973W        W28288  42.100   7.426   1.788
55974W        W28289   0.314  35.135   1.008
55975W        W28290  41.997  22.462  13.437
55976W        W28291  26.490  22.251   0.252
55977W        W28292   9.571   4.982  11.663
55978W        W28293  22.222   1.628   1.981
55979W        W28294   0.773  39.992  13.269
55980W        W28295  16.214   9.404   2.726
55981W        W28296  14.127  10.283   1.478
55982W        W28297   9.616  39.306  12.106
55983W        W28298  18.619  31.681   3.106
55984W        W28299  22.740  17.249   0.444
55985W        W28300  14.866  20.974  11.186
55986W        W28301  21.066   5.635  13.911
55987W        W28302   4.401  28.587   0.392
55988W        W28303  31.443  44.275   4.530
55989W        W28304  27.484  37.987  11.880
55990W        W28305  25.065  34.332   3.059
55991W        W28306  21.101  14.656  11.527
55992W        W28307  42.311  29.383  13.438
55993W        W28308  28.612  42.616  11.984
55994W        W28309   8.704  21.776   4.336
55995W        W28310  27.002  39.568   1.518
55996W        W28311  43.776  27.926  14.922
55997W        W28312  34.311  12.308   4.116
55998W        W28313  40.320  24.770   5.039
55999W        W28314  10.384   1.929  10.776
56000W        W28315   8.716  21.106   3.945
56001W        W28316  11.109  15.089   0.781
56002W        W28317  31.125  40.736  13.946
56003W        W28318   4.784  20.501   3.554
56004W        W28319  37.428   5.302   2.876
56005W        W28320  41.408  22.502  12.049
56006W        W28321   3.813  24.069   4.513
56007W        W28322  43.295   5.763   1.516
56008W        W28323  11.519  11.346   4.621
56009W        W28324  39.798  20.545   0.785
56010W        W28325  12.741  32.535   2.499
56011W        W28326  32.395  16.329   3.227
56012W        W28327  15.010  37.494  12.599
56013W        W28328  21.065   3.505  13.477
56014W        W28329  22.096  31.577   0.452
56015W        W28330   8.395   1.643   1.780
56016W        W28331  38.356   8.912   0.918
56017W        W28332   7.942   8.499   0.824
56018W        W28333  23.041   8.364   2.459
56019W        W28334   2.244  10.657   4.717
56020W        W28335  11.226  31.377   0.877
56021W        W28336  19.462  37.807   1.875
56022W        W28337  15.701  42.547  13.674
56023W        W28338  37.592  39.604  11.089
56024W        W28339  27.142  25.109  14.342
56025W        W28340   3.863  35.310  12.435
56026W        W28341  40.089   6.311  12.187
56027W        W28342  35.258  22.900   0.845
56028W        W28343   1.521  20.283  14.874
56029W        W28344  18.117   2.904   3.909
56030W        W28345  29.279  41.372  14.523
56031W        W28346   4.855  10.818   0.732
56032W        W28347  39.527  12.601   1.972
56033W        W28348  40.325  34.623   1.804
56034W        W28349  20.178   8.661   0.007
56035W        W28350   3.379  39.266   4.584
56036W        W28351  20.971   8.303  14.911
56037W        W28352   4.895  35.129  13.471
56038W        W28353  44.742   7.035  12.065
56039W        W28354   7.948   6.682  11.170
56040W        W28355  40.440  36.848   0.434
56041W        W28356   5.769   2.212  14.905
56042W        W28357   5.432  28.405  11.879
56043W        W28358  25.011  32.568   5.160
56044W        W28359   4.552   4.584   4.044
56045W        W28360  26.484  35.167   3.410
56046W        W28361  34.635  35.469   0.891
56047W        W28362  16.812  10.739   1.829
56048W        W28363   5.769   2.295   2.204
56049W        W28364  25.226  19.697   3.661
56050W        W28365  11.727  38.057   1.021
56051W        W28366  14.328   0.405   1.006
56052W        W28367  15.062  20.143  10.733
56053W        W28368  40.391   1.265   4.571
56054W        W28369   4.100  34.616   2.665
56055W        W28370  38.446  37.224   0.634
56056W        W28371  35.372  19.612   4.697
56057W        W28372  42.268  44.182  13.776
56058W        W28373  35.011  13.098  12.844
56059W        W28374   7.757  27.732  11.816
56060W        W28375  41.285  34.816  12.985
56061W        W28376  31.503   6.592  14.824
56062W        W28377  44.993   6.497   0.459
56063W        W28378  16.200  24.071   2.219
56064W        W28379  28.360  37.558   4.049
56065W        W28380  24.631   2.998  10.943
56066W        W28381   5.813  44.580  14.292
56067W        W28382  40.237  31.007   2.717
56068W        W28383  40.482  11.388  10.454
56069W        W28384  18.143  29.703   2.426
56070W        W28385  15.457  28.977   5.421
56071W        W28386   5.753  29.125  13.026
56072W        W28387   9.832  23.159   4.291
56073W        W28388   8.399  28.471   0.258
56074W        W28389  40.459  11.841  10.744
56075W        W28390  21.482   4.514  13.405
56076W        W28391  39.362  16.079  13.045
56077W        W28392  18.988   8.082   2.674
56078W        W28393  35.149  24.627   3.824
56079W        W28394  16.236  23.480   0.394
56080W        W28395  32.637  25.096  12.313
56081W        W28396  12.103  41.599   4.284
56082W        W28397  10.939  12.172  10.421
56083W        W28398  40.274  29.081  12.814
56084W        W28399  10.723  33.834  14.760
56085W        W28400  33.541  23.417   0.557
56086W        W28401  15.380  28.527   0.368
56087W        W28402  15.724  29.771   3.713
56088W        W28403  16.347  39.890   1.751
56089W        W28404   5.862  33.877  12.577
56090W        W28405  15.787   3.973   3.561
56091W        W28406   3.474  23.959  12.633
56092W        W28407  19.446   8.296   1.362
56093W        W28408  30.133  11.148   3.897
56094W        W28409  35.327  16.902   4.101
56095W        W28410  15.737  17.997   1.699
56096W        W28411  13.072  11.782  13.984
56097W        W28412  31.660  13.633   3.626
56098W        W28413  32.859  39.035   2.204
56099W        W28414  14.211  21.020  11.118
56100W        W28415  23.504  34.301  13.354
56101W        W28416  11.690  11.729   3.397
56102W        W28417   4.523  24.726  12.357
56103W        W28418  33.549   9.652   4.258
56104W        W28419  44.439   5.169  12.903
56105W        W28420  17.108  24.348   2.176
56106W        W28421  12.349  39.992   3.115
56107W        W28422  14.806  25.352  14.361
56108W        W28423  21.757  14.559   1.536
56109W        W28424  12.588   1.628   2.602
56110W        W28425  38.964  20.202  11.508
56111W        W28426  27.273  26.102   1.883
56112W        W28427  36.877  37.149   1.423
56113W        W28428  13.871  33.106  14.537
56114W        W28429  29.620  26.419  12.273
56115W        W28430  17.902   6.833  14.692
56116W        W28431  34.589  19.063  14.586
56117W        W28432  23.969  25.180   1.928
56118W        W28433  21.004  16.712  10.417
56119W        W28434  42.672   9.200   1.776
56120W        W28435  40.876  12.150  11.792
56121W        W28436   9.586  12.087  14.107
56122W        W28437  40.926   1.814   1.920
56123W        W28438  39.786  34.096   2.331
56124W        W28439  37.253   9.298   4.672
56125W        W28440  43.462  18.347   3.618
56126W        W28441  18.292   3.875   1.227
56127W        W28442   0.873   8.038   0.265
56128W        W28443  16.714  43.652   0.934
56129W        W28444  15.193  26.441   3.771
56130W        W28445  13.311  41.923  11.088
56131W        W28446  20.452   1.480   3.902
56132W        W28447  26.307  15.585   1.873
56133W        W28448  27.532  43.539   4.554
56134W        W28449  42.520  37.286  14.858
56135W        W28450   6.773  28.228   2.763
56136W        W28451  11.204  37.337   3.846
56137W        W28452  39.600   2.325  12.961
56138W        W28453  15.558  43.450   0.768
56139W        W28454   1.261   3.972  13.408
56140W        W28455  23.387  40.881   0.189
56141W        W28456  40.339  34.391   4.492
56142W        W28457  23.486  38.322  14.765
56143W        W28458  34.856  12.765   4.731
56144W        W28459   2.799  36.954  13.463
56145W        W28460   5.668  21.473   3.121
56146W        W28461  26.850  12.057  12.862
56147W        W28462  34.155  41.876   1.920
56148W        W28463  22.421   7.280  10.241
56149W        W28464  21.285  37.538   0.369
56150W        W28465  41.056  43.925  11.097
56151W        W28466  35.924  17.838   4.934
56152W        W28467  26.762   3.275  13.565
56153W        W28468   1.430   5.264   1.444
56154W        W28469  24.192  12.766  13.463
56155W        W28470  21.469  28.570   3.702
56156W        W28471  22.901  11.682   2.815
56157W        W28472  17.273  15.555   0.284
56158W        W28473   5.861  11.331  14.244
56159W        W28474   7.314  40.817  10.702
56160W        W28475   8.149  30.116  12.447
56161W        W28476  26.222  22.448  14.811
56162W        W28477  41.071  39.997   1.034
56163W        W28478  38.821   0.232  12.554
56164W        W28479  23.965  30.079   0.343
56165W        W28480   2.575  23.255   0.427
56166W        W28481   0.389   0.405   2.676
56167W        W28482  41.938  43.229  14.754
56168W        W28483   4.426  12.577  13.534
56169W        W28484  19.140  32.064  10.703
56170W        W28485  33.977  23.041  11.551
56171W        W28486  20.287  23.626   1.384
56172W        W28487  25.449  39.671   0.831
56173W        W28488  10.191  38.331  11.592
56174W        W28489  32.434  19.872   4.515
56175W        W28490   8.392  28.178   4.902
56176W        W28491  23.770  40.288  12.540
56177W        W28492  38.358  29.105  12.601
56178W        W28493  16.752   7.897   1.455
56179W        W28494   2.896  19.048   3.353
56180W        W28495   4.197  39.313   4.168
56181W        W28496  22.007  41.520   1.165
56182W        W28497  35.504  31.889  13.797
56183W        W28498  36.140   3.206   1.944
56184W        W28499  16.471  13.022   3.391
56185W        W28500   1.279  40.570   0.805
56186W        W28501   1.646  42.331  10.357
56187W        W28502   0.375  27.883   0.341
56188W        W28503  37.523  14.587   0.496
56189W        W28504  31.766  27.539  13.071
56190W        W28505   9.685  15.387   2.777
56191W        W28506   6.638  17.927   3.831
56192W        W28507  37.348  17.007   4.161
56193W        W28508   1.761  43.768   1.840
56194W        W28509   2.020  25.079  11.581
56195W        W28510  11.435  20.522   4.623
56196W        W28511   4.637  16.081  13.391
56197W        W28512  37.945  14.515   2.424
56198W        W28513  19.747   7.717  13.476
56199W        W28514  30.697   4.359  13.795
56200W        W28515   4.062  25.236  10.260
56201W        W28516   1.865  27.009   1.442
56202W        W28517  22.173  44.801   4.322
56203W        W28518  26.189   6.180   0.311
56204W        W28519  38.554  14.095   1.843
56205W        W28520  43.765  10.131   5.431
56206W        W28521  36.953  32.256  14.796
56207W        W28522  10.870  13.133   0.418
56208W        W28523   9.563   1.135   2.413
56209W        W28524   8.835   3.735  11.184
56210W        W28525  22.386  42.661  11.919
56211W        W28526  37.376  36.499   3.313
56212W        W28527  25.171   8.882   1.471
56213W        W28528  14.814   0.993   1.232
56214W        W28529  35.546  40.593  11.200
56215W        W28530  32.685   7.272   3.018
56216W        W28531   3.721  43.064   1.855
56217W        W28532  27.874   3.652  14.507
56218W        W28533   9.778   2.614  12.682
56219W        W28534  26.033  36.064  13.622
56220W        W28535  44.467  24.413   2.741
56221W        W28536  37.285  10.329   2.203
56222W        W28537  32.975  29.086   1.047
56223W        W28538  30.080  23.699  10.934
56224W        W28539  23.069  21.010   4.969
56225W        W28540  34.665  25.385   0.298
56226W        W28541  23.599  29.322  13.078
56227W        W28542  29.689  16.928   3.207
56228W        W28543   9.775   4.884  14.969
56229W        W28544  41.597   6.603  12.472
56230W        W28545  43.104  41.577  10.566
56231W        W28546  31.612  30.143   0.313
56232W        W28547  13.777  20.268   3.672
56233W        W28548   9.312   6.530   2.420
56234W        W28549  39.923  19.754   0.993
56235W        W28550  12.214   5.250  11.226
56236W        W28551  34.672   6.400  12.914
56237W        W28552  17.779   8.885  10.754
56238W        W28553   9.216  15.317   0.726
56239W        W28554  21.696  23.539   1.932
56240W        W28555  33.914  20.167  14.660
56241W        W28556  26.485  40.345   4.108
56242W        W28557  35.336  18.735  11.470
56243W        W28558  43.794  28.716   0.382
56244W        W28559  10.063  33.674   4.242
56245W        W28560  43.896  20.750  13.474
56246W        W28561  18.023   4.172   0.875
56247W        W28562  13.830  42.327  13.469
56248W        W28563   2.264  16.784  14.866
56249W        W28564  35.656  43.453   4.882
56250W        W28565  44.324  34.500   4.211
56251W        W28566  19.018  15.121   0.726
56252W        W28567  36.939   0.531  12.737
56253W        W28568  13.927  38.799  13.501
56254W        W28569  21.594  13.856   2.810
56255W        W28570  19.792   8.677   1.333
56256W        W28571  38.085   1.728  11.615
56257W        W28572  37.667  35.050  14.812
56258W        W28573  10.575   6.052  11.745
56259W        W28574  37.871   2.519   1.880
56260W        W28575   4.116  15.613  13.812
56261W        W28576   5.319  23.554   4.643
56262W        W28577  10.446   0.862  13.816
56263W        W28578  39.863  38.456  10.676
56264W        W28579  26.374  26.313   4.499
56265W        W28580   5.062  33.013   0.209
56266W        W28581  42.377   9.122   4.641
56267W        W28582  31.471   1.046  13.824
56268W        W28583  20.315  38.357  12.779
56269W        W28584  37.235  17.295  13.182
56270W        W28585  37.260  16.155  12.576
56271W        W28586  18.823   9.749  11.870
56272W        W28587   5.232   9.915   0.316
56273W        W28588  43.298  41.677   4.754
56274W        W28589  42.434  11.706  13.818
56275W        W28590  18.017  39.673  14.591
56276W        W28591   0.225   5.039   1.843
56277W        W28592   5.926  39.790   4.493
56278W        W28593  20.019  31.584   2.352
56279W        W28594  26.779  18.937   3.940
56280W        W28595  36.701   3.483  12.276
56281W        W28596   8.480  14.549   4.221
56282W        W28597   6.443  42.957   1.215
56283W        W28598  44.314  28.092   4.132
56284W        W28599  26.148  15.570   3.208
56285W        W28600   7.815  25.117   1.900
56286W        W28601  30.180  17.921  14.841
56287W        W28602  12.728  38.080   4.525
56288W        W28603  28.526  17.082  11.985
56289W        W28604  19.208  13.782  13.279
56290W        W28605  15.984  32.265   4.086
56291W        W28606  23.321  22.601  11.945
56292W        W28607  25.237   9.357   2.791
56293W        W28608  10.700  12.573  11.972
56294W        W28609   0.549  28.966   1.501
56295W        W28610   6.677   7.224  14.515
56296W        W28611  28.185   8.150   3.799
56297W        W28612   4.909  29.858   0.684
56298W        W28613  18.804   1.327   4.624
56299W        W28614  42.891  22.251  13.431
56300W        W28615  22.660  41.005   4.721
56301W        W28616   6.328  37.834   2.155
56302W        W28617  16.095  11.666  14.816
56303W        W28618  17.591  24.798   3.807
56304W        W28619  31.360  32.591  12.118
56305W        W28620  13.991  34.719  11.548
56306W        W28621  32.895  15.491   1.910
56307W        W28622  25.610  20.136  10.958
56308W        W28623  32.053  43.429  12.683
56309W        W28624  25.465  36.610   3.281
56310W        W28625  38.837   3.176  11.691
56311W        W28626  34.070   8.734   2.639
56312W        W28627  39.497  34.166   1.863
56313W        W28628   0.431   1.956   2.421
56314W        W28629   2.865  17.625  12.946
56315W        W28630  37.121  15.318   0.402
56316W        W28631  37.884  32.867   1.272
56317W        W28632   1.254   9.124   3.268
56318W        W28633  11.624  29.719   0.841
56319W        W28634  15.052  22.354   2.590
56320W        W28635  11.175  26.560  14.021
56321W        W28636  26.105   4.631  13.335
56322W        W28637   3.471  41.880   2.864
56323W        W28638   7.235  21.633  11.436
56324W        W28639   5.731  12.693   1.728
56325W        W28640  33.906  12.685  14.072
56326W        W28641  27.064   2.160   2.333
56327W        W28642  38.286   4.489  10.383
56328W        W28643  12.192  12.192  10.888
56329W        W28644  43.703  29.105  14.544
56330W        W28645  41.846   2.850  10.456
56331W        W28646  16.735  10.533   9.846
56332W        W28647  38.293  41.465  13.257
56333W        W28648  29.889  25.253   1.834
56334W        W28649  36.120  25.727   1.922
56335W        W28650  26.956  27.044  12.978
56336W        W28651  12.764   3.795   2.356
56337W        W28652  13.735  38.093   2.371
56338W        W28653  30.365  30.969   0.843
56339W        W28654  33.631  27.149  13.959
56340W        W28655  16.289  38.453   2.327
56341W        W28656  30.067  14.125  13.577
56342W        W28657  35.553  43.845   3.156
56343W        W28658  10.090   7.221  10.697
56344W        W28659  38.994  32.149   2.912
56345W        W28660   8.668  42.320  14.918
56346W        W28661  23.975   0.876   1.213
56347W        W28662   7.770  18.166  14.272
56348W        W28663  14.087   3.682  12.912
56349W        W28664  10.103  34.406  14.385
56350W        W28665   4.709   3.992   0.692
56351W        W28666   5.732  17.163   0.873
56352W        W28667  43.072  14.783   3.235
56353W        W28668   4.814  34.039  13.587
56354W        W28669   7.810  31.638  12.924
56355W        W28670  25.723   7.093  10.448
56356W        W28671  31.422  38.574   0.408
56357W        W28672  22.448   4.366   0.872
56358W        W28673   7.572  20.116   0.441
56359W        W28674  34.158  19.520   0.755
56360W        W28675  21.200  36.683  11.445
56361W        W28676  44.827  11.053  12.586
56362W        W28677  27.229   1.163  11.085
56363W        W28678  12.400  28.104   4.608
56364W        W28679  18.750  44.780  13.002
56365W        W28680  34.659  32.418  10.750
56366W        W28681   6.822  44.909  14.414
56367W        W28682   8.872  12.735   1.181
56368W        W28683  31.161  32.579   1.714
56369W        W28684  42.518  26.486  11.086
56370W        W28685  15.817  44.322  14.601
56371W        W28686  12.424   5.783  14.764
56372W        W28687  31.049  22.221   1.252
56373W        W28688  38.272  40.794  14.476
56374W        W28689  32.628   5.832   2.813
56375W        W28690  17.053  44.272   2.718
56376W        W28691  26.430  25.602   3.721
56377W        W28692  42.205  13.132   2.403
56378W        W28693  44.379  23.244  11.575
56379W        W28694  30.934   3.351  11.910
56380W        W28695  14.225  18.116   2.707
56381W        W28696   5.247  38.036   3.338
56382W        W28697  14.792  25.437   0.377
56383W        W28698  40.975   3.961   1.381
56384W        W28699  21.526   5.900   1.936
56385W        W28700  42.013   3.930   1.310
56386W        W28701  35.929  26.680  13.350
56387W        W28702   4.410  22.233  12.595
56388W        W28703  28.182  40.632  12.373
56389W        W28704   2.343  35.178  13.232
56390W        W28705  36.108  41.063  11.413
56391W        W28706  37.241   2.368  14.827
56392W        W28707  42.937  23.177   1.437
56393W        W28708   4.790   4.445   0.936
56394W        W28709   7.917  44.316  11.764
56395W        W28710  42.427  11.002   0.951
56396W        W28711   3.392  15.826   3.706
56397W        W28712  20.276  42.976   3.075
56398W        W28713  36.569  33.629  11.003
56399W        W28714  40.897  14.877   4.617
56400W        W28715  38.875  44.838  12.203
56401W        W28716  41.573  18.034  14.856
56402W        W28717  21.735  19.777   1.732
56403W        W28718  26.151  32.848  14.804
56404W        W28719  43.401   6.634   2.686
56405W        W28720  36.069  17.201   3.092
56406W        W28721   1.886  38.802  14.448
56407W        W28722  14.649  42.427  14.816
56408W        W28723  15.655  40.884  10.667
56409W        W28724  19.672  21.564   3.792
56410W        W28725   2.901  22.036   3.603
56411W        W28726  34.404   6.959   4.566
56412W        W28727   4.227  41.036  14.193
56413W        W28728  28.621  28.523  14.239
56414W        W28729  38.563  36.390  13.871
56415W        W28730  40.541  30.758  12.147
56416W        W28731   4.158  38.281   2.166
56417W        W28732  44.678  15.139   4.178
56418W        W28733  30.420  15.660   1.781
56419W        W28734  44.458  31.612  14.764
56420W        W28735   7.095  43.499  14.181
56421W        W28736   8.903  34.545   4.160
56422W        W28737  12.712  42.589  11.038
56423W        W28738  11.246  11.828  12.385
56424W        W28739  33.639   6.149  12.893
56425W        W28740  16.750  31.922  10.008
56426W        W28741  17.928  28.093   1.507
56427W        W28742  23.069  42.062   4.041
56428W        W28743   6.485  41.545  13.401
56429W        W28744   2.463  36.814  13.089
56430W        W28745   9.788  32.599  10.918
56431W        W28746   4.662  33.944  14.946
56432W        W28747  36.475   1.480   2.829
56433W        W28748  34.474  39.127   3.105
56434W        W28749  37.622  12.204  12.195
56435W        W28750  42.578   6.337  14.034
56436W        W28751  35.278  26.946   4.230
56437W        W28752   5.604  13.326   2.489
56438W        W28753  21.300  30.988   0.934
56439W        W28754  41.793  25.165   1.836
56440W        W28755  22.307  22.799   4.107
56441W        W28756  34.932  19.187   1.390
56442W        W28757  27.092   0.355  10.687
56443W        W28758  29.118  40.258   1.420
56444W        W28759   3.396  14.175  11.534
56445W        W28760   8.810  28.418   4.638
56446W        W28761   9.445  35.056   3.123
56447W        W28762  20.143  12.461   2.623
56448W        W28763  27.624   2.192  12.560
56449W        W28764  42.841  19.175  11.999
56450W        W28765  44.901  22.825  11.109
56451W        W28766   4.749  30.494   3.323
56452W        W28767  43.738  35.162  11.114
56453W        W28768  33.939  40.568  10.631
56454W        W28769  31.411  24.448   0.029
56455W        W28770   0.289  10.241  11.581
56456W        W28771  27.105  41.882  12.543
56457W        W28772   1.984  15.978  11.902
56458W        W28773  26.365  31.269  10.499
56459W        W28774  43.437  27.463   3.213
56460W        W28775   2.233   8.145  11.491
56461W        W28776  37.641  11.344  11.504
56462W        W28777   1.028   9.717  12.450
56463W        W28778   8.273  44.409   3.201
56464W        W28779  15.174  22.865   2.287
56465W        W28780  11.894  18.683   4.661
56466W        W28781  34.545  26.029  12.651
56467W        W28782  24.459  40.610   0.956
56468W        W28783  36.568  39.974  10.687
56469W        W28784  35.286  40.117   2.404
56470W        W28785   3.716  28.790   4.883
56471W        W28786  39.335   5.016   0.886
56472W        W28787   6.393   8.327  13.882
56473W        W28788  33.219   2.246  14.125
56474W        W28789  19.477  34.688   3.792
56475W        W28790  41.986  27.933   3.363
56476W        W28791  18.642  14.572   3.230
56477W        W28792  27.048  18.608  10.750
56478W        W28793  12.145  44.325   0.467
56479W        W28794  36.065  34.912  12.973
56480W        W28795  40.296  20.283  13.410
56481W        W28796   9.790  36.519   4.990
56482W        W28797  21.093  37.442   3.891
56483W        W28798  42.734  10.124  13.847
56484W        W28799   2.924  28.942   1.156
56485W        W28800  41.094  21.585  12.117
56486W        W28801  31.571  12.265  12.008
56487W        W28802   5.198   2.395  11.236
56488W        W28803  20.881  10.562   9.712
56489W        W28804  13.829   1.866   2.631
56490W        W28805  41.027  35.643  13.210
56491W        W28806   2.603  22.671  14.812
56492W        W28807   7.882   3.176   5.008
56493W        W28808  20.832   3.949  12.469
56494W        W28809  11.691  11.103  11.199
56495W        W28810   2.971  21.161   2.587
56496W        W28811  14.430  15.617  10.718
56497W        W28812  42.458  24.295  14.936
56498W        W28813  24.542  38.537  11.828
56499W        W28814   1.954  10.786  12.419
56500W        W28815  33.221   5.787  14.878
56501W        W28816   9.396  22.992  12.911
56502W        W28817  24.002  15.369   2.828
56503W        W28818  40.914  27.124  12.805
56504W        W28819   9.647  12.443   4.516
56505W        W28820  13.811  13.078   2.772
56506W        W28821  16.819  15.090   4.592
56507W        W28822  10.996  41.880  12.766
56508W        W28823  39.968  28.556   2.967
56509W        W28824  36.351   6.926   0.939
56510W        W28825  44.334  25.700  11.608
56511W        W28826  38.421  30.188  14.368
56512W        W28827  24.431  23.069   2.104
56513W        W28828  41.051  23.719  12.842
56514W        W28829  11.068  35.482  10.649
56515W        W28830  32.078  41.706  12.306
56516W        W28831  31.762   2.061   0.294
56517W        W28832  22.041   9.826  11.336
56518W        W28833  14.200  41.388  10.835
56519W        W28834  17.289   2.714   3.299
56520W        W28835  27.381   1.572   4.771
56521W        W28836  42.293  39.858   2.260
56522W        W28837  42.966   8.069  14.131
56523W        W28838  44.048   8.186   0.445
56524W        W28839   0.796  36.508   0.285
56525W        W28840  31.114  14.530   3.344
56526W        W28841  13.611   1.270  13.376
56527W        W28842  23.134  43.553  10.337
56528W        W28843  25.272  25.160  13.954
56529W        W28844  29.945  23.810   0.377
56530W        W28845   3.069   3.272   0.424
56531W        W28846  27.507  28.055   4.695
56532W        W28847  12.266  18.057  12.724
56533W        W28848  12.199   4.579   2.813
56534W        W28849  31.188  35.255  11.808
56535W        W28850  15.518  27.678   3.606
56536W        W28851  29.183  42.415   4.326
56537W        W28852  12.763  36.816  12.679
56538W        W28853   7.273  14.737   2.051
56539W        W28854  33.030  34.876   4.451
56540W        W28855  19.557   7.187  14.404
56541W        W28856  21.279  41.899   3.626
56542W        W28857  41.579  38.961   1.704
56543W        W28858  17.145  27.503  14.496
56544W        W28859  23.666  37.595  11.150
56545W        W28860  32.510  26.974  11.063
56546W        W28861  29.743  10.448   2.152
56547W        W28862  10.390  38.570  14.896
56548W        W28863  28.483  44.358  14.819
56549W        W28864  43.617  10.443  13.509
56550W        W28865   3.777  20.286   0.219
56551W        W28866  10.370  31.702  12.623
56552W        W28867  35.936  11.116   4.288
56553W        W28868  13.906  24.497   4.257
56554W        W28869   4.295  33.123  11.950
56555W        W28870  16.463  34.091  11.421
56556W        W28871   0.530  35.666   1.831
56557W        W28872   3.477  33.354  11.404
56558W        W28873   6.814  28.102  10.720
56559W        W28874   8.734  32.380  11.624
56560W        W28875  29.594  15.919  13.514
56561W        W28876  30.235  23.305   1.749
56562W        W28877  28.655  19.735   0.751
56563W        W28878   4.924  23.040  14.578
56564W        W28879  35.606  11.872   4.192
56565W        W28880  39.005  31.081   3.251
56566W        W28881  41.158  41.466   3.362
56567W        W28882   3.186  40.813   0.767
56568W        W28883  40.137  21.138  11.096
56569W        W28884  13.897  39.387  14.292
56570W        W28885  26.528  43.274  12.637
56571W        W28886  34.090  15.423   4.162
56572W        W28887  13.124  41.393  13.062
56573W        W28888  15.131  44.933  10.412
56574W        W28889  34.957  44.653   2.883
56575W        W28890  30.322  44.180  12.861
56576W        W28891  43.886   3.848   2.004
56577W        W28892   9.858  34.037   3.463
56578W        W28893  43.307  28.494   0.330
56579W        W28894  25.107   1.994   0.433
56580W        W28895  16.182  29.593   3.901
56581W        W28896  25.047  19.677  14.253
56582W        W28897  28.541  44.688   4.326
56583W        W28898  41.551  22.285  10.689
56584W        W28899   1.456   1.493  11.179
56585W        W28900  41.299  42.321  11.557
56586W        W28901  18.044  24.800  14.418
56587W        W28902  20.530  13.928  11.077
56588W        W28903  42.512   2.607  11.959
56589W        W28904   1.954  39.967  11.169
56590W        W28905  43.970  44.179  12.547
56591W        W28906  39.002  13.333   2.391
56592W        W28907  34.320  42.014   1.412
56593W        W28908  42.751  28.194  14.868
56594W        W28909  17.036  27.434  13.019
56595W        W28910   7.656   6.891  10.813
56596W        W28911   4.984  26.028  12.799
56597W        W28912  34.045  18.265  10.904
56598W        W28913  21.789  37.177  12.002
56599W        W28914   0.900   6.829   3.129
56600W        W28915  32.808  37.401   2.815
56601W        W28916  34.993  22.028   1.779
56602W        W28917  31.477   5.403   2.773
56603W        W28918  13.112  37.587  12.624
56604W        W28919  44.805  29.735  11.700
56605W        W28920  20.809  37.728  13.875
56606W        W28921  32.469  42.463  11.547
56607W        W28922  22.876  20.201   0.032
56608W        W28923  10.698  10.293   0.747
56609W        W28924  18.973  39.817  14.560
56610W        W28925  15.271  13.089  12.922
56611W        W28926  26.574  42.973  14.932
56612W        W28927  10.751  40.684   3.366
56613W        W28928   7.487  40.791  13.328
56614W        W28929  30.030  42.930   0.362
56615W        W28930   2.989  34.805   2.133
56616W        W28931  20.616  17.534   1.335
56617W        W28932   8.841  13.631  13.568
56618W        W28933   4.786   4.530  10.735
56619W        W28934   0.194  39.123  13.391
56620W        W28935  43.811  28.244   4.241
56621W        W28936  28.392  40.741   0.713
56622W        W28937  22.919   7.939  12.953
56623W        W28938  43.628  22.515  13.755
56624W        W28939  22.344  31.498   3.842
56625W        W28940  38.455  15.422  14.881
56626W        W28941  17.750  11.372  13.164
56627W        W28942  21.649  34.133   1.805
56628W        W28943  27.143  43.888   3.114
56629W        W28944  26.977   2.422  11.576
56630W        W28945   3.684   3.993  13.966
56631W        W28946  33.838  38.827   4.129
56632W        W28947  34.621  42.402  11.122
56633W        W28948  22.146   5.283   1.972
56634W        W28949  13.489   3.936   4.276
56635W        W28950  12.370  18.525  12.540
56636W        W28951  17.252  10.060   2.414
56637W        W28952  36.057  43.890   3.232
56638W        W28953  13.267  20.108   2.391
56639W        W28954  39.909  36.924   0.564
56640W        W28955  37.147  25.745   4.962
56641W        W28956  44.848  37.562   3.686
56642W        W28957  38.976  29.513  11.378
56643W        W28958  36.068  10.899  14.441
56644W        W28959  31.629  42.302  14.825
56645W        W28960   5.229  40.180  11.565
56646W        W28961   2.946  15.201  13.564
56647W        W28962  37.029  11.014   4.555
56648W        W28963   0.367  44.489   4.338
56649W        W28964  11.319  30.441  10.122
56650W        W28965  10.265  30.455   2.757
56651W        W28966   7.779  40.377   0.905
56652W        W28967  36.858  42.557   0.912
56653W        W28968  19.866  32.929   4.561
56654W        W28969   1.075   8.847  14.927
56655W        W28970   4.352  43.834   2.211
56656W        W28971  17.390  28.427  12.199
56657W        W28972  15.667   5.967   2.501
56658W        W28973   5.759  20.098  13.347
56659W        W28974  34.975  31.626   0.378
56660W        W28975  37.838  22.639  13.891
56661W        W28976  35.769  12.317   0.980
56662W        W28977  17.154   8.986   5.295
56663W        W28978  13.124  13.048  12.133
56664W        W28979  27.746   2.807  12.962
56665W        W28980  34.105  24.919   4.231
56666W        W28981  31.089  20.044   1.784
56667W        W28982  37.197  11.994  12.004
56668W        W28983  11.235   2.659   3.100
56669W        W28984  22.452  44.846   2.350
56670W        W28985   2.155  31.123  11.577
56671W        W28986   1.577  30.765   0.968
56672W        W28987   7.245  18.057  14.298
56673W        W28988  42.571  37.667   1.568
56674W        W28989   8.949   0.746   0.880
56675W        W28990  35.628   4.868  11.879
56676W        W28991   7.849   4.222   4.714
56677W        W28992  26.020  21.891  10.847
56678W        W28993   8.381  34.631   4.236
56679W        W28994  34.930  34.901  12.368
56680W        W28995  16.743  19.793   0.034
56681W        W28996  18.164   2.491   1.723
56682W        W28997  37.393  16.419   0.894
56683W        W28998   3.567  26.958   1.775
56684W        W28999  35.213  39.971   0.190
56685W        W29000   2.270  34.362  11.947
56686W        W29001  36.856  10.895   1.888
56687W        W29002  36.392   2.949  14.807
56688W        W29003  42.550  19.262   4.117
56689W        W29004  18.113  20.077  10.392
56690W        W29005  26.812  26.199  14.003
56691W        W29006   5.213  41.427  12.115
56692W        W29007  18.501  15.750  10.928
56693W        W29008  28.078  26.929  11.575
56694W        W29009  33.921  34.057   3.379
56695W        W29010   3.770  43.423  12.419
56696W        W29011  30.287  35.324   0.367
56697W        W29012  42.451   7.400   4.110
56698W        W29013   5.805  19.079   4.492
56699W        W29014   2.783  44.642  13.256
56700W        W29015   2.688  36.435  13.402
56701W        W29016  29.675  37.299   1.490
56702W        W29017  34.623  10.474   0.394
56703W        W29018  15.273  26.264   4.244
56704W        W29019  38.364  27.623  11.712
56705W        W29020  21.047  38.450  11.403
56706W        W29021  11.376   0.842   0.874
56707W        W29022   3.419  16.322  12.000
56708W        W29023  35.053  34.395   3.285
56709W        W29024  21.225  34.674   1.283
56710W        W29025  31.360   6.944   2.960
56711W        W29026  36.885  28.952   0.393
56712W        W29027  22.103  10.060  10.243
56713W        W29028  41.848  14.094  11.964
56714W        W29029  23.509  21.049   0.798
56715W        W29030   7.320  34.483   1.164
56716W        W29031  40.740  12.643   1.325
56717W        W29032  21.114  35.489   2.340
56718W        W29033  32.077  23.041  14.755
56719W        W29034  37.806  34.087   2.769
56720W        W29035  15.770  12.849   2.184
56721W        W29036  16.362  10.092  12.837
56722W        W29037  22.948  20.715  14.948
56723W        W29038  42.867  13.875  11.061
56724W        W29039  13.436  22.703  14.814
56725W        W29040  32.939  36.436   3.822
56726W        W29041   6.744  34.937  12.457
56727W        W29042  41.280  24.688  11.531
56728W        W29043  27.469   5.406   3.318
56729W        W29044  32.906   7.167   1.328
56730W        W29045  23.589   4.966   3.731
56731W        W29046  32.235  10.130   4.745
56732W        W29047  25.530   9.023  14.348
56733W        W29048  36.387  10.941  11.193
56734W        W29049  23.703  26.659  14.353
56735W        W29050  26.500  29.926  12.893
56736W        W29051  15.783   5.628  11.907
56737W        W29052   5.299  14.305  11.197
56738W        W29053  41.257   4.332   0.362
56739W        W29054  21.888  23.610   3.224
56740W        W29055  33.832  33.127  13.455
56741W        W29056  26.114  16.032   1.720
56742W        W29057  37.961   2.799   4.015
56743W        W29058  17.784  32.447   1.579
56744W        W29059  20.745  18.034   0.366
56745W        W29060   2.082  30.614   4.519
56746W        W29061  34.830  39.617   3.688
56747W        W29062  36.631  32.634  13.059
56748W        W29063  28.631   9.240  13.974
56749W        W29064   9.672  37.577  13.091
56750W        W29065  33.578  19.006   1.419
56751W        W29066  39.618  13.052   0.378
56752W        W29067  30.455  38.999  13.321
56753W        W29068  10.910   8.291  14.830
56754W        W29069  10.176  22.502   4.629
56755W        W29070   9.181   0.454  11.829
56756W        W29071  41.234  41.311   1.916
56757W        W29072   1.839  22.083  10.680
56758W        W29073  14.275  21.629  13.942
56759W        W29074  20.249   5.302  12.628
56760W        W29075   3.636  11.546  10.244
56761W        W29076  36.888  20.708   1.210
56762W        W29077   0.905  14.233   4.088
56763W        W29078   9.834   5.194   2.392
56764W        W29079  35.912  27.014  13.758
56765W        W29080   9.825  11.360  10.775
56766W        W29081  30.499  23.680   1.362
56767W        W29082   8.111  28.581   3.192
56768W        W29083  27.676  22.680  12.054
56769W        W29084  16.105  20.301   3.730
56770W        W29085   8.927  28.609  11.492
56771W        W29086  24.404  16.189  11.193
56772W        W29087   9.202   1.266   4.574
56773W        W29088  27.439  10.654   2.700
56774W        W29089   7.163  11.339  12.993
56775W        W29090  43.028   3.459  13.368
56776W        W29091  36.872  29.086  14.891
56777W        W29092  12.106  36.684   3.575
56778W        W29093  30.183  20.573  14.010
56779W        W29094  42.462  34.174   2.458
56780W        W29095  20.236  38.556  13.787
56781W        W29096  18.843  17.247  11.124
56782W        W29097  28.269  39.056  14.320
56783W        W29098  13.356   3.899  13.373
56784W        W29099   7.137   5.920   2.829
56785W        W29100  16.601  40.527   5.512
56786W        W29101  34.953  43.357  11.204
56787W        W29102  36.176  37.449   4.062
56788W        W29103  33.150  28.613  12.929
56789W        W29104  22.020   8.695  14.775
56790W        W29105  20.498   0.833  13.965
56791W        W29106  40.842   7.411  11.141
56792W        W29107   3.107  37.716   1.392
56793W        W29108   7.117  20.597   1.572
56794W        W29109  15.793   9.564  14.266
56795W        W29110  33.654  18.038   2.817
56796W        W29111  24.192  30.597   3.769
56797W        W29112  16.413  13.411   1.790
56798W        W29113   2.903  28.391  11.170
56799W        W29114   0.813  38.967  12.127
56800W        W29115  16.384  29.726  11.464
56801W        W29116  22.111  12.428  14.970
56802W        W29117  34.280   6.474   2.759
56803W        W29118  15.428  13.939  14.893
56804W        W29119   8.057  31.951  10.214
56805W        W29120  31.036  11.336  14.890
56806W        W29121  23.085  13.746   2.134
56807W        W29122  32.442   0.960   2.842
56808W        W29123  41.273  44.790  11.598
56809W        W29124   8.098   6.760   3.708
56810W        W29125  25.165  11.795   0.440
56811W        W29126  27.848  39.360   4.193
56812W        W29127   1.237  32.659  13.989
56813W        W29128  25.656   6.279  14.389
56814W        W29129  26.122  39.324   1.444
56815W        W29130  13.807   1.065  12.817
56816W        W29131  26.502  23.984  12.523
56817W        W29132  31.939   4.492  11.571
56818W        W29133  33.639   9.163   2.230
56819W        W29134   9.231   4.689   3.722
56820W        W29135  13.306  28.965  11.432
56821W        W29136   9.310   6.402   1.329
56822W        W29137  36.947   8.698   4.963
56823W        W29138  20.947   1.523  10.434
56824W        W29139  44.192  34.468  14.842
56825W        W29140  22.446  34.436   0.384
56826W        W29141   8.879  22.576   0.287
56827W        W29142  27.659  37.955  10.425
56828W        W29143  44.744  41.571  11.983
56829W        W29144   0.930  27.661  13.247
56830W        W29145  43.558  10.605  12.541
56831W        W29146   2.832   7.255  12.825
56832W        W29147  17.699  38.453   2.980
56833W        W29148  23.419  15.195  12.586
56834W        W29149  22.690  25.618   3.379
56835W        W29150   6.908  38.833  13.846
56836W        W29151  10.800  32.873   0.406
56837W        W29152  27.064  31.803   5.527
56838W        W29153  20.555  32.937   3.840
56839W        W29154   5.284  25.047   0.056
56840W        W29155  34.997  25.769  13.971
56841W        W29156   8.794  27.454   1.252
56842W        W29157  19.304  16.854   2.683
56843W        W29158  36.109  14.257   4.593
56844W        W29159   1.995   3.513   2.313
56845W        W29160   4.059  26.906  13.179
56846W        W29161   3.861  26.981  11.110
56847W        W29162  10.807   8.321  12.936
56848W        W29163   3.412  15.683   4.214
56849W        W29164  44.176  44.570   1.400
56850W        W29165   0.895   5.568   3.538
56851W        W29166  24.434  31.021   0.338
56852W        W29167   1.892   4.990  14.431
56853W        W29168  29.181  38.597   1.466
56854W        W29169   8.516  35.041   1.949
56855W        W29170  28.926  39.270   2.881
56856W        W29171  19.653  27.521  13.742
56857W        W29172  15.547  11.173   2.744
56858W        W29173  36.659  18.746   1.244
56859W        W29174   9.708  20.541   3.300
56860W        W29175  18.784  32.073  12.045
56861W        W29176   3.292  18.638  14.599
56862W        W29177   5.838   6.421  11.625
56863W        W29178   9.320   0.876   1.945
56864W        W29179   0.604  33.716   1.505
56865W        W29180   4.695  10.482   1.985
56866W        W29181  28.027   6.468  11.491
56867W        W29182  24.968  12.744   2.204
56868W        W29183  24.972  29.915   0.061
56869W        W29184  31.180  23.661   0.725
56870W        W29185  16.593   3.793  11.679
56871W        W29186   7.387  22.101   1.226
56872W        W29187  23.608  14.725  12.396
56873W        W29188  19.774  44.001  14.864
56874W        W29189  44.030   7.604  11.905
56875W        W29190   5.204  29.995  11.103
56876W        W29191  11.591  16.055  12.682
56877W        W29192  35.786  10.226   2.349
56878W        W29193  29.132  26.284  12.480
56879W        W29194  42.055   1.785   0.778
56880W        W29195   9.801  15.544   0.700
56881W        W29196  11.845   1.437   4.079
56882W        W29197  17.631  31.032  11.217
56883W        W29198  13.749  34.622   0.404
56884W        W29199  15.603  36.807   2.265
56885W        W29200  35.100  34.446  11.102
56886W        W29201   9.808  34.427  12.097
56887W        W29202  10.398  39.136   1.446
56888W        W29203  15.763  19.674  11.100
56889W        W29204  25.184  16.555   3.216
56890W        W29205  31.902  29.761  10.722
56891W        W29206   3.195  18.087  10.592
56892W        W29207  12.410  18.824   2.238
56893W        W29208  33.400   1.033   4.279
56894W        W29209   2.494   6.645  13.798
56895W        W29210  41.425  18.024   1.199
56896W        W29211  32.287  42.958  13.618
56897W        W29212  24.848  37.554   2.188
56898W        W29213   9.362  41.231   3.196
56899W        W29214   7.735  42.058   0.574
56900W        W29215  38.058  41.399   4.604
56901W        W29216  39.202  17.631  11.488
56902W        W29217  42.105  17.529   1.485
56903W        W29218   4.002  24.064   0.810
56904W        W29219  10.988  15.783   3.778
56905W        W29220  31.190  21.673  10.927
56906W        W29221  30.068  41.467  10.503
56907W        W29222  32.971   0.854   0.996
56908W        W29223  33.575  43.269   1.832
56909W        W29224  44.902  15.239  12.322
56910W        W29225  41.400  23.448   1.504
56911W        W29226  16.605  32.574  12.179
56912W        W29227  30.621   8.140   0.427
56913W        W29228  15.468  23.784   3.920
56914W        W29229  27.986  43.553  14.861
56915W        W29230  12.947  16.754  13.630
56916W        W29231  22.436  43.960   0.350
56917W        W29232  28.186   7.196  14.428
56918W        W29233  37.820  10.184   4.714
56919W        W29234  29.190  43.964   3.320
56920W        W29235  30.567  37.865   3.809
56921W        W29236  13.240  42.105  14.331
56922W        W29237  32.853  22.015  13.815
56923W        W29238   3.341  34.243   9.797
56924W        W29239  19.684  15.855  13.098
56925W        W29240  38.071  39.585  13.131
56926W        W29241  40.057  10.800  12.896
56927W        W29242   3.407   1.566   1.676
56928W        W29243  42.192   6.661   3.755
56929W        W29244  21.162  27.325  10.233
56930W        W29245  35.416  12.622   0.716
56931W        W29246  40.415   4.191   0.893
56932W        W29247  35.635  12.421  13.815
56933W        W29248   4.292  40.809  11.041
56934W        W29249  22.213  11.076  10.514
56935W        W29250  12.279  44.944  12.936
56936W        W29251   5.712   4.136   2.629
56937W        W29252  12.274   3.445  11.089
56938W        W29253  14.780  34.444   1.960
56939W        W29254  40.273  25.734   4.611
56940W        W29255  42.299  25.106   2.369
56941W        W29256  42.518  26.426  12.716
56942W        W29257  32.877   9.735   3.246
56943W        W29258   1.986  31.037   4.211
56944W        W29259  13.346  29.432   0.814
56945W        W29260   1.541  13.519  13.560
56946W        W29261   6.881  37.268   4.438
56947W        W29262  34.327   4.663   1.778
56948W        W29263  15.519  35.694  13.356
56949W        W29264   5.451  27.536   3.270
56950W        W29265  35.108  42.749  12.962
56951W        W29266  43.813  23.785   4.554
56952W        W29267  42.242   5.402   4.281
56953W        W29268  20.756  23.959   0.207
56954W        W29269  14.442  36.551   2.760
56955W        W29270  32.614  30.553   3.157
56956W        W29271  43.391  40.427  14.901
56957W        W29272  41.094  34.485   1.404
56958W        W29273  11.907  42.356  14.292
56959W        W29274  16.022  31.288   1.271
56960W        W29275   0.515  31.108  13.850
56961W        W29276   8.727  25.602   1.780
56962W        W29277  16.846  40.136   3.894
56963W        W29278   8.853  23.248  10.721
56964W        W29279  21.715  14.321   4.189
56965W        W29280  37.640   1.369   3.367
56966W        W29281  28.921  10.496  10.634
56967W        W29282  31.828  10.586   1.598
56968W        W29283  11.782  32.161   4.519
56969W        W29284  39.478   5.380  12.520
56970W        W29285  38.129  15.596   1.479
56971W        W29286  11.737   5.398  13.035
56972W        W29287  39.640  22.932   3.603
56973W        W29288  40.294  31.544   1.859
56974W        W29289  32.464  28.963   1.933
56975W        W29290  13.902  27.101   4.629
56976W        W29291  40.774  23.456  12.498
56977W        W29292  23.792   6.332   4.542
56978W        W29293  31.162  17.677   2.861
56979W        W29294  18.375  43.700  11.591
56980W        W29295  15.655   9.071  13.381
56981W        W29296  43.900  25.191  10.721
56982W        W29297   7.346  39.349   0.214
56983W        W29298   1.695  33.304   5.492
56984W        W29299  20.236  40.071  12.939
56985W        W29300  26.678   4.136  14.131
56986W        W29301   9.906  17.605   0.975
56987W        W29302  38.609  42.801  11.455
56988W        W29303  13.233  16.574   4.680
56989W        W29304  30.371  34.713   3.498
56990W        W29305  40.982  13.902  11.235
56991W        W29306   0.349  38.748   1.346
56992W        W29307  40.422   4.221  14.383
56993W        W29308  40.420  13.789   3.639
56994W        W29309  31.804   0.950  14.280
56995W        W29310   4.232  34.674   1.421
56996W        W29311  30.075  34.604  13.615
56997W        W29312  17.272  24.807   0.764
56998W        W29313  28.068  12.163   1.478
56999W        W29314  35.532  26.724   4.621
57000W        W29315  35.045  40.397   4.565
57001W        W29316  18.138  15.529  10.176
57002W        W29317  38.014  13.227   4.631
57003W        W29318  35.946  24.126   3.661
57004W        W29319  39.495  19.268   2.276
57005W        W29320  35.921  39.717  11.186
57006W        W29321   3.968  21.259  14.013
57007W        W29322  13.210  38.292   4.470
57008W        W29323  19.680  27.946  12.017
57009W        W29324  14.364  18.832  11.610
57010W        W29325  10.105   6.427  14.942
57011W        W29326   7.908  30.020   4.110
57012W        W29327  43.586   3.721   0.427
57013W        W29328  28.756  11.365  13.277
57014W        W29329  39.141   7.210   4.195
57015W        W29330  36.591   3.822  11.919
57016W        W29331  41.827  30.043  13.787
57017W        W29332   2.371  37.604  11.089
57018W        W29333   1.273   6.831  12.441
57019W        W29334  11.891  36.242  13.455
57020W        W29335  24.491  44.522   2.448
57021W        W29336  36.897  36.778  14.201
57022W        W29337  29.953  17.679   2.574
57023W        W29338  33.479   9.158   5.046
57024W        W29339  20.903  42.738   0.411
57025W        W29340  44.297  37.768   0.363
57026W        W29341  38.027   7.415  13.902
57027W        W29342  12.069  27.142  13.062
57028W        W29343  43.486  37.704  14.986
57029W        W29344   2.358   1.980  11.987
57030W        W29345  36.717  22.128  14.348
57031W        W29346   2.383  38.943  14.323
57032W        W29347  19.146  41.106   5.046
57033W        W29348  30.927   6.744  11.474
57034W        W29349  31.619   2.045  12.822
57035W        W29350  40.094   0.987  12.667
57036W        W29351  42.212  19.685  11.449
57037W        W29352  21.729   4.294  13.853
57038W        W29353  43.458   2.733  13.852
57039W        W29354  30.514   4.693   3.224
57040W        W29355  32.135  36.959  14.168
57041W        W29356   4.961  13.391  14.362
57042W        W29357  13.625  14.182   3.153
57043W        W29358  24.921  34.362  13.738
57044W        W29359   5.596   1.276  12.862
57045W        W29360  20.327  44.618   1.701
57046W        W29361  24.177  23.467  13.254
57047W        W29362  41.001  24.564  12.417
57048W        W29363  27.034  41.201   0.951
57049W        W29364  26.010  15.171   1.897
57050W        W29365  28.679  15.640  12.019
57051W        W29366  41.915   3.030  14.837
57052W        W29367  36.155   4.797  13.825
57053W        W29368   4.677  37.832   3.652
57054W        W29369   6.046  36.898   4.352
57055W        W29370   6.771  36.796  13.883
57056W        W29371  23.153  16.603  12.108
57057W        W29372  12.955   6.566  11.496
57058W        W29373  10.611  41.415  14.775
57059W        W29374  41.888  12.953  13.583
57060W        W29375  16.200   6.692   0.406
57061W        W29376   9.648  33.079  13.320
57062W        W29377  42.667   2.045   2.053
57063W        W29378  12.507  19.350  13.463
57064W        W29379  25.211  42.085   1.773
57065W        W29380   1.727  43.933  14.368
57066W        W29381  18.367  27.044  13.459
57067W        W29382   9.826  42.324  12.316
57068W        W29383  40.276   5.298   3.761
57069W        W29384  39.325  18.826  13.991
57070W        W29385  28.138  26.459   1.883
57071W        W29386  44.423  19.531   0.559
57072W        W29387  18.534  24.053  13.008
57073W        W29388  29.783  24.508  12.439
57074W        W29389  22.254  40.235  12.472
57075W        W29390   5.468  30.075  13.874
57076W        W29391  24.950  32.535   4.644
57077W        W29392  19.095  24.153   1.028
57078W        W29393  17.005   2.774   1.139
57079W        W29394  28.656  21.416  10.918
57080W        W29395  43.768  12.477  10.682
57081W        W29396  31.719  41.403  14.739
57082W        W29397  15.970   6.625   4.612
57083W        W29398  34.172  28.558   1.476
57084W        W29399  19.384  23.952   4.745
57085W        W29400   5.499  13.525  12.013
57086W        W29401  36.067  42.940   4.259
57087W        W29402  34.235   3.205   0.509
57088W        W29403  15.891  25.052  10.644
57089W        W29404   7.616  18.763  13.977
57090W        W29405  22.425  18.290   2.024
57091W        W29406  28.871  28.224  14.572
57092W        W29407  28.246  18.486  12.290
57093W        W29408  35.434  38.438   1.402
57094W        W29409  40.843  12.055   0.330
57095W        W29410  27.149  27.721  12.422
57096W        W29411  11.979  36.498   4.315
57097W        W29412  27.325  13.293  14.439
57098W        W29413   4.283   6.181  13.731
57099W        W29414  17.971  32.856  14.236
57100W        W29415   2.394  32.865  13.596
57101W        W29416  17.057  14.143   1.862
57102W        W29417  41.836   5.818  14.166
57103W        W29418  17.331  44.021   0.491
57104W        W29419  41.267  19.539  12.045
57105W        W29420  29.904   9.685  11.056
57106W        W29421  27.645  15.680  13.995
57107W        W29422  19.445  35.626  14.433
57108W        W29423  29.113   8.595   0.779
57109W        W29424  30.056  32.499   4.930
57110W        W29425  22.124  10.357  11.214
57111W        W29426   1.169  28.082   4.239
57112W        W29427   9.174  20.590  11.968
57113W        W29428  18.598   3.063  10.107
57114W        W29429  25.518  22.222  13.970
57115W        W29430   5.313  30.512   1.954
57116W        W29431  21.011   8.553  10.201
57117W        W29432   8.247   3.073   4.675
57118W        W29433  29.866   9.452   1.260
57119W        W29434   8.330   6.159  14.804
57120W        W29435  22.712  17.764  12.423
57121W        W29436   2.476   7.698   4.508
57122W        W29437   3.762   0.849  12.611
57123W        W29438  11.196  19.800   3.169
57124W        W29439  26.933  27.388   2.806
57125W        W29440   8.260  12.007  13.895
57126W        W29441   5.740  29.188  14.328
57127W        W29442   1.948  17.140  13.043
57128W        W29443  17.146  26.606  14.472
57129W        W29444  26.161  42.418   4.482
57130W        W29445  35.971  17.600  13.877
57131W        W29446   3.773  30.484  13.401
57132W        W29447   0.376  22.993  11.038
57133W        W29448  37.694  33.865  13.518
57134W        W29449  20.579  37.869  14.330
57135W        W29450  20.782  28.746   4.144
57136W        W29451  31.701  17.721  11.846
57137W        W29452   1.878   9.454  13.950
57138W        W29453  33.697  43.902  12.973
57139W        W29454  32.503  39.606  12.022
57140W        W29455  19.111   9.776   1.400
57141W        W29456  21.162  12.182   1.876
57142W        W29457   8.415   0.800  12.696
57143W        W29458   1.967   8.031  11.068
57144W        W29459  12.901  42.295   2.288
57145W        W29460  39.707   3.215  11.188
57146W        W29461  29.876  37.855   2.078
57147W        W29462  15.588  21.945  14.857
57148W        W29463  25.937  14.671  10.683
57149W        W29464   2.457  20.800  10.811
57150W        W29465  44.999  12.877   3.327
57151W        W29466  33.131  41.713   2.315
57152W        W29467  40.815  44.955  12.460
57153W        W29468  28.853   9.958   1.721
57154W        W29469  17.402  13.083  12.389
57155W        W29470  26.049  39.435  14.763
57156W        W29471  42.193  32.058  11.950
57157W        W29472   5.857  22.421   4.053
57158W        W29473  29.972   9.140  13.543
57159W        W29474  39.951  27.110   3.225
57160W        W29475  20.958   1.506   3.770
57161W        W29476  34.353  21.224  13.450
57162W        W29477  41.337  29.235   4.064
57163W        W29478  21.647  16.563  14.533
57164W        W29479  29.538   8.668   1.975
57165W        W29480   1.884  20.078   2.263
57166W        W29481  21.299   4.301  14.823
57167W        W29482  29.150   9.182   0.786
57168W        W29483  41.239  15.013  14.494
57169W        W29484  23.518  42.956  10.615
57170W        W29485  18.793  33.875   1.703
57171W        W29486  35.163  41.763   0.754
57172W        W29487  28.361  26.072   2.795
57173W        W29488  35.799  39.468  10.720
57174W        W29489  37.516  12.641  11.977
57175W        W29490  17.871  35.965  14.380
57176W        W29491  39.227   6.240  10.707
57177W        W29492  32.061  41.431   0.716
57178W        W29493  25.660  42.867   1.691
57179W        W29494   9.852  34.558   4.287
57180W        W29495  25.662  15.662   3.988
57181W        W29496   9.852   1.910   1.763
57182W        W29497  32.174  27.572   2.177
57183W        W29498  21.522   5.375   0.858
57184W        W29499  41.916  30.376   2.779
57185W        W29500  29.086  33.934  11.451
57186W        W29501  10.222  12.314   1.246
57187W        W29502  28.027   8.237   3.314
57188W        W29503  23.278  21.314   0.373
57189W        W29504  18.001   8.193   0.015
57190W        W29505  40.162  42.726  14.475
57191W        W29506  11.348  17.074  12.944
57192W        W29507  11.933  20.524  14.877
57193W        W29508  25.004  25.199  13.468
57194W        W29509  28.060  17.802   0.563
57195W        W29510  10.647  21.038  14.242
57196W        W29511  40.066  42.167  11.163
57197W        W29512  12.386   6.293   0.473
57198W        W29513  15.348  28.637  11.491
57199W        W29514  30.955   2.914   4.566
57200W        W29515  27.453  32.926   3.359
57201W        W29516  32.537  38.508   1.871
57202W        W29517  24.169   9.448   0.324
57203W        W29518  12.583   3.949  14.894
57204W        W29519  17.796   0.192   3.711
57205W        W29520  25.181  10.659  10.339
57206W        W29521  10.671  39.959   2.383
57207W        W29522   7.810  14.206   1.532
57208W        W29523  44.870  35.141   4.214
57209W        W29524  34.596  23.812  13.489
57210W        W29525  33.588   1.859  12.981
57211W        W29526  35.308  22.756  12.881
57212W        W29527   5.465  16.654   2.854
57213W        W29528  41.538  20.078   4.293
57214W        W29529  33.662  31.431   0.724
57215W        W29530  31.094  21.792   4.095
57216W        W29531  26.465   6.440  11.468
57217W        W29532  28.002  29.008   3.754
57218W        W29533  26.131  22.044   4.574
57219W        W29534   2.172   7.821   2.197
57220W        W29535  33.409  27.246   3.130
57221W        W29536  21.138  23.743  13.893
57222W        W29537  23.239  22.798   4.218
57223W        W29538   0.646  29.134   1.035
57224W        W29539  36.692   8.377  12.978
57225W        W29540   8.777  24.526  12.539
57226W        W29541  15.785  16.072  10.653
57227W        W29542   8.149  23.716   2.605
57228W        W29543  19.671  16.014   4.096
57229W        W29544   4.865  20.907   1.748
57230W        W29545  24.599  36.377  12.135
57231W        W29546   3.087  41.924   0.665
57232W        W29547   5.601  43.606   3.779
57233W        W29548  33.369  35.170   4.203
57234W        W29549  32.061  20.486   2.285
57235W        W29550  32.703  25.113   3.987
57236W        W29551   3.144  27.062   3.708
57237W        W29552  30.681   3.832   4.789
57238W        W29553  38.006   2.967  12.619
57239W        W29554  33.985  13.359   2.176
57240W        W29555   3.758  19.156   3.216
57241W        W29556  35.148   6.942   3.551
57242W        W29557  32.200   4.186   2.909
57243W        W29558  13.244  25.240  13.490
57244W        W29559  23.007   3.499  14.976
57245W        W29560  15.102  26.891   2.881
57246W        W29561  24.991  21.700  14.457
57247W        W29562  16.231   0.694   2.189
57248W        W29563  15.172  31.959   0.745
57249W        W29564  30.480  28.978  13.441
57250W        W29565  40.364  17.612   0.365
57251W        W29566  12.585  44.718   0.423
57252W        W29567  32.118  36.569  12.547
57253W        W29568   7.583  37.365  13.058
57254W        W29569   0.212  31.942  10.933
57255W        W29570  18.692  23.541  13.112
57256W        W29571   5.127  15.369   3.362
57257W        W29572  39.968  35.633   0.442
57258W        W29573  24.063  41.801  11.620
57259W        W29574  22.747  34.987  11.602
57260W        W29575  42.790   9.659   1.427
57261W        W29576  26.570  40.287   2.182
57262W        W29577  24.233  42.749  13.930
57263W        W29578  35.587  33.147  12.800
57264W        W29579  32.165  42.322  14.826
57265W        W29580  43.079  29.894   2.660
57266W        W29581  39.094  11.802   0.264
57267W        W29582  10.695  29.529   1.264
57268W        W29583   2.407  18.136  14.493
57269W        W29584  30.130  30.469   3.569
57270W        W29585   9.890  13.131  12.145
57271W        W29586  10.584  14.199   0.817
57272W        W29587  14.691  39.643   4.382
57273W        W29588  42.041  38.394  12.284
57274W        W29589  21.575  17.605  11.146
57275W        W29590  42.640  32.193   4.812
57276W        W29591  14.735  14.279  12.476
57277W        W29592   4.506  23.176   0.806
57278W        W29593  39.384  18.163  14.292
57279W        W29594  25.386  29.374  12.106
57280W        W29595   8.396  20.062   4.716
57281W        W29596  19.608  33.257  12.512
57282W        W29597  39.445  39.245   0.052
57283W        W29598  13.862   1.813  12.624
57284W        W29599  13.626  22.033  13.848
57285W        W29600  20.317   7.995  10.670
57286W        W29601  30.605  14.766   3.277
57287W        W29602  28.371  13.060  12.225
57288W        W29603  37.322  41.302   3.138
57289W        W29604   2.412   8.147   3.614
57290W        W29605  21.778   7.150   0.414
57291W        W29606   3.975  31.490  11.624
57292W        W29607  43.073   9.716  11.534
57293W        W29608  43.182  25.878  12.120
57294W        W29609   7.911   6.178   1.992
57295W        W29610  16.715  28.412   5.035
57296W        W29611  25.611  14.842  13.125
57297W        W29612   9.614  44.322  11.181
57298W        W29613   9.802  26.470  14.924
57299W        W29614  26.076  16.082  10.846
57300W        W29615  23.509  18.869   2.112
57301W        W29616  16.158  11.580   4.674
57302W        W29617  35.555  20.722  11.850
57303W        W29618  16.018  18.640   1.433
57304W        W29619  26.508  41.390  13.986
57305W        W29620   7.667  34.076   2.866
57306W        W29621  36.395   0.738   2.129
57307W        W29622   3.420  31.684   4.356
57308W        W29623   5.711  25.035  10.447
57309W        W29624  20.927  24.294  11.123
57310W        W29625  34.668  18.693   1.425
57311W        W29626  30.744   1.074  10.369
57312W        W29627  40.734  24.278   4.525
57313W        W29628  41.100   8.469   2.308
57314W        W29629  10.862   4.843  10.723
57315W        W29630   6.710  11.100  13.669
57316W        W29631  21.029   3.409  11.165
57317W        W29632   9.285  22.319   3.812
57318W        W29633  41.023  26.132   3.744
57319W        W29634  13.098  14.059  11.216
57320W        W29635   8.460   8.209  12.165
57321W        W29636   9.330  31.629  11.569
57322W        W29637   4.898   6.964   0.381
57323W        W29638   6.946  37.536  13.331
57324W        W29639  25.275  31.128  14.334
57325W        W29640   9.926  30.000  14.868
57326W        W29641  23.932  13.300   3.647
57327W        W29642  25.036  43.868  13.044
57328W        W29643  24.777  34.934  13.785
57329W        W29644  41.369  42.943   0.349
57330W        W29645  36.588  42.525  14.218
57331W        W29646   7.314  23.174   0.289
57332W        W29647  16.875   2.524   4.165
57333W        W29648  28.202  36.040   4.700
57334W        W29649  39.250  34.633   1.804
57335W        W29650  17.946  30.103  13.399
57336W        W29651  20.689  35.665  13.875
57337W        W29652  22.095  37.277  10.184
57338W        W29653  42.819  29.220   3.279
57339W        W29654   9.716  37.145   3.146
57340W        W29655  21.577  21.449   0.228
57341W        W29656  38.603  44.552  11.053
57342W        W29657  41.835   6.404  10.899
57343W        W29658  22.105  15.429  12.383
57344W        W29659  37.403   4.252   3.111
57345W        W29660  10.789  15.383   2.469
57346W        W29661  44.869   1.150   4.771
57347W        W29662   1.814  16.113   1.371
57348W        W29663  21.558  33.709   2.295
57349W        W29664  37.584  28.185   0.225
57350W        W29665  44.850  17.408  10.182
57351W        W29666  31.755  43.753  14.887
57352W        W29667  16.073  15.477   3.721
57353W        W29668   4.687  17.883   1.748
57354W        W29669   4.444   4.650  11.147
57355W        W29670  24.094  34.910  11.073
57356W        W29671  25.570  15.184   4.838
57357W        W29672  20.650  22.667  11.168
57358W        W29673  16.634  26.105   1.421
57359W        W29674  38.136  23.235   3.653
57360W        W29675  31.076  29.324   3.900
57361W        W29676   3.208  41.550  10.708
57362W        W29677  29.418  27.196  14.552
57363W        W29678  23.507  41.743   2.259
57364W        W29679  32.903  39.227  13.992
57365W        W29680  22.064  24.464   4.745
57366W        W29681   8.535  17.137  10.840
57367W        W29682  39.996  33.887   3.688
57368W        W29683  24.493  37.488   2.579
57369W        W29684  25.751   0.772   4.800
57370W        W29685  19.064  12.766  11.910
57371W        W29686  12.783  41.695  11.926
57372W        W29687   8.713   8.722   1.371
57373W        W29688  17.815  18.148  11.600
57374W        W29689  44.516   8.405   2.274
57375W        W29690  19.177   5.314   2.723
57376W        W29691  42.775   3.349  12.432
57377W        W29692  25.173  25.623  13.729
57378W        W29693  33.083  25.427   0.517
57379W        W29694  11.865  10.683  12.409
57380W        W29695  21.942  38.741   0.739
57381W        W29696  15.926  27.142  13.379
57382W        W29697  31.686  20.797  11.688
57383W        W29698  41.150  36.881   0.945
57384W        W29699   2.165  24.490   3.407
57385W        W29700  38.289  13.276  14.941
57386W        W29701  38.955  38.285   4.135
57387W        W29702   5.650   0.912  12.485
57388W        W29703  20.284   4.154   2.622
57389W        W29704  34.592  18.268   2.288
57390W        W29705  41.030   2.802   2.263
57391W        W29706   1.862  23.665   0.275
57392W        W29707  22.616  22.034   5.431
57393W        W29708   4.982   4.292   2.178
57394W        W29709  33.621  16.502   4.599
57395W        W29710  14.445  38.850  12.460
57396W        W29711   0.338  29.856   3.091
57397W        W29712   5.426  18.824  13.309
57398W        W29713  11.407   2.771  11.995
57399W        W29714  25.922  27.956  10.725
57400W        W29715  40.758  19.342   1.318
57401W        W29716   9.655  36.656  13.491
57402W        W29717   7.721  40.235  12.813
57403W        W29718  11.635  35.234  14.947
57404W        W29719  43.005   8.339  12.598
57405W        W29720  32.442   8.503  11.128
57406W        W29721  20.563  28.947  10.496
57407W        W29722  26.802  31.675  10.184
57408W        W29723  38.277  32.377  10.607
57409W        W29724   2.833  43.724   0.696
57410W        W29725   0.394  30.140  10.899
57411W        W29726   5.150  10.902  11.632
57412W        W29727   8.653  22.679   4.173
57413W        W29728  23.493  13.634   3.646
57414W        W29729  37.003  17.791  13.841
57415W        W29730  23.261  31.581  10.979
57416W        W29731   6.285   7.118  11.061
57417W        W29732   3.970  12.791   3.949
57418W        W29733  19.132  13.236  11.658
57419W        W29734   8.151  22.810  13.495
57420W        W29735   1.354   7.315  11.427
57421W        W29736  23.576  11.624  13.927
57422W        W29737   7.400   1.176  13.959
57423W        W29738  38.070  24.993  13.500
57424W        W29739  10.903  16.335  14.386
57425W        W29740  22.319  14.102   3.376
57426W        W29741  17.191   9.427   4.974
57427W        W29742   6.659  25.148  10.552
57428W        W29743  18.094  25.297   1.798
57429W        W29744  25.536  10.146   2.211
57430W        W29745  39.112  21.294   4.196
57431W        W29746  10.861  26.258  14.430
57432W        W29747  28.071   8.823  12.223
57433W        W29748   4.776  26.488   4.179
57434W        W29749  20.309   6.994   5.047
57435W        W29750   3.727  19.610  10.171
57436W        W29751  24.207   0.770  13.514
57437W        W29752  16.679   2.078   2.273
57438W        W29753  34.897  32.151   4.127
57439W        W29754   6.158   5.429   2.721
57440W        W29755  24.660  34.951  12.893
57441W        W29756  23.790  17.796   4.179
57442W        W29757  34.597  29.974  14.002
57443W        W29758  38.832  37.982   0.425
57444W        W29759  10.772   3.345   0.218
57445W        W29760   9.716  43.379  11.172
57446W        W29761   1.520  42.181   3.201
57447W        W29762  34.427  44.037   4.648
57448W        W29763  21.868  42.485  13.799
57449W        W29764  15.717  43.277  14.357
57450W        W29765  43.743   6.461   0.561
57451W        W29766  19.843  12.715   3.934
57452W        W29767  34.308  27.561   1.333
57453W        W29768  34.119   0.794   2.372
57454W        W29769  12.229  21.410   1.908
57455W        W29770  12.918  25.135   0.511
57456W        W29771  11.764  30.696  10.161
57457W        W29772  20.988  37.950  14.617
57458W        W29773   5.798  15.798   0.384
57459W        W29774  35.973  20.916   2.319
57460W        W29775  35.739  18.738  10.740
57461W        W29776  33.753  23.526  13.114
57462W        W29777  18.377   5.020   3.159
57463W        W29778  28.005  32.164  12.413
57464W        W29779  16.085  35.918  13.826
57465W        W29780   1.311   0.720   2.338
57466W        W29781  23.567  42.441   1.079
57467W        W29782  12.650  38.620   4.688
57468W        W29783  40.943  19.773   0.388
57469W        W29784  18.183   9.404  12.201
57470W        W29785  40.432  14.848  12.727
57471W        W29786  12.585  18.495   0.731
57472W        W29787   0.222  32.595   4.194
57473W        W29788   0.765  32.729  10.588
57474W        W29789  36.573  23.938   3.444
57475W        W29790   4.816  14.738   0.720
57476W        W29791  21.558  25.706  11.517
57477W        W29792  26.382  20.835  13.190
57478W        W29793  33.154  42.397   3.385
57479W        W29794  32.440  28.661   2.349
57480W        W29795   0.815  13.224   3.804
57481W        W29796  29.737  44.883  10.889
57482W        W29797  27.009  19.771   0.775
57483W        W29798  10.699  11.055   1.259
57484W        W29799  32.107   8.230  10.824
57485W        W29800   8.670   5.081  11.187
57486W        W29801  43.024  26.175  12.524
57487W        W29802  33.542  10.216  13.078
57488W        W29803  13.389  40.018   3.280
57489W        W29804   6.323  29.913  10.707
57490W        W29805   8.169   5.337  14.356
57491W        W29806  11.838  33.846  14.502
57492W        W29807   2.543  12.954   4.111
57493W        W29808  10.364  22.757   0.335
57494W        W29809  29.149  39.570   1.921
57495W        W29810  32.134  33.499  11.395
57496W        W29811  41.346  37.700  14.965
57497W        W29812  39.866  42.983   3.691
57498W        W29813  39.492   5.198  10.595
57499W        W29814  34.409  20.249   0.457
57500W        W29815  20.597   0.773  11.541
57501W        W29816   5.403   1.396   0.679
57502W        W29817  14.877   4.914   3.625
57503W        W29818  40.147   2.857   1.208
57504W        W29819  37.526  31.500  13.423
57505W        W29820   0.386  15.408   4.281
57506W        W29821  14.506  15.095   4.685
57507W        W29822  10.083  25.997   0.225
57508W        W29823  31.501  20.114   2.854
57509W        W29824  15.257   8.054   2.124
57510W        W29825  28.624  33.919   3.110
57511W        W29826   3.373  21.214   1.265
57512W        W29827  21.577  15.237   4.353
57513W        W29828  18.202  41.891   4.218
57514W        W29829  17.936  34.836  13.823
57515W        W29830   2.519   1.362  13.096
57516W        W29831  14.870   1.279   3.350
57517W        W29832  11.335  37.807  11.271
57518W        W29833  36.047  44.858   2.670
57519W        W29834  13.809  31.072   1.382
57520W        W29835  20.548  14.473   1.687
57521W        W29836  21.077  20.067  14.684
57522W        W29837  21.829  44.366   1.889
57523W        W29838  40.509  16.756  12.080
57524W        W29839  42.337  37.236   1.679
57525W        W29840  44.954  23.549   1.271
57526W        W29841   7.299   2.324   1.131
57527W        W29842  31.414  27.999  13.106
57528W        W29843  10.410  26.985   1.170
57529W        W29844  21.365  40.019   1.932
57530W        W29845  15.385  12.247  14.860
57531W        W29846   6.285   2.614   2.382
57532W        W29847   0.805  19.018   2.417
57533W        W29848   8.920  29.992  11.137
57534W        W29849  12.552  10.977   3.706
57535W        W29850  12.802  32.478   0.940
57536W        W29851   4.636  24.929  11.049
57537W        W29852   1.222  23.227   3.580
57538W        W29853  33.894  20.155   2.112
57539W        W29854   3.428  19.533  12.930
57540W        W29855   8.133  12.264  12.887
57541W        W29856  41.333  27.581  10.777
57542W        W29857   7.355   5.109   1.352
57543W        W29858  22.263   5.773   0.002
57544W        W29859  33.447  16.553   1.385
57545W        W29860   0.672  31.195   4.577
57546W        W29861  20.596  17.303   3.162
57547W        W29862   2.481  11.139   3.055
57548W        W29863  25.752  31.734  13.570
57549W        W29864   3.859  23.555   4.627
57550W        W29865  17.653   4.934   3.773
57551W        W29866  15.869   6.739  11.363
57552W        W29867  31.849  39.045   4.138
57553W        W29868  10.683   6.471   2.393
57554W        W29869   6.995  31.363  11.644
57555W        W29870   0.782  28.028  14.760
57556W        W29871  22.760   6.405   3.519
57557W        W29872  33.673  26.381  13.384
57558W        W29873  37.563   1.765   1.576
57559W        W29874  16.100  38.023  13.785
57560W        W29875  34.119  23.748  10.909
57561W        W29876  25.504   0.806   3.795
57562W        W29877   8.443  42.493  10.775
57563W        W29878  41.513  14.726   3.292
57564W        W29879  20.098  31.083  12.754
57565W        W29880  22.560   1.696  14.862
57566W        W29881  25.976   2.964   1.312
57567W        W29882  27.594  36.976   0.723
57568W        W29883   6.453  25.974  12.431
57569W        W29884   0.530  34.179   0.668
57570W        W29885   6.524   2.168  12.442
57571W        W29886   9.895  14.592  12.463
57572W        W29887  17.669  19.599   0.413
57573W        W29888  36.303   0.243   4.233
57574W        W29889  36.180  11.704  10.769
57575W        W29890  32.410  23.000  12.053
57576W        W29891   3.516  32.079  11.438
57577W        W29892  18.903   4.505  10.363
57578W        W29893  42.558  34.858   1.688
57579W        W29894   4.756  31.334   3.637
57580W        W29895  32.469   5.091  12.075
57581W        W29896  15.206  24.743  13.895
57582W        W29897  25.074  43.774   4.713
57583W        W29898  39.059  11.505   0.708
57584W        W29899  22.955  41.960  13.358
57585W        W29900  13.734  23.496   0.754
57586W        W29901  28.920  36.498  14.240
57587W        W29902  38.890  17.922   3.365
57588W        W29903  13.005   6.193   2.829
57589W        W29904  30.193  13.206   0.194
57590W        W29905  27.448  11.682  11.000
57591W        W29906  37.455  42.080  14.982
57592W        W29907  15.374  12.567  13.011
57593W        W29908  33.648  25.003   1.305
57594W        W29909  27.728  43.966   4.311
57595W        W29910   2.763  41.532  10.990
57596W        W29911  15.491  39.411  10.127
57597W        W29912  34.482   5.357   3.254
57598W        W29913   9.427  21.336   1.846
57599W        W29914  23.031  16.764  11.572
57600W        W29915  28.380  23.710  14.945
57601W        W29916  21.674  36.957  10.631
57602W        W29917   5.889   2.804  12.116
57603W        W29918   5.486  26.068   3.585
57604W        W29919  14.416  23.577   2.872
57605W        W29920  37.994  34.359  11.853
57606W        W29921  19.756  15.606   5.051
57607W        W29922  31.554  34.863  14.829
57608W        W29923   5.983  43.064  13.023
57609W        W29924  20.483  28.512  11.884
57610W        W29925  39.053  32.012  10.719
57611W        W29926  17.683  33.598   4.880
57612W        W29927   5.150  33.424   2.812
57613W        W29928  39.399  28.398   0.867
57614W        W29929  17.298  22.005  11.944
57615W        W29930  14.813  37.076  14.341
57616W        W29931  37.346  36.394   0.922
57617W        W29932  26.121  41.496   3.381
57618W        W29933  44.337  15.209   2.183
57619W        W29934  31.045  22.199  13.619
57620W        W29935   8.158  11.717  10.848
57621W        W29936  24.713  44.228  11.735
57622W        W29937   2.348  29.923  14.833
57623W        W29938  10.826   3.694  14.162
57624W        W29939  26.528   2.881   4.402
57625W        W29940  32.385  39.164   0.887
57626W        W29941  21.573  42.129  14.019
57627W        W29942   9.843  11.814   1.838
57628W        W29943  37.084  28.107   4.608
57629W        W29944  28.192  29.472   2.359
57630W        W29945  38.826  17.605  14.402
57631W        W29946  15.588  34.076  13.987
57632W        W29947  21.142  35.629   1.453
57633W        W29948  22.498  26.821  14.580
57634W        W29949  36.820  34.158   0.170
57635W        W29950  30.739  42.509   2.447
57636W        W29951  40.184  39.882   1.393
57637W        W29952   1.947  17.853   4.611
57638W        W29953  21.707   1.710  13.565
57639W        W29954  24.325  36.141  11.629
57640W        W29955  13.410  35.658   0.437
57641W        W29956  40.652   1.388   1.328
57642W        W29957   4.854  24.772  11.514
57643W        W29958  23.271  42.817  11.863
57644W        W29959  30.944  10.409  11.936
57645W        W29960  27.898  16.157  14.040
57646W        W29961  21.190   2.088  12.080
57647W        W29962  38.557  32.959   0.738
57648W        W29963  42.311  44.551   3.242
57649W        W29964  35.089  33.559  11.168
57650W        W29965  43.076  16.998   2.299
57651W        W29966  17.558  30.660   0.757
57652W        W29967   7.723  24.441   0.756
57653W        W29968  31.678   9.729  13.408
57654W        W29969  29.664  40.550  11.182
57655W        W29970  16.790   3.181  14.056
57656W        W29971  11.710  34.182   0.830
57657W        W29972  26.604  31.592   5.326
57658W        W29973  20.629  43.260  12.461
57659W        W29974  29.547  37.952  12.354
57660W        W29975  26.493  36.379  11.774
57661W        W29976  15.284  27.713   3.121
57662W        W29977   2.855  41.859  14.189
57663W        W29978   2.437  31.969  13.043
57664W        W29979  15.715   5.121  11.921
57665W        W29980  37.376  23.035  14.576
57666W        W29981  12.718  13.301   3.779
57667W        W29982  31.669  19.510   2.251
57668W        W29983  20.549  10.239   3.870
57669W        W29984  37.948  22.090  10.718
57670W        W29985  40.036  27.607   4.731
57671W        W29986  29.434   5.648  11.481
57672W        W29987   9.821  35.222  10.941
57673W        W29988  16.790  40.891   5.191
57674W        W29989  28.964   3.757   1.872
57675W        W29990  10.368   5.740  10.800
57676W        W29991  33.923  11.034  13.084
57677W        W29992  43.524  40.766   0.888
57678W        W29993  14.526  24.045   4.524
57679W        W29994  37.417   4.262  14.228
57680W        W29995  18.816  32.963  11.987
57681W        W29996  26.763  25.978   3.857
57682W        W29997  15.344   3.741  10.605
57683W        W29998  31.116  44.537  14.273
57684W        W29999  41.396  32.617   3.620
57685W        W30000  13.526  11.894   4.163
57686W        W30001  27.391  26.335  12.940
57687W        W30002  15.073  37.338   1.934
57688W        W30003   4.505  34.706   3.013
57689W        W30004  32.690  17.681   4.735
57690W        W30005  43.747  15.124  11.394
57691W        W30006  19.102  22.005   0.922
57692W        W30007   4.305  13.242  11.600
57693W        W30008  44.925   0.709   3.254
57694W        W30009  21.640  40.384  11.407
57695W        W30010   1.421   7.963  14.063
57696W        W30011  44.375  26.411   3.333
57697W        W30012  12.338  37.897   3.157
57698W        W30013  43.800  41.307  14.970
57699W        W30014   5.250  14.616  13.578
57700W        W30015  15.274  37.259   3.022
57701W        W30016  24.180  15.975   1.337
57702W        W30017  36.830  37.651   1.299
57703W        W30018  32.419  44.222   0.902
57704W        W30019  43.864  10.940  10.648
57705W        W30020   9.237   9.648   0.390
57706W        W30021  39.722  36.566   4.098
57707W        W30022   5.659  18.277  11.272
57708W        W30023   9.412  37.887   4.719
57709W        W30024  37.855  32.553   2.810
57710W        W30025   2.786  22.141  13.398
57711W        W30026  14.270  15.245  14.867
57712W        W30027  30.069  36.338   4.829
57713W        W30028  43.489  14.589  11.198
57714W        W30029  20.549   7.787   4.149
57715W        W30030  24.086  18.698  12.568
57716W        W30031  23.268   9.096  13.409
57717W        W30032  44.466  11.767   5.313
57718W        W30033  23.462  10.292  13.338
57719W        W30034  34.221   6.887   3.576
57720W        W30035   1.013   9.108  11.105
57721W        W30036  44.634  32.679  11.140
57722W        W30037  43.255  22.090   1.325
57723W        W30038  43.972  24.159   4.877
57724W        W30039  26.207  13.035  12.944
57725W        W30040  23.975  38.019  12.473
57726W        W30041   1.829  23.431  14.297
57727W        W30042  27.678  33.032  10.694
57728W        W30043  11.886  40.259  11.664
57729W        W30044  43.341  34.457  11.555
57730W        W30045   4.844  14.740   3.218
57731W        W30046  37.509  14.612   4.656
57732W        W30047  10.367  38.368   4.805
57733W        W30048  28.549   1.011   3.240
57734W        W30049  21.134   4.958  10.602
57735W        W30050  21.644  16.156   2.361
57736W        W30051   8.820  39.639  12.941
57737W        W30052  43.478   1.373  11.932
57738W        W30053   9.210  26.609  13.112
57739W        W30054   7.643  17.050   1.359
57740W        W30055   1.037  29.188   1.521
57741W        W30056   2.791  11.344  12.555
57742W        W30057  35.107  26.537   1.794
57743W        W30058   6.668  18.672  14.824
57744W        W30059  43.962  25.412  11.192
57745W        W30060  43.501  34.480  12.185
57746W        W30061  34.542  13.100   3.294
57747W        W30062  24.296  24.749  13.074
57748W        W30063  43.148   4.745   4.791
57749W        W30064   4.937  12.579   0.301
57750W        W30065   8.705  33.671  12.383
57751W        W30066  32.853  30.081   4.835
57752W        W30067  15.809   2.345   1.185
57753W        W30068  28.976  34.417  11.567
57754W        W30069  26.017  39.127   2.390
57755W        W30070  14.718   9.860  14.916
57756W        W30071  29.953  21.012  11.648
57757W        W30072  36.455   2.703  13.454
57758W        W30073  43.767   6.760  13.797
57759W        W30074  31.563  43.346   2.754
57760W        W30075  42.901  18.150  14.485
57761W        W30076  25.908  21.758  12.336
57762W        W30077  32.145  22.504   1.743
57763W        W30078  29.136  16.127  10.740
57764W        W30079   7.857  14.247  14.688
57765W        W30080  26.534  41.889   2.245
57766W        W30081  41.263  39.872   2.053
57767W        W30082  16.553  30.846   2.151
57768W        W30083  31.427  23.629   0.257
57769W        W30084  28.528  23.444   2.124
57770W        W30085  17.687  31.516  14.692
57771W        W30086   3.670  44.892  11.709
57772W        W30087  35.969  10.067   0.435
57773W        W30088  39.195  19.777   1.404
57774W        W30089  27.982  27.684   3.164
57775W        W30090   5.975  28.400  13.648
57776W        W30091  12.045  41.707  11.597
57777W        W30092  15.278  11.159   2.242
57778W        W30093  40.510  10.695  12.630
57779W        W30094   3.968   1.716  14.995
57780W        W30095   5.769   5.986  10.331
57781W        W30096  25.751   9.929  14.539
57782W        W30097  41.499  31.972  13.581
57783W        W30098  30.825   6.192   3.157
57784W        W30099  15.341  15.335  14.895
57785W        W30100  20.577  21.100   2.983
57786W        W30101   3.371  14.618  10.630
57787W        W30102  26.023  14.601  14.880
57788W        W30103  18.329  26.164  11.949
57789W        W30104   1.417  39.450  10.527
57790W        W30105  10.458  16.655   2.755
57791W        W30106  44.509  28.261   0.168
57792W        W30107  21.976  39.234   0.899
57793W        W30108  16.637   1.062  12.340
57794W        W30109  10.312  20.979   4.524
57795W        W30110   2.319  25.983   4.719
57796W        W30111  19.759   8.983  12.750
57797W        W30112   2.000  30.074  13.342
57798W        W30113  29.080  42.976   5.121
57799W        W30114  42.451  10.607  14.888
57800W        W30115  17.637  27.547  12.371
57801W        W30116  40.075  25.707   0.519
57802W        W30117   5.229  12.997  10.511
57803W        W30118  11.588  13.106  11.978
57804W        W30119  26.508   2.697   3.084
57805W        W30120  28.099  31.047   9.663
57806W        W30121  29.077  21.511   3.593
57807W        W30122  26.225   1.469  12.542
57808W        W30123  43.976  16.751  11.204
57809W        W30124  16.579  33.525   0.812
57810W        W30125   2.405   7.223  11.559
57811W        W30126  25.031  12.331   2.990
57812W        W30127  41.791  26.959  13.139
57813W        W30128   8.979  13.685  14.547
57814W        W30129  18.571  23.210  12.709
57815W        W30130  33.487  38.871  10.887
57816W        W30131  33.621  14.117   4.354
57817W        W30132   8.466  15.668  13.939
57818W        W30133  30.595  26.087  14.132
57819W        W30134  17.967   1.788  12.600
57820W        W30135  22.741  13.402  10.633
57821W        W30136  14.671  43.350   1.320
57822W        W30137  30.846   7.832  13.036
57823W        W30138  26.633   7.457  10.628
57824W        W30139  22.204  17.381  13.575
57825W        W30140   7.677  11.204   3.471
57826W        W30141  21.225   1.380  11.383
57827W        W30142  10.782  39.180  14.949
57828W        W30143  20.570   4.887   3.081
57829W        W30144  21.047  40.540   4.539
57830W        W30145  15.066   1.242  14.427
57831W        W30146  25.166   9.735  10.365
57832W        W30147  14.138   0.417   2.937
57833W        W30148  20.048  22.181   1.356
57834W        W30149   3.733  18.537  13.805
57835W        W30150  16.619  44.818   1.902
57836W        W30151   6.087  11.211   2.652
57837W        W30152   1.727  17.748   4.161
57838W        W30153  37.305  26.303   0.289
57839W        W30154  44.230  44.750  11.891
57840W        W30155  36.373  10.910  13.269
57841W        W30156  30.955   1.131  12.541
57842W        W30157  30.966  24.491  12.969
57843W        W30158  19.279  18.038  12.546
57844W        W30159   3.277  26.247   4.974
57845W        W30160  19.400  10.916   0.318
57846W        W30161  35.975  15.900  14.654
57847W        W30162  38.105  10.395  13.106
57848W        W30163   6.936  18.856  14.364
57849W        W30164   0.714  39.483   3.810
57850W        W30165   4.842  11.085  12.451
57851W        W30166   0.047  42.528  11.154
57852W        W30167  33.848   9.224   2.713
57853W        W30168  21.154   7.747  12.359
57854W        W30169   4.698  18.659   3.725
57855W        W30170  14.607   6.226  13.301
57856W        W30171  36.389  10.733  13.755
57857W        W30172  25.059  32.332  11.234
57858W        W30173   4.354  23.538  14.308
57859W        W30174  41.569  42.624   2.713
57860W        W30175  18.229   1.930   4.221
57861W        W30176  40.278  33.092  11.178
57862W        W30177   5.029  13.997   2.749
57863W        W30178  43.742   4.732   1.917
57864W        W30179   8.104  11.100   4.467
57865W        W30180  25.755  15.364  11.190
57866W        W30181  18.849  18.779  14.845
57867W        W30182  25.321  31.529   3.648
57868W        W30183   2.810  27.526   4.316
57869W        W30184  17.780  31.870  12.104
57870W        W30185  44.333  27.102   0.652
57871W        W30186   2.656   6.940   2.438
57872W        W30187  33.571  35.878   3.212
57873W        W30188   6.439   1.210   1.793
57874W        W30189  17.115   1.857  12.578
57875W        W30190   9.184  43.028   2.244
57876W        W30191  31.857  20.144   0.015
57877W        W30192  22.546  36.369  12.627
57878W        W30193  18.756  33.458   3.709
57879W        W30194  26.402  20.151  10.563
57880W        W30195  44.042  42.460   0.914
57881W        W30196  16.025  17.673  13.439
57882W        W30197   7.989  21.809   0.847
57883W        W30198  27.951  43.919  10.781
57884W        W30199  12.685  37.168  14.039
57885W        W30200  20.292  11.309   4.954
57886W        W30201  24.506   1.009  11.067
57887W        W30202  17.510  11.256   1.675
57888W        W30203  18.101  40.296  10.229
57889W        W30204  36.539  19.051  13.104
57890W        W30205  44.741  42.093  12.076
57891W        W30206  10.533  28.309  14.756
57892W        W30207  15.060  44.213   4.135
57893W        W30208  44.389  22.052  10.689
57894W        W30209  27.009   2.971   1.391
57895W        W30210  44.703  32.006  12.715
57896W        W30211  25.107   6.771  12.957
57897W        W30212  27.237  37.927   3.798
57898W        W30213  17.063  42.303   0.944
57899W        W30214  44.532   2.541  11.107
57900W        W30215  34.441  28.055   0.993
57901W        W30216  39.827  33.536   2.798
57902W        W30217  30.520  12.343  12.740
57903W        W30218  25.467  34.434  10.945
57904W        W30219  32.395   3.576   4.575
57905W        W30220  16.101  44.775   4.529
57906W        W30221  25.009  12.760  13.312
57907W        W30222  20.633  31.480  13.761
57908W        W30223  14.854  37.040   0.245
57909W        W30224  11.123   1.397  12.559
57910W        W30225  34.198  21.648   4.183
57911W        W30226   9.801   0.859  13.935
57912W        W30227  11.021  39.904   2.768
57913W        W30228   5.391  22.139   4.444
57914W        W30229  25.086  39.787   3.817
57915W        W30230  27.418  16.639   0.021
57916W        W30231  37.717   6.147   0.387
57917W        W30232  44.337  41.872   1.397
57918W        W30233  25.103  43.479  14.873
57919W        W30234  23.616  32.120  11.206
57920W        W30235  18.718  18.116   0.415
57921W        W30236  31.092  11.468   4.723
57922W        W30237  29.108  26.034  13.894
57923W        W30238  37.555  31.331   0.818
57924W        W30239   8.898  31.931   3.610
57925W        W30240  26.042   3.243  14.373
57926W        W30241  37.695  40.540  11.934
57927W        W30242  22.504  32.698   1.055
57928W        W30243  19.673  11.633  11.951
57929W        W30244   3.979  31.671  12.931
57930W        W30245  41.463  20.738   3.599
57931W        W30246  19.211  12.405   1.340
57932W        W30247   7.665  38.031   2.232
57933W        W30248  18.934  31.991  14.405
57934W        W30249  13.290  30.611   9.532
57935W        W30250   0.264  40.776   3.200
57936W        W30251  33.268  27.930   3.934
57937W        W30252  35.956  34.572  14.810
57938W        W30253  26.145   6.835  13.808
57939W        W30254   1.937  42.236   2.800
57940W        W30255  20.517  14.814   2.957
57941W        W30256  41.501  42.739   4.169
57942W        W30257  40.084  43.105   4.158
57943W        W30258  10.691   6.133  10.867
57944W        W30259  33.611  18.016  13.054
57945W        W30260  25.323   5.457   4.756
57946W        W30261   1.377  41.492  11.966
57947W        W30262   7.886  36.865   1.909
57948W        W30263  34.442   8.436   4.846
57949W        W30264  39.718  17.711  11.606
57950W        W30265  39.408  43.899   3.551
57951W        W30266  41.764   1.224  14.013
57952W        W30267   5.854  41.126  12.564
57953W        W30268  15.187   0.858   3.322
57954W        W30269   1.282  20.271  12.210
57955W        W30270  29.584  34.638   3.625
57956W        W30271  44.671  35.108  12.059
57957W        W30272  16.733  14.315   3.653
57958W        W30273  17.308  19.697   1.675
57959W        W30274  12.818  19.306  11.562
57960W        W30275  17.735  16.550  12.422
57961W        W30276  25.154  24.285  10.615
57962W        W30277  17.730  38.922   9.968
57963W        W30278   1.835  33.976  10.457
57964W        W30279  44.868   2.944  10.925
57965W        W30280  23.708  25.542   3.349
57966W        W30281  15.117   3.283  10.747
57967W        W30282  43.342  41.268  14.001
57968W        W30283  28.418  27.866   3.311
57969W        W30284   9.247   3.398   2.318
57970W        W30285   3.514  34.320  14.424
57971W        W30286  41.769   0.282   4.048
57972W        W30287  19.241  16.393   4.343
57973W        W30288  34.389  29.563  11.529
57974W        W30289  20.630  27.531  10.918
57975W        W30290  36.497   8.587   1.942
57976W        W30291   4.065  29.317   3.674
57977W        W30292   7.605  10.047  12.367
57978W        W30293  29.023  41.944   0.851
57979W        W30294  20.000   5.359  13.133
57980W        W30295  33.027  37.869   4.446
57981W        W30296   9.112  29.559  12.335
57982W        W30297  17.876  21.042  11.381
57983W        W30298  10.427  35.066   2.789
57984W        W30299  26.310  15.780   0.254
57985W        W30300  34.507  26.995   3.853
57986W        W30301  19.834  25.271   4.224
57987W        W30302  42.754  20.591   4.280
57988W        W30303  25.703  12.619  14.476
57989W        W30304  35.416   2.324  10.635
57990W        W30305  35.162   8.358   2.718
57991W        W30306   9.671  18.468   4.648
57992W        W30307  10.942  38.908   0.361
57993W        W30308  39.232   5.988   2.471
57994W        W30309  10.097  18.647  13.931
57995W        W30310   6.727  17.913  12.239
57996W        W30311   7.327  13.653  11.165
57997W        W30312  12.617   5.387   1.066
57998W        W30313  31.975  16.612   3.172
57999W        W30314   8.556  11.188   3.217
58000W        W30315  12.691  34.142   2.375
58001W        W30316  43.633   1.325   0.333
58002W        W30317  24.586  22.179  12.196
58003W        W30318  29.624  23.165   1.102
58004W        W30319  17.135  27.661  12.529
58005W        W30320  25.691  21.809   2.865
58006W        W30321  33.702  43.235   3.210
58007W        W30322   3.867   0.212   0.354
58008W        W30323  28.509  25.125   1.444
58009W        W30324  37.507  42.381  11.590
58010W        W30325   0.429  15.100  13.610
58011W        W30326  33.170  19.749   0.083
58012W        W30327  26.815  41.514  12.810
58013W        W30328  15.641  28.352  12.464
58014W        W30329   2.412  15.150  12.586
58015W        W30330  20.605  37.389  10.300
58016W        W30331   1.574  13.498  12.100
58017W        W30332  18.988  34.888   2.778
58018W        W30333  10.552  15.592   0.432
58019W        W30334  37.922  35.552  14.919
58020W        W30335  34.598  32.115  13.708
58021W        W30336   9.842  42.844   4.280
58022W        W30337   4.285   3.736  11.154
58023W        W30338   9.819  30.685   1.893
58024W        W30339  24.727  40.915  13.677
58025W        W30340  24.657  20.627   4.273
58026W        W30341   3.814  40.377   2.673
58027W        W30342  40.021  10.734  12.392
58028W        W30343  37.688   7.212   3.656
58029W        W30344  26.449  12.087   4.198
58030W        W30345  11.264  16.202   5.016
58031W        W30346  29.529   6.206  12.565
58032W        W30347  28.423  22.909  13.079
58033W        W30348  36.821   9.586   3.770
58034W        W30349   0.527   8.963   1.294
58035W        W30350  18.346  17.250   1.614
58036W        W30351  10.262   6.948   4.627
58037W        W30352  24.063  40.033   0.852
58038W        W30353  38.770  41.956  13.937
58039W        W30354  26.326  40.422   3.566
58040W        W30355  27.435  22.551  14.413
58041W        W30356  32.481  12.683  10.552
58042W        W30357   3.008  38.951  11.140
58043W        W30358  12.087  15.276   4.185
58044W        W30359   2.823  33.432   1.939
58045W        W30360  38.712  30.152   1.298
58046W        W30361  27.600  22.877   1.803
58047W        W30362  29.117  37.277  10.602
58048W        W30363  14.088   0.472   4.815
58049W        W30364  32.809  37.407  14.828
58050W        W30365   9.120   7.862  14.955
58051W        W30366   7.937  22.178   1.233
58052W        W30367  26.060  20.044  14.878
58053W        W30368  25.222  36.089   4.667
58054W        W30369   4.976  30.936   2.785
58055W        W30370   2.303  27.250   1.248
58056W        W30371  28.502  39.406  11.961
58057W        W30372   2.503  30.455  12.079
58058W        W30373   6.138   4.750  12.006
58059W        W30374   3.824  26.629   0.940
58060W        W30375   0.392  31.063  10.376
58061W        W30376  20.129   4.681   0.392
58062W        W30377  21.332   5.402  14.290
58063W        W30378  20.334  27.645   0.391
58064W        W30379  13.915  11.116   3.929
58065W        W30380  17.315  23.029  14.223
58066W        W30381  17.300  41.485   4.556
58067W        W30382  40.812  35.776   5.137
58068W        W30383   4.332  43.914  13.569
58069W        W30384   8.095   4.967  12.795
58070W        W30385  29.108  29.871  11.612
58071W        W30386  36.975  14.780   3.846
58072W        W30387  43.738  33.512   4.576
58073W        W30388  15.213  36.975  11.587
58074W        W30389  31.003   4.558  13.216
58075W        W30390  40.533  21.066   0.765
58076W        W30391  38.414  14.277  12.918
58077W        W30392  32.596  41.897  13.588
58078W        W30393  29.534  32.696   0.368
58079W        W30394  21.787  28.134  12.805
58080W        W30395   8.531   8.223  13.477
58081W        W30396   4.685   6.352  14.506
58082W        W30397   4.745  29.372   4.119
58083W        W30398  39.374   8.824   3.972
58084W        W30399  27.443  29.927  14.070
58085W        W30400  12.864  20.954   2.104
58086W        W30401  21.158  21.193  13.785
58087W        W30402  15.713  39.601  11.550
58088W        W30403  26.967   1.413  12.991
58089W        W30404  18.278  15.342  13.186
58090W        W30405  40.780  37.346   2.172
58091W        W30406   0.836  33.468  13.662
58092W        W30407  16.766   6.005   1.313
58093W        W30408  42.823  15.177  10.959
58094W        W30409  15.693   8.898   2.401
58095W        W30410  11.795  30.341  12.781
58096W        W30411  20.154   9.965   2.729
58097W        W30412  26.592  10.148   0.223
58098W        W30413  16.467  35.906  12.962
58099W        W30414  16.382  26.658  14.276
58100W        W30415  23.052   4.664   3.623
58101W        W30416  24.702  23.257  11.584
58102W        W30417  15.614   7.356   4.071
58103W        W30418  11.617  43.299  14.032
58104W        W30419  21.137  40.037   4.487
58105W        W30420  11.599  20.452   2.376
58106W        W30421  10.152  15.038   4.934
58107W        W30422  40.472  15.122  14.947
58108W        W30423  35.924  32.834   1.647
58109W        W30424  37.163  36.579  11.990
58110W        W30425  19.665   9.415   1.805
58111W        W30426  11.958  24.938  13.652
58112W        W30427  42.249  18.052  12.888
58113W        W30428   4.731  24.051   2.191
58114W        W30429   9.365  34.527  11.885
58115W        W30430   6.884  30.887   0.796
58116W        W30431   3.232   4.753   2.017
58117W        W30432  40.871  28.149  13.874
58118W        W30433  37.567   1.778  11.581
58119W        W30434   5.279  38.418  10.704
58120W        W30435  16.448  25.539   4.100
58121W        W30436  39.165  25.936   3.663
58122W        W30437  38.935   6.745  10.657
58123W        W30438  13.209   2.903   4.498
58124W        W30439  24.511  16.745  11.999
58125W        W30440   1.185  10.921  12.070
58126W        W30441  43.904  43.787   3.218
58127W        W30442  31.901  29.606   1.951
58128W        W30443   2.485  19.218  10.880
58129W        W30444  23.147   3.675  11.208
58130W        W30445  13.992  25.046  12.477
58131W        W30446   1.690  21.839   0.012
58132W        W30447  37.618  11.803   3.358
58133W        W30448  44.427  20.708  13.410
58134W        W30449  19.008  44.286   0.455
58135W        W30450   1.994   3.521  12.937
58136W        W30451   4.818  25.414   0.929
58137W        W30452  16.713  16.064   4.203
58138W        W30453  29.401  28.656   1.410
58139W        W30454  30.437  33.148  11.064
58140W        W30455  33.541  18.319  12.036
58141W        W30456  32.416  10.292  11.698
58142W        W30457  39.016  28.250   2.003
58143W        W30458   4.565  13.172   2.723
58144W        W30459  36.259   7.874   1.446
58145W        W30460  30.422  14.723  10.794
58146W        W30461  23.120  36.877   2.319
58147W        W30462  27.120   6.703   5.297
58148W        W30463  22.775  43.069   0.206
58149W        W30464   8.751   4.258   0.503
58150W        W30465   6.284  35.145  13.441
58151W        W30466  26.481  44.322   4.183
58152W        W30467  23.269  41.509  13.398
58153W        W30468  29.290  32.052   2.681
58154W        W30469   9.657  33.238   1.154
58155W        W30470  30.258  16.580  14.611
58156W        W30471  25.011  20.106  14.534
58157W        W30472  31.515  17.277   1.812
58158W        W30473   3.449  30.024   2.941
58159W        W30474  40.734  23.980  10.583
58160W        W30475  32.195  36.509   1.334
58161W        W30476   2.192   6.932   2.654
58162W        W30477  25.754   4.169  12.028
58163W        W30478  18.346  42.341  11.621
58164W        W30479   6.227  16.919  11.933
58165W        W30480   2.449  22.313   0.521
58166W        W30481  41.812  30.387   0.209
58167W        W30482  13.798  12.834  11.507
58168W        W30483  40.649   8.708  13.960
58169W        W30484  20.039  44.967  11.976
58170W        W30485  33.634  39.553  13.535
58171W        W30486  22.984  10.652   1.803
58172W        W30487  18.033  42.281  13.899
58173W        W30488  27.396  11.717   3.728
58174W        W30489  34.455  15.779  10.448
58175W        W30490  21.529  39.829  12.127
58176W        W30491  31.693   0.095   1.323
58177W        W30492  10.540   3.032   1.081
58178W        W30493  13.267  17.817  11.557
58179W        W30494  37.055  28.667   3.193
58180W        W30495  42.189  30.871   3.848
58181W        W30496   2.973   0.105   0.199
58182W        W30497  10.745  37.991  11.036
58183W        W30498  38.398  15.825  13.048
58184W        W30499   1.001  13.316  10.624
58185W        W30500  31.369  35.549   0.841
58186W        W30501  11.164  29.970  12.861
58187W        W30502  31.704  25.686   3.775
58188W        W30503  23.942  40.464   1.709
58189W        W30504   2.023  26.585   2.799
58190W        W30505  38.275  36.604  13.511
58191W        W30506  18.183  26.178  14.512
58192W        W30507   0.318  26.865   0.317
58193W        W30508  35.755  13.744   2.656
58194W        W30509  27.603   3.445  12.018
58195W        W30510  34.645  37.592  12.877
58196W        W30511  26.131   4.338   5.490
58197W        W30512   1.381  44.910  10.735
58198W        W30513  30.739  23.176  14.497
58199W        W30514  35.381  20.633   1.207
58200W        W30515  37.905  22.053   0.074
58201W        W30516  16.472  31.077   4.862
58202W        W30517  20.780  12.028   3.155
58203W        W30518  15.209   1.969  13.130
58204W        W30519  33.045  30.446   4.070
58205W        W30520  39.735  28.168   2.209
58206W        W30521  38.760  10.193   3.663
58207W        W30522  35.813   8.847  13.004
58208W        W30523  20.744  14.798  11.091
58209W        W30524  22.986  39.599   0.155
58210W        W30525  35.913   0.511   0.362
58211W        W30526  40.068  42.966  13.895
58212W        W30527  39.128   9.680   0.897
58213W        W30528  29.971  32.519   3.125
58214W        W30529  15.060   4.931  11.933
58215W        W30530   8.698  14.891  12.854
58216W        W30531   6.276  44.853   5.040
58217W        W30532  43.303  14.635   3.756
58218W        W30533  16.176  41.483   2.440
58219W        W30534  15.821  41.946  11.951
58220W        W30535  41.201   1.254  11.902
58221W        W30536  14.091  21.101   3.069
58222W        W30537  10.909  38.595   0.786
58223W        W30538  18.068  14.341   1.618
58224W        W30539  10.651  28.812  14.877
58225W        W30540   7.565  40.459   2.318
58226W        W30541  40.672   5.528  11.940
58227W        W30542  25.447   2.954   1.256
58228W        W30543  34.632  28.810  10.749
58229W        W30544   2.388   6.783  11.870
58230W        W30545  22.607   5.702  13.822
58231W        W30546  26.623   2.371  12.433
58232W        W30547  35.324   6.106   1.903
58233W        W30548   9.933   5.609  11.138
58234W        W30549  20.767  14.420   1.007
58235W        W30550  24.666  33.531  11.625
58236W        W30551   4.960  44.863   2.442
58237W        W30552   8.155   2.605  13.160
58238W        W30553  41.026  12.840  11.057
58239W        W30554  36.567  11.361  11.761
58240W        W30555  30.383   5.793   4.234
58241W        W30556  34.466  38.340  12.163
58242W        W30557  23.525  17.289   2.238
58243W        W30558  37.639  29.657  14.301
58244W        W30559   9.708  13.824  11.977
58245W        W30560  27.492  41.930   4.087
58246W        W30561   4.940  11.235   4.757
58247W        W30562  44.392  28.190   2.799
58248W        W30563   1.883  29.703  12.978
58249W        W30564  16.251   9.202   4.763
58250W        W30565  31.686  13.320  11.037
58251W        W30566  11.231   4.527   3.342
58252W        W30567  35.860  24.169  12.433
58253W        W30568  39.293  39.020  14.627
58254W        W30569   8.869  18.278   0.253
58255W        W30570  40.761  14.838   3.312
58256W        W30571  21.025   6.212  13.059
58257W        W30572  25.681   7.734  13.641
58258W        W30573  26.698  40.454  10.813
58259W        W30574  15.460  41.826   2.202
58260W        W30575  32.333   7.782  10.668
58261W        W30576  26.515  26.265  12.965
58262W        W30577  37.535  18.323  11.810
58263W        W30578   2.750   2.756  14.372
58264W        W30579  13.608  30.348  10.866
58265W        W30580  34.898   5.950   4.861
58266W        W30581  34.139   8.939  11.667
58267W        W30582  41.620  14.673   4.193
58268W        W30583   1.167  20.346  13.580
58269W        W30584  39.983   7.702  12.358
58270W        W30585   5.079  31.588  14.489
58271W        W30586  32.551   3.680   0.995
58272W        W30587  13.190  15.266   4.702
58273W        W30588  37.905  14.559   3.819
58274W        W30589  24.929  11.644   0.869
58275W        W30590  44.365  34.899   3.510
58276W        W30591  11.677  15.237  10.781
58277W        W30592  26.525  22.046   2.442
58278W        W30593   7.341  23.402   2.848
58279W        W30594   4.162  32.429   1.921
58280W        W30595  24.190  37.905  13.857
58281W        W30596  25.039  31.917  13.914
58282W        W30597   2.859   7.399   2.329
58283W        W30598  36.597  37.486   3.214
58284W        W30599   8.702  12.228  13.684
58285W        W30600  18.575  14.606   1.641
58286W        W30601  12.836  21.562  14.000
58287W        W30602  33.279   4.111   0.598
58288W        W30603  18.256   1.436  13.930
58289W        W30604   8.311  16.965   4.495
58290W        W30605  42.744   6.763  13.770
58291W        W30606   4.285  18.125   4.903
58292W        W30607  19.387  32.999   4.760
58293W        W30608  38.039  18.526  10.612
58294W        W30609  28.137   8.291  13.910
58295W        W30610  23.089   8.213   0.520
58296W        W30611  26.250   9.005   4.727
58297W        W30612  34.781  14.742  13.328
58298W        W30613  20.762  27.207   0.780
58299W        W30614   4.926  41.362  12.600
58300W        W30615  39.271  22.236  12.109
58301W        W30616  10.545  26.013   2.855
58302W        W30617  11.878  26.147  14.386
58303W        W30618  42.764   7.641   0.476
58304W        W30619  29.108  27.912   1.601
58305W        W30620  40.828  24.921  11.981
58306W        W30621  39.327  27.723  12.062
58307W        W30622  14.595  34.979   2.270
58308W        W30623  25.969  37.831   4.749
58309W        W30624  27.602  22.978  13.383
58310W        W30625   7.455  12.799  12.698
58311W        W30626  42.287  35.666   0.494
58312W        W30627  44.930   7.712   3.113
58313W        W30628  25.953   7.195  11.405
58314W        W30629  40.078   9.103   2.310
58315W        W30630  32.629  10.600   0.495
58316W        W30631  11.107   7.738  14.701
58317W        W30632  16.840   2.902  14.511
58318W        W30633  21.126  29.992  11.405
58319W        W30634   1.525  37.449  10.035
58320W        W30635  20.528   3.307   0.080
58321W        W30636  29.282  30.897  10.609
58322W        W30637   3.242  13.113   3.668
58323W        W30638  12.578   9.140   3.216
58324W        W30639  40.685  19.721  11.480
58325W        W30640  36.349  19.466   0.252
58326W        W30641  37.432  27.625  12.670
58327W        W30642  19.548  18.095   2.816
58328W        W30643  23.170  42.257  11.709
58329W        W30644  34.906  24.993   4.642
58330W        W30645  41.329  12.890  11.653
58331W        W30646  31.229  21.275  13.815
58332W        W30647   9.666   0.327  14.101
58333W        W30648  10.480  40.661   0.916
58334W        W30649   0.730   6.207   0.313
58335W        W30650  32.629  44.517   3.212
58336W        W30651  18.014  25.201  12.066
58337W        W30652  29.876   5.401   4.569
58338W        W30653  20.241  42.493  12.761
58339W        W30654   1.865  11.460   4.824
58340W        W30655  34.389  27.039  12.794
58341W        W30656  43.791  13.292   2.376
58342W        W30657   9.304   0.413  12.811
58343W        W30658  14.082   7.429   1.786
58344W        W30659  31.543  31.745   4.263
58345W        W30660   1.300   3.750   2.210
58346W        W30661   4.148  35.901   1.716
58347W        W30662  29.533  36.312  11.975
58348W        W30663  14.652  27.744  11.103
58349W        W30664  44.215  30.763  14.921
58350W        W30665   3.524  42.035  13.384
58351W        W30666  20.634  34.117   1.403
58352W        W30667  44.332  36.499  11.089
58353W        W30668  30.692   9.451  13.244
58354W        W30669  40.385  12.870  13.522
58355W        W30670  11.782   7.141   2.767
58356W        W30671  28.789  35.551   4.152
58357W        W30672  28.670  28.431   0.943
58358W        W30673  26.528  29.002   0.303
58359W        W30674   1.268  44.038  13.429
58360W        W30675  40.884   1.364   3.367
58361W        W30676  31.879  34.052   1.198
58362W        W30677  33.488  27.345   0.237
58363W        W30678  20.617  43.447   2.645
58364W        W30679   9.545  23.500  14.400
58365W        W30680  33.655  13.298   3.358
58366W        W30681  25.253  15.343  12.910
58367W        W30682   1.307  23.455  11.100
58368W        W30683  34.984  19.770   4.996
58369W        W30684  32.975  34.040   2.855
58370W        W30685  37.302   8.400   1.037
58371W        W30686  15.660  11.456  12.043
58372W        W30687  34.111   0.943   0.396
58373W        W30688  15.743  37.798   0.843
58374W        W30689   2.839  10.624   4.667
58375W        W30690  36.945  34.414   3.323
58376W        W30691  14.704  23.687   1.503
58377W        W30692   6.149   9.104  13.338
58378W        W30693  33.815  19.193   0.527
58379W        W30694  18.045  17.186  13.051
58380W        W30695  13.729  36.275   4.259
58381W        W30696   0.178  14.942   4.208
58382W        W30697  20.489  39.296  10.396
58383W        W30698  11.592  19.599  13.390
58384W        W30699   0.346  27.479  10.340
58385W        W30700  39.557  13.239   1.304
58386W        W30701  43.389  25.260  14.260
58387W        W30702  20.068  35.631  10.697
58388W        W30703  13.031  26.419  11.193
58389W        W30704  35.794   4.708   0.662
58390W        W30705  44.746  22.071   1.417
58391W        W30706   7.684   7.650  12.680
58392W        W30707   8.193   7.339   1.296
58393W        W30708  12.824  37.558   1.050
58394W        W30709  44.883  41.695  13.951
58395W        W30710  20.721  32.805   2.208
58396W        W30711   5.778  43.005   0.206
58397W        W30712  10.598  34.953  10.563
58398W        W30713  20.879  33.533  13.393
58399W        W30714   0.278  27.980  10.455
58400W        W30715  19.687  16.848   2.296
58401W        W30716  15.035  17.286  13.096
58402W        W30717  12.721  31.404   4.143
58403W        W30718  23.796  40.960   4.976
58404W        W30719  43.081  37.129  13.935
58405W        W30720  41.320  40.338   1.834
58406W        W30721  35.127  39.624   4.119
58407W        W30722  28.928  10.183   4.400
58408W        W30723  44.761  31.883  14.454
58409W        W30724  20.433  33.305  13.035
58410W        W30725  18.294  16.409   4.510
58411W        W30726  22.545  18.187  14.372
58412W        W30727   0.682  12.228  12.591
58413W        W30728  15.088  41.343  12.843
58414W        W30729   6.214  13.808  11.319
58415W        W30730   6.114  14.590   0.815
58416W        W30731  19.335   4.276  12.496
58417W        W30732   0.201  35.923  12.863
58418W        W30733  17.774  36.089   0.738
58419W        W30734  44.802  43.044  10.542
58420W        W30735   0.834  33.582  10.249
58421W        W30736  43.498   3.935  10.704
58422W        W30737   5.872  41.914  11.709
58423W        W30738  39.193  19.492  10.591
58424W        W30739  33.498  19.676  10.757
58425W        W30740  29.762  15.655  13.919
58426W        W30741  41.247  36.849  11.587
58427W        W30742  18.153  32.175  13.762
58428W        W30743  32.376  12.075  14.476
58429W        W30744  30.225  31.161   3.086
58430W        W30745  44.913   3.442   2.270
58431W        W30746  34.987   1.203  14.748
58432W        W30747   1.877  13.195  11.395
58433W        W30748  33.344   9.273   2.678
58434W        W30749  18.461   2.390  14.789
58435W        W30750  33.153  23.513   4.087
58436W        W30751  15.312  20.600  13.219
58437W        W30752  40.094  43.741  14.283
58438W        W30753  21.631   4.350   2.892
58439W        W30754  10.735  24.217   3.690
58440W        W30755  36.601   0.959   3.001
58441W        W30756  14.503  25.127  12.589
58442W        W30757  13.102  42.582   1.879
58443W        W30758  43.828  11.935  12.308
58444W        W30759   1.727  20.762  11.040
58445W        W30760  39.880   8.749   4.106
58446W        W30761   0.435  13.321  14.244
58447W        W30762  40.820  24.485   1.358
58448W        W30763  38.563  38.382  14.892
58449W        W30764   6.255  10.323   3.665
58450W        W30765  28.650  23.852   0.375
58451W        W30766   9.389  43.913   9.983
58452W        W30767  15.842  39.580  14.559
58453W        W30768  29.674  14.271  12.448
58454W        W30769  18.870  24.954  14.670
58455W        W30770  11.662   5.336  10.461
58456W        W30771  18.107  36.829   2.194
58457W        W30772  43.463  20.263  11.639
58458W        W30773   3.782  26.288  14.067
58459W        W30774  16.816   2.262   1.677
58460W        W30775  16.064   6.286   1.767
58461W        W30776  19.712  19.030   0.023
58462W        W30777  13.680  36.812  10.838
58463W        W30778   7.451  10.069   1.311
58464W        W30779   9.887  15.729  13.641
58465W        W30780  32.192  36.905   1.683
58466W        W30781  25.894   1.352   1.747
58467W        W30782  24.304  41.937  10.652
58468W        W30783  18.905  15.807   3.772
58469W        W30784  44.803  29.307   4.970
58470W        W30785   7.676  26.512   1.741
58471W        W30786  26.607  23.601   4.746
58472W        W30787  34.477  19.738   4.823
58473W        W30788  23.059  13.380   0.848
58474W        W30789  33.438  19.473   1.201
58475W        W30790   0.671  34.914  13.737
58476W        W30791  27.250  31.588   5.086
58477W        W30792   6.477  17.333   2.127
58478W        W30793  26.165  20.703   1.936
58479W        W30794  38.031  43.107  11.171
58480W        W30795  35.799  19.117   2.568
58481W        W30796  39.035  10.395   1.703
58482W        W30797  41.048  27.572  12.099
58483W        W30798   4.714  42.901   1.963
58484W        W30799  12.789  18.478  10.272
58485W        W30800  15.290  29.095   3.061
58486W        W30801   6.438   7.882   3.741
58487W        W30802  17.309  34.727  13.185
58488W        W30803  11.807   5.447  10.940
58489W        W30804   4.300   3.022  12.628
58490W        W30805   2.336  40.129   3.202
58491W        W30806  28.349  31.162  14.962
58492W        W30807  23.283  21.896   2.830
58493W        W30808  22.197  20.653   2.127
58494W        W30809  15.844  30.083  10.671
58495W        W30810  43.841   0.445  11.969
58496W        W30811  16.732  16.145  14.753
58497W        W30812   5.745  16.548  14.092
58498W        W30813   2.149  41.838   1.023
58499W        W30814   2.349  21.607   1.684
58500W        W30815  42.772  21.045   4.962
58501W        W30816  42.289  33.154  13.036
58502W        W30817  31.854   4.252  12.012
58503W        W30818  43.352   2.230   3.738
58504W        W30819   6.490  19.535  12.055
58505W        W30820  41.684  20.663  10.750
58506W        W30821   6.599  31.419   3.872
58507W        W30822  26.821  27.988  14.900
58508W        W30823  44.619  17.615   3.466
58509W        W30824  14.091  25.979   0.303
58510W        W30825  19.237  27.660   1.296
58511W        W30826  39.846  15.699   0.711
58512W        W30827  36.359   0.858   1.236
58513W        W30828  15.468  35.375   4.140
58514W        W30829  35.108  34.655   0.418
58515W        W30830   4.638   2.141  13.509
58516W        W30831  19.555   0.901   3.056
58517W        W30832  36.417  33.877  14.476
58518W        W30833  24.042  37.473   1.150
58519W        W30834  23.812  25.916   2.269
58520W        W30835  20.598  12.236  11.409
58521W        W30836  21.245  42.971   2.830
58522W        W30837  18.284  28.925  13.407
58523W        W30838  21.674  18.693   9.942
58524W        W30839  27.925   1.463   0.318
58525W        W30840  32.574  11.281   3.630
58526W        W30841  27.416  23.401  14.994
58527W        W30842  37.363  42.992  14.727
58528W        W30843  41.153  27.440   0.246
58529W        W30844  41.994  17.621   3.215
58530W        W30845  27.129   4.939  13.790
58531W        W30846  37.114   0.442   3.247
58532W        W30847  31.264  35.307   4.230
58533W        W30848   7.486   9.964   2.324
58534W        W30849  21.682  14.369   2.785
58535W        W30850   7.498  26.392   2.427
58536W        W30851  40.885   7.177   3.115
58537W        W30852  30.904  26.429  11.129
58538W        W30853  32.329  19.215   3.723
58539W        W30854  20.149   0.150   3.053
58540W        W30855  24.723  17.127   1.396
58541W        W30856  18.623  22.194   0.990
58542W        W30857  25.976  11.562   4.523
58543W        W30858  20.435  17.248   4.807
58544W        W30859  22.264  42.867  13.814
58545W        W30860   8.360  18.804   2.757
58546W        W30861  38.840  44.195   1.082
58547W        W30862   9.348   0.916  11.613
58548W        W30863  42.434  44.352  11.569
58549W        W30864   3.797  14.834  13.490
58550W        W30865  21.622  10.681   4.256
58551W        W30866  31.083   0.355   4.660
58552W        W30867  18.110  17.028  12.144
58553W        W30868   1.204  17.146  11.604
58554W        W30869   3.383  35.666   3.590
58555W        W30870  10.724  39.411  13.527
58556W        W30871  23.273  26.970   2.312
58557W        W30872  20.983  14.277  13.369
58558W        W30873  26.266  27.382  13.526
58559W        W30874  33.919  36.610  10.657
58560W        W30875  38.753   8.253  10.072
58561W        W30876  35.556  10.608   2.580
58562W        W30877  43.485  15.839  13.902
58563W        W30878  35.983  29.059  14.867
58564W        W30879  12.715  15.823   2.799
58565W        W30880   3.121  37.375  10.427
58566W        W30881  13.869  10.217   0.353
58567W        W30882  39.946   9.634  12.858
58568W        W30883  39.892  20.709   0.309
58569W        W30884  10.052  22.262  12.599
58570W        W30885  39.950   6.802   0.811
58571W        W30886  18.669   5.949   1.796
58572W        W30887   1.314  41.447   1.860
58573W        W30888  22.479  27.347  10.510
58574W        W30889  21.621  13.325  10.750
58575W        W30890  42.841  27.038  14.366
58576W        W30891  21.072  21.595  12.072
58577W        W30892  28.490  18.021   1.935
58578W        W30893  11.346  29.978  10.910
58579W        W30894  12.653  17.750  12.009
58580W        W30895  21.062   5.786   1.743
58581W        W30896   8.773  19.256   1.209
58582W        W30897  30.367  29.641  14.765
58583W        W30898  30.066  29.679   0.380
58584W        W30899  28.417  13.010   0.810
58585W        W30900  22.865  35.122   5.117
58586W        W30901  44.666  38.387   2.807
58587W        W30902  16.332   7.257  12.413
58588W        W30903  30.755  18.715  12.066
58589W        W30904  23.201  24.332   4.133
58590W        W30905  40.250  26.593  11.930
58591W        W30906  18.146  22.318  14.318
58592W        W30907  16.073  13.236   2.315
58593W        W30908   0.010   5.957  11.988
58594W        W30909  10.030   5.919  13.929
58595W        W30910  15.294  36.122   0.956
58596W        W30911   1.376  35.942  10.629
58597W        W30912   4.476  10.114  13.296
58598W        W30913   2.011  11.757  13.355
58599W        W30914  43.876   8.826  13.561
58600W        W30915  14.679  28.671   4.775
58601W        W30916  27.306  19.749   4.091
58602W        W30917  31.592  24.397  10.786
58603W        W30918  19.085  15.060   4.699
58604W        W30919  14.311   6.372  10.656
58605W        W30920  42.052   9.890   4.634
58606W        W30921  38.822   8.653  10.569
58607W        W30922  37.872   1.132  11.964
58608W        W30923  33.970   3.961   2.217
58609W        W30924  29.608   0.442  13.095
58610W        W30925  11.291  27.619  11.183
58611W        W30926   4.285  34.415   1.871
58612W        W30927  12.159  24.769   0.734
58613W        W30928  37.550  43.877   2.159
58614W        W30929  25.568  39.596  12.336
58615W        W30930  37.906  15.063  14.231
58616W        W30931  19.456   8.316   2.242
58617W        W30932  38.803  17.458   3.124
58618W        W30933  27.153  20.531   1.795
58619W        W30934  25.542  10.744   3.484
58620W        W30935  38.659  27.972  14.737
58621W        W30936  23.797  28.441  11.613
58622W        W30937  21.634  28.465   2.703
58623W        W30938   5.522  44.041  12.628
58624W        W30939  25.406  40.561  11.892
58625W        W30940   2.731  36.223   3.964
58626W        W30941   4.813  32.826   3.719
58627W        W30942  36.597   6.737   2.669
58628W        W30943  33.825  29.503   4.069
58629W        W30944  13.919  22.497   3.263
58630W        W30945  24.974  39.907   0.944
58631W        W30946  44.733  38.494  10.493
58632W        W30947   9.674  31.892  14.831
58633W        W30948  18.142   9.959   4.518
58634W        W30949  25.471  35.052   3.163
58635W        W30950  40.786  42.269  12.041
58636W        W30951  22.824  30.199   2.157
58637W        W30952   8.837  35.647   4.875
58638W        W30953  11.538  25.037   3.302
58639W        W30954  33.483   8.134  13.885
58640W        W30955  18.729  35.960  12.497
58641W        W30956  41.507  26.397  13.995
58642W        W30957  13.993  21.630   4.805
58643W        W30958  15.535   1.500   4.023
58644W        W30959  13.457  43.321   3.225
58645W        W30960  18.030  43.860  14.476
58646W        W30961  40.513   4.673   0.733
58647W        W30962  38.045  30.658   2.153
58648W        W30963  19.790  18.837   3.274
58649W        W30964  25.600  28.515   2.106
58650W        W30965  13.608  41.286   3.334
58651W        W30966  38.525  37.960   2.811
58652W        W30967  23.609   6.238  14.512
58653W        W30968  12.379  38.822   0.348
58654W        W30969  28.921  21.093   2.228
58655W        W30970  20.151  37.459   2.385
58656W        W30971  13.065   0.825   4.195
58657W        W30972  19.330  10.234   1.372
58658W        W30973  32.973   9.888  10.635
58659W        W30974  13.523  21.674  11.004
58660W        W30975  34.625  34.920  14.582
58661W        W30976  30.412  13.760  10.448
58662W        W30977  14.423  34.031   4.071
58663W        W30978  13.095  30.093  11.991
58664W        W30979  20.358   4.075   3.546
58665W        W30980   2.576   4.279  10.695
58666W        W30981  20.624  36.002   0.842
58667W        W30982  20.945  28.338  11.471
58668W        W30983   0.608  20.404   3.890
58669W        W30984  22.233  26.191   3.774
58670W        W30985  11.422   4.875  10.656
58671W        W30986   1.008  34.022   4.983
58672W        W30987   3.965  14.484   0.444
58673W        W30988  22.573  40.868  12.847
58674W        W30989  19.360  40.719  10.964
58675W        W30990  43.337  11.909  14.993
58676W        W30991  12.238  26.637   2.249
58677W        W30992  29.438  16.234   1.866
58678W        W30993  36.615  41.891  12.114
58679W        W30994   6.942  32.260  10.619
58680W        W30995  36.540  25.678  12.207
58681W        W30996   4.825  29.894   3.472
58682W        W30997   9.661  31.714  11.940
58683W        W30998  11.897  44.635   0.856
58684W        W30999   1.226  12.732  14.945
58685W        W31000  42.168  24.395  13.514
58686W        W31001  39.053  41.806  13.503
58687W        W31002  11.741  24.122  13.526
58688W        W31003  37.809  17.606   0.267
58689W        W31004   8.195  21.023  10.037
58690W        W31005  27.691  12.387  12.422
58691W        W31006   2.290  17.950   4.981
58692W        W31007  14.144   8.895   1.249
58693W        W31008  29.024  28.845  13.942
58694W        W31009  42.289   2.528  11.336
58695W        W31010  31.977  26.385   2.713
58696W        W31011  10.737  42.571  12.079
58697W        W31012  44.350   9.121  13.523
58698W        W31013  24.152  28.728   1.408
58699W        W31014  19.246  34.131  12.461
58700W        W31015  15.813  34.577   2.972
58701W        W31016  44.494  31.279   1.976
58702W        W31017  36.309  39.100   2.858
58703W        W31018  40.878  26.667   3.766
58704W        W31019  15.734   0.729  12.159
58705W        W31020  27.098  31.064  14.465
58706W        W31021  22.678  38.660   1.340
58707W        W31022  24.508  18.308  14.857
58708W        W31023   6.671  44.454  12.008
58709W        W31024  24.462  16.191   3.508
58710W        W31025  16.711   1.798  14.763
58711W        W31026  31.061  29.381   2.686
58712W        W31027  35.869  15.727  11.573
58713W        W31028  37.965  14.304   4.682
58714W        W31029  37.655  23.220  12.072
58715W        W31030   1.538  21.614  13.777
58716W        W31031  44.732  13.169  11.045
58717W        W31032   6.496  18.163  12.622
58718W        W31033  40.891  24.053  11.078
58719W        W31034  14.470   7.181  12.498
58720W        W31035  16.757  38.589  13.377
58721W        W31036  22.591  16.236   2.774
58722W        W31037  44.961  15.316   4.570
58723W        W31038  42.799  32.129   3.247
58724W        W31039   1.729  16.980   4.513
58725W        W31040  10.656  23.283   3.605
58726W        W31041   9.264  29.888  14.244
58727W        W31042  42.459  26.399  13.225
58728W        W31043   4.995   5.466  11.587
58729W        W31044  20.952  33.601   4.284
58730W        W31045  20.974  41.274   4.105
58731W        W31046  38.114   9.631  14.294
58732W        W31047  28.709  43.021  14.388
58733W        W31048  13.804  27.422   4.225
58734W        W31049  23.149  21.645   1.634
58735W        W31050  38.889  44.682   1.276
58736W        W31051  24.064  13.096   0.694
58737W        W31052  32.107   5.699   4.138
58738W        W31053  29.387   7.843   3.804
58739W        W31054   5.163   8.153   4.027
58740W        W31055  17.096  13.333   4.109
58741W        W31056  19.832  28.158   3.849
58742W        W31057  43.512   2.876  12.049
58743W        W31058  44.853  12.571   0.895
58744W        W31059   2.488  19.668   4.700
58745W        W31060  23.740  20.202  13.269
58746W        W31061  14.027  19.670  12.104
58747W        W31062  14.778  39.230   0.481
58748W        W31063   8.285  15.857   3.202
58749W        W31064  15.636  18.741  12.316
58750W        W31065  24.992   5.728   5.044
58751W        W31066  16.176  36.179  12.517
58752W        W31067  34.670  41.937  13.767
58753W        W31068  14.701  25.177  11.168
58754W        W31069  42.839  13.688   2.810
58755W        W31070  24.001  25.751  12.925
58756W        W31071  36.779  25.922  14.504
58757W        W31072  10.778   4.365   1.268
58758W        W31073  29.195  37.884   4.143
58759W        W31074  29.730  35.819  11.144
58760W        W31075  44.866  16.206   3.359
58761W        W31076  11.172  18.332   2.393
58762W        W31077   0.214  43.026  11.331
58763W        W31078   7.912  32.290   0.302
58764W        W31079  34.904  34.777   9.861
58765W        W31080   1.535  41.734  12.429
58766W        W31081   4.013  31.961   1.361
58767W        W31082  21.350  17.984  12.518
58768W        W31083  18.234  29.345  12.554
58769W        W31084  21.758  13.538  13.693
58770W        W31085  10.235  32.530  14.843
58771W        W31086   8.279  13.700  13.496
58772W        W31087  44.713  33.971  12.497
58773W        W31088   4.285  14.207  11.214
58774W        W31089  35.510  38.513  13.400
58775W        W31090  16.641   1.002   0.828
58776W        W31091  23.245  19.682  13.760
58777W        W31092  44.508  38.326  13.544
58778W        W31093  13.854  34.485  12.014
58779W        W31094   4.296   3.727   0.878
58780W        W31095  15.719   1.750   0.376
58781W        W31096   8.808  39.507   3.697
58782W        W31097   0.789  13.319   4.978
58783W        W31098  28.271  30.359   3.935
58784W        W31099  14.052  24.319  11.647
58785W        W31100   7.447   8.231  11.890
58786W        W31101  34.597  26.786   4.664
58787W        W31102   0.253  16.648  13.425
58788W        W31103  41.942  25.851   4.064
58789W        W31104  16.181   8.418   1.692
58790W        W31105  15.134  41.507   2.429
58791W        W31106  23.500  32.002  13.281
58792W        W31107   0.876  33.346   2.831
58793W        W31108  11.983  28.456   3.814
58794W        W31109  34.425  37.244   2.733
58795W        W31110  23.257  40.113  12.424
58796W        W31111  10.474  31.695  11.518
58797W        W31112   5.360   2.852   0.949
58798W        W31113  18.575  18.344   0.879
58799W        W31114  43.454  23.237  13.652
58800W        W31115  25.475  10.848   4.930
58801W        W31116  20.118   8.956   0.432
58802W        W31117  17.507  39.349   3.005
58803W        W31118   4.828  10.119  12.491
58804W        W31119  35.478  15.369   3.666
58805W        W31120  36.343  20.529   0.370
58806W        W31121   5.731   6.799  13.989
58807W        W31122  32.402  35.399  13.318
58808W        W31123  28.092  42.485   4.548
58809W        W31124  16.544  20.959  12.775
58810W        W31125  33.921  27.473   4.719
58811W        W31126   0.534  30.147  11.412
58812W        W31127  38.995  36.962  10.886
58813W        W31128  18.664  44.743  11.154
58814W        W31129  12.372   7.177  12.556
58815W        W31130  42.219  38.470   4.642
58816W        W31131  29.461  26.461   2.226
58817W        W31132  44.810  37.552   2.678
58818W        W31133  12.698  26.636  12.982
58819W        W31134  38.486  19.155   4.164
58820W        W31135  33.962  10.509  13.056
58821W        W31136  41.577   3.963  12.971
58822W        W31137  26.673  27.681  13.676
58823W        W31138  23.221  26.639  12.537
58824W        W31139  27.664  25.113  14.375
58825W        W31140  37.484  40.520   2.720
58826W        W31141  19.968  44.026  13.083
58827W        W31142   8.899   6.372  14.012
58828W        W31143  29.372  14.227   0.221
58829W        W31144  10.137  28.102  11.649
58830W        W31145  22.108  27.112   2.661
58831W        W31146  19.856   0.496   4.463
58832W        W31147  42.876   8.244  13.650
58833W        W31148  25.937   0.795  12.084
58834W        W31149  14.703  26.672  11.993
58835W        W31150  25.523  13.547   0.810
58836W        W31151  35.291  12.057  13.505
58837W        W31152  17.929  41.021  11.999
58838W        W31153   2.990  10.925   4.284
58839W        W31154  23.747  35.963  14.973
58840W        W31155   8.777  26.297  14.004
58841W        W31156  42.516  40.177  14.569
58842W        W31157  27.090   4.408  12.869
58843W        W31158  31.111  42.268   0.735
58844W        W31159  15.606  11.154  13.701
58845W        W31160  11.368  20.212   1.387
58846W        W31161  18.842   4.912   0.931
58847W        W31162   9.307  12.315   1.195
58848W        W31163  25.022  23.083   1.263
58849W        W31164   0.030  24.839  12.314
58850W        W31165  12.206  14.155   0.340
58851W        W31166  36.924  37.906  10.905
58852W        W31167   4.968  39.328   3.254
58853W        W31168  26.233  11.629  12.589
58854W        W31169  15.025  29.490  11.587
58855W        W31170  13.750   0.732   0.281
58856W        W31171  41.773  38.434   3.425
58857W        W31172  40.001  13.892   3.987
58858W        W31173  36.464   4.166   1.762
58859W        W31174  26.059  18.466  14.790
58860W        W31175  28.214  26.633   1.393
58861W        W31176  26.444   7.103   4.971
58862W        W31177  14.598  38.374   0.032
58863W        W31178  32.419  15.169   4.783
58864W        W31179   1.806  32.830   3.644
58865W        W31180   6.997  28.306   5.205
58866W        W31181  11.535  15.754   5.278
58867W        W31182   4.764   3.930   3.074
58868W        W31183   3.296  33.597  12.390
58869W        W31184  29.448  14.044  12.030
58870W        W31185  26.236  34.829  13.729
58871W        W31186  23.967  42.821  11.490
58872W        W31187  21.205  30.964   0.412
58873W        W31188  29.740   7.692  11.607
58874W        W31189  22.436  42.029  11.233
58875W        W31190   0.688  20.811  11.644
58876W        W31191  29.982  39.408   4.522
58877W        W31192  14.397  24.099   1.715
58878W        W31193  30.366  41.867   3.733
58879W        W31194  14.780  18.869   0.850
58880W        W31195  36.590   0.956   4.035
58881W        W31196   9.886  42.663   5.292
58882W        W31197  40.341  16.594   2.865
58883W        W31198  39.717  11.290   3.661
58884W        W31199  39.478  11.699   3.446
58885W        W31200   2.241  42.936   3.235
58886W        W31201  17.651  11.623  10.407
58887W        W31202  34.444  33.650   0.899
58888W        W31203  43.979  36.465   2.319
58889W        W31204  26.750  38.507   2.783
58890W        W31205  13.934  31.087  14.461
58891W        W31206  16.883   4.834   0.433
58892W        W31207  13.930  22.619   4.097
58893W        W31208  25.061   4.990  12.537
58894W        W31209   6.250  26.717   2.452
58895W        W31210  37.225  44.878  13.479
58896W        W31211  13.670  39.468   3.300
58897W        W31212  21.030   2.406  12.640
58898W        W31213   3.499  17.359  13.302
58899W        W31214  17.112  30.940   3.662
58900W        W31215   5.473  38.730  11.088
58901W        W31216   3.974  44.428  11.007
58902W        W31217   4.882  21.023  14.310
58903W        W31218  40.722  11.154   3.708
58904W        W31219  21.979  12.216   3.833
58905W        W31220  39.891  40.449   1.701
58906W        W31221  10.925  18.566   4.345
58907W        W31222  32.777   5.317   4.613
58908W        W31223  24.003   6.485  14.225
58909W        W31224  19.017  20.489   0.313
58910W        W31225  41.348   9.925  13.015
58911W        W31226  32.526   9.364   4.237
58912W        W31227   3.991  34.495   4.649
58913W        W31228  25.196   4.433   4.579
58914W        W31229  27.928  26.638   0.352
58915W        W31230  39.785  30.572   0.688
58916W        W31231  39.002  25.143  10.729
58917W        W31232  35.574  41.541   3.088
58918W        W31233  17.815   5.018  14.531
58919W        W31234  15.618  27.538   4.606
58920W        W31235  26.177  11.360  12.140
58921W        W31236  36.447  43.997  10.978
58922W        W31237  39.407  43.759   0.387
58923W        W31238  35.162  29.540  11.963
58924W        W31239  17.043   5.207  10.693
58925W        W31240  14.287  28.848   4.300
58926W        W31241  25.494  14.217   0.999
58927W        W31242   2.391  27.657  12.682
58928W        W31243   7.196  32.913  10.602
58929W        W31244  15.290   8.569   2.182
58930W        W31245  10.634  15.169   3.832
58931W        W31246  44.032  27.717  14.543
58932W        W31247  31.138  25.474   0.757
58933W        W31248   0.720  20.675   3.451
58934W        W31249  22.622   4.986   2.678
58935W        W31250   4.575  18.566   4.748
58936W        W31251   8.799  24.502   3.841
58937W        W31252  18.020  12.665  11.084
58938W        W31253  23.101  34.886  11.237
58939W        W31254  33.463  20.141  11.933
58940W        W31255   5.004  38.542  11.120
58941W        W31256  32.996  38.550   2.637
58942W        W31257  31.116   1.871   3.648
58943W        W31258   3.664  36.608   1.813
58944W        W31259  37.930  33.402  14.138
58945W        W31260  34.055   8.743   0.242
58946W        W31261   9.911  18.735  13.460
58947W        W31262  21.255  40.279  14.997
58948W        W31263  34.655  26.414   0.011
58949W        W31264  33.484  37.472  10.715
58950W        W31265  29.079  43.649   1.814
58951W        W31266   5.425  35.995  11.634
58952W        W31267  36.917  27.675   2.943
58953W        W31268  41.327  20.588  13.069
58954W        W31269   1.767  10.802  13.468
58955W        W31270  29.240  25.413   0.907
58956W        W31271  24.502  13.195   1.001
58957W        W31272  24.666  23.430  13.449
58958W        W31273  21.193  11.402  14.915
58959W        W31274  35.105  25.168   2.628
58960W        W31275   7.340  29.224   4.844
58961W        W31276  14.726  34.131  11.285
58962W        W31277  24.935  26.079   0.778
58963W        W31278  32.291  16.089  14.743
58964W        W31279  29.089  16.609   3.406
58965W        W31280  23.619  43.409  13.512
58966W        W31281  16.354   0.709  12.577
58967W        W31282  35.314  19.212   0.289
58968W        W31283   0.988  10.445  11.557
58969W        W31284  42.401  31.553   2.671
58970W        W31285   7.561  36.558  11.634
58971W        W31286  15.584  28.486   0.845
58972W        W31287  32.630   3.388   3.375
58973W        W31288  30.415  43.048   4.134
58974W        W31289  12.267  30.279  11.924
58975W        W31290  38.912  36.020  12.939
58976W        W31291   9.950  35.488   0.072
58977W        W31292  35.049   8.304  12.869
58978W        W31293  37.903  12.093   0.822
58979W        W31294  32.895  28.639  10.621
58980W        W31295  11.407  14.764  10.713
58981W        W31296   5.862  38.637  14.345
58982W        W31297  26.566  17.517  11.029
58983W        W31298   5.007  11.380  14.356
58984W        W31299  39.258  34.050   2.352
58985W        W31300  28.419  31.022   2.607
58986W        W31301  10.884  24.497  13.905
58987W        W31302  37.646  39.727  13.554
58988W        W31303  13.995  23.931  13.619
58989W        W31304   4.642   1.871  12.520
58990W        W31305   6.438  32.328   0.929
58991W        W31306  34.608  15.827  11.929
58992W        W31307  35.807  44.756   3.101
58993W        W31308   3.907  24.051  12.361
58994W        W31309  44.353  37.461   2.423
58995W        W31310  33.839  37.041   0.301
58996W        W31311  20.710   3.414   0.553
58997W        W31312  43.934  34.047   4.508
58998W        W31313  39.101  38.342  12.002
58999W        W31314  29.278  25.536  13.872
59000W        W31315  39.926  43.477  12.013
59001W        W31316  41.715  32.645  12.457
59002W        W31317  32.566  40.112  11.982
59003W        W31318  11.549  25.234  12.816
59004W        W31319  39.862  43.566  11.534
59005W        W31320  30.509  40.559  14.933
59006W        W31321  14.849  15.281   4.290
59007W        W31322  37.357   6.410   0.740
59008W        W31323  43.783   0.776   3.807
59009W        W31324  24.716  39.631   4.152
59010W        W31325  22.893  44.404   3.927
59011W        W31326  22.301  18.725  13.845
59012W        W31327  24.071  36.843   2.317
59013W        W31328  34.091  28.644  14.381
59014W        W31329  21.695  15.523  14.585
59015W        W31330   0.433   9.648   1.904
59016W        W31331   6.843  29.732  10.661
59017W        W31332  29.383   2.655   3.135
59018W        W31333  13.248  31.479   2.881
59019W        W31334   2.703  22.644   1.714
59020W        W31335  42.058  44.521  12.251
59021W        W31336  20.964  35.108  10.317
59022W        W31337  18.792  31.634  13.851
59023W        W31338  41.947   4.765  10.228
59024W        W31339   6.024   4.328  14.403
59025W        W31340  37.847  35.454  11.984
59026W        W31341  39.977  18.635  10.892
59027W        W31342  10.600  27.949  13.480
59028W        W31343  37.979  34.322  12.761
59029W        W31344  30.984  15.580   3.250
59030W        W31345  12.258  26.765  11.763
59031W        W31346  28.863  12.688   4.042
59032W        W31347  10.252   2.429  11.750
59033W        W31348  44.271  20.761  10.733
59034W        W31349  21.939   8.284   2.679
59035W        W31350  36.528  16.908   2.932
59036W        W31351  37.790  23.043  13.034
59037W        W31352  14.815  21.759  10.691
59038W        W31353   0.195  43.287  13.128
59039W        W31354   7.965  16.797  13.874
59040W        W31355  22.325  13.552   3.416
59041W        W31356  41.315   7.416  14.237
59042W        W31357  43.246  19.505   1.786
59043W        W31358  21.022  29.110  10.717
59044W        W31359  41.432  42.843  10.228
59045W        W31360  26.089  35.566  13.556
59046W        W31361  21.878  35.579   3.721
59047W        W31362  25.607  16.491   1.994
59048W        W31363  26.964  30.645  14.174
59049W        W31364  27.582   7.688  12.184
59050W        W31365   7.193  19.950   4.499
59051W        W31366   5.858  36.427  13.626
59052W        W31367  21.650   4.620  11.126
59053W        W31368  32.705  14.182   4.294
59054W        W31369  32.117  39.856   4.428
59055W        W31370  43.485  39.905  13.712
59056W        W31371  42.769  28.913   4.338
59057W        W31372  15.805   0.745   3.750
59058W        W31373   4.819  42.771  11.255
59059W        W31374   2.302   4.030   4.625
59060W        W31375  41.283  25.130   2.679
59061W        W31376  38.350  43.766   0.273
59062W        W31377  24.386  14.584  13.353
59063W        W31378  33.349   6.581  13.858
59064W        W31379  38.464   9.173  12.401
59065W        W31380  33.177   1.427   0.246
59066W        W31381  12.409   9.250  10.631
59067W        W31382   5.171  15.227   2.355
59068W        W31383  27.554   7.399  10.499
59069W        W31384  34.537   4.016  11.623
59070W        W31385   0.858   4.961  11.551
59071W        W31386  35.922   8.588   0.987
59072W        W31387  33.828  18.346  10.446
59073W        W31388  35.837  42.001  13.248
59074W        W31389  19.707  38.058  10.964
59075W        W31390  40.040  26.039  14.509
59076W        W31391  16.968  24.511  13.794
59077W        W31392  12.215   6.875  12.113
59078W        W31393  26.433   8.344   3.256
59079W        W31394   9.992  36.571   1.422
59080W        W31395  19.075  20.033   0.033
59081W        W31396  32.464  11.851   4.699
59082W        W31397  17.757  19.837  13.116
59083W        W31398  12.120  42.614   1.609
59084W        W31399  32.134  14.151  11.046
59085W        W31400  43.527  44.523   0.793
59086W        W31401  41.312   8.370  11.200
59087W        W31402   6.911   9.582  11.445
59088W        W31403  39.035  20.250  12.866
59089W        W31404   2.772  18.536   0.349
59090W        W31405  30.222   3.192   2.154
59091W        W31406   8.093  37.755   0.247
59092W        W31407  23.245   7.841   3.312
59093W        W31408  38.969  42.865   1.443
59094W        W31409  30.693  35.929  14.403
59095W        W31410  33.414  19.270   0.054
59096W        W31411   7.127  22.097   3.675
59097W        W31412  40.368   9.085   3.565
59098W        W31413  13.840   6.921   2.067
59099W        W31414  27.848   1.737  14.479
59100W        W31415  42.237  32.564  13.788
59101W        W31416  22.100  40.873  14.031
59102W        W31417  28.495   0.248   0.317
59103W        W31418  10.920  39.496  12.665
59104W        W31419  44.904  37.984   1.889
59105W        W31420  17.576   2.438  14.287
59106W        W31421  28.400  22.107   4.437
59107W        W31422  27.974   6.399   1.696
59108W        W31423   6.315  35.404   3.406
59109W        W31424  42.287  20.572  14.181
59110W        W31425  36.433   2.757   2.576
59111W        W31426  38.878  26.356   9.965
59112W        W31427  31.492  12.731   1.297
59113W        W31428  31.227  14.935   2.503
59114W        W31429  31.914  12.431   4.218
59115W        W31430   9.722  41.493  13.504
59116W        W31431  19.230  39.484  14.243
59117W        W31432  38.089  38.441  14.002
59118W        W31433  25.958  35.940   2.278
59119W        W31434  23.627  37.645   2.433
59120W        W31435  12.290  25.955  14.110
59121W        W31436  15.138  15.308  13.501
59122W        W31437  26.748   6.767  12.465
59123W        W31438  20.659  36.374   3.442
59124W        W31439  15.552  42.843   1.756
59125W        W31440   8.993  16.532   2.902
59126W        W31441  27.483   5.486  14.581
59127W        W31442  39.107  43.496   2.859
59128W        W31443   5.530   4.477  14.452
59129W        W31444  17.118  43.340  12.361
59130W        W31445  26.643  32.416  11.660
59131W        W31446  41.700  10.806  13.457
59132W        W31447  29.019   8.353   3.377
59133W        W31448  20.028  31.184   3.455
59134W        W31449  22.753   3.283   2.779
59135W        W31450  35.952  15.663  13.962
59136W        W31451  22.533  39.646   1.294
59137W        W31452  19.785  17.472  11.293
59138W        W31453  17.551  38.623  11.910
59139W        W31454  32.535  13.371   0.808
59140W        W31455  26.054  14.329  13.484
59141W        W31456  43.038  38.529   1.421
59142W        W31457  38.851  17.080   3.502
59143W        W31458   8.302  26.027  13.369
59144W        W31459  10.384  21.149  13.341
59145W        W31460  28.774  17.807  12.480
59146W        W31461   5.474  38.595  13.398
59147W        W31462  43.389   0.202  14.790
59148W        W31463  12.076  27.225   4.638
59149W        W31464  15.370  15.567  11.630
59150W        W31465  32.467   3.378   2.461
59151W        W31466  36.025  40.850  14.405
59152W        W31467   3.365  12.831  12.665
59153W        W31468  21.691  32.276   0.047
59154W        W31469   2.260  43.091  14.391
59155W        W31470  10.868   1.348   3.607
59156W        W31471  27.629  39.804   0.450
59157W        W31472  26.898  26.568  10.134
59158W        W31473  20.214  42.096   0.376
59159W        W31474  17.264  17.610  14.037
59160W        W31475  16.398  34.683   1.640
59161W        W31476  10.120  34.497  13.547
59162W        W31477  26.763   9.297  14.904
59163W        W31478   5.916   5.483  11.086
59164W        W31479  16.668  30.940  14.278
59165W        W31480   3.200   3.246  13.582
59166W        W31481  43.086   2.335   1.897
59167W        W31482   2.845  29.588   4.878
59168W        W31483  43.995   0.946   0.210
59169W        W31484  42.781  27.399  12.735
59170W        W31485  40.881   7.688  13.616
59171W        W31486  27.028  24.463   3.117
59172W        W31487   2.797  18.586  14.802
59173W        W31488   2.532   0.849   2.843
59174W        W31489   9.595  20.582   0.765
59175W        W31490  26.942  19.027   1.276
59176W        W31491  35.845  43.927  11.614
59177W        W31492  32.896   4.736   3.223
59178W        W31493  39.320   1.299  13.877
59179W        W31494  14.826  24.039  14.814
59180W        W31495   6.582   7.809  11.923
59181W        W31496  16.334  33.990   2.724
59182W        W31497  20.418  30.923  11.012
59183W        W31498   3.494  15.513   5.229
59184W        W31499   1.481  28.283   0.882
59185W        W31500   3.371  21.283   2.905
59186W        W31501  43.089   2.478  10.791
59187W        W31502  38.972  16.760   1.967
59188W        W31503  26.581   1.214   3.820
59189W        W31504  13.786  35.154   2.233
59190W        W31505  29.108   6.964  13.218
59191W        W31506  44.833  26.164  14.088
59192W        W31507  20.612   9.408  12.331
59193W        W31508  16.332  22.611  13.444
59194W        W31509  44.302  27.585   0.494
59195W        W31510  41.968   6.813  10.623
59196W        W31511  23.102   7.106  14.936
59197W        W31512  34.178  11.177  14.452
59198W        W31513  38.114  10.279   0.680
59199W        W31514  20.557  15.218   4.122
59200W        W31515  29.046  17.298   3.214
59201W        W31516   5.266  42.049   0.286
59202W        W31517  30.440  30.678  14.811
59203W        W31518  13.246  32.943  12.037
59204W        W31519   7.251  34.114   0.790
59205W        W31520  23.818   9.215   1.431
59206W        W31521  18.672  34.890  11.953
59207W        W31522  29.582  32.012  13.500
59208W        W31523   8.669  43.488  14.024
59209W        W31524  18.312  15.836  13.006
59210W        W31525  23.125  42.821  13.355
59211W        W31526   2.201  34.402  12.893
59212W        W31527  44.463  15.179  11.995
59213W        W31528   2.425  33.172   2.273
59214W        W31529   7.360  10.741  10.546
59215W        W31530  38.949  12.370   2.278
59216W        W31531  34.474  25.029  12.576
59217W        W31532   8.840  31.890  11.630
59218W        W31533  37.185  43.146  12.426
59219W        W31534  40.351  43.716   2.694
59220W        W31535  26.427  26.658   0.367
59221W        W31536  11.619  37.572   0.139
59222W        W31537  18.528  12.865  13.059
59223W        W31538  33.443   6.515   0.860
59224W        W31539  31.007  28.399  10.322
59225W        W31540  36.892  27.061  12.586
59226W        W31541  30.694   4.902  13.440
59227W        W31542  23.611  11.258  10.785
59228W        W31543  10.761  25.169  14.679
59229W        W31544  12.208   6.928   2.954
59230W        W31545  30.639  39.992  13.566
59231W        W31546  32.717  10.656  14.327
59232W        W31547   3.062  27.398  11.050
59233W        W31548  12.669  36.279  14.381
59234W        W31549  17.160  20.315  13.408
59235W        W31550  16.061  15.437  13.196
59236W        W31551   6.361   3.210   4.754
59237W        W31552  22.132  23.502  12.103
59238W        W31553  40.704  39.863   1.379
59239W        W31554  35.778  39.146   2.888
59240W        W31555  39.912  16.544  12.863
59241W        W31556  26.672  14.371   3.380
59242W        W31557  17.322  42.257  11.597
59243W        W31558  30.628  27.677  12.407
59244W        W31559  26.126   7.904  13.843
59245W        W31560   7.014  12.404   3.569
59246W        W31561   4.579  30.452  12.931
59247W        W31562  25.477  36.990  14.985
59248W        W31563  30.617   0.372   0.888
59249W        W31564   3.989  22.569   1.427
59250W        W31565  12.254   9.261  12.558
59251W        W31566  26.959  32.910  12.478
59252W        W31567  14.838  31.126   2.378
59253W        W31568  33.012  41.302   0.794
59254W        W31569  11.056  42.293   3.126
59255W        W31570  26.672  20.693  13.999
59256W        W31571  38.019  11.015   2.903
59257W        W31572  25.213   5.033   3.142
59258W        W31573   9.790  44.203   4.139
59259W        W31574  39.958  31.481  11.423
59260W        W31575  34.659  29.437   4.555
59261W        W31576  19.753  28.974   4.196
59262W        W31577  34.676   5.681  14.224
59263W        W31578  20.093  17.670   4.849
59264W        W31579  37.857  35.427   4.203
59265W        W31580  33.611  30.944   0.434
59266W        W31581   7.827  11.629  10.443
59267W        W31582  25.242  36.913  10.745
59268W        W31583  28.566  26.271  11.122
59269W        W31584  41.029  19.938  11.156
59270W        W31585  40.051  26.896   1.719
59271W        W31586  28.660   5.856   0.426
59272W        W31587   8.214  29.379   1.166
59273W        W31588  33.989  28.375  10.788
59274W        W31589   0.161   4.790   2.378
59275W        W31590  39.150  27.931   1.415
59276W        W31591   8.149   6.057   2.813
59277W        W31592   9.802   0.869  11.832
59278W        W31593  42.221  31.839   3.058
59279W        W31594  20.122   1.863   3.626
59280W        W31595  24.006   7.241  13.623
59281W        W31596   3.858   5.880  13.102
59282W        W31597  21.234  32.495   2.933
59283W        W31598  32.076  11.290   0.591
59284W        W31599  21.604  32.435   1.214
59285W        W31600   9.657  38.493   0.416
59286W        W31601  37.118  41.753  13.323
59287W        W31602  36.393  15.364  12.754
59288W        W31603  30.276   0.871  13.355
59289W        W31604  33.076  33.519   4.908
59290W        W31605  44.014   8.664   2.871
59291W        W31606   2.378  43.248   1.250
59292W        W31607   7.083  11.523   2.796
59293W        W31608  12.813  24.703   1.367
59294W        W31609  17.644  41.453  12.062
59295W        W31610   4.920  20.576   3.041
59296W        W31611  11.861   3.021  12.137
59297W        W31612  28.639  37.906   0.408
59298W        W31613  41.864  17.566  14.918
59299W        W31614  25.052  24.899  10.651
59300W        W31615  26.572  32.344  14.499
59301W        W31616  39.474  37.053  10.697
59302W        W31617  39.357  43.703  11.567
59303W        W31618   1.728  34.771  13.892
59304W        W31619   5.432  15.325  11.150
59305W        W31620  28.950  26.090   0.985
59306W        W31621  31.605  25.723  14.242
59307W        W31622  40.637  26.038   1.358
59308W        W31623   6.316  29.960   2.491
59309W        W31624  43.048  27.491   1.327
59310W        W31625  30.200   7.939  12.545
59311W        W31626  30.146   6.911  12.349
59312W        W31627  14.778   3.176   0.895
59313W        W31628  10.132  23.698   4.062
59314W        W31629  35.456  21.153   4.669
59315W        W31630  11.616  29.506  11.421
59316W        W31631  32.192   3.321   0.864
59317W        W31632  25.856  13.625   0.389
59318W        W31633  22.218   8.280   3.557
59319W        W31634   2.831  22.894  11.603
59320W        W31635  13.885  23.541  10.721
59321W        W31636   5.609  23.393   0.063
59322W        W31637  20.054  16.620  11.537
59323W        W31638  11.176  25.217   1.911
59324W        W31639  18.664   4.230  10.749
59325W        W31640  37.074  44.296   0.188
59326W        W31641  19.497  20.130  12.868
59327W        W31642  12.851  11.646   0.383
59328W        W31643  35.312  23.624   0.442
59329W        W31644   1.295  31.099   4.675
59330W        W31645   9.612  31.719   4.123
59331W        W31646  33.863  44.933  12.019
59332W        W31647  11.746  17.115  13.251
59333W        W31648   9.138  36.402   0.859
59334W        W31649  23.315  24.042  12.030
59335W        W31650  39.358  24.197   2.686
59336W        W31651   3.715  33.006  11.062
59337W        W31652   6.476  12.891  11.648
59338W        W31653  34.723  39.444   2.768
59339W        W31654  44.753  11.713   3.683
59340W        W31655  19.347   9.166   0.514
59341W        W31656  44.441   6.955  13.292
59342W        W31657  36.097  24.071  13.431
59343W        W31658  18.127  34.449   3.317
59344W        W31659   4.975  39.195   2.389
59345W        W31660  43.832  16.184  14.312
59346W        W31661  32.711   9.398   1.722
59347W        W31662  38.809  36.000  14.718
59348W        W31663  19.834  37.879   1.493
59349W        W31664  33.527  43.500   3.612
59350W        W31665  37.044  44.306   3.649
59351W        W31666   2.442  42.353  11.529
59352W        W31667  30.458  36.160   2.958
59353W        W31668  24.654  31.116  12.411
59354W        W31669  39.894  21.787  12.443
59355W        W31670   6.191  14.527   3.383
59356W        W31671  27.097  14.186  13.511
59357W        W31672  26.824   9.633  14.524
59358W        W31673  24.951  15.810  12.100
59359W        W31674   7.926  14.305   2.571
59360W        W31675  30.968  13.305   4.723
59361W        W31676   5.411   6.959  12.542
59362W        W31677  17.533  24.994   4.632
59363W        W31678   1.239  23.542  14.530
59364W        W31679  39.763  36.076  13.328
59365W        W31680  28.078  14.510   0.425
59366W        W31681   6.368   2.462   0.295
59367W        W31682   3.656  42.567   3.374
59368W        W31683  26.579  22.552   5.123
59369W        W31684   4.296  23.403  11.168
59370W        W31685  22.536  34.147  12.845
59371W        W31686  44.981  20.512  11.252
59372W        W31687  39.985  37.107  11.940
59373W        W31688  39.289  11.588  12.629
59374W        W31689  26.696  18.692  14.429
59375W        W31690   8.152  22.284   0.743
59376W        W31691   0.175  32.062  14.167
59377W        W31692  43.341   1.406   3.266
59378W        W31693  39.434  43.201   2.590
59379W        W31694  14.144   4.711   0.853
59380W        W31695  28.436   2.005   2.303
59381W        W31696  36.301  12.720  11.590
59382W        W31697  20.779   2.923  11.090
59383W        W31698  28.511   9.676   2.703
59384W        W31699  44.419  43.375  12.641
59385W        W31700   4.885  33.573  10.640
59386W        W31701  15.241   3.307   3.238
59387W        W31702  16.812  35.470   2.245
59388W        W31703  30.056  30.732   1.206
59389W        W31704   5.309  13.311   0.120
59390W        W31705  34.381  34.675  12.126
59391W        W31706   9.700  35.056  11.396
59392W        W31707  34.542  16.995   0.330
59393W        W31708   7.830  31.020  11.139
59394W        W31709  12.357  15.442  14.851
59395W        W31710  21.080  38.995   2.684
59396W        W31711  11.073  16.063  12.733
59397W        W31712  37.404  12.768   4.956
59398W        W31713  12.086  30.968   4.083
59399W        W31714  18.245  12.051   1.270
59400W        W31715  21.281   6.341   1.785
59401W        W31716  22.297  10.644   2.344
59402W        W31717  17.744  40.868  14.811
59403W        W31718   3.095   2.454  14.989
59404W        W31719  42.493  12.245   0.294
59405W        W31720  12.681  40.333   1.301
59406W        W31721  14.365  40.677  12.449
59407W        W31722  24.277  19.162   1.760
59408W        W31723  41.354  10.337  14.766
59409W        W31724  20.135  16.197   0.357
59410W        W31725   7.426   1.397  12.591
59411W        W31726  11.362  39.529  12.395
59412W        W31727   1.471  29.961   1.392
59413W        W31728  19.218  28.334   2.279
59414W        W31729  44.233  11.852   0.240
59415W        W31730  36.931  11.037  12.023
59416W        W31731  34.479  36.328   1.430
59417W        W31732  23.602  43.976  14.271
59418W        W31733  33.750  23.187   0.128
59419W        W31734  34.866  17.512   1.782
59420W        W31735  38.027  28.467   0.230
59421W        W31736  36.462  19.712  12.425
59422W        W31737   5.214  19.662  11.740
59423W        W31738  18.194   8.591  10.085
59424W        W31739  40.557  25.520   4.986
59425W        W31740  11.621   3.519   0.466
59426W        W31741  13.225  18.801   2.778
59427W        W31742  43.923  29.913  10.757
59428W        W31743  35.313  41.900  13.039
59429W        W31744  44.372  33.070  14.354
59430W        W31745  31.100  12.287   2.276
59431W        W31746   5.252   1.031   3.663
59432W        W31747  22.801  11.356  14.406
59433W        W31748  29.620  30.675  13.796
59434W        W31749  36.445  29.661   0.901
59435W        W31750  24.768  10.379   2.823
59436W        W31751  20.318  11.572   2.185
59437W        W31752  23.091  38.807   1.730
59438W        W31753  23.148  12.367   0.959
59439W        W31754  27.213   1.868   3.042
59440W        W31755  36.333  34.755   3.608
59441W        W31756  33.986  43.975   2.205
59442W        W31757   3.113   6.891  14.848
59443W        W31758  32.196   8.254  12.197
59444W        W31759  11.439  18.988  10.571
59445W        W31760  42.623  18.293  11.929
59446W        W31761   3.320  33.568  10.618
59447W        W31762  42.295  43.067  13.445
59448W        W31763  16.812  42.191  12.883
59449W        W31764  21.760  38.844  10.810
59450W        W31765  10.212  10.433   1.958
59451W        W31766  26.937   8.442  13.451
59452W        W31767   3.950   9.275  13.098
59453W        W31768   5.992   2.268  14.415
59454W        W31769  12.850  34.315   1.748
59455W        W31770  11.189  37.380  14.944
59456W        W31771  41.741  30.670   1.644
59457W        W31772  10.645  32.563  11.121
59458W        W31773  38.421  32.945  14.853
59459W        W31774  15.558  34.948  13.826
59460W        W31775  24.284  23.787  14.204
59461W        W31776  31.895   8.825   3.550
59462W        W31777  17.082  37.291  14.527
59463W        W31778   3.396  21.773  13.753
59464W        W31779  39.641  26.493   0.687
59465W        W31780   7.159  11.168   4.714
59466W        W31781  15.660  44.983  11.479
59467W        W31782  41.819   1.697  14.298
59468W        W31783  32.198   9.402  10.270
59469W        W31784  16.823  43.315  13.416
59470W        W31785   4.483  35.651   2.329
59471W        W31786   1.077  44.644   2.344
59472W        W31787  15.467  38.452   1.922
59473W        W31788  24.082  33.843   1.417
59474W        W31789   2.433  29.115   1.170
59475W        W31790  35.678  43.024   1.503
59476W        W31791  31.420  31.923  10.651
59477W        W31792  25.214  14.650   1.128
59478W        W31793  28.561  17.954  14.429
59479W        W31794  27.163  35.742   4.802
59480W        W31795  18.450  34.136   4.124
59481W        W31796   0.389   9.354  10.273
59482W        W31797   1.934   7.454  11.163
59483W        W31798  20.438  38.718   1.657
59484W        W31799  32.653  43.713   0.277
59485W        W31800  36.333  37.039  13.428
59486W        W31801  31.480  34.382   1.217
59487W        W31802  26.096   3.945   9.809
59488W        W31803  26.560  16.208  11.702
59489W        W31804  28.043  29.169  11.571
59490W        W31805  23.600  42.361   1.620
59491W        W31806  27.554  27.430   4.319
59492W        W31807   7.992  10.869   1.764
59493W        W31808   9.390  36.238   3.687
59494W        W31809  33.351  15.663  12.195
59495W        W31810  34.099  42.770  13.635
59496W        W31811  26.574   5.797   2.862
59497W        W31812  44.508  21.239   1.799
59498W        W31813  36.809  14.910  13.464
59499W        W31814  13.273  23.486  11.223
59500W        W31815  12.059  31.900   3.365
59501W        W31816  16.318  26.672   2.423
59502W        W31817  17.228  10.674   9.782
59503W        W31818   5.413  12.218  11.674
59504W        W31819  43.506   9.121  14.764
59505W        W31820  13.563   9.986  14.346
59506W        W31821   1.438  13.552   0.435
59507W        W31822  14.252  24.695   3.074
59508W        W31823   0.863   8.212  12.824
59509W        W31824   1.768  43.561   0.005
59510W        W31825  33.681  35.425  13.918
59511W        W31826  31.901  43.711  11.664
59512W        W31827   3.260  26.607  13.051
59513W        W31828  24.710  15.584  13.049
59514W        W31829   0.215  34.318  11.130
59515W        W31830  41.593  39.111  10.789
59516W        W31831   2.765  28.538  11.653
59517W        W31832  27.131   2.091   0.174
59518W        W31833  16.212  16.282   2.877
59519W        W31834   6.412  24.330   2.750
59520W        W31835  32.465  11.346   4.548
59521W        W31836  36.510  41.915   0.484
59522W        W31837   1.273  30.035  12.120
59523W        W31838  13.180  40.473  13.458
59524W        W31839  27.588  21.174  14.050
59525W        W31840  13.658  30.027   1.292
59526W        W31841  23.563  11.635   3.745
59527W        W31842  26.702  33.399   3.650
59528W        W31843  33.507  15.156   0.462
59529W        W31844  33.712  37.499  13.348
59530W        W31845  40.614  21.339   2.052
59531W        W31846  24.567  15.260   1.628
59532W        W31847  11.866  12.878   3.200
59533W        W31848  24.034   8.719  13.931
59534W        W31849  21.523  20.521   0.301
59535W        W31850  41.900  21.742   0.445
59536W        W31851   3.116  17.597   2.690
59537W        W31852  35.994  13.783   1.358
59538W        W31853  41.056  20.922   4.170
59539W        W31854  17.022  26.458  13.561
59540W        W31855  35.162  23.591   2.752
59541W        W31856  23.281  38.546  14.330
59542W        W31857  33.994   5.692  12.081
59543W        W31858  40.062   6.857  13.775
59544W        W31859  13.850  24.781   0.250
59545W        W31860  38.942  36.087   2.369
59546W        W31861  15.277  11.735  12.981
59547W        W31862   7.592  43.917   4.051
59548W        W31863   0.448  17.495  12.149
59549W        W31864  44.865   5.434   3.418
59550W        W31865   7.760   2.028  13.954
59551W        W31866  37.406  25.078   2.424
59552W        W31867  41.175  41.055  13.415
59553W        W31868  21.463  25.622  13.037
59554W        W31869  41.946  10.768   4.305
59555W        W31870  41.442  19.624  11.121
59556W        W31871   7.823  13.223  12.762
59557W        W31872  16.225   0.999  13.008
59558W        W31873  26.075   0.054  14.412
59559W        W31874   0.553  41.924   1.890
59560W        W31875  32.427   4.977   3.107
59561W        W31876  38.932  29.064   0.414
59562W        W31877  27.734  32.893   1.348
59563W        W31878  22.013  22.189   2.329
59564W        W31879  16.040   6.659   2.349
59565W        W31880  29.489  39.585   4.533
59566W        W31881  25.223   6.481   4.696
59567W        W31882  24.035  31.080  12.050
59568W        W31883  17.564   3.417   1.334
59569W        W31884   8.210   3.627  13.402
59570W        W31885  13.163   7.201  12.934
59571W        W31886  32.969   1.930   3.415
59572W        W31887   6.343   3.329   4.224
59573W        W31888  16.746  30.986   1.224
59574W        W31889  12.814  25.701  12.485
59575W        W31890  10.100  39.562  14.612
59576W        W31891  44.450   4.779  14.452
59577W        W31892  36.414  13.807  13.064
59578W        W31893  23.519  19.562  12.550
59579W        W31894  32.725   1.688   0.352
59580W        W31895  21.432  12.297  11.512
59581W        W31896   2.911  38.343   4.369
59582W        W31897  18.291   8.859  11.733
59583W        W31898  35.301   3.143  12.480
59584W        W31899  24.629  30.890   0.814
59585W        W31900  38.204   7.206   3.721
59586W        W31901   6.702  26.466  10.774
59587W        W31902   6.431  12.296  14.980
59588W        W31903  32.926  21.751   2.623
59589W        W31904  16.051  20.057  11.610
59590W        W31905  36.908  24.584  12.232
59591W        W31906  14.309  13.427   0.468
59592W        W31907  31.386  25.764   4.173
59593W        W31908  21.511  20.967   0.004
59594W        W31909  12.564  16.275   0.893
59595W        W31910  27.675  29.492  10.653
59596W        W31911   8.346  35.388   2.721
59597W        W31912  38.060  25.168  14.001
59598W        W31913   9.896  17.311  13.352
59599W        W31914  22.556  34.389   2.943
59600W        W31915  44.190  39.588  12.386
59601W        W31916  42.347  31.709  12.434
59602W        W31917  44.292   4.749   3.377
59603W        W31918  39.685  38.747   0.958
59604W        W31919  38.406  15.187  14.393
59605W        W31920  42.336  34.034   1.277
59606W        W31921  42.863  12.104  14.961
59607W        W31922  22.668  42.580   0.444
59608W        W31923   9.728  26.616   0.885
59609W        W31924   9.859  33.496  12.025
59610W        W31925  43.319  25.102  14.753
59611W        W31926  27.430  13.238   1.243
59612W        W31927  11.676  20.963   0.039
59613W        W31928  29.816   1.334   4.078
59614W        W31929  32.637   8.714  11.555
59615W        W31930  34.069  14.891   3.296
59616W        W31931  10.142  21.980   4.554
59617W        W31932   6.574   4.306  14.379
59618W        W31933  15.852  30.960  11.828
59619W        W31934  36.410  19.483   1.647
59620W        W31935  38.501  37.899  10.630
59621W        W31936  10.168  42.695  12.427
59622W        W31937  13.172   4.907   2.782
59623W        W31938  21.100  24.712   1.204
59624W        W31939  34.898  12.103  14.834
59625W        W31940  37.916  42.959   2.939
59626W        W31941   5.808  34.088  12.116
59627W        W31942  25.516  18.761   1.522
59628W        W31943  33.270  41.231   2.083
59629W        W31944  22.500  10.674   3.219
59630W        W31945   7.491   0.173  14.984
59631W        W31946  35.891   1.924   3.342
59632W        W31947  26.108  30.097   2.256
59633W        W31948  32.928  44.705   2.837
59634W        W31949  20.680  18.364   4.766
59635W        W31950  14.567   9.364   5.151
59636W        W31951  26.539  19.751   1.049
59637W        W31952  15.198  13.702   4.656
59638W        W31953   2.361   7.397   2.444
59639W        W31954  33.768  44.329   4.480
59640W        W31955  29.913   4.238  10.637
59641W        W31956  43.910   9.351  13.372
59642W        W31957  41.690  44.042  13.814
59643W        W31958  11.324   4.150  12.974
59644W        W31959  10.983  28.139   3.250
59645W        W31960  22.518  24.102   3.134
59646W        W31961  28.713  38.871   1.637
59647W        W31962   1.391   9.428  10.944
59648W        W31963  43.645  26.682   1.812
59649W        W31964  35.690   1.294  12.582
59650W        W31965   7.276  10.856  13.074
59651W        W31966  34.596  41.254   2.862
59652W        W31967  11.410  32.538   0.326
59653W        W31968  20.807  25.732   3.926
59654W        W31969  10.186  34.104  11.970
59655W        W31970   9.675   0.013  12.377
59656W        W31971  27.500  25.026   3.486
59657W        W31972   2.962   2.521   1.788
59658W        W31973  16.593  15.768  13.830
59659W        W31974   9.512  40.759   4.220
59660W        W31975   8.594  12.561   2.136
59661W        W31976  42.951  12.817   3.161
59662W        W31977  39.850  10.601   2.683
59663W        W31978  44.281  31.596  12.570
59664W        W31979  29.286   8.726  13.641
59665W        W31980   5.341  36.507  14.779
59666W        W31981  27.883  28.465   2.771
59667W        W31982  27.908  21.236  11.146
59668W        W31983  43.050  44.360  14.628
59669W        W31984   5.126  42.955  11.645
59670W        W31985   9.136  12.983   3.667
59671W        W31986   1.648  22.322   3.133
59672W        W31987  16.084  31.565  10.314
59673W        W31988  17.794  40.018   3.693
59674W        W31989  10.603  38.972  11.122
59675W        W31990  25.700  44.568   0.370
59676W        W31991  25.498  19.562  11.164
59677W        W31992  24.129  12.274  13.615
59678W        W31993  22.692  33.812  14.757
59679W        W31994  19.736  41.751  13.761
59680W        W31995  32.976   7.120  12.573
59681W        W31996  38.010  44.303  11.599
59682W        W31997  38.746  12.143   1.858
59683W        W31998  31.025  19.247   3.233
59684W        W31999   5.379  19.719   0.873
59685W        W32000  39.460  34.447  13.169
59686W        W32001  22.236   2.761  12.373
59687W        W32002  18.540  13.331   4.576
59688W        W32003  23.526   6.359   2.840
59689W        W32004   0.729  22.020  12.963
59690W        W32005  40.967  44.582  14.113
59691W        W32006  38.323   8.375  11.052
59692W        W32007  32.485   6.236  14.109
59693W        W32008  18.775  35.475  11.408
59694W        W32009  15.654  42.012   2.927
59695W        W32010  27.727  21.498  14.438
59696W        W32011  22.732   1.177  13.974
59697W        W32012  24.499  39.455  10.421
59698W        W32013  22.430  31.594   1.694
59699W        W32014  11.252  35.977  14.370
59700W        W32015   1.281  26.007   1.808
59701W        W32016  33.195  17.727   4.610
59702W        W32017  12.656  38.089  14.914
59703W        W32018  16.692  29.976   1.470
59704W        W32019  38.843  17.368   0.004
59705W        W32020   4.934  10.694  10.743
59706W        W32021  41.295   8.053   4.625
59707W        W32022  40.007  39.143   3.279
59708W        W32023  24.494   1.391   1.772
59709W        W32024  30.038  18.117  11.492
59710W        W32025  36.558  32.517   2.388
59711W        W32026  31.963   9.224  11.780
59712W        W32027  30.146  29.466   2.734
59713W        W32028  16.464   2.961   1.844
59714W        W32029   3.267  25.509  14.327
59715W        W32030  11.398  42.393  14.290
59716W        W32031  28.461   3.408  11.999
59717W        W32032  34.397  35.832  10.717
59718W        W32033  35.829  39.951   4.536
59719W        W32034  12.194  43.943   1.448
59720W        W32035  25.171  18.177   2.120
59721W        W32036   6.420  36.006   4.099
59722W        W32037   4.672  29.601   1.074
59723W        W32038   1.325   0.972  11.130
59724W        W32039  29.620  34.143   1.941
59725W        W32040  14.625  21.714   1.963
59726W        W32041  29.590  27.579  10.889
59727W        W32042  42.002   4.222   3.589
59728W        W32043  25.505   1.172  12.172
59729W        W32044  17.585   0.342   4.165
59730W        W32045  16.144  40.506  12.509
59731W        W32046  30.005  35.405   4.604
59732W        W32047  40.247   3.323   4.327
59733W        W32048  38.077  22.807  10.279
59734W        W32049  27.209   1.354  13.448
59735W        W32050   5.446  40.459  14.278
59736W        W32051   0.597  28.071  13.357
59737W        W32052  14.292  21.609  14.465
59738W        W32053  23.794   5.872  13.062
59739W        W32054  31.912  41.295   4.387
59740W        W32055  40.911   9.164  11.208
59741W        W32056  16.144  18.974   0.735
59742W        W32057  13.213  21.538  13.138
59743W        W32058  29.859  22.145   3.302
59744W        W32059  30.930  20.117   4.604
59745W        W32060  17.099  28.201  11.352
59746W        W32061  42.606  19.258   3.313
59747W        W32062   0.174  42.870  12.340
59748W        W32063  24.623  34.616  10.630
59749W        W32064  18.290   2.791  14.154
59750W        W32065  31.595  14.254   1.930
59751W        W32066   8.418  12.800  12.566
59752W        W32067   4.009  26.702   3.789
59753W        W32068  39.022  24.342  10.316
59754W        W32069  44.013  36.930  13.915
59755W        W32070   3.177  15.332   3.944
59756W        W32071  22.214  37.596  11.037
59757W        W32072  32.579  40.078  14.837
59758W        W32073  38.967   7.591  10.324
59759W        W32074  12.337  39.273   3.631
59760W        W32075  16.086  39.847  13.335
59761W        W32076  26.292   1.036  10.814
59762W        W32077  17.216  38.885   1.406
59763W        W32078  14.871  24.745   2.372
59764W        W32079  43.898   4.261  13.510
59765W        W32080  25.236  26.601   1.319
59766W        W32081  15.748  30.928   2.673
59767W        W32082  36.984  28.205  13.840
59768W        W32083  10.247  34.880   3.751
59769W        W32084  15.164  36.127  13.572
59770W        W32085  32.620  38.266  13.557
59771W        W32086  28.550  11.375  11.493
59772W        W32087   6.307   3.643   2.316
59773W        W32088  38.305  42.709   3.206
59774W        W32089  39.106   6.499  11.158
59775W        W32090  16.981  20.904   3.376
59776W        W32091  32.901  36.569   3.315
59777W        W32092  19.169  15.643  13.994
59778W        W32093  35.079   7.117  12.485
59779W        W32094  43.208  23.140   0.468
59780W        W32095  22.924  27.095   0.468
59781W        W32096  32.591  16.035  14.334
59782W        W32097  30.195  20.047  14.198
59783W        W32098  43.064  13.750   2.339
59784W        W32099  29.453   1.762   4.209
59785W        W32100  15.119   5.309  10.572
59786W        W32101  22.074   9.084  13.857
59787W        W32102  36.089  24.624   3.747
59788W        W32103  16.294  28.093   4.929
59789W        W32104   5.800  18.950   2.333
59790W        W32105  20.090  27.661  12.934
59791W        W32106  40.280  14.634  11.513
59792W        W32107  27.995   4.015   3.132
59793W        W32108  11.500  30.792   2.843
59794W        W32109   5.298  27.741   2.831
59795W        W32110  32.865  24.624   4.148
59796W        W32111  25.114  37.852   4.305
59797W        W32112  34.809  32.711   4.045
59798W        W32113  30.429  14.304  12.940
59799W        W32114  33.687   2.457   1.291
59800W        W32115  44.081  40.618   3.769
59801W        W32116  26.272  44.938   0.966
59802W        W32117   7.356  37.488  12.411
59803W        W32118  33.725  40.704  11.080
59804W        W32119   4.136  44.914   1.457
59805W        W32120  27.256  39.059  12.076
59806W        W32121   1.306  16.625   3.646
59807W        W32122   6.655  15.229  11.596
59808W        W32123  41.316   8.828   1.989
59809W        W32124  35.349  12.575  13.430
59810W        W32125  42.278  14.610   0.058
59811W        W32126  26.730  11.242   0.779
59812W        W32127  36.490  32.468  14.493
59813W        W32128  41.129  43.490   1.129
59814W        W32129   0.008  12.855  14.433
59815W        W32130  43.428   7.640  12.617
59816W        W32131   2.271  10.779  13.320
59817W        W32132   9.541   3.088   1.276
59818W        W32133   8.192  35.606  12.505
59819W        W32134  25.563  30.953   3.808
59820W        W32135   6.949  35.243   1.761
59821W        W32136  41.757  18.594  14.709
59822W        W32137  11.201  11.180  11.094
59823W        W32138  21.097   6.452   0.151
59824W        W32139   8.171  38.129   2.052
59825W        W32140  32.596  23.391   0.824
59826W        W32141   9.541  11.100   0.429
59827W        W32142  31.576   9.551   0.695
59828W        W32143  22.627  19.199  12.975
59829W        W32144  37.885  21.988  11.766
59830W        W32145  26.494  37.509  11.361
59831W        W32146  18.230  22.014  11.990
59832W        W32147  12.651  34.606  14.949
59833W        W32148   2.388  17.153  12.469
59834W        W32149  15.462  13.564   4.233
59835W        W32150  14.506  26.184   3.078
59836W        W32151  43.977  30.942   3.364
59837W        W32152  39.096  27.129   2.618
59838W        W32153  31.642   8.428  10.730
59839W        W32154   1.312  12.827   1.834
59840W        W32155   1.011   8.446   3.697
59841W        W32156  20.123   7.272  12.806
59842W        W32157  31.219  32.069   1.486
59843W        W32158   9.221   0.297  12.316
59844W        W32159  12.911  30.883   1.633
59845W        W32160  17.046   6.118  14.906
59846W        W32161  42.557  11.787  14.383
59847W        W32162   4.688  39.867   4.450
59848W        W32163  43.622   5.374   2.639
59849W        W32164  28.272  29.204  14.241
59850W        W32165  29.482   8.377  11.189
59851W        W32166   8.203  23.777   4.096
59852W        W32167  11.280  21.009  11.234
59853W        W32168  19.762  27.066   1.865
59854W        W32169  38.720   6.343  10.871
59855W        W32170   8.825  20.766   2.891
59856W        W32171  29.569  15.768  11.932
59857W        W32172  40.946  25.962   2.629
59858W        W32173  11.641  26.743  10.629
59859W        W32174  25.007  19.009   2.278
59860W        W32175  21.407  30.053   4.577
59861W        W32176  21.998  39.920   3.223
59862W        W32177  11.329  14.356  12.011
59863W        W32178  41.798   4.500   3.163
59864W        W32179  25.261  31.906   0.288
59865W        W32180  16.090  20.665   3.313
59866W        W32181  31.665  17.612  12.820
59867W        W32182  20.740  32.135   0.962
59868W        W32183  18.892  25.460   2.242
59869W        W32184  23.920  42.755   5.020
59870W        W32185  27.918   9.273  13.637
59871W        W32186  25.938  30.434  12.384
59872W        W32187  20.997  14.811  13.346
59873W        W32188  43.460  39.828   0.703
59874W        W32189  18.696  19.666  11.930
59875W        W32190  32.578  21.658  11.460
59876W        W32191   9.874  31.526   0.470
59877W        W32192   6.992   8.835  14.186
59878W        W32193   3.859  30.082  11.251
59879W        W32194  24.495   6.880   4.298
59880W        W32195  13.329  34.578   1.831
59881W        W32196  43.060  18.017   3.660
59882W        W32197  35.116  13.083   1.899
59883W        W32198  19.299  24.911  12.167
59884W        W32199   2.472  43.923   0.368
59885W        W32200   7.855  37.378   3.188
59886W        W32201  15.873  35.436   3.585
59887W        W32202  37.430  14.806   4.154
59888W        W32203   7.591  22.625   4.306
59889W        W32204  32.788  25.581  12.387
59890W        W32205  23.694   0.670   5.034
59891W        W32206  21.035  22.127   1.790
59892W        W32207   7.599  19.275   1.648
59893W        W32208  12.824  15.042   0.522
59894W        W32209  16.892  33.427  12.564
59895W        W32210  10.344  23.665  11.655
59896W        W32211  16.217  21.069   0.266
59897W        W32212  21.666  11.892   1.732
59898W        W32213   6.449  13.274   4.066
59899W        W32214   3.310   7.744   1.245
59900W        W32215  22.541  11.636   2.240
59901W        W32216  14.194  14.838   0.277
59902W        W32217  25.636   9.345   4.242
59903W        W32218   8.103  34.516  14.367
59904W        W32219  13.628  28.145  14.527
59905W        W32220   1.928  11.886   0.680
59906W        W32221  37.998  13.807  11.523
59907W        W32222  11.476  19.879  14.018
59908W        W32223   9.153  44.548  12.066
59909W        W32224  22.539  44.989  11.639
59910W        W32225  24.685  15.297   2.140
59911W        W32226   0.913  37.354  12.605
59912W        W32227  33.947   2.406   2.368
59913W        W32228  14.621  40.946   0.422
59914W        W32229  11.632   0.908  10.022
59915W        W32230  27.146  32.880   4.213
59916W        W32231  23.558  26.727  10.173
59917W        W32232  39.097   9.821  12.028
59918W        W32233   8.246   8.831   1.672
59919W        W32234   1.437  35.874   3.702
59920W        W32235  20.013   9.786   4.185
59921W        W32236  18.869   7.788  14.387
59922W        W32237  37.904  40.425  14.691
59923W        W32238  43.801   3.484   4.699
59924W        W32239  40.793  39.572   0.910
59925W        W32240  15.258  30.259   2.199
59926W        W32241  10.598   6.610  10.653
59927W        W32242  37.343  15.128  14.063
59928W        W32243   6.810  13.199  14.829
59929W        W32244  21.526  18.691   0.571
59930W        W32245  21.628  40.255  12.429
59931W        W32246  12.862  43.342  10.611
59932W        W32247  14.881  40.398  13.403
59933W        W32248  40.111   6.355   1.019
59934W        W32249  24.252  37.084  10.566
59935W        W32250  35.589  24.145   1.643
59936W        W32251   4.199  38.096  14.911
59937W        W32252  41.631  36.280   3.640
59938W        W32253  40.099  30.995   0.723
59939W        W32254  43.266  20.124   0.374
59940W        W32255  41.507  25.311  12.488
59941W        W32256  20.712  32.101  14.940
59942W        W32257  20.329  11.412  10.546
59943W        W32258  17.833  35.471  11.514
59944W        W32259  42.082  40.023  13.779
59945W        W32260   2.165  22.293   3.136
59946W        W32261  27.878   3.289   2.154
59947W        W32262  33.415  17.071  13.064
59948W        W32263  15.547  42.366  11.984
59949W        W32264  31.113  44.683  12.773
59950W        W32265  30.647  32.678  12.128
59951W        W32266  33.821  16.177   0.514
59952W        W32267  22.199  20.796  11.155
59953W        W32268  20.819  16.348  10.743
59954W        W32269  17.989  21.776  14.849
59955W        W32270  20.548   9.197   2.821
59956W        W32271  11.408  11.563   5.182
59957W        W32272  26.612  27.911   0.842
59958W        W32273   5.259   6.354  14.855
59959W        W32274  13.688  32.276  11.693
59960W        W32275  34.992   3.873  13.379
59961W        W32276  33.161  31.805  13.059
59962W        W32277  18.178  19.738   2.837
59963W        W32278  29.106  15.590   3.114
59964W        W32279  20.969  39.456  13.984
59965W        W32280  14.571  30.121  11.132
59966W        W32281  28.973  26.060  12.025
59967W        W32282  29.239   1.202  13.071
59968W        W32283  34.984  22.099   3.374
59969W        W32284  20.707  12.173  12.572
59970W        W32285  32.181  39.914  11.684
59971W        W32286   1.541  11.848   5.016
59972W        W32287  40.124  37.760   0.748
59973W        W32288   0.387  28.424   1.522
59974W        W32289  41.036  35.812   2.915
59975W        W32290  25.421  33.864   9.710
59976W        W32291   4.422  41.430  12.507
59977W        W32292   4.244   7.842   0.293
59978W        W32293  35.360  41.068   1.352
59979W        W32294  40.475  41.393   2.253
59980W        W32295   5.307   1.907   0.440
59981W        W32296   8.417  15.170   1.401
59982W        W32297  25.154   4.401  13.801
59983W        W32298  16.575  28.579  14.832
59984W        W32299   4.806   6.534   0.094
59985W        W32300  18.277  16.715  13.072
59986W        W32301   2.912  41.343   4.409
59987W        W32302  20.425   4.890  13.923
59988W        W32303  23.970  14.107  13.879
59989W        W32304  29.973   0.410  13.475
59990W        W32305  36.148  41.789   0.887
59991W        W32306  37.195  36.498   2.808
59992W        W32307  31.672  41.812  13.443
59993W        W32308   7.321  31.145   1.896
59994W        W32309   7.899   3.690   0.471
59995W        W32310  33.322  13.732  12.811
59996W        W32311  14.869   9.652   4.320
59997W        W32312  36.286  34.888   1.286
59998W        W32313   4.892   6.259  12.096
59999W        W32314  36.463  29.162   1.187
60000W        W32315  39.084  37.965  12.375
60001W        W32316   3.501  36.076  11.582
60002W        W32317  44.453   0.255  14.180
60003W        W32318   7.396  13.619  12.040
60004W        W32319  29.976  36.366   0.490
60005W        W32320  19.865  33.408   2.239
60006W        W32321  39.809   3.294  12.072
60007W        W32322  41.124  32.601  11.004
60008W        W32323  32.699  32.115  13.016
60009W        W32324  40.890  31.183   0.279
60010W        W32325  28.208  23.182   1.247
60011W        W32326  39.904  31.003  12.569
60012W        W32327  18.306  22.040  13.889
60013W        W32328  24.550  20.502  14.497
60014W        W32329  42.111  21.117  11.120
60015W        W32330  16.953  16.558  14.507
60016W        W32331  28.014  17.132   2.912
60017W        W32332  19.151   0.627   4.242
60018W        W32333  40.869  27.165  14.911
60019W        W32334  41.445  12.387  10.403
60020W        W32335  23.724  30.923  11.610
60021W        W32336   7.836   6.691   2.014
60022W        W32337   6.329  33.891  10.951
60023W        W32338  18.142  10.277  13.479
60024W        W32339   8.735  27.075   0.379
60025W        W32340   7.248  43.352  14.648
60026W        W32341  26.462  43.591   1.323
60027W        W32342   5.136  42.362   3.335
60028W        W32343  42.504  44.359   0.914
60029W        W32344  28.277  21.274  14.473
60030W        W32345  38.066  31.875  10.587
60031W        W32346  16.045  37.930   4.276
60032W        W32347  21.296  13.029   3.268
60033W        W32348  14.122   3.254  11.615
60034W        W32349  13.052  15.097  11.490
60035W        W32350  14.804  11.182   3.108
60036W        W32351  41.734  28.574  12.598
60037W        W32352  42.545  14.746  11.495
60038W        W32353  25.845  29.401  11.838
60039W        W32354   7.264  23.901  14.303
60040W        W32355   7.798  32.344   2.811
60041W        W32356  13.071  26.463   1.808
60042W        W32357  29.073  21.400  13.679
60043W        W32358  38.937  35.840  14.237
60044W        W32359   4.346  43.280   1.685
60045W        W32360  38.534  17.071   0.300
60046W        W32361   2.205   4.658  11.870
60047W        W32362   4.128  15.059  11.944
60048W        W32363  14.371  16.694   2.640
60049W        W32364  33.533  38.968  11.861
60050W        W32365  29.381   8.810   3.744
60051W        W32366   1.931  40.444   0.820
60052W        W32367  38.096  27.569  10.371
60053W        W32368  31.565   0.676  10.647
60054W        W32369  29.662  21.825   4.789
60055W        W32370   0.998  25.549   2.767
60056W        W32371   2.752  28.145   3.503
60057W        W32372   6.317  30.341   1.810
60058W        W32373  18.241  20.744  11.144
60059W        W32374  29.164  19.668   0.630
60060W        W32375  36.602  31.182  13.006
60061W        W32376  39.862   8.810  11.626
60062W        W32377  15.762  39.062  14.548
60063W        W32378  42.220  28.207   0.818
60064W        W32379  24.638  35.090   0.329
60065W        W32380  29.083  32.935  10.535
60066W        W32381   8.852  27.431   3.697
60067W        W32382   8.731  41.963  13.653
60068W        W32383   3.044  42.051   2.173
60069W        W32384  33.925  23.546  11.700
60070W        W32385  44.930  30.927   1.871
60071W        W32386  29.249  14.182  11.566
60072W        W32387  15.353  28.233  10.212
60073W        W32388   6.132  37.801  12.921
60074W        W32389  28.509   7.193   2.127
60075W        W32390  14.210  22.637   3.664
60076W        W32391   8.354  30.406   3.135
60077W        W32392  13.851   9.734   1.617
60078W        W32393  30.887  41.032   1.133
60079W        W32394  33.543   8.667   0.830
60080W        W32395   4.369   9.087  13.412
60081W        W32396  15.552  20.728   1.456
60082W        W32397  31.443   6.231   2.371
60083W        W32398  10.834   5.396  12.909
60084W        W32399  19.289  14.309   3.016
60085W        W32400  17.779  28.219  10.765
60086W        W32401   5.712  25.937  12.194
60087W        W32402  18.108  23.513  10.688
60088W        W32403  26.137  34.564   3.444
60089W        W32404  13.313  19.304  12.606
60090W        W32405  30.165  10.165   2.118
60091W        W32406  40.626  17.585   3.074
60092W        W32407   9.921   4.377   1.691
60093W        W32408  36.947  29.868   0.253
60094W        W32409  38.878   5.878  12.006
60095W        W32410  14.231  21.887   4.389
60096W        W32411  37.805   6.691   1.955
60097W        W32412  23.077   5.933  13.932
60098W        W32413  32.602  37.580  12.509
60099W        W32414  25.461  14.118  11.474
60100W        W32415  23.809  36.955  12.861
60101W        W32416  41.252  30.758  11.598
60102W        W32417  39.996  14.178   2.463
60103W        W32418  17.423   8.262  10.292
60104W        W32419  42.935  18.669  14.363
60105W        W32420   9.752  35.869  14.770
60106W        W32421  25.147  26.096  11.966
60107W        W32422  13.121  43.352  11.128
60108W        W32423   4.444  12.389  12.570
60109W        W32424  32.998  10.666   2.413
60110W        W32425   2.454  40.297   2.076
60111W        W32426  17.302  22.725   3.589
60112W        W32427  12.666  18.509  13.410
60113W        W32428  44.350  21.265  10.692
60114W        W32429  23.552  24.156  11.560
60115W        W32430  30.354  13.802   0.958
60116W        W32431  10.181  25.030  11.654
60117W        W32432  41.923  19.014  12.895
60118W        W32433   7.273  33.109  13.561
60119W        W32434  27.456  37.767   4.251
60120W        W32435  38.920   3.311  12.181
60121W        W32436  37.536   5.318  13.812
60122W        W32437  31.041  29.681   2.270
60123W        W32438  20.655  28.899  12.839
60124W        W32439  42.592  40.558   1.354
60125W        W32440  12.512   1.240   3.727
60126W        W32441   9.253   2.358  10.958
60127W        W32442   9.663  32.006   0.350
60128W        W32443  19.097  18.094   3.060
60129W        W32444  30.432  28.400  12.097
60130W        W32445   3.428  41.889  14.886
60131W        W32446  27.728   9.311   0.932
60132W        W32447  37.373  17.344   4.607
60133W        W32448  36.872  34.837   3.611
60134W        W32449  32.386  36.585   4.055
60135W        W32450  42.251  15.644   3.053
60136W        W32451  31.059   7.443  12.775
60137W        W32452  23.716  39.513  13.812
60138W        W32453  44.601   0.548   3.634
60139W        W32454  22.057  36.630   3.937
60140W        W32455  12.187  44.734  11.482
60141W        W32456  15.281  18.721  13.559
60142W        W32457  32.947  35.910   4.494
60143W        W32458  26.980   8.136   0.969
60144W        W32459   3.168  21.217  12.005
60145W        W32460  40.853  15.675  14.928
60146W        W32461  40.410   0.559  11.074
60147W        W32462  18.377  35.877  12.874
60148W        W32463  24.126  42.455   3.322
60149W        W32464  16.476  39.391   1.662
60150W        W32465   0.002  22.496   1.250
60151W        W32466  27.474  31.918  14.292
60152W        W32467   6.409  32.977   2.832
60153W        W32468   2.632  28.995  12.937
60154W        W32469  28.604   6.236  14.483
60155W        W32470  32.381  18.654   0.786
60156W        W32471   6.523  41.557  12.047
60157W        W32472  14.833  40.509  11.544
60158W        W32473  17.263  25.728   0.010
60159W        W32474  26.280  24.238   5.221
60160W        W32475  19.333  23.986  12.447
60161W        W32476  24.015  16.120  10.801
60162W        W32477  30.945  30.521  14.953
60163W        W32478  39.085  25.423   0.435
60164W        W32479  12.148  34.829   4.259
60165W        W32480  35.593  13.270   2.805
60166W        W32481  15.723  31.218  14.380
60167W        W32482  30.076  27.664   3.723
60168W        W32483   1.429   8.880  10.980
60169W        W32484  10.646  14.631  13.825
60170W        W32485   5.377  23.269  13.007
60171W        W32486  11.061  43.953   0.026
60172W        W32487  25.633  31.928  13.105
60173W        W32488  15.698   8.638   1.391
60174W        W32489   8.267  20.817   3.211
60175W        W32490  23.535  15.708  14.387
60176W        W32491  10.265   5.139   0.802
60177W        W32492   8.392  37.320  14.354
60178W        W32493  38.917  32.071   5.031
60179W        W32494  21.720  39.003  14.772
60180W        W32495  27.565  44.887  12.007
60181W        W32496   1.872   1.428   2.689
60182W        W32497   1.721  35.795  14.965
60183W        W32498  44.399  36.625   2.818
60184W        W32499  26.635   6.867  10.511
60185W        W32500   5.232  20.754   3.423
60186W        W32501   1.584  42.453  13.486
60187W        W32502  15.263  28.994  13.803
60188W        W32503  20.339  42.380  10.396
60189W        W32504   4.247  34.503   3.402
60190W        W32505   4.319  33.479  14.227
60191W        W32506  12.287  10.569  13.971
60192W        W32507  43.237   9.294   2.655
60193W        W32508  11.388  18.710  14.049
60194W        W32509  11.408  24.754  12.964
60195W        W32510   2.072  37.248   3.460
60196W        W32511   6.752  11.553  13.967
60197W        W32512  10.112  12.099  12.488
60198W        W32513  38.481  31.422   2.610
60199W        W32514  15.171   8.901  13.575
60200W        W32515   1.816  22.777   0.936
60201W        W32516  32.537  11.729  14.003
60202W        W32517   8.169  26.988   0.334
60203W        W32518  34.277  15.548   1.918
60204W        W32519   8.153  32.123   3.313
60205W        W32520  27.120  24.086   0.447
60206W        W32521  43.764  24.356   0.240
60207W        W32522  34.820   4.388  13.450
60208W        W32523  44.546  28.260  12.319
60209W        W32524   9.640  21.205  10.397
60210W        W32525  42.732  24.650  11.081
60211W        W32526  43.103  32.650  13.269
60212W        W32527  43.187  36.827  11.672
60213W        W32528  26.406  40.034   0.794
60214W        W32529  19.126   3.410   2.129
60215W        W32530   3.181  21.635   3.804
60216W        W32531  21.967  35.067  10.460
60217W        W32532  27.465   7.836  13.107
60218W        W32533  28.503  35.512   0.910
60219W        W32534  13.368   3.331   4.206
60220W        W32535  14.976  28.619  10.009
60221W        W32536  13.553  30.466   0.227
60222W        W32537  23.397  30.111   2.219
60223W        W32538   1.137   8.126  10.802
60224W        W32539  33.822  11.447   3.175
60225W        W32540  11.376  14.411   2.773
60226W        W32541   6.010  42.584  12.597
60227W        W32542  30.252  43.584   1.431
60228W        W32543  37.445  44.782  14.851
60229W        W32544  30.060  43.597  12.063
60230W        W32545   3.909  42.783   2.276
60231W        W32546   9.606  17.536   2.603
60232W        W32547  13.656   9.827  13.868
60233W        W32548  27.099  27.987   0.460
60234W        W32549   7.628  30.905  12.470
60235W        W32550  29.477  31.232   1.792
60236W        W32551  13.072   8.856   3.159
60237W        W32552  18.218  18.313   2.719
60238W        W32553  10.335  31.151   0.786
60239W        W32554   8.845  27.575   0.230
60240W        W32555   2.696  30.653  13.802
60241W        W32556  25.318  42.526   1.485
60242W        W32557   7.686  12.310   0.766
60243W        W32558  10.572  16.604   0.526
60244W        W32559  28.640  27.639   3.716
60245W        W32560  36.268   4.887   0.730
60246W        W32561   2.755  14.538  11.208
60247W        W32562  14.697  20.161  11.981
60248W        W32563  22.528  44.250  14.935
60249W        W32564   6.358  20.147   0.560
60250W        W32565  13.518   4.521  14.226
60251W        W32566  29.834   5.858  11.232
60252W        W32567  19.049  21.411  13.428
60253W        W32568   9.230  18.479  12.527
60254W        W32569  26.293  17.091  11.148
60255W        W32570  17.535   5.828  13.568
60256W        W32571  15.841  44.463  10.669
60257W        W32572   3.765  14.771   4.488
60258W        W32573  25.514   5.168   0.877
60259W        W32574  13.361  39.134  13.861
60260W        W32575  21.281  11.318  10.714
60261W        W32576   4.623   8.736  11.130
60262W        W32577  31.369  15.512   4.186
60263W        W32578   6.272   3.911  14.588
60264W        W32579  27.467   6.215  13.769
60265W        W32580   5.834  41.434  11.509
60266W        W32581  14.177   2.914   3.302
60267W        W32582  19.664  11.635  10.429
60268W        W32583  39.348  10.229  12.821
60269W        W32584  41.345  10.320  13.366
60270W        W32585  26.559  26.211  11.062
60271W        W32586   1.942   7.849   0.846
60272W        W32587  39.693  19.703  12.945
60273W        W32588   1.363  16.546   2.763
60274W        W32589  16.100  25.851  11.696
60275W        W32590  17.785  32.711   0.732
60276W        W32591  41.307  11.887  11.920
60277W        W32592  18.743  37.137   0.994
60278W        W32593  21.986  38.578   2.513
60279W        W32594  33.262  41.768   4.130
60280W        W32595  42.480   7.683   4.846
60281W        W32596   2.807  43.679  14.473
60282W        W32597   5.044  26.377   1.792
60283W        W32598  35.650   8.812   1.581
60284W        W32599  35.985   9.210   1.669
60285W        W32600  43.976  33.387  14.533
60286W        W32601  31.057  25.264   4.510
60287W        W32602  16.344  37.412  13.576
60288W        W32603  44.238  10.838   4.556
60289W        W32604  20.099   6.216  13.981
60290W        W32605  40.752  28.733   1.378
60291W        W32606  13.587  44.893   1.871
60292W        W32607  12.953  34.546  10.901
60293W        W32608  22.699   6.800   0.516
60294W        W32609   6.801   5.862  11.068
60295W        W32610  43.000  37.527  14.875
60296W        W32611   4.655  38.519   9.871
60297W        W32612  17.603  17.618  11.139
60298W        W32613  32.726  44.738  13.419
60299W        W32614  18.825  22.311   4.210
60300W        W32615  34.841  14.066   1.748
60301W        W32616   9.599  24.232   0.844
60302W        W32617   4.899  34.844  12.555
60303W        W32618  19.123  18.881   2.648
60304W        W32619   1.379  20.858   2.026
60305W        W32620  28.425  16.872  12.464
60306W        W32621  33.597  25.461  12.034
60307W        W32622  16.821  44.559  11.564
60308W        W32623  32.289  10.663   1.852
60309W        W32624  35.431  26.189  11.979
60310W        W32625   8.257  19.284  11.254
60311W        W32626   6.319  12.533   4.532
60312W        W32627   8.472  41.032   4.171
60313W        W32628   5.931  42.936   1.185
60314W        W32629  29.613  21.014   1.039
60315W        W32630  35.288  16.833   3.165
60316W        W32631  15.278  39.211  12.891
60317W        W32632  30.841  27.552   2.785
60318W        W32633  29.824   2.966   1.860
60319W        W32634   7.711  33.866   0.983
60320W        W32635   8.178  11.382   3.571
60321W        W32636   2.611  23.812  11.125
60322W        W32637  22.027  21.139  10.576
60323W        W32638  41.536   4.206   2.694
60324W        W32639  28.662   7.431  14.405
60325W        W32640  21.330   8.659  11.616
60326W        W32641  38.921  25.170   2.412
60327W        W32642  20.167  21.846   0.442
60328W        W32643  26.088   2.681  13.055
60329W        W32644  23.538  42.513   2.706
60330W        W32645   6.769  44.666   3.673
60331W        W32646  17.843  17.787   3.343
60332W        W32647  43.326  15.252   1.205
60333W        W32648  36.031  20.251   2.810
60334W        W32649  10.424  38.362   0.851
60335W        W32650  29.370   0.896   0.077
60336W        W32651  24.973  41.440  12.112
60337W        W32652  39.131  33.827  12.095
60338W        W32653  37.333  13.729  11.952
60339W        W32654  15.164  28.636  12.421
60340W        W32655  10.883  15.675  12.178
60341W        W32656  13.354  37.794  11.140
60342W        W32657   4.870   9.365  13.002
60343W        W32658  25.141  15.559  13.852
60344W        W32659   9.387  35.893  10.286
60345W        W32660  15.524   3.977   4.206
60346W        W32661  24.132  18.622  14.001
60347W        W32662  40.115  33.782  10.220
60348W        W32663  20.222   1.399   1.177
60349W        W32664  17.118   6.835  12.570
60350W        W32665   7.583  18.808  14.883
60351W        W32666  39.540  23.733  12.967
60352W        W32667   7.237   7.940  12.860
60353W        W32668  36.323  39.550  11.487
60354W        W32669  12.069  28.954   4.542
60355W        W32670  10.801  28.730   4.120
60356W        W32671  35.362  31.879   2.268
60357W        W32672  24.719   5.037   4.254
60358W        W32673   1.512  33.851  13.984
60359W        W32674   0.109   3.458   1.730
60360W        W32675  37.663   0.817  13.400
60361W        W32676   6.084   9.394  14.776
60362W        W32677  30.686  10.215   1.303
60363W        W32678  23.875   8.172  11.980
60364W        W32679   2.470  40.463   1.585
60365W        W32680  40.663  37.472   5.046
60366W        W32681  35.049  34.158   0.319
60367W        W32682  12.752  21.539   4.973
60368W        W32683   8.957  24.168  10.569
60369W        W32684  19.857   0.461  13.798
60370W        W32685  18.310  24.101  13.943
60371W        W32686  22.826  24.954   0.967
60372W        W32687  13.077  12.631  13.143
60373W        W32688  26.580   7.675   4.609
60374W        W32689  10.910  44.458   3.682
60375W        W32690   6.628  36.919   2.339
60376W        W32691  35.209  21.595   4.343
60377W        W32692  20.552  12.454   2.264
60378W        W32693   8.524  21.131  12.588
60379W        W32694  39.496  18.725   2.251
60380W        W32695  35.091  17.985   1.810
60381W        W32696  29.921   1.253  10.476
60382W        W32697  20.407  40.935  11.964
60383W        W32698  26.560  32.164  13.023
60384W        W32699  17.218  42.995   4.163
60385W        W32700  43.499  38.915  10.319
60386W        W32701  12.159  16.139   4.649
60387W        W32702  23.263   3.086   2.679
60388W        W32703  22.666   0.236  12.918
60389W        W32704  10.657  11.268  12.849
60390W        W32705  17.045  24.413   2.697
60391W        W32706  19.760  18.600  10.737
60392W        W32707   9.710  20.058  14.461
60393W        W32708  23.528  19.287   1.333
60394W        W32709  39.494   0.616   3.226
60395W        W32710  36.234  39.928   3.326
60396W        W32711  42.411  14.059  10.855
60397W        W32712  22.523  32.159   0.956
60398W        W32713  23.064  13.537  11.046
60399W        W32714  16.865  29.602  14.741
60400W        W32715  30.478  36.649   0.295
60401W        W32716   4.499  19.350   1.228
60402W        W32717  16.710  20.356   0.003
60403W        W32718  16.976  36.096   1.215
60404W        W32719  11.181  33.852   0.844
60405W        W32720  27.614  32.403  11.066
60406W        W32721  30.984  35.460   2.265
60407W        W32722  11.606  15.644  14.324
60408W        W32723  19.696  24.077  10.708
60409W        W32724  13.809  18.802   2.226
60410W        W32725  24.947  12.166  14.547
60411W        W32726  21.551  40.107  13.878
60412W        W32727  30.549  33.696   2.731
60413W        W32728   1.420  39.295  13.508
60414W        W32729  20.422  28.474   3.611
60415W        W32730  34.755  37.946   2.807
60416W        W32731  13.483  40.980  10.594
60417W        W32732  35.268  25.586  10.922
60418W        W32733  29.438   5.983   0.868
60419W        W32734  24.222  10.910   1.358
60420W        W32735  13.678  28.415  10.800
60421W        W32736  21.815  40.299  13.441
60422W        W32737  44.891  16.244  11.757
60423W        W32738   9.262  24.075  11.403
60424W        W32739   8.210  12.194   3.292
60425W        W32740  39.432  13.261  13.565
60426W        W32741  29.456  20.518   1.184
60427W        W32742  31.916  43.332   1.873
60428W        W32743   5.291  11.354  11.195
60429W        W32744  37.775  24.232  12.131
60430W        W32745  38.404  30.716   0.256
60431W        W32746   8.885  16.956   0.800
60432W        W32747  14.360  33.069   1.012
60433W        W32748  38.987   0.222   1.849
60434W        W32749   7.298   4.945   1.849
60435W        W32750  14.333   8.180   2.346
60436W        W32751  21.910  11.899   2.913
60437W        W32752  40.898  43.977   2.450
60438W        W32753   5.332  40.891   4.907
60439W        W32754  39.625  41.372   0.795
60440W        W32755   1.726  27.202   3.679
60441W        W32756  18.579  37.782   3.139
60442W        W32757  37.294  43.355  14.374
60443W        W32758  30.652  30.396  14.399
60444W        W32759  21.380  44.396   1.602
60445W        W32760  18.975   8.603   1.743
60446W        W32761   3.267  31.738  13.481
60447W        W32762  36.445  34.890  14.511
60448W        W32763  23.562  19.247  12.012
60449W        W32764   4.431  22.181  11.587
60450W        W32765  23.681  41.390  14.458
60451W        W32766  12.806  25.980  10.391
60452W        W32767   0.604   8.650  12.924
60453W        W32768   6.778  22.555  10.721
60454W        W32769   9.174  30.141   4.880
60455W        W32770  40.530  30.849  14.377
60456W        W32771  22.649  22.021   0.963
60457W        W32772  44.216  28.061  12.007
60458W        W32773  35.085  14.263   1.341
60459W        W32774   5.321  43.138   1.791
60460W        W32775  44.691  10.913  12.112
60461W        W32776  41.792  24.570  13.837
60462W        W32777  34.998  21.940   0.772
60463W        W32778  29.250  21.235   0.731
60464W        W32779   9.795  14.601  13.547
60465W        W32780  20.655  35.599   1.225
60466W        W32781  18.082   2.354  10.927
60467W        W32782   8.890  30.881  11.552
60468W        W32783  15.881   4.749  14.361
60469W        W32784  19.023   7.450   0.699
60470W        W32785   1.424  41.879   2.375
60471W        W32786  30.180  14.152  12.502
60472W        W32787  23.387   9.067  12.097
60473W        W32788  31.174  36.458   1.335
60474W        W32789   0.602  15.235   1.674
60475W        W32790   4.159  16.392   0.798
60476W        W32791  23.929   2.447  10.668
60477W        W32792   7.821  10.369   2.120
60478W        W32793   5.236  34.866   4.194
60479W        W32794  10.319  35.585   4.231
60480W        W32795  34.328  16.664  14.918
60481W        W32796  34.923  11.214   1.290
60482W        W32797  44.741  35.640   2.449
60483W        W32798  27.250  32.888  10.392
60484W        W32799  29.955  30.260  11.985
60485W        W32800  40.937  12.308  14.869
60486W        W32801   7.824   0.045  13.944
60487W        W32802   3.118  30.568   4.827
60488W        W32803  15.215  30.101   3.230
60489W        W32804  36.004  28.442   0.698
60490W        W32805  31.699  44.489   3.195
60491W        W32806   0.838   1.482   4.024
60492W        W32807  29.336  10.498  12.436
60493W        W32808  16.098   5.910   0.872
60494W        W32809  10.832   9.756   1.855
60495W        W32810  44.204  15.249  11.143
60496W        W32811  10.181  14.112   4.533
60497W        W32812  40.926  36.848   2.245
60498W        W32813   0.842   1.443  14.331
60499W        W32814   4.876   3.929   2.558
60500W        W32815   1.490  23.157  11.955
60501W        W32816  35.471   2.177  11.137
60502W        W32817  20.088  35.368   4.110
60503W        W32818   5.858  37.564  10.666
60504W        W32819  41.841  12.391  10.976
60505W        W32820   0.885  39.375  11.454
60506W        W32821  17.444  21.351  12.913
60507W        W32822  31.004  27.091   2.921
60508W        W32823  13.798   7.416   1.339
60509W        W32824  27.500  40.694  11.430
60510W        W32825   4.912   5.470  13.775
60511W        W32826  31.861  33.711   1.901
60512W        W32827  25.153  23.782  10.797
60513W        W32828  17.519  22.725  11.888
60514W        W32829  13.841  26.652   3.735
60515W        W32830  16.610  18.480   1.890
60516W        W32831  26.003   4.007   4.059
60517W        W32832   5.288  43.486   4.180
60518W        W32833  19.315   6.996  11.009
60519W        W32834   8.856  38.472   1.430
60520W        W32835  38.975  34.857  11.215
60521W        W32836  18.589   9.044   0.489
60522W        W32837   9.205  29.609   3.224
60523W        W32838  41.922  13.540  11.749
60524W        W32839  10.122  42.012   2.808
60525W        W32840  13.252  35.354  13.129
60526W        W32841  40.432  24.394  10.617
60527W        W32842   7.351  28.493  13.266
60528W        W32843  18.972  15.649  13.527
60529W        W32844  36.202  17.361   4.153
60530W        W32845  11.189  14.107  12.436
60531W        W32846   2.643  28.569  12.155
60532W        W32847  11.126  44.415  13.036
60533W        W32848   6.781  12.589   3.995
60534W        W32849  10.319  18.448  14.403
60535W        W32850   7.262  10.072  11.956
60536W        W32851  31.254   2.131   0.394
60537W        W32852  40.252   5.180   0.013
60538W        W32853  13.687   4.443   0.776
60539W        W32854  25.650  32.086   4.685
60540W        W32855  33.544  32.144  10.005
60541W        W32856  40.423  44.504   5.129
60542W        W32857   8.286  38.804   3.591
60543W        W32858  22.196   8.389   4.047
60544W        W32859  12.624   4.954   1.364
60545W        W32860  20.935  21.298   2.247
60546W        W32861   5.702  39.451   2.719
60547W        W32862  42.293  28.142  10.622
60548W        W32863  33.008   9.261  13.432
60549W        W32864  15.998  11.696  14.319
60550W        W32865  17.065  13.100  14.288
60551W        W32866  39.832  24.686  14.048
60552W        W32867  39.804  28.048   4.537
60553W        W32868   2.232   4.384   2.893
60554W        W32869  16.042  31.855   5.149
60555W        W32870  17.679   2.512   4.562
60556W        W32871  33.102  26.962  11.560
60557W        W32872  23.511  29.576   3.346
60558W        W32873   3.353  37.571  13.286
60559W        W32874  24.067   7.221   3.194
60560W        W32875  36.118  39.427   0.167
60561W        W32876  22.598   5.812   2.315
60562W        W32877  13.423  15.713   4.493
60563W        W32878  15.854  13.675   3.919
60564W        W32879  20.705  12.798   0.680
60565W        W32880  26.006  28.217   4.196
60566W        W32881  33.420   7.888  13.438
60567W        W32882  16.245  12.694   2.348
60568W        W32883  42.298   6.205   4.620
60569W        W32884  18.986  29.004   3.665
60570W        W32885  40.399   6.815   1.162
60571W        W32886  23.551  27.905  14.799
60572W        W32887  27.911  42.278  10.688
60573W        W32888  33.487   6.151  11.123
60574W        W32889   3.342  26.154  13.296
60575W        W32890  24.738  44.962   0.869
60576W        W32891  23.518  29.105  14.065
60577W        W32892  24.075   1.056   4.216
60578W        W32893  42.017   9.126  13.092
60579W        W32894   8.217  31.913   1.920
60580W        W32895  26.270  15.475  11.684
60581W        W32896  29.511  28.851  14.714
60582W        W32897  28.110  15.336   1.872
60583W        W32898  18.758  13.829   0.691
60584W        W32899  42.347   5.337   0.182
60585W        W32900  21.810  25.733   4.237
60586W        W32901  42.963  19.169   2.502
60587W        W32902   3.204  19.993   2.051
60588W        W32903   1.989  30.499  11.588
60589W        W32904   5.916  38.459  12.036
60590W        W32905  34.870  22.472  13.027
60591W        W32906  19.099  19.285  11.969
60592W        W32907  15.764  30.292   2.078
60593W        W32908  28.576  39.184   0.825
60594W        W32909  16.063  44.480  13.823
60595W        W32910  39.985  32.996  11.614
60596W        W32911   2.414  29.202  12.498
60597W        W32912  33.557   3.858   3.575
60598W        W32913  43.287   0.696   4.715
60599W        W32914   9.933  19.060  13.024
60600W        W32915  42.127  26.518  10.754
60601W        W32916  44.889  15.752  10.963
60602W        W32917  10.350  34.646  13.986
60603W        W32918  40.936  22.955   3.250
60604W        W32919  36.006  37.554  10.629
60605W        W32920  15.189   5.610   2.133
60606W        W32921  34.191  32.745  12.400
60607W        W32922   5.857   7.165   4.616
60608W        W32923  22.624  30.062   3.686
60609W        W32924   5.238  35.544  12.435
60610W        W32925   1.446  24.244   3.785
60611W        W32926  28.425  23.380   0.375
60612W        W32927  18.596   8.816  14.287
60613W        W32928  30.485  39.035  11.356
60614W        W32929  34.561  28.526   2.740
60615W        W32930   5.559  11.827  12.479
60616W        W32931  40.535   4.933   1.406
60617W        W32932   1.662   7.777   2.854
60618W        W32933   8.226  22.280   2.204
60619W        W32934  43.389   5.436  11.682
60620W        W32935  26.644  29.871  14.492
60621W        W32936  21.376   0.857  14.944
60622W        W32937  25.499  27.661  10.637
60623W        W32938  44.755   6.643   4.642
60624W        W32939  34.441  20.547  11.043
60625W        W32940   7.229  26.599   1.473
60626W        W32941   3.953  27.497  11.074
60627W        W32942  15.577   5.789   4.925
60628W        W32943  20.855  23.693   2.275
60629W        W32944  44.827  41.790   1.090
60630W        W32945  27.324  24.432   0.116
60631W        W32946  21.666  40.309  14.333
60632W        W32947  28.193  11.259   1.019
60633W        W32948   8.581  25.771   3.233
60634W        W32949   0.444  25.483  12.028
60635W        W32950  12.301  31.149  13.852
60636W        W32951  16.062  18.161  12.036
60637W        W32952  19.232   5.764  13.202
60638W        W32953  10.136  43.163  10.263
60639W        W32954  13.280  32.486   3.809
60640W        W32955  20.069  30.436   3.230
60641W        W32956  19.629  22.003  13.060
60642W        W32957   4.202  29.459   0.869
60643W        W32958  17.055  23.454  13.941
60644W        W32959  20.399  40.924   0.022
60645W        W32960  12.859  13.137  11.651
60646W        W32961  25.715  38.606  13.858
60647W        W32962  14.862  14.218  11.576
60648W        W32963   7.383   4.914  14.395
60649W        W32964   4.519   5.937  12.351
60650W        W32965   2.710  29.227   4.083
60651W        W32966   1.434  31.044  13.955
60652W        W32967  21.280  40.764   3.316
60653W        W32968  23.505  40.943  12.881
60654W        W32969  13.427  31.167   3.665
60655W        W32970  22.636  23.194  12.959
60656W        W32971  19.778  40.014  10.686
60657W        W32972  34.345  33.654   2.460
60658W        W32973  32.081  20.212  10.551
60659W        W32974  15.904  25.505  12.573
60660W        W32975  37.309  10.656  12.977
60661W        W32976  28.717  28.611  11.571
60662W        W32977   6.645   0.641  12.680
60663W        W32978   2.235  35.573   0.030
60664W        W32979  15.969   9.651   3.129
60665W        W32980  44.283  37.108   1.674
60666W        W32981  11.888  43.039  12.693
60667W        W32982  16.715   0.304  11.030
60668W        W32983   3.437  42.880  14.509
60669W        W32984  40.784  39.830  14.301
60670W        W32985  20.176   4.408  13.014
60671W        W32986  20.132   8.666   5.047
60672W        W32987   2.368  33.439  12.934
60673W        W32988  29.485  21.398   2.912
60674W        W32989  31.398  10.686   1.866
60675W        W32990  38.771  36.265  11.206
60676W        W32991   9.770  32.331   4.897
60677W        W32992  19.096  22.172  10.695
60678W        W32993  10.487   4.313  11.369
60679W        W32994  23.395  28.205   1.756
60680W        W32995  30.087  41.725  13.723
60681W        W32996  32.701  12.689   3.684
60682W        W32997  11.157  10.557  12.851
60683W        W32998  24.590   2.942  13.020
60684W        W32999  28.151  28.649   4.116
60685W        W33000  38.358  22.200  12.022
60686W        W33001  17.782   0.483   1.251
60687W        W33002  29.855  43.381   3.820
60688W        W33003  18.670  43.104   2.821
60689W        W33004  43.076  22.729  11.113
60690W        W33005  26.911   1.709  11.934
60691W        W33006  18.694  41.759  13.514
60692W        W33007  21.819  30.617  12.538
60693W        W33008  43.286   9.210   3.567
60694W        W33009  32.033  10.826   4.062
60695W        W33010  35.615  24.611   4.533
60696W        W33011  11.660  31.340  11.173
60697W        W33012  33.480  17.706  11.439
60698W        W33013  15.200   9.390   0.898
60699W        W33014  35.605  35.502  10.527
60700W        W33015  28.594  10.362   3.187
60701W        W33016  24.997  14.897  12.175
60702W        W33017   4.456   2.018  14.442
60703W        W33018  17.975  33.569  10.658
60704W        W33019  16.757  29.837  10.633
60705W        W33020  23.499  29.896  12.589
60706W        W33021  31.896  11.894   5.074
60707W        W33022  31.692  18.119  12.946
60708W        W33023  21.474  10.902  12.884
60709W        W33024  36.098   5.374   0.014
60710W        W33025   2.442   3.599  14.354
60711W        W33026  26.652  36.261  12.259
60712W        W33027   5.893  10.368  11.603
60713W        W33028  38.071   9.197   4.298
60714W        W33029  16.009  37.604  12.493
60715W        W33030  44.747  44.831  13.415
60716W        W33031  33.155  16.563  10.733
60717W        W33032  22.447  40.505  11.937
60718W        W33033  12.229  38.740   3.651
60719W        W33034  10.092  31.589   0.954
60720W        W33035  18.045   6.379   2.557
60721W        W33036  42.319  39.757  10.722
60722W        W33037  13.298  28.407   0.812
60723W        W33038  43.016  15.044   4.566
60724W        W33039  27.637  32.954  12.895
60725W        W33040  20.490  22.574  13.069
60726W        W33041  10.989  35.669   3.772
60727W        W33042  31.045  23.146   3.192
60728W        W33043  39.017   9.788  14.362
60729W        W33044  11.793  23.260  14.493
60730W        W33045  16.660  24.108   2.476
60731W        W33046  40.148  42.069   3.722
60732W        W33047  16.698  25.602   4.557
60733W        W33048  42.908  26.726  13.957
60734W        W33049   8.155  40.862   4.575
60735W        W33050  16.150  31.537  14.380
60736W        W33051  39.744   8.515  11.178
60737W        W33052  35.126   3.899   4.532
60738W        W33053  37.694  16.580  11.581
60739W        W33054  26.615  15.772  11.426
60740W        W33055  12.749  29.181   0.359
60741W        W33056  28.051   1.777   3.162
60742W        W33057  43.438  14.768   1.009
60743W        W33058   7.932  18.072   1.352
60744W        W33059   3.441  14.850   1.764
60745W        W33060  32.135   6.454   0.368
60746W        W33061  26.992  34.206   1.353
60747W        W33062  13.372  36.114  10.281
60748W        W33063  38.735  34.285  14.323
60749W        W33064  14.220  12.085  11.608
60750W        W33065  36.186   4.693  12.282
60751W        W33066   9.159  33.859  10.328
60752W        W33067  14.708   2.717  12.007
60753W        W33068  29.733  32.775   4.611
60754W        W33069   8.772   8.435  10.797
60755W        W33070  38.784  29.885  11.086
60756W        W33071   7.074  10.894   2.180
60757W        W33072  26.520  30.568   3.201
60758W        W33073  28.105  39.808  10.366
60759W        W33074  13.670   0.862  10.452
60760W        W33075  33.434  21.241   5.150
60761W        W33076   4.007  38.359  13.324
60762W        W33077  40.919   7.219   4.744
60763W        W33078  21.388   2.348  10.355
60764W        W33079   4.099  43.290   2.167
60765W        W33080  34.457  32.137   3.580
60766W        W33081   1.311  28.749  10.785
60767W        W33082  11.812  40.916  14.368
60768W        W33083  22.699  17.325   4.917
60769W        W33084   9.815  25.168   0.135
60770W        W33085  27.469  19.525  11.515
60771W        W33086  23.011  32.589  12.487
60772W        W33087   4.784  19.602   3.893
60773W        W33088  26.610   3.323   2.868
60774W        W33089   3.539  34.055   3.655
60775W        W33090   3.392  43.897   4.517
60776W        W33091  29.562  18.516  11.236
60777W        W33092  10.827  21.623   1.200
60778W        W33093  36.508  35.514   2.254
60779W        W33094  17.184  37.859   1.317
60780W        W33095  24.325   3.193  12.555
60781W        W33096  11.222  20.638  14.537
60782W        W33097  24.146  38.407  11.514
60783W        W33098   5.707  27.309  12.459
60784W        W33099  43.059  26.829  11.950
60785W        W33100  25.195  18.741  14.785
60786W        W33101  38.108   5.587  12.491
60787W        W33102  28.532  21.625   2.828
60788W        W33103  38.313   7.216  12.001
60789W        W33104  13.159  35.793   1.287
60790W        W33105  11.237   6.826   4.885
60791W        W33106   5.417  11.047  14.333
60792W        W33107  34.887  41.133   3.821
60793W        W33108  41.343  17.700   4.965
60794W        W33109  28.591   6.374   0.329
60795W        W33110   5.700  16.150   4.104
60796W        W33111  11.247   5.454  13.473
60797W        W33112  41.552  20.988   4.054
60798W        W33113  16.836  34.003   2.831
60799W        W33114  20.141   5.290   4.117
60800W        W33115   3.911  29.595  14.500
60801W        W33116   5.370  18.316  13.357
60802W        W33117  20.315  29.936   1.812
60803W        W33118  25.978  35.053   3.318
60804W        W33119   8.761  27.140  14.449
60805W        W33120  43.259  27.608   0.315
60806W        W33121  22.304   4.265  12.124
60807W        W33122   6.585  37.403  11.739
60808W        W33123  41.288  24.080   4.616
60809W        W33124   3.409  19.749   3.328
60810W        W33125  42.551  27.143   2.317
60811W        W33126  25.550   0.767  14.712
60812W        W33127  41.565   9.837  11.555
60813W        W33128   9.441  11.431  14.377
60814W        W33129  43.484  15.732  10.865
60815W        W33130  33.466   2.344   4.602
60816W        W33131  11.331   4.196  11.690
60817W        W33132   8.949   8.398  12.576
60818W        W33133  12.175  43.886  13.525
60819W        W33134  39.865  40.215  13.983
60820W        W33135  39.362  20.065   2.694
60821W        W33136  44.516  13.829   3.162
60822W        W33137  26.707  25.556   1.236
60823W        W33138  17.449  44.869  12.579
60824W        W33139   3.905  28.828   3.603
60825W        W33140  15.296  23.251  13.127
60826W        W33141  26.028   6.283  12.395
60827W        W33142  33.968   2.751  12.370
60828W        W33143   0.003  39.098   1.820
60829W        W33144  25.491  10.112  12.420
60830W        W33145  24.434   6.930  12.057
60831W        W33146  30.292  17.701  11.679
60832W        W33147   3.943  21.173   0.428
60833W        W33148  36.910  23.218   4.116
60834W        W33149  33.903  26.510   3.166
60835W        W33150  24.730   2.723  13.491
60836W        W33151  24.756  13.150  11.659
60837W        W33152  43.358  33.331  14.022
60838W        W33153  24.554  38.864   2.885
60839W        W33154  42.538  33.070   2.867
60840W        W33155   7.669  34.918  12.428
60841W        W33156  19.501   5.313   4.644
60842W        W33157  36.302   8.959  11.525
60843W        W33158  34.442  40.424   0.244
60844W        W33159  37.563  36.484  11.693
60845W        W33160  29.148   8.499  10.829
60846W        W33161   5.382  43.636   1.795
60847W        W33162   8.776  22.635   1.296
60848W        W33163  41.539  21.490  14.917
60849W        W33164   0.871  26.702  11.687
60850W        W33165  41.598  15.706  14.565
60851W        W33166  35.297  35.159   1.280
60852W        W33167  19.888   9.141   4.984
60853W        W33168   8.343  23.679  11.501
60854W        W33169  17.845  32.587  13.806
60855W        W33170  21.190  32.969  10.569
60856W        W33171   4.273  27.875  12.979
60857W        W33172  23.939  12.053   3.684
60858W        W33173   3.427  37.023  10.670
60859W        W33174   5.851  33.836  11.157
60860W        W33175   8.685  35.543  11.658
60861W        W33176   1.333   1.984   2.408
60862W        W33177  31.865  32.496  12.145
60863W        W33178  33.863   1.384  14.024
60864W        W33179   1.936  15.671  11.091
60865W        W33180   0.840  39.499   4.810
60866W        W33181  32.383  13.996  14.230
60867W        W33182  23.318  27.428   3.773
60868W        W33183   8.724  25.554  13.364
60869W        W33184  30.290  14.296  14.486
60870W        W33185  23.203  15.135  11.130
60871W        W33186  37.022  33.418   2.351
60872W        W33187  41.585  27.201   0.154
60873W        W33188  11.325   8.665  13.355
60874W        W33189   2.691  40.009   0.413
60875W        W33190   3.923   7.432  14.480
60876W        W33191  36.660  26.557   0.864
60877W        W33192   9.792   6.657  11.075
60878W        W33193  12.728  20.336  10.718
60879W        W33194   9.463   1.357   1.033
60880W        W33195  40.279  37.011  11.263
60881W        W33196   3.364  21.710   4.876
60882W        W33197   1.058  35.007  14.642
60883W        W33198  27.170   8.120  10.822
60884W        W33199  26.879  19.081   3.422
60885W        W33200  27.872  42.782  11.629
60886W        W33201  14.894  39.483  14.476
60887W        W33202  35.888   0.928  10.723
60888W        W33203   6.598  36.096   3.215
60889W        W33204  21.431  43.256  12.030
60890W        W33205  26.718   6.710  14.528
60891W        W33206  34.849   3.465  12.433
60892W        W33207   2.464  20.254  11.556
60893W        W33208  21.523  30.987   1.446
60894W        W33209  19.852  14.480  12.018
60895W        W33210  16.687  29.031   0.974
60896W        W33211  31.342  10.846  11.814
60897W        W33212  38.913  35.557  14.970
60898W        W33213   1.803  44.213   4.078
60899W        W33214  33.966  44.171  11.516
60900W        W33215  43.293  24.433  12.217
60901W        W33216  35.670  19.509   2.872
60902W        W33217  34.027  14.545   0.885
60903W        W33218  19.274  12.723   4.835
60904W        W33219   9.793  18.057  12.123
60905W        W33220  33.690  19.295  14.016
60906W        W33221  14.206  15.650   3.639
60907W        W33222  44.512   3.854  13.956
60908W        W33223  31.389  27.091   3.661
60909W        W33224   6.219  17.702   2.389
60910W        W33225   8.535  44.200   4.904
60911W        W33226   3.829  16.213  11.597
60912W        W33227  32.856  10.112   4.902
60913W        W33228  35.042  14.237   0.829
60914W        W33229  22.195  19.527   5.008
60915W        W33230  31.450  25.884  13.307
60916W        W33231  33.401  44.023  10.556
60917W        W33232   7.815   7.809  11.689
60918W        W33233  36.935  16.125  14.993
60919W        W33234  36.783  32.645   0.853
60920W        W33235  32.374  31.609  10.598
60921W        W33236   2.864  13.799   3.937
60922W        W33237   6.283  12.288   3.547
60923W        W33238   0.187   1.860  11.103
60924W        W33239  19.752   7.831  11.249
60925W        W33240   1.629   8.099  10.669
60926W        W33241  36.554   9.811   4.198
60927W        W33242  39.496   5.718  10.627
60928W        W33243  27.514   9.769   2.251
60929W        W33244  40.807  39.377  12.501
60930W        W33245  26.037  26.064   1.619
60931W        W33246   9.723  34.099   4.532
60932W        W33247   9.436  42.022  12.126
60933W        W33248  18.701  20.680  10.460
60934W        W33249   4.970   1.838  14.863
60935W        W33250  36.451   5.929  13.946
60936W        W33251  22.239  25.020  13.045
60937W        W33252   0.268  42.795  12.875
60938W        W33253  39.445  44.788   4.817
60939W        W33254  30.637  20.346   4.195
60940W        W33255  28.878  13.537   0.420
60941W        W33256  36.005  35.775  12.389
60942W        W33257   8.012   7.302   4.534
60943W        W33258  22.896  34.971   4.609
60944W        W33259  13.145  27.246  13.513
60945W        W33260  28.427  29.648  14.011
60946W        W33261   1.362  41.205   2.463
60947W        W33262  40.181  33.400   3.708
60948W        W33263   1.761  34.424  11.968
60949W        W33264  40.384  24.441   4.094
60950W        W33265  35.383   9.311   2.961
60951W        W33266  14.609  21.338  10.939
60952W        W33267  30.857  19.248  11.080
60953W        W33268  29.216  22.294   4.044
60954W        W33269  32.629  36.752   1.430
60955W        W33270  10.195  35.948   2.883
60956W        W33271  37.020  38.617   3.619
60957W        W33272   7.662  22.655   3.143
60958W        W33273  34.874  28.226  11.593
60959W        W33274   6.919   3.573  12.463
60960W        W33275  36.902   2.167   2.278
60961W        W33276  39.615  31.929  13.840
60962W        W33277  18.816  44.666  13.971
60963W        W33278  29.954  15.575   1.995
60964W        W33279   3.218  42.918   3.237
60965W        W33280  16.782  13.811   3.600
60966W        W33281  14.044  24.489   2.608
60967W        W33282  40.767  11.481  14.419
60968W        W33283  43.979  38.303   1.521
60969W        W33284  42.805  13.365  11.064
60970W        W33285  36.482  24.514  10.879
60971W        W33286  24.686  24.538  10.724
60972W        W33287  35.972  37.850  14.501
60973W        W33288  12.563  38.364   1.437
60974W        W33289  14.156  43.350   1.355
60975W        W33290  15.179  34.825  14.597
60976W        W33291  28.770   8.656   1.769
60977W        W33292  37.350  17.556   2.690
60978W        W33293  25.076  44.921  14.390
60979W        W33294  39.904  41.861  14.900
60980W        W33295   6.157   3.338  13.260
60981W        W33296  39.492   9.626  14.230
60982W        W33297  20.987   1.428   4.621
60983W        W33298   6.208  39.602  14.635
60984W        W33299  39.803  15.599  10.848
60985W        W33300  23.545  23.236  11.075
60986W        W33301  26.012   7.388   4.061
60987W        W33302  15.268  23.896   2.160
60988W        W33303  30.712  33.441  10.177
60989W        W33304   5.329  35.869   2.650
60990W        W33305   8.346  21.241  11.012
60991W        W33306  13.175  20.849  14.496
60992W        W33307   7.723  36.466   4.383
60993W        W33308  15.632  14.895  14.970
60994W        W33309  13.338  41.592  13.506
60995W        W33310  11.166  14.362   1.457
60996W        W33311  30.701  19.116  14.765
60997W        W33312  31.286  39.472   0.290
60998W        W33313   4.771  12.662   0.788
60999W        W33314  43.893  19.204  13.053
61000W        W33315  10.174  39.821   0.854
61001W        W33316  19.966   6.741   1.248
61002W        W33317  21.843  21.271  11.859
61003W        W33318  41.906  20.563   1.962
61004W        W33319   3.798  28.810  12.539
61005W        W33320  24.629  21.772   1.850
61006W        W33321  18.277   9.836   3.751
61007W        W33322  18.649  42.055   0.629
61008W        W33323  18.825  27.373   4.194
61009W        W33324  13.185  15.810  14.440
61010W        W33325   2.665  31.022   2.044
61011W        W33326  11.631  26.773   3.270
61012W        W33327  43.346  27.977   1.447
61013W        W33328  38.380  34.128   3.515
61014W        W33329  38.932  30.613  12.664
61015W        W33330   9.186  20.162   2.367
61016W        W33331  18.213  28.899  10.089
61017W        W33332  42.876  30.121   0.780
61018W        W33333  17.791  43.574  10.728
61019W        W33334  11.571   6.282   0.071
61020W        W33335  38.757   2.211   9.990
61021W        W33336  14.656  27.264   3.746
61022W        W33337  30.951  24.715  13.438
61023W        W33338  39.047  24.672   0.028
61024W        W33339  13.603  21.341   9.960
61025W        W33340  13.355  42.773   4.986
61026W        W33341   3.725  20.065   3.967
61027W        W33342  30.170  17.404  14.771
61028W        W33343  21.307  43.561   2.321
61029W        W33344  11.323  17.124   0.420
61030W        W33345  27.386  14.618   2.652
61031W        W33346  21.512  25.590   1.810
61032W        W33347  19.055   2.001  12.784
61033W        W33348   3.574  13.726   2.278
61034W        W33349  36.355  43.175   0.514
61035W        W33350  32.513  10.797   0.043
61036W        W33351   4.816   8.831  14.650
61037W        W33352  29.537  38.048   4.825
61038W        W33353  40.809  18.225   3.675
61039W        W33354  44.414  19.054  10.065
61040W        W33355   7.795  19.325  10.683
61041W        W33356  40.978  31.035   3.866
61042W        W33357  30.610  19.932   2.842
61043W        W33358   1.410  26.168   4.116
61044W        W33359   3.723   3.943   3.314
61045W        W33360  33.292  40.375   4.599
61046W        W33361   3.773  25.888   2.435
61047W        W33362   5.659  29.371  13.458
61048W        W33363  38.950  19.545  14.499
61049W        W33364  36.511   3.765  11.423
61050W        W33365   2.276  40.903  11.654
61051W        W33366  37.375  11.058  10.685
61052W        W33367  28.150  11.991   3.832
61053W        W33368  28.576  17.523  13.289
61054W        W33369  40.925   9.657  12.937
61055W        W33370  42.775  37.028  13.483
61056W        W33371  23.742  43.972  13.361
61057W        W33372  22.039  42.133  14.305
61058W        W33373  15.175  24.401   2.140
61059W        W33374  14.283  29.182  13.456
61060W        W33375  19.799   9.094   3.278
61061W        W33376  13.705  32.121  11.190
61062W        W33377  37.795  39.761   3.388
61063W        W33378   5.247  26.360  10.359
61064W        W33379  40.630  27.850  11.028
61065W        W33380   1.200  40.725   3.266
61066W        W33381  15.547   4.037  14.925
61067W        W33382  31.593   1.391   3.412
61068W        W33383  43.977   9.653  11.865
61069W        W33384  28.146  23.582  12.104
61070W        W33385  22.184  11.542   0.944
61071W        W33386  24.655   9.178   1.177
61072W        W33387  42.001  28.971  12.409
61073W        W33388  25.506  15.212   3.794
61074W        W33389  15.204  32.669   2.813
61075W        W33390  11.534  24.627   3.607
61076W        W33391   1.775  14.133   1.193
61077W        W33392  37.259  41.862   4.226
61078W        W33393  14.290   9.654   2.328
61079W        W33394  37.185  31.849  13.127
61080W        W33395  18.767  28.891  12.519
61081W        W33396   4.953   1.845   4.337
61082W        W33397  19.386  13.728   1.902
61083W        W33398   6.644  20.462  14.013
61084W        W33399  20.699  37.384   1.487
61085W        W33400  32.234  41.459  14.800
61086W        W33401  40.445  37.309  11.676
61087W        W33402  25.460  20.247   2.547
61088W        W33403  13.300   3.303   2.995
61089W        W33404  29.074   8.420  13.153
61090W        W33405  24.784  36.448  12.614
61091W        W33406  12.942   4.678   2.352
61092W        W33407  44.730  40.034   2.412
61093W        W33408  11.831  11.827   0.295
61094W        W33409  12.799  17.276  13.752
61095W        W33410  16.713  14.399  11.110
61096W        W33411  14.406  18.664  14.033
61097W        W33412  43.686  29.957  12.518
61098W        W33413  18.071   2.786  13.309
61099W        W33414  11.303  31.518  14.320
61100W        W33415  40.793  32.444  13.692
61101W        W33416  18.787  12.235   2.140
61102W        W33417  11.571  31.028   4.230
61103W        W33418  16.836   5.631  14.899
61104W        W33419  27.592   8.225   4.522
61105W        W33420  16.443  10.803  10.178
61106W        W33421   4.656  21.061  14.924
61107W        W33422   8.212  13.020   1.299
61108W        W33423  31.593  44.446  14.069
61109W        W33424   7.125  40.222   3.249
61110W        W33425  39.845  33.227   2.079
61111W        W33426   5.624   6.718  12.137
61112W        W33427  36.735   5.904  12.095
61113W        W33428   4.232  31.218   3.107
61114W        W33429  18.574  35.202  14.865
61115W        W33430   6.984   9.138  12.104
61116W        W33431  40.063  36.662  12.165
61117W        W33432  25.766  21.812  10.149
61118W        W33433  13.571   7.931  14.651
61119W        W33434   0.280  15.747  10.638
61120W        W33435  39.545  40.001   2.896
61121W        W33436  11.254  42.741   4.320
61122W        W33437  35.950  26.560  12.483
61123W        W33438   9.403  30.583   2.182
61124W        W33439  34.876   4.432  14.338
61125W        W33440  30.182  18.467  14.876
61126W        W33441   8.239  12.307   0.804
61127W        W33442  11.792  12.939  13.356
61128W        W33443  13.018  29.235   3.242
61129W        W33444  29.621  14.840   1.424
61130W        W33445  14.604   7.703   4.676
61131W        W33446  31.024   8.249   4.123
61132W        W33447  35.189   3.155   5.286
61133W        W33448  29.102  25.260  13.462
61134W        W33449   1.918  29.091   1.360
61135W        W33450  19.726  38.633   0.214
61136W        W33451  18.989  23.723  10.658
61137W        W33452  42.492  21.205  12.192
61138W        W33453  10.685  43.439  14.390
61139W        W33454  11.232   2.014   4.661
61140W        W33455  12.189  35.783  11.200
61141W        W33456  10.007  44.888   0.999
61142W        W33457  22.858  10.058  10.092
61143W        W33458   0.398  20.326  12.907
61144W        W33459  36.618  10.642  12.000
61145W        W33460   1.989  21.045  12.847
61146W        W33461  25.365  35.179  14.994
61147W        W33462  30.481  44.847  14.710
61148W        W33463  42.573  44.529  14.738
61149W        W33464  32.557   9.244  10.661
61150W        W33465  21.084  28.439   2.243
61151W        W33466  21.048  14.311  14.259
61152W        W33467   4.421  24.935   4.504
61153W        W33468  41.777  30.656   0.645
61154W        W33469   5.364   5.431  14.005
61155W        W33470  39.377  15.252   1.030
61156W        W33471  11.134  44.907   1.344
61157W        W33472  10.156   4.526  14.957
61158W        W33473  35.464  34.802  11.590
61159W        W33474  29.577  44.750   1.791
61160W        W33475  39.338   8.606  10.609
61161W        W33476   3.413   4.646   1.022
61162W        W33477   5.202   3.354   3.652
61163W        W33478   0.351  15.608  14.961
61164W        W33479  16.142  23.880  13.722
61165W        W33480  42.007  30.969  14.348
61166W        W33481  24.462  33.145  12.544
61167W        W33482  35.645  42.982  10.691
61168W        W33483  36.985  37.858  12.442
61169W        W33484  31.385   0.419   4.242
61170W        W33485   5.257   6.619  10.757
61171W        W33486   4.471  12.379  11.684
61172W        W33487  19.636  23.564  11.552
61173W        W33488   8.094   1.805   1.300
61174W        W33489   1.008  13.282   0.477
61175W        W33490  30.977  35.113   1.528
61176W        W33491   7.837  13.910  10.043
61177W        W33492  26.434  22.949  12.611
61178W        W33493   4.813  23.403  12.829
61179W        W33494  29.538  36.191  13.462
61180W        W33495   2.825  27.679  11.868
61181W        W33496  41.974  37.912  12.558
61182W        W33497   2.166  40.182  12.513
61183W        W33498  34.499  18.044  14.409
61184W        W33499  29.568  14.063   1.789
61185W        W33500   3.266   6.764  14.375
61186W        W33501  17.079  42.548  11.948
61187W        W33502  44.194  33.493   0.153
61188W        W33503  11.334  33.474  13.501
61189W        W33504  23.990  11.859  14.218
61190W        W33505  15.229  43.004   4.962
61191W        W33506  16.574  23.212   2.462
61192W        W33507  41.553  33.943  14.305
61193W        W33508   1.337   7.929   4.141
61194W        W33509  22.740   2.348   2.183
61195W        W33510   2.723   8.885  14.796
61196W        W33511  31.197  17.497   4.919
61197W        W33512   5.854  13.800   1.650
61198W        W33513  22.205  13.880  11.212
61199W        W33514   0.205  43.348  14.008
61200W        W33515  11.725  32.978  12.574
61201W        W33516  35.337  16.741  14.769
61202W        W33517   0.980  23.700   3.331
61203W        W33518  30.904  20.095   0.325
61204W        W33519  14.668  33.520   3.439
61205W        W33520  29.512  33.192   0.286
61206W        W33521  13.980  29.620   3.342
61207W        W33522  19.300  28.006   3.648
61208W        W33523  25.051  21.924   5.500
61209W        W33524  41.019  27.720   4.486
61210W        W33525  21.520  33.363  10.589
61211W        W33526  43.301   8.950   1.534
61212W        W33527  17.064  12.446   0.336
61213W        W33528   8.145  33.639   3.144
61214W        W33529  35.089   5.324   2.037
61215W        W33530  24.211  32.525   3.379
61216W        W33531  25.888  40.893   0.947
61217W        W33532  36.076  41.244   0.859
61218W        W33533  42.608   0.437  12.515
61219W        W33534  35.414  18.527   1.809
61220W        W33535  20.579  10.308  13.340
61221W        W33536   2.530  33.052  14.055
61222W        W33537  23.530  32.956   3.853
61223W        W33538  39.934  18.472  14.253
61224W        W33539  16.351  41.551  14.780
61225W        W33540  33.642  34.858  11.540
61226W        W33541  29.081  33.156  14.494
61227W        W33542   1.767  12.223  13.476
61228W        W33543  21.205   7.414   1.852
61229W        W33544   5.776   3.652  12.909
61230W        W33545  23.162   8.192   3.758
61231W        W33546  42.812  43.369   0.334
61232W        W33547  44.383   4.982  11.916
61233W        W33548   6.117  28.350  10.252
61234W        W33549  28.568  22.002  12.572
61235W        W33550  31.211  35.959  14.441
61236W        W33551  30.971  16.139  14.035
61237W        W33552   5.837  18.196  14.667
61238W        W33553  43.876   9.871   3.126
61239W        W33554  10.634   3.861   4.601
61240W        W33555  35.520  29.206   2.258
61241W        W33556  41.857  21.498  13.831
61242W        W33557  24.225  36.373   2.989
61243W        W33558   6.861  44.331  12.580
61244W        W33559  41.961  37.649   3.221
61245W        W33560  32.179  24.472  11.093
61246W        W33561  41.604  22.607   3.194
61247W        W33562  13.337  29.591   2.460
61248W        W33563  16.691   7.645  11.531
61249W        W33564  19.572  10.109   0.482
61250W        W33565  19.479  17.474   0.019
61251W        W33566  37.049  14.525   4.918
61252W        W33567  38.624  18.120   4.688
61253W        W33568  17.040  10.186   2.875
61254W        W33569  14.816   6.430  14.340
61255W        W33570  22.359  40.912   4.251
61256W        W33571  29.730  29.539   2.326
61257W        W33572  20.369  24.687  10.327
61258W        W33573  27.368  10.928   3.125
61259W        W33574   7.287  11.898  11.873
61260W        W33575  38.783  33.207  13.948
61261W        W33576   3.904   8.425   4.545
61262W        W33577  24.970  43.818  10.725
61263W        W33578   8.325  37.184  13.871
61264W        W33579  18.007  27.918  11.555
61265W        W33580  14.766   2.576  12.990
61266W        W33581  21.442   8.089  14.985
61267W        W33582  10.392  34.873  13.100
61268W        W33583  18.473  14.592   1.124
61269W        W33584  13.276   0.561  14.927
61270W        W33585  15.779  31.232   0.700
61271W        W33586  22.715  22.001  10.023
61272W        W33587   0.798  12.839  14.052
61273W        W33588  34.374  44.300   1.292
61274W        W33589  30.742  12.860   4.291
61275W        W33590  11.751  27.761  12.494
61276W        W33591  30.627   9.199  10.802
61277W        W33592  16.466  39.256   4.115
61278W        W33593  21.610  25.600   0.389
61279W        W33594  40.386  44.120  12.908
61280W        W33595  41.768  18.291   3.829
61281W        W33596   7.279   2.754  14.865
61282W        W33597  19.436  29.441  14.802
61283W        W33598  44.708   7.204   1.144
61284W        W33599   9.341   3.731   0.418
61285W        W33600  11.674  31.999   0.288
61286W        W33601  18.635  21.304   4.971
61287W        W33602   8.311  12.692   3.435
61288W        W33603   6.760  39.859  13.968
61289W        W33604  41.157  21.314   5.044
61290W        W33605  27.740  14.740  10.556
61291W        W33606  34.664   5.886   1.280
61292W        W33607  21.600   8.424  12.066
61293W        W33608  29.603  26.556   3.290
61294W        W33609  29.504   4.713   0.849
61295W        W33610  29.106  10.443  13.059
61296W        W33611  40.515  35.567   4.696
61297W        W33612  28.503   5.306   1.288
61298W        W33613  34.614  37.211   2.253
61299W        W33614  40.399  33.368  11.594
61300W        W33615  17.942  11.641  13.586
61301W        W33616  29.465   6.604   4.265
61302W        W33617  36.517   4.313   3.730
61303W        W33618  19.040  13.221  14.606
61304W        W33619  31.451  36.281  11.189
61305W        W33620   9.694  22.439   2.158
61306W        W33621   9.126  44.734  14.108
61307W        W33622  40.058  26.132   4.888
61308W        W33623  36.516  10.836   2.278
61309W        W33624   4.085  40.130  12.893
61310W        W33625   3.330  13.164   2.805
61311W        W33626  15.687  20.720  12.893
61312W        W33627  42.424   6.298   2.426
61313W        W33628  33.134  31.542  10.980
61314W        W33629  25.574  42.304  14.062
61315W        W33630   4.237   1.502  12.456
61316W        W33631  10.617  41.333   2.265
61317W        W33632  14.562  25.020  14.052
61318W        W33633  22.859  11.204   9.889
61319W        W33634   7.791   4.263   1.932
61320W        W33635  39.870  43.020  14.773
61321W        W33636   8.317  44.198   0.051
61322W        W33637  15.283  24.577  11.912
61323W        W33638  15.335  15.696  14.505
61324W        W33639  27.092   3.828  14.833
61325W        W33640  41.783  28.488   2.719
61326W        W33641   7.633  15.065   1.842
61327W        W33642  35.518  20.625  13.891
61328W        W33643   5.341  27.569   1.477
61329W        W33644   2.957  33.100  13.639
61330W        W33645  25.140  39.049   2.589
61331W        W33646  10.689  30.148   1.804
61332W        W33647  26.714  38.356  10.567
61333W        W33648  19.711  14.322  14.792
61334W        W33649  35.587   6.641   3.651
61335W        W33650  11.853  16.370   2.860
61336W        W33651  30.205  17.554  12.870
61337W        W33652   5.279  33.854  10.875
61338W        W33653  22.407  23.591   3.162
61339W        W33654   5.227  10.465  12.456
61340W        W33655  44.651  21.234   5.042
61341W        W33656  25.139  16.651  13.897
61342W        W33657   9.655  27.381   1.543
61343W        W33658  18.725   7.397   1.670
61344W        W33659  31.976   0.989   1.294
61345W        W33660  37.658  37.402  14.698
61346W        W33661  25.628  27.511  12.450
61347W        W33662   7.489  12.476   1.258
61348W        W33663  17.120  35.617   1.384
61349W        W33664  27.750  39.390  13.507
61350W        W33665  35.933  26.498  13.833
61351W        W33666   0.989   9.721   0.916
61352W        W33667  13.925  34.371  14.842
61353W        W33668  17.771  44.677   3.907
61354W        W33669  21.335  10.692   2.292
61355W        W33670  23.417  41.968   3.119
61356W        W33671   0.853  23.010   2.814
61357W        W33672  11.739  22.062  13.200
61358W        W33673  42.292  18.662  14.760
61359W        W33674  23.082  25.750   1.135
61360W        W33675  22.539  11.124   4.055
61361W        W33676   5.693  41.837  11.221
61362W        W33677  41.683  42.333  13.445
61363W        W33678  14.730   8.138  13.447
61364W        W33679   2.860   8.689   1.258
61365W        W33680   8.171   9.665  13.065
61366W        W33681  11.149   8.310   0.855
61367W        W33682  19.549  10.213  10.605
61368W        W33683  21.804  42.972  14.006
61369W        W33684  35.436  10.163   3.493
61370W        W33685  27.853  13.749  12.397
61371W        W33686  37.056  22.783  14.939
61372W        W33687  33.539  37.943   4.549
61373W        W33688  43.076  28.279   3.036
61374W        W33689  33.410  27.015   2.245
61375W        W33690  28.525  40.047  13.544
61376W        W33691  22.356   1.772   0.424
61377W        W33692  12.441  22.559  12.200
61378W        W33693  11.662  42.364   2.389
61379W        W33694  19.667  37.328   2.733
61380W        W33695  13.396  31.125  11.826
61381W        W33696  14.489  20.171  12.768
61382W        W33697  39.864   1.662  10.636
61383W        W33698   7.841  20.271  11.918
61384W        W33699  40.422  19.349   2.294
61385W        W33700  21.070   9.935   2.638
61386W        W33701   3.444  30.157   4.928
61387W        W33702  27.351  31.621   4.416
61388W        W33703   2.307  14.786   1.282
61389W        W33704  18.428  26.434   4.037
61390W        W33705  29.107  20.636   0.348
61391W        W33706  19.832   8.165  10.625
61392W        W33707  41.902  16.376   2.805
61393W        W33708  42.779   7.338  12.103
61394W        W33709  12.718  13.573   3.330
61395W        W33710  27.097   6.800   9.597
61396W        W33711  42.925   8.696   0.896
61397W        W33712  17.463  17.939   3.720
61398W        W33713  11.720  34.094   4.506
61399W        W33714  20.579  29.176  11.496
61400W        W33715   1.838  10.673  12.974
61401W        W33716   8.756  42.639   0.333
61402W        W33717  13.093  37.342   4.575
61403W        W33718   6.568  40.532  13.395
61404W        W33719  14.021  11.898   2.367
61405W        W33720  43.729  16.541   0.627
61406W        W33721  23.975  35.549  10.492
61407W        W33722  11.116   3.788  11.452
61408W        W33723  31.059  17.024   5.083
61409W        W33724  33.840  16.387  12.602
61410W        W33725  15.100  34.931  13.572
61411W        W33726  29.374  21.165   3.362
61412W        W33727  29.025   7.188   3.495
61413W        W33728  28.088  41.005  14.918
61414W        W33729  17.367  18.897  11.039
61415W        W33730  18.230   2.903   3.391
61416W        W33731  23.020  22.015  11.196
61417W        W33732  22.985  41.451  13.856
61418W        W33733   6.626   4.004  12.421
61419W        W33734  37.373  26.894   2.748
61420W        W33735   9.744   5.298  12.573
61421W        W33736   3.229  23.123   4.079
61422W        W33737   5.661  43.635  11.744
61423W        W33738   6.836  22.279   1.187
61424W        W33739   0.886   7.923  13.778
61425W        W33740  25.787  39.518  13.314
61426W        W33741  33.356  19.167   3.642
61427W        W33742  28.096  44.400   3.598
61428W        W33743   0.344   5.138   2.780
61429W        W33744  33.799  34.365  11.539
61430W        W33745  32.327  40.373   1.492
61431W        W33746  37.620   8.189  12.999
61432W        W33747  32.963   0.495   3.812
61433W        W33748  25.053   4.526  11.437
61434W        W33749   1.205  10.722   4.567
61435W        W33750  17.121  30.081   0.154
61436W        W33751  13.093   0.005   1.704
61437W        W33752  23.126  27.030   4.133
61438W        W33753  12.758  21.943   2.265
61439W        W33754  10.376  33.324  12.995
61440W        W33755  32.222  31.123  14.801
61441W        W33756  33.525   4.679  14.009
61442W        W33757  10.310  39.806   4.751
61443W        W33758  38.526  33.094  13.519
61444W        W33759  30.403   7.417  13.025
61445W        W33760  37.332  15.263  13.014
61446W        W33761  41.782   7.283   0.788
61447W        W33762  39.108  25.954   1.308
61448W        W33763   0.338  21.645  14.512
61449W        W33764  36.889   8.185   0.743
61450W        W33765  38.064  44.702   0.392
61451W        W33766  12.841  40.045  11.037
61452W        W33767  17.108  32.428  12.989
61453W        W33768  41.787  14.850  12.442
61454W        W33769  21.665   8.149  12.510
61455W        W33770  13.747  19.104  13.830
61456W        W33771  24.538   3.482  14.834
61457W        W33772  18.755  35.669   0.769
61458W        W33773  11.912  36.116  12.521
61459W        W33774  36.036  12.698   0.042
61460W        W33775  21.718  19.213   4.951
61461W        W33776  32.337  20.158  14.817
61462W        W33777  39.184   5.825  11.028
61463W        W33778   9.912  32.981   2.181
61464W        W33779   1.469  20.763   0.283
61465W        W33780  37.489  20.278   2.632
61466W        W33781   2.758  34.909   1.698
61467W        W33782   5.434  15.952   1.253
61468W        W33783   1.427  10.302   3.836
61469W        W33784  27.453   1.791  13.669
61470W        W33785  12.406  19.115  12.458
61471W        W33786  40.413   4.222   3.211
61472W        W33787  27.459   3.956  14.468
61473W        W33788  26.082   4.583  14.638
61474W        W33789   6.212  42.487   1.286
61475W        W33790  37.810   8.682  14.690
61476W        W33791  11.253  10.351   0.492
61477W        W33792  27.578  41.703  11.625
61478W        W33793  34.652  18.262  11.557
61479W        W33794  26.193   4.129  13.288
61480W        W33795  25.640  16.638  14.951
61481W        W33796  41.348  13.172   0.868
61482W        W33797  35.142  44.187   4.939
61483W        W33798  40.424  41.948  14.987
61484W        W33799  13.170  18.426  14.541
61485W        W33800   7.886   2.780  12.204
61486W        W33801  23.710   1.685   2.307
61487W        W33802  44.795   7.179   3.949
61488W        W33803  27.654   2.864   3.608
61489W        W33804   9.403  11.265  10.431
61490W        W33805  13.683  26.992  10.680
61491W        W33806  30.121  16.059   4.639
61492W        W33807  23.449  28.585  13.917
61493W        W33808   8.656  20.164   1.689
61494W        W33809  11.679  39.089   0.888
61495W        W33810  42.294  44.694   3.746
61496W        W33811  31.458  23.088   0.499
61497W        W33812  22.061  43.311  12.356
61498W        W33813  39.916  21.596  14.265
61499W        W33814  29.443  31.220  13.011
61500W        W33815  31.649  43.961   1.429
61501W        W33816  25.203   7.910  10.932
61502W        W33817  27.501   2.730  12.486
61503W        W33818   6.586   7.243   1.638
61504W        W33819  38.546  23.791   0.154
61505W        W33820  23.003   0.950   1.226
61506W        W33821  28.076  27.329  12.531
61507W        W33822  32.136   6.605  13.419
61508W        W33823  40.457  15.538  12.147
61509W        W33824  19.081   5.771   0.614
61510W        W33825  22.844  37.331   4.880
61511W        W33826   2.694   6.368  12.986
61512W        W33827  37.038  23.554  12.166
61513W        W33828   3.311  23.664   2.824
61514W        W33829   8.354  23.127   1.948
61515W        W33830  21.298  33.970  14.887
61516W        W33831  13.143  25.663   4.683
61517W        W33832  37.439  13.189   3.003
61518W        W33833   4.677   7.324  11.043
61519W        W33834  13.688  37.210   2.254
61520W        W33835   4.287  40.116  13.782
61521W        W33836  32.633  22.380  13.505
61522W        W33837   0.278  11.125   3.735
61523W        W33838  12.782   2.255  14.251
61524W        W33839  38.542   9.732   3.648
61525W        W33840  21.300  39.056  12.433
61526W        W33841  31.052  38.793  13.961
61527W        W33842  34.825   7.933  11.926
61528W        W33843  34.042  23.697   1.264
61529W        W33844  36.542   2.208  13.392
61530W        W33845  31.532  38.116   4.772
61531W        W33846   2.830   1.526   2.658
61532W        W33847   0.357   1.332  13.536
61533W        W33848  25.641   9.649  14.109
61534W        W33849   5.847  10.340  14.509
61535W        W33850  34.339  42.492  13.266
61536W        W33851  32.494   2.752   0.716
61537W        W33852  16.283   9.641   3.535
61538W        W33853  24.878  41.921   4.407
61539W        W33854  16.141  32.598   3.195
61540W        W33855  33.856  11.476   0.075
61541W        W33856  32.653  12.236  14.051
61542W        W33857   3.534  37.871   1.780
61543W        W33858  20.986  12.094  11.703
61544W        W33859  32.361  41.981  13.141
61545W        W33860   0.045  26.697   4.408
61546W        W33861   8.312  39.416  12.882
61547W        W33862  29.596   8.664   0.937
61548W        W33863   0.475   2.918  12.544
61549W        W33864  21.649  29.404  14.009
61550W        W33865   6.379  23.134   2.405
61551W        W33866  16.687   9.380   3.315
61552W        W33867   0.439   1.277   3.731
61553W        W33868  31.622   7.750   2.323
61554W        W33869  29.676  42.680  14.417
61555W        W33870   4.304   1.427   0.282
61556W        W33871  23.747   4.750   4.186
61557W        W33872  30.046  32.463  11.559
61558W        W33873  21.116  44.905   1.980
61559W        W33874  14.062   5.361  13.451
61560W        W33875  43.236  44.512   4.159
61561W        W33876  36.854  18.763   1.738
61562W        W33877  43.874  34.679   2.289
61563W        W33878  22.139  41.176  13.438
61564W        W33879  41.964  10.646  13.987
61565W        W33880   6.323  44.533   0.527
61566W        W33881   1.263   0.147   3.894
61567W        W33882   6.523   3.891   1.911
61568W        W33883  41.580  34.126  10.690
61569W        W33884   1.293  31.108   2.124
61570W        W33885  39.815   9.787  11.552
61571W        W33886  18.279   6.840   0.041
61572W        W33887  35.200  33.745   5.045
61573W        W33888  39.713  24.021   1.925
61574W        W33889  21.447   4.648   1.388
61575W        W33890  36.925   0.619  13.240
61576W        W33891   3.717  42.946  13.567
61577W        W33892  11.497  38.475   3.338
61578W        W33893   6.649  43.784   3.668
61579W        W33894  28.963  42.787   2.889
61580W        W33895  10.754  28.605  14.395
61581W        W33896  42.385  12.305   1.843
61582W        W33897  36.988  13.787   4.183
61583W        W33898  32.925  31.171   2.730
61584W        W33899   1.731  40.211  13.363
61585W        W33900  10.236   6.552   1.006
61586W        W33901  10.041  35.972  13.790
61587W        W33902   6.207  31.662  11.311
61588W        W33903  32.414  33.890  14.216
61589W        W33904  33.080  23.711   1.906
61590W        W33905  42.211  16.261  10.510
61591W        W33906  21.326  25.119   1.964
61592W        W33907  34.953   8.282   4.773
61593W        W33908   5.778  33.623   2.971
61594W        W33909  42.022  15.290   1.756
61595W        W33910  28.646  42.497  14.256
61596W        W33911  16.795  16.290   2.161
61597W        W33912  28.146  38.582  11.085
61598W        W33913  20.834  14.192  11.900
61599W        W33914  36.873  40.984   2.797
61600W        W33915  18.789  21.941  12.803
61601W        W33916  16.754  27.942   0.884
61602W        W33917  15.415  19.668   4.184
61603W        W33918   3.448  32.108   4.644
61604W        W33919  40.177  25.237   5.164
61605W        W33920  35.455  12.720   1.727
61606W        W33921  29.609  13.215  11.709
61607W        W33922  38.605  40.903  11.573
61608W        W33923  20.081  25.880   1.718
61609W        W33924  34.349   3.539  11.717
61610W        W33925  16.035  32.613   1.790
61611W        W33926   6.703  30.088   0.671
61612W        W33927  17.354  14.377   4.189
61613W        W33928   9.230  18.526   1.520
61614W        W33929  20.021   2.820   2.630
61615W        W33930  30.978  43.946   4.341
61616W        W33931  13.065  12.360  13.598
61617W        W33932  24.686  34.423  12.878
61618W        W33933  15.314  43.128  10.681
61619W        W33934  19.156  15.688   3.328
61620W        W33935  38.306  39.269  10.680
61621W        W33936  44.822  27.092  14.449
61622W        W33937   2.460  15.636  11.975
61623W        W33938   3.703  16.759  10.563
61624W        W33939  17.773  15.324   1.576
61625W        W33940  39.947  42.767  12.537
61626W        W33941  21.254  14.379   1.313
61627W        W33942  13.780  20.235   4.675
61628W        W33943  17.651   9.959   1.815
61629W        W33944  38.875  17.502   1.348
61630W        W33945  25.220  27.205  12.311
61631W        W33946   3.945  25.606  11.915
61632W        W33947  27.162  19.569   3.175
61633W        W33948  29.965  41.224   4.196
61634W        W33949  24.139  37.816   2.414
61635W        W33950  26.276   0.225   1.892
61636W        W33951  16.695  26.887   3.253
61637W        W33952  42.063  15.216  14.883
61638W        W33953   3.427  30.999   2.556
61639W        W33954  29.551  10.678  12.876
61640W        W33955  34.442  37.333  12.464
61641W        W33956  25.675  12.872  14.919
61642W        W33957  31.145  36.871  13.074
61643W        W33958  28.404  30.948  12.044
61644W        W33959   5.542   3.299   0.760
61645W        W33960   7.896  30.944   3.753
61646W        W33961  32.740   9.167   3.814
61647W        W33962  17.445  31.002  11.708
61648W        W33963  24.697  16.652  12.506
61649W        W33964   1.333  29.465   3.846
61650W        W33965   7.659  12.133  12.134
61651W        W33966  41.881  28.569   3.973
61652W        W33967  31.013  23.777  10.514
61653W        W33968   8.018  44.083   2.294
61654W        W33969   2.724  25.028  12.113
61655W        W33970  41.296  26.793   2.967
61656W        W33971  41.872  18.717  14.199
61657W        W33972  26.988  40.827  14.536
61658W        W33973  25.488  27.186   3.712
61659W        W33974  26.901  19.686   0.277
61660W        W33975  43.086   3.145  10.301
61661W        W33976   6.752  40.801  14.790
61662W        W33977  32.510   3.069   4.668
61663W        W33978  24.471  43.480   0.535
61664W        W33979  27.500  10.436   4.532
61665W        W33980   0.813  41.191  10.380
61666W        W33981  42.944  10.393   2.368
61667W        W33982  25.599  22.297   1.436
61668W        W33983  22.271  22.082   9.752
61669W        W33984  42.481  12.641   4.077
61670W        W33985   3.716  31.588  10.706
61671W        W33986  30.986  39.608   4.375
61672W        W33987  11.285  17.802   4.107
61673W        W33988   4.808   9.794  14.173
61674W        W33989  27.478   8.168   0.470
61675W        W33990  23.525  38.390  12.482
61676W        W33991   6.179  12.660   0.846
61677W        W33992  10.944  13.720  11.622
61678W        W33993  34.446   3.517   1.308
61679W        W33994  40.494  22.333   0.574
61680W        W33995  30.146   6.879   1.729
61681W        W33996   4.425  44.209  11.645
61682W        W33997  19.831  41.889   0.741
61683W        W33998  21.674  41.829   1.417
61684W        W33999  14.335  37.915  12.041
61685W        W34000   6.704   0.891  13.512
61686W        W34001  40.306  20.561   0.924
61687W        W34002  13.574  34.147   2.297
61688W        W34003   9.180  32.025   3.150
61689W        W34004  42.326  27.333   0.710
61690W        W34005  11.807   2.369   1.246
61691W        W34006   1.935   4.358  13.920
61692W        W34007   2.704   5.333  11.487
61693W        W34008  23.705   4.362  11.452
61694W        W34009  29.160  28.899   2.432
61695W        W34010  38.371  44.741  11.549
61696W        W34011  13.777  41.987  11.955
61697W        W34012  26.633  43.969   1.644
61698W        W34013  24.988  44.805  10.894
61699W        W34014  36.484  35.441  12.421
61700W        W34015   4.325  26.554  14.816
61701W        W34016  12.006  39.329  13.785
61702W        W34017   4.528  36.370   3.768
61703W        W34018   0.088  22.029  12.354
61704W        W34019  36.000  30.370  13.019
61705W        W34020  17.059  34.554  11.898
61706W        W34021   7.680  21.328   0.901
61707W        W34022  39.869  23.692   4.064
61708W        W34023  17.006  22.851   0.936
61709W        W34024  21.539   7.375  12.082
61710W        W34025  39.833  34.837  14.264
61711W        W34026  30.579  44.844  14.191
61712W        W34027  30.401  19.095  12.035
61713W        W34028  30.629   2.510   2.610
61714W        W34029  20.732  13.124  12.537
61715W        W34030  28.211   5.938   1.786
61716W        W34031   6.800  43.294  13.785
61717W        W34032  44.246   2.951  10.188
61718W        W34033  41.921  10.434  14.474
61719W        W34034   8.809  23.673  10.239
61720W        W34035  33.289  29.052   2.841
61721W        W34036  15.549  24.424  12.627
61722W        W34037  31.191  13.252   4.276
61723W        W34038  12.271  21.255   0.426
61724W        W34039  24.157   1.345  14.431
61725W        W34040  19.287  22.846   3.623
61726W        W34041   9.795  20.646   1.245
61727W        W34042  42.756  12.720   4.497
61728W        W34043  22.685   7.639  11.031
61729W        W34044  33.019   6.903   4.066
61730W        W34045  41.541   3.312   4.264
61731W        W34046  11.103  15.031   2.175
61732W        W34047  36.649  43.308   2.772
61733W        W34048  36.437  16.105   3.282
61734W        W34049  10.707   5.706   4.130
61735W        W34050  38.372  30.983   0.715
61736W        W34051  29.890  12.648   3.305
61737W        W34052  44.495  35.137   3.077
61738W        W34053  23.673  18.873  14.025
61739W        W34054  39.066  18.722   3.102
61740W        W34055  16.239  32.465   4.503
61741W        W34056  43.762  17.395  13.786
61742W        W34057   0.982  11.861  11.493
61743W        W34058  29.391  30.146   0.743
61744W        W34059  20.919  10.094   5.599
61745W        W34060  30.759   0.249   2.368
61746W        W34061  40.726  11.866  13.556
61747W        W34062   9.542  39.663   3.709
61748W        W34063   3.264  18.644  13.580
61749W        W34064   1.285  31.393  13.441
61750W        W34065   7.739   0.667   3.159
61751W        W34066  38.230   6.377  10.114
61752W        W34067  10.686   7.914   1.155
61753W        W34068  10.481  35.954   2.442
61754W        W34069   1.984  25.154   4.591
61755W        W34070  20.627  21.437   1.797
61756W        W34071  14.456  31.006   2.708
61757W        W34072   9.857  32.576  12.510
61758W        W34073  28.916  16.623  13.462
61759W        W34074  11.853   4.953   2.830
61760W        W34075  38.371  21.759  11.737
61761W        W34076  40.526  11.938  14.433
61762W        W34077   2.218  14.923  10.907
61763W        W34078  40.415   0.284  12.444
61764W        W34079   6.298   9.399   1.371
61765W        W34080  11.939  44.752  12.081
61766W        W34081  34.116  38.868  13.044
61767W        W34082  30.459  27.386  14.333
61768W        W34083  12.931   9.638  11.073
61769W        W34084  41.103  21.512   3.245
61770W        W34085  19.665  29.824  12.460
61771W        W34086  43.979  12.807   3.258
61772W        W34087  11.826  41.113  13.029
61773W        W34088  39.259  27.923  12.900
61774W        W34089  14.640  29.615  11.273
61775W        W34090   9.379  42.434  14.461
61776W        W34091  32.688  24.445   2.298
61777W        W34092  11.630  18.111  13.620
61778W        W34093  33.919  10.958   3.270
61779W        W34094  42.114  24.957   1.291
61780W        W34095  12.133   4.479  11.905
61781W        W34096  13.906  21.535   3.510
61782W        W34097  33.407  38.178  12.889
61783W        W34098  26.615   7.009   9.699
61784W        W34099  25.265  16.244  12.139
61785W        W34100  44.000  44.057   0.012
61786W        W34101  11.409  31.379   0.386
61787W        W34102   1.701  10.393  11.236
61788W        W34103  15.224  18.393  11.227
61789W        W34104   9.137   6.494  14.796
61790W        W34105  26.098   0.671  12.909
61791W        W34106   9.381  35.985   4.178
61792W        W34107   7.905  20.595  12.313
61793W        W34108  24.221  42.065  14.351
61794W        W34109  15.290  15.805   1.278
61795W        W34110  13.812   2.097   1.743
61796W        W34111  11.626  21.614   4.487
61797W        W34112  36.880  29.150  13.481
61798W        W34113  11.724  32.449  14.013
61799W        W34114   6.294  25.368  10.260
61800W        W34115  10.320  43.039   4.145
61801W        W34116   1.840  42.709   1.801
61802W        W34117  12.250  18.402  13.113
61803W        W34118  15.328   5.498   0.712
61804W        W34119  19.575  24.254  14.316
61805W        W34120  12.165  39.518  14.710
61806W        W34121  42.437  16.109  11.511
61807W        W34122  12.276   9.174   1.302
61808W        W34123   4.744  23.125   3.744
61809W        W34124  41.378  29.934  13.561
61810W        W34125  18.122  31.178   1.123
61811W        W34126  13.607  25.764   0.401
61812W        W34127   0.343  17.822  10.495
61813W        W34128  12.564  29.693  10.979
61814W        W34129   2.536  41.566  12.654
61815W        W34130  25.621   5.828  13.760
61816W        W34131  10.661  29.228  12.864
61817W        W34132  33.087  13.645  13.596
61818W        W34133   1.401  26.902  11.019
61819W        W34134  17.950  12.772  13.422
61820W        W34135  32.515  32.122  11.600
61821W        W34136   1.715  34.217   3.322
61822W        W34137  30.966  42.534  10.764
61823W        W34138  18.859  36.052  12.989
61824W        W34139  21.938  32.603   0.428
61825W        W34140  29.855   8.520   0.522
61826W        W34141  15.609  33.477   2.564
61827W        W34142   5.663  28.324  10.962
61828W        W34143  22.494  33.881   3.116
61829W        W34144  20.806   5.901   2.612
61830W        W34145  11.933  21.810   3.519
61831W        W34146  13.210   5.450  10.398
61832W        W34147  41.877   8.400   2.723
61833W        W34148  14.611   0.758   1.652
61834W        W34149   5.169  29.965  12.465
61835W        W34150   7.180  37.582  11.924
61836W        W34151  36.215   4.665  11.036
61837W        W34152  21.264  15.427  12.582
61838W        W34153  33.206  19.955   1.301
61839W        W34154  41.353  18.163   3.534
61840W        W34155  43.406  18.058   4.325
61841W        W34156   0.522  16.466  13.009
61842W        W34157  33.865  13.286   4.084
61843W        W34158  35.871  15.647   2.826
61844W        W34159   1.394  22.378  13.514
61845W        W34160  37.574  16.234   0.429
61846W        W34161  41.069  13.083   0.418
61847W        W34162  34.508  25.621  11.707
61848W        W34163  40.119  41.385   0.629
61849W        W34164  10.028  10.131  10.372
61850W        W34165   4.497  30.694   3.706
61851W        W34166  18.546  18.699  11.530
61852W        W34167  39.513   2.011   3.142
61853W        W34168   9.734  37.402   1.210
61854W        W34169  41.449  38.937  12.912
61855W        W34170  16.506  26.190  10.914
61856W        W34171  28.890   0.381  12.881
61857W        W34172  23.825  15.636   4.558
61858W        W34173  33.063  26.674   1.962
61859W        W34174  29.049  13.955   3.643
61860W        W34175   9.033  13.838  11.404
61861W        W34176  38.336  14.205   2.865
61862W        W34177  35.097   5.445   0.245
61863W        W34178  16.053  44.884  12.172
61864W        W34179   2.241  20.497   1.835
61865W        W34180   6.165   2.836  12.994
61866W        W34181  10.711  21.783   0.717
61867W        W34182  18.596   7.930   1.454
61868W        W34183  11.599  25.039   1.495
61869W        W34184  33.105   9.895  13.711
61870W        W34185  28.863  27.440   1.452
61871W        W34186  42.235  29.943  12.969
61872W        W34187  22.254  40.193  14.777
61873W        W34188   2.173  35.336   1.035
61874W        W34189  10.459  30.929   2.881
61875W        W34190  31.682  20.711   1.989
61876W        W34191  32.861  44.796  11.755
61877W        W34192  15.600  15.182  13.290
61878W        W34193  19.618  28.593   0.933
61879W        W34194  21.368  44.461   2.122
61880W        W34195  30.680   9.465   0.908
61881W        W34196  17.636  36.126  11.034
61882W        W34197  10.282  23.331  10.157
61883W        W34198   8.907  10.145  12.849
61884W        W34199  29.614   4.214  11.120
61885W        W34200   6.560  37.255   2.728
61886W        W34201  13.659  31.986  12.115
61887W        W34202  35.699  15.557  14.981
61888W        W34203   5.958  23.480  13.588
61889W        W34204  26.101  12.686   2.721
61890W        W34205  10.851  16.501  12.504
61891W        W34206   6.861  17.138   2.852
61892W        W34207  16.126  30.669  12.723
61893W        W34208  32.551   4.997  11.216
61894W        W34209  24.390  19.838  13.929
61895W        W34210  33.343  33.508   1.971
61896W        W34211  31.608  19.295  10.493
61897W        W34212   7.760  39.198   2.818
61898W        W34213  12.468  28.564   3.747
61899W        W34214   7.313  23.974   0.234
61900W        W34215   5.749   0.320  12.016
61901W        W34216  12.206  20.203   0.196
61902W        W34217   8.201  40.080   4.049
61903W        W34218  30.056   7.618  13.361
61904W        W34219  23.536  19.424   5.020
61905W        W34220  30.025  44.690   0.880
61906W        W34221  42.833  41.872   4.609
61907W        W34222   6.919  13.034   4.183
61908W        W34223  26.660  12.326   4.604
61909W        W34224  31.936  36.474  14.444
61910W        W34225  42.965  11.229  13.253
61911W        W34226  36.955   0.482  12.228
61912W        W34227   7.839  21.114   4.028
61913W        W34228  20.798  33.567   2.701
61914W        W34229   2.904  31.635  11.893
61915W        W34230  24.135  11.224   4.754
61916W        W34231  20.998  10.236  14.483
61917W        W34232   3.856   7.147  10.622
61918W        W34233  19.611  12.945   0.025
61919W        W34234  31.157  26.296   1.983
61920W        W34235  28.271   2.839  14.805
61921W        W34236  22.130   5.894  10.741
61922W        W34237  41.085  23.676  10.777
61923W        W34238   2.224  31.543   2.210
61924W        W34239  39.720  10.037   2.322
61925W        W34240  19.303  22.936  12.034
61926W        W34241  18.784  41.393  10.804
61927W        W34242  37.036  19.890  14.691
61928W        W34243  21.955  32.510  11.643
61929W        W34244  32.543  34.807   3.706
61930W        W34245  34.190  12.862  11.108
61931W        W34246   8.944  19.660  13.322
61932W        W34247   3.749   1.797  13.076
61933W        W34248  29.034  13.738  12.202
61934W        W34249  29.599  31.703  13.087
61935W        W34250  44.881  13.125   4.733
61936W        W34251  14.606   5.707   3.177
61937W        W34252  10.625  11.294  12.323
61938W        W34253  17.159  23.935   2.794
61939W        W34254  36.836  12.148   0.234
61940W        W34255  15.646  26.580   1.109
61941W        W34256   1.745  43.349   2.731
61942W        W34257   4.307  23.649   0.800
61943W        W34258  35.813  24.043  14.359
61944W        W34259  27.772  40.122   1.672
61945W        W34260  38.434  35.918  10.528
61946W        W34261  17.483  22.441   2.884
61947W        W34262  42.947  39.446  12.954
61948W        W34263  37.364  30.057  12.548
61949W        W34264   1.027  36.162   9.804
61950W        W34265   0.986  17.157  13.635
61951W        W34266  21.455   3.792   1.417
61952W        W34267  22.354   6.321  11.498
61953W        W34268  23.691  43.478   0.529
61954W        W34269  28.227  42.405   4.067
61955W        W34270  28.254  24.562  14.912
61956W        W34271   1.489  16.183   4.379
61957W        W34272  20.076  33.967  14.346
61958W        W34273   6.332  14.853  10.908
61959W        W34274  20.366  44.166   3.381
61960W        W34275  20.058  26.095  13.261
61961W        W34276  35.924  19.800  13.441
61962W        W34277  43.422  33.038  13.105
61963W        W34278   4.681  31.630  14.158
61964W        W34279   3.301  25.409  13.822
61965W        W34280  18.363  10.686   3.681
61966W        W34281  17.614  22.187   0.685
61967W        W34282  11.318   0.324   0.861
61968W        W34283  11.582  28.497   4.622
61969W        W34284  12.420  35.377   0.252
61970W        W34285  35.330  38.557  11.600
61971W        W34286  21.568  35.016   3.784
61972W        W34287  28.455  26.517  13.537
61973W        W34288  39.527  35.442   2.218
61974W        W34289  38.919  23.761  12.518
61975W        W34290   5.988  20.078  12.862
61976W        W34291  16.639  17.861  12.581
61977W        W34292  38.868   4.729   1.859
61978W        W34293   4.783   8.854  10.635
61979W        W34294   0.414   9.504   1.353
61980W        W34295   6.816  10.183  13.618
61981W        W34296  37.788  21.298   2.904
61982W        W34297  25.661  37.977   1.501
61983W        W34298  44.974  29.010  12.589
61984W        W34299  23.532  17.907  14.444
61985W        W34300  44.118  43.716  12.388
61986W        W34301   7.936  30.153   3.609
61987W        W34302  21.616  34.476  12.491
61988W        W34303  37.126  39.765  10.970
61989W        W34304  22.692   0.502  11.600
61990W        W34305  32.991  10.673   1.244
61991W        W34306  32.843  16.577   4.039
61992W        W34307  18.194  25.056   0.330
61993W        W34308   4.660   5.917   4.644
61994W        W34309  28.333  16.322  14.372
61995W        W34310  27.646  28.974   1.711
61996W        W34311  13.880   8.627  13.368
61997W        W34312  38.940  20.234   2.975
61998W        W34313  22.763  28.994  12.903
61999W        W34314   6.302  33.048   1.845
62000W        W34315   2.135  25.357   2.401
62001W        W34316   6.828  18.412   3.829
62002W        W34317  42.345   3.828  13.860
62003W        W34318  31.566   1.210  10.680
62004W        W34319  41.574  11.390   2.677
62005W        W34320  27.115  31.132   4.169
62006W        W34321  25.758  15.017  14.483
62007W        W34322  25.770  21.518   5.030
62008W        W34323   3.957  24.715  11.749
62009W        W34324  31.079  16.101   3.228
62010W        W34325  12.214  21.053   2.302
62011W        W34326  35.137  40.504  14.901
62012W        W34327  42.089  27.469   1.163
62013W        W34328  32.998   0.203  14.873
62014W        W34329  31.030  25.000   2.663
62015W        W34330  16.170  33.999  10.994
62016W        W34331  30.650   4.388  14.318
62017W        W34332   9.239  24.148   4.371
62018W        W34333  10.555   8.853   2.369
62019W        W34334   1.751   6.894  13.410
62020W        W34335  32.915  19.034  12.497
62021W        W34336   0.045  10.210  13.092
62022W        W34337   5.127  19.245  11.125
62023W        W34338  13.241   6.866   2.762
62024W        W34339   7.038  38.404  13.542
62025W        W34340   4.413  29.960   0.761
62026W        W34341   6.669  11.615   3.745
62027W        W34342   6.391  44.769  13.549
62028W        W34343  14.305   9.184   2.081
62029W        W34344  17.307   3.917  11.073
62030W        W34345  28.222  22.251  14.811
62031W        W34346  15.329  27.629  12.813
62032W        W34347  13.800   0.396   4.381
62033W        W34348  40.414  28.844  11.193
62034W        W34349  27.429  39.061  13.904
62035W        W34350   7.133  17.758  13.529
62036W        W34351  31.581   1.469  11.954
62037W        W34352  36.653  16.868  12.673
62038W        W34353  33.898  38.906  14.970
62039W        W34354  40.872  34.953   0.002
62040W        W34355  14.539  21.427   0.360
62041W        W34356  39.692  31.741   3.211
62042W        W34357  29.451  40.550  14.128
62043W        W34358  13.905   5.896  13.999
62044W        W34359  23.814   0.235  14.083
62045W        W34360  15.042  15.351   1.375
62046W        W34361  35.532  33.022  10.542
62047W        W34362  34.813  41.111  14.029
62048W        W34363   7.192  38.373   3.064
62049W        W34364  38.363  44.887  12.591
62050W        W34365   4.894  36.806  10.315
62051W        W34366   5.920  16.808  11.550
62052W        W34367  44.853  22.327  11.013
62053W        W34368  43.718  16.406  13.313
62054W        W34369  35.274  12.176   1.029
62055W        W34370   5.231  37.984   0.020
62056W        W34371  37.715  36.576   4.520
62057W        W34372  24.535   7.126  13.404
62058W        W34373  37.442   4.796  12.451
62059W        W34374   1.256  36.364  14.335
62060W        W34375   0.202   8.031  11.365
62061W        W34376  34.792  20.274   3.081
62062W        W34377   8.268  27.985   0.398
62063W        W34378  23.738  26.166   3.971
62064W        W34379  43.256   7.288  11.901
62065W        W34380  18.216  30.789   2.871
62066W        W34381  19.141  10.279  14.508
62067W        W34382  33.449   8.918   1.793
62068W        W34383  22.185  34.010   1.740
62069W        W34384  15.574  37.909  12.381
62070W        W34385  22.679  13.849  11.448
62071W        W34386   9.291   6.211  13.305
62072W        W34387  36.470   7.330  14.085
62073W        W34388  40.964  25.757  13.564
62074W        W34389   6.736  33.369  12.553
62075W        W34390  13.482  32.816   2.173
62076W        W34391   3.255  21.197   4.113
62077W        W34392  40.367  29.877  11.150
62078W        W34393  23.099  21.195   2.671
62079W        W34394  33.808  41.730   2.771
62080W        W34395  36.938  30.010   2.246
62081W        W34396  18.256  22.575  13.804
62082W        W34397  39.567  10.199   2.830
62083W        W34398  13.106   3.743  13.830
62084W        W34399  44.933  39.416  10.462
62085W        W34400  25.496  40.597  12.727
62086W        W34401   0.803  31.630  13.469
62087W        W34402  11.758  20.853  11.413
62088W        W34403  27.207  21.157   4.079
62089W        W34404  41.542  29.936   0.649
62090W        W34405  28.877   8.749   3.752
62091W        W34406  36.827  44.801   2.318
62092W        W34407  44.304  40.951  13.373
62093W        W34408  41.425  39.333  13.935
62094W        W34409  25.514  33.096   2.210
62095W        W34410  12.268   7.084  14.321
62096W        W34411   2.210   7.276   4.392
62097W        W34412  11.722  23.896  13.054
62098W        W34413  40.833  21.287   1.410
62099W        W34414   3.330   8.202  13.055
62100W        W34415  33.903   6.644   3.150
62101W        W34416  30.662   5.244  12.859
62102W        W34417  38.869  26.411   0.442
62103W        W34418   2.790  31.740  12.760
62104W        W34419  19.962  30.921  13.981
62105W        W34420   9.197  44.289  10.292
62106W        W34421   1.535  30.796   4.278
62107W        W34422  38.128  40.318  11.118
62108W        W34423  21.061  36.398  13.327
62109W        W34424  15.618   8.174  10.702
62110W        W34425  13.291  28.515   4.350
62111W        W34426  31.045   4.670   2.782
62112W        W34427  11.727  43.627   3.933
62113W        W34428  30.107  43.456   3.328
62114W        W34429  32.947   8.386   2.313
62115W        W34430  25.637  12.789   1.354
62116W        W34431   5.499  25.172   4.106
62117W        W34432  33.545  11.252   1.757
62118W        W34433  39.084   5.313  13.838
62119W        W34434  19.151  17.192   3.081
62120W        W34435  39.024  20.294  14.716
62121W        W34436  13.035  15.586  14.900
62122W        W34437  22.176  28.054   4.722
62123W        W34438   6.497  13.309   2.801
62124W        W34439  43.087   0.341  10.140
62125W        W34440  21.863  37.312  14.701
62126W        W34441   6.753  33.950  14.286
62127W        W34442  21.562  27.753   4.522
62128W        W34443  14.962  16.318   2.250
62129W        W34444  22.356   7.165  14.751
62130W        W34445   9.343  29.582  10.230
62131W        W34446  43.889  38.980   4.563
62132W        W34447  29.938  43.954   3.396
62133W        W34448  36.200   1.286   3.781
62134W        W34449  16.856  27.924  13.552
62135W        W34450  32.275  21.090  10.318
62136W        W34451  21.329  31.819  10.240
62137W        W34452  11.679  34.409   3.205
62138W        W34453  13.387  28.981  12.932
62139W        W34454  42.428  42.417  12.951
62140W        W34455   3.505  39.040   3.335
62141W        W34456  16.028  26.629  13.446
62142W        W34457  36.059  25.937   3.237
62143W        W34458   0.390  18.330   0.879
62144W        W34459   2.699   2.414   0.928
62145W        W34460  18.147  14.867   5.029
62146W        W34461   8.833  26.720  10.279
62147W        W34462  15.833  39.896   1.794
62148W        W34463  15.836  20.598   2.350
62149W        W34464  33.995  15.418  12.482
62150W        W34465  27.386  20.876   3.657
62151W        W34466  29.771  11.050   2.926
62152W        W34467  35.537  24.961   3.626
62153W        W34468  18.763  10.647   9.642
62154W        W34469  34.392   1.973  11.558
62155W        W34470  41.645   5.757  14.998
62156W        W34471  26.086   5.106   4.850
62157W        W34472  34.543  39.923  10.845
62158W        W34473   0.975   2.916  11.652
62159W        W34474  23.022  16.516   2.699
62160W        W34475  11.791  35.440   4.185
62161W        W34476  43.862  34.629  13.874
62162W        W34477  16.753  21.013   3.890
62163W        W34478  24.026  34.609   0.932
62164W        W34479  29.993  21.501   4.036
62165W        W34480  38.121  10.623  14.093
62166W        W34481  17.229  43.332  13.728
62167W        W34482  44.419  28.486  13.090
62168W        W34483   1.813  16.691  14.571
62169W        W34484  33.080  21.506  11.556
62170W        W34485  18.767  20.827  14.351
62171W        W34486  42.546  39.389  14.126
62172W        W34487  26.776  40.098   9.985
62173W        W34488  37.672  36.614   3.742
62174W        W34489  42.547  35.959  12.102
62175W        W34490  17.431   0.398   0.851
62176W        W34491  29.369  18.844   1.596
62177W        W34492  25.573  36.472   4.574
62178W        W34493  15.498   3.827  10.045
62179W        W34494  39.902  13.279  14.431
62180W        W34495  44.224  29.166   1.882
62181W        W34496  15.916  33.120  12.478
62182W        W34497  35.214  31.106   2.747
62183W        W34498  39.356  13.323  11.137
62184W        W34499  28.285  26.481  14.016
62185W        W34500  19.245   7.315   2.949
62186W        W34501  24.670  23.513  10.674
62187W        W34502  24.680  17.812  14.801
62188W        W34503  36.094  11.917   1.454
62189W        W34504  13.746  16.728  11.001
62190W        W34505  26.173  39.633   2.479
62191W        W34506  31.625  42.911   0.304
62192W        W34507  18.736  42.364   3.179
62193W        W34508  26.385  13.325  10.962
62194W        W34509  18.366  28.426  14.814
62195W        W34510   5.411  31.658   4.249
62196W        W34511  32.473   5.828  13.306
62197W        W34512   5.863   3.991   4.227
62198W        W34513   1.711  11.625  12.913
62199W        W34514  20.537  16.211  14.529
62200W        W34515  39.378  43.980  12.479
62201W        W34516  40.484  35.447   0.383
62202W        W34517  32.365  11.053   2.402
62203W        W34518  12.363  41.579   2.269
62204W        W34519  17.052   9.195  10.330
62205W        W34520  31.091  20.893  11.031
62206W        W34521  22.555  15.537   4.703
62207W        W34522  28.704  12.731   2.752
62208W        W34523   2.937  24.024   4.410
62209W        W34524  35.433  24.405   3.011
62210W        W34525  15.909  43.484  12.805
62211W        W34526  44.508  42.559   0.705
62212W        W34527   9.984  22.289  14.917
62213W        W34528  22.843   0.163  13.876
62214W        W34529  21.181   0.422   1.215
62215W        W34530  37.858  39.044   0.009
62216W        W34531  39.465  30.266  10.874
62217W        W34532  26.930  24.302  11.666
62218W        W34533  23.503  11.172  11.643
62219W        W34534   9.785  29.341  12.891
62220W        W34535  14.605   2.696   1.842
62221W        W34536  30.900   3.369  14.941
62222W        W34537  21.788   2.528   3.866
62223W        W34538   1.987  23.109  12.088
62224W        W34539   7.511  16.073  10.980
62225W        W34540  23.508  31.804  12.460
62226W        W34541  14.364  29.971  10.689
62227W        W34542  18.009  34.137   4.398
62228W        W34543  16.646  33.020  13.824
62229W        W34544  10.385  35.461   1.234
62230W        W34545  14.031  30.031   0.903
62231W        W34546  42.974   6.404   1.059
62232W        W34547  31.559  19.479  13.952
62233W        W34548   9.398   4.192   3.692
62234W        W34549  23.000  10.192  10.576
62235W        W34550  11.069  32.150  12.085
62236W        W34551  27.025   4.496   2.198
62237W        W34552  15.282  22.122   1.403
62238W        W34553  25.224   6.975  12.473
62239W        W34554  31.850  42.796  10.300
62240W        W34555  13.851  21.970  10.723
62241W        W34556  37.882   9.700   4.435
62242W        W34557  26.989  26.190  12.034
62243W        W34558  16.908  23.632   4.412
62244W        W34559  18.174   9.890   1.973
62245W        W34560  21.755  19.431  10.556
62246W        W34561  39.230  11.373   1.203
62247W        W34562   7.588  11.650   2.749
62248W        W34563  42.080  16.680  11.410
62249W        W34564  44.250  22.163   1.311
62250W        W34565   9.666  32.878   0.244
62251W        W34566  13.111  35.294  14.939
62252W        W34567  33.021   8.661  14.292
62253W        W34568  23.248  35.442   3.421
62254W        W34569  34.650  15.166   1.196
62255W        W34570  22.250   3.146   2.675
62256W        W34571  25.096  15.549  11.284
62257W        W34572  43.952   9.416  14.822
62258W        W34573  42.259   1.837  12.931
62259W        W34574   7.808  26.526  11.761
62260W        W34575   8.247   4.257   2.785
62261W        W34576  11.582   0.392  13.981
62262W        W34577  23.995  18.721   3.354
62263W        W34578  24.559  36.801  13.965
62264W        W34579  40.373  24.922  13.197
62265W        W34580  21.073  26.412  12.505
62266W        W34581   0.653  29.142   4.393
62267W        W34582   5.433   8.301   1.377
62268W        W34583  40.429  39.053  13.518
62269W        W34584  22.800  26.445  13.522
62270W        W34585   2.227   4.363  11.449
62271W        W34586  14.857   0.368   4.374
62272W        W34587  22.691   8.377   0.223
62273W        W34588   4.340  38.491  11.371
62274W        W34589   5.837  43.260  14.750
62275W        W34590  28.593  34.504  12.553
62276W        W34591   9.909  26.385   2.254
62277W        W34592  12.756  40.911   4.328
62278W        W34593  32.758  24.485  14.053
62279W        W34594  27.980  31.974  14.351
62280W        W34595  44.342  42.625   4.763
62281W        W34596  21.124  43.780   0.478
62282W        W34597  10.721  13.091  14.361
62283W        W34598   0.951  21.035  12.892
62284W        W34599  14.869   2.225   0.374
62285W        W34600   9.442  14.536   2.830
62286W        W34601  42.509   2.945   4.527
62287W        W34602   3.480  41.746   0.929
62288W        W34603  10.321  35.646  14.757
62289W        W34604  12.910  35.802  11.457
62290W        W34605  38.525   7.294   4.835
62291W        W34606  42.751  35.307  11.375
62292W        W34607  33.092  44.739   3.327
62293W        W34608   3.785  38.830  10.708
62294W        W34609  16.125  23.039  13.256
62295W        W34610  15.315   3.930   0.701
62296W        W34611  21.868  44.330   1.351
62297W        W34612  18.155  40.549  11.958
62298W        W34613  41.986  37.145   1.217
62299W        W34614  36.488  26.883  14.529
62300W        W34615  23.358   6.867   2.244
62301W        W34616  17.795   6.777  12.853
62302W        W34617  33.385  23.855   0.315
62303W        W34618   1.950  30.108  12.366
62304W        W34619  34.650  22.202  14.508
62305W        W34620  11.440  41.501  14.061
62306W        W34621  13.201  23.799   4.457
62307W        W34622  29.522  10.338   3.064
62308W        W34623  34.128  24.620   0.476
62309W        W34624   1.235  41.187   3.503
62310W        W34625   4.402  19.091  13.796
62311W        W34626   8.776  17.031  11.264
62312W        W34627  19.120  13.281  14.086
62313W        W34628  15.133  12.212   2.170
62314W        W34629  44.869  17.295   2.677
62315W        W34630  24.128  11.972  11.648
62316W        W34631  28.882  41.390  11.389
62317W        W34632   5.634  33.489   2.277
62318W        W34633  40.830  16.609   0.924
62319W        W34634   8.670  14.132  12.517
62320W        W34635   3.929  35.149   1.828
62321W        W34636   6.393   1.839  12.058
62322W        W34637  20.570   8.734  13.720
62323W        W34638  31.341   8.787  12.448
62324W        W34639  21.991  38.586   3.017
62325W        W34640   4.207  40.569  11.524
62326W        W34641   6.848  33.675  14.935
62327W        W34642  42.633  43.872   1.685
62328W        W34643   4.415  41.607  13.547
62329W        W34644   1.375   7.474   4.351
62330W        W34645  25.968  11.172  12.569
62331W        W34646  23.522  13.345  14.904
62332W        W34647  14.085  24.691   0.786
62333W        W34648  32.025  41.868   2.873
62334W        W34649  44.434  13.245  14.977
62335W        W34650  14.391  22.734   2.036
62336W        W34651  44.822  15.310  13.854
62337W        W34652   5.460  39.255   0.169
62338W        W34653   5.848  34.402  14.300
62339W        W34654  31.363  21.222  14.791
62340W        W34655   9.155  32.141   1.770
62341W        W34656  23.226  44.277  12.983
62342W        W34657  19.670  32.933  14.666
62343W        W34658  22.133  20.462  13.531
62344W        W34659  14.272  24.017   2.641
62345W        W34660  19.186  31.876   1.354
62346W        W34661   3.182  18.158  12.718
62347W        W34662  38.407  14.149   2.364
62348W        W34663  10.818   7.435   0.369
62349W        W34664  20.370   1.962  11.161
62350W        W34665  29.499  11.799  14.347
62351W        W34666  19.247  14.317   0.067
62352W        W34667  10.578  42.556   1.759
62353W        W34668  25.943  40.828   4.621
62354W        W34669  43.410  20.757   3.715
62355W        W34670  42.294  41.542   2.748
62356W        W34671   5.026   2.710   1.945
62357W        W34672  10.379   9.657  14.518
62358W        W34673  41.962  11.588  10.697
62359W        W34674   7.658  27.333   1.158
62360W        W34675   7.015  26.752  10.103
62361W        W34676  27.066  32.273  12.870
62362W        W34677  35.334  20.717  14.369
62363W        W34678   0.484  34.846   3.886
62364W        W34679  18.809  25.243   1.221
62365W        W34680   1.943   0.281  14.351
62366W        W34681  28.492  42.573   2.763
62367W        W34682  15.321   6.353   0.884
62368W        W34683  21.633  18.789  12.654
62369W        W34684  21.499  35.938   3.753
62370W        W34685  13.772  24.182  14.982
62371W        W34686   6.610   3.644  13.391
62372W        W34687  40.453  22.030   4.898
62373W        W34688  23.680   4.371  13.355
62374W        W34689  43.983  35.032   0.333
62375W        W34690   0.272  43.324   1.700
62376W        W34691   5.283  40.091  14.625
62377W        W34692  17.668  13.647  13.601
62378W        W34693  19.644  44.933   0.521
62379W        W34694  35.611   5.458   1.369
62380W        W34695  33.803  38.520  13.899
62381W        W34696  42.590  34.532   2.101
62382W        W34697   3.243   4.079   1.897
62383W        W34698  42.096  30.557   3.238
62384W        W34699  26.939  35.387   3.590
62385W        W34700   1.891  41.748   0.562
62386W        W34701  34.633  42.466   3.804
62387W        W34702  42.765  14.050   3.649
62388W        W34703  21.103  14.457   4.639
62389W        W34704   2.210  38.233   2.742
62390W        W34705   6.804  25.574   4.186
62391W        W34706   5.898   3.996   0.437
62392W        W34707  22.923  37.766  12.449
62393W        W34708  41.052  28.666   2.242
62394W        W34709  15.699   9.010   0.385
62395W        W34710  19.562   0.894   4.623
62396W        W34711   5.029   0.518   3.743
62397W        W34712  12.631  27.069  11.529
62398W        W34713  17.714  20.930   0.815
62399W        W34714  33.055  27.673   0.282
62400W        W34715   0.741  33.333   0.169
62401W        W34716  43.021  24.619   2.379
62402W        W34717  44.007  27.425  11.509
62403W        W34718  41.498  29.202  10.590
62404W        W34719  20.134  33.923   2.721
62405W        W34720  24.773   4.718   4.649
62406W        W34721  22.178   1.785   4.327
62407W        W34722  35.575  14.280   0.842
62408W        W34723   6.859   1.301   1.509
62409W        W34724  37.329  13.378   0.650
62410W        W34725  17.188  41.477  13.580
62411W        W34726  23.710   9.683   1.174
62412W        W34727  42.457  18.963  12.959
62413W        W34728  31.340  17.072   2.710
62414W        W34729   8.732  27.208  10.957
62415W        W34730  38.399  22.195   0.143
62416W        W34731   7.205   1.933  11.115
62417W        W34732  37.592  13.374  13.860
62418W        W34733   5.438  44.251  13.493
62419W        W34734  24.198  32.093   1.839
62420W        W34735   4.291  16.874  11.861
62421W        W34736  21.128  28.398  10.714
62422W        W34737   1.391  35.400  14.361
62423W        W34738  21.206  32.976   2.145
62424W        W34739  19.018  16.564  10.550
62425W        W34740  14.662  31.844   0.639
62426W        W34741  39.307  22.516   3.651
62427W        W34742  30.338   5.736  14.070
62428W        W34743   4.197  25.212   4.115
62429W        W34744  11.882  17.225   3.053
62430W        W34745   8.826  11.215  12.527
62431W        W34746  33.135  28.444   2.340
62432W        W34747  39.008  37.985  10.693
62433W        W34748  33.052  27.682   2.742
62434W        W34749   2.431  26.988   3.206
62435W        W34750  31.057  17.718   0.229
62436W        W34751  13.316   7.257   3.101
62437W        W34752  22.703  27.976  11.960
62438W        W34753  12.794   0.920   1.168
62439W        W34754  33.398  42.976   2.897
62440W        W34755  22.684   2.318  11.291
62441W        W34756  12.834   5.446  14.811
62442W        W34757  29.169  29.635   3.143
62443W        W34758   5.949  36.996  12.394
62444W        W34759  16.084  41.813  11.539
62445W        W34760  25.448  32.730  12.596
62446W        W34761  13.386  38.613  12.657
62447W        W34762  34.758   9.594  12.975
62448W        W34763  29.040  32.520   3.634
62449W        W34764  19.303  40.823  13.882
62450W        W34765  13.321  10.333  11.625
62451W        W34766   3.495  19.128  12.399
62452W        W34767   8.613  32.643   0.864
62453W        W34768   3.234  29.219   4.093
62454W        W34769  10.463  32.467   0.319
62455W        W34770  35.413  29.894   0.345
62456W        W34771  43.884  43.092  13.128
62457W        W34772  36.401  44.285   3.896
62458W        W34773  27.110  14.058  10.947
62459W        W34774  25.605  38.928   4.503
62460W        W34775  11.717  22.541   0.323
62461W        W34776  44.361  36.521  10.218
62462W        W34777  41.823  26.268  10.434
62463W        W34778  41.144  22.225  14.717
62464W        W34779  30.413  25.143   0.525
62465W        W34780   4.181  10.150   0.846
62466W        W34781  14.803  39.750   0.370
62467W        W34782  30.370  34.513   4.222
62468W        W34783  15.668   0.236  12.922
62469W        W34784  31.611  14.727  12.122
62470W        W34785   7.597   4.261   4.253
62471W        W34786  25.574   8.727   3.707
62472W        W34787   9.396  41.449   2.705
62473W        W34788  25.408   6.971  10.050
62474W        W34789  26.985  19.563   1.248
62475W        W34790  37.876  20.870   1.836
62476W        W34791  22.989  14.796  13.423
62477W        W34792  32.884  33.683  14.278
62478W        W34793  36.367   2.422  11.097
62479W        W34794  32.110  11.407  11.962
62480W        W34795  33.702  13.702   5.138
62481W        W34796  44.936   7.873  10.973
62482W        W34797  40.556   4.230   3.740
62483W        W34798  24.983   5.202   0.869
62484W        W34799  21.549  13.527   0.073
62485W        W34800  38.866  40.537  13.929
62486W        W34801   3.275  35.587   4.143
62487W        W34802  25.147  23.498  14.877
62488W        W34803  30.465   7.643  10.731
62489W        W34804  27.708  29.557   4.701
62490W        W34805  41.270  18.132   1.705
62491W        W34806  22.530  11.388   0.213
62492W        W34807  26.849  10.479  12.098
62493W        W34808  44.590  10.020  12.486
62494W        W34809  24.519  36.581   2.148
62495W        W34810  38.001  42.328   2.341
62496W        W34811  44.486   6.709  11.648
62497W        W34812   9.606  18.842  12.584
62498W        W34813  17.764  22.279  11.995
62499W        W34814  19.246   2.119   4.068
62500W        W34815  16.567  33.341  11.830
62501W        W34816  41.443  41.400   4.631
62502W        W34817  34.553  35.161   3.215
62503W        W34818  31.639  41.944   0.372
62504W        W34819  28.156  36.383  13.453
62505W        W34820  32.168  39.236  14.780
62506W        W34821  33.319   6.496   2.741
62507W        W34822  40.042  24.575   0.923
62508W        W34823  23.033  27.895   1.940
62509W        W34824  27.719  18.802  13.529
62510W        W34825  41.320   1.230  14.996
62511W        W34826  28.938   1.765   3.309
62512W        W34827  12.126  44.158  11.247
62513W        W34828   4.675   8.807   2.859
62514W        W34829  18.862  21.539  11.176
62515W        W34830   7.122  37.093  13.108
62516W        W34831  38.297  12.632   3.380
62517W        W34832  39.393   9.350   3.666
62518W        W34833   4.788  12.871  10.746
62519W        W34834  17.545  26.521   1.886
62520W        W34835   1.775  14.575  14.750
62521W        W34836  33.551   0.166   1.202
62522W        W34837  24.226   6.426  12.655
62523W        W34838  17.269  24.560  11.938
62524W        W34839   2.315  26.115   2.666
62525W        W34840  43.836  31.846   1.667
62526W        W34841  44.744  10.190   5.218
62527W        W34842  35.787   7.278  12.893
62528W        W34843   9.673  28.613   3.411
62529W        W34844  40.916   5.076  12.183
62530W        W34845   5.208   8.895  12.311
62531W        W34846  31.849  11.847  11.987
62532W        W34847  35.296  22.773   0.043
62533W        W34848  29.609  15.242  11.990
62534W        W34849  16.350  43.054  13.074
62535W        W34850  17.226  21.289   3.703
62536W        W34851  16.072   7.226  13.551
62537W        W34852  31.562  25.546   4.628
62538W        W34853  25.063   8.789   4.639
62539W        W34854  16.211  24.975   0.638
62540W        W34855  11.776  33.905  12.099
62541W        W34856  12.200  27.477  10.401
62542W        W34857  11.217  38.595  11.591
62543W        W34858  31.792  13.798  11.276
62544W        W34859  17.149   4.830   3.807
62545W        W34860  33.813  16.655   0.815
62546W        W34861   3.218  29.662   1.254
62547W        W34862  14.754  31.458   1.680
62548W        W34863  20.059  41.117   4.625
62549W        W34864  34.942   2.282  10.437
62550W        W34865   6.363  21.500  10.343
62551W        W34866  41.263  25.756  12.526
62552W        W34867   2.533  36.040   2.189
62553W        W34868  32.848   5.757  10.657
62554W        W34869  11.651  21.625  12.948
62555W        W34870  42.534  21.928   3.612
62556W        W34871   5.303   1.473   2.676
62557W        W34872  13.500   9.439  13.115
62558W        W34873  15.752  22.950   4.462
62559W        W34874   4.356  11.198  14.889
62560W        W34875  44.071   4.738   1.515
62561W        W34876   0.703  23.164   0.329
62562W        W34877  28.484  43.009  13.365
62563W        W34878  20.324   6.492  14.405
62564W        W34879  23.052  23.926  14.235
62565W        W34880  10.714  39.012   3.105
62566W        W34881  16.817   7.433  12.596
62567W        W34882  28.906   3.198   4.139
62568W        W34883  32.748  18.613  12.936
62569W        W34884  29.177  29.927   2.726
62570W        W34885  16.306   3.960   2.259
62571W        W34886  12.201  31.177   3.618
62572W        W34887  25.145  18.353   4.321
62573W        W34888  12.411  42.452  14.333
62574W        W34889  38.841  14.786  10.206
62575W        W34890  44.010   1.345  12.886
62576W        W34891   0.851  27.585  10.393
62577W        W34892   8.460  28.964   1.378
62578W        W34893   9.208  15.783   1.005
62579W        W34894  16.382  18.851  11.227
62580W        W34895  29.109  40.092   1.912
62581W        W34896  17.996  28.639  13.002
62582W        W34897  11.568  21.285  12.164
62583W        W34898  38.473  39.244  12.963
62584W        W34899  19.642  32.428   0.376
62585W        W34900  40.419  22.464   0.070
62586W        W34901  42.752  17.229   3.219
62587W        W34902   2.411  32.469  11.973
62588W        W34903  22.273  35.152   0.802
62589W        W34904  31.617  21.384  12.615
62590W        W34905  25.980  37.570  11.409
62591W        W34906  32.364  34.633  12.991
62592W        W34907  18.177  14.321   2.663
62593W        W34908  40.797  14.145  14.058
62594W        W34909  34.076  35.028   3.394
62595W        W34910   0.984  33.973  11.177
62596W        W34911   1.573  23.232  11.461
62597W        W34912  19.669  13.326   1.714
62598W        W34913  10.510  25.551  10.487
62599W        W34914  30.272  28.996   3.360
62600W        W34915  42.214  39.315  11.521
62601W        W34916  23.523  28.180  14.285
62602W        W34917   4.964  29.326   4.617
62603W        W34918  44.449  33.198   4.857
62604W        W34919  17.267  16.720   1.401
62605W        W34920  44.463   0.203   1.666
62606W        W34921  12.444  40.865   2.289
62607W        W34922  29.542  27.062  10.762
62608W        W34923  12.591  14.205  12.408
62609W        W34924  22.921  22.246  10.767
62610W        W34925  10.085  38.995   3.581
62611W        W34926  23.684  24.733   0.881
62612W        W34927  41.518  10.668   0.175
62613W        W34928   8.113  43.338   2.828
62614W        W34929  24.882  34.633   2.207
62615W        W34930   2.283   0.860   2.357
62616W        W34931  22.084   6.365  10.490
62617W        W34932  33.009  24.694  13.480
62618W        W34933  44.797  34.513  10.620
62619W        W34934   2.250  12.078   1.755
62620W        W34935  26.800  20.717  11.994
62621W        W34936  14.643   2.417  11.590
62622W        W34937  38.500  36.522  10.482
62623W        W34938  10.401  19.666   2.419
62624W        W34939  12.685   0.305  13.022
62625W        W34940  29.563   6.843   0.972
62626W        W34941  39.572  24.608   0.036
62627W        W34942   5.109  36.855  11.125
62628W        W34943  33.291   7.003   0.982
62629W        W34944  15.730  38.118   3.896
62630W        W34945  32.466  19.558   0.937
62631W        W34946  28.600  13.622  11.015
62632W        W34947  35.827  42.388   2.467
62633W        W34948  23.099  21.253  11.620
62634W        W34949  26.203  37.487  14.812
62635W        W34950  41.605  13.646   0.904
62636W        W34951  20.694  39.359   4.723
62637W        W34952  41.740  26.180  10.957
62638W        W34953  30.872  16.146   2.756
62639W        W34954  12.661  28.285   2.285
62640W        W34955   8.668  41.325  14.383
62641W        W34956   0.883  11.787  12.473
62642W        W34957   8.888  19.807  13.825
62643W        W34958  15.262   7.879  13.504
62644W        W34959  33.619  34.412   0.346
62645W        W34960  34.363  20.557   1.977
62646W        W34961  30.208   1.587   2.869
62647W        W34962   9.821  13.411  14.461
62648W        W34963   8.549  40.298   3.176
62649W        W34964  41.897  37.935  10.387
62650W        W34965  21.774  34.629   1.302
62651W        W34966   3.484  23.575  11.555
62652W        W34967  31.798   0.876  13.470
62653W        W34968  26.984  23.454   0.286
62654W        W34969  15.415   5.845  11.611
62655W        W34970   3.494  18.695   2.348
62656W        W34971  37.150   0.006   0.697
62657W        W34972  26.481  37.369   0.247
62658W        W34973  34.436  34.137   2.619
62659W        W34974  43.463  29.155  10.535
62660W        W34975  30.891  14.391  13.550
62661W        W34976   9.136  38.478   0.419
62662W        W34977  15.203   9.210   0.407
62663W        W34978  12.416   1.874  14.297
62664W        W34979  30.455  14.632  11.305
62665W        W34980  30.405  14.598   2.809
62666W        W34981  42.939  44.762  11.794
62667W        W34982  43.775   7.191  12.061
62668W        W34983  44.916  39.572   3.739
62669W        W34984   1.789  41.943   4.560
62670W        W34985  37.242  23.067  10.613
62671W        W34986  26.584   8.925   3.758
62672W        W34987  26.873  14.986  13.050
62673W        W34988   5.271  25.783   1.756
62674W        W34989  27.660   0.038   1.820
62675W        W34990  10.793   7.829   4.793
62676W        W34991  40.770  39.837   2.255
62677W        W34992  40.110  13.216   0.300
62678W        W34993   6.862   7.837   2.238
62679W        W34994   3.753  34.929  10.657
62680W        W34995  17.596  13.890  11.171
62681W        W34996  26.128  43.293  14.940
62682W        W34997  18.987   0.982   1.873
62683W        W34998  19.084   3.954  12.918
62684W        W34999   2.184  35.969   0.417
62685W        W35000  11.229  29.803  14.348
62686W        W35001  25.172  12.927   4.084
62687W        W35002  42.701  36.587   2.757
62688W        W35003  39.907  19.782   3.846
62689W        W35004  43.854   3.681  12.195
62690W        W35005   7.325  40.861   0.405
62691W        W35006   5.807  40.279   3.319
62692W        W35007   8.722  35.529  12.612
62693W        W35008   2.365  42.754  13.997
62694W        W35009  14.575  12.182  10.560
62695W        W35010   2.851   9.102   1.802
62696W        W35011   8.683   3.333   2.207
62697W        W35012  24.989   2.394  14.664
62698W        W35013  21.266   8.468   1.763
62699W        W35014  32.945   1.117   2.813
62700W        W35015  21.560  26.338   4.974
62701W        W35016  24.284  22.541   4.105
62702W        W35017  44.941   4.930  10.641
62703W        W35018  24.686  27.484   4.236
62704W        W35019  17.098  10.147   9.843
62705W        W35020   1.666  36.678  14.295
62706W        W35021  42.452  22.985  14.551
62707W        W35022   2.419  13.748   3.635
62708W        W35023  23.054  18.936  11.012
62709W        W35024  38.790  20.739  12.958
62710W        W35025  11.202  39.297  11.017
62711W        W35026   0.001  12.345  10.672
62712W        W35027  36.056  17.083  13.901
62713W        W35028  33.000  24.609  14.494
62714W        W35029  14.661  13.550  10.836
62715W        W35030  15.351   0.735   0.326
62716W        W35031  16.090   3.228   4.572
62717W        W35032  28.671   9.555   0.351
62718W        W35033   0.785  13.906  12.250
62719W        W35034  41.050  19.333   0.037
62720W        W35035  41.215  21.196   3.673
62721W        W35036  23.928   3.788  13.087
62722W        W35037   7.688  28.210   2.704
62723W        W35038   2.074  22.584   4.991
62724W        W35039   5.412   5.753  10.630
62725W        W35040  14.177  44.569  11.098
62726W        W35041  34.973  30.183   2.964
62727W        W35042  21.792  13.333  14.206
62728W        W35043  39.157  24.516  12.613
62729W        W35044  39.302  35.891   4.302
62730W        W35045  10.433  18.470   4.217
62731W        W35046  16.674   6.787  10.369
62732W        W35047  20.045  27.116   1.363
62733W        W35048  42.651   1.301   2.642
62734W        W35049   8.754  34.714   4.627
62735W        W35050   7.691   4.334  11.587
62736W        W35051  34.054  38.964  13.973
62737W        W35052  33.856  24.903   1.787
62738W        W35053  14.120  36.522  12.059
62739W        W35054  26.512  38.048  12.144
62740W        W35055  22.784  43.984  12.479
62741W        W35056  37.546  24.681   0.593
62742W        W35057   0.788  36.165   2.632
62743W        W35058  11.707  43.495   4.426
62744W        W35059  40.527   5.204   2.394
62745W        W35060  22.078  27.401  12.997
62746W        W35061   0.247  13.821   1.555
62747W        W35062   5.961  24.120  11.462
62748W        W35063  21.510   9.954  12.011
62749W        W35064  43.021  31.941   1.877
62750W        W35065  14.737   3.553  12.622
62751W        W35066  44.706  39.156  13.179
62752W        W35067  11.151  39.507  13.255
62753W        W35068   2.277  19.848   0.230
62754W        W35069  34.040  26.465   1.784
62755W        W35070  18.170  35.678   1.997
62756W        W35071  13.949  14.698  10.716
62757W        W35072  22.030  15.723   4.708
62758W        W35073   0.545  26.951   2.090
62759W        W35074  26.224  41.954  10.745
62760W        W35075  28.997  26.983   1.754
62761W        W35076  15.414  42.228  10.338
62762W        W35077  35.399  17.453  10.986
62763W        W35078  39.512   1.486   0.192
62764W        W35079  31.025  15.061   3.328
62765W        W35080  32.200  40.945  12.015
62766W        W35081  10.432  29.397  13.981
62767W        W35082  21.452  33.580  11.549
62768W        W35083  21.681  31.561  11.634
62769W        W35084  28.879  18.850  14.407
62770W        W35085   3.794  11.992   1.738
62771W        W35086  10.409   1.287   0.805
62772W        W35087  39.246  13.515  12.347
62773W        W35088  27.389  43.288   3.720
62774W        W35089  32.501  23.172   4.668
62775W        W35090   2.758   3.770   4.635
62776W        W35091  38.819  32.194  14.536
62777W        W35092  24.952  27.981  14.356
62778W        W35093  24.918  34.044  10.486
62779W        W35094   4.247  28.474  11.697
62780W        W35095  41.291  14.200  14.061
62781W        W35096   0.300  14.773  12.218
62782W        W35097  28.778  11.138   4.529
62783W        W35098  27.904  30.033   1.065
62784W        W35099   8.226   2.797   0.907
62785W        W35100  30.169  42.112  11.902
62786W        W35101  21.985  44.861  13.971
62787W        W35102   2.054  33.777  12.638
62788W        W35103  16.197   3.735  10.708
62789W        W35104  30.411  41.978  11.163
62790W        W35105   0.574  37.132   3.798
62791W        W35106  43.931  12.903   4.207
62792W        W35107  22.615  41.771   4.121
62793W        W35108  26.449   2.783  10.898
62794W        W35109   9.848  15.192  14.938
62795W        W35110  17.750  17.872  10.705
62796W        W35111   7.888  29.464   0.722
62797W        W35112  11.584  28.143  12.840
62798W        W35113  11.337   3.111  12.917
62799W        W35114   2.762   4.851  10.712
62800W        W35115  31.694  25.884   1.015
62801W        W35116  44.414   0.690  10.422
62802W        W35117  19.210  23.600   2.279
62803W        W35118  22.202   2.366   2.260
62804W        W35119  16.056  41.268  11.061
62805W        W35120   1.216  27.912  11.150
62806W        W35121  29.826   7.500   2.435
62807W        W35122  27.616  32.605   3.732
62808W        W35123  16.217  39.079  13.907
62809W        W35124  35.028  41.205  13.526
62810W        W35125  35.934  33.757  14.367
62811W        W35126  37.132   8.563  14.076
62812W        W35127  37.114  31.422  11.425
62813W        W35128  21.083  22.841   4.846
62814W        W35129  10.870  14.774  10.713
62815W        W35130  40.098  42.432  10.723
62816W        W35131  11.231  20.331   1.880
62817W        W35132  44.031   9.124  13.963
62818W        W35133   0.267  24.567   4.257
62819W        W35134  29.173  37.686   1.905
62820W        W35135  26.985  27.880  11.939
62821W        W35136  29.440  33.386   9.805
62822W        W35137   7.321  24.253  12.098
62823W        W35138  21.242  29.397   3.325
62824W        W35139  29.384  12.077   4.331
62825W        W35140  13.849  27.057   2.450
62826W        W35141  20.527   4.184   4.818
62827W        W35142   2.756  32.566  12.450
62828W        W35143  41.856  38.841   4.574
62829W        W35144   0.933   0.442   0.395
62830W        W35145  13.252  33.064   2.992
62831W        W35146  18.314  11.269   2.608
62832W        W35147   1.370  11.916   3.621
62833W        W35148  18.089  18.087   0.745
62834W        W35149   7.946  22.108   4.306
62835W        W35150  42.629  10.246   0.254
62836W        W35151   9.871  43.319   1.733
62837W        W35152  21.583  15.162   2.295
62838W        W35153  27.228  11.734   1.306
62839W        W35154  43.143  28.487  14.021
62840W        W35155  15.852  32.259  13.699
62841W        W35156  41.117   3.938   2.848
62842W        W35157  12.552  34.909  12.602
62843W        W35158  15.807  12.250   1.421
62844W        W35159  35.982  11.566   1.817
62845W        W35160  21.441  37.275   2.724
62846W        W35161  38.464  24.853   2.903
62847W        W35162   5.319  15.576   0.546
62848W        W35163  41.972   3.585   4.266
62849W        W35164   9.204   3.493  10.872
62850W        W35165  36.413  28.163   0.443
62851W        W35166  22.071  20.119  10.538
62852W        W35167  28.560  11.094   1.797
62853W        W35168   9.115  40.763  13.958
62854W        W35169  22.454  43.979   2.764
62855W        W35170  21.491  19.075   2.465
62856W        W35171  43.704  10.741   0.458
62857W        W35172  28.085  39.507   2.649
62858W        W35173  32.767  17.806   1.854
62859W        W35174  16.322  38.653  12.958
62860W        W35175   9.027   4.280   2.054
62861W        W35176  27.097  25.479  10.988
62862W        W35177  41.003   6.620  10.775
62863W        W35178  22.995  20.418   2.205
62864W        W35179   8.331  39.310   3.729
62865W        W35180  40.552  41.036   2.798
62866W        W35181  34.825  25.513   2.296
62867W        W35182  28.669   5.779  11.887
62868W        W35183  34.511  12.743   4.346
62869W        W35184   1.168   0.518   4.742
62870W        W35185  26.760  30.945   4.499
62871W        W35186  24.109  28.606   4.257
62872W        W35187  19.380  32.543  10.694
62873W        W35188   5.429  26.035   4.875
62874W        W35189  38.402  36.427  12.601
62875W        W35190  25.338  28.149  10.713
62876W        W35191   3.869  18.302   2.777
62877W        W35192  10.825   4.624  11.620
62878W        W35193   7.476  29.495   9.748
62879W        W35194  37.609  22.677   4.111
62880W        W35195  11.574  41.431   0.947
62881W        W35196  41.863  41.726  13.047
62882W        W35197  28.678  32.369  14.504
62883W        W35198  24.678  22.485   2.360
62884W        W35199  14.697   1.981   1.420
62885W        W35200  31.675  42.652   4.432
62886W        W35201  37.561  42.911  12.816
62887W        W35202   1.939  29.931   4.181
62888W        W35203  44.406  36.546  14.979
62889W        W35204  31.482   3.551   3.318
62890W        W35205   9.423  26.025   0.811
62891W        W35206  27.923   6.551  12.984
62892W        W35207  12.201  31.437   4.911
62893W        W35208  40.386   1.863  13.211
62894W        W35209  44.653   7.183  11.502
62895W        W35210  14.340  27.461  11.624
62896W        W35211  12.195  16.115  13.491
62897W        W35212  19.155  30.249  10.238
62898W        W35213   7.421  17.099   0.419
62899W        W35214   5.687  29.173  12.501
62900W        W35215  39.086  26.696   5.093
62901W        W35216  24.672  16.841  13.897
62902W        W35217  35.263   8.584  12.468
62903W        W35218  21.724  28.964  14.829
62904W        W35219  34.612   0.402  12.442
62905W        W35220  33.408  11.895  13.364
62906W        W35221  31.911  20.600   3.542
62907W        W35222  30.538  34.515  13.418
62908W        W35223  12.846  38.563  12.410
62909W        W35224   9.099  10.301  14.893
62910W        W35225  24.212  41.964   0.751
62911W        W35226  13.141  40.280   0.483
62912W        W35227  29.922   1.897  11.469
62913W        W35228   1.996  28.627  13.759
62914W        W35229  22.606   2.546  11.745
62915W        W35230  19.087   3.426  13.098
62916W        W35231  34.607  43.554  12.747
62917W        W35232  20.618  12.348   2.775
62918W        W35233  27.867  27.066  12.933
62919W        W35234  37.549  34.388   4.045
62920W        W35235   6.686  29.269   2.655
62921W        W35236   1.279   5.813   0.663
62922W        W35237  13.635  17.776  12.857
62923W        W35238  32.608  16.219  12.768
62924W        W35239  34.359   2.031   3.729
62925W        W35240   2.476  37.184   1.799
62926W        W35241  30.607  37.311  13.641
62927W        W35242   3.540  25.470   2.679
62928W        W35243  44.267   0.748  10.930
62929W        W35244  17.143  15.901   1.246
62930W        W35245   0.048  14.186   2.826
62931W        W35246  27.951  13.851  13.521
62932W        W35247  42.937  31.780   1.395
62933W        W35248  21.526  25.508   2.357
62934W        W35249  12.113   1.058   3.099
62935W        W35250  18.568  22.056  10.634
62936W        W35251   8.864  14.739   4.562
62937W        W35252  34.780   8.633   3.398
62938W        W35253  10.779   7.139  12.431
62939W        W35254  36.322   0.234  11.586
62940W        W35255  40.847  38.882   1.357
62941W        W35256   9.318   3.274  12.348
62942W        W35257  24.666  20.024  13.538
62943W        W35258  23.422  33.378  13.370
62944W        W35259  28.684   2.799  13.832
62945W        W35260  44.734  41.909   0.340
62946W        W35261  21.182  36.043   2.934
62947W        W35262  14.580  11.593   3.353
62948W        W35263  31.879  15.038   3.388
62949W        W35264  32.435  26.451  11.110
62950W        W35265  30.134  19.809   0.248
62951W        W35266   9.835  29.215  11.502
62952W        W35267  40.478  25.842   3.268
62953W        W35268   8.907  23.987  14.518
62954W        W35269   7.925  12.833  13.895
62955W        W35270  43.753  42.449  10.641
62956W        W35271  27.076   9.930   3.218
62957W        W35272   4.296  15.384  12.312
62958W        W35273  27.243  43.263   3.213
62959W        W35274  27.444   3.980   1.316
62960W        W35275  14.343  18.139  13.874
62961W        W35276   4.520   4.257  12.973
62962W        W35277   6.437  23.966   3.675
62963W        W35278   1.793  35.805  12.079
62964W        W35279  36.648  34.392   1.391
62965W        W35280  29.074   4.260  10.957
62966W        W35281  37.625  26.765   3.178
62967W        W35282  23.257   2.224  14.420
62968W        W35283  40.237  39.694  10.766
62969W        W35284  19.510  16.337  12.976
62970W        W35285  27.641  25.535  12.574
62971W        W35286  33.075  38.901   9.816
62972W        W35287   4.840  12.643  13.881
62973W        W35288  13.691  19.198   0.446
62974W        W35289   5.624  10.256  12.041
62975W        W35290   7.167  41.049   0.878
62976W        W35291  17.248  11.265  10.888
62977W        W35292  37.785  23.212   4.704
62978W        W35293  18.317  20.473  10.709
62979W        W35294  23.765  21.966  14.827
62980W        W35295  39.144   8.819  14.916
62981W        W35296  15.597  31.891  13.988
62982W        W35297  30.983  21.753  13.947
62983W        W35298   7.703   4.918   2.189
62984W        W35299   6.454  40.862  10.568
62985W        W35300  28.123   3.037  11.197
62986W        W35301   2.317  25.820  14.552
62987W        W35302  39.342   5.939  14.543
62988W        W35303   3.014  20.195  11.013
62989W        W35304   7.361  36.993   4.699
62990W        W35305  22.842  36.325  14.814
62991W        W35306  27.567  22.491  10.781
62992W        W35307  41.403  12.972  14.437
62993W        W35308   4.324   3.453   3.621
62994W        W35309   4.248   4.722  10.679
62995W        W35310  15.417  41.061   4.861
62996W        W35311  43.385  31.686  11.625
62997W        W35312  39.188  39.933  13.561
62998W        W35313  26.490   2.294  11.034
62999W        W35314  18.022  30.889  14.190
63000W        W35315   3.414  21.091  12.919
63001W        W35316  44.237   2.959   2.841
63002W        W35317  44.175  37.553  10.221
63003W        W35318   5.481  32.620  13.483
63004W        W35319  43.746  10.581   1.714
63005W        W35320  41.260  23.622  14.058
63006W        W35321  30.599  37.348   1.024
63007W        W35322   7.799   5.364  12.667
63008W        W35323  31.045  39.599  12.896
63009W        W35324  38.609  23.604   5.386
63010W        W35325  18.521  18.684  13.314
63011W        W35326  27.567  17.837   0.252
63012W        W35327  12.692   6.119   0.890
63013W        W35328  21.557  28.466   0.076
63014W        W35329  16.924  15.272  14.989
63015W        W35330   3.307   0.798   4.257
63016W        W35331   9.062   4.767  11.651
63017W        W35332  16.079   3.765  14.265
63018W        W35333   1.420   5.134   4.614
63019W        W35334  35.568   5.937  10.981
63020W        W35335  28.594  41.727  12.596
63021W        W35336  20.029  16.955  12.439
63022W        W35337  43.083  40.149   1.426
63023W        W35338  15.793  19.442   3.913
63024W        W35339  41.550   2.330   4.280
63025W        W35340   9.987  27.094   0.850
63026W        W35341   0.333  43.806   1.277
63027W        W35342  14.273  40.332  12.801
63028W        W35343  23.054   5.245   1.861
63029W        W35344   9.700  20.642  12.875
63030W        W35345  29.428  27.315  11.778
63031W        W35346  41.556  38.409   1.490
63032W        W35347  36.175  41.604  12.204
63033W        W35348  36.110  17.240   3.605
63034W        W35349  28.916  12.800  14.820
63035W        W35350  21.651  20.634   4.778
63036W        W35351  41.414  26.486  11.238
63037W        W35352  30.475   3.344   4.774
63038W        W35353  13.875  44.168   3.645
63039W        W35354   9.686   4.943   2.841
63040W        W35355  29.749  35.007  14.393
63041W        W35356  18.316  16.500   2.260
63042W        W35357   1.985  13.093  14.431
63043W        W35358  34.173  17.286  12.763
63044W        W35359   4.883  37.798  12.568
63045W        W35360  42.655  31.844  12.043
63046W        W35361  18.994  30.049   1.437
63047W        W35362  39.052  13.644   1.734
63048W        W35363   8.340  33.465   3.605
63049W        W35364  39.431   1.299   3.875
63050W        W35365   4.888  26.041   0.856
63051W        W35366  11.173  30.731   2.423
63052W        W35367  33.579  33.482   5.072
63053W        W35368  14.798  36.013   0.783
63054W        W35369  29.003  27.078  10.686
63055W        W35370  44.253  27.061  10.554
63056W        W35371  10.634  10.699   4.509
63057W        W35372  25.997  42.335   0.845
63058W        W35373   2.141  29.934  11.615
63059W        W35374  12.186   3.253  10.622
63060W        W35375  15.839  27.878  11.558
63061W        W35376  38.686  37.478   4.120
63062W        W35377  16.621  40.811   0.748
63063W        W35378  14.291  27.552   2.602
63064W        W35379  26.442  42.559  10.872
63065W        W35380  31.161   3.371   2.924
63066W        W35381  10.223  26.604  13.093
63067W        W35382  41.467  41.555  11.084
63068W        W35383  34.826   5.298  14.802
63069W        W35384  43.571  26.747  11.980
63070W        W35385  11.126   6.344   1.592
63071W        W35386  29.685  37.585   2.466
63072W        W35387  28.103  41.758   1.894
63073W        W35388  23.782   7.681  13.446
63074W        W35389  32.276  34.358  10.678
63075W        W35390   3.231  11.870   3.255
63076W        W35391   1.549  19.226  13.906
63077W        W35392  39.407  11.866   1.338
63078W        W35393  23.547   9.280  10.691
63079W        W35394  29.238  29.343   3.601
63080W        W35395   9.718  25.096   2.930
63081W        W35396   1.394   8.037   1.753
63082W        W35397  14.862  32.132  13.434
63083W        W35398  18.675  23.168   4.690
63084W        W35399  29.182  19.378  10.456
63085W        W35400  11.413  13.618  14.010
63086W        W35401  20.687  30.034   0.397
63087W        W35402  16.207   9.233   0.957
63088W        W35403  15.107   4.300  14.984
63089W        W35404  15.142  33.445  10.503
63090W        W35405   7.684  21.810  10.715
63091W        W35406  30.552  30.495   0.721
63092W        W35407  23.955  12.574   2.290
63093W        W35408  21.713  39.851   0.258
63094W        W35409  10.164  21.126  11.857
63095W        W35410   3.228  18.849  11.065
63096W        W35411   6.132  31.432  14.312
63097W        W35412  28.869   9.738  10.926
63098W        W35413  17.241  21.535   2.192
63099W        W35414   9.848  40.963  13.488
63100W        W35415  13.720  41.237  10.971
63101W        W35416  42.772  28.575  12.675
63102W        W35417  33.616  10.286  10.709
63103W        W35418  23.245  41.073  11.082
63104W        W35419  17.681   2.570  12.422
63105W        W35420  10.791  36.464  11.748
63106W        W35421   4.265  26.594   2.191
63107W        W35422   4.597  38.158  11.689
63108W        W35423  43.446  27.646  10.860
63109W        W35424  12.361  14.174   2.616
63110W        W35425   2.447  21.543  11.503
63111W        W35426  40.674  43.902  12.459
63112W        W35427   5.568  37.095  11.085
63113W        W35428   1.383  19.022   1.331
63114W        W35429  43.481  21.743  10.992
63115W        W35430  44.392  25.986  10.550
63116W        W35431  31.010  30.639   0.468
63117W        W35432  19.661   9.752  11.594
63118W        W35433  40.021  44.216  13.513
63119W        W35434  31.953  44.595  14.421
63120W        W35435  25.085  36.307  14.312
63121W        W35436   0.218  40.403  11.673
63122W        W35437  38.336  29.025   2.281
63123W        W35438  16.094  19.288  11.141
63124W        W35439  24.228   9.396   2.755
63125W        W35440  16.876  10.210   1.755
63126W        W35441  15.359  10.126   0.481
63127W        W35442  18.960  30.215  13.448
63128W        W35443  28.943  21.493  11.668
63129W        W35444  20.731  44.754   4.599
63130W        W35445  23.182  25.658   4.703
63131W        W35446  30.718  23.462   0.925
63132W        W35447  22.908  29.337   2.211
63133W        W35448  37.120  38.405   0.856
63134W        W35449   8.744  10.324   4.607
63135W        W35450  36.010  22.353   2.098
63136W        W35451  35.334  25.707   4.759
63137W        W35452  23.603  32.467  14.430
63138W        W35453  32.638  26.559  13.277
63139W        W35454   5.817  30.514   1.838
63140W        W35455  37.939  24.930  10.274
63141W        W35456  41.520  42.786   5.068
63142W        W35457  33.342   9.644   0.467
63143W        W35458   8.405   7.414  12.309
63144W        W35459  33.367  10.182   4.939
63145W        W35460  31.614   2.227   1.979
63146W        W35461  11.843  44.891   1.340
63147W        W35462   5.815  34.979  13.532
63148W        W35463  30.108   1.821   0.954
63149W        W35464   0.528  35.121  13.115
63150W        W35465  13.379  11.911  13.554
63151W        W35466  31.947   8.803   4.071
63152W        W35467  28.555  30.493   2.922
63153W        W35468  16.285  34.115   3.751
63154W        W35469   9.239  35.638  12.505
63155W        W35470  34.623   0.940   0.285
63156W        W35471  37.488   5.353  11.962
63157W        W35472  10.640   0.357   0.492
63158W        W35473  37.922  41.872  12.592
63159W        W35474   8.100  44.212  11.285
63160W        W35475  18.316  42.768  12.390
63161W        W35476  41.360  12.616   4.109
63162W        W35477   0.784   1.025  14.008
63163W        W35478   7.663  25.464   0.169
63164W        W35479  26.390  25.188  11.160
63165W        W35480  31.414  37.802   4.400
63166W        W35481  26.858  26.437  13.544
63167W        W35482   6.835  14.583   4.243
63168W        W35483  44.274  28.981  11.967
63169W        W35484   3.431  15.539   4.704
63170W        W35485  32.707  42.375  14.840
63171W        W35486  18.252   4.398   3.583
63172W        W35487  23.293   3.383   1.274
63173W        W35488  31.670  10.748   0.730
63174W        W35489  24.162  21.056  10.262
63175W        W35490   1.345  42.395  14.807
63176W        W35491  20.986  23.336  14.488
63177W        W35492  17.159  33.979  14.571
63178W        W35493  23.573   7.209  14.390
63179W        W35494  42.157   2.503  13.506
63180W        W35495  36.982   6.181  10.926
63181W        W35496   3.326  32.140  14.912
63182W        W35497  18.851  12.796   5.250
63183W        W35498  11.225  44.721   0.515
63184W        W35499  37.162   7.360   3.651
63185W        W35500   1.470  25.692   0.792
63186W        W35501  32.118  15.591  12.461
63187W        W35502  19.794  24.102   0.415
63188W        W35503  12.752   5.984   2.224
63189W        W35504  19.545  24.061   2.408
63190W        W35505  13.187  27.734  13.358
63191W        W35506  23.478  18.681   3.314
63192W        W35507  39.537  19.983  12.441
63193W        W35508  12.191   7.943   2.745
63194W        W35509  28.310  24.631   1.357
63195W        W35510  31.044  13.616  14.410
63196W        W35511  26.716  26.438   2.653
63197W        W35512   5.807  36.334  11.574
63198W        W35513  20.011   5.842  11.440
63199W        W35514   1.374  40.079   0.659
63200W        W35515  19.608  44.231   2.890
63201W        W35516   1.525  37.203  14.379
63202W        W35517  27.080  36.133  10.633
63203W        W35518  36.434  17.942   1.768
63204W        W35519  41.714  18.252  14.339
63205W        W35520  40.605   6.578  12.921
63206W        W35521  15.280   7.234  14.441
63207W        W35522  38.840  15.389  11.424
63208W        W35523  23.937  41.406  12.611
63209W        W35524  19.087  44.405  13.176
63210W        W35525  10.569  32.537   3.323
63211W        W35526  12.635  16.071  12.590
63212W        W35527  26.863  23.261   4.202
63213W        W35528  10.870  29.085   3.180
63214W        W35529  42.773  43.531   4.314
63215W        W35530   6.349   5.164  11.054
63216W        W35531  23.699  44.941   4.323
63217W        W35532   7.714  42.961   2.854
63218W        W35533  38.948  38.577   4.555
63219W        W35534  42.402   1.925   1.191
63220W        W35535  28.083  37.350   2.643
63221W        W35536   6.764   6.683  13.994
63222W        W35537  43.218  12.443   1.487
63223W        W35538  41.397  18.783  10.666
63224W        W35539  18.820  24.718  13.414
63225W        W35540  19.125   9.424  12.481
63226W        W35541   6.743  36.421   4.347
63227W        W35542  43.605  19.117  11.626
63228W        W35543  22.319  44.190  12.098
63229W        W35544  22.559  28.649   2.808
63230W        W35545  20.556  26.259  11.080
63231W        W35546   6.457   9.710   9.845
63232W        W35547  22.712  10.161   0.819
63233W        W35548  19.109  34.826  10.697
63234W        W35549  29.396   3.942   2.758
63235W        W35550  44.611  44.071   4.826
63236W        W35551  23.538  31.340   0.843
63237W        W35552  13.120  23.602   0.901
63238W        W35553  39.612   2.554  10.700
63239W        W35554  33.938  18.402   1.385
63240W        W35555   3.902  28.962  14.781
63241W        W35556   1.829  25.737  12.048
63242W        W35557  30.115  17.611   1.242
63243W        W35558  32.934   0.198  12.157
63244W        W35559  28.462  32.914  12.003
63245W        W35560  39.222  25.431  14.557
63246W        W35561   2.985  24.034   1.863
63247W        W35562  39.743  19.019   3.661
63248W        W35563  27.943  43.150  10.316
63249W        W35564   8.166   0.260   0.827
63250W        W35565  15.375   2.466  12.954
63251W        W35566  32.003   3.687  11.059
63252W        W35567  13.066  15.222  12.276
63253W        W35568  30.358  16.108   3.662
63254W        W35569  11.382   1.241  11.146
63255W        W35570  12.236  14.667   0.294
63256W        W35571  40.037  14.339   4.285
63257W        W35572  36.859  20.855   3.208
63258W        W35573  10.108  12.017   2.871
63259W        W35574  17.760   4.883   0.486
63260W        W35575  27.927   5.263  12.881
63261W        W35576  15.098  23.575   4.241
63262W        W35577  19.115  20.917  13.328
63263W        W35578  41.363  33.747  11.578
63264W        W35579  43.889  11.419   2.364
63265W        W35580   7.080   5.113  13.452
63266W        W35581  31.609   2.503   2.897
63267W        W35582   2.725  44.546   5.031
63268W        W35583  38.963  43.857   1.895
63269W        W35584   6.886  28.148  12.122
63270W        W35585   3.372  43.051   0.470
63271W        W35586  33.852  28.007  12.065
63272W        W35587  23.296  19.588   5.473
63273W        W35588   8.581  36.578  11.613
63274W        W35589  13.098   5.412   4.543
63275W        W35590   1.462  11.194  13.098
63276W        W35591  29.099   2.347  14.372
63277W        W35592   5.171   2.846   1.424
63278W        W35593   4.255  23.798  13.872
63279W        W35594  14.177  21.994   2.874
63280W        W35595  41.937  44.480   2.187
63281W        W35596  26.652  14.831  11.907
63282W        W35597   0.939  29.337  12.824
63283W        W35598  13.321   4.997   5.055
63284W        W35599  21.262  10.266  11.704
63285W        W35600  18.362  13.307  13.299
63286W        W35601  22.746  16.666  12.814
63287W        W35602  33.046  18.243  14.739
63288W        W35603  32.063   3.669   1.282
63289W        W35604  17.299  43.216  13.216
63290W        W35605   4.999  14.764   5.381
63291W        W35606   1.407  20.291   2.305
63292W        W35607  39.913  43.763   0.182
63293W        W35608  15.525  34.608  14.256
63294W        W35609  44.866  36.510   3.685
63295W        W35610   1.418  18.563  10.888
63296W        W35611  22.924  25.589  12.137
63297W        W35612  15.531  42.990  13.466
63298W        W35613  16.246   7.407  14.880
63299W        W35614  39.818  32.496  10.701
63300W        W35615  41.787  10.124   1.946
63301W        W35616  18.977  24.839  10.385
63302W        W35617   3.003  31.886   1.331
63303W        W35618   2.786  39.890   0.922
63304W        W35619   6.412  15.006  13.398
63305W        W35620   9.868  34.463  13.114
63306W        W35621  18.261  31.945  11.923
63307W        W35622   9.193  38.843   1.288
63308W        W35623  25.155   3.266  12.017
63309W        W35624  44.474   1.280  11.958
63310W        W35625  24.402   3.319  13.970
63311W        W35626  33.008  42.092  11.903
63312W        W35627  29.718  14.612  12.051
63313W        W35628  22.096  37.957   0.806
63314W        W35629  14.715  12.128  13.509
63315W        W35630  35.806  28.044   1.925
63316W        W35631  11.851  37.733  11.255
63317W        W35632  37.841   0.292   1.802
63318W        W35633  19.392   2.596   3.155
63319W        W35634  34.561  22.286   1.034
63320W        W35635  33.297   3.954  11.119
63321W        W35636   6.260  43.271  14.409
63322W        W35637  16.281  23.556   1.275
63323W        W35638  35.913  31.866  13.037
63324W        W35639  16.692  10.355  14.261
63325W        W35640  37.458  28.478   1.899
63326W        W35641  43.912  38.606  12.015
63327W        W35642   0.381  39.912  14.231
63328W        W35643   0.908  43.415  10.573
63329W        W35644  33.547  23.600  14.882
63330W        W35645  28.063   6.323  10.986
63331W        W35646  24.129   9.566   2.246
63332W        W35647  38.886  19.529   4.122
63333W        W35648  42.894  19.158  13.232
63334W        W35649  34.624  36.611  11.118
63335W        W35650  35.770  31.112  13.441
63336W        W35651  18.785   7.861   1.946
63337W        W35652  22.471  42.941   2.143
63338W        W35653  43.952   9.054   4.223
63339W        W35654  22.122  14.370  11.433
63340W        W35655  22.743  30.868  11.510
63341W        W35656  13.188   3.405   4.704
63342W        W35657  29.072   7.488  13.242
63343W        W35658  12.888   4.897  13.461
63344W        W35659  18.086  43.332   1.832
63345W        W35660  42.364  37.235  10.074
63346W        W35661   3.323  33.430   1.849
63347W        W35662  40.970  35.868  10.582
63348W        W35663   9.353  27.500   2.931
63349W        W35664   0.645  40.879   2.817
63350W        W35665  30.575  42.578  13.853
63351W        W35666  19.869  44.741  12.914
63352W        W35667   6.843  10.196  12.613
63353W        W35668   5.759  20.780  10.801
63354W        W35669  33.912   9.944  14.806
63355W        W35670  26.452  17.775   1.710
63356W        W35671  31.435   9.832  12.405
63357W        W35672  27.699  34.532   3.652
63358W        W35673  33.970  39.890  14.671
63359W        W35674   6.359  12.187   0.507
63360W        W35675  22.705  32.083   5.039
63361W        W35676  43.939  19.673   0.369
63362W        W35677  38.017  28.967   3.540
63363W        W35678  23.241  24.461   0.937
63364W        W35679  25.619   3.652   4.653
63365W        W35680  44.984  18.714   2.260
63366W        W35681  14.278  43.727  10.930
63367W        W35682   3.992  12.542  10.487
63368W        W35683  20.525  26.576   4.083
63369W        W35684  30.378  10.691   4.659
63370W        W35685  10.279   2.641   2.596
63371W        W35686  24.174  26.096  11.926
63372W        W35687  12.418  14.625  14.398
63373W        W35688  15.703   3.979  13.976
63374W        W35689  10.099  23.548  13.165
63375W        W35690  25.584  25.458   1.719
63376W        W35691  19.716   6.294   2.354
63377W        W35692  44.211   2.698   3.589
63378W        W35693  36.576  39.511   2.575
63379W        W35694  35.024  15.919   0.903
63380W        W35695  26.046  19.513   4.473
63381W        W35696  29.444  13.894   3.316
63382W        W35697  18.806  32.867   0.914
63383W        W35698  44.809   7.737   0.236
63384W        W35699  18.880  15.257  14.862
63385W        W35700  18.033  30.822  12.450
63386W        W35701  32.078  34.951   1.884
63387W        W35702  12.771  42.315   1.375
63388W        W35703  38.400  15.231   1.275
63389W        W35704   3.263  22.650  12.841
63390W        W35705  37.590  33.485   1.405
63391W        W35706  25.207   9.935  12.914
63392W        W35707  38.450   0.853   0.278
63393W        W35708  10.285   9.416   1.726
63394W        W35709  30.968  11.675   4.253
63395W        W35710  22.231  10.089  13.822
63396W        W35711  30.565   6.602  12.636
63397W        W35712  14.616  31.972  13.957
63398W        W35713  16.739  29.425  13.349
63399W        W35714  17.499   0.671  12.238
63400W        W35715  29.303  18.043   4.379
63401W        W35716  40.246  21.219  13.173
63402W        W35717  26.272  12.286   0.091
63403W        W35718  12.158  13.212  14.258
63404W        W35719  10.903   3.049   3.231
63405W        W35720  37.001  13.561  13.825
63406W        W35721  39.557  37.772  14.860
63407W        W35722  25.882  12.796  10.371
63408W        W35723   9.272  25.004   5.178
63409W        W35724  15.689  15.341   1.950
63410W        W35725   1.685  43.754   4.752
63411W        W35726  14.337   8.749   1.755
63412W        W35727  34.138  20.140  11.109
63413W        W35728  27.538  19.730  12.964
63414W        W35729  14.143   9.756   3.360
63415W        W35730  42.288  26.604   3.562
63416W        W35731   8.377   3.231  11.859
63417W        W35732  17.709  28.611  14.262
63418W        W35733  23.052   8.659   1.525
63419W        W35734  39.517  35.046  12.421
63420W        W35735  14.910  33.260   2.094
63421W        W35736  37.081   2.901  10.602
63422W        W35737  17.306   8.818   0.214
63423W        W35738  39.530  38.048  10.662
63424W        W35739  33.243  18.377  13.803
63425W        W35740  27.995  44.285   1.608
63426W        W35741  19.962   8.817  13.330
63427W        W35742  10.924   0.996  11.104
63428W        W35743   9.033  30.954   0.489
63429W        W35744  30.530  21.512   3.815
63430W        W35745  37.338  33.341   4.477
63431W        W35746  38.703  32.054  12.967
63432W        W35747   5.168  20.578   1.466
63433W        W35748  11.366  28.910  13.811
63434W        W35749  14.561  32.885  10.762
63435W        W35750  21.255  25.552   4.264
63436W        W35751   3.378   5.517   4.579
63437W        W35752  19.622   7.780   1.402
63438W        W35753  21.966  35.294   1.271
63439W        W35754  23.036  26.605  11.662
63440W        W35755  32.626   6.353   3.539
63441W        W35756   4.701  44.716  10.827
63442W        W35757  35.086  26.471   2.627
63443W        W35758   9.449  40.355  11.224
63444W        W35759  16.314  13.637  12.005
63445W        W35760  12.139  17.652  11.908
63446W        W35761  16.291   2.823   4.831
63447W        W35762  18.053  39.903   1.246
63448W        W35763  12.331  10.194  10.203
63449W        W35764  34.758  33.151  14.393
63450W        W35765  27.960   5.799  12.159
63451W        W35766  24.095   1.579   4.161
63452W        W35767  44.733  39.635  12.531
63453W        W35768  18.023  41.792   0.487
63454W        W35769  13.852  39.725  11.087
63455W        W35770  16.090  26.323   3.753
63456W        W35771   8.099  15.288  11.445
63457W        W35772  30.599   2.059  14.898
63458W        W35773  17.815  33.935  12.446
63459W        W35774  39.175  26.707   0.762
63460W        W35775  27.983  24.585   4.721
63461W        W35776  13.664  31.628   2.605
63462W        W35777  26.274  10.125   2.665
63463W        W35778  18.609  14.347   3.744
63464W        W35779  44.948  44.780   4.176
63465W        W35780   3.297  27.443   1.801
63466W        W35781  27.713  23.641   3.578
63467W        W35782   1.578  12.538  10.927
63468W        W35783   7.243   5.522  11.032
63469W        W35784  38.924   4.252   4.555
63470W        W35785  44.795  31.381   4.644
63471W        W35786  31.617  43.392  11.325
63472W        W35787  35.624  30.952   2.440
63473W        W35788  42.327  36.522  14.421
63474W        W35789  35.321  25.580   2.865
63475W        W35790  28.723  42.091  12.960
63476W        W35791  44.804  10.578  14.502
63477W        W35792  11.346  22.071   4.619
63478W        W35793   9.208   6.195   2.787
63479W        W35794   8.862  28.086   5.093
63480W        W35795  29.004  42.504  13.888
63481W        W35796  21.596  21.973   0.328
63482W        W35797  10.813  34.465  10.657
63483W        W35798   2.946  41.367  14.457
63484W        W35799  12.610  38.888   1.729
63485W        W35800   7.722  35.520  11.707
63486W        W35801  11.388  20.173  13.570
63487W        W35802  23.639  24.774   1.844
63488W        W35803  38.934  38.451  12.512
63489W        W35804   3.360  20.529   2.318
63490W        W35805  11.068  37.515  12.071
63491W        W35806  44.302  33.869   1.469
63492W        W35807  16.609  41.402   1.645
63493W        W35808   8.808  26.887  12.150
63494W        W35809   8.721  39.345   2.729
63495W        W35810  39.297  13.064  14.947
63496W        W35811  38.946  41.067  11.941
63497W        W35812  13.143  14.325  10.464
63498W        W35813  19.070  25.054  10.845
63499W        W35814  19.212   6.248  13.380
63500W        W35815  39.660  27.593   0.362
63501W        W35816  43.007  16.334   0.928
63502W        W35817  44.758   1.584   5.063
63503W        W35818  38.959  35.771   2.779
63504W        W35819   2.668   1.431   1.137
63505W        W35820  13.409  24.864  14.409
63506W        W35821  30.022  37.446  10.240
63507W        W35822   7.635  30.152  10.703
63508W        W35823  21.187  14.830  14.882
63509W        W35824  16.844  32.574  13.984
63510W        W35825  19.971  35.502  13.056
63511W        W35826  15.615  43.159  14.860
63512W        W35827  16.328  17.302  13.635
63513W        W35828   6.699  38.152   4.525
63514W        W35829  32.600   4.632  14.183
63515W        W35830  10.582  17.121   1.744
63516W        W35831  30.495  33.686   1.845
63517W        W35832   6.744  16.070  14.074
63518W        W35833   8.142  28.214  14.159
63519W        W35834  31.415  39.326   4.235
63520W        W35835  10.887   4.864  12.938
63521W        W35836   7.267  39.884   3.628
63522W        W35837  39.821   3.434  10.737
63523W        W35838  11.345  19.112  13.261
63524W        W35839  18.995   6.638  13.632
63525W        W35840  22.923  42.865   3.674
63526W        W35841   1.382  10.805  10.574
63527W        W35842  29.658  27.950   3.028
63528W        W35843  19.666  16.246  10.643
63529W        W35844  21.565  37.461   3.678
63530W        W35845  34.614  37.048   4.678
63531W        W35846  15.107  19.972   1.919
63532W        W35847   4.893  24.946   0.607
63533W        W35848   1.954  28.075  10.903
63534W        W35849  38.681  17.587  11.421
63535W        W35850  18.001  18.997  13.065
63536W        W35851   8.081   3.984  11.660
63537W        W35852   6.759  26.331   1.246
63538W        W35853   8.495  11.634  11.205
63539W        W35854   8.347  41.331   3.309
63540W        W35855  41.811  18.847  13.693
63541W        W35856  24.916  42.548   2.709
63542W        W35857   1.416  33.157   1.208
63543W        W35858  35.921   6.633   0.968
63544W        W35859  32.042  18.974  10.703
63545W        W35860   9.186  41.124   4.604
63546W        W35861  35.045  12.879   0.962
63547W        W35862  39.854  11.592   2.700
63548W        W35863  19.421  15.647   2.902
63549W        W35864  27.625  13.163   3.669
63550W        W35865  23.139  25.689   3.062
63551W        W35866  27.937   5.879   4.334
63552W        W35867  32.118  13.380   2.334
63553W        W35868   1.293  30.408  13.476
63554W        W35869   9.119  19.151   0.347
63555W        W35870  43.938  33.891  11.228
63556W        W35871  16.555  27.776   4.615
63557W        W35872  36.627   2.257   0.795
63558W        W35873  34.240  27.211  11.784
63559W        W35874  42.889  42.822  11.424
63560W        W35875  21.313  17.635  14.879
63561W        W35876  36.584  30.495  12.506
63562W        W35877  41.549  11.224  11.028
63563W        W35878  26.739   5.902   5.154
63564W        W35879  13.106   5.290  11.423
63565W        W35880  11.302  26.784   2.152
63566W        W35881  33.912  17.325   1.382
63567W        W35882  42.211  14.110  12.868
63568W        W35883  21.689  40.818  14.352
63569W        W35884  11.243  17.556   3.675
63570W        W35885  43.076   9.851   0.043
63571W        W35886  35.610   2.248  14.116
63572W        W35887  26.232  34.147  14.454
63573W        W35888  11.196  16.801   2.421
63574W        W35889  44.024  29.007  14.981
63575W        W35890   6.222   8.945   2.355
63576W        W35891  27.350  31.432  14.826
63577W        W35892  28.985  42.161   0.003
63578W        W35893  27.976  33.732   3.271
63579W        W35894  17.266   9.346   4.473
63580W        W35895  33.076  19.110   1.201
63581W        W35896  41.820  14.317   3.261
63582W        W35897  25.059   7.578  10.556
63583W        W35898  10.734  36.910  10.551
63584W        W35899  14.385  12.666   4.370
63585W        W35900  17.616   8.626  11.160
63586W        W35901   5.215  34.605   3.715
63587W        W35902  17.541  20.826  12.875
63588W        W35903   6.522  31.568  11.700
63589W        W35904  24.197  34.497  12.667
63590W        W35905  14.552  15.594   4.559
63591W        W35906  17.085  11.127   0.540
63592W        W35907  14.211   2.371  11.917
63593W        W35908  41.397  19.642   0.794
63594W        W35909  23.828   8.230  14.731
63595W        W35910  40.267  11.832  13.339
63596W        W35911  13.611  33.254   0.851
63597W        W35912   3.343  42.849  12.939
63598W        W35913  21.465  14.107   4.606
63599W        W35914  31.656  32.137   0.305
63600W        W35915  10.228  30.155   2.329
63601W        W35916  14.318   6.725   1.887
63602W        W35917  29.289  41.933   2.678
63603W        W35918  22.272  33.198   3.076
63604W        W35919  44.957  40.133   1.954
63605W        W35920  20.614  11.144   3.724
63606W        W35921  44.324  38.829  12.451
63607W        W35922  25.584  32.669   4.126
63608W        W35923  20.738  28.778   0.005
63609W        W35924  12.390  39.902  14.982
63610W        W35925  40.334  30.270   3.851
63611W        W35926  42.860  43.350  13.685
63612W        W35927  42.009   3.090   4.384
63613W        W35928  21.880  38.351   1.072
63614W        W35929  33.609   8.254   3.797
63615W        W35930  35.061  38.369   1.769
63616W        W35931  17.915  15.643   3.788
63617W        W35932  28.605  36.849   0.741
63618W        W35933  24.687  11.125   4.521
63619W        W35934  35.032  17.371   4.693
63620W        W35935  27.140  21.135  13.155
63621W        W35936  42.004  41.296   0.444
63622W        W35937  26.243  30.408   4.387
63623W        W35938  13.342  16.803   4.227
63624W        W35939  18.248  21.667  12.393
63625W        W35940  19.398  42.728  13.962
63626W        W35941  31.129  44.092  13.969
63627W        W35942   8.977   4.941   3.296
63628W        W35943  36.579  41.754   1.877
63629W        W35944  30.237   4.279  14.018
63630W        W35945  27.978  26.682  13.657
63631W        W35946  35.277  28.578   4.601
63632W        W35947  25.686  17.486  13.999
63633W        W35948  14.678  22.589  14.844
63634W        W35949  32.237  35.474  14.038
63635W        W35950  19.407  31.212   0.851
63636W        W35951  17.838  21.078  11.899
63637W        W35952  18.053  24.555  13.940
63638W        W35953   2.515  34.338  11.494
63639W        W35954  38.391  12.225  10.947
63640W        W35955  18.944  31.182  14.338
63641W        W35956   2.611  16.363  14.181
63642W        W35957  36.026  37.835   2.385
63643W        W35958  41.427  22.795  10.722
63644W        W35959  16.564  32.051  14.953
63645W        W35960   4.907  38.800   3.358
63646W        W35961  17.522   6.847  14.345
63647W        W35962  32.688   9.705   2.188
63648W        W35963  17.620  29.930   1.384
63649W        W35964  36.926   6.730  14.900
63650W        W35965  10.355  34.603   4.202
63651W        W35966  18.079  27.760   1.912
63652W        W35967   9.887  28.078   2.045
63653W        W35968  20.636  12.110   1.916
63654W        W35969  20.521  33.415   0.036
63655W        W35970  21.644  43.954   1.640
63656W        W35971  41.055  39.110   0.919
63657W        W35972  25.754  44.275  14.936
63658W        W35973  17.848  36.940   0.217
63659W        W35974  25.159  22.614   1.482
63660W        W35975  35.426   1.468  11.693
63661W        W35976  23.594  32.083  14.792
63662W        W35977  11.902  22.398   2.701
63663W        W35978  22.695  30.540   4.748
63664W        W35979  11.187  23.334   0.747
63665W        W35980  11.235  11.124   2.402
63666W        W35981  10.469   7.384  14.921
63667W        W35982  43.868   7.853  12.348
63668W        W35983   0.341  35.520   4.707
63669W        W35984  36.338  34.092  11.096
63670W        W35985  14.638  18.062  13.427
63671W        W35986  31.486   7.626   1.390
63672W        W35987  30.005  21.558  13.452
63673W        W35988  25.603  41.847  13.615
63674W        W35989  39.869  21.822   2.614
63675W        W35990  44.352  18.941   2.224
63676W        W35991   6.961  13.252   4.660
63677W        W35992  26.832  13.232  11.193
63678W        W35993   3.973   9.769   3.079
63679W        W35994   5.334  32.143  12.579
63680W        W35995  32.161  20.781  13.057
63681W        W35996   5.911  33.380  12.513
63682W        W35997  24.208  44.420   2.891
63683W        W35998   7.354  27.005  14.374
63684W        W35999  30.448  15.346  12.023
63685W        W36000  26.358   3.004  10.146
63686W        W36001  24.428  31.954   2.659
63687W        W36002   0.317  28.377   4.456
63688W        W36003  43.786  39.074   4.068
63689W        W36004  38.341  24.772   3.711
63690W        W36005   8.818   9.320  10.809
63691W        W36006  26.455  30.010   4.632
63692W        W36007  27.284   3.223  13.652
63693W        W36008   6.163   0.306  11.203
63694W        W36009  23.183   5.661   4.024
63695W        W36010  40.697  41.693   3.430
63696W        W36011   9.981  12.080   4.346
63697W        W36012  11.365  20.003  13.073
63698W        W36013  31.094  12.489   1.626
63699W        W36014  34.653   5.896  13.699
63700W        W36015   1.191  24.170  13.875
63701W        W36016   1.803  14.194  11.082
63702W        W36017   4.970  43.323  13.628
63703W        W36018  36.474  39.042   0.273
63704W        W36019   9.933  42.838   2.475
63705W        W36020  23.301   4.995   0.079
63706W        W36021  30.029  11.764  12.235
63707W        W36022  20.216  30.542   4.579
63708W        W36023  13.434  13.817  11.534
63709W        W36024  13.654   4.383  13.433
63710W        W36025   3.860  37.006  14.944
63711W        W36026  40.694  19.152   3.582
63712W        W36027  17.451   0.014  12.061
63713W        W36028  25.632  19.765   0.022
63714W        W36029  13.914  31.349   3.383
63715W        W36030  44.877  42.219  13.811
63716W        W36031   1.746  37.566   3.153
63717W        W36032  36.109  41.247  12.569
63718W        W36033  13.301  27.989   3.606
63719W        W36034  33.461  26.711  13.718
63720W        W36035   7.240  18.846  10.399
63721W        W36036   9.751   6.276   2.306
63722W        W36037   2.186  37.314   2.275
63723W        W36038  15.318  44.509  10.665
63724W        W36039  30.906  23.289   1.406
63725W        W36040   3.884  34.045   0.725
63726W        W36041  24.922  17.509  14.427
63727W        W36042  20.557   5.929   2.155
63728W        W36043  38.983   7.634  12.530
63729W        W36044  40.576  38.449  11.184
63730W        W36045  37.685  22.575   0.762
63731W        W36046  17.146  10.004   5.195
63732W        W36047  16.401   1.375  12.683
63733W        W36048  27.656  40.915   4.553
63734W        W36049  25.389  35.128  12.081
63735W        W36050  22.760  14.309  10.713
63736W        W36051  41.712  43.238   2.861
63737W        W36052  21.743   6.928   3.247
63738W        W36053   4.480  37.652  11.869
63739W        W36054  14.334  26.866   0.796
63740W        W36055  13.773   5.056   2.664
63741W        W36056  10.308   8.773   2.837
63742W        W36057  35.978  22.083   3.889
63743W        W36058  39.846   2.628  13.486
63744W        W36059   7.850  19.160   0.163
63745W        W36060  43.987  38.505   0.516
63746W        W36061   8.781  42.314   3.616
63747W        W36062  31.513   6.841   3.466
63748W        W36063  31.483   5.190  12.833
63749W        W36064  44.391   6.179  12.620
63750W        W36065  37.569  32.545   2.330
63751W        W36066   3.732  21.607  10.681
63752W        W36067  26.954  41.044  11.594
63753W        W36068  43.775  26.388   0.785
63754W        W36069  31.293  22.940  11.043
63755W        W36070   1.921  41.871   5.061
63756W        W36071  31.695   4.463  13.963
63757W        W36072   6.446   7.042  11.639
63758W        W36073  41.331   2.346  12.048
63759W        W36074  34.727  13.372  12.009
63760W        W36075  17.239  44.289   1.313
63761W        W36076   7.867  19.100   3.911
63762W        W36077  22.465  23.246  14.523
63763W        W36078  12.624  29.255   1.394
63764W        W36079  37.819  20.074   0.448
63765W        W36080  37.920  41.255   4.097
63766W        W36081  15.850  29.323  14.893
63767W        W36082  39.525  35.992   1.826
63768W        W36083  24.731  13.040   1.868
63769W        W36084  34.505  24.969  13.985
63770W        W36085  44.555   3.354   1.385
63771W        W36086   5.193  44.503  13.915
63772W        W36087  32.025   8.334   4.268
63773W        W36088  12.283  35.848   1.253
63774W        W36089  21.084  32.501   4.841
63775W        W36090  30.932   5.730   2.835
63776W        W36091  16.504  12.844   0.958
63777W        W36092  35.740  43.241  11.131
63778W        W36093  25.069  33.159   0.903
63779W        W36094  10.629  27.604  12.849
63780W        W36095  18.164  10.907  10.671
63781W        W36096  33.524  22.397  14.024
63782W        W36097  25.454   1.265  14.732
63783W        W36098  42.326   5.340   1.352
63784W        W36099  33.127  15.609  13.459
63785W        W36100  12.536  41.847  11.457
63786W        W36101  44.741  13.086  10.142
63787W        W36102  15.278  35.032  12.160
63788W        W36103  38.294   3.664   1.035
63789W        W36104  15.484  40.563   4.982
63790W        W36105  31.674  13.916  12.786
63791W        W36106  14.433  10.948   1.779
63792W        W36107  34.658   6.967   0.251
63793W        W36108  31.004  22.775  13.400
63794W        W36109  24.579  41.041  11.945
63795W        W36110  20.447  39.564   2.752
63796W        W36111  44.784   5.404   4.840
63797W        W36112  24.331  25.950  11.426
63798W        W36113   9.416  35.479  14.358
63799W        W36114  29.482   7.389   4.736
63800W        W36115  41.571  12.191   4.380
63801W        W36116  25.694  44.054  14.467
63802W        W36117  34.005  36.895  14.827
63803W        W36118  34.408  43.840   0.973
63804W        W36119  17.183  12.805   4.135
63805W        W36120  12.138   0.837  13.273
63806W        W36121   2.835  10.387  10.558
63807W        W36122  20.009   5.403   0.016
63808W        W36123  40.737  25.080   2.580
63809W        W36124   9.091  23.731  13.013
63810W        W36125   6.731  19.751  14.513
63811W        W36126  32.431  41.789  14.452
63812W        W36127   4.330   3.478   1.680
63813W        W36128   8.720  28.138  12.910
63814W        W36129  35.381  30.276   4.126
63815W        W36130  35.037  24.565   0.310
63816W        W36131  21.621  12.922   4.499
63817W        W36132  32.176   6.278   3.773
63818W        W36133  32.926  14.316  14.228
63819W        W36134  22.529  14.129   4.657
63820W        W36135  28.003  41.668   5.145
63821W        W36136  13.632  20.143  12.645
63822W        W36137  12.825  28.392  11.961
63823W        W36138  29.061  33.253   0.002
63824W        W36139   0.595  39.946  13.747
63825W        W36140  16.921  28.668  12.241
63826W        W36141  16.562  39.985  11.514
63827W        W36142  36.552  21.238   3.423
63828W        W36143  38.418   9.253  10.768
63829W        W36144  13.632  35.931  14.828
63830W        W36145  33.977   7.380  12.910
63831W        W36146  16.235  35.487  14.513
63832W        W36147  20.259  31.495   2.794
63833W        W36148  16.624   4.674   0.004
63834W        W36149  35.586   8.317  12.163
63835W        W36150  28.524  36.207  11.207
63836W        W36151  36.595   9.870   3.328
63837W        W36152  15.845  34.810   0.450
63838W        W36153   8.474  29.305  11.239
63839W        W36154  15.741  12.086   2.807
63840W        W36155  44.953  39.159  12.541
63841W        W36156  29.508  26.163  14.410
63842W        W36157   7.799  16.737   3.297
63843W        W36158  22.320  18.643  11.841
63844W        W36159  10.951  31.583   1.898
63845W        W36160  39.914  30.851   2.271
63846W        W36161  33.869  35.990  12.058
63847W        W36162  30.666  24.099  12.790
63848W        W36163   9.757   3.428   2.741
63849W        W36164  13.861  42.330   0.202
63850W        W36165  20.655  23.968  10.831
63851W        W36166   0.929  21.256   0.740
63852W        W36167  41.656   9.245  12.752
63853W        W36168   5.383   9.130  11.233
63854W        W36169  10.317  22.899  10.423
63855W        W36170  32.050   2.680  13.497
63856W        W36171  12.832  16.026  12.103
63857W        W36172  24.767  33.490  14.445
63858W        W36173  18.690  15.140   4.359
63859W        W36174  14.078  38.600   4.049
63860W        W36175  41.478  32.975   1.076
63861W        W36176  23.902   1.266   3.199
63862W        W36177   4.177  29.511   2.397
63863W        W36178   0.950  16.236   3.783
63864W        W36179   1.131   3.433  13.479
63865W        W36180  29.333  31.641  12.230
63866W        W36181  40.614  20.823   1.242
63867W        W36182  36.011   3.396   0.960
63868W        W36183  20.504  13.268  14.008
63869W        W36184  36.864  24.139   5.717
63870W        W36185  13.785  20.221   3.148
63871W        W36186  16.677   4.856  13.048
63872W        W36187  19.903  21.173   4.954
63873W        W36188   0.890  17.226  11.205
63874W        W36189  11.128  44.409  10.236
63875W        W36190  25.757   5.364  12.161
63876W        W36191  38.437  43.753  13.096
63877W        W36192  40.380  31.633  10.657
63878W        W36193  34.890  43.849   3.994
63879W        W36194  10.179  15.798  11.046
63880W        W36195  42.326  13.828   1.790
63881W        W36196  14.400   6.263  11.531
63882W        W36197  24.816   1.298   4.255
63883W        W36198  13.260  22.661   1.248
63884W        W36199  42.977  33.363   2.859
63885W        W36200  21.762  42.674  11.551
63886W        W36201  34.682  13.663  12.442
63887W        W36202  10.417  25.176  13.521
63888W        W36203   5.480  37.717   4.113
63889W        W36204  10.590   8.800  12.934
63890W        W36205  22.181  14.783   3.793
63891W        W36206  38.549  39.758  12.989
63892W        W36207  10.191   1.203  13.497
63893W        W36208   5.902  40.411  11.647
63894W        W36209  15.232  14.120  12.606
63895W        W36210  35.630  36.231  11.064
63896W        W36211  43.344  18.739   0.720
63897W        W36212  41.034  37.906   3.349
63898W        W36213  19.877  35.670  11.186
63899W        W36214  23.727   6.313  11.652
63900W        W36215   2.247  38.497   3.178
63901W        W36216  32.642  27.397   2.924
63902W        W36217  36.487  16.410  12.963
63903W        W36218  37.507   2.064   5.019
63904W        W36219  25.004  14.533   4.303
63905W        W36220  17.073   7.322  11.371
63906W        W36221   8.618  35.943  13.410
63907W        W36222  37.696  19.557   5.003
63908W        W36223  39.171  19.746   4.926
63909W        W36224   5.752  19.306   1.305
63910W        W36225  37.754  22.549  12.895
63911W        W36226  31.633  35.058   4.003
63912W        W36227  19.816  42.953   4.622
63913W        W36228  38.010   4.468  11.353
63914W        W36229  10.892   5.753  10.574
63915W        W36230  21.455  11.951  11.918
63916W        W36231   5.445  29.400   3.359
63917W        W36232  44.267  14.003   3.688
63918W        W36233   4.968  14.674  11.026
63919W        W36234   1.458  12.181  12.114
63920W        W36235   4.713   2.518   0.622
63921W        W36236  38.575  30.765  11.504
63922W        W36237  25.814  34.625   1.784
63923W        W36238  25.475  42.035   1.332
63924W        W36239  11.811  39.358  12.667
63925W        W36240  42.797  11.671   4.082
63926W        W36241  38.167  10.207  12.118
63927W        W36242   3.387  25.366   1.760
63928W        W36243   6.273  17.724  12.443
63929W        W36244  22.983   2.785   0.400
63930W        W36245   8.392  38.380  11.762
63931W        W36246  10.656  20.975  12.037
63932W        W36247  10.693  38.325  13.369
63933W        W36248  32.355  14.809   1.774
63934W        W36249  39.689  32.722   2.374
63935W        W36250  13.724   5.864   0.393
63936W        W36251  10.326   5.763  12.992
63937W        W36252   7.812   5.496  12.167
63938W        W36253  42.742  13.890  14.857
63939W        W36254  22.732  35.407   0.930
63940W        W36255  11.599  33.501  10.129
63941W        W36256   2.251  14.502  13.356
63942W        W36257  44.209   8.457   3.348
63943W        W36258   0.944  16.104   4.298
63944W        W36259  25.684   0.069   0.242
63945W        W36260  42.821   8.659   4.253
63946W        W36261  13.324   9.269  11.218
63947W        W36262  37.659  42.798  11.328
63948W        W36263   8.429  10.239   2.264
63949W        W36264  27.127  32.078  13.355
63950W        W36265  15.101  21.901   2.825
63951W        W36266   6.608  18.416  12.106
63952W        W36267  39.516  24.497  10.403
63953W        W36268  15.962   1.665   4.987
63954W        W36269  11.236  30.834   4.606
63955W        W36270  38.200   4.919  10.675
63956W        W36271  15.738  37.217   3.289
63957W        W36272  38.482  34.218  11.628
63958W        W36273  25.092   6.481  12.504
63959W        W36274   7.208  33.259   4.763
63960W        W36275  22.052  22.212   0.367
63961W        W36276   2.108  22.715  14.931
63962W        W36277  40.395  44.478  13.835
63963W        W36278  28.276  39.922   1.741
63964W        W36279  10.334  44.899  10.985
63965W        W36280  23.797  15.801   2.295
63966W        W36281  28.205  25.139  14.285
63967W        W36282   8.253  17.490   1.828
63968W        W36283  28.024  18.266  10.694
63969W        W36284  34.221  17.586   0.110
63970W        W36285  13.744  34.512   3.865
63971W        W36286  24.753  10.864   3.058
63972W        W36287  36.926  22.463   4.653
63973W        W36288  26.594  10.597   4.137
63974W        W36289  36.623  39.785   0.797
63975W        W36290  15.736  27.159  14.277
63976W        W36291  42.003  40.306   3.314
63977W        W36292  28.143  23.734  13.435
63978W        W36293  40.471  23.530   1.992
63979W        W36294  37.906  20.769   1.322
63980W        W36295  30.614  19.002   0.278
63981W        W36296  42.286   4.295   3.145
63982W        W36297  15.633  20.499   2.828
63983W        W36298  42.490  29.012  12.541
63984W        W36299   1.698  13.223   3.898
63985W        W36300  32.451  33.351  13.359
63986W        W36301   1.367  13.554  14.047
63987W        W36302  35.556  41.340   4.112
63988W        W36303  32.526  41.950  11.659
63989W        W36304  14.167  42.363   3.805
63990W        W36305  16.322  36.535   0.929
63991W        W36306  44.767   3.255   4.609
63992W        W36307  37.033  34.490   4.876
63993W        W36308  32.186  42.775   3.157
63994W        W36309  42.859   6.404  11.975
63995W        W36310  28.504   3.936  12.005
63996W        W36311  25.202   9.068   3.712
63997W        W36312  25.482  26.453   4.081
63998W        W36313  31.139  18.515  12.334
63999W        W36314   2.900  17.855  12.393
64000W        W36315  13.378  15.596  12.484
64001W        W36316  10.642  34.999   4.082
64002W        W36317  41.620   2.873   0.924
64003W        W36318   6.764  26.035   1.939
64004W        W36319  30.482  10.213  10.752
64005W        W36320  22.491  21.973  14.396
64006W        W36321  37.817  22.189  13.260
64007W        W36322  23.939  33.334  13.519
64008W        W36323   7.620  22.030  14.347
64009W        W36324  10.124  29.486   3.694
64010W        W36325  23.214  18.404   0.298
64011W        W36326  24.708  41.036   0.198
64012W        W36327   2.874  42.868   0.320
64013W        W36328  34.121  37.807  11.226
64014W        W36329   2.952  42.367   4.804
64015W        W36330   3.370  16.867  12.993
64016W        W36331  23.680  19.337  14.255
64017W        W36332  18.559  44.476  10.157
64018W        W36333   4.206  29.994  14.322
64019W        W36334  42.556  10.671   4.980
64020W        W36335  43.297  34.502   4.566
64021W        W36336   2.015  44.312  10.577
64022W        W36337  13.874   9.684  13.417
64023W        W36338  42.926   4.034  14.925
64024W        W36339   0.740   3.676  14.993
64025W        W36340   3.215  41.890   4.823
64026W        W36341  15.474  18.168  13.016
64027W        W36342  18.292  25.104   4.154
64028W        W36343  44.047  29.958  14.956
64029W        W36344  23.361  34.004   1.973
64030W        W36345  24.150  40.860   1.948
64031W        W36346  41.986  44.025   4.316
64032W        W36347   5.380  15.609  14.513
64033W        W36348  27.258  18.222   0.366
64034W        W36349  19.113  10.724  10.251
64035W        W36350   8.907  25.484   4.213
64036W        W36351   2.549  33.895   1.847
64037W        W36352  42.476  42.682   1.869
64038W        W36353  37.739  23.183  10.411
64039W        W36354  40.064   7.204  10.638
64040W        W36355  20.304  28.127  12.992
64041W        W36356  30.848  10.269   0.801
64042W        W36357   4.016  31.979   2.241
64043W        W36358  25.992  25.923  14.465
64044W        W36359  39.978  42.823   0.909
64045W        W36360  27.493  33.382  14.141
64046W        W36361  12.721  25.973   4.776
64047W        W36362  41.565  44.365   0.766
64048W        W36363  11.847  44.255   1.710
64049W        W36364  12.317  22.695   2.846
64050W        W36365  12.993  20.613   3.263
64051W        W36366  19.010  14.877   1.774
64052W        W36367   3.893  36.905  12.498
64053W        W36368  29.200  18.682   2.715
64054W        W36369  40.905  39.971  10.733
64055W        W36370   6.948  20.685   2.844
64056W        W36371   4.890  33.519  11.570
64057W        W36372   9.821  40.656  14.799
64058W        W36373   8.395  30.518  10.695
64059W        W36374   0.873  38.920   3.564
64060W        W36375  11.369  44.878  10.301
64061W        W36376  34.949  29.443   5.010
64062W        W36377  13.496  33.128  11.633
64063W        W36378  28.927  35.964  14.110
64064W        W36379  33.144   3.312  11.105
64065W        W36380  22.065   2.856   3.254
64066W        W36381  28.595  44.879  14.888
64067W        W36382  12.376  21.841   1.146
64068W        W36383  38.821  34.835   4.456
64069W        W36384  10.344  40.326   2.197
64070W        W36385   6.411   7.302   2.392
64071W        W36386  23.093   4.213   2.756
64072W        W36387   5.027  20.142  12.391
64073W        W36388  12.562   8.225   0.850
64074W        W36389  33.642  40.309   2.668
64075W        W36390  29.052  40.623   1.903
64076W        W36391  22.484  12.035  13.345
64077W        W36392  17.336  40.145  11.128
64078W        W36393  22.400  20.102   0.236
64079W        W36394  25.160  29.911  14.008
64080W        W36395  22.907  18.654   4.552
64081W        W36396  14.126  36.586  12.609
64082W        W36397   7.576  27.718  10.085
64083W        W36398   2.420   4.304   4.208
64084W        W36399   0.137  29.103   4.602
64085W        W36400  19.806  32.847  10.876
64086W        W36401  23.925  31.832  10.914
64087W        W36402  11.785   4.730   3.298
64088W        W36403  13.284  33.809  10.434
64089W        W36404   4.399  13.313   4.959
64090W        W36405  39.672  11.225  13.429
64091W        W36406  24.252   3.931  13.492
64092W        W36407   6.604   5.691   2.725
64093W        W36408  31.504  35.324  11.387
64094W        W36409  19.090  32.215   0.969
64095W        W36410  37.217  24.739   9.790
64096W        W36411  21.249  22.651  12.834
64097W        W36412   4.485  42.545   3.738
64098W        W36413   1.028  32.953   2.436
64099W        W36414   3.228  37.846  10.642
64100W        W36415  39.328  26.575   0.271
64101W        W36416  33.037  30.667   0.294
64102W        W36417  10.188  41.847  14.535
64103W        W36418   8.593  28.038  13.936
64104W        W36419  36.962  13.251   4.375
64105W        W36420   8.125   6.982   1.714
64106W        W36421  22.481  15.175   2.624
64107W        W36422   9.185  17.836   4.717
64108W        W36423   9.400  28.068  10.212
64109W        W36424  25.156  40.415  14.279
64110W        W36425  14.136  25.200  12.014
64111W        W36426  14.306  44.883   0.423
64112W        W36427  27.181   2.837  13.994
64113W        W36428  31.073  27.674  14.772
64114W        W36429  20.621  22.541   0.457
64115W        W36430  10.758  37.335  13.924
64116W        W36431  23.724  19.749  13.507
64117W        W36432  42.230   1.428   1.148
64118W        W36433   6.690  35.542   4.051
64119W        W36434  44.461   7.529   1.465
64120W        W36435  34.739  28.082  12.524
64121W        W36436  30.392  36.848  12.159
64122W        W36437  38.197  31.718   2.270
64123W        W36438  10.495  22.429   9.898
64124W        W36439  32.024  20.585  10.923
64125W        W36440  10.145  15.160   0.825
64126W        W36441   8.441   9.867  12.028
64127W        W36442  23.161  27.496   0.711
64128W        W36443  28.571  44.889   1.878
64129W        W36444  30.494  17.380  11.217
64130W        W36445  15.306   4.480   1.775
64131W        W36446  15.872  21.612  13.007
64132W        W36447  43.874  26.936  14.247
64133W        W36448  23.220  43.040  14.943
64134W        W36449  22.779  42.422  11.056
64135W        W36450  24.653  10.332  11.928
64136W        W36451  19.204  26.078  13.554
64137W        W36452   6.276   1.800  11.201
64138W        W36453  39.478  35.454   4.528
64139W        W36454  23.066  37.595   3.640
64140W        W36455  42.081  10.514   3.397
64141W        W36456  12.720   7.190  13.391
64142W        W36457  25.509   5.722  11.856
64143W        W36458  32.216  33.551   0.390
64144W        W36459  15.159  21.224   0.325
64145W        W36460  26.671  16.853   4.564
64146W        W36461   8.660  38.082   2.326
64147W        W36462  30.600   4.517  11.132
64148W        W36463  31.476  41.286  10.578
64149W        W36464  22.637  31.541  12.161
64150W        W36465  14.113  19.156  14.662
64151W        W36466  16.755  13.060  13.794
64152W        W36467  17.339  43.945   3.874
64153W        W36468  10.446  41.066   4.175
64154W        W36469  15.567  15.592   0.852
64155W        W36470  28.398  30.658  12.461
64156W        W36471  34.872  30.125  14.478
64157W        W36472   1.650  15.201  12.893
64158W        W36473  27.288  32.896  13.879
64159W        W36474  38.960  41.489  13.043
64160W        W36475  25.674  41.234   1.761
64161W        W36476  26.245  11.607   2.725
64162W        W36477  17.604  17.352  12.012
64163W        W36478  32.078  33.174   4.145
64164W        W36479  14.322  12.209  14.733
64165W        W36480  13.253   3.064   2.124
64166W        W36481  34.601  28.961   3.464
64167W        W36482  18.807  35.633  14.070
64168W        W36483  18.331   6.658   1.960
64169W        W36484  19.534  36.057  11.016
64170W        W36485  33.265  40.914  10.992
64171W        W36486  42.787  38.866  13.641
64172W        W36487  28.670  28.585   4.104
64173W        W36488  16.817  13.716  12.222
64174W        W36489  26.140   4.350  10.138
64175W        W36490  23.566   0.378   4.648
64176W        W36491   7.455   7.637   3.608
64177W        W36492  25.445  14.644  10.799
64178W        W36493  37.388  25.757  11.923
64179W        W36494  23.093  42.781   2.673
64180W        W36495  21.032  23.894   2.725
64181W        W36496  28.180  11.621  12.528
64182W        W36497  16.000  12.132  14.018
64183W        W36498   8.518  27.580   2.263
64184W        W36499  16.538  13.539  14.512
64185W        W36500  31.251  36.691  14.037
64186W        W36501  36.169  38.353   4.179
64187W        W36502   4.907  34.102   0.911
64188W        W36503  10.232  25.051  10.682
64189W        W36504  25.156  24.614  11.047
64190W        W36505  42.044  31.583   4.311
64191W        W36506  23.630  23.949  13.107
64192W        W36507  12.209  37.866   0.176
64193W        W36508  44.553  37.527  12.044
64194W        W36509   3.197  28.011  14.828
64195W        W36510  12.563  17.159   3.650
64196W        W36511  30.882  14.761   3.745
64197W        W36512  24.546  42.373  10.788
64198W        W36513   2.024  11.312  12.089
64199W        W36514  31.952  41.231  12.957
64200W        W36515  15.589  27.149  11.926
64201W        W36516  22.887  19.834   3.731
64202W        W36517  18.140  27.116  11.908
64203W        W36518  24.738  15.681   0.407
64204W        W36519  33.648   9.376   1.626
64205W        W36520  36.442  34.460   3.193
64206W        W36521  19.035  12.162   0.312
64207W        W36522  20.769  20.451  13.902
64208W        W36523  43.653  36.127  13.939
64209W        W36524  37.620   5.764   3.052
64210W        W36525  14.622  21.723   2.788
64211W        W36526  24.042  42.453   0.785
64212W        W36527  30.380  15.310   2.212
64213W        W36528  33.318  10.727   1.647
64214W        W36529   5.239  38.420  12.956
64215W        W36530  42.705  23.067   0.524
64216W        W36531   8.347  10.644   4.663
64217W        W36532  28.471   4.472   4.776
64218W        W36533  15.864  31.217   9.974
64219W        W36534   7.178   8.287  11.412
64220W        W36535   0.857  13.851   1.166
64221W        W36536  17.640  27.464   2.719
64222W        W36537   7.125  31.958  11.147
64223W        W36538  41.407  41.787  12.413
64224W        W36539   9.247  37.819  12.953
64225W        W36540  31.882   1.731   4.893
64226W        W36541  44.547   8.519   1.361
64227W        W36542  37.370  30.609  12.028
64228W        W36543  22.136   4.987   9.978
64229W        W36544  14.639  33.261   0.632
64230W        W36545  25.557  21.473   0.975
64231W        W36546  17.798  17.743  14.378
64232W        W36547  28.553  43.762   1.852
64233W        W36548   0.922   8.727  13.353
64234W        W36549  40.305  23.175  12.188
64235W        W36550  35.031  34.178   1.191
64236W        W36551  18.953  20.086   1.410
64237W        W36552  10.876  30.471  12.371
64238W        W36553   2.692  27.881  13.555
64239W        W36554  16.876   1.494  13.992
64240W        W36555   1.485  26.533   0.359
64241W        W36556  22.037  38.961  14.374
64242W        W36557   0.793   2.622   0.085
64243W        W36558  42.027   2.733  10.937
64244W        W36559   4.895   7.889   3.619
64245W        W36560  12.715   5.839   0.189
64246W        W36561  24.173  13.858   2.732
64247W        W36562  28.027   4.168   2.217
64248W        W36563   9.822  43.086  11.607
64249W        W36564  13.035  38.478  14.485
64250W        W36565  41.052   5.880  11.999
64251W        W36566  11.384   7.782  13.768
64252W        W36567  20.094  31.975  12.575
64253W        W36568  18.133  15.613   3.326
64254W        W36569  19.630  25.936   0.012
64255W        W36570   0.030   1.579   3.704
64256W        W36571  38.891  10.695   2.330
64257W        W36572  22.727   6.760   2.749
64258W        W36573  39.446  23.483  14.800
64259W        W36574   2.063  12.151   9.744
64260W        W36575   4.477  44.859   1.073
64261W        W36576  23.701  27.148  11.451
64262W        W36577  37.940  22.793   4.482
64263W        W36578   9.138  18.725   2.311
64264W        W36579  24.517  37.298  13.971
64265W        W36580  22.600  39.347   4.634
64266W        W36581   6.002  41.404  14.760
64267W        W36582  31.964  30.187   3.580
64268W        W36583  24.999  27.352   2.934
64269W        W36584  44.277  33.052  14.861
64270W        W36585  19.042  35.785   1.855
64271W        W36586  12.970   3.808  12.487
64272W        W36587  27.916  11.154  12.575
64273W        W36588   2.467   9.843  14.169
64274W        W36589  15.142  19.147  14.972
64275W        W36590  13.761  33.116  11.159
64276W        W36591  20.631  20.301  12.845
64277W        W36592  19.989   2.743   1.471
64278W        W36593  26.766  38.413   4.450
64279W        W36594  15.231  38.380  14.216
64280W        W36595   5.449  15.670   3.630
64281W        W36596   9.732  11.297  12.687
64282W        W36597   9.550   8.783   2.414
64283W        W36598  13.818  39.946  14.974
64284W        W36599  43.453  42.721   3.000
64285W        W36600  29.423  42.853  13.239
64286W        W36601  44.713   6.649   2.359
64287W        W36602  21.094   7.912  11.379
64288W        W36603  15.452  25.682   1.457
64289W        W36604   0.714   4.722  13.899
64290W        W36605  43.916  27.091   0.368
64291W        W36606  20.630  25.658   2.573
64292W        W36607   0.309  28.070  14.343
64293W        W36608  31.507  10.801   1.230
64294W        W36609  22.271  29.594   1.514
64295W        W36610  12.159  32.502  11.611
64296W        W36611   7.261  20.525   0.779
64297W        W36612  13.899  14.974  12.656
64298W        W36613   0.460  18.267   1.858
64299W        W36614  42.623  30.567   3.703
64300W        W36615  10.826  16.330  11.482
64301W        W36616  35.693  20.696   4.576
64302W        W36617  17.638   0.680   1.723
64303W        W36618  39.002  38.595  14.406
64304W        W36619   2.692  32.917  11.595
64305W        W36620  30.957  27.599  13.777
64306W        W36621  34.632  10.861  13.474
64307W        W36622  36.588   8.448   4.106
64308W        W36623   4.048  40.198  10.995
64309W        W36624  10.832   0.290   0.013
64310W        W36625  38.041  29.410   0.643
64311W        W36626  12.276  44.190  10.726
64312W        W36627  12.868  17.743  10.727
64313W        W36628  38.639  19.154  12.426
64314W        W36629   6.343  24.953  12.592
64315W        W36630   4.064  28.464  12.915
64316W        W36631  12.500  43.913   2.380
64317W        W36632  43.203  12.878   0.079
64318W        W36633  23.954  23.207  10.700
64319W        W36634  26.687  43.465   1.783
64320W        W36635  18.632  18.344  12.028
64321W        W36636  41.151  33.478  11.191
64322W        W36637  38.974  18.443   3.564
64323W        W36638  14.774  26.962  10.705
64324W        W36639   0.256  21.511   3.260
64325W        W36640  37.026  32.947  13.861
64326W        W36641  43.437  44.777  12.477
64327W        W36642  27.716  16.534  10.964
64328W        W36643  19.229  29.022  11.542
64329W        W36644   3.160  25.597  12.447
64330W        W36645  29.612  26.424   0.795
64331W        W36646  14.033  41.953  11.499
64332W        W36647   0.755   1.996  10.613
64333W        W36648  28.952  37.813   3.304
64334W        W36649  12.818  18.259   0.309
64335W        W36650   9.791  15.563   4.229
64336W        W36651  34.893   1.832   3.712
64337W        W36652   6.847  41.591   3.601
64338W        W36653  28.991   7.870   3.172
64339W        W36654  15.777   7.198  11.177
64340W        W36655   7.466  33.859  13.984
64341W        W36656  39.918  15.877   3.256
64342W        W36657  38.413  14.372   4.945
64343W        W36658   3.245  30.512   2.316
64344W        W36659  33.152  44.494   0.817
64345W        W36660  28.864  11.696  14.477
64346W        W36661  28.490  29.596  11.180
64347W        W36662  22.680  25.699  11.482
64348W        W36663  37.998  23.608  10.553
64349W        W36664  25.308   8.781  12.044
64350W        W36665  23.201   0.851  12.840
64351W        W36666  23.493  29.168   0.197
64352W        W36667   6.302  34.665  14.317
64353W        W36668   3.444  22.029  10.737
64354W        W36669  20.571  10.550   2.121
64355W        W36670   0.719  27.599   0.025
64356W        W36671  17.004   3.502  11.973
64357W        W36672  16.985   9.115   2.123
64358W        W36673  34.307  11.143  12.597
64359W        W36674   6.030  29.123  11.009
64360W        W36675  30.974  23.966   2.715
64361W        W36676  18.164   8.940   1.273
64362W        W36677   0.427  42.740   3.099
64363W        W36678   8.742  33.557  13.380
64364W        W36679  37.190  35.355  12.406
64365W        W36680   2.391  14.257  11.521
64366W        W36681  16.818  38.157   4.949
64367W        W36682  22.001  13.735   1.600
64368W        W36683  26.314  31.174   1.776
64369W        W36684  41.155  17.716  12.339
64370W        W36685  39.825  14.666  14.604
64371W        W36686  21.736  28.646  11.524
64372W        W36687  39.171  18.141  13.661
64373W        W36688  11.941   1.729   3.643
64374W        W36689  43.709   6.730  11.076
64375W        W36690   5.837  39.953  10.851
64376W        W36691  39.990  25.204   3.762
64377W        W36692  40.496   1.538   1.798
64378W        W36693   2.335  39.681  12.456
64379W        W36694   9.610  24.036   2.939
64380W        W36695  29.685  36.412   1.315
64381W        W36696  35.421   9.233  10.546
64382W        W36697  20.004  22.774  13.027
64383W        W36698  27.925   2.344   3.768
64384W        W36699  39.971  12.153  13.759
64385W        W36700  29.691   9.853  11.588
64386W        W36701  15.004  44.705  14.971
64387W        W36702  19.266  25.049   0.498
64388W        W36703  31.078  35.855   0.085
64389W        W36704  31.287  40.400   2.268
64390W        W36705  15.756  26.656  11.861
64391W        W36706  24.560  23.480   4.580
64392W        W36707  39.367   0.452   3.688
64393W        W36708  15.089  38.020  12.516
64394W        W36709   4.444  39.220   2.441
64395W        W36710  39.781   1.974   2.703
64396W        W36711  17.591  35.783  13.984
64397W        W36712  40.031   8.319  11.566
64398W        W36713  27.826   2.727  11.522
64399W        W36714  28.411   7.312  13.967
64400W        W36715  30.172  14.756   1.409
64401W        W36716  35.405  28.145  11.634
64402W        W36717  10.568  16.564   5.481
64403W        W36718  25.554  20.735   4.615
64404W        W36719  14.841  27.069  13.093
64405W        W36720  10.401   5.554  11.722
64406W        W36721  15.284  27.725   1.295
64407W        W36722  31.056  31.265  14.410
64408W        W36723   3.083  35.093   5.020
64409W        W36724  19.888  13.794   1.815
64410W        W36725  25.600   8.795   0.435
64411W        W36726  34.093  39.807   1.752
64412W        W36727  33.054  16.229   2.726
64413W        W36728  26.592  38.570   1.086
64414W        W36729  36.634  19.249  12.640
64415W        W36730  40.038  18.138  13.868
64416W        W36731   0.930  10.455   1.781
64417W        W36732  42.830  16.688  12.695
64418W        W36733  39.374  44.519   0.118
64419W        W36734  33.832   5.838   2.362
64420W        W36735  22.430  12.360   3.643
64421W        W36736   4.332  20.271   3.703
64422W        W36737  28.408  12.623  11.949
64423W        W36738  38.391  36.917   1.621
64424W        W36739  29.580  25.497  13.456
64425W        W36740  33.179  22.128  11.969
64426W        W36741   6.707  37.118   0.306
64427W        W36742  24.392   3.808  14.411
64428W        W36743  18.481  14.246  10.233
64429W        W36744  19.192  15.891   4.246
64430W        W36745   5.932  22.746  10.950
64431W        W36746  33.133  12.435   0.272
64432W        W36747  11.867  13.436  13.474
64433W        W36748  28.352  10.874   3.217
64434W        W36749  28.710  34.332   1.840
64435W        W36750  28.552  30.615  10.730
64436W        W36751  20.562  34.664   4.594
64437W        W36752  27.506  20.984  11.470
64438W        W36753   0.911  21.216  11.422
64439W        W36754  15.618  35.164  13.355
64440W        W36755   9.712   4.222  12.501
64441W        W36756  41.645  20.355  12.739
64442W        W36757  21.157   1.973   3.884
64443W        W36758  35.597  17.628  12.393
64444W        W36759  42.256  28.104   2.413
64445W        W36760  44.863  30.367  10.424
64446W        W36761  18.223  36.938  10.383
64447W        W36762  25.862  17.235   0.410
64448W        W36763  25.483  41.452  12.457
64449W        W36764   5.096   4.685  12.336
64450W        W36765  41.006  24.676   4.315
64451W        W36766   9.388  28.763   0.227
64452W        W36767  39.959  29.447  13.003
64453W        W36768  42.728   9.055  12.100
64454W        W36769  32.622  15.472   4.399
64455W        W36770   4.770  39.972  14.560
64456W        W36771   2.970   6.754  13.949
64457W        W36772   5.126   5.492   1.806
64458W        W36773   4.954   8.937  11.453
64459W        W36774  41.071  18.090   0.798
64460W        W36775  14.730  37.273   3.151
64461W        W36776  30.040  31.964   0.410
64462W        W36777   4.668  15.302   1.618
64463W        W36778  25.683  35.103   0.395
64464W        W36779   4.887  22.518   0.370
64465W        W36780  30.526  37.121  11.746
64466W        W36781  25.713  18.732  13.530
64467W        W36782   5.775  17.521   3.311
64468W        W36783  29.873  42.921  11.539
64469W        W36784   0.568  21.688  13.878
64470W        W36785  35.968   3.847  11.284
64471W        W36786  10.556  35.927  13.785
64472W        W36787  30.575  26.730  11.369
64473W        W36788   2.619  28.647  10.836
64474W        W36789  34.614  34.541   2.875
64475W        W36790  22.699   7.427  12.945
64476W        W36791  24.651  21.172  14.977
64477W        W36792  30.018  22.618  14.387
64478W        W36793  26.693  34.559  13.883
64479W        W36794   0.853  22.983   4.313
64480W        W36795  40.138   9.986  11.941
64481W        W36796  16.495  30.173   5.118
64482W        W36797  27.430   4.862   4.645
64483W        W36798   6.031  12.165  12.198
64484W        W36799  12.501  20.621   2.211
64485W        W36800  24.113  26.065   2.701
64486W        W36801  29.578  27.046   4.038
64487W        W36802  17.233  36.868  14.891
64488W        W36803  25.041   9.121  12.935
64489W        W36804  41.904  22.292   2.139
64490W        W36805   2.996  13.284   4.769
64491W        W36806  22.119  41.791   1.689
64492W        W36807   3.814  21.973   2.396
64493W        W36808  31.031  18.244   0.118
64494W        W36809  17.688  19.359   1.845
64495W        W36810   8.680  41.883   3.880
64496W        W36811   2.814   0.572  11.912
64497W        W36812   4.782  32.145  14.819
64498W        W36813   6.179  11.707  13.346
64499W        W36814  16.726   3.162   2.249
64500W        W36815  42.777  41.713   4.109
64501W        W36816  33.572  20.512   1.912
64502W        W36817   3.128  24.477   2.877
64503W        W36818   4.989   4.495  11.599
64504W        W36819   0.015   4.438   4.102
64505W        W36820  14.495  18.673   0.410
64506W        W36821  28.663   4.642   1.830
64507W        W36822  33.991  37.871  13.959
64508W        W36823  43.555  38.242  11.620
64509W        W36824  24.119  41.275  11.764
64510W        W36825  30.162  41.975   1.637
64511W        W36826  19.737  15.479   4.126
64512W        W36827  15.684  44.615  11.919
64513W        W36828  19.204  34.383  14.848
64514W        W36829  17.452  26.646  12.344
64515W        W36830   8.944  29.094   2.303
64516W        W36831   9.360  43.263  13.291
64517W        W36832  14.547  41.909  14.885
64518W        W36833  37.094  30.022  13.877
64519W        W36834  12.109  39.980  12.410
64520W        W36835  19.213  14.632   0.857
64521W        W36836   0.719   5.473  10.258
64522W        W36837  17.582  22.478  11.445
64523W        W36838  39.003   6.157  14.214
64524W        W36839  33.946  39.887   2.682
64525W        W36840  29.352  34.782  10.348
64526W        W36841   9.138  30.054  13.061
64527W        W36842  18.559  20.146   3.113
64528W        W36843  40.176   5.667  11.128
64529W        W36844   6.506   2.538  11.561
64530W        W36845  29.941  10.885  11.811
64531W        W36846   1.020  43.164   1.487
64532W        W36847  18.310  30.851   3.776
64533W        W36848  20.737  27.865   2.854
64534W        W36849  27.317  25.621   4.090
64535W        W36850   3.076  35.048   0.727
64536W        W36851  32.557  30.493   0.431
64537W        W36852  43.583   9.744   9.692
64538W        W36853  35.167  30.421   3.694
64539W        W36854  36.421   1.949   2.091
64540W        W36855  33.741  28.286   0.231
64541W        W36856  27.388  32.585  12.606
64542W        W36857  36.876   5.376   3.609
64543W        W36858  10.303  44.913   3.258
64544W        W36859  14.568   4.743  11.944
64545W        W36860  36.064  24.576  13.083
64546W        W36861  39.022  34.460   1.355
64547W        W36862  31.958  23.450   3.704
64548W        W36863  42.479   3.852   2.399
64549W        W36864  43.213  28.419   3.650
64550W        W36865  17.663  19.026   2.854
64551W        W36866  36.608   3.680  14.389
64552W        W36867  10.264  22.580   2.900
64553W        W36868  36.754  12.550  10.721
64554W        W36869  39.915  23.666  11.587
64555W        W36870  42.833  41.879   0.174
64556W        W36871  35.447   5.889   4.160
64557W        W36872  20.147   4.770   3.405
64558W        W36873  33.827  23.997   1.656
64559W        W36874  11.592  14.667  13.915
64560W        W36875   1.337  21.057   0.998
64561W        W36876   5.015   9.443   3.651
64562W        W36877   8.970  11.922  11.985
64563W        W36878  19.229   9.972  13.881
64564W        W36879   0.190  26.144   0.972
64565W        W36880   7.238  10.866  12.570
64566W        W36881   8.407  31.374   2.863
64567W        W36882  12.758   6.884  12.850
64568W        W36883  13.185  16.797   2.806
64569W        W36884  41.382  31.201   0.094
64570W        W36885   1.133  17.622  13.391
64571W        W36886  39.392   2.746   2.861
64572W        W36887  40.253  37.381  10.867
64573W        W36888  38.138  20.810   2.275
64574W        W36889  30.496  24.116  10.941
64575W        W36890  36.815  13.750  11.808
64576W        W36891  21.219  28.372  12.386
64577W        W36892  19.692   0.890  12.496
64578W        W36893  17.891   2.531   0.435
64579W        W36894  42.885   8.713  13.430
64580W        W36895   5.888  16.876   3.758
64581W        W36896  14.351  44.862   1.304
64582W        W36897  42.015  30.439  14.402
64583W        W36898  36.705  26.879  12.153
64584W        W36899  42.660  41.860  12.529
64585W        W36900  26.662   7.176  14.804
64586W        W36901  32.485  27.565  14.846
64587W        W36902  15.105   9.779  10.777
64588W        W36903  38.903   1.785  10.312
64589W        W36904  41.816   3.789  11.963
64590W        W36905  17.752   8.311  13.434
64591W        W36906   7.756  34.651   3.591
64592W        W36907   5.006  21.395   3.611
64593W        W36908  39.382  25.609   3.317
64594W        W36909  10.417   7.281   2.831
64595W        W36910  11.118  27.703   4.647
64596W        W36911   9.107  12.614   0.231
64597W        W36912  41.880  15.672   0.051
64598W        W36913  12.030  23.656  12.309
64599W        W36914   6.780  26.908   2.652
64600W        W36915   0.644  31.806   4.764
64601W        W36916  19.794  44.749   1.560
64602W        W36917  31.890  26.580   2.235
64603W        W36918  35.098  43.663   0.411
64604W        W36919   5.402   6.311  11.376
64605W        W36920  11.877  36.700  13.182
64606W        W36921  26.004  36.258  14.369
64607W        W36922  34.622  43.993  14.528
64608W        W36923  31.175  24.288   1.311
64609W        W36924  31.281  28.500  13.900
64610W        W36925  22.673   2.989   0.910
64611W        W36926  19.848  20.999   0.571
64612W        W36927  36.466  28.460   2.408
64613W        W36928  12.601  42.410   1.862
64614W        W36929  24.754  17.712  10.729
64615W        W36930  14.522  30.877   0.905
64616W        W36931   6.291  34.091   0.272
64617W        W36932  34.045  20.196  11.995
64618W        W36933  20.167  37.559  14.446
64619W        W36934  36.053  28.146   5.240
64620W        W36935   9.409  37.373  11.591
64621W        W36936  15.344  40.792   2.802
64622W        W36937  31.132   3.971  11.740
64623W        W36938  27.291   0.930   2.756
64624W        W36939  21.727  26.265   3.928
64625W        W36940  10.336  44.276  13.392
64626W        W36941  40.091  44.385   2.198
64627W        W36942  13.275  30.086  14.794
64628W        W36943  27.649  12.064  14.633
64629W        W36944  31.193  31.805  10.193
64630W        W36945  44.383  28.723  10.945
64631W        W36946  17.714  44.045  12.648
64632W        W36947   0.495   0.050  13.812
64633W        W36948   2.387   7.626   3.620
64634W        W36949  27.651  10.322   2.360
64635W        W36950   4.910  11.938   2.450
64636W        W36951   9.740  25.213   0.638
64637W        W36952  13.406  44.442  12.031
64638W        W36953  13.207  15.951  11.073
64639W        W36954   9.129  17.726   2.644
64640W        W36955  10.658   6.629  12.489
64641W        W36956   8.966   3.678  14.447
64642W        W36957  29.187  38.103   3.670
64643W        W36958  12.297   7.857  14.994
64644W        W36959  29.381   6.253  14.846
64645W        W36960  44.030  36.545  13.150
64646W        W36961  29.063  19.542   4.637
64647W        W36962   8.854  41.775  14.659
64648W        W36963  25.460  41.360  11.937
64649W        W36964  40.685  27.249   1.390
64650W        W36965  20.219   1.406  11.148
64651W        W36966  27.145  16.319  14.296
64652W        W36967  10.970  19.024  10.759
64653W        W36968  40.358  25.008   2.195
64654W        W36969  12.216  17.253   1.370
64655W        W36970  25.491   9.695   2.480
64656W        W36971  15.828  10.766  12.053
64657W        W36972   7.112  31.509   3.819
64658W        W36973  38.484  20.256  10.746
64659W        W36974  36.965  21.008   3.709
64660W        W36975  39.315  31.575   0.796
64661W        W36976  17.758  24.931   3.258
64662W        W36977  20.777  32.971   4.848
64663W        W36978  11.152  18.131   1.043
64664W        W36979  36.162  44.994   3.726
64665W        W36980   2.304  40.939  13.564
64666W        W36981  13.655  26.395  14.522
64667W        W36982   4.283  11.628  12.038
64668W        W36983  20.803  39.034  12.386
64669W        W36984   2.219  34.370   4.021
64670W        W36985  20.593  28.995   4.563
64671W        W36986  14.077  37.489  12.206
64672W        W36987   0.417  15.613  11.146
64673W        W36988  36.500   9.430   0.925
64674W        W36989   6.276  11.373  14.883
64675W        W36990   2.795   5.598  14.456
64676W        W36991   6.888  29.984   4.962
64677W        W36992  23.543  38.855  14.706
64678W        W36993  33.431  20.639   4.613
64679W        W36994  14.109  12.319   0.184
64680W        W36995  15.943   9.974  10.663
64681W        W36996  29.972  38.379   0.436
64682W        W36997  24.482  43.086   1.220
64683W        W36998   1.686  34.038  14.448
64684W        W36999  11.632   1.983  13.886
64685W        W37000  38.366  42.257   4.638
64686W        W37001  24.064  14.343   3.512
64687W        W37002  33.900  27.688  13.865
64688W        W37003  31.431  34.113   0.258
64689W        W37004  41.708   9.415   1.757
64690W        W37005   9.632   0.305   2.575
64691W        W37006   1.318   7.245  13.327
64692W        W37007   7.639  15.755  10.292
64693W        W37008  27.450  25.984   0.357
64694W        W37009  15.571   3.223   3.684
64695W        W37010  30.629   1.250  13.162
64696W        W37011   0.687  31.972  11.147
64697W        W37012  18.469  44.765  14.347
64698W        W37013  30.104  34.986   3.859
64699W        W37014  35.543   6.123   3.698
64700W        W37015  31.462  37.148  14.032
64701W        W37016  23.036   0.720   4.193
64702W        W37017   6.566  33.684   2.331
64703W        W37018  21.481  29.648   1.011
64704W        W37019  42.570  16.279  14.813
64705W        W37020   1.217   2.944  11.094
64706W        W37021   2.033   3.178   0.237
64707W        W37022  31.939   3.890   4.611
64708W        W37023  29.869  19.813   3.118
64709W        W37024   2.525  43.372   3.322
64710W        W37025  35.255  10.794  14.863
64711W        W37026  41.356  30.374   0.421
64712W        W37027  27.598  31.229   0.383
64713W        W37028  25.580  38.645  11.917
64714W        W37029  11.296  28.496   0.417
64715W        W37030  18.916  38.633  14.024
64716W        W37031  32.195  12.815   0.748
64717W        W37032  20.141   0.123  12.628
64718W        W37033  16.893   7.925  14.839
64719W        W37034   5.770   7.899  10.933
64720W        W37035  20.172  30.021  12.589
64721W        W37036  11.125  37.319  12.948
64722W        W37037  20.095  11.321  12.542
64723W        W37038   9.271   1.463  10.353
64724W        W37039  43.521  11.240   2.660
64725W        W37040  11.318  19.323  11.813
64726W        W37041  11.052  16.603   5.307
64727W        W37042   0.479  34.045  11.554
64728W        W37043  23.851  40.805  12.494
64729W        W37044  44.740  23.199   0.338
64730W        W37045   8.665   1.948   4.881
64731W        W37046  31.920  15.162   0.040
64732W        W37047  41.542  40.442   0.400
64733W        W37048  44.857  31.032  13.604
64734W        W37049  22.906  35.178  12.083
64735W        W37050  16.049  27.392  13.839
64736W        W37051  34.551  15.210   4.567
64737W        W37052  41.403  34.831  13.874
64738W        W37053   2.847  27.126   2.863
64739W        W37054  16.050  41.301  10.546
64740W        W37055  11.095  25.105   4.230
64741W        W37056  36.343   0.532  11.171
64742W        W37057  41.225   7.562  12.507
64743W        W37058  19.191  37.814   4.761
64744W        W37059  44.930  23.122   2.695
64745W        W37060  10.906  43.513   1.749
64746W        W37061  21.091  26.201   4.735
64747W        W37062   9.406  29.037  14.767
64748W        W37063  14.582  15.190  14.387
64749W        W37064  37.509   8.349   0.520
64750W        W37065  41.026  16.799   3.286
64751W        W37066   4.168  43.425  10.992
64752W        W37067  40.817  21.269   2.877
64753W        W37068  23.542  28.935  12.382
64754W        W37069  22.601  17.682   4.092
64755W        W37070  12.085  17.593  10.909
64756W        W37071  22.701  38.983  12.024
64757W        W37072   6.278  11.644   2.258
64758W        W37073  20.700  12.644  13.824
64759W        W37074   8.630  34.089   1.754
64760W        W37075   9.880  17.161  11.879
64761W        W37076  12.846  43.839   1.373
64762W        W37077  40.475   2.290   0.513
64763W        W37078  22.348  18.633  14.880
64764W        W37079  20.828   7.372   0.404
64765W        W37080  27.230   1.685   1.677
64766W        W37081  25.233   3.025  13.879
64767W        W37082  21.907  11.961  12.538
64768W        W37083  25.184  11.904   2.398
64769W        W37084  15.373   6.295  10.513
64770W        W37085  33.644  38.600  12.233
64771W        W37086  40.867  29.876  13.436
64772W        W37087  41.258  38.496   4.086
64773W        W37088  18.210   4.506  12.925
64774W        W37089  27.694   3.512   4.474
64775W        W37090  16.626   8.892   0.019
64776W        W37091  35.964   2.745   2.784
64777W        W37092  23.618  19.271   4.528
64778W        W37093  30.463  27.888   3.309
64779W        W37094  22.498   6.852   3.706
64780W        W37095  10.169  43.591  11.092
64781W        W37096  42.012  24.651   4.498
64782W        W37097  40.783  21.792   2.892
64783W        W37098  38.768   1.800   0.608
64784W        W37099  20.399  12.602   3.788
64785W        W37100  39.830  32.858   1.343
64786W        W37101  44.405  23.109  11.083
64787W        W37102  34.922   6.786   2.278
64788W        W37103  22.973  18.635   0.751
64789W        W37104   0.894   7.542  13.344
64790W        W37105  10.720  31.929   0.262
64791W        W37106   7.865  15.826  12.893
64792W        W37107  37.596  40.386   0.139
64793W        W37108  43.520  34.427   1.585
64794W        W37109  24.297   2.923  14.772
64795W        W37110  31.969  29.196  10.743
64796W        W37111  30.170  28.871  10.554
64797W        W37112  11.795  15.258   4.839
64798W        W37113  13.214  22.137   4.568
64799W        W37114   9.245  16.283   1.255
64800W        W37115  38.573  29.176   3.621
64801W        W37116  10.147  18.581   4.629
64802W        W37117  15.664  38.076   0.418
64803W        W37118   3.916  36.875  13.400
64804W        W37119  18.312  32.639   0.720
64805W        W37120  41.951  30.196   0.828
64806W        W37121  23.987  41.560   4.174
64807W        W37122   0.382  23.936  10.743
64808W        W37123  19.532  41.140   9.558
64809W        W37124  23.833  30.883  12.488
64810W        W37125  38.750  23.505  11.050
64811W        W37126  35.111   2.937   4.813
64812W        W37127   5.954  12.120  13.582
64813W        W37128  32.282  42.942  11.782
64814W        W37129  32.433  36.604  14.504
64815W        W37130   9.070  32.611   3.209
64816W        W37131  42.307  44.972  14.782
64817W        W37132  24.641  41.943   2.937
64818W        W37133  17.571   6.358   2.835
64819W        W37134  13.122  29.541   0.317
64820W        W37135   2.452  23.885  11.636
64821W        W37136  44.260  17.129   1.726
64822W        W37137  39.450  14.126   1.275
64823W        W37138  13.102  14.280  12.526
64824W        W37139  41.403  21.864  11.457
64825W        W37140  29.406  26.690   0.376
64826W        W37141  19.554   4.731  12.429
64827W        W37142  33.637   4.238   4.694
64828W        W37143  18.086  19.072  11.320
64829W        W37144  38.863  12.675  14.981
64830W        W37145  10.168  13.411  13.523
64831W        W37146  12.752  41.475   2.857
64832W        W37147  31.736  37.430  14.404
64833W        W37148  18.489   9.670  14.677
64834W        W37149  39.143  29.865   0.767
64835W        W37150   4.240  14.920  12.675
64836W        W37151   9.927   3.838   2.437
64837W        W37152   7.811  17.293  12.991
64838W        W37153  22.046  44.446  14.872
64839W        W37154  36.448  39.308  13.893
64840W        W37155  33.287  15.535   1.462
64841W        W37156  25.040  30.443  11.426
64842W        W37157  15.252  34.958  10.845
64843W        W37158  20.211  35.367  14.817
64844W        W37159  29.475  17.296   2.895
64845W        W37160  25.202  42.206   4.746
64846W        W37161  13.657  13.876  13.319
64847W        W37162  26.743  36.790   2.376
64848W        W37163  40.620   3.944   2.766
64849W        W37164  10.749   5.777  12.113
64850W        W37165  13.188  36.047  14.523
64851W        W37166  29.283  21.349  14.146
64852W        W37167  38.371  13.775   3.144
64853W        W37168   3.227  20.758   0.943
64854W        W37169  43.496  34.377  13.503
64855W        W37170   5.316  21.776  14.489
64856W        W37171   5.382  38.426   4.148
64857W        W37172   8.749  22.906  11.661
64858W        W37173  23.021  34.356   1.727
64859W        W37174  21.946  39.825  13.717
64860W        W37175  40.325  44.778  12.506
64861W        W37176  28.168  14.137   3.254
64862W        W37177  15.036  31.770   0.250
64863W        W37178  39.947  16.308   1.645
64864W        W37179  31.917  35.405   3.675
64865W        W37180  32.392  15.022  14.375
64866W        W37181   1.324  36.474   5.429
64867W        W37182  34.026   5.394  14.354
64868W        W37183   5.907  26.218   1.277
64869W        W37184  20.494  23.622  12.109
64870W        W37185  30.540   5.330   1.312
64871W        W37186  42.581   6.062  11.095
64872W        W37187  16.311  14.640   1.419
64873W        W37188  31.354  24.662  11.560
64874W        W37189  17.822  21.012  12.451
64875W        W37190   0.281  10.360  14.555
64876W        W37191  30.838  23.638  13.073
64877W        W37192  22.043  24.339  13.767
64878W        W37193  24.871  23.527   3.664
64879W        W37194   4.866  29.850   3.970
64880W        W37195  28.222  18.299   2.830
64881W        W37196  17.833  22.181   4.189
64882W        W37197   3.749  11.667   2.858
64883W        W37198   6.858  32.752   2.686
64884W        W37199  14.817   4.980  10.292
64885W        W37200  16.160  22.223  11.535
64886W        W37201   9.848   4.640  13.904
64887W        W37202  23.155  36.089  10.725
64888W        W37203  29.384  44.845  10.529
64889W        W37204  11.211   1.077  10.678
64890W        W37205  22.560  15.720   3.806
64891W        W37206  16.757  34.516  11.469
64892W        W37207   6.636   5.239   0.314
64893W        W37208  25.682   2.057   1.181
64894W        W37209  20.255  32.913  11.136
64895W        W37210   8.042   0.987   3.713
64896W        W37211  17.724  44.261  11.717
64897W        W37212  27.687  35.178   1.924
64898W        W37213  35.182  23.669  12.611
64899W        W37214   3.939  34.157  11.732
64900W        W37215  27.971  32.147   2.172
64901W        W37216   9.938  37.770  14.847
64902W        W37217  16.795   2.275  12.595
64903W        W37218  20.713   6.260   3.423
64904W        W37219  25.035  38.906   0.302
64905W        W37220  15.895  37.462  14.061
64906W        W37221  31.054  20.642  10.588
64907W        W37222  17.870   2.331   4.101
64908W        W37223  31.128  13.634   2.664
64909W        W37224  32.621  28.015  10.543
64910W        W37225  31.708   7.690   3.246
64911W        W37226  31.923   5.137  11.970
64912W        W37227   5.011  29.075   1.238
64913W        W37228   4.202   6.849  11.637
64914W        W37229  39.224  35.445   4.046
64915W        W37230  21.769  12.618  13.869
64916W        W37231   3.700  26.548  12.382
64917W        W37232  31.366   3.429  12.555
64918W        W37233  40.698   0.947   2.726
64919W        W37234  15.601  30.473   2.527
64920W        W37235  25.647   6.005   2.860
64921W        W37236   0.359  39.288   4.571
64922W        W37237   6.782  17.612  11.065
64923W        W37238  32.902  32.502   3.981
64924W        W37239  39.044  40.817   3.801
64925W        W37240  12.241  26.127  12.638
64926W        W37241  41.422  42.413   1.188
64927W        W37242   5.469  40.359  12.882
64928W        W37243   6.707  30.376   1.460
64929W        W37244  22.529  27.895  10.585
64930W        W37245  33.976  28.854  14.851
64931W        W37246  12.689  39.500   4.687
64932W        W37247  25.175  42.433   3.149
64933W        W37248  26.231  13.735   0.046
64934W        W37249   2.341  15.163  14.094
64935W        W37250  37.947   2.916   0.924
64936W        W37251  41.705  31.963   3.134
64937W        W37252  16.664  20.561   3.606
64938W        W37253  42.378   5.258  14.674
64939W        W37254  44.385  12.379   4.680
64940W        W37255  34.383  26.608  10.967
64941W        W37256  33.894  17.102   3.582
64942W        W37257  31.029  31.332  11.705
64943W        W37258  17.272  38.246   2.227
64944W        W37259   1.989  37.523  14.246
64945W        W37260  27.609   6.904  14.357
64946W        W37261   1.801   2.031  12.011
64947W        W37262  15.898  11.946  11.915
64948W        W37263  18.555  22.924   0.114
64949W        W37264  38.554  23.726  13.276
64950W        W37265  16.817  32.943   1.605
64951W        W37266  30.924  37.370   0.612
64952W        W37267  12.100  41.886  12.061
64953W        W37268  30.987   0.405  13.087
64954W        W37269  44.565  38.386   1.195
64955W        W37270  43.435  30.525  12.155
64956W        W37271  44.514  19.065  13.223
64957W        W37272  10.774  19.507   5.095
64958W        W37273  42.931  32.451  10.742
64959W        W37274   7.169  42.000  14.896
64960W        W37275  12.711   4.765  14.071
64961W        W37276  28.537   7.862  14.174
64962W        W37277   4.672  44.508  14.942
64963W        W37278   7.811   2.980  11.725
64964W        W37279  24.720  18.589   3.808
64965W        W37280  15.786  11.827   3.238
64966W        W37281  28.202  13.085   1.387
64967W        W37282  30.765  18.612  10.873
64968W        W37283  21.055  19.799  13.373
64969W        W37284  34.887  14.282  13.977
64970W        W37285  40.658  35.952  12.139
64971W        W37286  40.721  16.746   4.567
64972W        W37287  17.563  33.295  11.969
64973W        W37288  15.696  28.854  12.604
64974W        W37289  32.436   3.790   2.019
64975W        W37290   7.882  20.943   3.554
64976W        W37291  44.430  11.171   2.661
64977W        W37292   5.089  17.005   2.733
64978W        W37293  14.291  24.012   3.655
64979W        W37294  37.071  42.300  12.784
64980W        W37295  15.268  44.707  13.611
64981W        W37296  21.019  18.008   4.527
64982W        W37297   5.945  16.071   2.493
64983W        W37298   6.300  34.166  14.305
64984W        W37299  10.482   6.913  12.069
64985W        W37300  13.155  10.334   0.236
64986W        W37301  44.417  18.523   2.721
64987W        W37302  10.679   9.854  10.735
64988W        W37303  39.346  29.308  11.797
64989W        W37304  28.075  10.222  13.715
64990W        W37305  25.975  44.461   4.176
64991W        W37306  14.253   2.011  14.692
64992W        W37307  27.631  26.680  14.279
64993W        W37308  33.608  31.576   3.179
64994W        W37309   1.822  34.339   4.701
64995W        W37310  22.487   8.689   3.691
64996W        W37311  29.979   3.481   3.460
64997W        W37312  14.210  36.394   3.213
64998W        W37313  37.621  43.496   1.724
64999W        W37314   9.848  18.523   2.931
65000W        W37315   2.320  14.766  11.389
65001W        W37316   0.805  16.146  12.245
65002W        W37317  41.948  40.013  10.443
65003W        W37318  41.653  24.991  11.682
65004W        W37319  25.415  42.983   1.267
65005W        W37320  38.345  18.784  11.654
65006W        W37321   9.172  19.918   2.816
65007W        W37322  14.872  16.538   0.789
65008W        W37323  39.459  36.468  14.883
65009W        W37324  44.720  16.227  14.126
65010W        W37325  28.400   1.440   3.550
65011W        W37326   9.648  28.055  13.407
65012W        W37327   9.972  33.981  13.501
65013W        W37328   0.010   3.752   2.727
65014W        W37329  11.111  28.229   4.612
65015W        W37330  43.832  16.083   3.273
65016W        W37331  41.304  17.326  14.253
65017W        W37332  43.959   2.663   4.080
65018W        W37333  13.814  34.074   2.743
65019W        W37334   1.693  12.423  10.040
65020W        W37335  11.512  36.401  10.462
65021W        W37336  14.159  24.421   1.337
65022W        W37337  27.232  32.604   4.651
65023W        W37338  30.555   3.106   1.752
65024W        W37339  19.955   6.828   4.033
65025W        W37340  28.444  25.700  12.906
65026W        W37341   5.427   5.632   0.920
65027W        W37342  25.615  36.295   2.110
65028W        W37343  30.995  15.232  13.069
65029W        W37344  18.209  25.434  12.499
65030W        W37345  27.420  27.190   2.709
65031W        W37346  32.746  17.769   3.819
65032W        W37347  12.129  17.122   4.969
65033W        W37348  18.897  27.030  13.532
65034W        W37349  40.704  18.050   1.706
65035W        W37350  30.364  43.560  10.972
65036W        W37351  13.222  36.397   2.332
65037W        W37352  21.686   8.865   2.390
65038W        W37353  36.461   5.949   4.755
65039W        W37354  44.916  20.286  12.026
65040W        W37355   1.968  38.520   1.401
65041W        W37356  15.049  16.614   0.083
65042W        W37357  24.241  10.563   2.228
65043W        W37358  44.563  13.556   3.596
65044W        W37359  16.737   1.530   0.747
65045W        W37360   6.270  12.014   4.589
65046W        W37361  18.221  15.572   4.209
65047W        W37362  24.516  36.063  11.158
65048W        W37363  37.698   4.892  10.093
65049W        W37364  43.864   4.474   4.526
65050W        W37365  44.431  43.119   5.003
65051W        W37366  28.800   6.315   3.355
65052W        W37367  14.168  18.679  11.175
65053W        W37368   7.949   4.728   2.683
65054W        W37369  24.605  24.999  10.419
65055W        W37370  20.018  29.196   1.373
65056W        W37371  17.770  38.294  11.583
65057W        W37372   9.054   7.365   4.510
65058W        W37373  16.139   8.622   2.213
65059W        W37374  23.214   8.027  14.307
65060W        W37375  44.283  38.153  13.997
65061W        W37376  21.663   1.328  12.132
65062W        W37377  30.479  39.539   4.526
65063W        W37378  31.481  42.300  13.434
65064W        W37379   9.383  26.213   2.313
65065W        W37380  32.576  44.709  12.575
65066W        W37381  33.093   6.355   2.288
65067W        W37382  21.637  30.420  10.911
65068W        W37383  29.064  23.980  12.935
65069W        W37384  15.196  24.573  10.886
65070W        W37385  24.268  36.944  11.071
65071W        W37386   2.590  35.746  10.072
65072W        W37387  19.142  36.764   0.850
65073W        W37388   3.073  14.997  14.658
65074W        W37389   9.333  21.117   3.333
65075W        W37390  44.549  39.799  12.079
65076W        W37391  13.174  30.112  11.081
65077W        W37392  33.239  16.347   3.630
65078W        W37393  24.857  23.318   1.722
65079W        W37394  15.306  44.422   0.953
65080W        W37395   2.496  37.945  12.984
65081W        W37396  28.884  25.090  12.190
65082W        W37397  29.359  17.138   1.957
65083W        W37398  42.317  26.072  10.498
65084W        W37399  10.639  34.533  13.563
65085W        W37400  34.429   6.183   1.858
65086W        W37401   9.456   2.305   0.217
65087W        W37402  37.913  17.928  12.580
65088W        W37403  11.071  32.174   3.254
65089W        W37404  12.273  30.251  12.928
65090W        W37405  25.464  34.863   4.556
65091W        W37406   5.697  37.841  12.624
65092W        W37407  14.382   3.383  14.959
65093W        W37408  19.327  35.110  14.443
65094W        W37409  26.957  13.766  12.448
65095W        W37410  26.199  14.222  10.813
65096W        W37411  22.772  27.954  11.052
65097W        W37412   2.845  32.629   2.415
65098W        W37413  15.873   9.079  14.499
65099W        W37414  19.130  22.313   2.751
65100W        W37415  20.739  10.202  14.937
65101W        W37416   5.738   7.202  12.918
65102W        W37417  36.991  43.106  13.572
65103W        W37418   2.874  37.102  12.977
65104W        W37419  31.069  20.006  12.322
65105W        W37420   6.917  20.720  14.380
65106W        W37421  43.802  13.521  12.929
65107W        W37422  20.208  13.243  12.492
65108W        W37423  21.313  12.742  12.964
65109W        W37424   8.446  25.574  11.641
65110W        W37425  39.042  27.061   3.125
65111W        W37426  39.819   3.065   4.539
65112W        W37427  27.710   6.430  14.198
65113W        W37428   8.325  14.133   3.416
65114W        W37429   8.884  11.702   1.034
65115W        W37430  18.658  41.519  12.314
65116W        W37431   8.412  43.981   2.927
65117W        W37432   4.271  28.963  11.001
65118W        W37433  35.494  15.463  11.173
65119W        W37434  30.838   1.839   3.219
65120W        W37435  18.074  26.178  13.551
65121W        W37436  15.455  32.559   3.331
65122W        W37437  23.729   2.794  11.013
65123W        W37438  31.940   3.275  14.916
65124W        W37439  27.996  31.473  13.383
65125W        W37440  20.098   8.134  14.020
65126W        W37441  28.835  44.981   2.303
65127W        W37442   2.614  17.176  11.678
65128W        W37443  37.088  14.176  11.978
65129W        W37444   4.959  35.367  12.955
65130W        W37445   0.706  26.616   3.227
65131W        W37446  40.943  23.038   1.325
65132W        W37447   6.764  31.612   3.419
65133W        W37448  24.483  30.477   4.274
65134W        W37449   0.073   5.253   0.888
65135W        W37450  18.999  13.575   4.581
65136W        W37451   6.777  32.668  10.321
65137W        W37452  31.461  33.324  10.673
65138W        W37453   5.916  30.775   3.555
65139W        W37454   0.743  37.366   0.884
65140W        W37455   1.550  30.409   3.823
65141W        W37456  15.217  13.841   0.362
65142W        W37457  13.413  10.845   3.088
65143W        W37458   4.137  15.946   2.688
65144W        W37459  42.498  39.865   0.927
65145W        W37460  23.926  23.488   0.806
65146W        W37461  29.297   2.060   0.301
65147W        W37462   3.343  26.931   2.706
65148W        W37463  14.041   3.884   3.018
65149W        W37464  38.031  19.146  13.260
65150W        W37465  28.416  37.456   1.273
65151W        W37466  38.032   4.275  13.525
65152W        W37467  17.865  14.178  11.565
65153W        W37468  35.913  35.196  13.387
65154W        W37469  38.115  18.620   3.718
65155W        W37470  43.680  35.384  12.240
65156W        W37471  33.387  35.189   0.772
65157W        W37472  12.770  18.038  12.417
65158W        W37473  40.094   9.872   3.601
65159W        W37474  25.884  32.969  10.314
65160W        W37475  14.811  15.762   2.767
65161W        W37476   0.116  13.509   1.953
65162W        W37477  41.819  21.486   4.578
65163W        W37478   0.287  36.466  12.887
65164W        W37479  40.989   7.551   2.776
65165W        W37480   9.433   5.685  10.908
65166W        W37481  29.594  21.725  10.669
65167W        W37482  21.658  38.582   3.820
65168W        W37483  32.446  27.072   4.730
65169W        W37484  14.028  18.166  11.944
65170W        W37485  36.506   8.718   3.672
65171W        W37486  38.952  20.935   4.607
65172W        W37487  18.743  37.310   1.574
65173W        W37488  35.621  34.576  11.146
65174W        W37489  43.508  41.469   1.356
65175W        W37490  28.902   6.652  12.881
65176W        W37491  19.814  11.536   3.115
65177W        W37492   6.408  39.911  12.918
65178W        W37493  36.487   5.009   2.399
65179W        W37494   1.334  38.128  13.236
65180W        W37495   1.964  22.408  11.553
65181W        W37496  44.476  40.562  12.413
65182W        W37497  21.094   0.899  11.531
65183W        W37498  28.220  12.849   4.149
65184W        W37499  43.844   6.858  12.465
65185W        W37500  31.913   3.832   2.682
65186W        W37501  14.285  35.838  10.692
65187W        W37502  34.163   2.558   1.926
65188W        W37503  31.468   8.109  13.322
65189W        W37504  31.074   7.030   3.639
65190W        W37505  12.990  25.864  12.028
65191W        W37506  31.195  12.876   3.533
65192W        W37507  36.897  33.545  13.148
65193W        W37508   2.622  34.982  13.611
65194W        W37509  27.115  39.933   3.467
65195W        W37510  21.231  39.469   2.898
65196W        W37511  35.679  40.555  13.250
65197W        W37512  29.428  17.186   4.588
65198W        W37513  15.767  30.688  10.051
65199W        W37514  16.707  18.998   1.919
65200W        W37515  16.274  29.591  11.980
65201W        W37516  18.296  39.189   2.400
65202W        W37517  37.884  43.854   3.420
65203W        W37518  15.587  26.760  10.931
65204W        W37519  40.834  14.235   3.103
65205W        W37520   0.804  22.090  13.470
65206W        W37521  37.548   1.701  10.802
65207W        W37522  10.163  24.528   0.708
65208W        W37523  20.661  44.799   1.326
65209W        W37524   8.193  19.367  13.805
65210W        W37525  32.773  41.913  12.847
65211W        W37526  16.565   6.121   0.845
65212W        W37527  18.299  39.622  12.844
65213W        W37528  12.869  42.003   0.667
65214W        W37529  41.115  20.811  14.822
65215W        W37530  16.826  37.319  13.753
65216W        W37531  20.305  30.467   1.827
65217W        W37532  29.986   8.610   4.783
65218W        W37533  13.415   1.800  14.597
65219W        W37534  25.178   6.680   3.831
65220W        W37535  14.828  12.698   0.125
65221W        W37536  38.971   5.385  11.994
65222W        W37537  29.469  40.275  12.633
65223W        W37538  33.942  21.286  12.622
65224W        W37539  17.314  28.279  14.306
65225W        W37540  36.163  20.431   2.314
65226W        W37541  43.455  39.282  11.585
65227W        W37542  37.824   6.318  13.566
65228W        W37543  19.572  43.537   4.570
65229W        W37544  33.212  12.185   2.133
65230W        W37545  17.704  31.567   4.332
65231W        W37546  12.117  21.161  12.384
65232W        W37547  40.986  23.184  10.909
65233W        W37548  11.189  13.351   4.649
65234W        W37549  29.840  30.428  14.198
65235W        W37550  43.362  44.017  13.340
65236W        W37551  39.495  42.474   2.300
65237W        W37552   6.749  25.528  12.977
65238W        W37553   6.647  12.613   3.264
65239W        W37554   1.417  15.108   4.369
65240W        W37555  33.965   3.262   2.872
65241W        W37556  25.590   3.454  14.533
65242W        W37557  39.565  41.757  10.352
65243W        W37558  25.579  26.710   0.105
65244W        W37559  44.446  44.780   3.633
65245W        W37560   9.632  19.364  12.633
65246W        W37561  22.488  19.514   1.360
65247W        W37562   2.476   3.047  14.962
65248W        W37563  10.241  11.562  11.598
65249W        W37564  30.403   6.697  14.344
65250W        W37565  19.056  31.055   2.659
65251W        W37566  29.082   7.092   0.918
65252W        W37567  44.441  19.764  14.322
65253W        W37568  25.905  37.905  14.721
65254W        W37569  17.869  20.514  12.626
65255W        W37570  11.663  29.740   4.045
65256W        W37571   0.688  15.584  11.633
65257W        W37572   7.168   4.205   0.322
65258W        W37573  26.959  26.739  12.549
65259W        W37574  43.783  14.378  10.673
65260W        W37575  30.941  11.176  13.545
65261W        W37576   7.742  13.186   1.203
65262W        W37577  28.617  32.015   2.818
65263W        W37578  12.709  40.728  12.889
65264W        W37579  20.517  10.152  11.817
65265W        W37580  33.097  43.408   4.869
65266W        W37581  32.409   0.262   0.285
65267W        W37582  14.262   2.963  14.257
65268W        W37583  28.166  29.243  14.750
65269W        W37584   2.950  19.221  13.535
65270W        W37585   4.806   0.508  13.019
65271W        W37586  33.072   7.179  14.251
65272W        W37587   3.488   0.084   3.598
65273W        W37588  12.769  40.938   2.807
65274W        W37589  29.046  12.634   3.172
65275W        W37590  17.071  31.429   0.847
65276W        W37591   0.093  20.013  13.855
65277W        W37592  35.386  17.659   3.719
65278W        W37593  27.413  29.752   2.740
65279W        W37594  38.837   8.840  13.526
65280W        W37595   4.930   5.954  10.634
65281W        W37596  28.371  38.530  12.913
65282W        W37597  28.488  19.967   3.331
65283W        W37598  44.279   4.755   1.974
65284W        W37599  15.063  11.340   2.675
65285W        W37600  25.778  22.438   3.200
65286W        W37601  20.479  41.264   0.900
65287W        W37602   5.284  35.879  10.775
65288W        W37603   5.156  19.763  13.188
65289W        W37604  20.123  32.256  13.429
65290W        W37605  25.957  18.649  12.087
65291W        W37606  32.385   4.403   2.312
65292W        W37607  16.456  36.094   1.174
65293W        W37608  31.038  35.886  10.713
65294W        W37609   2.232  15.270   2.506
65295W        W37610  11.248  16.639  11.360
65296W        W37611  22.165  28.366   3.280
65297W        W37612  16.633  13.236  11.928
65298W        W37613   0.365  21.575   1.832
65299W        W37614  38.176   0.462  11.018
65300W        W37615  26.140  10.264  11.615
65301W        W37616  34.982  18.106  10.369
65302W        W37617  41.940   3.231  14.359
65303W        W37618   9.659   0.375   4.358
65304W        W37619  28.015  33.830  14.997
65305W        W37620  38.342   3.980  14.416
65306W        W37621  18.580  25.041  13.106
65307W        W37622  23.997  14.705  11.150
65308W        W37623  28.600   5.852  12.829
65309W        W37624  17.337  37.871   4.171
65310W        W37625  43.571  40.513   2.346
65311W        W37626   9.699  12.182  11.151
65312W        W37627  37.109  19.388  14.865
65313W        W37628  25.970  12.153   2.754
65314W        W37629  10.669  13.707   2.717
65315W        W37630  18.213  18.106   0.250
65316W        W37631  33.911  31.392   2.785
65317W        W37632  43.944  23.568   0.266
65318W        W37633  20.732  31.048   0.199
65319W        W37634  30.484  24.906  13.335
65320W        W37635  15.288   6.510   4.223
65321W        W37636  31.948   3.019   1.885
65322W        W37637  33.502  37.871   0.436
65323W        W37638  20.431  35.509  14.347
65324W        W37639  32.588   0.566  14.727
65325W        W37640  35.553  28.411  14.545
65326W        W37641  26.313  40.485   4.779
65327W        W37642  44.305  11.280  10.984
65328W        W37643  16.594  13.787  10.744
65329W        W37644  31.076  16.054  14.526
65330W        W37645  36.260  44.835  13.307
65331W        W37646  44.223  10.715   2.829
65332W        W37647  42.316  26.868   0.035
65333W        W37648   7.887  16.666  12.497
65334W        W37649  40.937   5.635   0.686
65335W        W37650   3.235  43.836   3.034
65336W        W37651  30.423  39.314   3.591
65337W        W37652  13.364   4.427   4.385
65338W        W37653  21.716  25.651  12.571
65339W        W37654  19.645  32.925  13.360
65340W        W37655  15.680  25.163   2.930
65341W        W37656  24.663   2.418   3.276
65342W        W37657  36.569   3.109   0.252
65343W        W37658  11.629  31.092   0.025
65344W        W37659  14.909  25.261  14.874
65345W        W37660  36.916  10.534   4.766
65346W        W37661  10.238  30.239   0.762
65347W        W37662  20.640  42.238  11.219
65348W        W37663  28.873   4.415  14.784
65349W        W37664   9.641   4.293   3.256
65350W        W37665   3.179   2.955  10.656
65351W        W37666  38.049  10.224  11.584
65352W        W37667  28.748  23.742   1.729
65353W        W37668  27.110  29.513   0.896
65354W        W37669  23.085  42.446   0.782
65355W        W37670   2.415  21.532  13.759
65356W        W37671   4.727  18.693  12.032
65357W        W37672   4.165  38.021  12.058
65358W        W37673  32.096  10.167   9.982
65359W        W37674  38.389  18.291  14.903
65360W        W37675  22.224   9.281   0.747
65361W        W37676  37.919   3.909  11.027
65362W        W37677  13.553  42.294   1.908
65363W        W37678  22.565  13.799   2.433
65364W        W37679  21.035  19.599  14.427
65365W        W37680  11.685  13.905  14.395
65366W        W37681  26.618  29.876   2.298
65367W        W37682   2.429   2.732   2.126
65368W        W37683  18.126   3.374   2.134
65369W        W37684   8.040  15.640  12.433
65370W        W37685  36.046  10.912   4.788
65371W        W37686  44.736  27.404   0.773
65372W        W37687  34.781  40.827  10.527
65373W        W37688  38.875   3.925   0.234
65374W        W37689  27.635  11.137   2.665
65375W        W37690  36.354   9.249   4.882
65376W        W37691   7.404  20.745   3.587
65377W        W37692   6.321   0.449   1.448
65378W        W37693  10.189  31.201  12.419
65379W        W37694   3.338  40.449  11.188
65380W        W37695  21.061  11.124  11.649
65381W        W37696  38.669   9.742   3.144
65382W        W37697   4.808  42.418   0.751
65383W        W37698   4.246  36.047   5.015
65384W        W37699  18.203  30.523   5.558
65385W        W37700   9.488  12.562   3.372
65386W        W37701   1.304  36.396   0.170
65387W        W37702  32.529  28.464   1.863
65388W        W37703  40.067  39.541  11.981
65389W        W37704  12.987  31.219  14.056
65390W        W37705  22.270  17.486  14.904
65391W        W37706  14.290  20.509  12.054
65392W        W37707   7.415  25.179   1.597
65393W        W37708  44.788  27.905  14.890
65394W        W37709  26.024  42.759  11.113
65395W        W37710  34.451  31.065  10.642
65396W        W37711  11.090  19.531  13.953
65397W        W37712   2.434  18.987  13.415
65398W        W37713  30.630  31.214  12.543
65399W        W37714  44.943  44.639   0.342
65400W        W37715  37.049  36.391   3.692
65401W        W37716  31.434   7.278   0.962
65402W        W37717  44.064  23.870   2.149
65403W        W37718   7.309  44.954  14.246
65404W        W37719  18.176  13.126  11.938
65405W        W37720  30.605  17.365   1.315
65406W        W37721  26.114  16.672   1.181
65407W        W37722  25.688   6.107  11.075
65408W        W37723  15.085   1.341  12.223
65409W        W37724  36.081  14.300   0.684
65410W        W37725  32.509  22.990   3.129
65411W        W37726  22.008  23.315  13.874
65412W        W37727  20.986  10.707   3.265
65413W        W37728  38.051  21.637  10.974
65414W        W37729  16.107  23.418  14.053
65415W        W37730  35.337  17.762  10.581
65416W        W37731  37.961  24.046   3.418
65417W        W37732   4.219  20.390  12.178
65418W        W37733  43.147  35.042  14.140
65419W        W37734  40.972   8.219  10.836
65420W        W37735  16.136  13.388   0.023
65421W        W37736  23.194  37.149  11.931
65422W        W37737  33.640  41.450  13.484
65423W        W37738  27.627   0.048   4.040
65424W        W37739   0.815  22.931   3.753
65425W        W37740  15.149  28.820  13.296
65426W        W37741   9.082  42.927  12.879
65427W        W37742  30.861  41.835   0.945
65428W        W37743  40.606  22.557   3.325
65429W        W37744   8.807  12.620  11.179
65430W        W37745  14.830   4.551  11.545
65431W        W37746  32.079  21.167   4.881
65432W        W37747  25.553  12.392  12.968
65433W        W37748  41.294  16.103  11.176
65434W        W37749  13.939   7.185  12.523
65435W        W37750  16.366  15.471   0.356
65436W        W37751  29.681  38.007   3.778
65437W        W37752  19.514  14.181  12.502
65438W        W37753  39.853  17.780   0.388
65439W        W37754   1.923  41.483   4.149
65440W        W37755   9.724  34.132   1.306
65441W        W37756  11.804  32.974   1.825
65442W        W37757  43.560   4.354   4.117
65443W        W37758  36.461  11.641  14.722
65444W        W37759  18.535  40.529  14.989
65445W        W37760  44.847  26.862  12.824
65446W        W37761  14.311  15.053  12.366
65447W        W37762  19.697  13.550  13.420
65448W        W37763   8.894  28.134   4.192
65449W        W37764  18.568  22.651  14.264
65450W        W37765  44.928  25.234   3.712
65451W        W37766  38.976  42.040  11.898
65452W        W37767  36.347  29.222  11.190
65453W        W37768   1.928   6.408  14.481
65454W        W37769  31.390  38.452  10.760
65455W        W37770  20.097  17.580   3.160
65456W        W37771  31.692  17.317   3.333
65457W        W37772  11.202  38.966  14.340
65458W        W37773  43.410  35.325  13.789
65459W        W37774  31.817  19.001   5.144
65460W        W37775  32.589  41.906   4.653
65461W        W37776  38.470   1.957   0.180
65462W        W37777  16.661   3.818  13.605
65463W        W37778   4.421   5.468   2.259
65464W        W37779   3.048  12.561  10.849
65465W        W37780  44.458  42.549  13.422
65466W        W37781   2.324  25.103   2.810
65467W        W37782  28.237  32.042  14.919
65468W        W37783  30.984  35.264  12.282
65469W        W37784  36.494  37.694   3.683
65470W        W37785  17.130  36.524   4.348
65471W        W37786  18.630  11.652   1.267
65472W        W37787  16.002  23.097   1.826
65473W        W37788  40.257  22.756   1.904
65474W        W37789  30.412  33.841  14.287
65475W        W37790  21.466  41.504  14.802
65476W        W37791  20.682  39.093  14.916
65477W        W37792  18.349   4.876  12.021
65478W        W37793  25.252  10.893   0.350
65479W        W37794   4.929  19.343  12.883
65480W        W37795   1.255  18.007  12.570
65481W        W37796  36.784  32.079  14.342
65482W        W37797  27.759  37.847   3.825
65483W        W37798  22.537  15.622  13.462
65484W        W37799   2.154  20.108   2.703
65485W        W37800  38.500  12.222   1.403
65486W        W37801  16.692  41.445   2.623
65487W        W37802  18.047  11.745   4.171
65488W        W37803  20.990  23.761   3.285
65489W        W37804  44.370   1.011  13.483
65490W        W37805  18.068  39.500   4.283
65491W        W37806  40.323  32.466   0.929
65492W        W37807  18.908  43.335   3.262
65493W        W37808   7.351   2.253  12.660
65494W        W37809  20.192  33.936  12.592
65495W        W37810  36.669  29.553  10.990
65496W        W37811  28.613  23.201   1.673
65497W        W37812  36.598  37.244  13.914
65498W        W37813  39.148  28.947   2.436
65499W        W37814  10.076  10.126  11.813
65500W        W37815  39.538  37.968   4.407
65501W        W37816  21.534  36.621  13.438
65502W        W37817  33.982  30.588   0.405
65503W        W37818  33.536  34.934   2.224
65504W        W37819  44.973  41.921  12.515
65505W        W37820  28.275  31.905   0.437
65506W        W37821  28.864  41.221   4.854
65507W        W37822   3.245  38.863  10.695
65508W        W37823  34.829  32.149  11.191
65509W        W37824  21.222  42.649   2.420
65510W        W37825  39.485   4.529  13.654
65511W        W37826  27.066  33.862   3.261
65512W        W37827   5.320  37.263   1.175
65513W        W37828   6.270  34.571  11.558
65514W        W37829  34.079  29.839  12.205
65515W        W37830   8.769  10.901  14.433
65516W        W37831  27.620   4.941  10.698
65517W        W37832   5.855  41.393   1.691
65518W        W37833  17.302  28.652   1.912
65519W        W37834   7.770   2.525   0.941
65520W        W37835  34.758  10.626  14.893
65521W        W37836  14.514   6.933  11.393
65522W        W37837  38.658   8.405  13.146
65523W        W37838  12.296  33.308  11.066
65524W        W37839  37.374  24.542  12.529
65525W        W37840  30.588  42.972   0.374
65526W        W37841  25.209  39.899  10.714
65527W        W37842  21.200  43.324  10.447
65528W        W37843  18.024  29.137   1.451
65529W        W37844  42.112  37.488   0.271
65530W        W37845  29.073   7.785   5.127
65531W        W37846   5.034  15.125   1.331
65532W        W37847  12.297   8.664   1.217
65533W        W37848  37.636  36.096   3.174
65534W        W37849   6.176  26.480  10.721
65535W        W37850  14.285  39.366   3.669
65536W        W37851  20.063  10.576   2.320
65537W        W37852  44.823   7.564  13.664
65538W        W37853  23.313   0.203   3.333
65539W        W37854  42.796  15.015   2.154
65540W        W37855  27.211  22.256   3.165
65541W        W37856   6.350  15.606  10.317
65542W        W37857  20.583  41.079   2.780
65543W        W37858  37.798  19.112  12.375
65544W        W37859  34.853  16.512  12.431
65545W        W37860   8.569  37.956  13.538
65546W        W37861  43.134   9.080  11.149
65547W        W37862  34.587  26.973  10.663
65548W        W37863  35.468  43.934   1.756
65549W        W37864  26.735  14.068  14.385
65550W        W37865  21.682  22.741  11.105
65551W        W37866   3.451  35.198   3.803
65552W        W37867   1.143  17.320  10.756
65553W        W37868  16.231  25.955   1.734
65554W        W37869  23.650  10.371  14.317
65555W        W37870  41.925   3.239  10.771
65556W        W37871  16.273  14.921  13.922
65557W        W37872  11.705  43.957   1.242
65558W        W37873   5.926  33.072   2.299
65559W        W37874  39.342  11.592   4.339
65560W        W37875   6.459   9.895  12.900
65561W        W37876  37.311  36.778  12.537
65562W        W37877  11.431  35.847  12.592
65563W        W37878  10.333  15.005  13.276
65564W        W37879  40.382  18.514   4.092
65565W        W37880  11.548  18.419   1.219
65566W        W37881  10.805  40.455   2.443
65567W        W37882   7.500  28.196   3.751
65568W        W37883   3.785  44.353  13.344
65569W        W37884  21.176  23.109   3.622
65570W        W37885  15.304  15.074   0.782
65571W        W37886  10.893  44.775  10.528
65572W        W37887  22.042  31.932   0.840
65573W        W37888  18.328   2.351  13.398
65574W        W37889  35.924  12.720   1.960
65575W        W37890   9.973  14.358  13.080
65576W        W37891   6.212  23.472   3.714
65577W        W37892  41.303  44.215   4.974
65578W        W37893   9.797  30.797  11.746
65579W        W37894  43.989  14.136   5.087
65580W        W37895   4.750  21.028  11.000
65581W        W37896  34.847  16.193   2.243
65582W        W37897  17.371  30.535   3.496
65583W        W37898  23.009  24.059  14.750
65584W        W37899   8.180  28.691  14.817
65585W        W37900  29.240  20.365  14.435
65586W        W37901  38.967  39.780  10.705
65587W        W37902  19.557  16.492   0.443
65588W        W37903   4.734   9.932   1.841
65589W        W37904  11.666  38.779  12.784
65590W        W37905  10.796   2.067   0.713
65591W        W37906  33.684   6.158   5.076
65592W        W37907  13.608  39.210  13.347
65593W        W37908  11.377   7.597   1.394
65594W        W37909  42.476  17.172   4.571
65595W        W37910  44.027  37.383   4.114
65596W        W37911  34.916  38.277  12.441
65597W        W37912  34.154  44.523  11.907
65598W        W37913   6.481  31.512   0.619
65599W        W37914  34.879  40.417  12.660
65600W        W37915  17.287  13.589  12.460
65601W        W37916  26.527  43.448   2.310
65602W        W37917  10.866  34.558   4.351
65603W        W37918  40.249  33.351   1.074
65604W        W37919  36.762   0.344  14.538
65605W        W37920  38.891  32.472  10.920
65606W        W37921   7.248  33.864   1.816
65607W        W37922  10.269  38.605  12.463
65608W        W37923  24.603  35.161   2.110
65609W        W37924  42.505  25.614   1.635
65610W        W37925  36.037  17.284  12.659
65611W        W37926  29.817  12.663  13.382
65612W        W37927  14.306  23.036  12.011
65613W        W37928  26.459   7.359   3.259
65614W        W37929  31.404  32.925  14.918
65615W        W37930  41.456   1.768  11.689
65616W        W37931   6.145  34.836  11.125
65617W        W37932   7.133  39.272  14.471
65618W        W37933  29.637  39.822  12.822
65619W        W37934  33.073  36.143  13.399
65620W        W37935  27.708  17.207   1.353
65621W        W37936  44.481  35.559   0.874
65622W        W37937  17.689   5.486  14.712
65623W        W37938  24.612  20.192   3.974
65624W        W37939  26.606  33.684   1.837
65625W        W37940   0.356  25.682  11.100
65626W        W37941  43.693   3.502  13.948
65627W        W37942   6.348  39.617   1.070
65628W        W37943  24.244  11.493  12.185
65629W        W37944  26.901  31.971   3.181
65630W        W37945  36.972  24.413   2.224
65631W        W37946  12.238   2.832  10.299
65632W        W37947  30.571  32.616   4.919
65633W        W37948  28.586  36.565  11.606
65634W        W37949  18.239  17.814   2.619
65635W        W37950  14.849   1.173  11.008
65636W        W37951  24.712  17.888  13.987
65637W        W37952  12.181  14.814   1.225
65638W        W37953  28.130  41.928   0.991
65639W        W37954  14.717  30.893  11.579
65640W        W37955   3.811   7.388  11.940
65641W        W37956  44.997   6.536  13.390
65642W        W37957  26.994  15.411   2.775
65643W        W37958  32.031   5.732   3.651
65644W        W37959  20.636   7.865  12.442
65645W        W37960  34.214  36.531   3.280
65646W        W37961  39.566  20.077   0.781
65647W        W37962  24.211  42.854  14.868
65648W        W37963  43.819  37.395   2.313
65649W        W37964   5.764  14.229   4.647
65650W        W37965  19.979   1.950   1.700
65651W        W37966  11.876  43.315  10.944
65652W        W37967  27.051  23.215   2.388
65653W        W37968  42.980  30.146   2.181
65654W        W37969  19.285   9.568  10.162
65655W        W37970  11.811  28.989   1.309
65656W        W37971  40.382   7.124   0.762
65657W        W37972   2.783  36.430   1.180
65658W        W37973  13.766  15.796   4.121
65659W        W37974  39.836   5.264  14.720
65660W        W37975  23.502  34.192  14.692
65661W        W37976  39.358  34.921   4.892
65662W        W37977  13.303  37.555  11.601
65663W        W37978  44.994   1.160   0.505
65664W        W37979  29.184  12.823  12.375
65665W        W37980  41.062   9.628  10.994
65666W        W37981  26.226   4.680  11.987
65667W        W37982  28.086  26.165  13.564
65668W        W37983  21.736  40.396  10.886
65669W        W37984   9.358  17.170  10.278
65670W        W37985   7.438  20.758  14.298
65671W        W37986  39.892  26.626   0.212
65672W        W37987  24.593  11.382  14.952
65673W        W37988  36.949  20.652   1.718
65674W        W37989   7.288  28.707   0.333
65675W        W37990  44.771  36.235   0.205
65676W        W37991   1.465  11.852   4.124
65677W        W37992  11.834  32.334  11.959
65678W        W37993  44.427  22.298  11.643
65679W        W37994  10.050   0.884  12.873
65680W        W37995  39.072  22.799  13.471
65681W        W37996   4.288  31.934   1.801
65682W        W37997  23.480  44.805   2.381
65683W        W37998  27.096  32.469   0.490
65684W        W37999  39.797   7.167  13.448
65685W        W38000  14.339  29.036   0.009
65686W        W38001  16.126  32.990   4.569
65687W        W38002  15.326  34.025   0.869
65688W        W38003  30.359  12.248   0.741
65689W        W38004   2.739  19.590   0.404
65690W        W38005  16.716  42.112  14.213
65691W        W38006  17.501  36.133   1.249
65692W        W38007   4.937  17.547   1.428
65693W        W38008  29.543  32.087  11.076
65694W        W38009   4.920  35.378  14.725
65695W        W38010  37.463  10.102   4.366
65696W        W38011  35.150  37.502   4.056
65697W        W38012  38.888  34.357  14.824
65698W        W38013  43.576   1.542  13.089
65699W        W38014   6.301  30.392  14.277
65700W        W38015  41.534  37.761  11.380
65701W        W38016  11.213   5.762   2.218
65702W        W38017  30.480  41.765  10.697
65703W        W38018  33.051  28.501  14.501
65704W        W38019  45.000  44.961  14.002
65705W        W38020  20.011  42.474   1.878
65706W        W38021  14.036  34.869   3.618
65707W        W38022  41.812   4.896   2.818
65708W        W38023   7.641  33.511   4.626
65709W        W38024  17.117  37.051   4.319
65710W        W38025  20.852   0.802  14.848
65711W        W38026   4.138  15.184   2.277
65712W        W38027  36.781  10.582  13.341
65713W        W38028  14.309   6.315   0.782
65714W        W38029  14.096  27.886  12.415
65715W        W38030  15.664   0.555   3.291
65716W        W38031  31.473  36.357   4.543
65717W        W38032  24.081  11.248   2.705
65718W        W38033  19.275  40.910  13.375
65719W        W38034  22.733   1.728   3.767
65720W        W38035  34.023  35.364   0.542
65721W        W38036  22.120  37.910   3.574
65722W        W38037   1.264  27.973   3.103
65723W        W38038  17.993  44.965  14.475
65724W        W38039  31.616  21.462  14.397
65725W        W38040  11.115   2.374  10.619
65726W        W38041   7.193  41.653  14.516
65727W        W38042  29.875  44.311   1.806
65728W        W38043  31.004  12.724   2.560
65729W        W38044   4.031   3.405  12.453
65730W        W38045  43.347   0.695  11.309
65731W        W38046   8.352  24.198  10.973
65732W        W38047  41.104  39.768   3.038
65733W        W38048   7.418  36.476  13.533
65734W        W38049   7.856   8.123  14.060
65735W        W38050  22.611  14.787  11.055
65736W        W38051  25.985   6.626  11.976
65737W        W38052   4.721   2.998  14.286
65738W        W38053  24.718   5.996   3.300
65739W        W38054  32.866  43.424  12.072
65740W        W38055  41.069  11.170  11.790
65741W        W38056  11.114  44.993  12.450
65742W        W38057  43.850  16.694   1.169
65743W        W38058  13.747  16.885  14.779
65744W        W38059  13.102  17.116   3.589
65745W        W38060  28.149  24.789  13.373
65746W        W38061  22.735  31.968   4.541
65747W        W38062  11.225   6.567   0.320
65748W        W38063  42.580  35.861  11.380
65749W        W38064   7.803  38.596   3.635
65750W        W38065  12.739   0.802  11.653
65751W        W38066   7.194  34.675  12.512
65752W        W38067  43.450   0.307  10.512
65753W        W38068  19.296  43.955   1.779
65754W        W38069  27.146  10.453   2.305
65755W        W38070  13.549  15.199  11.375
65756W        W38071  29.204   5.787  14.692
65757W        W38072  15.050  42.308  11.927
65758W        W38073  41.888   7.766   0.989
65759W        W38074  31.167  42.286   2.656
65760W        W38075   2.044   8.710  13.185
65761W        W38076  33.346  13.124   0.276
65762W        W38077  13.265  26.181   1.283
65763W        W38078  24.021  15.840  10.365
65764W        W38079   0.209  21.025  12.537
65765W        W38080  36.436  32.272   4.562
65766W        W38081  11.353  43.957  13.010
65767W        W38082  30.391  30.250   3.966
65768W        W38083  21.621  41.635  13.927
65769W        W38084  28.057   9.380   1.944
65770W        W38085  22.361  35.302  11.541
65771W        W38086   0.366  35.342  13.747
65772W        W38087  19.067   0.052   1.078
65773W        W38088   9.326  37.878   1.735
65774W        W38089  29.883  41.369   4.713
65775W        W38090   5.162   5.419  12.083
65776W        W38091  21.416  16.374   3.687
65777W        W38092  30.918  33.081   3.738
65778W        W38093  42.543  33.952   1.990
65779W        W38094  19.320  18.917  11.153
65780W        W38095  44.359  15.278   1.220
65781W        W38096  41.452  18.994  14.947
65782W        W38097  27.211  25.051  12.036
65783W        W38098   9.465  17.824   0.817
65784W        W38099  16.985  24.470   0.157
65785W        W38100  31.586  28.721   1.862
65786W        W38101  41.536  26.152   3.655
65787W        W38102  30.340   5.821  11.443
65788W        W38103  12.273  35.888  14.258
65789W        W38104  30.243   9.204  13.125
65790W        W38105   1.473  34.616   3.090
65791W        W38106   9.116  17.874  14.966
65792W        W38107  41.003  13.859  12.553
65793W        W38108  31.977   4.867   3.334
65794W        W38109  43.805   3.010  12.454
65795W        W38110  26.969  44.358   4.350
65796W        W38111  28.168   0.173   1.689
65797W        W38112  37.451  16.184  14.910
65798W        W38113  23.601  15.744   0.413
65799W        W38114  27.616  29.435  11.651
65800W        W38115  24.386   0.697  10.271
65801W        W38116   9.289  41.243  14.059
65802W        W38117   3.478  23.145  12.813
65803W        W38118  36.602  34.397  14.533
65804W        W38119  26.213  41.844  12.357
65805W        W38120  28.499  14.104  11.104
65806W        W38121  38.449  26.822  12.393
65807W        W38122  40.938  12.635  11.961
65808W        W38123  40.298  37.535  13.436
65809W        W38124  26.648  22.301   1.870
65810W        W38125   7.373  14.539  14.552
65811W        W38126  39.551  29.619   1.007
65812W        W38127  42.736  36.671   3.257
65813W        W38128  13.730  14.683   0.449
65814W        W38129  33.105   6.812   0.526
65815W        W38130  24.111  26.988  14.361
65816W        W38131  35.138  15.182   1.031
65817W        W38132  16.283  38.839  13.438
65818W        W38133  32.801  14.591  13.480
65819W        W38134  38.914  30.294   2.662
65820W        W38135  36.416  22.474   4.498
65821W        W38136  27.760  23.141   3.668
65822W        W38137  32.386  36.063  11.966
65823W        W38138   3.202  26.444  12.572
65824W        W38139  26.628  17.182  14.323
65825W        W38140  26.980   6.738   2.392
65826W        W38141  24.658  24.435  13.302
65827W        W38142   8.845  41.832   3.393
65828W        W38143  22.085  44.843   3.187
65829W        W38144  17.569   5.992  10.388
65830W        W38145  42.511  40.810   0.791
65831W        W38146  19.127  16.303  12.062
65832W        W38147   5.643   1.858  13.765
65833W        W38148  12.780   0.363   1.894
65834W        W38149  25.070  38.935  13.473
65835W        W38150  36.071  22.436   0.068
65836W        W38151  38.219  24.211  12.429
65837W        W38152  33.301  14.680  11.232
65838W        W38153  31.522  12.809  11.082
65839W        W38154  37.307  44.518   0.606
65840W        W38155  43.790  22.631  14.770
65841W        W38156  36.343  25.991  13.018
65842W        W38157   8.807   3.257  13.031
65843W        W38158   6.189   7.246   1.326
65844W        W38159  44.707  10.682   2.687
65845W        W38160   3.710  20.448   3.222
65846W        W38161  18.755  39.011  13.090
65847W        W38162  18.665  32.633   4.581
65848W        W38163  20.679  15.511   1.963
65849W        W38164  18.683  19.550  10.406
65850W        W38165  30.654  21.844  14.337
65851W        W38166   0.923  38.125   4.149
65852W        W38167  33.219  10.286   4.457
65853W        W38168  36.364   7.794   4.524
65854W        W38169  34.043  21.114  11.604
65855W        W38170   3.516  19.251  14.273
65856W        W38171   1.716  30.905  11.392
65857W        W38172  39.032  23.960  14.429
65858W        W38173   9.683  12.418  14.471
65859W        W38174   8.834   4.913   0.430
65860W        W38175  44.848   2.656   0.111
65861W        W38176  13.599  36.945  13.713
65862W        W38177  19.149  12.344  11.624
65863W        W38178  27.728  24.712  11.099
65864W        W38179  20.018  38.921   4.084
65865W        W38180  12.273  19.490  12.116
65866W        W38181  10.001   9.184   3.603
65867W        W38182   7.342  15.309   4.227
65868W        W38183  19.539  34.266  11.229
65869W        W38184  15.828   0.783   1.266
65870W        W38185  38.616  40.320   1.265
65871W        W38186   7.519  30.473  10.300
65872W        W38187  41.545  41.705  14.282
65873W        W38188  16.333   8.001  14.016
65874W        W38189   4.082  22.944  11.181
65875W        W38190  34.058  41.240   2.745
65876W        W38191  30.534  27.158   4.683
65877W        W38192  44.668   3.454  13.587
65878W        W38193  15.226  31.998  14.325
65879W        W38194  38.382  38.255   0.355
65880W        W38195  24.727  22.114   0.867
65881W        W38196  37.601  13.172   0.237
65882W        W38197  38.500  15.363   0.804
65883W        W38198  34.571  14.131   4.670
65884W        W38199  16.851  13.430  13.215
65885W        W38200  10.580  24.243   0.859
65886W        W38201  12.098   1.963   1.907
65887W        W38202  33.330  34.362  12.907
65888W        W38203  31.185  44.464  12.054
65889W        W38204  10.945  28.566   0.928
65890W        W38205  34.990   1.878  12.579
65891W        W38206  21.652  37.294   3.197
65892W        W38207  26.604  21.202  12.907
65893W        W38208   2.720  21.613   2.706
65894W        W38209  34.663   6.824  12.611
65895W        W38210   4.290  24.068  11.984
65896W        W38211  44.036  12.164   2.837
65897W        W38212  15.807   8.404   4.892
65898W        W38213   1.735  34.443  14.828
65899W        W38214  28.411  21.808   1.901
65900W        W38215  22.710  33.970  12.396
65901W        W38216  41.362  18.998   2.826
65902W        W38217  14.461  14.550   2.192
65903W        W38218  37.329  34.835   2.273
65904W        W38219  15.207  12.073  12.215
65905W        W38220  19.775   0.387   3.461
65906W        W38221   8.903  43.732   9.909
65907W        W38222  33.310   4.725   2.273
65908W        W38223  29.661  30.510  11.222
65909W        W38224   9.695   6.485   2.780
65910W        W38225  44.347   8.650   0.189
65911W        W38226   4.425   6.810  10.532
65912W        W38227  43.555  42.265  11.526
65913W        W38228   3.746  24.271   1.372
65914W        W38229   5.705  18.731   3.543
65915W        W38230   1.975   5.878   4.545
65916W        W38231  30.661   4.486   0.372
65917W        W38232   5.768   0.355   3.269
65918W        W38233  11.988  28.273   3.320
65919W        W38234  25.328   2.678  14.911
65920W        W38235  38.406  12.342  14.190
65921W        W38236  44.802  28.999   2.622
65922W        W38237  16.125   0.862   0.861
65923W        W38238  31.726   0.182  12.397
65924W        W38239  29.910  30.235  13.708
65925W        W38240  21.156  12.912   4.137
65926W        W38241   6.137  21.740   3.010
65927W        W38242  16.233  13.775  11.524
65928W        W38243  27.935  39.938  14.742
65929W        W38244  30.019  16.286  12.562
65930W        W38245   7.747   2.915   0.003
65931W        W38246  27.242  13.566  10.904
65932W        W38247  14.578  34.463  10.914
65933W        W38248   1.780  36.516   2.295
65934W        W38249   1.693  21.270  11.131
65935W        W38250  38.477  44.141   3.231
65936W        W38251  28.049   3.383   1.662
65937W        W38252  28.862  43.009  11.570
65938W        W38253  13.539  40.268   2.714
65939W        W38254   5.841  34.365   0.278
65940W        W38255   5.591   9.622  11.291
65941W        W38256  15.131   0.465   2.695
65942W        W38257   6.167  39.569   1.862
65943W        W38258  11.602  14.078   1.596
65944W        W38259  41.717  11.243   1.351
65945W        W38260   5.877  18.354   3.860
65946W        W38261  15.010  42.491   1.761
65947W        W38262  15.122  41.026  11.454
65948W        W38263  15.130   8.134  13.997
65949W        W38264  11.373  15.580  11.525
65950W        W38265  17.689  12.296   0.821
65951W        W38266  40.770  20.468  13.932
65952W        W38267   8.926  34.479   0.767
65953W        W38268  30.101  15.326  10.367
65954W        W38269  21.101   7.956   1.826
65955W        W38270  17.604  43.469   1.174
65956W        W38271   9.090  28.278  12.571
65957W        W38272  30.444  10.188  12.086
65958W        W38273  36.851  37.679   5.153
65959W        W38274  28.958  11.388  10.593
65960W        W38275  43.478  14.757   0.473
65961W        W38276  42.873   3.632  12.017
65962W        W38277   0.819   4.793  11.057
65963W        W38278  14.211  34.660   4.624
65964W        W38279  40.682  39.916  13.565
65965W        W38280   7.661  27.156   2.340
65966W        W38281  25.672  20.475   5.071
65967W        W38282  18.797  16.647   1.364
65968W        W38283   5.920  21.662  10.577
65969W        W38284  35.844  32.684   0.608
65970W        W38285  24.079  21.325   5.344
65971W        W38286  29.095   3.644  12.987
65972W        W38287  16.238  21.204  13.812
65973W        W38288  15.666   9.371  12.933
65974W        W38289   7.199  30.631  14.932
65975W        W38290  35.028  10.906   3.718
65976W        W38291  17.753  33.060   1.139
65977W        W38292   4.724  17.779  14.444
65978W        W38293  29.557  17.236   0.517
65979W        W38294   3.274   3.758  11.724
65980W        W38295  33.236  11.642  12.439
65981W        W38296  36.841   5.679  14.943
65982W        W38297  39.879  31.660   4.516
65983W        W38298  28.398  18.192   4.236
65984W        W38299  10.075  41.861  12.154
65985W        W38300  10.873  30.567   3.877
65986W        W38301   1.360  27.159  14.269
65987W        W38302  10.321   8.732  12.187
65988W        W38303  31.458  24.449   4.148
65989W        W38304  26.189  15.651  11.159
65990W        W38305  28.622  12.369   3.202
65991W        W38306  14.166  23.600  13.994
65992W        W38307  22.734  29.410   1.698
65993W        W38308   3.962  37.899   1.242
65994W        W38309  40.111  11.162   2.773
65995W        W38310  30.586  28.942  10.876
65996W        W38311  28.017  28.207   4.712
65997W        W38312  22.093   1.743   3.818
65998W        W38313  34.217   5.908  11.092
65999W        W38314  38.305  23.700   1.226
66000W        W38315  15.842  15.413   3.270
66001W        W38316  22.743  16.814   0.748
66002W        W38317  15.772   4.422  10.793
66003W        W38318  28.602   8.292  11.389
66004W        W38319  21.194  16.520   3.179
66005W        W38320  34.707  42.566   0.225
66006W        W38321  11.341   4.883  14.041
66007W        W38322  12.398  44.764   2.291
66008W        W38323   3.993  42.912  10.660
66009W        W38324  12.304  18.094  10.192
66010W        W38325  31.612  28.087   0.971
66011W        W38326  21.212  19.982  11.431
66012W        W38327   1.758  19.188   2.756
66013W        W38328  13.686  36.984   2.727
66014W        W38329  43.386  36.145  14.798
66015W        W38330  42.361   3.421   3.737
66016W        W38331   4.786   8.865  11.930
66017W        W38332   9.760  14.138   3.313
66018W        W38333  32.461  20.746   4.038
66019W        W38334  25.545  18.092   3.683
66020W        W38335  40.303  40.905   4.882
66021W        W38336   1.195  10.250  11.142
66022W        W38337  26.772  19.120   1.770
66023W        W38338   9.761  18.971   4.650
66024W        W38339  39.124  37.633   4.851
66025W        W38340  21.603  23.577  14.060
66026W        W38341  37.840  13.479  14.879
66027W        W38342   7.787  12.060  10.751
66028W        W38343  26.985  22.519   4.330
66029W        W38344   7.914  38.585  13.307
66030W        W38345   3.893  41.563  12.434
66031W        W38346  10.448  32.988   0.767
66032W        W38347   6.385  32.836   4.084
66033W        W38348  10.412  18.983  11.083
66034W        W38349  30.730  22.947   0.918
66035W        W38350   7.534  24.284   1.746
66036W        W38351  14.898   0.876   2.885
66037W        W38352  39.370  21.265  14.939
66038W        W38353  25.014   3.584   3.291
66039W        W38354  11.457  15.662  10.540
66040W        W38355  39.054  38.415  11.108
66041W        W38356  31.411   8.695   3.389
66042W        W38357   9.838  34.644  13.966
66043W        W38358  20.204  18.342  14.440
66044W        W38359  33.552  36.414  12.270
66045W        W38360  13.326   0.340   4.152
66046W        W38361  36.942   4.909  13.164
66047W        W38362  43.202  44.830   0.245
66048W        W38363  38.663   1.751   4.167
66049W        W38364  32.555  16.042   4.587
66050W        W38365  27.598  41.036  13.043
66051W        W38366   8.791  33.641   1.180
66052W        W38367  19.336  31.526  10.477
66053W        W38368  18.048  17.114   1.220
66054W        W38369  20.195  29.739  13.072
66055W        W38370  37.612  25.925   1.224
66056W        W38371  38.327   4.961   1.113
66057W        W38372  17.772  38.895  10.962
66058W        W38373  42.328  44.355   4.129
66059W        W38374  43.776  42.314   3.015
66060W        W38375  24.970  41.156  12.909
66061W        W38376  36.394  26.599   2.241
66062W        W38377  28.633  23.699  11.956
66063W        W38378  41.025   2.912  11.040
66064W        W38379   5.723  34.633   3.728
66065W        W38380  27.028   6.686   4.753
66066W        W38381  20.176   3.251  13.564
66067W        W38382  12.384  31.544  11.652
66068W        W38383   1.917  32.403   1.347
66069W        W38384  32.124  26.563   0.114
66070W        W38385  35.964  11.959   3.833
66071W        W38386   8.373  25.065  13.463
66072W        W38387   9.800   3.315  11.597
66073W        W38388  19.073  24.550  10.879
66074W        W38389   6.752   7.380   4.104
66075W        W38390  16.102  10.697   3.866
66076W        W38391   6.866  19.617   2.138
66077W        W38392   6.683  40.876   3.156
66078W        W38393  27.987  13.205  14.889
66079W        W38394  27.614  24.917   1.992
66080W        W38395  12.764  41.842   3.209
66081W        W38396  27.997  10.186  11.718
66082W        W38397   4.160   5.082  12.037
66083W        W38398  29.038  16.226  14.941
66084W        W38399  41.308  28.498   3.549
66085W        W38400  33.342  26.667   5.216
66086W        W38401   5.832  10.223  13.477
66087W        W38402  25.460  44.735  13.856
66088W        W38403  10.169  27.115  13.124
66089W        W38404   4.353  10.721  12.014
66090W        W38405  40.451  13.386  13.386
66091W        W38406  12.254  42.405   1.150
66092W        W38407  17.287  19.294  13.490
66093W        W38408  33.954  10.465  14.811
66094W        W38409  29.944  19.492   3.518
66095W        W38410  16.413  43.963  13.779
66096W        W38411  21.830  15.786  14.995
66097W        W38412  27.027  38.436  12.808
66098W        W38413  10.664  10.768  14.956
66099W        W38414  36.080  32.853   4.142
66100W        W38415   6.157  11.796   3.737
66101W        W38416  24.473  26.320   0.882
66102W        W38417  24.264  26.045  14.802
66103W        W38418   9.235   0.455   4.063
66104W        W38419   0.374  25.632  14.791
66105W        W38420   6.442  11.694   0.769
66106W        W38421  24.688  21.381   0.466
66107W        W38422   4.216  27.561  11.530
66108W        W38423  22.014  25.760  13.405
66109W        W38424  22.438  25.636  13.816
66110W        W38425  35.609  30.684   1.357
66111W        W38426  36.041  13.262  10.538
66112W        W38427   0.404   4.303  14.344
66113W        W38428  32.068  32.308   4.686
66114W        W38429  14.079  17.660  11.820
66115W        W38430  27.735  17.657  12.379
66116W        W38431  20.001  22.271  12.812
66117W        W38432   2.436  25.236  13.389
66118W        W38433  17.159  21.331  13.371
66119W        W38434  17.541  38.797  13.870
66120W        W38435   9.114  42.450   4.543
66121W        W38436   9.967  12.534  13.956
66122W        W38437   0.281   8.727  10.614
66123W        W38438  42.166   1.373  13.140
66124W        W38439  14.668  43.379   0.279
66125W        W38440  32.909  38.387  11.529
66126W        W38441  23.517  28.579   2.463
66127W        W38442  38.030  18.684  14.033
66128W        W38443   4.127  44.903   2.010
66129W        W38444  24.497  34.296   3.652
66130W        W38445   1.009  15.310   3.578
66131W        W38446  15.729  16.729  13.266
66132W        W38447  26.576  13.864   4.573
66133W        W38448  36.608  33.212  11.887
66134W        W38449  24.489  43.978   0.755
66135W        W38450  12.879  43.238   3.830
66136W        W38451  43.369  10.693  10.775
66137W        W38452  42.853  14.103  10.509
66138W        W38453  40.504  13.844   1.594
66139W        W38454  14.168  28.425   0.847
66140W        W38455  28.536  40.724  14.872
66141W        W38456  24.194  15.373  13.028
66142W        W38457  24.671  39.270   3.251
66143W        W38458  11.717   6.752  11.416
66144W        W38459  36.770   9.686  11.187
66145W        W38460   2.599   9.391  12.748
66146W        W38461  13.237  15.338  13.276
66147W        W38462  14.255  32.164  14.826
66148W        W38463   9.284  21.117  10.751
66149W        W38464  13.752  39.327   1.171
66150W        W38465  20.304   9.860  12.270
66151W        W38466   4.183  34.164  13.019
66152W        W38467   2.390  39.560  11.965
66153W        W38468   8.058  33.096  12.402
66154W        W38469  24.376  15.593  13.477
66155W        W38470  16.155  38.984   2.678
66156W        W38471  38.785  41.305  12.387
66157W        W38472  26.645  34.189   1.763
66158W        W38473   6.639  22.641  14.926
66159W        W38474  37.987   4.935  14.214
66160W        W38475  33.539  27.891  13.468
66161W        W38476  33.939   7.247   3.795
66162W        W38477  16.358  30.175  10.691
66163W        W38478  25.145  38.755   1.699
66164W        W38479  34.450  15.808   0.961
66165W        W38480   3.530  28.141  13.758
66166W        W38481  43.510  10.867  14.868
66167W        W38482  44.530  17.094  14.863
66168W        W38483  29.123  23.810   0.603
66169W        W38484  41.321  15.370  10.461
66170W        W38485  29.691   5.984   2.164
66171W        W38486  34.889   0.468  11.520
66172W        W38487   2.706  40.950   0.926
66173W        W38488  43.958  41.441  11.201
66174W        W38489  10.634   5.444   4.586
66175W        W38490  36.879  39.770  12.392
66176W        W38491   8.986   2.764   0.429
66177W        W38492  37.417  28.979   1.748
66178W        W38493  29.349  30.937   0.009
66179W        W38494  39.384  42.473   3.940
66180W        W38495   8.420  35.125  12.487
66181W        W38496  18.260  13.803  14.302
66182W        W38497  41.976  14.725  10.783
66183W        W38498  12.083  28.533  14.890
66184W        W38499  17.235  37.686  12.087
66185W        W38500  40.890  17.222   2.216
66186W        W38501  37.243  32.127  11.202
66187W        W38502  15.139   4.987   0.798
66188W        W38503  32.964  43.925  11.308
66189W        W38504   7.165   5.853   0.883
66190W        W38505  19.440   8.552  12.555
66191W        W38506  20.952  14.764   0.355
66192W        W38507  30.602  18.866  12.526
66193W        W38508  21.175  22.725   1.939
66194W        W38509   0.090  32.385  11.182
66195W        W38510  35.372  34.648  12.431
66196W        W38511  25.585  35.626   0.348
66197W        W38512  19.858   4.402  13.403
66198W        W38513   8.520  13.485  13.952
66199W        W38514  15.915  20.814   4.190
66200W        W38515  43.403  20.243   3.808
66201W        W38516  33.829  39.443  14.963
66202W        W38517   2.998  29.758   2.723
66203W        W38518  30.044  33.613  13.367
66204W        W38519  38.617  33.480   1.379
66205W        W38520  19.929  20.361  11.407
66206W        W38521  39.257  42.054   2.121
66207W        W38522  41.544  10.935   3.990
66208W        W38523  40.915  40.801  12.089
66209W        W38524  25.731  33.874   1.911
66210W        W38525  41.326  32.350   3.190
66211W        W38526  22.748  34.120   1.283
66212W        W38527  40.311  33.067  12.020
66213W        W38528  21.148  33.709  11.164
66214W        W38529  26.060  21.601   0.360
66215W        W38530   8.323   8.360  13.927
66216W        W38531  41.356  30.820   2.247
66217W        W38532  39.486  14.259  13.048
66218W        W38533  41.990  24.085  12.597
66219W        W38534  13.812   0.966   3.736
66220W        W38535  17.167  15.004  10.552
66221W        W38536  29.328  23.507  11.470
66222W        W38537  38.312  17.565   2.938
66223W        W38538  35.466  38.760   0.243
66224W        W38539  37.486  16.705  14.012
66225W        W38540  21.560  32.519  13.138
66226W        W38541  35.026  35.383   3.098
66227W        W38542  13.005  17.028  11.976
66228W        W38543  32.951  29.942  12.845
66229W        W38544  36.005  20.353   3.730
66230W        W38545   4.080  15.625  10.308
66231W        W38546  18.799  35.835   4.135
66232W        W38547  14.369  26.451  12.562
66233W        W38548  32.661  22.874   0.857
66234W        W38549   0.564  16.983   1.698
66235W        W38550  10.709  43.831   1.412
66236W        W38551  22.068   1.810   4.850
66237W        W38552  32.655  35.016   1.797
66238W        W38553  44.950  27.096   3.608
66239W        W38554  16.229  34.490   2.584
66240W        W38555  32.000  22.751   2.180
66241W        W38556   7.251  39.765   3.037
66242W        W38557  31.685  16.664   2.742
66243W        W38558   3.811  25.537   2.019
66244W        W38559  10.447  15.985  11.503
66245W        W38560  22.103  32.706  13.970
66246W        W38561  13.644   5.348  10.692
66247W        W38562   7.738  13.957  11.131
66248W        W38563  27.490   6.261  12.844
66249W        W38564   6.610  40.096  10.977
66250W        W38565   8.655   7.941  12.609
66251W        W38566  29.243  36.258   2.801
66252W        W38567  39.220  39.457  12.455
66253W        W38568  20.205  13.815  14.448
66254W        W38569  38.550  23.520  13.738
66255W        W38570  32.706  29.150   3.709
66256W        W38571  31.131  27.403   0.670
66257W        W38572  37.792  38.318   2.262
66258W        W38573  27.617  17.380   2.696
66259W        W38574  14.252  27.924  11.390
66260W        W38575  18.176  16.283   3.603
66261W        W38576   6.513   1.852   2.303
66262W        W38577  27.646  44.249  10.336
66263W        W38578  11.128  41.463   2.269
66264W        W38579  21.731  19.106   0.338
66265W        W38580  28.425  21.073   0.310
66266W        W38581  19.069  42.845   1.169
66267W        W38582  35.820  40.005   2.476
66268W        W38583   1.503  18.195   4.133
66269W        W38584  27.773  31.811  13.878
66270W        W38585  39.169  15.765   1.514
66271W        W38586  44.930  27.646  10.629
66272W        W38587  18.510  18.836   4.135
66273W        W38588   8.183  28.014  11.737
66274W        W38589   5.536   5.217   2.296
66275W        W38590  40.753  32.204   4.069
66276W        W38591  31.108  18.143  11.573
66277W        W38592   8.365   4.399   3.828
66278W        W38593   3.817   6.994   4.350
66279W        W38594  13.319   5.666  13.947
66280W        W38595  34.158   1.315  14.461
66281W        W38596  17.306   6.369  10.653
66282W        W38597  26.441  15.284  13.910
66283W        W38598  43.494  33.937  12.958
66284W        W38599  11.128  25.685   4.738
66285W        W38600   7.676  18.098  11.110
66286W        W38601  34.117   4.807   4.478
66287W        W38602  28.144   3.920  10.219
66288W        W38603  40.983  42.471   1.481
66289W        W38604  41.421  20.381   1.411
66290W        W38605  11.732   6.727   3.666
66291W        W38606   5.346  43.468  12.815
66292W        W38607  18.544   6.552  11.968
66293W        W38608  32.945   3.737   3.163
66294W        W38609  12.615  10.121   4.089
66295W        W38610   8.721  43.787  11.913
66296W        W38611   8.376   3.886   4.063
66297W        W38612   8.358   1.593  12.380
66298W        W38613  18.654  44.589  10.656
66299W        W38614  24.087  19.971  11.086
66300W        W38615  42.804  38.076   1.411
66301W        W38616   2.367  29.693   0.305
66302W        W38617  20.478   1.957   0.765
66303W        W38618   2.541  33.672   5.132
66304W        W38619   6.332  30.086   1.283
66305W        W38620  28.518  19.636  10.962
66306W        W38621  12.347  27.981  10.468
66307W        W38622  29.501  22.651  14.302
66308W        W38623  25.648   4.735   9.816
66309W        W38624  11.990  29.026  13.244
66310W        W38625  26.976   9.428   3.233
66311W        W38626  19.520  27.069   1.391
66312W        W38627  37.106  15.749   3.685
66313W        W38628  14.634  42.079   1.871
66314W        W38629   7.276   1.977   3.203
66315W        W38630  40.948  20.582   3.621
66316W        W38631  25.607  18.032  13.930
66317W        W38632  22.747  21.260   3.371
66318W        W38633  43.689  12.253   1.321
66319W        W38634  39.470  12.276  13.612
66320W        W38635  11.306   5.248   2.246
66321W        W38636  43.844  18.916   1.428
66322W        W38637  12.557  30.931   3.350
66323W        W38638   2.468  42.838  10.239
66324W        W38639  33.770  10.785   1.895
66325W        W38640  15.133  23.719  12.999
66326W        W38641  24.306   6.092  10.112
66327W        W38642  30.633  43.458   3.331
66328W        W38643  10.021  19.312  10.719
66329W        W38644  22.002  33.875  11.171
66330W        W38645  11.206  37.657  13.778
66331W        W38646  14.414   3.311  13.087
66332W        W38647  17.632   9.713   2.293
66333W        W38648  19.135  41.833   2.842
66334W        W38649  14.093  38.078  10.308
66335W        W38650  39.971  12.532  12.090
66336W        W38651   4.765  44.786   0.417
66337W        W38652   1.786  12.212   2.458
66338W        W38653  42.529  41.938   2.942
66339W        W38654  18.342  22.961  11.544
66340W        W38655  27.409  14.614  12.432
66341W        W38656   2.260  42.053  12.088
66342W        W38657  11.600  10.289   3.276
66343W        W38658  39.350  29.163  14.711
66344W        W38659  30.091  41.452   0.429
66345W        W38660   0.980  18.169   4.090
66346W        W38661  15.403  43.023   3.978
66347W        W38662   8.334   3.691   2.092
66348W        W38663  18.178   5.363   1.482
66349W        W38664   4.627  15.260  11.920
66350W        W38665   6.130  21.932  14.242
66351W        W38666  37.302  31.568   1.809
66352W        W38667  22.692  16.912   3.171
66353W        W38668  41.499  41.417   3.751
66354W        W38669  21.197  38.260  12.839
66355W        W38670   7.678  21.074  10.150
66356W        W38671  31.930  22.855   0.221
66357W        W38672   0.076  35.926  11.050
66358W        W38673   3.186   5.424   1.798
66359W        W38674  13.628  13.649   3.179
66360W        W38675  20.167  10.787   1.858
66361W        W38676  28.232  37.992   1.849
66362W        W38677  40.365   6.626  11.168
66363W        W38678   2.333  14.275   9.907
66364W        W38679  10.427  34.860  14.439
66365W        W38680  33.589  25.966  12.160
66366W        W38681   5.002  34.653   5.026
66367W        W38682  32.127   9.226   5.278
66368W        W38683  27.105  28.884  11.077
66369W        W38684  38.271  12.790  14.758
66370W        W38685  15.603   9.505   0.288
66371W        W38686  30.484  12.039   2.873
66372W        W38687   5.511  32.050   1.258
66373W        W38688  13.511  24.498  11.709
66374W        W38689   4.734  19.534   4.805
66375W        W38690  16.730  32.574   0.480
66376W        W38691   7.274  28.345   0.690
66377W        W38692   0.330  25.011  13.466
66378W        W38693  37.851  27.011   3.592
66379W        W38694  42.895  33.997  11.470
66380W        W38695  34.410  31.637   3.731
66381W        W38696  35.937  42.681   1.165
66382W        W38697  44.338  39.411   4.684
66383W        W38698  41.308  37.662   4.777
66384W        W38699  31.719  35.998  14.376
66385W        W38700  27.121  24.536  12.947
66386W        W38701  37.940  16.841   2.727
66387W        W38702  31.331  10.763  12.663
66388W        W38703  32.630  44.907  11.185
66389W        W38704   4.794  11.083  13.986
66390W        W38705  43.520   6.290   1.786
66391W        W38706  11.772  33.687   3.682
66392W        W38707  40.804  36.634   2.704
66393W        W38708  28.001  16.890   0.770
66394W        W38709   2.210  11.510   0.896
66395W        W38710  36.582  23.668   4.152
66396W        W38711  21.992  33.571   4.513
66397W        W38712   8.919   4.367  12.025
66398W        W38713  19.125   3.771  12.448
66399W        W38714  21.204  28.021  11.087
66400W        W38715  43.069  41.028   1.645
66401W        W38716  16.735   1.725   0.263
66402W        W38717  17.551  23.580   0.722
66403W        W38718   8.122  38.573  12.767
66404W        W38719   9.418   5.659   3.612
66405W        W38720   7.768  39.999  11.688
66406W        W38721  35.339  36.943  10.708
66407W        W38722  31.069  24.761   2.198
66408W        W38723  36.124  27.170   0.460
66409W        W38724  32.601  21.106   4.666
66410W        W38725   7.400  40.031   2.614
66411W        W38726  41.167   9.916  12.493
66412W        W38727  42.554   5.610   0.983
66413W        W38728  25.118  25.517  14.867
66414W        W38729  21.977  40.045  11.235
66415W        W38730  14.840  12.698   2.116
66416W        W38731  38.285  28.571   2.524
66417W        W38732  24.792  27.264   0.681
66418W        W38733   7.669  31.419  12.458
66419W        W38734  40.345  38.667  10.786
66420W        W38735  34.984   7.452   3.621
66421W        W38736  31.768  10.176   1.255
66422W        W38737  26.810  39.310  11.626
66423W        W38738  33.798   6.275   2.677
66424W        W38739   4.538  26.160  11.542
66425W        W38740  16.102   7.474   0.813
66426W        W38741  33.469  43.474   2.760
66427W        W38742  11.575   9.006  11.076
66428W        W38743  37.331  29.044   1.173
66429W        W38744  40.087  14.334   1.953
66430W        W38745  41.602   9.957   4.249
66431W        W38746  28.507  41.979  14.322
66432W        W38747  36.141  21.965  11.124
66433W        W38748   3.965  36.514  14.752
66434W        W38749  12.763  38.892  11.102
66435W        W38750   3.790   4.432  13.399
66436W        W38751  25.894   7.958  10.964
66437W        W38752  26.592  25.069   4.244
66438W        W38753  24.068  43.214   0.290
66439W        W38754   2.890   4.767  12.527
66440W        W38755  32.129   9.963  10.979
66441W        W38756  26.455  21.880   1.638
66442W        W38757  27.247   9.469  14.881
66443W        W38758  35.334  38.592  12.482
66444W        W38759  29.596  12.782   5.349
66445W        W38760  32.496  10.819  11.420
66446W        W38761  38.052  35.013   2.920
66447W        W38762  27.574  13.224  12.477
66448W        W38763  12.481  35.766  13.317
66449W        W38764  17.765  20.333   4.325
66450W        W38765  30.379   1.378   1.805
66451W        W38766  19.545  42.828  11.820
66452W        W38767   6.247  43.430  10.404
66453W        W38768  12.752  42.727  13.251
66454W        W38769  16.462  20.573   1.705
66455W        W38770   9.655  16.682   0.460
66456W        W38771  14.089  11.785  12.041
66457W        W38772  16.719  30.885  12.230
66458W        W38773  24.670  42.465  14.090
66459W        W38774  38.101   2.782   0.009
66460W        W38775  39.508  10.653  12.501
66461W        W38776  43.055   6.220   1.615
66462W        W38777  22.006  11.136   1.821
66463W        W38778  11.473  43.664   2.455
66464W        W38779   5.312   3.747   1.330
66465W        W38780  18.129   1.678   3.291
66466W        W38781   6.375   8.353   1.488
66467W        W38782  21.249  24.598   2.157
66468W        W38783  28.967  31.566   4.583
66469W        W38784  35.153  16.510   1.931
66470W        W38785   0.312  43.919  12.986
66471W        W38786  26.571  33.128  14.931
66472W        W38787  29.142  12.565   2.293
66473W        W38788  17.503  33.938   1.371
66474W        W38789   6.464   0.200   1.894
66475W        W38790   7.208  25.980   2.190
66476W        W38791  44.364  28.933   2.347
66477W        W38792   1.414  40.972  12.047
66478W        W38793  44.244  32.023  14.405
66479W        W38794  10.279  27.622  10.457
66480W        W38795  28.152  39.103  11.127
66481W        W38796   0.320  27.415  13.851
66482W        W38797  18.026  10.887  10.178
66483W        W38798   9.979  19.696   3.771
66484W        W38799  17.291  27.961  14.719
66485W        W38800  37.720  21.661   1.218
66486W        W38801   3.886  13.450   1.586
66487W        W38802  23.692   1.967  11.617
66488W        W38803  27.920  30.662  10.078
66489W        W38804  38.563  31.960  10.643
66490W        W38805  32.885  43.277   0.413
66491W        W38806  15.676  18.250  14.941
66492W        W38807  30.137  21.920  14.367
66493W        W38808  26.654  35.014   1.893
66494W        W38809  32.148  27.206  11.400
66495W        W38810  15.191  14.919   3.283
66496W        W38811  44.673  19.711   2.635
66497W        W38812  13.614  20.866  11.644
66498W        W38813  23.151  15.231   4.223
66499W        W38814  44.523  27.644  14.486
66500W        W38815  39.275  14.624  11.487
66501W        W38816   4.541  23.059  14.229
66502W        W38817  40.990   6.836  13.151
66503W        W38818  15.023  38.379  12.092
66504W        W38819  16.836  38.940   0.032
66505W        W38820  44.330  24.607  13.285
66506W        W38821  38.872  32.987  12.697
66507W        W38822  44.066   9.664   3.612
66508W        W38823   8.257  42.941  12.416
66509W        W38824  26.461  34.179   3.211
66510W        W38825   8.896  41.401   0.909
66511W        W38826  19.671  41.261   3.159
66512W        W38827  22.143   5.532   0.455
66513W        W38828  41.346  25.353  14.854
66514W        W38829  34.389  39.132  12.391
66515W        W38830  34.623  34.447   0.421
66516W        W38831  38.691   6.210  10.359
66517W        W38832  26.108  31.454   5.538
66518W        W38833  19.701   3.771  14.530
66519W        W38834  25.763  30.358  11.126
66520W        W38835  32.855  24.981   0.436
66521W        W38836   5.260  25.164  13.127
66522W        W38837  23.626  25.564   4.397
66523W        W38838  32.897  38.191  12.288
66524W        W38839  25.605  27.603   0.982
66525W        W38840  35.938  27.780  11.148
66526W        W38841  26.340  19.344  12.496
66527W        W38842  33.806  34.971   4.365
66528W        W38843  33.535  10.063  11.166
66529W        W38844  29.431  34.590  14.344
66530W        W38845  37.029  28.449  14.291
66531W        W38846  23.675   6.306   1.029
66532W        W38847   9.713   2.348   3.199
66533W        W38848  38.866  24.248   1.748
66534W        W38849  42.499  21.455   1.344
66535W        W38850   3.301  14.330  14.576
66536W        W38851  32.423  20.427   1.307
66537W        W38852   9.514  22.736  10.212
66538W        W38853  33.890  43.353  10.290
66539W        W38854  27.211  14.290  14.335
66540W        W38855  29.007  20.157  12.436
66541W        W38856  16.201  12.879   0.011
66542W        W38857   7.234  27.044   2.900
66543W        W38858  24.067   5.889   4.499
66544W        W38859  31.143   9.437  12.100
66545W        W38860   2.360  22.803  12.949
66546W        W38861  14.583  27.353  12.564
66547W        W38862  26.850   5.144   3.883
66548W        W38863   5.028   7.916   0.055
66549W        W38864  26.063  36.575  10.688
66550W        W38865  27.397  41.373  11.987
66551W        W38866  44.666   6.755   3.714
66552W        W38867  21.750   0.089   0.925
66553W        W38868   5.891  33.351  11.590
66554W        W38869  36.463  11.761   0.248
66555W        W38870  34.659  20.755   2.385
66556W        W38871  20.124  22.285  10.503
66557W        W38872  18.849  44.974   2.727
66558W        W38873  23.117  38.273   1.673
66559W        W38874  19.953   3.451  10.291
66560W        W38875  11.225  32.574  12.846
66561W        W38876  32.215  38.747  12.019
66562W        W38877  31.913  26.011   4.708
66563W        W38878  15.225   5.667  14.466
66564W        W38879  10.707  19.345  14.515
66565W        W38880   4.801   1.829   4.838
66566W        W38881  40.185   4.903  14.595
66567W        W38882  26.871  23.015  13.953
66568W        W38883  15.776  16.317  14.847
66569W        W38884  12.532  36.566  14.854
66570W        W38885  16.502  18.749  10.665
66571W        W38886   6.409   5.244   2.294
66572W        W38887   3.238  34.796  14.114
66573W        W38888  27.143   0.892   2.168
66574W        W38889  26.869  31.410  10.654
66575W        W38890  33.147  20.611  14.918
66576W        W38891  21.936  22.130   1.801
66577W        W38892  21.617  17.650  14.253
66578W        W38893  29.833  29.886   0.789
66579W        W38894  43.962   9.793  14.384
66580W        W38895  42.568  18.206  14.873
66581W        W38896  16.191   3.191  10.745
66582W        W38897  32.286   8.331  11.692
66583W        W38898   5.902   4.424  13.355
66584W        W38899  35.486  34.889   1.698
66585W        W38900  17.269  31.345   4.548
66586W        W38901  26.011  15.098   4.085
66587W        W38902   0.057   6.828  14.464
66588W        W38903  24.704   4.133   2.507
66589W        W38904  38.887   5.532   2.752
66590W        W38905   1.496  44.871   1.202
66591W        W38906  22.951  17.671  12.931
66592W        W38907   9.598  27.125  10.554
66593W        W38908  32.385  13.385   2.801
66594W        W38909  16.104   2.968   0.585
66595W        W38910   1.569   5.189  13.867
66596W        W38911  14.006  41.454  13.883
66597W        W38912  16.773  29.584   0.707
66598W        W38913  30.270  14.079  11.593
66599W        W38914  14.586   4.771  13.977
66600W        W38915  26.277  30.387   0.227
66601W        W38916  19.213  19.593   1.277
66602W        W38917  10.622  36.671  14.693
66603W        W38918  33.810  37.877  13.007
66604W        W38919  14.057  13.556   0.890
66605W        W38920  43.726   8.841   4.632
66606W        W38921   0.771  37.510   4.665
66607W        W38922  37.399  25.210  11.104
66608W        W38923  21.047  42.984  12.325
66609W        W38924  12.436  23.960  11.053
66610W        W38925  16.759  33.241   1.199
66611W        W38926   3.023  33.052  12.427
66612W        W38927  13.032  13.970  14.507
66613W        W38928  41.323  35.443   0.887
66614W        W38929  28.522  35.821   2.368
66615W        W38930  32.446   1.938   3.175
66616W        W38931  43.529  13.907   4.961
66617W        W38932  15.309   0.783  14.481
66618W        W38933  32.650   0.017  13.856
66619W        W38934  13.668  44.429   2.238
66620W        W38935  25.043  35.059  14.489
66621W        W38936  43.327  37.482   2.150
66622W        W38937   4.454  29.101  14.795
66623W        W38938  33.287  18.129  11.645
66624W        W38939  30.535  41.853  11.641
66625W        W38940  30.564  12.191  10.802
66626W        W38941  23.647   5.174  12.497
66627W        W38942  18.311  18.196  13.339
66628W        W38943   2.215  16.663  10.697
66629W        W38944   0.157  26.585  14.901
66630W        W38945  39.912  22.674   2.292
66631W        W38946  19.482  43.317   4.114
66632W        W38947  35.471  39.058  14.746
66633W        W38948  37.648  43.354  12.404
66634W        W38949  31.734  38.558  12.072
66635W        W38950  37.348   4.898   2.553
66636W        W38951  43.034   6.851   4.623
66637W        W38952  15.236  29.803  13.490
66638W        W38953  29.287  17.571  11.340
66639W        W38954  41.969  32.669   0.542
66640W        W38955  29.952  35.372   2.620
66641W        W38956  32.303  34.817  11.254
66642W        W38957   8.103  26.623   4.849
66643W        W38958  23.482   0.079  11.030
66644W        W38959   9.608  19.288   2.171
66645W        W38960  43.264  28.919  13.424
66646W        W38961  14.393  31.316  11.492
66647W        W38962  20.476  13.677   3.083
66648W        W38963  41.914  32.946   4.615
66649W        W38964  37.840  30.667  11.111
66650W        W38965  12.218   2.695   1.332
66651W        W38966  29.471  24.017   0.942
66652W        W38967  24.069  29.223   1.328
66653W        W38968   3.207  25.846   4.645
66654W        W38969  21.937  18.786   1.033
66655W        W38970  14.940   7.064  11.748
66656W        W38971  14.072  27.209   2.914
66657W        W38972   9.123  28.790   1.836
66658W        W38973  20.474  41.342  11.463
66659W        W38974   7.814  18.838  10.487
66660W        W38975  14.219  20.048   3.887
66661W        W38976  23.694  12.164  10.752
66662W        W38977   5.160  33.461   1.413
66663W        W38978  44.829   9.353   0.093
66664W        W38979   9.215  19.637  11.086
66665W        W38980   8.250  18.337  14.451
66666W        W38981  25.880  34.836   3.787
66667W        W38982  32.484   4.806  10.740
66668W        W38983  34.526  22.255   2.937
66669W        W38984  39.544  36.609   3.340
66670W        W38985  37.436  32.894  10.626
66671W        W38986  38.526  13.202  11.691
66672W        W38987  43.493   8.314  10.670
66673W        W38988  31.074   1.485  13.041
66674W        W38989  42.846  16.711   1.939
66675W        W38990  33.476  11.265  11.645
66676W        W38991  37.907   9.797  12.900
66677W        W38992  18.868  29.983   1.921
66678W        W38993  27.928  29.200   3.274
66679W        W38994  29.890  16.422  14.958
66680W        W38995  21.179  18.245   4.095
66681W        W38996  36.347  23.613   1.561
66682W        W38997  14.312  18.502  10.723
66683W        W38998  10.005  10.091   5.084
66684W        W38999  23.932  32.461   4.273
66685W        W39000  18.540  43.229  13.341
66686W        W39001  21.137  35.049  11.357
66687W        W39002  26.954  11.728   0.805
66688W        W39003  41.589  20.250   2.788
66689W        W39004  40.920  41.536  12.483
66690W        W39005   5.648  14.763  13.290
66691W        W39006  16.855   7.153   4.548
66692W        W39007   3.968  37.583  11.133
66693W        W39008  38.824  16.746  12.003
66694W        W39009  30.884  30.405   3.295
66695W        W39010  40.941  43.895   4.766
66696W        W39011  43.977   4.426   3.148
66697W        W39012  33.033  24.233  12.316
66698W        W39013  19.801  40.832  14.127
66699W        W39014  44.660  17.244   4.579
66700W        W39015  37.838   0.431  11.421
66701W        W39016  33.807  24.657   0.044
66702W        W39017   9.081  40.506   9.830
66703W        W39018  12.228  15.817   1.419
66704W        W39019  40.356   0.302  14.214
66705W        W39020  32.501  31.929  12.536
66706W        W39021  39.741  24.487   4.498
66707W        W39022  32.967  10.768   4.343
66708W        W39023  13.419  12.110   2.828
66709W        W39024  35.510  12.367  11.289
66710W        W39025   2.006  28.459  14.257
66711W        W39026   7.602  16.825  12.933
66712W        W39027  27.567  37.460  10.665
66713W        W39028   2.790   0.758  14.408
66714W        W39029   2.068  33.642   4.176
66715W        W39030  38.946   2.809   2.016
66716W        W39031  15.872  28.073   0.845
66717W        W39032   1.291  12.831   2.790
66718W        W39033   8.462  37.840   1.163
66719W        W39034   3.714   0.203   2.337
66720W        W39035  40.614  23.186  14.531
66721W        W39036  33.535  26.956  14.442
66722W        W39037  38.624  23.665  14.240
66723W        W39038  17.055  11.703  13.173
66724W        W39039   6.152  17.130  14.232
66725W        W39040  42.544  15.256   1.763
66726W        W39041  13.075  10.637  12.979
66727W        W39042   1.792  14.613   2.889
66728W        W39043  31.640  32.008   4.730
66729W        W39044   5.480   8.602  14.313
66730W        W39045   5.707  22.137  14.423
66731W        W39046  21.345  18.800  14.860
66732W        W39047  26.198   1.444  11.121
66733W        W39048  44.784  20.225   5.099
66734W        W39049  23.245  35.935   4.214
66735W        W39050  22.750  39.119   0.537
66736W        W39051  21.729   9.693  12.440
66737W        W39052  36.477  14.843  11.952
66738W        W39053   6.329  41.265   1.866
66739W        W39054  20.531   6.978  14.457
66740W        W39055   2.567  40.477  11.585
66741W        W39056  30.986   6.210   2.653
66742W        W39057  43.144  27.652   0.826
66743W        W39058  28.636  40.479  13.227
66744W        W39059  17.261  25.901   4.341
66745W        W39060   4.907   1.233   0.529
66746W        W39061  16.024  33.821   1.387
66747W        W39062   7.357  39.806   4.577
66748W        W39063   8.887  16.875   1.959
66749W        W39064  25.741  13.513   3.650
66750W        W39065  39.996  36.879   1.587
66751W        W39066  11.278  32.890   4.698
66752W        W39067  28.695  34.391  13.049
66753W        W39068  36.212  33.336   2.761
66754W        W39069  13.048   8.372   0.885
66755W        W39070   0.806  44.901   2.009
66756W        W39071   4.185  24.289  13.908
66757W        W39072  32.128  44.158  11.539
66758W        W39073   5.693  15.809   1.699
66759W        W39074  43.654  43.059  11.873
66760W        W39075  23.596  39.954   2.840
66761W        W39076  17.308  43.593  11.560
66762W        W39077  33.333  27.444  10.793
66763W        W39078  17.609  34.993   2.215
66764W        W39079  27.226  21.974  11.372
66765W        W39080   0.331  30.130  10.385
66766W        W39081   8.656   4.762   1.487
66767W        W39082  42.326  31.342  13.378
66768W        W39083   1.935   1.945   3.257
66769W        W39084  33.157  15.198   3.813
66770W        W39085  10.699  44.015  13.709
66771W        W39086  38.319  16.596   0.303
66772W        W39087  43.564  29.959  11.130
66773W        W39088  34.713   3.904  12.098
66774W        W39089  22.270   6.390   1.764
66775W        W39090  19.219  44.290  14.174
66776W        W39091  23.109  14.404   0.741
66777W        W39092  26.926  34.392  13.432
66778W        W39093  20.687  33.416  11.123
66779W        W39094  42.555  24.758  14.721
66780W        W39095  12.429  25.642   4.058
66781W        W39096  22.265  24.748   3.732
66782W        W39097  15.685  11.272  14.230
66783W        W39098  32.577   5.255   2.183
66784W        W39099  14.709  20.538   3.625
66785W        W39100   1.753  38.456   3.305
66786W        W39101  23.739  14.340   0.557
66787W        W39102  14.752  11.730   0.512
66788W        W39103   7.411  38.785   2.747
66789W        W39104  35.855  21.609  14.453
66790W        W39105  36.527   4.419  12.982
66791W        W39106  21.194  17.650  13.316
66792W        W39107  10.661  44.704   1.161
66793W        W39108  37.920  43.493  13.871
66794W        W39109  23.917  16.118   3.516
66795W        W39110   5.734  38.303  12.469
66796W        W39111   6.757  43.336   4.412
66797W        W39112   4.675  38.308   2.230
66798W        W39113  17.742   9.500  14.015
66799W        W39114  24.537   6.602  11.471
66800W        W39115  28.275  31.443   0.791
66801W        W39116  13.647  41.822   3.235
66802W        W39117  40.130  16.368   0.135
66803W        W39118  41.415  31.241  11.478
66804W        W39119  34.145  18.017   3.695
66805W        W39120  16.335  35.418   3.834
66806W        W39121  31.464  35.418  12.372
66807W        W39122  25.659  40.773  14.951
66808W        W39123  18.945   6.899  14.475
66809W        W39124  39.062   6.947   3.735
66810W        W39125   4.834  28.429  10.669
66811W        W39126  39.419  43.440  13.089
66812W        W39127  20.520  44.715  14.956
66813W        W39128  16.288  40.484  13.456
66814W        W39129  40.572  34.891  13.330
66815W        W39130   9.243  17.240  11.225
66816W        W39131  24.140  17.867  14.682
66817W        W39132  24.796   2.837  14.861
66818W        W39133  19.645  18.814   3.766
66819W        W39134   4.853   9.709  10.797
66820W        W39135  36.628  27.543  14.832
66821W        W39136   6.217  35.850   0.757
66822W        W39137  34.418  17.701  11.566
66823W        W39138  20.781  19.170  14.556
66824W        W39139  37.343   5.714   2.589
66825W        W39140  26.618  23.467  13.894
66826W        W39141  17.705  14.781   3.605
66827W        W39142  27.076  30.693   3.901
66828W        W39143  32.669  37.572   0.366
66829W        W39144  20.351  22.863   2.758
66830W        W39145  20.274  25.663  11.971
66831W        W39146  22.314  11.140   3.143
66832W        W39147  24.959  10.314  14.062
66833W        W39148  21.507  35.615  14.335
66834W        W39149  43.125  18.773  13.467
66835W        W39150  18.133  32.634   0.228
66836W        W39151  40.625  33.481  11.148
66837W        W39152  25.167  33.310   4.514
66838W        W39153  25.131  19.603   1.256
66839W        W39154   3.858   1.994  14.002
66840W        W39155   5.361  36.112  14.445
66841W        W39156  24.785  17.036   2.893
66842W        W39157  25.188   9.481  13.866
66843W        W39158  22.621  22.823  11.922
66844W        W39159  31.519  15.083   1.311
66845W        W39160  43.469  38.402  12.594
66846W        W39161  34.750  11.115  12.968
66847W        W39162  41.280  35.432   3.158
66848W        W39163  21.711  32.355   1.724
66849W        W39164   2.296  41.698  14.861
66850W        W39165  10.088  36.366  13.416
66851W        W39166   7.561  21.001  11.426
66852W        W39167  30.491   2.510  13.201
66853W        W39168  43.330  19.948   3.043
66854W        W39169  24.606   2.649  14.416
66855W        W39170  23.753  41.472   1.545
66856W        W39171  20.760  32.886  11.199
66857W        W39172  20.908   3.542   1.040
66858W        W39173   7.301  37.333   3.150
66859W        W39174   0.820  36.798  14.816
66860W        W39175  43.843  30.157   0.744
66861W        W39176  20.650   8.870  10.640
66862W        W39177  40.645  23.281   5.256
66863W        W39178  31.239  36.072   3.746
66864W        W39179  28.206   3.758   1.312
66865W        W39180  19.298   3.379   4.102
66866W        W39181  30.511  34.143   0.763
66867W        W39182   0.308  30.229   1.225
66868W        W39183  42.389  24.625  11.453
66869W        W39184  33.841  17.772  11.087
66870W        W39185  31.538  22.070  10.929
66871W        W39186  25.150  28.080  12.814
66872W        W39187   4.261   3.969   1.832
66873W        W39188  33.149   9.704  11.145
66874W        W39189  25.583   0.573   0.179
66875W        W39190  40.506   1.673   0.870
66876W        W39191  18.602  16.266  12.051
66877W        W39192  40.368   9.752   4.297
66878W        W39193  21.969   2.435  14.032
66879W        W39194  31.962  26.453  11.456
66880W        W39195   6.535  17.802   2.777
66881W        W39196  27.622  24.621   3.789
66882W        W39197  20.262  28.008   4.120
66883W        W39198  11.739  43.959  12.662
66884W        W39199  19.622  41.784   3.083
66885W        W39200  30.961  41.403   2.630
66886W        W39201  36.289   7.338  10.380
66887W        W39202  43.946  26.690   3.249
66888W        W39203  44.313  27.687  14.983
66889W        W39204   5.807  15.027   0.061
66890W        W39205  37.785  39.099   1.048
66891W        W39206   2.053  14.530   3.984
66892W        W39207   9.374  25.365   1.515
66893W        W39208  30.012   4.136  12.379
66894W        W39209  15.575  34.484   3.800
66895W        W39210   9.794  31.689   1.400
66896W        W39211   5.884  43.034   4.585
66897W        W39212   3.543  10.225  13.486
66898W        W39213  24.590  44.748  11.659
66899W        W39214  32.016   7.185  10.935
66900W        W39215  29.066  36.962  14.462
66901W        W39216  20.874  17.910   3.657
66902W        W39217  21.355  20.773   0.729
66903W        W39218  26.730  26.560   3.158
66904W        W39219  42.606   8.595  10.669
66905W        W39220  26.522  29.557   3.301
66906W        W39221  14.128  21.003   4.090
66907W        W39222  19.354  42.238  11.739
66908W        W39223  31.472  29.434   4.238
66909W        W39224  31.015  22.811  10.445
66910W        W39225  43.743  42.028   0.300
66911W        W39226  27.858  36.460   4.112
66912W        W39227  27.473  40.285  11.749
66913W        W39228  11.617  30.582  14.303
66914W        W39229  11.407   0.421  12.439
66915W        W39230  23.499  13.324  13.045
66916W        W39231   0.562  12.353   9.823
66917W        W39232   5.693   8.090  13.623
66918W        W39233  26.918   7.671  11.594
66919W        W39234  43.973  44.031  11.111
66920W        W39235  18.039  41.364   4.141
66921W        W39236  37.859   8.756   4.053
66922W        W39237   8.672  36.598   0.961
66923W        W39238  25.927   2.431   4.876
66924W        W39239  40.414  30.910   3.190
66925W        W39240  16.076  10.217  12.431
66926W        W39241  19.579  19.314   3.412
66927W        W39242  41.231  24.248  14.352
66928W        W39243  43.486  20.974   4.406
66929W        W39244  35.437  37.903   1.376
66930W        W39245  43.062  23.041   1.923
66931W        W39246  21.267  32.049   4.111
66932W        W39247  19.625  19.663  13.143
66933W        W39248  20.225  28.599  10.881
66934W        W39249  25.987  17.035  13.871
66935W        W39250  34.567   9.299  14.877
66936W        W39251  28.966  38.339  14.443
66937W        W39252  37.628   9.562  12.156
66938W        W39253  43.088  28.463   2.526
66939W        W39254  40.334  44.334   0.009
66940W        W39255  39.966   6.796   4.096
66941W        W39256  13.073   2.222   0.983
66942W        W39257  31.437  24.775   2.880
66943W        W39258  26.412  28.955   1.293
66944W        W39259   7.859   9.836  11.444
66945W        W39260   7.346  17.075  11.576
66946W        W39261   0.249  39.359  14.357
66947W        W39262  44.188  19.779  11.631
66948W        W39263  31.495   1.782  13.267
66949W        W39264  21.653   5.864   3.249
66950W        W39265   1.570  39.272   4.095
66951W        W39266  21.679  34.984   2.899
66952W        W39267  38.368  26.475  12.824
66953W        W39268  41.263  35.380  11.832
66954W        W39269  14.880   7.219  10.702
66955W        W39270  20.837  19.519  12.371
66956W        W39271  41.076  22.042   2.532
66957W        W39272   3.959  24.138  13.453
66958W        W39273  23.330   2.913  12.538
66959W        W39274  15.613  42.603   4.275
66960W        W39275  37.606  40.639   3.686
66961W        W39276  41.901  24.723  11.320
66962W        W39277  31.625   5.415   3.680
66963W        W39278  28.018  23.974  12.963
66964W        W39279  18.680  38.109   0.824
66965W        W39280  15.620  21.241   1.879
66966W        W39281  27.009  41.188   4.749
66967W        W39282   3.872  15.782   4.464
66968W        W39283  40.332   1.796  11.538
66969W        W39284  23.429  44.426  13.456
66970W        W39285  19.285  34.990   3.184
66971W        W39286  19.600  41.995  10.592
66972W        W39287  36.412  20.575   3.026
66973W        W39288  13.680   7.640   3.079
66974W        W39289   8.832  42.956   1.856
66975W        W39290  38.857  29.017  14.900
66976W        W39291   7.213  25.108   2.232
66977W        W39292  35.636  16.672  11.501
66978W        W39293  38.606  43.484   2.798
66979W        W39294  38.963   0.525  10.614
66980W        W39295  11.639  24.200  10.718
66981W        W39296  24.943  37.167   0.702
66982W        W39297  10.085  21.539   2.784
66983W        W39298  17.816  17.607  11.607
66984W        W39299  42.121  14.874  13.433
66985W        W39300  13.818  12.313  14.759
66986W        W39301  44.735  23.735   4.046
66987W        W39302  18.598  21.555   2.908
66988W        W39303  19.383  22.996  13.936
66989W        W39304  14.597  15.928  13.463
66990W        W39305  39.218   4.324  11.514
66991W        W39306  12.872  22.323  10.711
66992W        W39307  24.056  26.020  10.526
66993W        W39308  14.115  34.945  12.032
66994W        W39309  33.913  38.349  10.361
66995W        W39310   4.027  18.179   1.783
66996W        W39311  38.084  40.575   0.185
66997W        W39312  38.042  23.313  12.593
66998W        W39313  41.788  23.565  11.072
66999W        W39314  16.289  27.049  12.536
67000W        W39315  29.631  15.822   1.159
67001W        W39316  23.258  19.184   1.766
67002W        W39317  36.559  44.468   1.001
67003W        W39318   4.340  25.197  13.747
67004W        W39319   5.186  40.594  14.713
67005W        W39320  36.170  26.717   0.870
67006W        W39321  15.004  37.066  12.063
67007W        W39322  15.820  36.608   0.033
67008W        W39323  37.528  24.785   3.405
67009W        W39324  19.746  42.744  11.020
67010W        W39325  37.051  30.904  13.970
67011W        W39326  31.215  20.616  11.490
67012W        W39327  15.528  29.413  11.628
67013W        W39328   0.866   2.195  12.297
67014W        W39329   5.876  28.257  12.565
67015W        W39330  39.383  24.697   2.817
67016W        W39331  24.896   8.915   4.156
67017W        W39332   7.397  26.482  14.374
67018W        W39333   9.262  21.086  12.114
67019W        W39334  29.441  26.118   1.372
67020W        W39335  44.521  25.227  11.060
67021W        W39336  38.351  33.921   1.176
67022W        W39337  21.161   6.142  13.946
67023W        W39338  20.813  14.720  14.510
67024W        W39339  11.401  10.724   0.114
67025W        W39340  30.411  27.551  13.831
67026W        W39341  31.910  10.874   0.269
67027W        W39342   8.867  25.805  13.815
67028W        W39343   6.177  18.580   2.328
67029W        W39344   4.688  33.476  12.886
67030W        W39345  23.632  23.624  10.742
67031W        W39346  42.955  10.013  11.117
67032W        W39347  18.992  41.805   0.348
67033W        W39348  26.463  35.864   2.335
67034W        W39349   7.571  22.204   3.434
67035W        W39350  23.953  41.129  10.486
67036W        W39351   1.254  34.197   2.759
67037W        W39352  27.377   9.165  13.558
67038W        W39353  26.175  31.024  13.243
67039W        W39354   7.373  13.580   4.667
67040W        W39355  10.716  17.088   3.239
67041W        W39356   1.509  43.050  14.312
67042W        W39357  34.814  23.144  14.506
67043W        W39358  10.293  39.671   1.357
67044W        W39359   2.856  18.724  13.304
67045W        W39360  19.800   3.912   0.019
67046W        W39361  36.355  26.658  11.628
67047W        W39362   4.138  11.178   0.857
67048W        W39363  11.824  26.927  12.010
67049W        W39364   1.387  36.965   3.916
67050W        W39365   7.307   4.119   2.183
67051W        W39366  33.971  14.172   2.717
67052W        W39367  10.015  35.386   3.782
67053W        W39368  35.369  32.948   0.698
67054W        W39369  43.842  18.649  14.319
67055W        W39370  17.786  34.977   0.240
67056W        W39371  34.514  14.247  14.922
67057W        W39372  25.601  11.055   2.631
67058W        W39373   2.441   7.516   0.065
67059W        W39374  27.042  30.192   4.003
67060W        W39375  43.317  44.863  10.237
67061W        W39376  21.245   6.747  10.786
67062W        W39377  43.798  15.697   0.753
67063W        W39378  31.424   2.453  11.971
67064W        W39379  37.853  11.393   1.437
67065W        W39380   4.385  30.245   3.064
67066W        W39381  11.647   0.519   0.525
67067W        W39382  43.791  26.483  11.606
67068W        W39383  33.388   0.259   4.606
67069W        W39384  32.373  10.795  10.901
67070W        W39385  26.094  34.434   2.939
67071W        W39386  33.124  25.224  12.215
67072W        W39387  27.934  39.388  14.755
67073W        W39388  22.233  32.315  12.096
67074W        W39389   6.514  39.573  11.562
67075W        W39390  31.979  13.706  13.134
67076W        W39391  33.864  10.290   5.043
67077W        W39392  21.402  27.162   1.514
67078W        W39393  20.126   7.720   1.266
67079W        W39394  15.618  40.064  12.930
67080W        W39395  35.069   5.940  10.786
67081W        W39396  27.085  44.182   4.829
67082W        W39397  20.575  25.955  11.522
67083W        W39398  17.618  23.849  12.204
67084W        W39399  29.089   3.775   2.365
67085W        W39400   8.069  21.049   1.201
67086W        W39401  20.551  40.468   1.723
67087W        W39402  12.463  16.756   4.209
67088W        W39403  12.830  18.275   1.160
67089W        W39404  17.354  37.361   2.404
67090W        W39405  13.126  37.110  10.658
67091W        W39406  18.969  26.971  14.047
67092W        W39407  17.638  24.100  11.266
67093W        W39408   0.385  42.657   3.771
67094W        W39409  11.844   0.668  12.563
67095W        W39410   5.718  32.514  13.927
67096W        W39411   6.120   0.206   1.027
67097W        W39412  35.013  40.824   2.044
67098W        W39413  37.164  33.882   2.144
67099W        W39414  33.863  43.792  10.570
67100W        W39415  33.506  35.336   1.480
67101W        W39416  34.894  36.739  12.369
67102W        W39417  21.728  15.178  12.001
67103W        W39418  22.337  21.993  13.566
67104W        W39419  31.416  43.760   4.642
67105W        W39420  23.032  22.451   2.317
67106W        W39421  11.124   7.670  14.190
67107W        W39422  15.616  19.096   4.774
67108W        W39423  38.962   7.621   0.795
67109W        W39424  29.553  36.574   0.286
67110W        W39425  10.713  27.176  11.964
67111W        W39426  16.398   5.915   2.810
67112W        W39427  42.733  41.926   1.226
67113W        W39428   5.490  40.349  11.984
67114W        W39429  33.682  10.518   4.589
67115W        W39430   8.919  18.958   2.738
67116W        W39431  11.413  24.158   1.723
67117W        W39432  14.576   6.294   4.548
67118W        W39433   8.184  20.323  11.472
67119W        W39434   8.252  24.790   0.721
67120W        W39435  12.313  33.909  14.331
67121W        W39436  32.797  40.178   1.284
67122W        W39437   6.263   7.389   3.839
67123W        W39438  30.063  17.230  12.517
67124W        W39439  12.846   7.950   1.328
67125W        W39440  13.563  22.491  11.561
67126W        W39441  30.523  16.881   1.121
67127W        W39442  44.263   8.632   0.719
67128W        W39443  15.694  13.167   0.924
67129W        W39444  30.676  31.617   4.533
67130W        W39445  34.507   2.658  14.456
67131W        W39446   5.585   3.381  12.507
67132W        W39447  38.731  19.798  12.981
67133W        W39448   0.490  39.729   3.385
67134W        W39449  44.907  12.407  12.120
67135W        W39450  34.109  26.128   4.921
67136W        W39451  43.259  38.309   2.393
67137W        W39452   4.698  31.009   3.230
67138W        W39453  23.954  31.209   4.649
67139W        W39454   0.807  35.363  13.490
67140W        W39455  23.068  43.585   4.217
67141W        W39456  14.357  40.572   3.231
67142W        W39457  39.891   7.085   2.787
67143W        W39458  43.466  13.761  13.725
67144W        W39459   8.147  10.288  11.531
67145W        W39460  32.657   0.173   1.299
67146W        W39461  38.009  14.206   1.298
67147W        W39462  25.785   6.261   4.137
67148W        W39463  40.373   2.399   0.000
67149W        W39464  43.248   3.998  13.352
67150W        W39465  35.845  32.991  14.813
67151W        W39466   0.086   2.873   0.517
67152W        W39467  24.690  42.477   3.456
67153W        W39468  10.090  23.582  14.379
67154W        W39469  10.384   5.896  11.286
67155W        W39470  16.758  43.395   2.780
67156W        W39471   1.381   0.576   3.176
67157W        W39472   1.521  30.483   0.510
67158W        W39473   3.403  43.539  11.636
67159W        W39474  24.096  37.461  11.825
67160W        W39475   4.336  36.151  12.197
67161W        W39476   5.229  42.478   2.288
67162W        W39477  18.258   6.685  12.643
67163W        W39478  10.868  24.841  11.127
67164W        W39479  37.029   0.128  13.049
67165W        W39480  30.769  10.870  14.451
67166W        W39481   0.730  31.466   0.197
67167W        W39482  37.430  42.603   0.051
67168W        W39483  22.815   3.416  10.633
67169W        W39484  29.616   2.737  13.754
67170W        W39485  13.059  20.586   2.412
67171W        W39486   1.786   0.546   2.490
67172W        W39487  24.761  35.751   2.882
67173W        W39488  16.401  40.332  10.649
67174W        W39489  16.699  27.942   1.416
67175W        W39490  15.673   6.734  12.607
67176W        W39491  14.871  21.669   3.231
67177W        W39492  39.223  32.613  12.441
67178W        W39493  12.679  11.703   3.551
67179W        W39494   9.463  16.744   2.834
67180W        W39495  16.800  36.368   3.230
67181W        W39496  43.817  41.580  13.005
67182W        W39497  44.457  12.150   3.804
67183W        W39498  17.680  26.153   3.167
67184W        W39499  39.478  20.763   0.012
67185W        W39500  19.290  10.288   4.452
67186W        W39501   9.389  29.089   3.272
67187W        W39502  17.748  41.625   2.699
67188W        W39503  40.915  29.930   4.520
67189W        W39504  27.525  12.703   3.363
67190W        W39505  44.251   5.010  13.426
67191W        W39506   8.394  31.732  13.240
67192W        W39507  34.565  17.531   4.572
67193W        W39508  32.502   6.798  14.846
67194W        W39509  24.077  40.879  11.442
67195W        W39510  23.003  20.839  13.469
67196W        W39511  16.207   6.777  12.582
67197W        W39512  38.130  13.959   5.083
67198W        W39513  25.412  37.282  12.514
67199W        W39514  31.534  18.332   2.366
67200W        W39515  29.688  23.574   0.768
67201W        W39516  14.480  32.981   0.225
67202W        W39517  25.112   7.713  11.941
67203W        W39518  36.451  26.355   2.700
67204W        W39519  10.670   5.182   4.123
67205W        W39520  27.953  35.874   1.476
67206W        W39521  28.576  27.139  14.347
67207W        W39522  20.610  40.025   3.699
67208W        W39523  13.584  28.661  14.485
67209W        W39524  43.214  34.339  13.939
67210W        W39525  33.645  34.952  12.456
67211W        W39526  27.008  18.818  12.948
67212W        W39527  37.784  34.593   2.795
67213W        W39528  38.083  32.977  10.534
67214W        W39529  40.845   6.730   1.404
67215W        W39530  17.184   5.435   0.692
67216W        W39531  25.959  18.396   3.791
67217W        W39532   4.857  31.294   0.751
67218W        W39533  12.022  17.262   3.577
67219W        W39534  43.867   6.187  11.903
67220W        W39535   3.810   5.290   3.277
67221W        W39536  37.037  12.900  14.794
67222W        W39537  13.398   3.028   5.051
67223W        W39538  20.244  30.503   2.755
67224W        W39539  43.300  39.484  12.042
67225W        W39540  21.992  23.114  14.370
67226W        W39541  38.631  12.083   9.999
67227W        W39542  22.720  19.361   1.824
67228W        W39543  22.340   2.538  14.552
67229W        W39544  14.256   7.185  12.036
67230W        W39545   2.828  11.844   2.918
67231W        W39546   0.105  19.338  10.606
67232W        W39547  31.629  28.931  13.953
67233W        W39548  43.167  15.798  12.818
67234W        W39549   1.317  27.980   2.166
67235W        W39550   7.338   0.069  13.737
67236W        W39551  39.911  12.373   0.903
67237W        W39552   9.178  20.697  11.093
67238W        W39553  10.754  41.168   3.219
67239W        W39554  18.162  18.673  14.794
67240W        W39555  40.448  44.938   1.396
67241W        W39556  40.387  17.713  12.004
67242W        W39557  15.344  44.126   4.719
67243W        W39558  23.047   9.439  11.176
67244W        W39559  21.126  37.848  10.746
67245W        W39560  23.851  21.727  13.002
67246W        W39561   4.967  25.252  14.714
67247W        W39562  44.611  15.735   3.321
67248W        W39563  40.506   0.769  11.533
67249W        W39564   3.310   9.258   0.359
67250W        W39565  18.721  10.101  11.493
67251W        W39566   5.814  31.426  11.020
67252W        W39567  33.857   0.485  11.173
67253W        W39568  31.103  19.779   2.797
67254W        W39569  18.570  30.717   1.705
67255W        W39570  29.954  16.252   2.747
67256W        W39571  14.759  33.073  11.988
67257W        W39572  42.417  17.596   3.951
67258W        W39573  28.368  32.934   2.610
67259W        W39574  15.280  31.009   0.084
67260W        W39575  22.074  26.676   1.865
67261W        W39576   9.350   7.073  12.437
67262W        W39577  26.612  24.095   4.627
67263W        W39578  11.670   3.735   4.358
67264W        W39579   6.276  18.817  13.497
67265W        W39580  16.284  19.801   1.799
67266W        W39581   1.953   7.685  12.525
67267W        W39582  40.542  38.433  12.475
67268W        W39583  23.974  21.708   4.586
67269W        W39584  16.100  24.208  13.313
67270W        W39585   6.483  21.247   4.591
67271W        W39586  11.164   8.867   4.087
67272W        W39587  36.533  23.734   2.930
67273W        W39588  25.179  38.332   1.356
67274W        W39589  12.192  37.818   2.235
67275W        W39590  11.637  17.230   1.703
67276W        W39591   9.818  32.610  14.040
67277W        W39592  32.162  19.287   3.093
67278W        W39593   5.190  34.919   1.288
67279W        W39594  26.505  39.453   3.756
67280W        W39595  29.635  20.199   3.371
67281W        W39596  20.287  40.379   3.339
67282W        W39597   7.998  33.839   2.513
67283W        W39598  43.062   4.221   1.768
67284W        W39599  20.231  44.095  11.653
67285W        W39600  18.829  11.073  13.547
67286W        W39601   4.087   5.747  14.000
67287W        W39602  18.175  14.200   4.707
67288W        W39603  37.316  23.075   4.898
67289W        W39604   2.946   7.216  12.325
67290W        W39605  44.463  33.876  10.122
67291W        W39606  12.917  14.463  14.481
67292W        W39607  19.558  26.510   2.702
67293W        W39608  37.529   6.638  11.133
67294W        W39609  31.424  34.641  10.966
67295W        W39610   7.205   8.677  11.969
67296W        W39611  31.991  44.265   1.753
67297W        W39612   2.416   2.918   3.913
67298W        W39613  16.532  38.403  11.066
67299W        W39614  38.577   6.650  13.015
67300W        W39615  11.739   3.854   3.854
67301W        W39616  19.071   2.041   0.901
67302W        W39617  13.183   7.871  10.660
67303W        W39618  39.262  41.321  10.253
67304W        W39619  13.442   6.442  14.509
67305W        W39620  32.152   5.377   3.308
67306W        W39621  39.585   9.835  11.078
67307W        W39622  41.423  17.089   2.762
67308W        W39623  21.773   5.859  14.929
67309W        W39624  16.651  22.648  12.167
67310W        W39625  26.770  18.097  13.587
67311W        W39626   9.805   1.999  14.430
67312W        W39627   6.650  38.621   4.283
67313W        W39628  29.123  39.299  14.573
67314W        W39629  39.040  39.321   2.276
67315W        W39630  19.601  16.873   3.662
67316W        W39631  38.889  25.496  11.157
67317W        W39632   6.493  41.042  13.286
67318W        W39633  29.206  37.584   3.699
67319W        W39634  11.399  43.016  14.901
67320W        W39635  44.268  11.347   0.447
67321W        W39636   8.094  20.059   0.325
67322W        W39637   8.074  44.458  14.679
67323W        W39638  43.573  10.884   1.338
67324W        W39639   2.992  40.309  13.102
67325W        W39640  30.185  42.994   3.641
67326W        W39641  22.804  25.649  10.992
67327W        W39642   6.931  18.785  11.986
67328W        W39643  35.090  42.935  11.585
67329W        W39644  33.315  11.851   3.559
67330W        W39645   9.228   6.005  14.892
67331W        W39646   6.492  38.364   1.428
67332W        W39647  36.590  18.265   3.386
67333W        W39648  16.140  37.822  13.273
67334W        W39649   0.769   6.557   3.819
67335W        W39650  31.397  38.169  11.191
67336W        W39651   2.432  40.536   3.487
67337W        W39652  10.208  24.534   0.163
67338W        W39653  37.709  26.717   5.258
67339W        W39654  14.805  26.558  12.888
67340W        W39655   9.221   1.492  11.405
67341W        W39656   9.900   1.531   0.842
67342W        W39657  31.169  40.621  12.962
67343W        W39658   6.084  38.020   3.720
67344W        W39659  28.386  32.654  11.562
67345W        W39660   2.965  44.315  11.224
67346W        W39661  14.205  17.798   3.132
67347W        W39662  20.244   7.011   1.619
67348W        W39663   8.935   0.033  12.914
67349W        W39664   7.974   6.457   1.560
67350W        W39665   2.024  34.112   2.302
67351W        W39666   2.878  42.791   4.431
67352W        W39667  17.269  18.583  13.959
67353W        W39668  25.517   5.240  12.599
67354W        W39669  12.156  41.279  10.319
67355W        W39670  44.926  11.718   5.007
67356W        W39671  36.621  32.387  11.586
67357W        W39672  10.359  23.126  14.407
67358W        W39673  21.030  34.977   2.244
67359W        W39674  37.325  30.419   0.879
67360W        W39675  40.105  10.706   4.076
67361W        W39676  15.837  29.787   2.022
67362W        W39677   2.637  13.559  11.081
67363W        W39678   6.464   2.446   1.617
67364W        W39679  21.056   0.374  11.442
67365W        W39680   9.419  38.841   4.618
67366W        W39681  17.038  11.331   1.438
67367W        W39682  34.327  18.720   2.372
67368W        W39683  26.680  15.139  10.573
67369W        W39684  31.508   4.170   4.623
67370W        W39685  36.050  21.739   2.638
67371W        W39686  35.521  18.159  11.607
67372W        W39687   1.355  29.694  11.162
67373W        W39688  20.189  41.914  13.475
67374W        W39689   5.197   9.028   0.662
67375W        W39690  14.347  30.067   2.654
67376W        W39691  21.089  13.501   3.290
67377W        W39692   0.178  11.481  10.678
67378W        W39693  12.671   6.708   0.281
67379W        W39694  11.126  23.268  11.916
67380W        W39695  29.898  26.043   1.169
67381W        W39696  17.828  44.030   3.913
67382W        W39697   5.649   6.317  14.502
67383W        W39698  27.417  30.928  14.955
67384W        W39699  12.679  21.187   2.535
67385W        W39700  24.147  41.899  12.509
67386W        W39701  13.617  34.653   2.270
67387W        W39702  39.895  16.843  13.271
67388W        W39703  12.190  16.781  10.111
67389W        W39704  23.441  34.506   3.744
67390W        W39705  31.317  33.197  11.162
67391W        W39706  25.000  36.473  10.564
67392W        W39707  42.618  35.007   4.951
67393W        W39708  32.354  16.260   0.650
67394W        W39709  39.520  15.262  14.527
67395W        W39710   6.278   9.935   2.621
67396W        W39711  26.246   0.524  14.190
67397W        W39712  22.828  39.391  12.328
67398W        W39713   7.504   2.752   2.200
67399W        W39714  10.565  20.656  13.318
67400W        W39715  11.214   0.952   3.577
67401W        W39716   9.240  32.372   2.722
67402W        W39717  18.114   8.151   2.664
67403W        W39718  22.623   1.690  13.056
67404W        W39719  44.446  28.577   1.366
67405W        W39720  20.235  14.804  11.908
67406W        W39721  19.830  13.192   3.156
67407W        W39722   1.050  19.948  13.871
67408W        W39723  12.099  42.993   3.388
67409W        W39724   7.755   8.346   3.597
67410W        W39725  19.692   6.468  12.704
67411W        W39726  44.362  26.787  11.061
67412W        W39727  40.736   9.355  14.396
67413W        W39728  25.489  20.116   1.847
67414W        W39729   1.999  31.090   0.875
67415W        W39730  35.937  27.234  11.139
67416W        W39731   6.235   9.387  10.704
67417W        W39732  11.291   2.128   4.149
67418W        W39733  41.541  36.005  12.362
67419W        W39734  35.302   3.735  12.942
67420W        W39735  11.750  28.201   5.061
67421W        W39736  13.332  11.269  11.983
67422W        W39737  30.648   6.964   1.797
67423W        W39738  30.340  44.359  14.910
67424W        W39739  28.533  26.339  14.885
67425W        W39740  38.328  39.885   1.240
67426W        W39741  20.064  29.675   0.450
67427W        W39742  19.881  38.416   5.574
67428W        W39743  12.591  25.146   4.944
67429W        W39744  43.503  23.918   4.167
67430W        W39745  10.347  13.783  13.884
67431W        W39746   8.383  43.232  14.934
67432W        W39747  18.290  41.008  12.896
67433W        W39748   8.904  42.900   0.884
67434W        W39749   6.887   3.541   1.992
67435W        W39750  33.971  44.980  13.748
67436W        W39751  44.849   4.283  13.929
67437W        W39752  44.831  20.897  12.848
67438W        W39753  32.960   8.102   4.709
67439W        W39754   1.796  28.142   4.889
67440W        W39755  24.345  18.641  10.278
67441W        W39756  16.793  29.932   2.846
67442W        W39757  34.088  21.546  14.991
67443W        W39758  32.570  23.503  14.329
67444W        W39759  41.869  12.563  11.468
67445W        W39760  22.648  39.837  10.631
67446W        W39761  39.353  27.077  10.556
67447W        W39762  23.512  28.235   0.261
67448W        W39763  21.575  44.922  12.600
67449W        W39764   8.363  10.146   0.353
67450W        W39765  18.587   4.785   1.375
67451W        W39766  41.066  26.650  14.079
67452W        W39767  11.924   5.658  11.380
67453W        W39768  27.790  29.544   3.646
67454W        W39769  37.437   0.329  12.316
67455W        W39770   8.384  24.080  14.522
67456W        W39771  11.098  16.632   5.819
67457W        W39772  43.268   3.673  12.381
67458W        W39773  32.175  35.427   4.715
67459W        W39774  38.357  20.834  12.024
67460W        W39775  34.492  35.721   2.236
67461W        W39776   1.153   9.739   9.952
67462W        W39777  24.111  23.986  13.322
67463W        W39778  20.301  37.187  11.997
67464W        W39779  44.937  18.601   4.878
67465W        W39780  26.748  15.669   1.652
67466W        W39781  30.334   3.251  10.616
67467W        W39782  29.559  32.897  10.730
67468W        W39783   2.416  13.547  13.587
67469W        W39784   2.346  16.269  12.131
67470W        W39785  34.895  44.808  13.323
67471W        W39786  37.992  17.028   1.079
67472W        W39787  13.227  27.794  10.270
67473W        W39788  13.778  43.095  13.740
67474W        W39789  12.826  41.335   1.399
67475W        W39790  42.830  28.011  12.018
67476W        W39791  39.928  41.356  14.806
67477W        W39792  37.531   7.916  14.676
67478W        W39793   6.791  32.853   2.182
67479W        W39794   5.272  21.734   1.356
67480W        W39795   7.482  32.674  14.439
67481W        W39796  17.551   8.300   0.888
67482W        W39797  11.899  10.881   0.069
67483W        W39798  14.593  39.969  10.662
67484W        W39799  39.872  27.256  11.472
67485W        W39800   8.394  35.565   0.485
67486W        W39801   9.189  13.090   0.393
67487W        W39802  38.309  36.433  11.375
67488W        W39803  19.742   2.977  10.537
67489W        W39804  30.881  18.094   4.616
67490W        W39805  17.255  38.279  10.704
67491W        W39806  19.149   5.690   1.865
67492W        W39807  23.537   2.818   0.204
67493W        W39808   8.965  21.915   2.349
67494W        W39809  17.087   2.796  13.549
67495W        W39810  15.298  43.158   3.039
67496W        W39811  23.819  29.388   1.909
67497W        W39812  28.871  22.060   0.343
67498W        W39813  35.021  12.629   9.874
67499W        W39814  25.129  11.601  10.936
67500W        W39815   6.355  12.503   9.458
67501W        W39816  26.222   4.620   3.219
67502W        W39817   5.313   9.974  14.261
67503W        W39818   0.987  31.295  13.843
67504W        W39819  15.162   4.921   4.104
67505W        W39820   7.344  19.259   0.292
67506W        W39821  16.705   8.377   4.422
67507W        W39822   3.944   1.575  10.568
67508W        W39823  33.519  10.339   2.851
67509W        W39824  23.494   9.411   3.332
67510W        W39825  42.688   5.533  13.418
67511W        W39826  15.538   3.259  12.122
67512W        W39827  44.294   4.104   4.485
67513W        W39828  12.676  26.624  12.030
67514W        W39829  19.206  32.653   3.803
67515W        W39830  10.596   9.688   0.953
67516W        W39831  22.639  23.682  10.971
67517W        W39832  10.506  24.743   2.971
67518W        W39833  28.576   9.420   2.198
67519W        W39834   0.948   3.755   0.804
67520W        W39835  32.354  27.137  14.482
67521W        W39836  19.796   4.522   1.786
67522W        W39837  27.939  40.251  10.601
67523W        W39838   2.336  29.411  12.965
67524W        W39839  34.778  28.544  11.196
67525W        W39840  29.741  42.482   3.321
67526W        W39841   0.755  43.292   4.272
67527W        W39842  42.945  16.954  13.622
67528W        W39843   6.808   1.411   2.471
67529W        W39844  16.694  38.940  12.374
67530W        W39845  36.404   7.047  11.197
67531W        W39846   8.700   9.425   4.696
67532W        W39847  24.476   7.454   0.919
67533W        W39848  23.655   6.854   3.061
67534W        W39849  37.893  21.618   3.734
67535W        W39850   2.337   7.163   3.373
67536W        W39851  37.027  36.859  11.034
67537W        W39852  32.836  10.686   1.897
67538W        W39853  35.022  34.028  12.355
67539W        W39854  17.510  39.105  14.307
67540W        W39855  19.387  31.018   1.684
67541W        W39856   8.644  20.070  13.437
67542W        W39857  40.893   1.562  11.081
67543W        W39858  15.367  21.621   4.100
67544W        W39859  41.522  30.918  11.998
67545W        W39860   4.276  12.845   4.776
67546W        W39861  33.968   2.689  14.319
67547W        W39862  29.728  29.557  10.247
67548W        W39863  35.669  35.071  14.826
67549W        W39864  19.260  29.751   4.082
67550W        W39865   7.650  23.669   2.234
67551W        W39866  44.168  42.905  14.379
67552W        W39867   1.646   6.400  13.276
67553W        W39868  18.353   3.313  12.423
67554W        W39869  18.349   5.898  13.151
67555W        W39870  11.670  35.567  13.082
67556W        W39871  23.514  12.624   0.166
67557W        W39872  30.124  19.993   2.697
67558W        W39873  35.100  42.786  14.861
67559W        W39874  29.668  19.537  13.472
67560W        W39875  40.870  26.862   4.874
67561W        W39876  18.702   7.388  10.849
67562W        W39877   7.140  28.616  14.222
67563W        W39878  29.499  18.343  11.717
67564W        W39879  33.521  24.232  12.484
67565W        W39880  29.343   1.399   4.978
67566W        W39881   7.744  23.903  11.528
67567W        W39882   7.607   6.969  13.468
67568W        W39883  21.619  19.144   0.858
67569W        W39884   1.102  16.251  10.913
67570W        W39885   5.455  44.241   3.132
67571W        W39886  35.385  35.890   0.199
67572W        W39887   9.360  41.308   4.119
67573W        W39888   5.209  16.167   4.856
67574W        W39889   3.803  30.075   4.380
67575W        W39890   1.395  15.559  11.165
67576W        W39891  17.615  18.894  10.570
67577W        W39892  25.728  33.704  13.388
67578W        W39893  14.188  44.684  12.430
67579W        W39894  36.495  13.338  10.807
67580W        W39895  44.724  22.635   2.790
67581W        W39896  34.358  30.190  14.472
67582W        W39897  19.353  35.179  12.490
67583W        W39898  44.746  31.599  11.600
67584W        W39899   2.753  19.799   4.206
67585W        W39900  31.943   2.453   0.989
67586W        W39901  38.574  38.189   4.669
67587W        W39902   0.463  11.543   1.266
67588W        W39903  24.019  13.164   1.204
67589W        W39904  18.050   3.672  14.542
67590W        W39905  36.577  13.848  10.971
67591W        W39906  42.506   8.039  12.925
67592W        W39907  16.777  25.402   1.249
67593W        W39908  42.882  15.874  13.328
67594W        W39909   3.204  29.132   3.174
67595W        W39910   2.297   6.914   1.647
67596W        W39911  43.533  13.379   3.934
67597W        W39912   2.201  21.509   2.775
67598W        W39913  40.076  33.545  14.245
67599W        W39914  23.719  21.625   9.870
67600W        W39915  26.110  36.966  12.473
67601W        W39916   5.182   1.343  10.684
67602W        W39917  27.022   3.789  10.187
67603W        W39918  36.301  21.160  11.313
67604W        W39919   7.158  35.583  10.734
67605W        W39920  17.833  30.698   3.649
67606W        W39921  32.091  28.053   2.707
67607W        W39922  34.787  29.254  11.724
67608W        W39923  29.131  21.915   1.297
67609W        W39924  38.541  34.478   4.124
67610W        W39925  22.639   8.634   4.191
67611W        W39926  13.488  14.371  12.021
67612W        W39927  31.209   5.745   2.383
67613W        W39928   4.749  31.980   4.319
67614W        W39929  34.588  35.893   4.100
67615W        W39930  20.147  20.841   1.184
67616W        W39931   3.432  29.775  11.273
67617W        W39932   0.237  18.721   1.782
67618W        W39933  29.446  28.644  12.061
67619W        W39934  30.331  30.000  12.243
67620W        W39935  20.262  18.691   3.133
67621W        W39936  28.506  15.319   0.250
67622W        W39937  24.496  15.273   0.182
67623W        W39938  17.038   5.441   2.274
67624W        W39939  42.995   1.296   3.640
67625W        W39940  27.077  25.993  14.415
67626W        W39941  27.312  31.489  13.936
67627W        W39942   3.792  12.509   1.705
67628W        W39943  39.518  28.407   4.251
67629W        W39944   8.455  40.840   1.321
67630W        W39945  21.305  25.986  12.692
67631W        W39946  23.737  26.608  10.657
67632W        W39947   6.454   0.045   0.665
67633W        W39948  39.344  39.050   1.289
67634W        W39949  34.925  13.921  14.860
67635W        W39950  15.143  10.388   4.054
67636W        W39951  29.760  40.808  13.829
67637W        W39952   3.519   3.643  13.607
67638W        W39953  17.067   7.256  10.870
67639W        W39954   0.447  12.569   0.359
67640W        W39955   6.679  33.001  11.249
67641W        W39956  32.368  13.864   2.210
67642W        W39957  26.241   6.745  12.415
67643W        W39958  20.619   9.668   1.488
67644W        W39959  15.291  26.554  13.071
67645W        W39960   7.182  26.063  11.631
67646W        W39961   2.868  14.579   3.420
67647W        W39962  36.027  20.596   4.185
67648W        W39963   7.974  13.062   4.996
67649W        W39964  27.136  35.589  13.318
67650W        W39965  22.930  26.554   4.136
67651W        W39966  13.816  40.125   0.965
67652W        W39967  24.532  27.420  12.393
67653W        W39968  21.593   3.737  10.641
67654W        W39969  36.757  31.333  13.928
67655W        W39970   9.440  16.951   0.011
67656W        W39971   1.372  34.054   4.588
67657W        W39972  38.983  30.568   4.143
67658W        W39973  29.192  28.701  12.518
67659W        W39974   6.242  19.333  12.455
67660W        W39975  38.259  35.545   1.706
67661W        W39976  40.294  34.992   2.186
67662W        W39977  15.972  33.026  13.344
67663W        W39978  20.310  24.705  11.518
67664W        W39979  24.588  11.151  11.441
67665W        W39980   3.344  24.661   0.126
67666W        W39981  38.060  38.868   1.455
67667W        W39982  24.731   4.181   4.596
67668W        W39983  27.832  36.122  12.070
67669W        W39984  16.029  18.203  14.551
67670W        W39985  28.307  20.399  14.796
67671W        W39986  17.671   3.597  12.659
67672W        W39987  26.035  20.758  14.202
67673W        W39988  26.062  28.683  11.946
67674W        W39989  33.541   1.325   3.706
67675W        W39990  12.029  11.342  10.885
67676W        W39991  11.766  33.507   4.192
67677W        W39992   7.771  18.676   0.359
67678W        W39993  19.209  12.962   2.391
67679W        W39994   4.472  21.452   1.114
67680W        W39995  13.547  38.534  14.228
67681W        W39996  33.251   1.839  14.444
67682W        W39997  20.572  25.766   0.312
67683W        W39998  16.580  40.809  12.542
67684W        W39999  35.065  35.895   5.052
67685W        W40000  23.643  30.141  12.086
67686W        W40001  43.785   3.907   1.449
67687W        W40002  20.108  37.256   0.926
67688W        W40003  34.580  23.302  14.931
67689W        W40004  40.469  43.494  10.702
67690W        W40005  18.310   9.175   4.292
67691W        W40006  41.225  30.031  13.078
67692W        W40007  38.669   0.963  11.709
67693W        W40008  32.403  31.169  10.865
67694W        W40009  37.818  30.156  11.189
67695W        W40010  44.247   8.274  11.971
67696W        W40011  40.353  38.462   0.232
67697W        W40012  30.213  25.976   3.229
67698W        W40013  20.215  16.648   3.187
67699W        W40014  25.411  13.870   3.841
67700W        W40015   0.132   7.706  12.799
67701W        W40016  41.034   4.863  14.500
67702W        W40017   1.030  30.184  14.816
67703W        W40018   2.381   6.270   4.053
67704W        W40019  21.785  12.843   2.169
67705W        W40020  28.026  18.276   4.638
67706W        W40021  35.432  37.333   0.288
67707W        W40022   2.247  36.059  14.382
67708W        W40023  19.139  39.562   4.198
67709W        W40024  32.497   0.827  11.545
67710W        W40025   0.202  11.827  14.904
67711W        W40026  41.401  21.062   4.555
67712W        W40027  13.120   0.494   4.603
67713W        W40028  27.888   5.220   3.565
67714W        W40029   6.756  27.620   4.455
67715W        W40030   8.099  43.800   4.021
67716W        W40031  35.163   1.828  10.709
67717W        W40032  15.584   7.753   4.405
67718W        W40033  25.614  36.508   1.148
67719W        W40034  32.801   4.761   2.367
67720W        W40035  31.283  36.848  11.048
67721W        W40036   1.298  28.434   1.889
67722W        W40037  18.777  37.120  11.051
67723W        W40038  36.561  43.402   1.893
67724W        W40039   5.233  14.256   2.362
67725W        W40040  33.537  35.827   2.211
67726W        W40041   2.885   4.454   1.756
67727W        W40042  43.838  30.691  13.445
67728W        W40043   9.372  38.825   4.086
67729W        W40044  27.526  28.378   0.885
67730W        W40045  26.238  40.281   3.056
67731W        W40046   3.462  41.507   3.228
67732W        W40047  39.026  38.087  13.828
67733W        W40048  37.875  42.487   4.688
67734W        W40049  30.095  16.927  14.939
67735W        W40050   4.317  38.629  10.342
67736W        W40051   6.941   7.467  14.132
67737W        W40052   3.756  22.996   1.155
67738W        W40053  27.683   7.225   3.679
67739W        W40054  19.693  43.356  12.618
67740W        W40055   3.421   9.772   0.398
67741W        W40056   1.002  34.076   5.496
67742W        W40057  31.137   4.467   0.693
67743W        W40058  25.336  36.902   0.943
67744W        W40059   8.352  27.699   3.680
67745W        W40060  11.328  15.704  12.427
67746W        W40061  33.514   6.651  11.189
67747W        W40062   4.834  24.950   1.823
67748W        W40063  37.431  30.061   2.694
67749W        W40064  22.566  36.445   1.733
67750W        W40065  35.059  20.899  13.971
67751W        W40066  20.296   9.616   2.379
67752W        W40067  33.991  34.592   1.662
67753W        W40068  30.693  37.128   0.212
67754W        W40069  44.903  42.221  11.544
67755W        W40070  16.769  27.493   2.211
67756W        W40071   5.710   3.468   3.575
67757W        W40072  25.097  16.766  10.709
67758W        W40073  39.603  17.659   3.990
67759W        W40074  11.022  27.569  13.193
67760W        W40075  28.464  17.366  11.560
67761W        W40076  41.308  32.456  13.826
67762W        W40077  16.603  28.523   2.264
67763W        W40078  16.859  44.556   1.085
67764W        W40079  33.029   0.743  14.971
67765W        W40080  20.096  27.452   1.758
67766W        W40081  42.867  36.562   4.252
67767W        W40082  36.925  14.372  14.344
67768W        W40083  10.924   9.247   2.390
67769W        W40084  35.102  16.538  13.371
67770W        W40085  35.139  32.698   1.336
67771W        W40086   7.887  36.178   3.662
67772W        W40087   9.099  11.311   1.324
67773W        W40088   8.995  19.450   2.843
67774W        W40089  40.030  27.017   4.872
67775W        W40090  37.338  19.259  12.159
67776W        W40091  26.673  39.165   3.365
67777W        W40092   9.595  26.018  14.835
67778W        W40093  15.023  40.529  14.766
67779W        W40094  44.734  34.128   4.050
67780W        W40095  19.828  18.289  11.639
67781W        W40096  33.466  44.645   0.338
67782W        W40097   4.018  32.001  11.483
67783W        W40098  39.516  22.582  10.843
67784W        W40099  40.043  25.622  14.193
67785W        W40100   0.402  40.429   2.760
67786W        W40101   3.528  30.104  11.656
67787W        W40102  34.782  12.363   2.838
67788W        W40103  25.033  36.175   0.472
67789W        W40104  35.439   5.621   1.832
67790W        W40105   1.796   6.188   1.768
67791W        W40106  11.455  12.798   1.861
67792W        W40107  31.016  24.483   2.687
67793W        W40108  14.675  35.654   2.147
67794W        W40109  18.078  32.356  14.265
67795W        W40110  38.233  38.274  10.908
67796W        W40111  44.813   0.016  12.906
67797W        W40112  33.372  42.000   3.670
67798W        W40113   4.042  16.626   1.260
67799W        W40114  13.757  27.029  11.169
67800W        W40115  25.027  35.682   0.937
67801W        W40116  31.410   3.288  13.338
67802W        W40117   0.830  17.319   2.619
67803W        W40118   2.525  44.250  10.501
67804W        W40119  42.511  33.407   2.054
67805W        W40120  28.029  10.111   0.758
67806W        W40121  44.030   5.206  14.729
67807W        W40122  24.083  43.970   1.118
67808W        W40123  22.076  29.622  10.695
67809W        W40124  33.093   3.230   3.176
67810W        W40125  33.403  14.067   2.047
67811W        W40126  34.651  15.270  11.196
67812W        W40127   4.744  30.248  11.232
67813W        W40128   7.790  26.731  13.161
67814W        W40129  43.959  20.573  13.003
67815W        W40130  38.540  33.115   2.614
67816W        W40131   9.952   7.341  14.921
67817W        W40132   7.281  22.132  10.592
67818W        W40133  39.423  12.143   3.159
67819W        W40134  35.018  32.101   4.617
67820W        W40135  30.490   4.165   3.294
67821W        W40136  35.003  31.112   0.270
67822W        W40137   7.977  22.985  13.024
67823W        W40138   4.601  10.275  12.036
67824W        W40139  34.114  34.552   0.399
67825W        W40140  21.228  37.590   1.237
67826W        W40141  13.661  40.261   1.656
67827W        W40142  35.320   9.103  13.513
67828W        W40143  30.005  13.740   1.812
67829W        W40144   2.959  18.217   0.760
67830W        W40145  15.239  44.379  11.685
67831W        W40146  23.697  10.081   4.144
67832W        W40147  14.303  38.326  11.179
67833W        W40148  33.684   6.783   3.660
67834W        W40149   0.208  19.967  14.743
67835W        W40150  10.734  36.616   0.944
67836W        W40151   0.328  17.315  10.469
67837W        W40152  23.839  20.129  11.846
67838W        W40153  29.202  18.061  13.353
67839W        W40154  32.096   3.304   2.808
67840W        W40155  13.650  35.903  14.317
67841W        W40156  43.514  17.566   4.456
67842W        W40157   6.188   6.785  14.901
67843W        W40158  18.886  35.114  14.144
67844W        W40159   7.747  13.779   1.866
67845W        W40160  27.402  30.591  13.280
67846W        W40161  32.092  19.473  11.601
67847W        W40162  21.584  10.239   2.374
67848W        W40163  33.363  43.991  12.560
67849W        W40164  40.795  14.772  11.520
67850W        W40165  14.188  36.762   0.113
67851W        W40166  15.610  18.003  11.162
67852W        W40167   7.696  30.510  13.815
67853W        W40168   3.787  32.211   2.745
67854W        W40169   1.410  34.021  13.092
67855W        W40170  14.575  32.110  13.004
67856W        W40171  44.326  22.253   3.763
67857W        W40172  40.267  39.710  14.355
67858W        W40173  35.609  38.453   3.806
67859W        W40174  34.334   4.619   0.820
67860W        W40175  19.675  22.277   1.732
67861W        W40176  31.076  39.904  14.460
67862W        W40177  31.662   8.793   1.404
67863W        W40178  40.749  14.394   4.508
67864W        W40179   9.055  42.365   0.884
67865W        W40180   7.595  29.614   4.132
67866W        W40181  33.626   9.865  11.648
67867W        W40182  43.579   1.568   1.930
67868W        W40183  27.407  17.070   1.772
67869W        W40184  24.068  13.602   3.160
67870W        W40185  41.333   2.252  13.899
67871W        W40186   4.177  22.659   3.618
67872W        W40187  20.111  14.128  11.761
67873W        W40188  34.577   6.291   0.046
67874W        W40189  26.356  15.837   4.518
67875W        W40190  37.824  26.420  11.907
67876W        W40191   0.956  13.380   1.370
67877W        W40192   1.052  31.842  13.042
67878W        W40193   5.847  25.539  10.470
67879W        W40194  15.303   0.307  10.741
67880W        W40195   3.726  13.652  12.006
67881W        W40196  30.039  44.069  14.438
67882W        W40197  44.808   7.303  12.595
67883W        W40198  16.676  36.003   2.213
67884W        W40199  10.408   4.501   1.849
67885W        W40200  21.719  14.340  11.733
67886W        W40201  28.553  13.386  12.829
67887W        W40202  13.704  18.076   0.647
67888W        W40203  37.835  14.628   1.904
67889W        W40204  15.805  44.723   3.654
67890W        W40205  24.673   7.230   2.225
67891W        W40206  26.677  34.433  10.340
67892W        W40207  23.197  15.412   0.488
67893W        W40208  18.312  44.925  10.823
67894W        W40209  22.586  32.437   4.155
67895W        W40210  24.843  13.139  12.999
67896W        W40211  14.255  15.251  12.915
67897W        W40212  37.795  42.311  10.578
67898W        W40213  38.395  39.879  14.283
67899W        W40214  13.638   4.776   1.328
67900W        W40215   4.237  21.773  12.879
67901W        W40216   0.979  16.216   2.361
67902W        W40217   4.010  23.895  14.474
67903W        W40218  40.408   6.606   0.672
67904W        W40219  31.944  26.887   4.812
67905W        W40220   0.558  20.296   4.761
67906W        W40221  43.556  22.634   4.853
67907W        W40222   6.963  36.019   4.563
67908W        W40223  28.171  24.620   4.041
67909W        W40224  30.919  16.670   1.951
67910W        W40225  33.549  35.381   2.482
67911W        W40226  24.440  31.963   0.715
67912W        W40227   3.663  15.215   3.801
67913W        W40228  20.730  24.007  12.376
67914W        W40229  32.441   9.762  10.601
67915W        W40230   2.314  23.823   3.760
67916W        W40231  15.221   9.653  14.026
67917W        W40232   5.202  18.159   3.726
67918W        W40233  43.514  22.972  14.091
67919W        W40234  30.185  30.155   0.509
67920W        W40235  33.202  40.086  10.655
67921W        W40236  27.227  40.369  10.087
67922W        W40237  31.979   1.825  14.848
67923W        W40238  32.684  19.167   4.193
67924W        W40239  34.101  35.099  12.283
67925W        W40240  36.347  40.119  13.493
67926W        W40241   5.943  44.786  11.850
67927W        W40242   9.384   9.747   3.572
67928W        W40243   0.984   2.914  13.483
67929W        W40244   8.286   5.133   2.739
67930W        W40245  29.461  18.069   0.475
67931W        W40246  36.114  37.089  11.958
67932W        W40247  10.978  22.758   3.612
67933W        W40248  36.195  39.314  11.054
67934W        W40249   6.310   5.800   0.955
67935W        W40250  35.631   2.949   2.388
67936W        W40251   5.151  36.788   1.342
67937W        W40252  40.017  35.325  12.539
67938W        W40253  36.078  16.817  11.196
67939W        W40254  42.446  16.098   2.822
67940W        W40255   2.396  12.695  11.416
67941W        W40256   8.297  10.748   4.135
67942W        W40257   1.310  37.515   4.659
67943W        W40258   3.213  18.218   0.299
67944W        W40259  39.004  34.751  10.706
67945W        W40260  26.661  15.213  13.448
67946W        W40261  34.510  25.154  10.641
67947W        W40262  38.071  15.820   2.568
67948W        W40263  11.730  28.219   4.201
67949W        W40264  21.696  29.104   3.157
67950W        W40265  22.523  29.502  12.940
67951W        W40266  14.279  44.837   3.637
67952W        W40267   6.829   1.435   4.363
67953W        W40268  29.425  33.916  14.444
67954W        W40269  32.719  23.820  12.987
67955W        W40270  19.516  36.023   1.758
67956W        W40271  23.239  17.078  11.944
67957W        W40272   7.453  22.487  12.437
67958W        W40273  37.915  37.239  12.253
67959W        W40274  38.833   5.324   0.280
67960W        W40275   6.880   5.317  13.900
67961W        W40276  43.371   2.947  10.729
67962W        W40277  40.464  30.490   0.923
67963W        W40278  19.011  37.572  11.115
67964W        W40279   3.604  35.996   4.221
67965W        W40280  34.972  21.039  10.661
67966W        W40281  27.973  26.722   2.298
67967W        W40282   0.801  35.600  13.984
67968W        W40283   0.421  27.242  12.412
67969W        W40284  37.617  40.501   1.423
67970W        W40285   3.001  20.754  12.880
67971W        W40286   4.904   3.663  14.763
67972W        W40287   4.811  30.010  10.744
67973W        W40288  37.109   8.241   4.190
67974W        W40289  30.581  31.541   3.091
67975W        W40290  25.754  12.921   3.651
67976W        W40291  26.254   9.148  12.200
67977W        W40292  37.322   6.006  12.907
67978W        W40293  20.607  39.882   0.902
67979W        W40294  24.455   3.729  10.547
67980W        W40295  15.843  33.588  14.437
67981W        W40296  28.832  20.943  11.020
67982W        W40297   7.555   2.148   0.680
67983W        W40298  15.495  11.610   4.163
67984W        W40299  44.822  21.153  10.480
67985W        W40300   3.155  41.447  14.929
67986W        W40301   9.403  37.888  13.950
67987W        W40302  30.056  35.862   2.748
67988W        W40303   4.873  28.588   3.019
67989W        W40304  14.103  36.486   5.128
67990W        W40305  34.317  39.541  10.553
67991W        W40306   9.368   0.872  12.146
67992W        W40307  41.606  25.006   1.350
67993W        W40308   9.143   3.512   4.385
67994W        W40309  34.317  43.013   3.229
67995W        W40310  18.319   3.535  11.939
67996W        W40311   1.164  16.292   4.850
67997W        W40312  36.343  37.013   1.455
67998W        W40313  43.944  25.714  10.656
67999W        W40314  31.638  40.076   4.652
68000W        W40315   3.797  39.876   1.024
68001W        W40316  30.608   1.912   2.755
68002W        W40317  40.337  42.046   1.057
68003W        W40318  11.115   8.725  12.871
68004W        W40319  43.333   3.051  14.881
68005W        W40320  26.621  29.343   2.273
68006W        W40321  38.338  41.057  12.434
68007W        W40322  30.399  43.742  14.201
68008W        W40323  10.657  10.663  14.379
68009W        W40324  42.388  34.358   1.675
68010W        W40325  34.065  32.080  13.625
68011W        W40326  16.861  29.892  11.522
68012W        W40327   2.010  39.304  14.331
68013W        W40328   1.760  13.312   3.387
68014W        W40329  28.732   7.479  11.533
68015W        W40330  30.895  40.587   2.751
68016W        W40331  38.272  44.851  13.546
68017W        W40332  36.290  32.573   1.938
68018W        W40333  25.586  16.593   1.243
68019W        W40334  27.556  31.178   1.430
68020W        W40335   3.922   1.432   3.773
68021W        W40336  41.836  15.097  12.943
68022W        W40337  22.698  44.501  11.569
68023W        W40338  42.631   6.861   2.243
68024W        W40339  31.841  34.043  12.903
68025W        W40340  23.326  39.327   3.318
68026W        W40341  26.739  20.026   2.457
68027W        W40342  32.544   6.756   1.303
68028W        W40343  13.409   7.287  11.098
68029W        W40344  18.137  26.654  13.777
68030W        W40345  27.567  24.796  12.961
68031W        W40346  21.146  18.011   3.208
68032W        W40347  18.746  39.906  10.666
68033W        W40348  29.613  16.023  10.961
68034W        W40349  37.411  17.029  13.591
68035W        W40350  13.098  19.031   2.311
68036W        W40351   1.643   2.817   0.235
68037W        W40352   8.158  21.764   4.610
68038W        W40353  38.866  24.196   0.043
68039W        W40354  42.906  38.329   0.950
68040W        W40355  27.551  21.207   0.854
68041W        W40356   4.847  22.747   4.099
68042W        W40357  43.392  37.297   2.631
68043W        W40358   8.292   7.422  12.794
68044W        W40359   1.554  19.197  13.368
68045W        W40360  35.071   7.682  11.258
68046W        W40361  16.051  13.617  14.312
68047W        W40362  22.216   7.336  10.723
68048W        W40363  26.477  13.144   1.170
68049W        W40364  31.545   0.407  11.959
68050W        W40365  11.390   0.930  12.517
68051W        W40366  19.943   1.234  14.426
68052W        W40367  29.213  44.439   0.372
68053W        W40368   3.521  17.530  13.964
68054W        W40369   3.118  28.611  10.741
68055W        W40370  28.009  34.574   4.519
68056W        W40371  38.780  17.175   0.873
68057W        W40372   1.283  39.060   2.606
68058W        W40373  34.656  17.784   1.367
68059W        W40374  21.529  38.871  11.998
68060W        W40375   7.724  24.430  11.572
68061W        W40376  14.144  40.892   4.542
68062W        W40377   0.192  11.139  11.480
68063W        W40378  31.607  21.782   4.193
68064W        W40379  13.692  31.485  12.026
68065W        W40380  19.286  12.767  10.933
68066W        W40381   6.287   9.592   4.140
68067W        W40382  16.079  32.104   0.767
68068W        W40383  17.639  24.941   0.340
68069W        W40384  25.524  26.764  12.049
68070W        W40385  32.596  43.500  13.974
68071W        W40386  33.251  25.841   0.292
68072W        W40387  16.326  22.659   1.804
68073W        W40388   1.446  29.360   2.830
68074W        W40389  43.983  21.627  11.806
68075W        W40390  34.874  10.627   2.010
68076W        W40391  41.276  13.848  13.028
68077W        W40392   2.318  12.216   3.318
68078W        W40393  31.521  26.484  13.435
68079W        W40394  23.168  17.223   0.136
68080W        W40395  28.551  31.635   0.062
68081W        W40396   4.407   3.260  13.968
68082W        W40397  17.229  24.005  11.931
68083W        W40398  39.499  16.741   2.312
68084W        W40399  44.243  18.898  14.538
68085W        W40400  43.450  35.558  10.905
68086W        W40401  12.168   5.130  12.145
68087W        W40402  12.784  23.986   3.640
68088W        W40403   3.185  42.915   1.827
68089W        W40404  11.094  22.114   3.264
68090W        W40405  23.076  11.173   1.887
68091W        W40406   6.382   4.859   3.335
68092W        W40407   7.140  28.619   3.904
68093W        W40408  34.295  10.735   0.081
68094W        W40409  35.412  24.604   1.911
68095W        W40410  44.018  29.974  12.105
68096W        W40411  27.598  38.341   3.780
68097W        W40412   7.839   0.155   2.965
68098W        W40413  27.247   6.769   2.881
68099W        W40414   1.963  20.061  11.527
68100W        W40415  36.071  24.034  12.913
68101W        W40416   3.786  30.493   1.248
68102W        W40417  33.704  14.759   1.264
68103W        W40418  26.302  40.125  12.640
68104W        W40419  39.011   8.595   0.384
68105W        W40420  11.814  10.666  11.403
68106W        W40421   8.042   3.708  12.525
68107W        W40422  12.237  25.279   0.831
68108W        W40423  35.368   6.734   4.541
68109W        W40424   7.772   7.712   4.880
68110W        W40425  25.965  29.065   4.655
68111W        W40426  32.403   1.212  14.566
68112W        W40427  33.578  21.728  13.275
68113W        W40428  10.866   7.245   3.236
68114W        W40429  42.022  22.069  12.527
68115W        W40430  38.274  24.066  14.225
68116W        W40431   6.474   2.179  14.191
68117W        W40432  27.590  21.125  11.984
68118W        W40433  11.329  40.891   2.691
68119W        W40434   7.381  36.936   3.736
68120W        W40435  19.870  27.911   0.468
68121W        W40436  38.091  21.202   4.528
68122W        W40437  12.217   3.620  12.880
68123W        W40438  37.813  24.287   0.260
68124W        W40439  44.752  20.640   1.501
68125W        W40440  37.923   4.588   4.462
68126W        W40441  17.715   3.782  13.149
68127W        W40442  21.713  20.760  10.953
68128W        W40443  25.211   3.157  14.816
68129W        W40444  28.043  19.336   4.671
68130W        W40445  33.774  18.322   0.468
68131W        W40446  24.139  11.644  10.914
68132W        W40447  17.329   0.245   4.589
68133W        W40448  24.760  43.085  13.297
68134W        W40449   2.050   0.815  10.709
68135W        W40450  42.762  42.808   4.076
68136W        W40451  37.351  12.191   3.157
68137W        W40452  33.348  16.546  13.493
68138W        W40453  38.648  21.722  12.724
68139W        W40454  13.186   5.481   2.179
68140W        W40455  38.957  38.748   9.944
68141W        W40456   0.355   4.679  11.936
68142W        W40457  39.349  44.785   0.551
68143W        W40458  39.486  40.542  11.514
68144W        W40459   9.396  28.133  14.484
68145W        W40460   6.887   3.221  13.547
68146W        W40461   6.253   1.944  14.981
68147W        W40462  30.453  35.125   3.183
68148W        W40463  37.827  40.930   1.619
68149W        W40464  28.038   6.225   2.174
68150W        W40465  11.393  43.351   1.701
68151W        W40466  20.081  28.765  10.415
68152W        W40467   2.426  24.861   4.724
68153W        W40468  24.617  31.638  12.404
68154W        W40469   0.931  13.374  13.473
68155W        W40470   1.310  24.354   2.116
68156W        W40471   4.902  13.680   0.401
68157W        W40472  13.080  20.789  12.516
68158W        W40473  38.970  16.150   1.233
68159W        W40474   0.458   7.181  11.126
68160W        W40475  32.705   1.958   2.737
68161W        W40476   8.146   0.560   4.620
68162W        W40477   5.336   3.915  13.058
68163W        W40478  23.765  27.168  10.354
68164W        W40479  11.778   3.319   4.633
68165W        W40480  28.873  32.997   2.696
68166W        W40481  21.126   1.861   3.400
68167W        W40482  10.034   4.174  11.545
68168W        W40483  15.373  33.836   2.822
68169W        W40484  28.703  16.599   4.265
68170W        W40485   5.879   7.598   5.013
68171W        W40486  14.727  14.732  12.129
68172W        W40487  39.493   9.740   4.563
68173W        W40488  13.200  22.960   2.924
68174W        W40489  29.093  42.457  13.049
68175W        W40490   3.868   1.729  11.581
68176W        W40491   5.203  32.080   4.038
68177W        W40492   8.383  14.654   2.727
68178W        W40493  24.922  34.178  14.464
68179W        W40494   4.301  12.262  11.210
68180W        W40495  17.828  39.416   1.228
68181W        W40496  23.502   3.389   0.794
68182W        W40497  17.161  38.559   0.201
68183W        W40498  32.658  22.235   3.757
68184W        W40499  10.414  18.078  13.025
68185W        W40500   5.843  24.729   1.242
68186W        W40501   9.223  12.694  10.838
68187W        W40502   0.858  21.095   4.127
68188W        W40503  20.284  10.429   0.066
68189W        W40504  18.044  44.763   4.576
68190W        W40505  18.529  25.497   0.462
68191W        W40506  40.935  19.687   3.095
68192W        W40507  39.489   7.036   0.695
68193W        W40508   8.365  19.873  13.856
68194W        W40509  42.514   6.630   3.295
68195W        W40510  18.641   3.482  11.139
68196W        W40511  39.064  14.610   1.787
68197W        W40512  44.225  13.074  10.010
68198W        W40513   9.195  18.981  10.551
68199W        W40514  41.471  41.022  11.060
68200W        W40515  16.793  11.815  11.447
68201W        W40516  30.667  29.372  14.402
68202W        W40517   1.963  11.861  11.413
68203W        W40518   3.322  19.766  11.977
68204W        W40519  42.796  14.369  10.934
68205W        W40520  32.204   1.139  11.224
68206W        W40521  40.670  26.936  11.167
68207W        W40522  14.251  18.228   1.848
68208W        W40523  18.774   3.535  12.146
68209W        W40524  39.873   8.528  12.054
68210W        W40525  17.362  29.508  14.876
68211W        W40526   8.794  10.955  13.492
68212W        W40527  14.665  14.908   3.375
68213W        W40528  40.416  18.751  14.585
68214W        W40529   9.872  16.520   9.762
68215W        W40530  14.285   8.077  12.149
68216W        W40531   7.938  12.672   1.046
68217W        W40532  14.185  22.067   1.450
68218W        W40533  15.251   9.161   5.028
68219W        W40534  12.084  20.622  12.436
68220W        W40535  33.071  30.007  11.949
68221W        W40536   8.697   7.329  11.912
68222W        W40537  29.294  41.555  12.811
68223W        W40538  27.722  41.090   1.334
68224W        W40539   5.260  28.102  10.682
68225W        W40540  19.572  29.751  11.057
68226W        W40541  28.081   1.217   3.125
68227W        W40542  19.329  17.726  10.419
68228W        W40543  26.387  37.849   2.676
68229W        W40544  39.798  44.779   0.284
68230W        W40545  38.881  16.751   4.796
68231W        W40546  25.476  26.283  13.143
68232W        W40547  22.069  24.636   2.296
68233W        W40548   2.198  32.128   3.232
68234W        W40549  41.098  37.603  12.664
68235W        W40550  25.938   7.137   5.061
68236W        W40551  10.663  27.930  11.511
68237W        W40552   7.161  25.293  12.092
68238W        W40553  15.681  24.848  14.564
68239W        W40554  31.191  12.584  14.484
68240W        W40555  18.166   1.412   2.437
68241W        W40556  18.371  13.571  10.772
68242W        W40557  36.030  10.431   4.600
68243W        W40558  31.166  18.141  12.910
68244W        W40559  36.389   5.540   1.689
68245W        W40560  22.203  39.764  11.592
68246W        W40561  39.305  39.418   3.125
68247W        W40562  23.988  18.135  10.473
68248W        W40563   5.314  21.569   2.731
68249W        W40564  43.316  15.416  11.599
68250W        W40565  27.172  29.352   0.226
68251W        W40566  41.785   9.407   0.309
68252W        W40567  11.874  30.018  14.965
68253W        W40568  36.170   3.867   2.495
68254W        W40569  28.257  23.574   0.837
68255W        W40570   9.712  13.707   1.005
68256W        W40571   8.235  39.420   4.649
68257W        W40572  31.304  10.343  12.363
68258W        W40573   5.483  32.595  12.100
68259W        W40574  26.051  11.614  10.778
68260W        W40575  18.838  20.574   4.287
68261W        W40576   5.354  34.021  11.900
68262W        W40577   0.359   4.349   0.407
68263W        W40578  44.531  31.367  11.146
68264W        W40579  31.642  26.650  14.335
68265W        W40580  44.010  17.996  14.960
68266W        W40581  43.447  15.145  13.395
68267W        W40582  11.319  27.285   0.922
68268W        W40583  32.827   5.906   3.308
68269W        W40584  11.179   2.391   3.691
68270W        W40585  29.948  28.603  14.519
68271W        W40586   3.010  19.468  11.688
68272W        W40587  22.706  21.632   5.098
68273W        W40588  43.988  37.526  13.933
68274W        W40589  13.300   8.957  13.401
68275W        W40590  29.112  18.339  11.099
68276W        W40591  23.494  43.303  14.009
68277W        W40592  25.269  17.856  10.810
68278W        W40593  43.262  40.902  14.363
68279W        W40594   8.646  20.032  11.527
68280W        W40595  13.740   7.246   3.403
68281W        W40596   7.202   0.936   2.417
68282W        W40597  40.063  37.976   3.171
68283W        W40598   4.527  25.026  14.206
68284W        W40599  32.551  24.431  12.153
68285W        W40600  41.497   6.124   0.907
68286W        W40601  36.374  20.755   3.511
68287W        W40602  24.118  44.939   2.839
68288W        W40603  21.239  32.837  12.431
68289W        W40604  34.138  37.392   3.136
68290W        W40605  26.765  17.418  14.963
68291W        W40606  36.366  12.201   2.179
68292W        W40607  29.264   9.952   4.730
68293W        W40608  37.278  27.484  10.769
68294W        W40609  29.347  40.250   4.066
68295W        W40610  13.714  34.481   3.339
68296W        W40611  16.989  13.277  11.535
68297W        W40612  13.997  41.832  10.629
68298W        W40613   8.845   4.881  12.103
68299W        W40614  20.007  35.658   0.307
68300W        W40615  38.575  34.940   3.057
68301W        W40616  15.523  12.066  13.797
68302W        W40617   4.418   6.958   1.281
68303W        W40618   9.290  19.179  11.341
68304W        W40619   8.173  29.451   3.320
68305W        W40620   8.400  14.215  12.083
68306W        W40621  36.497  22.165   2.159
68307W        W40622   5.859   3.189  14.952
68308W        W40623  25.783  28.906   4.206
68309W        W40624  33.326  12.446   4.360
68310W        W40625  26.094   8.950  13.653
68311W        W40626  14.583  30.907   3.243
68312W        W40627  40.809   7.989   1.822
68313W        W40628   9.862  40.379   4.293
68314W        W40629   8.433  40.523  14.893
68315W        W40630  32.727  18.829   4.581
68316W        W40631  13.781  32.621   3.675
68317W        W40632   9.276  20.827   1.921
68318W        W40633   2.320  32.639   2.260
68319W        W40634  43.780  20.003   0.744
68320W        W40635  24.527  26.641  13.943
68321W        W40636  25.992  21.747   0.873
68322W        W40637  24.688  43.567   3.645
68323W        W40638  18.794  24.948   0.715
68324W        W40639  43.524  14.522   0.003
68325W        W40640  41.525   3.249   3.155
68326W        W40641   9.678   3.197  14.951
68327W        W40642  32.967  19.824   2.905
68328W        W40643  13.374   7.536   3.623
68329W        W40644  22.642  41.828  11.664
68330W        W40645  37.909  25.620  10.852
68331W        W40646  41.944   6.351   4.237
68332W        W40647  15.518  43.995   4.217
68333W        W40648   5.908   8.115   1.507
68334W        W40649  26.268  20.862  12.682
68335W        W40650  15.678  28.691  11.096
68336W        W40651  36.178  25.503  11.905
68337W        W40652  35.244  17.264  12.039
68338W        W40653   0.673  17.760   4.089
68339W        W40654   9.612   9.926  10.728
68340W        W40655  37.531  12.427   0.970
68341W        W40656   1.452   6.196  14.356
68342W        W40657  14.778  18.657   4.839
68343W        W40658  24.019  37.128   0.773
68344W        W40659  29.463  43.242   4.861
68345W        W40660   2.815  35.757   1.854
68346W        W40661   5.949  18.609  11.553
68347W        W40662  17.084  28.780  11.322
68348W        W40663  28.316   6.375  14.048
68349W        W40664  34.069  10.358   1.859
68350W        W40665   4.433  19.145   4.622
68351W        W40666  37.194  22.443  11.587
68352W        W40667  42.371  40.746  10.927
68353W        W40668  23.021  21.235  14.893
68354W        W40669  25.987  12.139  13.127
68355W        W40670  33.500   8.204   1.109
68356W        W40671  40.976  42.726  13.815
68357W        W40672   7.307  29.083   3.295
68358W        W40673   1.197  20.701  13.961
68359W        W40674  39.545  29.752  13.029
68360W        W40675  22.605  41.494  13.458
68361W        W40676  38.986  30.468  14.559
68362W        W40677   8.682  28.078  10.786
68363W        W40678  27.290  15.754   2.375
68364W        W40679  12.877  34.839   1.710
68365W        W40680  42.453   2.939   0.353
68366W        W40681   1.847  25.106  12.638
68367W        W40682  28.960  30.281  13.800
68368W        W40683   0.801  25.739  13.083
68369W        W40684  11.569  23.192  10.787
68370W        W40685  32.705  22.485   0.527
68371W        W40686   0.750  25.850  14.467
68372W        W40687   4.320   8.331  12.418
68373W        W40688  13.724  35.585  11.601
68374W        W40689   1.396  12.151  11.217
68375W        W40690  19.253   1.844  11.147
68376W        W40691  40.446  44.614  11.162
68377W        W40692   2.391  32.003  14.952
68378W        W40693   1.707  20.702  14.122
68379W        W40694  17.278  41.616   4.051
68380W        W40695  19.540  12.400   1.806
68381W        W40696   2.154  24.616   2.908
68382W        W40697   7.746  18.225   0.617
68383W        W40698  23.274   6.574   0.710
68384W        W40699  33.597  20.640  13.948
68385W        W40700  14.666  13.084  13.271
68386W        W40701  13.833  38.001  11.129
68387W        W40702  39.514  36.639   4.812
68388W        W40703  22.687  10.385  13.929
68389W        W40704   6.425  14.513  11.892
68390W        W40705  32.384   5.541   1.131
68391W        W40706   8.901   1.975   0.919
68392W        W40707  42.235  31.031   1.403
68393W        W40708  28.170  15.807  14.966
68394W        W40709  14.088  12.466  14.311
68395W        W40710  36.821  23.360  10.702
68396W        W40711  29.923   6.784  14.159
68397W        W40712   7.786  19.056  11.123
68398W        W40713  39.278  23.952  13.947
68399W        W40714   1.449  21.824  11.933
68400W        W40715  42.236  44.729   1.860
68401W        W40716  25.505   0.270   3.554
68402W        W40717  13.188  37.375  10.212
68403W        W40718  25.015  12.752   0.212
68404W        W40719  27.139  20.906  14.107
68405W        W40720  11.277  22.500  12.607
68406W        W40721   0.718  23.188  12.450
68407W        W40722  31.510  26.506  12.487
68408W        W40723  24.645  43.469   4.592
68409W        W40724  14.614  35.049   1.339
68410W        W40725  41.969  32.930   0.984
68411W        W40726  10.267  41.368  13.833
68412W        W40727   8.718  30.578  13.831
68413W        W40728  10.400   9.501   3.694
68414W        W40729  36.126   0.068  13.925
68415W        W40730  11.319  16.187   0.229
68416W        W40731  35.233  24.351  10.677
68417W        W40732   7.331   3.277  14.968
68418W        W40733  30.748   3.815  12.049
68419W        W40734  29.179  15.539  14.126
68420W        W40735  25.586  44.320  12.635
68421W        W40736  18.226  24.699  12.202
68422W        W40737   0.252  40.010  13.325
68423W        W40738  38.909  17.243   1.788
68424W        W40739   6.841  40.191  13.016
68425W        W40740  31.571  34.462   2.821
68426W        W40741   8.346   4.806   0.257
68427W        W40742   7.244  18.434   1.555
68428W        W40743  11.571  14.879  11.176
68429W        W40744  15.638  44.354   1.385
68430W        W40745  43.986  28.744  11.273
68431W        W40746  27.971  17.221   3.443
68432W        W40747  29.703  40.933   4.530
68433W        W40748  27.528  32.097   3.785
68434W        W40749  35.177  33.885   3.338
68435W        W40750  42.941  39.081   0.540
68436W        W40751  31.933  36.061   1.382
68437W        W40752   2.257  32.468   1.744
68438W        W40753  42.503  12.269   4.722
68439W        W40754   6.306  26.132  11.083
68440W        W40755  30.093   9.220   2.431
68441W        W40756  37.014   2.364   0.460
68442W        W40757   6.023  33.592   5.115
68443W        W40758   6.233  41.766   1.827
68444W        W40759   9.080  13.801   1.793
68445W        W40760  16.359   4.174  13.884
68446W        W40761  16.706   9.913   3.664
68447W        W40762  30.885   9.897  13.055
68448W        W40763  22.988  42.019  11.288
68449W        W40764   7.846  35.151   3.726
68450W        W40765   1.475  32.995   0.230
68451W        W40766  25.699  37.474   2.777
68452W        W40767  22.381  13.361   2.231
68453W        W40768  11.355  37.436  12.499
68454W        W40769  26.005  10.143  14.940
68455W        W40770   7.718  21.513   2.125
68456W        W40771   9.441  18.069   0.319
68457W        W40772  18.115  34.045  11.534
68458W        W40773  18.916  33.119   2.416
68459W        W40774  41.006  11.144   0.693
68460W        W40775  34.893  38.045   0.296
68461W        W40776  43.402  19.832   2.146
68462W        W40777  36.992  27.125   1.627
68463W        W40778  33.050   9.168  14.338
68464W        W40779  40.912  25.571   3.334
68465W        W40780  23.951   6.797   1.393
68466W        W40781  40.632  22.116   2.284
68467W        W40782  24.495  28.169   0.372
68468W        W40783  29.790  38.695  14.448
68469W        W40784  29.032  25.193   0.507
68470W        W40785  31.640  34.138   2.144
68471W        W40786  38.467  26.616   9.787
68472W        W40787  34.074   4.142   0.364
68473W        W40788  38.887  23.842  10.218
68474W        W40789  14.816   8.436   0.249
68475W        W40790  15.541  29.453   3.343
68476W        W40791  32.857   4.385  14.995
68477W        W40792  35.473  34.905  14.397
68478W        W40793  43.505  38.718   2.643
68479W        W40794  30.602  25.297   2.758
68480W        W40795  44.259  19.576  12.960
68481W        W40796  10.336  37.870   1.826
68482W        W40797   4.921  10.576   2.497
68483W        W40798  25.692  23.151  11.452
68484W        W40799  38.387  38.840  14.671
68485W        W40800   2.596  44.590   3.646
68486W        W40801   4.274  33.400  13.204
68487W        W40802  40.837  27.006   2.820
68488W        W40803  13.208  40.878   4.583
68489W        W40804  22.958   5.506   0.965
68490W        W40805  17.259  16.677  12.221
68491W        W40806  14.443  16.415  13.424
68492W        W40807  19.788   5.875   3.125
68493W        W40808  14.905  24.094   0.826
68494W        W40809  11.417   1.622   4.316
68495W        W40810   2.881  28.203   4.951
68496W        W40811  32.066  30.106  14.246
68497W        W40812  13.541  10.488  14.434
68498W        W40813  40.105  21.904  10.689
68499W        W40814  28.007  14.023  14.471
68500W        W40815  28.008  20.007   1.085
68501W        W40816  19.991  15.028   4.227
68502W        W40817  15.544  15.089  11.596
68503W        W40818  40.521  29.952  14.736
68504W        W40819  28.076  19.316   2.863
68505W        W40820  23.239  19.154  11.438
68506W        W40821  39.765   6.382  10.563
68507W        W40822  21.600  17.589   4.106
68508W        W40823  11.081   0.761  12.951
68509W        W40824  39.964   8.085   3.574
68510W        W40825  26.184  37.390  12.134
68511W        W40826  35.850   1.865  13.805
68512W        W40827  40.975  16.000  12.969
68513W        W40828  16.477  33.596  10.840
68514W        W40829  15.013   7.796  13.045
68515W        W40830  14.803  23.445   5.163
68516W        W40831  14.401  13.242  14.001
68517W        W40832  24.316  34.030   4.916
68518W        W40833  22.521  12.827  14.361
68519W        W40834  37.751   9.394   3.895
68520W        W40835  39.000  35.994   1.849
68521W        W40836  31.675   6.863   4.482
68522W        W40837  36.541   1.912   4.609
68523W        W40838  43.938   6.697  11.955
68524W        W40839  25.427   3.396   5.067
68525W        W40840  36.332   9.773  14.594
68526W        W40841  13.225   4.469   4.883
68527W        W40842   8.435  19.683   1.752
68528W        W40843  36.377  40.810  13.976
68529W        W40844  39.273  33.030  11.201
68530W        W40845  26.101   3.017  10.611
68531W        W40846  36.034  35.622   3.158
68532W        W40847  17.614   3.554   2.063
68533W        W40848   9.491  21.814   1.700
68534W        W40849  32.980  16.114  13.497
68535W        W40850  36.844  18.212  11.063
68536W        W40851  30.726  35.971  12.476
68537W        W40852  34.965  34.448  12.649
68538W        W40853  12.168   9.105  13.054
68539W        W40854  19.709  40.976  14.614
68540W        W40855  34.556   4.674  13.992
68541W        W40856  34.188  13.817   1.391
68542W        W40857  32.442   3.774  13.073
68543W        W40858   8.573  39.870  11.157
68544W        W40859   1.290   5.772  11.600
68545W        W40860  29.988  22.098  13.453
68546W        W40861  38.353  17.871   3.906
68547W        W40862  10.196   9.133   0.271
68548W        W40863  36.390  36.621  12.438
68549W        W40864  27.593  44.736  10.567
68550W        W40865  17.180  20.158  12.470
68551W        W40866  17.378  22.676  13.396
68552W        W40867  18.532  40.021  10.220
68553W        W40868  26.498  19.401   0.077
68554W        W40869  35.548  38.197   0.935
68555W        W40870  12.809  39.898  14.623
68556W        W40871  31.153  40.857  13.434
68557W        W40872   8.144  26.284  12.061
68558W        W40873  36.937  41.891  14.225
68559W        W40874  23.123  23.854   2.902
68560W        W40875   2.756  33.602   2.979
68561W        W40876  10.693  36.113   3.874
68562W        W40877  25.513  12.653  13.425
68563W        W40878  29.582  38.431  12.575
68564W        W40879   2.397  32.582   1.227
68565W        W40880  43.000  19.947   0.909
68566W        W40881  32.412  28.097   4.556
68567W        W40882   2.818   9.070  13.080
68568W        W40883  37.009  28.596   0.766
68569W        W40884  20.249   9.561  11.012
68570W        W40885   1.015   7.117  11.079
68571W        W40886  13.046  42.366  13.021
68572W        W40887  36.943  38.300  11.224
68573W        W40888  16.627  41.075   1.219
68574W        W40889   4.278   4.475   3.598
68575W        W40890   6.415   1.319   4.676
68576W        W40891  22.911  15.705  12.157
68577W        W40892  38.407  24.745   0.343
68578W        W40893  11.166  37.134   1.813
68579W        W40894   3.127  42.547   1.384
68580W        W40895  34.840  22.453   1.430
68581W        W40896  31.972  28.603  14.411
68582W        W40897  35.657  38.980   3.717
68583W        W40898  34.794  13.188   4.338
68584W        W40899  18.788  34.457  10.518
68585W        W40900   2.768  43.324  14.076
68586W        W40901  37.127  25.477  14.485
68587W        W40902  40.322  42.790   1.591
68588W        W40903  10.878  33.363   0.774
68589W        W40904  29.781  18.551  12.372
68590W        W40905  32.164  32.359  12.559
68591W        W40906   9.275  22.486  12.949
68592W        W40907  14.884  28.582  12.891
68593W        W40908   9.813   7.913  14.408
68594W        W40909  34.993   9.328   1.698
68595W        W40910  17.638  17.090   0.923
68596W        W40911   2.194  37.012  12.197
68597W        W40912  23.994  35.008  14.857
68598W        W40913  38.576   9.595  14.530
68599W        W40914   1.893   8.244   2.746
68600W        W40915  13.785  24.917  13.042
68601W        W40916  24.525  27.158  14.075
68602W        W40917  44.285  15.343  13.866
68603W        W40918   7.320  24.985  12.540
68604W        W40919  29.988  39.432   0.339
68605W        W40920  39.169  22.173   1.494
68606W        W40921  38.426  29.074   1.785
68607W        W40922  33.563  27.879  11.603
68608W        W40923  13.241  23.291   4.542
68609W        W40924  21.102   3.650   4.169
68610W        W40925  36.592  26.767   4.529
68611W        W40926  26.242  42.404   1.882
68612W        W40927   5.356  11.144  12.968
68613W        W40928  13.957   3.988   1.783
68614W        W40929   4.014  15.590   0.443
68615W        W40930  16.850  40.982   3.684
68616W        W40931  35.600  21.875   4.185
68617W        W40932   5.941  32.858  13.493
68618W        W40933  27.014   7.390   0.293
68619W        W40934   5.976  21.663   3.494
68620W        W40935   5.451  33.804   2.627
68621W        W40936  23.525  31.026   2.848
68622W        W40937  21.355  14.998  12.871
68623W        W40938  15.402  27.590  11.550
68624W        W40939  42.343  39.346   2.280
68625W        W40940  14.664  20.470   2.396
68626W        W40941   3.291  13.432   0.009
68627W        W40942  22.480   8.894  12.953
68628W        W40943   0.235  39.266   1.358
68629W        W40944  23.626  27.241   2.937
68630W        W40945  19.561  24.953   2.162
68631W        W40946  39.808  44.820  11.884
68632W        W40947  21.510  16.928   2.788
68633W        W40948  42.737   4.656   4.510
68634W        W40949  31.494  37.804   3.891
68635W        W40950  17.487  12.131   0.365
68636W        W40951  36.371  26.786  13.670
68637W        W40952  38.124  16.540  11.226
68638W        W40953  36.565   6.877  14.408
68639W        W40954  36.958  24.104   3.754
68640W        W40955  16.502   1.780  11.916
68641W        W40956  39.357   7.674   4.077
68642W        W40957  39.963  44.702  10.958
68643W        W40958  29.132   2.669   2.338
68644W        W40959  44.890  30.044   0.714
68645W        W40960  20.496  18.676  11.257
68646W        W40961  37.882  10.050   1.244
68647W        W40962  23.527  33.444   4.542
68648W        W40963  32.506  23.671  11.655
68649W        W40964  23.439  23.982   3.311
68650W        W40965  29.223  20.183  10.933
68651W        W40966   6.263  16.069   0.342
68652W        W40967  34.594  19.524  14.905
68653W        W40968  42.577  24.132   1.385
68654W        W40969  17.697  36.641  14.803
68655W        W40970  20.140  15.699  12.923
68656W        W40971   4.680   1.269  11.869
68657W        W40972  27.086  35.511  12.825
68658W        W40973  22.155  25.261  13.478
68659W        W40974  33.537  37.338   2.337
68660W        W40975  10.386  20.437   4.508
68661W        W40976  22.428  36.365   3.705
68662W        W40977   3.442  18.609  11.465
68663W        W40978  27.370   4.876   0.803
68664W        W40979  17.811  17.466   0.299
68665W        W40980  17.046  23.496  11.525
68666W        W40981  24.073  18.020   0.162
68667W        W40982   5.366   9.844   3.705
68668W        W40983  12.013  23.358  11.883
68669W        W40984  28.788  30.345   1.514
68670W        W40985  28.680   1.882   3.730
68671W        W40986  10.390  44.908  12.915
68672W        W40987  22.109  14.999  13.927
68673W        W40988  21.873  34.369  13.409
68674W        W40989  15.498   9.496  11.502
68675W        W40990  27.061  16.658   2.292
68676W        W40991   8.893   0.224  11.027
68677W        W40992  16.196   7.377  10.915
68678W        W40993  34.193  30.504  10.641
68679W        W40994  42.815   4.338   2.226
68680W        W40995  35.931  12.909   2.493
68681W        W40996  26.056  31.943  12.815
68682W        W40997   5.960  27.759   4.631
68683W        W40998  32.026  10.239   3.225
68684W        W40999  32.512  22.989  14.441
68685W        W41000  27.343  41.496  12.797
68686W        W41001   8.949  44.431   4.627
68687W        W41002   6.131  31.554   3.693
68688W        W41003  21.715  38.780   1.765
68689W        W41004  12.901  11.383   4.701
68690W        W41005   9.149  27.462   0.819
68691W        W41006  18.604  42.859   2.214
68692W        W41007  17.568  21.215  14.182
68693W        W41008  26.960   9.231   1.202
68694W        W41009  40.848  28.210   1.323
68695W        W41010  13.566   6.337  13.986
68696W        W41011  14.853  44.197  12.032
68697W        W41012  29.524  43.302   4.283
68698W        W41013   2.772  16.325   3.774
68699W        W41014   0.978  19.803   0.326
68700W        W41015  28.028  33.232  14.208
68701W        W41016  22.571  18.274   3.816
68702W        W41017  39.370  10.794  13.450
68703W        W41018  36.134  32.397   1.459
68704W        W41019  38.759   0.563   2.188
68705W        W41020  23.541   8.738   3.802
68706W        W41021   6.552  18.710   1.008
68707W        W41022  29.316  32.914  12.499
68708W        W41023  11.286   5.175  13.032
68709W        W41024   9.782  21.130  13.095
68710W        W41025  29.548  36.694   3.554
68711W        W41026   5.236  32.501   1.287
68712W        W41027  13.322   0.485  10.597
68713W        W41028   4.095  10.200  11.950
68714W        W41029   2.672  38.474   3.455
68715W        W41030  32.074   2.168   1.690
68716W        W41031  27.264   9.167   1.662
68717W        W41032  15.113  28.226   3.123
68718W        W41033  40.348   5.866   1.730
68719W        W41034  13.606  33.208  13.409
68720W        W41035  29.047   5.469   2.572
68721W        W41036  31.094  28.008   3.213
68722W        W41037  16.811   8.425   1.489
68723W        W41038   8.835  43.871  14.382
68724W        W41039  31.038  19.374   4.109
68725W        W41040  20.772  20.232  12.331
68726W        W41041  24.970  19.562  11.201
68727W        W41042  13.287  41.096  13.446
68728W        W41043  23.201  41.088   1.878
68729W        W41044   6.854   7.366   2.045
68730W        W41045  36.351  25.826  13.490
68731W        W41046  42.011   9.083  12.396
68732W        W41047  39.049   8.238   2.268
68733W        W41048  23.780   5.835  13.581
68734W        W41049  11.425  20.498  14.990
68735W        W41050  24.027  10.317  10.716
68736W        W41051  13.064   4.166   3.335
68737W        W41052  29.912  35.320   0.727
68738W        W41053  34.859   3.300   3.732
68739W        W41054  24.516  40.610  12.233
68740W        W41055  23.677  12.218  12.389
68741W        W41056  16.343  40.449  11.577
68742W        W41057  41.241  29.989   4.053
68743W        W41058  21.652  11.547  11.154
68744W        W41059  37.034  31.938  12.015
68745W        W41060  24.786  30.041  11.085
68746W        W41061  17.231  37.098  13.960
68747W        W41062   2.457  38.089   4.525
68748W        W41063   0.149  21.279  13.465
68749W        W41064  30.673  12.741   0.728
68750W        W41065  14.689   0.786  12.686
68751W        W41066  22.715  24.481  14.607
68752W        W41067   4.532  12.418  10.569
68753W        W41068  15.272  16.222  14.812
68754W        W41069  36.437  28.155  13.077
68755W        W41070   5.219   8.289  12.877
68756W        W41071  29.598   8.611   4.164
68757W        W41072  23.718  44.883   3.331
68758W        W41073  26.277  10.275  11.112
68759W        W41074  16.447  31.963  12.632
68760W        W41075  38.845  24.263   3.361
68761W        W41076   4.252   3.145   4.072
68762W        W41077   1.882  42.535  13.941
68763W        W41078   1.947  26.001  12.478
68764W        W41079  16.702  20.517  13.101
68765W        W41080  17.795  44.473  11.255
68766W        W41081   5.800   1.956   4.901
68767W        W41082   6.751  24.714  12.392
68768W        W41083  31.413   3.817   2.881
68769W        W41084  15.381  28.446   5.292
68770W        W41085  34.129  19.033   2.016
68771W        W41086  19.962  34.377   0.359
68772W        W41087  32.159  18.712   3.747
68773W        W41088  31.127  23.029  11.515
68774W        W41089   7.890   7.720  11.162
68775W        W41090  37.302  21.258  10.835
68776W        W41091  44.051  44.621  10.072
68777W        W41092  15.991  38.513   0.414
68778W        W41093  40.929   0.037   0.322
68779W        W41094  19.723  29.211  11.575
68780W        W41095  26.403  18.171   3.619
68781W        W41096  11.732  22.214   3.851
68782W        W41097  26.926  18.798   2.153
68783W        W41098  43.001  28.612   0.735
68784W        W41099   8.810   7.848  11.641
68785W        W41100   4.887  28.388  12.443
68786W        W41101  36.854  14.598  10.659
68787W        W41102  31.375   2.056  14.213
68788W        W41103  16.367  31.135   5.464
68789W        W41104  28.190  39.028   2.785
68790W        W41105  12.548  12.283   4.958
68791W        W41106  34.006   7.183  10.622
68792W        W41107  38.224  19.038   0.694
68793W        W41108  36.917  31.542  12.827
68794W        W41109  29.696  37.070   2.334
68795W        W41110   4.291   4.469   1.370
68796W        W41111   9.652   4.785  12.484
68797W        W41112  30.337  33.177  13.358
68798W        W41113  36.420   6.700  11.912
68799W        W41114  21.198  44.006   4.917
68800W        W41115   8.114  12.258  11.907
68801W        W41116  11.191  37.020  11.947
68802W        W41117  13.163  20.852   2.839
68803W        W41118  12.789  31.917  11.684
68804W        W41119  22.604   9.406   4.652
68805W        W41120  19.330  18.759   4.991
68806W        W41121   0.693  26.152   3.749
68807W        W41122  19.961  10.513  10.625
68808W        W41123  37.074  29.113  13.966
68809W        W41124  38.510  25.738  11.442
68810W        W41125   2.944  18.337   4.523
68811W        W41126  17.756  27.053  13.079
68812W        W41127  41.254  24.566  13.948
68813W        W41128  31.568  33.980   2.653
68814W        W41129  31.876  25.182   1.762
68815W        W41130   8.797  18.834  11.803
68816W        W41131  15.554  39.107   4.212
68817W        W41132  14.213  30.047   3.150
68818W        W41133  25.891  21.778  12.864
68819W        W41134  28.120  38.712  10.346
68820W        W41135  42.769  24.470   0.376
68821W        W41136  13.551  41.610  14.021
68822W        W41137  37.466  17.562  14.876
68823W        W41138  10.788  11.745  10.668
68824W        W41139  18.121  24.276  14.398
68825W        W41140  21.188   2.422   2.553
68826W        W41141  37.352  30.379  11.130
68827W        W41142  37.846  28.501  13.934
68828W        W41143  22.431  23.563  13.752
68829W        W41144  29.043  10.755  12.105
68830W        W41145   9.410  13.410   1.684
68831W        W41146   3.293  41.138   1.282
68832W        W41147   0.548  32.394   1.166
68833W        W41148  44.992  36.565   2.182
68834W        W41149  17.717  16.719  13.943
68835W        W41150  26.930  27.473  11.020
68836W        W41151  19.555  35.094  10.592
68837W        W41152  23.992  27.301   0.255
68838W        W41153  24.690   0.826   1.633
68839W        W41154  35.603  44.873   0.696
68840W        W41155  27.713   7.376   4.224
68841W        W41156  14.568  41.549  11.589
68842W        W41157  25.592   1.507   2.335
68843W        W41158   0.302  43.970   0.766
68844W        W41159  30.496  44.742  11.564
68845W        W41160   6.194  25.963   4.191
68846W        W41161   1.789  20.285   4.173
68847W        W41162  42.046  16.503  12.269
68848W        W41163  23.836  34.911   4.793
68849W        W41164  26.698  29.982   1.331
68850W        W41165  20.636  44.769   2.805
68851W        W41166  17.547  38.615   2.003
68852W        W41167   4.297  15.924  13.006
68853W        W41168  38.595  12.099  11.397
68854W        W41169   0.599   0.573  13.815
68855W        W41170  43.848  11.083   1.897
68856W        W41171   5.476   5.303  10.871
68857W        W41172   8.368  42.475   3.361
68858W        W41173  21.739  19.711   5.153
68859W        W41174  18.486  35.453   0.360
68860W        W41175  19.646  32.380   3.660
68861W        W41176   8.723  19.774   1.326
68862W        W41177  16.199  31.089   2.472
68863W        W41178  14.315  20.044   4.954
68864W        W41179  14.868  40.444   4.341
68865W        W41180   2.339  20.342   3.119
68866W        W41181  14.431  12.188   1.120
68867W        W41182  13.284  15.085  14.968
68868W        W41183   1.683  33.418   0.504
68869W        W41184   1.244  12.856   3.708
68870W        W41185  28.027   9.349   3.371
68871W        W41186   8.534   4.520  10.073
68872W        W41187   2.938  11.710   1.297
68873W        W41188  29.341  22.218   2.247
68874W        W41189  44.278  39.337  14.449
68875W        W41190  22.520  20.066  13.764
68876W        W41191  19.070  21.743   2.226
68877W        W41192  37.001   7.369  14.204
68878W        W41193  36.120  13.257  14.271
68879W        W41194  44.242   5.112   4.221
68880W        W41195  34.467   1.772   1.880
68881W        W41196  14.075   6.654  12.811
68882W        W41197  27.202  29.656  11.446
68883W        W41198  39.146  34.013  14.522
68884W        W41199  14.352   2.445   4.449
68885W        W41200   0.424  29.588   0.333
68886W        W41201  25.561  22.048  12.044
68887W        W41202  30.922  39.476   0.677
68888W        W41203  15.043  44.699  12.782
68889W        W41204   4.669  22.655  10.711
68890W        W41205   9.201  43.531   2.674
68891W        W41206  13.731  20.747   4.718
68892W        W41207  38.016  30.438   3.747
68893W        W41208   7.305  43.473  10.611
68894W        W41209  25.840  33.506   2.253
68895W        W41210  36.354  28.521   4.380
68896W        W41211  23.831  27.516   0.704
68897W        W41212  21.573  17.881   2.784
68898W        W41213   0.365  13.289   4.624
68899W        W41214   0.773  30.910  12.205
68900W        W41215  18.481  29.918  13.362
68901W        W41216   6.692  42.040   0.155
68902W        W41217   9.711  22.061   3.625
68903W        W41218  41.700  37.857   4.547
68904W        W41219   2.460  26.620  14.412
68905W        W41220  36.863  33.982  13.697
68906W        W41221  33.328  31.256  10.575
68907W        W41222  34.318   0.263   3.822
68908W        W41223  10.891   8.138   2.647
68909W        W41224  41.648   9.751  12.623
68910W        W41225  27.689  33.885   9.778
68911W        W41226   0.444  34.927  11.401
68912W        W41227  36.055  14.353  14.283
68913W        W41228  16.225  28.909   1.240
68914W        W41229   4.900   2.781   3.829
68915W        W41230  14.245  31.807  11.416
68916W        W41231  41.786   0.712  12.828
68917W        W41232  20.966  31.210  11.093
68918W        W41233   4.164  33.852   0.039
68919W        W41234   0.845  22.316   1.674
68920W        W41235  25.512  24.535   1.281
68921W        W41236   1.287   5.225  11.661
68922W        W41237  35.541  22.281   1.894
68923W        W41238  11.134  44.237   4.112
68924W        W41239  17.589  20.171   1.376
68925W        W41240  28.001  33.126  12.347
68926W        W41241   0.229   8.875  14.330
68927W        W41242  28.616  20.236   1.801
68928W        W41243   5.248   8.754   4.559
68929W        W41244  10.505  17.615   1.406
68930W        W41245  40.116   0.456   0.488
68931W        W41246  23.003  41.716   0.243
68932W        W41247  28.731  43.856   1.035
68933W        W41248  41.257  22.071   0.954
68934W        W41249  15.339  34.015  13.514
68935W        W41250  17.770  44.325   3.140
68936W        W41251   7.789   4.553   3.743
68937W        W41252  34.018  38.517  11.400
68938W        W41253  34.599   5.367   2.209
68939W        W41254  32.176  41.010   4.058
68940W        W41255  15.074  11.831  14.813
68941W        W41256  34.104   9.262   4.099
68942W        W41257  23.636  11.549  14.431
68943W        W41258  34.320  24.035  14.339
68944W        W41259  38.225  12.923   2.463
68945W        W41260  14.879  25.340   3.105
68946W        W41261  41.542  16.793   4.459
68947W        W41262  28.518  18.527   4.626
68948W        W41263   7.716  16.204   3.274
68949W        W41264  26.985  37.091  13.012
68950W        W41265  16.575  26.535   2.863
68951W        W41266  10.951  22.352  14.761
68952W        W41267  13.916   9.927  11.071
68953W        W41268  15.678   7.836   4.905
68954W        W41269  38.397   5.262   2.807
68955W        W41270   4.259  43.502   2.637
68956W        W41271  26.849  19.577  10.496
68957W        W41272   2.812  11.221   4.954
68958W        W41273  24.652  21.496   3.178
68959W        W41274  44.553  36.305   1.427
68960W        W41275  30.098  19.915  14.694
68961W        W41276  21.051  42.061   4.600
68962W        W41277   2.018  19.036  13.780
68963W        W41278  44.106  15.284   0.763
68964W        W41279  42.558  36.573  12.104
68965W        W41280  26.003  21.672  14.361
68966W        W41281  25.053  11.654  14.439
68967W        W41282   2.797  11.861  13.827
68968W        W41283  12.854  23.408   0.040
68969W        W41284  26.639  44.977  14.974
68970W        W41285  16.870   4.888  10.261
68971W        W41286  43.793  11.110  13.782
68972W        W41287  26.876  34.028  13.799
68973W        W41288  30.006  11.378  11.900
68974W        W41289  19.359   6.208  14.437
68975W        W41290   1.337   4.941   2.022
68976W        W41291  24.517  38.301  13.985
68977W        W41292   1.020  37.980   0.660
68978W        W41293  11.263  21.459  10.744
68979W        W41294  14.164   1.721   2.143
68980W        W41295   1.563   1.777  11.595
68981W        W41296  18.186   5.940   0.746
68982W        W41297  16.282  31.867   3.691
68983W        W41298  17.648  18.821   0.964
68984W        W41299   2.788  36.121  11.950
68985W        W41300   7.264  24.752  13.913
68986W        W41301  21.981   3.402  10.668
68987W        W41302  20.622  33.497   4.655
68988W        W41303   3.071  26.239  10.176
68989W        W41304   6.439   2.379  12.918
68990W        W41305  17.248  37.296  13.442
68991W        W41306  39.491   3.269  14.513
68992W        W41307  39.049  10.733   0.898
68993W        W41308   7.138   6.128   1.397
68994W        W41309  34.052  12.247   4.581
68995W        W41310  43.960   5.226   1.362
68996W        W41311  16.571  39.124   5.038
68997W        W41312   7.928  19.651   1.679
68998W        W41313  41.330  30.999   3.069
68999W        W41314  32.929   1.258   1.782
69000W        W41315  41.441   7.870   0.699
69001W        W41316  37.686  14.350   4.225
69002W        W41317  37.254   7.391  13.397
69003W        W41318  30.199  21.555  12.499
69004W        W41319  40.254  19.028  13.030
69005W        W41320  17.081   9.644   1.169
69006W        W41321  30.726  16.745   4.794
69007W        W41322   5.783   7.333  13.434
69008W        W41323  12.196  41.321  13.317
69009W        W41324   5.948   8.342  12.193
69010W        W41325   6.831  43.957   2.631
69011W        W41326  33.774  41.616   3.700
69012W        W41327  20.925  21.109  13.348
69013W        W41328  42.022  43.903  10.925
69014W        W41329   1.879   4.570  13.050
69015W        W41330  10.666  14.573   2.983
69016W        W41331   1.210  31.212   2.656
69017W        W41332  35.593  35.724  13.066
69018W        W41333  42.546  24.163  13.840
69019W        W41334  26.749   0.220  11.814
69020W        W41335   3.791  19.519   3.600
69021W        W41336  37.951  38.755   4.294
69022W        W41337  15.372  14.212   2.744
69023W        W41338   7.814  14.783  11.698
69024W        W41339   3.276  29.625   3.759
69025W        W41340   5.429  13.096   2.912
69026W        W41341  35.857  37.774   0.981
69027W        W41342  13.245  10.957   9.973
69028W        W41343  15.761   2.673   0.314
69029W        W41344  12.800  22.171  11.688
69030W        W41345   1.792  32.395  11.224
69031W        W41346  28.112   9.132  10.063
69032W        W41347  39.051  37.175  10.404
69033W        W41348  26.952  23.755   1.343
69034W        W41349  30.119  36.069  10.811
69035W        W41350  23.770  21.676   5.053
69036W        W41351   6.857   9.688   4.649
69037W        W41352   7.498  12.832  11.014
69038W        W41353  23.122  39.868   3.103
69039W        W41354   1.270  29.489   3.324
69040W        W41355  24.026  15.154   0.959
69041W        W41356  26.408  34.606  11.300
69042W        W41357  41.975  23.036   3.055
69043W        W41358  33.206  35.577   3.459
69044W        W41359  23.110  27.921  10.627
69045W        W41360  34.588  10.492  12.408
69046W        W41361  29.513  41.735   0.789
69047W        W41362  29.145  29.520   4.078
69048W        W41363  42.490   5.834   2.200
69049W        W41364  21.674  27.432   2.716
69050W        W41365  21.230  36.906  14.903
69051W        W41366  30.061  16.676  13.023
69052W        W41367  34.970   1.344   0.234
69053W        W41368  42.248   3.409   0.382
69054W        W41369   8.164  34.155   4.253
69055W        W41370   4.888  11.336  12.973
69056W        W41371  14.092  33.873  13.108
69057W        W41372  10.669  18.313  13.449
69058W        W41373  30.088  13.327  10.925
69059W        W41374  35.956   7.655   3.210
69060W        W41375  43.309  30.779   1.392
69061W        W41376  32.137   7.773  12.393
69062W        W41377   5.081  15.996   0.724
69063W        W41378  10.070  19.111  12.515
69064W        W41379  19.935  30.850  10.769
69065W        W41380   3.008  19.001   3.859
69066W        W41381  12.574  43.790   3.324
69067W        W41382  30.667  40.280  12.014
69068W        W41383  16.154   2.211  10.463
69069W        W41384  31.342  23.616  12.893
69070W        W41385   9.549  42.172  14.028
69071W        W41386  25.516  35.832   3.592
69072W        W41387  43.910  17.268   2.592
69073W        W41388  19.292  29.188   1.739
69074W        W41389  19.016  33.462  10.802
69075W        W41390  16.849  42.433   2.824
69076W        W41391  16.611  32.144   2.480
69077W        W41392  43.138  34.739  10.148
69078W        W41393  44.390   5.637   3.291
69079W        W41394   5.823   9.724   2.480
69080W        W41395  34.282  43.287   5.216
69081W        W41396  29.074   8.285   4.894
69082W        W41397  23.260   1.975   0.396
69083W        W41398  25.234  40.319   2.522
69084W        W41399  20.496  18.740   0.891
69085W        W41400  36.063  35.458  10.766
69086W        W41401  23.275  19.225   9.812
69087W        W41402  24.308  25.573  12.570
69088W        W41403   1.299   1.874  12.984
69089W        W41404  27.370  30.133   1.270
69090W        W41405   8.108  37.458   2.708
69091W        W41406  43.005   5.422  13.839
69092W        W41407   1.387  15.897   1.876
69093W        W41408  20.866  13.653  10.820
69094W        W41409  28.655  25.514  13.337
69095W        W41410  29.731  18.745  10.819
69096W        W41411  42.737  10.831  13.541
69097W        W41412  12.347  40.302   0.873
69098W        W41413  17.360  34.201   1.805
69099W        W41414   5.681   8.834   0.871
69100W        W41415   3.221  38.777  13.773
69101W        W41416  23.507  26.103  11.655
69102W        W41417  18.182  15.329  13.702
69103W        W41418  22.298  13.450  12.444
69104W        W41419  19.805  42.727  13.550
69105W        W41420   0.760   9.831  12.871
69106W        W41421  37.857  15.661  10.884
69107W        W41422  14.264  17.360  14.399
69108W        W41423   1.325   8.437   4.124
69109W        W41424  12.208  20.614  11.511
69110W        W41425   9.043  29.019  14.401
69111W        W41426  29.839  42.382   1.469
69112W        W41427  26.181  15.112  11.341
69113W        W41428  22.167  34.054  14.049
69114W        W41429  40.587  13.663  13.899
69115W        W41430  34.989  40.818  12.307
69116W        W41431  44.175  14.058   0.380
69117W        W41432   7.840  10.339  13.447
69118W        W41433   5.559  23.839  12.700
69119W        W41434  44.796  19.832   1.205
69120W        W41435  32.446   1.259   0.462
69121W        W41436  35.580  33.540   4.709
69122W        W41437  24.301  27.782  12.024
69123W        W41438  25.655  22.434  13.494
69124W        W41439  15.847  30.470   1.276
69125W        W41440  21.828   1.626   1.170
69126W        W41441   2.532  33.784   0.964
69127W        W41442  13.158   6.613   3.191
69128W        W41443  42.377   8.132  13.754
69129W        W41444  35.642  25.557   1.825
69130W        W41445  19.790  35.078   4.688
69131W        W41446   8.477  26.862  11.228
69132W        W41447  12.117  21.500  14.812
69133W        W41448  10.309   0.061   0.239
69134W        W41449  24.412  33.020   3.718
69135W        W41450   1.729  18.814  14.552
69136W        W41451  39.798   7.662  10.643
69137W        W41452  38.768  27.024   1.285
69138W        W41453  40.307   3.476  11.597
69139W        W41454  36.788  23.706  11.093
69140W        W41455  40.897   4.444   4.597
69141W        W41456  44.754   6.690  12.548
69142W        W41457  19.737  32.125   4.974
69143W        W41458  42.844  41.246  12.904
69144W        W41459   0.288  12.678   1.808
69145W        W41460  29.667  31.494  12.618
69146W        W41461  16.536  10.706   4.167
69147W        W41462  36.918  41.578   4.755
69148W        W41463  34.640  27.584   4.204
69149W        W41464  11.725  33.745  10.592
69150W        W41465   8.215   7.762  14.108
69151W        W41466  30.181  21.505  10.664
69152W        W41467  23.437   3.677  14.468
69153W        W41468   3.955  16.068  11.116
69154W        W41469  33.505  33.147   2.882
69155W        W41470  23.420  21.558  14.877
69156W        W41471  43.339  35.442   4.571
69157W        W41472  22.173  35.031   2.697
69158W        W41473  21.561  27.575  10.933
69159W        W41474  18.845   0.557   3.740
69160W        W41475  42.784  22.114  12.026
69161W        W41476  37.408  19.631   3.660
69162W        W41477  37.446  19.788   1.271
69163W        W41478  11.128  26.712  12.793
69164W        W41479  17.988  36.959   2.686
69165W        W41480   8.725  17.319  13.917
69166W        W41481   5.829   1.204  11.182
69167W        W41482  16.721  23.633  13.312
69168W        W41483  39.964  17.851   4.301
69169W        W41484  40.282  35.345   2.886
69170W        W41485  11.865  11.139  12.150
69171W        W41486  33.433  30.478  12.077
69172W        W41487  12.217  27.861  14.297
69173W        W41488   2.808   2.940   3.128
69174W        W41489  27.120  43.831  13.430
69175W        W41490   3.862  15.544   2.918
69176W        W41491   3.650  26.798  14.088
69177W        W41492  24.106  33.183  13.050
69178W        W41493  19.519  15.201   3.728
69179W        W41494  44.295  26.594  11.557
69180W        W41495   7.311  42.375  12.083
69181W        W41496   6.758  21.682   4.700
69182W        W41497   1.957  37.003  10.934
69183W        W41498  29.048  30.019   4.127
69184W        W41499  12.291  25.881  12.180
69185W        W41500   2.937  25.631   1.825
69186W        W41501  26.532  30.525  11.499
69187W        W41502  15.779  29.098  12.144
69188W        W41503  25.052  43.883   3.366
69189W        W41504  42.507   7.181  14.535
69190W        W41505   3.827  19.766   1.712
69191W        W41506  29.446  25.265   0.212
69192W        W41507  43.735  22.540  14.260
69193W        W41508  25.554   0.303   4.646
69194W        W41509  34.361  11.384  10.820
69195W        W41510  35.145  25.211  13.312
69196W        W41511  31.218   1.355   3.789
69197W        W41512   7.329   7.088   4.104
69198W        W41513   7.232  33.783   4.889
69199W        W41514   0.492  39.323   3.019
69200W        W41515  25.874  29.296  11.320
69201W        W41516  20.262  20.970  10.122
69202W        W41517  25.592  31.969   3.720
69203W        W41518  44.316   6.204  10.035
69204W        W41519  16.673  34.623  10.612
69205W        W41520   9.060  33.375   4.991
69206W        W41521  18.149  36.200  13.218
69207W        W41522  20.653  20.272  11.829
69208W        W41523  16.703  18.280   2.390
69209W        W41524  17.704   0.216  14.022
69210W        W41525   4.662  25.154   3.861
69211W        W41526   2.221  31.688  10.931
69212W        W41527  18.328   4.879  11.181
69213W        W41528   9.591  17.643  13.595
69214W        W41529  32.171  27.614  14.358
69215W        W41530  36.674  26.595   1.763
69216W        W41531  21.542  14.798   1.137
69217W        W41532  40.868  17.872  11.933
69218W        W41533  11.701  43.793  11.166
69219W        W41534  23.010  14.279  13.198
69220W        W41535  28.596   8.161  13.131
69221W        W41536  19.506  34.399  13.428
69222W        W41537   2.734  29.841   1.065
69223W        W41538  32.149  25.645   0.995
69224W        W41539  30.513  28.474  14.561
69225W        W41540  13.090  18.560  11.987
69226W        W41541  16.739  37.269  12.909
69227W        W41542  33.075  15.742   4.561
69228W        W41543  27.229  21.051   1.249
69229W        W41544  26.555  15.609  12.426
69230W        W41545   6.667   7.515   1.186
69231W        W41546  39.089  26.632   2.848
69232W        W41547  28.982  25.117  13.984
69233W        W41548  43.314  16.968  10.797
69234W        W41549  27.745   0.049  13.362
69235W        W41550   0.244   6.715  11.194
69236W        W41551  43.092  42.142   0.908
69237W        W41552  24.565  37.389  11.049
69238W        W41553  21.968  38.883  13.347
69239W        W41554  11.594   8.191  13.531
69240W        W41555  44.411   7.103   3.273
69241W        W41556   4.742  21.071   0.854
69242W        W41557   0.102   9.586   0.929
69243W        W41558  41.578  38.515  12.006
69244W        W41559   5.709  27.401   2.830
69245W        W41560  39.332  13.617  11.561
69246W        W41561  19.163  21.445  13.920
69247W        W41562  17.263   1.508   1.852
69248W        W41563  27.248  29.183   4.132
69249W        W41564  37.731  22.764   4.995
69250W        W41565  24.505  35.677   2.194
69251W        W41566  42.423   4.259   4.661
69252W        W41567  39.067   5.392  12.902
69253W        W41568  14.461   6.274   0.288
69254W        W41569  40.906  36.026  14.782
69255W        W41570  21.657  16.084  12.472
69256W        W41571  10.661  22.784  13.160
69257W        W41572  44.908  29.936   2.817
69258W        W41573   9.801  39.112   4.832
69259W        W41574   0.948   8.636   1.266
69260W        W41575  13.283  10.127   2.764
69261W        W41576  35.412  21.678  11.462
69262W        W41577  27.154   0.415  11.578
69263W        W41578  42.827  20.058   3.615
69264W        W41579  22.562   7.359  14.254
69265W        W41580   7.152  24.795   1.356
69266W        W41581  18.574  22.535   2.699
69267W        W41582   5.234   8.889  13.788
69268W        W41583  19.541  39.775  11.831
69269W        W41584   8.315  40.820   2.464
69270W        W41585   0.949  37.540  12.120
69271W        W41586  37.420  13.527  12.997
69272W        W41587  25.469  13.704   3.229
69273W        W41588  41.456  22.532   0.786
69274W        W41589  44.884  29.617   4.571
69275W        W41590  35.552  28.020  13.493
69276W        W41591   9.159  44.069   2.223
69277W        W41592   6.110  15.204  10.606
69278W        W41593   0.390  32.884   1.223
69279W        W41594   0.366  23.221   4.576
69280W        W41595  34.555  32.438   1.248
69281W        W41596  41.593  33.127   2.685
69282W        W41597   2.450  14.052  13.534
69283W        W41598   0.732  35.854  14.962
69284W        W41599  42.551  14.803   3.225
69285W        W41600  41.089  15.639  11.247
69286W        W41601  13.077  20.816   4.178
69287W        W41602  11.825  39.860   2.263
69288W        W41603   0.292  42.111   3.701
69289W        W41604  20.468  31.004   4.575
69290W        W41605  44.389   8.344  14.187
69291W        W41606  31.448  11.781  13.889
69292W        W41607  17.804  43.767  11.585
69293W        W41608  25.664  35.087  11.121
69294W        W41609  29.613  34.762  13.482
69295W        W41610  39.956  20.115  14.802
69296W        W41611  34.119   8.335   2.972
69297W        W41612   4.457  29.170   4.597
69298W        W41613  24.468  30.038  11.502
69299W        W41614  41.356  17.717   4.397
69300W        W41615   7.184  27.318   0.524
69301W        W41616   1.177   8.726   0.813
69302W        W41617   3.901  14.096   0.814
69303W        W41618  41.807  21.058   2.186
69304W        W41619  13.179  38.164  12.473
69305W        W41620  28.108   5.258  10.836
69306W        W41621  12.151  29.567   3.289
69307W        W41622  27.802  43.657  10.038
69308W        W41623  23.703  19.781  14.023
69309W        W41624  36.892  27.895   1.300
69310W        W41625  11.881  25.610   2.560
69311W        W41626   4.724  34.624  11.659
69312W        W41627  17.331  14.315   2.864
69313W        W41628   7.322  20.654   2.044
69314W        W41629  24.031   1.443  12.094
69315W        W41630   4.495  19.966   4.978
69316W        W41631   3.067  15.397   0.465
69317W        W41632  33.137  34.008   4.487
69318W        W41633  20.542   1.162   0.289
69319W        W41634  17.261   2.462   1.932
69320W        W41635  20.775   7.972  14.544
69321W        W41636   5.438  16.474   1.153
69322W        W41637   4.726  20.039  13.350
69323W        W41638  43.908   6.881   2.702
69324W        W41639  34.065  23.221  13.847
69325W        W41640  22.930  39.880  14.146
69326W        W41641  27.481  42.208  12.415
69327W        W41642  31.045  16.087   0.393
69328W        W41643  21.904   0.490  11.997
69329W        W41644  33.568  23.462  12.043
69330W        W41645  35.505   7.226  14.257
69331W        W41646  39.074  17.172  14.575
69332W        W41647  24.136  43.746   3.047
69333W        W41648   6.737  18.051   0.716
69334W        W41649  17.996  30.915   4.681
69335W        W41650  26.605  24.020   1.639
69336W        W41651  36.969   3.503   4.526
69337W        W41652  39.770  14.568  11.489
69338W        W41653  34.746  17.257   2.298
69339W        W41654  34.804  20.636   0.374
69340W        W41655  17.263  34.632  11.430
69341W        W41656  21.503  35.384  12.034
69342W        W41657  36.628  40.961   4.255
69343W        W41658  32.903  38.325   0.672
69344W        W41659  29.135  43.792  11.991
69345W        W41660  17.635   1.383  13.391
69346W        W41661  14.541  29.638   3.264
69347W        W41662  13.734  32.924   1.738
69348W        W41663  19.967  18.027   2.172
69349W        W41664  43.174   8.661   2.893
69350W        W41665  44.241  25.883   1.340
69351W        W41666  12.848  12.782  12.500
69352W        W41667  38.918  13.787  12.645
69353W        W41668  20.692   3.302  10.564
69354W        W41669  37.410   5.754   4.881
69355W        W41670   8.287  26.937  14.467
69356W        W41671  29.956   9.155  14.236
69357W        W41672  12.759  18.198   2.197
69358W        W41673  35.484  11.309  13.066
69359W        W41674   2.397  22.957  11.302
69360W        W41675  41.010  24.264  12.839
69361W        W41676  34.034  41.158   1.314
69362W        W41677  19.158  12.182   4.890
69363W        W41678  33.853   2.913  14.771
69364W        W41679  26.858   0.368   1.382
69365W        W41680  25.123  26.787   2.821
69366W        W41681  10.120  37.883   3.611
69367W        W41682  36.521  36.941   1.920
69368W        W41683  18.426  40.213   0.861
69369W        W41684  17.276  22.047   1.405
69370W        W41685   5.198  41.322  13.918
69371W        W41686  31.886  14.727   3.837
69372W        W41687  21.791  41.975   3.565
69373W        W41688   4.780  18.196  14.748
69374W        W41689  32.110  11.237  10.596
69375W        W41690   2.448  24.211   2.742
69376W        W41691  40.756  20.510   4.131
69377W        W41692  42.760  44.038  12.774
69378W        W41693  41.293  28.165   4.511
69379W        W41694  16.631  19.574   4.568
69380W        W41695   1.277  11.566   5.403
69381W        W41696  36.492  44.477  14.516
69382W        W41697   9.297  24.282  10.928
69383W        W41698  19.120  43.989  12.893
69384W        W41699  20.052  36.644   3.250
69385W        W41700  19.563  41.278  13.941
69386W        W41701  35.401   4.050   4.120
69387W        W41702  30.754  25.204  13.008
69388W        W41703  17.992   0.468  11.454
69389W        W41704  39.453  40.077   3.800
69390W        W41705  38.304  18.245  12.519
69391W        W41706  34.129   0.700  12.501
69392W        W41707  42.900  17.781   1.763
69393W        W41708  26.487   6.837   3.342
69394W        W41709  28.536   8.169   2.427
69395W        W41710  25.183  31.658  12.023
69396W        W41711   5.038  30.799   0.760
69397W        W41712   7.910   1.382   1.786
69398W        W41713  18.611   7.058  11.936
69399W        W41714  39.096   7.287   2.315
69400W        W41715   1.011  41.292  11.162
69401W        W41716  35.909  20.178   0.485
69402W        W41717  24.771  18.126  11.441
69403W        W41718  28.133   0.582  13.836
69404W        W41719   4.751  43.395  12.626
69405W        W41720  27.577  23.965   3.091
69406W        W41721  42.776  29.157  13.449
69407W        W41722  39.389  38.126   2.375
69408W        W41723  40.613  36.898   0.937
69409W        W41724  31.006  12.351   1.133
69410W        W41725  26.209  29.137  14.389
69411W        W41726  23.646   9.169  14.770
69412W        W41727  16.835   6.820  13.271
69413W        W41728  28.684  29.178   2.285
69414W        W41729  41.862  34.411  10.317
69415W        W41730   4.425  26.552   1.168
69416W        W41731  34.445  17.579  12.449
69417W        W41732  10.327  25.567   3.323
69418W        W41733   2.276  11.651   5.097
69419W        W41734  34.038   5.851  13.069
69420W        W41735   4.838  21.315  13.066
69421W        W41736  29.497  16.715   1.692
69422W        W41737  35.648  11.651  13.506
69423W        W41738  28.555  29.886   3.995
69424W        W41739   6.901  24.094   2.572
69425W        W41740  15.097  25.987  14.282
69426W        W41741  44.071  11.881   2.213
69427W        W41742  43.105  30.447   3.095
69428W        W41743  37.332  26.861  14.963
69429W        W41744  29.679  10.560   3.813
69430W        W41745  33.977  22.560  13.358
69431W        W41746  27.452  39.585  12.932
69432W        W41747   4.210  18.804  12.127
69433W        W41748  28.054   5.669   4.776
69434W        W41749   6.022  40.440   9.981
69435W        W41750  28.485  41.923  13.383
69436W        W41751   3.364  44.941  13.518
69437W        W41752  36.984  44.763   1.125
69438W        W41753  13.257  29.850  14.321
69439W        W41754  34.095  31.910  14.120
69440W        W41755  35.459  36.380   4.186
69441W        W41756  14.074  28.987   3.846
69442W        W41757  15.111  14.893  10.549
69443W        W41758  28.002  19.936   1.603
69444W        W41759  10.261  27.011  14.457
69445W        W41760  27.852  25.860   2.850
69446W        W41761   2.752  35.585  11.958
69447W        W41762  15.819  18.503  14.152
69448W        W41763  21.626  36.764   3.171
69449W        W41764  27.722  37.342  14.605
69450W        W41765   9.085  43.642   0.365
69451W        W41766  21.362  24.019  11.080
69452W        W41767  40.377  16.972   4.253
69453W        W41768  18.645   4.228  12.921
69454W        W41769   7.440   9.604   1.960
69455W        W41770   6.485  14.689   3.829
69456W        W41771  42.258  41.361   4.214
69457W        W41772   2.792  31.164  12.050
69458W        W41773  34.240   5.877   0.039
69459W        W41774  29.372  22.256   3.197
69460W        W41775   5.549  41.357  14.990
69461W        W41776  31.428  22.074   0.367
69462W        W41777  36.518   8.678  11.153
69463W        W41778  44.332  19.149   3.686
69464W        W41779   7.575  43.637   3.097
69465W        W41780  41.287  42.676  13.413
69466W        W41781   8.715  23.483   4.530
69467W        W41782  33.906   0.877  14.547
69468W        W41783  44.257  42.723  11.213
69469W        W41784  40.078   6.754   0.273
69470W        W41785  23.962  44.280  14.586
69471W        W41786  15.214   2.864  12.063
69472W        W41787   0.819   4.726  10.132
69473W        W41788  27.008  43.426   1.340
69474W        W41789  27.021   2.897   0.318
69475W        W41790  44.044   2.550  13.744
69476W        W41791  20.752  39.406   1.038
69477W        W41792  25.004  44.881  10.385
69478W        W41793  43.413  25.579  12.446
69479W        W41794  33.114  41.630  12.582
69480W        W41795  15.521  13.173   1.431
69481W        W41796  39.004   2.768  14.530
69482W        W41797  26.515  19.328   1.355
69483W        W41798  26.036  43.515   3.865
69484W        W41799   8.309   7.384  11.036
69485W        W41800  24.758  38.092  12.031
69486W        W41801   2.815  39.180   2.635
69487W        W41802  44.929   5.261   2.373
69488W        W41803  31.228  44.899  14.968
69489W        W41804  24.840  20.313  10.488
69490W        W41805  30.727  26.498   4.345
69491W        W41806  35.460  29.110  10.600
69492W        W41807   3.876  18.346   5.229
69493W        W41808  33.012   1.819  12.465
69494W        W41809  24.580  44.597   1.250
69495W        W41810  18.654  16.819   4.658
69496W        W41811  29.487   7.608   4.266
69497W        W41812  26.063  29.566   4.773
69498W        W41813   5.752  10.619  12.462
69499W        W41814  25.918  34.138   5.135
69500W        W41815  12.764   4.760  14.623
69501W        W41816  13.075   8.238   3.682
69502W        W41817   5.883  28.649  10.621
69503W        W41818   0.665  24.182  13.959
69504W        W41819  24.429  19.580  12.278
69505W        W41820  25.501  28.536  14.908
69506W        W41821  27.566  21.995  13.548
69507W        W41822   6.276  38.524  13.893
69508W        W41823  42.410  22.514   1.318
69509W        W41824  10.925  12.172  10.937
69510W        W41825  37.609  11.689  12.128
69511W        W41826   2.319  36.660  12.552
69512W        W41827   9.307   3.924  11.112
69513W        W41828  21.528  23.808  14.999
69514W        W41829  15.074  42.885  11.081
69515W        W41830  13.341   7.485   2.227
69516W        W41831  40.954  36.827  14.389
69517W        W41832  23.264   6.948  12.218
69518W        W41833  28.699  30.101   2.612
69519W        W41834  39.802  10.312  12.169
69520W        W41835   1.179  39.685  14.455
69521W        W41836  28.152  34.055  13.751
69522W        W41837   0.229  19.610  11.677
69523W        W41838  10.897  28.141   1.740
69524W        W41839   5.853   4.166  12.869
69525W        W41840  25.067  31.101   1.666
69526W        W41841  12.247  16.348   2.279
69527W        W41842   5.504  40.969   0.364
69528W        W41843  31.496  15.319   0.317
69529W        W41844  32.969  23.753  13.433
69530W        W41845  27.590  11.347   3.301
69531W        W41846  19.093  23.285  12.902
69532W        W41847  14.204  23.615  14.522
69533W        W41848   6.967  35.236  13.877
69534W        W41849   7.914  11.982   4.309
69535W        W41850  18.552  16.632  13.535
69536W        W41851  10.904  21.635   2.154
69537W        W41852  21.106  15.081  13.795
69538W        W41853  24.694  23.060  14.464
69539W        W41854   9.316  40.385   0.294
69540W        W41855  41.822  40.404   2.820
69541W        W41856   4.687  37.894   0.859
69542W        W41857  37.515   4.341  11.596
69543W        W41858  22.123  22.306   4.178
69544W        W41859  18.218   0.442  14.498
69545W        W41860  18.977  30.590   4.946
69546W        W41861   0.498   6.394  10.810
69547W        W41862  37.094  10.149   2.626
69548W        W41863  32.691  19.929   1.315
69549W        W41864  31.410  28.143   3.640
69550W        W41865  33.995   8.208   4.585
69551W        W41866  27.661  24.987   0.962
69552W        W41867   2.958  19.716   2.822
69553W        W41868  37.391  11.263  14.386
69554W        W41869   6.905  22.939  14.034
69555W        W41870  26.002  18.118   1.647
69556W        W41871  25.840  39.711   1.227
69557W        W41872  19.274  30.115  11.250
69558W        W41873   4.814  28.154   0.240
69559W        W41874   7.674   1.836   0.275
69560W        W41875   3.069  25.643   2.751
69561W        W41876  13.214  16.239  11.537
69562W        W41877  15.092  43.430  11.072
69563W        W41878  19.244  39.201   4.551
69564W        W41879  12.379  23.724  11.490
69565W        W41880  34.202  24.536  11.369
69566W        W41881  33.328  44.286   4.775
69567W        W41882  43.307  18.969  10.661
69568W        W41883  29.325  34.675  11.099
69569W        W41884  22.458   3.772  10.690
69570W        W41885  18.197  30.513  14.557
69571W        W41886  15.880  26.993  12.876
69572W        W41887  11.362   7.935   0.495
69573W        W41888  22.133  22.611   1.861
69574W        W41889  35.073  30.677  12.961
69575W        W41890   0.683  38.605   2.740
69576W        W41891  11.575  34.405   2.323
69577W        W41892  27.230  13.333   0.381
69578W        W41893  32.484  44.507  11.448
69579W        W41894   0.252  39.927  10.800
69580W        W41895  36.119  44.791   0.855
69581W        W41896  43.042   8.330   2.159
69582W        W41897  30.022  33.129  14.773
69583W        W41898   0.293  19.130   2.373
69584W        W41899  40.352  19.111   0.407
69585W        W41900  32.453  32.495   3.683
69586W        W41901  14.944  26.606   1.871
69587W        W41902   0.494  33.598  14.040
69588W        W41903  11.849  24.569   1.447
69589W        W41904  15.813  14.125   3.569
69590W        W41905   7.891  27.918   3.540
69591W        W41906  33.387   6.852  14.869
69592W        W41907  28.324  27.521   4.551
69593W        W41908  35.582   1.007   4.840
69594W        W41909  18.524   2.776   1.471
69595W        W41910   4.398  24.413  11.065
69596W        W41911  30.426   0.679   3.620
69597W        W41912  11.328  41.262  11.919
69598W        W41913  37.104   3.931   2.837
69599W        W41914  13.314   7.320   4.128
69600W        W41915  19.745  36.095   3.048
69601W        W41916   8.144  43.911  13.646
69602W        W41917   0.601   9.141   5.500
69603W        W41918  31.505   8.214  14.631
69604W        W41919  38.908  35.357   3.085
69605W        W41920   6.726  12.323  14.446
69606W        W41921   6.405  13.798   4.118
69607W        W41922  44.927  21.722  11.959
69608W        W41923  43.272  35.048  10.614
69609W        W41924  27.098  24.971  10.756
69610W        W41925   5.221  22.581  10.699
69611W        W41926   0.715  12.722   3.766
69612W        W41927   2.970  10.599   2.445
69613W        W41928  30.271   3.418  14.470
69614W        W41929   0.108  11.220  14.583
69615W        W41930   5.897  19.229  10.551
69616W        W41931  27.363  41.487   3.819
69617W        W41932  18.677   1.079  14.028
69618W        W41933  22.177  41.979   2.704
69619W        W41934  19.074  14.743  11.564
69620W        W41935   6.668  38.477   3.241
69621W        W41936  24.155  25.765   3.182
69622W        W41937   8.657  37.904  12.534
69623W        W41938  16.680  27.078  10.335
69624W        W41939  30.134  39.723   4.128
69625W        W41940  16.209   2.282   4.262
69626W        W41941  43.141  31.951  11.965
69627W        W41942   6.866   6.353   1.850
69628W        W41943   9.538  42.655  11.541
69629W        W41944  16.784   9.218   1.064
69630W        W41945  30.351  14.655   0.922
69631W        W41946  14.243  34.175  12.720
69632W        W41947  44.978  33.380  12.091
69633W        W41948  22.301  44.766  12.061
69634W        W41949  41.481   4.128  12.459
69635W        W41950  41.226  18.188  13.133
69636W        W41951  28.021   9.119   4.897
69637W        W41952  25.432  19.736  10.673
69638W        W41953  39.564   4.621  12.281
69639W        W41954  19.674  28.380   2.537
69640W        W41955  23.780  27.842   3.686
69641W        W41956  19.984  34.634  13.474
69642W        W41957  32.903  14.069  12.793
69643W        W41958  11.637  17.074  11.973
69644W        W41959  43.288  15.261   0.355
69645W        W41960  36.983   6.113   4.162
69646W        W41961  39.834  22.071  14.472
69647W        W41962  38.905   6.437  13.804
69648W        W41963  29.011  31.073  14.262
69649W        W41964  17.156   7.136   4.078
69650W        W41965   8.833  30.116   0.864
69651W        W41966   8.223  35.866  14.209
69652W        W41967  10.141  34.241  11.457
69653W        W41968  28.065  25.114   2.275
69654W        W41969  43.025  26.384  10.990
69655W        W41970  24.150  32.288   5.087
69656W        W41971   4.918  28.612   0.511
69657W        W41972  32.656  23.926  12.116
69658W        W41973   0.562   3.428  12.450
69659W        W41974  21.728  39.827   2.277
69660W        W41975  43.640   9.150  11.083
69661W        W41976  12.650  22.242  12.975
69662W        W41977  32.179  14.846   2.308
69663W        W41978  15.686  26.568   3.535
69664W        W41979  14.695  24.059  12.415
69665W        W41980  13.604  13.344   4.140
69666W        W41981   0.749  18.851  14.487
69667W        W41982   5.353   0.337  14.416
69668W        W41983  40.369  35.594  11.018
69669W        W41984   9.417  16.923   3.649
69670W        W41985  15.555  43.199  11.122
69671W        W41986  30.177   7.728   3.187
69672W        W41987  12.147   4.341   0.699
69673W        W41988  31.577  31.953  13.264
69674W        W41989  40.205  31.692  12.820
69675W        W41990  34.851  43.347  11.759
69676W        W41991  10.368  13.344   4.052
69677W        W41992  29.086  18.502   4.534
69678W        W41993   7.246  41.608   1.360
69679W        W41994   4.723  27.621  11.378
69680W        W41995  43.389  34.993   3.204
69681W        W41996   1.462  21.523   2.875
69682W        W41997   3.089  32.922  11.931
69683W        W41998  42.720  31.558  14.508
69684W        W41999  44.336  33.886  13.784
69685W        W42000  25.071  43.318   3.347
69686W        W42001  17.636  22.132   3.689
69687W        W42002  27.215  18.332  12.059
69688W        W42003  34.919  37.455   3.590
69689W        W42004  27.908   5.319  12.335
69690W        W42005   8.911   6.950  12.688
69691W        W42006   8.047   3.010   4.201
69692W        W42007   8.848  39.931   4.394
69693W        W42008   7.857  17.031   3.741
69694W        W42009  35.378  36.911  11.580
69695W        W42010  43.332  17.727   0.808
69696W        W42011  27.735  41.995  12.013
69697W        W42012  11.723   0.859  10.682
69698W        W42013  38.564  31.549   1.538
69699W        W42014  25.152  16.450   4.072
69700W        W42015  31.910  32.587   0.384
69701W        W42016   4.602   4.279   0.286
69702W        W42017  18.832  23.414   5.138
69703W        W42018  25.731  21.933   1.764
69704W        W42019  16.252  16.837   1.441
69705W        W42020  37.192  28.105   0.540
69706W        W42021  11.997  31.561  12.606
69707W        W42022  34.401  21.122  14.840
69708W        W42023   7.338  21.199   2.873
69709W        W42024   9.747  23.167   4.829
69710W        W42025  31.668  10.387   0.332
69711W        W42026  28.619   4.131   1.742
69712W        W42027  42.784   3.115   3.719
69713W        W42028  20.796  11.799  12.925
69714W        W42029  29.283  35.574  11.010
69715W        W42030  43.415  13.247  14.788
69716W        W42031  23.943   7.188   1.760
69717W        W42032  10.275   5.504   3.282
69718W        W42033  33.607  13.146   1.880
69719W        W42034   3.857  25.162   1.664
69720W        W42035  35.448  41.537   0.373
69721W        W42036  44.779  25.022  11.467
69722W        W42037  27.918  30.419  12.422
69723W        W42038  41.093  22.271  11.497
69724W        W42039   5.479  42.730   3.321
69725W        W42040  17.587   9.806   5.042
69726W        W42041  14.630  13.800  14.523
69727W        W42042  38.954  12.168  12.118
69728W        W42043  44.864   0.437  11.475
69729W        W42044  11.301  44.073  10.591
69730W        W42045   9.450  26.607  13.568
69731W        W42046   8.120   2.687   4.980
69732W        W42047  12.100  12.942   0.729
69733W        W42048  39.885   5.612   1.685
69734W        W42049   1.738  21.475  12.990
69735W        W42050  28.011  35.522   4.619
69736W        W42051  42.782  20.988  13.947
69737W        W42052   8.719  16.708   3.312
69738W        W42053  38.466   8.285   4.472
69739W        W42054   1.839  35.314  14.786
69740W        W42055  39.553  32.937  13.773
69741W        W42056  17.333   7.916   3.622
69742W        W42057  10.618  16.687  10.209
69743W        W42058   9.637   4.850  13.465
69744W        W42059  27.586   4.722  14.028
69745W        W42060  29.215  41.967  13.103
69746W        W42061   2.864   1.880  11.075
69747W        W42062  36.393  33.474  13.397
69748W        W42063  25.963   3.328  11.604
69749W        W42064  38.186  21.202   3.656
69750W        W42065  36.630  15.205   0.211
69751W        W42066  15.696   0.702  12.674
69752W        W42067  14.679  17.721  13.813
69753W        W42068  31.971  37.943  14.692
69754W        W42069   6.338  13.864   1.948
69755W        W42070  30.323   6.302   3.183
69756W        W42071  34.569  24.493  14.455
69757W        W42072  42.389  36.101  12.603
69758W        W42073  37.062  16.551   3.713
69759W        W42074  38.467  17.551   4.706
69760W        W42075  28.131  31.272  12.367
69761W        W42076  34.846  14.658   0.583
69762W        W42077   3.181  26.121   3.277
69763W        W42078  14.813  30.498   0.740
69764W        W42079  43.842  24.752   4.203
69765W        W42080  10.865  24.681   4.433
69766W        W42081  19.256  13.900   2.686
69767W        W42082  44.299  24.586  13.790
69768W        W42083  40.802  26.557   1.870
69769W        W42084  13.853  41.991  12.909
69770W        W42085  41.497  11.411  11.979
69771W        W42086  41.484  12.123  13.795
69772W        W42087  23.200  23.397   1.934
69773W        W42088  32.094   4.017   1.659
69774W        W42089  20.047  11.810  10.717
69775W        W42090  42.311  11.772   3.944
69776W        W42091  35.503  15.565   3.179
69777W        W42092  20.254  21.181  14.257
69778W        W42093  40.892   1.224   4.399
69779W        W42094  21.986  34.939   1.655
69780W        W42095  29.951   8.257   4.386
69781W        W42096   2.300  36.008   4.146
69782W        W42097  18.589  44.342   1.369
69783W        W42098   6.380   5.893  12.877
69784W        W42099   9.228   5.806   0.381
69785W        W42100  13.803  11.372  14.921
69786W        W42101  40.790  26.209  13.335
69787W        W42102   1.209  26.538  12.599
69788W        W42103   2.901   4.504   0.851
69789W        W42104  14.529  15.713  14.911
69790W        W42105  26.514  28.829   2.263
69791W        W42106  20.267  23.717   4.586
69792W        W42107  21.670  30.810   0.227
69793W        W42108   2.935  36.765  14.653
69794W        W42109  44.734  32.720   2.288
69795W        W42110  18.435  18.940   0.140
69796W        W42111  22.174  30.391   4.870
69797W        W42112   8.349  42.957   0.999
69798W        W42113  16.094   8.630  11.303
69799W        W42114  36.624  42.148  12.567
69800W        W42115  12.516  10.701  11.455
69801W        W42116   8.328  27.091   4.618
69802W        W42117  13.997  38.028   1.356
69803W        W42118  30.611  13.917  14.299
69804W        W42119  22.730  36.656  13.496
69805W        W42120  26.646  29.708  11.207
69806W        W42121  31.494  37.648   2.069
69807W        W42122  19.501   0.826  13.775
69808W        W42123  23.142  19.677   1.908
69809W        W42124  35.973   0.466   1.321
69810W        W42125  18.622  37.969  14.466
69811W        W42126  18.297  12.846   1.491
69812W        W42127  21.569   3.782  11.158
69813W        W42128  38.441  31.158  11.203
69814W        W42129  29.973   1.342  10.974
69815W        W42130  26.621  37.124   1.562
69816W        W42131  43.841  11.155   0.192
69817W        W42132  10.875  16.674   1.703
69818W        W42133  42.504   0.154   2.002
69819W        W42134  11.309  12.049  11.269
69820W        W42135  41.382  18.265  11.564
69821W        W42136  22.660  30.992   3.125
69822W        W42137  15.846  29.490  12.516
69823W        W42138  10.316  18.519   3.715
69824W        W42139  31.042  34.689   2.362
69825W        W42140  41.367  27.008   3.780
69826W        W42141  10.881  31.379   2.808
69827W        W42142  24.164  33.376  11.603
69828W        W42143  12.115  16.055  12.599
69829W        W42144  40.046   0.556  13.842
69830W        W42145  12.106   9.355   4.031
69831W        W42146   8.716  30.582   3.781
69832W        W42147  38.619  16.045  13.497
69833W        W42148  28.921  26.015   0.109
69834W        W42149  20.775   7.255   5.016
69835W        W42150  21.793  24.987  13.730
69836W        W42151  30.550   5.240   0.808
69837W        W42152  37.093  20.328  14.985
69838W        W42153  19.295  43.078   1.581
69839W        W42154   0.394   0.830  14.279
69840W        W42155  24.267  31.471  10.710
69841W        W42156   3.833  36.035   2.788
69842W        W42157  35.936   9.865  14.263
69843W        W42158   8.168   4.232  12.539
69844W        W42159  27.942   7.042   1.409
69845W        W42160   7.147  43.848   1.260
69846W        W42161  17.045   0.291   4.119
69847W        W42162  30.805  35.763   2.890
69848W        W42163  30.358  21.786  13.128
69849W        W42164  32.192  25.201   4.131
69850W        W42165   2.269  33.603   3.248
69851W        W42166  20.042  31.084   2.508
69852W        W42167  14.652  10.216  12.960
69853W        W42168  36.414  17.945   2.759
69854W        W42169   0.261  19.159  13.874
69855W        W42170   9.178  29.999  11.606
69856W        W42171  40.957  29.126   2.696
69857W        W42172  16.664  32.451   2.911
69858W        W42173  24.596  22.299  12.724
69859W        W42174  16.133  11.712  10.606
69860W        W42175   5.942  38.948  13.935
69861W        W42176  11.291  26.103   2.155
69862W        W42177   0.672  18.852  11.836
69863W        W42178  42.284  35.243   0.181
69864W        W42179   6.836   5.650   4.769
69865W        W42180  15.022  30.261   5.206
69866W        W42181  24.069  17.689   2.831
69867W        W42182  42.099  15.677   5.103
69868W        W42183  36.090  26.252   4.108
69869W        W42184  12.457  38.426  13.156
69870W        W42185  34.414  19.797  13.527
69871W        W42186  44.371  29.411  14.235
69872W        W42187   2.392   1.814   1.422
69873W        W42188  11.694  31.891  12.898
69874W        W42189   1.136   6.148  14.835
69875W        W42190  38.755  26.746   1.836
69876W        W42191   0.380   3.622  11.436
69877W        W42192   5.111  20.108   1.188
69878W        W42193  17.708  11.113  13.624
69879W        W42194  36.512  33.466   3.232
69880W        W42195   0.703  19.820   2.626
69881W        W42196  41.442   9.198  14.329
69882W        W42197  36.111  22.553   4.061
69883W        W42198   1.737   2.139  13.154
69884W        W42199  41.791  43.486   3.324
69885W        W42200  24.984  12.182   1.606
69886W        W42201  11.269  19.198  14.774
69887W        W42202  33.071  22.011  11.497
69888W        W42203  17.593  39.421  12.231
69889W        W42204  22.288   2.511   3.607
69890W        W42205  31.093  22.280   3.729
69891W        W42206  29.631  31.497   0.864
69892W        W42207  37.968  13.744  13.876
69893W        W42208  35.375  20.962  12.563
69894W        W42209  21.649  25.410  13.487
69895W        W42210   2.982   4.384  14.833
69896W        W42211   2.526  37.254   2.696
69897W        W42212  16.861  40.879   9.887
69898W        W42213  41.042  29.974   0.467
69899W        W42214  31.151  38.014  10.545
69900W        W42215  26.323   9.965   1.235
69901W        W42216  13.041  10.775  11.502
69902W        W42217  38.931  36.518  14.821
69903W        W42218   6.793  25.670  10.466
69904W        W42219  34.218  12.108   1.750
69905W        W42220  12.161  23.308  13.807
69906W        W42221   1.411  12.657  11.434
69907W        W42222   0.474  40.846  14.116
69908W        W42223  34.398  16.657  14.000
69909W        W42224  27.878  41.478   3.696
69910W        W42225   4.798  39.333  14.952
69911W        W42226  36.053  29.968  11.863
69912W        W42227  37.517  19.984   4.827
69913W        W42228  16.573  11.275   1.835
69914W        W42229  31.067   6.248  11.513
69915W        W42230  25.097  24.968  14.784
69916W        W42231  19.086  10.885   2.259
69917W        W42232  31.724  31.928  10.231
69918W        W42233  35.409  34.538   4.799
69919W        W42234  14.783  11.534   3.807
69920W        W42235   9.829  35.613  12.415
69921W        W42236  36.970  42.072   3.226
69922W        W42237  44.028  25.949   0.464
69923W        W42238  25.594  32.340   9.787
69924W        W42239  36.927  11.872  13.856
69925W        W42240  18.632   9.763   1.124
69926W        W42241   3.735  10.972   1.884
69927W        W42242  16.616  40.396  11.139
69928W        W42243  44.524   5.854   4.548
69929W        W42244   8.782   0.906   2.059
69930W        W42245   8.916  44.238   4.146
69931W        W42246  11.050   3.444  12.516
69932W        W42247  25.292  23.673   3.375
69933W        W42248  41.660  24.706   3.550
69934W        W42249  42.942  42.239  10.904
69935W        W42250  10.273  21.662  13.363
69936W        W42251  34.108  16.223   0.948
69937W        W42252   6.290  42.261   1.733
69938W        W42253   9.670   1.229   4.322
69939W        W42254  10.866   0.961  12.503
69940W        W42255  21.666  36.989   1.789
69941W        W42256  15.082  43.029   1.825
69942W        W42257  41.578  36.253  13.027
69943W        W42258  32.911  38.238   4.778
69944W        W42259  44.897  28.335   2.177
69945W        W42260  37.255  32.851  12.452
69946W        W42261  25.261  19.205   0.923
69947W        W42262   5.848  27.517  13.931
69948W        W42263   7.657  18.295  14.757
69949W        W42264  25.949  41.771   1.367
69950W        W42265  30.202  41.725   4.872
69951W        W42266  40.123   0.665   3.862
69952W        W42267   0.691  25.519  12.630
69953W        W42268  16.771  37.783   1.627
69954W        W42269  32.027  14.329   2.231
69955W        W42270  15.896  35.005   3.256
69956W        W42271  41.200  24.498  11.077
69957W        W42272  19.064  13.108   4.319
69958W        W42273  39.329  34.425  13.676
69959W        W42274  25.983   8.431   1.894
69960W        W42275  14.290  41.394   0.267
69961W        W42276  19.241  29.607  10.607
69962W        W42277   7.757  13.370  14.830
69963W        W42278  24.166   8.699  10.356
69964W        W42279  34.165  26.659  13.134
69965W        W42280   5.699   2.853   0.529
69966W        W42281   9.207  12.188   2.607
69967W        W42282  24.589  24.445   1.287
69968W        W42283  26.579  11.028  11.465
69969W        W42284  32.920  25.651   4.144
69970W        W42285   0.413  30.580  10.616
69971W        W42286   6.143  27.416  12.697
69972W        W42287  35.386   0.009  14.274
69973W        W42288   8.458  27.215  11.993
69974W        W42289  29.979   3.186  14.875
69975W        W42290  32.197  28.769  12.163
69976W        W42291   9.870   9.132   2.211
69977W        W42292  10.854  42.097   3.608
69978W        W42293   2.444  16.382  11.107
69979W        W42294  20.600  13.804  14.103
69980W        W42295  26.194  21.711   2.761
69981W        W42296   3.976  18.291   0.297
69982W        W42297   5.186  12.996   0.866
69983W        W42298  18.634   5.437  13.704
69984W        W42299  37.917  43.371   2.160
69985W        W42300  29.983  25.127   0.811
69986W        W42301  12.758  32.536  14.967
69987W        W42302  34.059  17.815  12.732
69988W        W42303  19.539  23.185   2.305
69989W        W42304  43.022   2.719   3.353
69990W        W42305   9.863   0.302   0.131
69991W        W42306  31.123   6.928  14.900
69992W        W42307  26.730  18.144   0.309
69993W        W42308  25.487  35.778  14.863
69994W        W42309  26.650   1.492   4.287
69995W        W42310  16.601  24.925   1.380
69996W        W42311   0.069  32.636   0.892
69997W        W42312   6.948   6.434  11.124
69998W        W42313   7.856  32.539  14.766
69999W        W42314  16.542  16.037   2.542
70000W        W42315  15.045  19.170  11.854
70001W        W42316  27.949   0.292   2.166
70002W        W42317  27.211   6.495   4.010
70003W        W42318   1.684  43.232   1.778
70004W        W42319   4.710   7.711  12.457
70005W        W42320   2.912  21.646  14.494
70006W        W42321  15.274   8.694  13.100
70007W        W42322  38.905  28.739  13.003
70008W        W42323  22.050   0.301  13.339
70009W        W42324   4.474  25.575  13.418
70010W        W42325   7.787  11.858   0.417
70011W        W42326  17.688  38.946  12.402
70012W        W42327  19.593   5.485  13.978
70013W        W42328  13.345  21.256   0.954
70014W        W42329  11.076  36.489  13.530
70015W        W42330  11.505  40.595  14.016
70016W        W42331  22.446  36.402  13.136
70017W        W42332   2.339   8.970  10.881
70018W        W42333  40.550  39.586  11.156
70019W        W42334  23.090  27.694  12.548
70020W        W42335  37.105  44.598   1.727
70021W        W42336  12.300   8.248   4.834
70022W        W42337  14.223  30.577   4.404
70023W        W42338  13.364  11.311  12.805
70024W        W42339  29.374  22.764  12.535
70025W        W42340   0.876  30.476   3.149
70026W        W42341  21.290  31.028   5.040
70027W        W42342  34.997  18.593  13.481
70028W        W42343  21.687   5.742  10.521
70029W        W42344  17.302  44.471   0.764
70030W        W42345  42.398  44.126  12.051
70031W        W42346  13.891  11.690  13.532
70032W        W42347  12.570  18.721   0.245
70033W        W42348  22.457  23.554   5.121
70034W        W42349  24.093  39.003  11.453
70035W        W42350  34.985  16.230  12.021
70036W        W42351  37.991  10.655   4.524
70037W        W42352  31.464  29.188  12.593
70038W        W42353   0.963  13.859  12.774
70039W        W42354  44.033   4.858   3.821
70040W        W42355   1.469   5.678   4.685
70041W        W42356  21.218  38.112  11.746
70042W        W42357  25.974   8.957  10.755
70043W        W42358  26.191  44.436  10.451
70044W        W42359  24.913  19.094  13.446
70045W        W42360  22.929  14.807   3.295
70046W        W42361  18.558   2.957   4.179
70047W        W42362  12.153  35.289   2.169
70048W        W42363   1.062  37.459  14.420
70049W        W42364   3.330  15.841  12.949
70050W        W42365   5.944  32.556  10.806
70051W        W42366  15.098  41.290  11.024
70052W        W42367  30.378  42.902   1.721
70053W        W42368   6.123  23.568   2.408
70054W        W42369  34.039  34.619  12.496
70055W        W42370  37.606   4.316  11.085
70056W        W42371  13.818  21.274   1.213
70057W        W42372  10.327  28.216  10.607
70058W        W42373  38.637  11.332  13.470
70059W        W42374  34.882  24.024  10.911
70060W        W42375  38.775  29.816   2.414
70061W        W42376  42.555  14.733  12.031
70062W        W42377  32.530   2.832  13.282
70063W        W42378  44.392  37.269  11.610
70064W        W42379  16.127  15.210  14.506
70065W        W42380  42.424  13.717  12.594
70066W        W42381  18.699  30.568   2.584
70067W        W42382  33.505  23.267  11.565
70068W        W42383  16.744  19.228  14.959
70069W        W42384   4.423  42.870  12.189
70070W        W42385  26.084  21.226   3.687
70071W        W42386  12.201  29.091  10.375
70072W        W42387   6.890   5.002   3.150
70073W        W42388  32.955  25.157  13.191
70074W        W42389  36.250  28.972   3.133
70075W        W42390  16.304  44.373   4.863
70076W        W42391   3.346  18.246   3.294
70077W        W42392  13.154  16.318   2.965
70078W        W42393   2.149  36.109  14.896
70079W        W42394  12.074   2.377   2.515
70080W        W42395  19.202   2.029  13.353
70081W        W42396  10.162  10.797   4.787
70082W        W42397  14.753  10.965   1.357
70083W        W42398   7.301  10.634   4.695
70084W        W42399   2.935  21.146  10.053
70085W        W42400  32.939  17.268  12.955
70086W        W42401  21.237  42.340   0.478
70087W        W42402  37.776  36.457  13.517
70088W        W42403  41.482   9.862   1.022
70089W        W42404  15.141  20.145  13.737
70090W        W42405  26.752  42.358   0.231
70091W        W42406  44.418  32.959   3.787
70092W        W42407  41.855  37.607   0.957
70093W        W42408  37.242  17.521  11.642
70094W        W42409  36.450  20.704  12.624
70095W        W42410  30.955  36.246  14.772
70096W        W42411  27.625   1.329  12.300
70097W        W42412  14.991  18.255   3.253
70098W        W42413  28.542  13.248  13.357
70099W        W42414  20.760  10.221   1.742
70100W        W42415  25.050  36.196  11.474
70101W        W42416  17.971  43.674  13.965
70102W        W42417   9.107  42.874  11.068
70103W        W42418   4.256   8.397  14.644
70104W        W42419   2.769   7.764  14.164
70105W        W42420  29.495  19.067  13.356
70106W        W42421  14.799  29.151  13.059
70107W        W42422  33.795  27.511   1.249
70108W        W42423  37.853  39.343  14.032
70109W        W42424  40.775  21.161  13.337
70110W        W42425  15.775  34.046  14.976
70111W        W42426   8.868  15.144  11.841
70112W        W42427   8.685  20.223   3.845
70113W        W42428  44.044  14.155  12.013
70114W        W42429   0.591   4.394   2.454
70115W        W42430  16.423  41.228  12.924
70116W        W42431  38.277   7.078  13.188
70117W        W42432   8.804  34.013  11.525
70118W        W42433  37.539   4.875   1.835
70119W        W42434  14.095  44.931   1.870
70120W        W42435  12.836  42.107  11.126
70121W        W42436  10.478  32.085   2.275
70122W        W42437  31.516  16.861  11.129
70123W        W42438   0.376  27.430   1.355
70124W        W42439   1.398  23.643  14.059
70125W        W42440  41.902  41.220   2.707
70126W        W42441  24.458  27.643  13.859
70127W        W42442  44.485  41.938  10.756
70128W        W42443   6.700   6.388  10.689
70129W        W42444   6.249   0.184  10.178
70130W        W42445  11.424   9.212   0.903
70131W        W42446  16.324  34.594   3.062
70132W        W42447  11.348  23.152  14.247
70133W        W42448  30.001  24.945   3.350
70134W        W42449   0.808  17.030   4.684
70135W        W42450  18.973   5.336   2.240
70136W        W42451  29.666   9.260   3.689
70137W        W42452  38.343   0.910   2.210
70138W        W42453  24.918   0.697  14.100
70139W        W42454   6.244  14.854   4.261
70140W        W42455  29.988  11.898   0.880
70141W        W42456  32.153   4.324  12.432
70142W        W42457   0.219  36.287   5.570
70143W        W42458  14.614  20.037   2.084
70144W        W42459  29.126  27.398   3.718
70145W        W42460   0.233  36.121   1.808
70146W        W42461  18.769  16.028   3.283
70147W        W42462   2.411  31.433  13.797
70148W        W42463  26.074  15.522  12.979
70149W        W42464  27.435  29.243   2.701
70150W        W42465  20.947  34.668   3.658
70151W        W42466  21.272  43.741   3.243
70152W        W42467  28.155  12.801  11.100
70153W        W42468  40.866  25.882  12.130
70154W        W42469   4.271  31.704   0.973
70155W        W42470  40.350  42.578  11.904
70156W        W42471  43.974  36.247  12.321
70157W        W42472  20.717  30.710  14.800
70158W        W42473  43.838   1.708   1.103
70159W        W42474  42.906   0.032  10.513
70160W        W42475  38.906   8.937  12.061
70161W        W42476  24.922  43.307   0.318
70162W        W42477   1.796   5.222   2.774
70163W        W42478  35.622  32.703   4.380
70164W        W42479  25.422  26.633   4.547
70165W        W42480   6.763   2.895   4.795
70166W        W42481   5.771  42.112   4.887
70167W        W42482  26.667  29.208  11.437
70168W        W42483   9.169   8.888   0.954
70169W        W42484  34.873  29.594   4.115
70170W        W42485  37.350  27.675  12.168
70171W        W42486  36.443   5.610  11.042
70172W        W42487   9.832   3.983   0.349
70173W        W42488   2.827  41.133  13.473
70174W        W42489  35.338   8.509   0.669
70175W        W42490  25.150  23.220  13.418
70176W        W42491  34.659  42.022   1.911
70177W        W42492   1.791  36.028   9.808
70178W        W42493   4.832  22.720  13.368
70179W        W42494   7.415   1.662   0.712
70180W        W42495  30.938  15.427  11.455
70181W        W42496  33.974  15.725  10.711
70182W        W42497  43.735  10.682  12.010
70183W        W42498  41.917  23.180   4.075
70184W        W42499  13.206  43.052  10.289
70185W        W42500  13.767  43.739  11.970
70186W        W42501  34.929   4.727   0.475
70187W        W42502   4.047  35.378   0.954
70188W        W42503   5.712  20.731  13.976
70189W        W42504  18.764  42.926   0.692
70190W        W42505   2.793  28.070   0.222
70191W        W42506  38.755  37.828   3.733
70192W        W42507   9.745  12.108  13.637
70193W        W42508   7.827  32.503   4.453
70194W        W42509   4.265  19.430   0.779
70195W        W42510  25.112  41.274   0.476
70196W        W42511  44.765  42.973   0.058
70197W        W42512   4.509  18.227   0.190
70198W        W42513  13.824  13.202  10.703
70199W        W42514  15.571  24.273   0.336
70200W        W42515  19.887  40.833  11.998
70201W        W42516  16.670  40.103   2.322
70202W        W42517   2.415   5.582  11.062
70203W        W42518   2.791  39.374   1.319
70204W        W42519   4.275  23.208   4.650
70205W        W42520  39.986  28.199  14.862
70206W        W42521  33.458  17.548   2.859
70207W        W42522   6.388  40.000   4.486
70208W        W42523  35.565  31.958   0.855
70209W        W42524  36.447  13.211   0.280
70210W        W42525   1.040  25.237   4.961
70211W        W42526  20.577  33.576  12.427
70212W        W42527  25.994  44.902  10.636
70213W        W42528  23.519  31.896   0.969
70214W        W42529  24.637  16.713   1.714
70215W        W42530   8.752  22.750  12.969
70216W        W42531  36.400  39.579  13.456
70217W        W42532  20.541  12.669  12.408
70218W        W42533  26.080   0.423   0.233
70219W        W42534   4.500  24.612  14.571
70220W        W42535  14.731  26.872   1.472
70221W        W42536  23.124   4.725  12.622
70222W        W42537  22.289  17.829   2.227
70223W        W42538  28.797  35.823  11.006
70224W        W42539  34.587  17.800  13.546
70225W        W42540  18.310  29.962  10.465
70226W        W42541  26.636  31.311  14.476
70227W        W42542  30.426  28.906  12.060
70228W        W42543  25.689  13.833   1.284
70229W        W42544  44.299  20.719   1.258
70230W        W42545  21.409  41.174  11.634
70231W        W42546  44.632  12.035   1.760
70232W        W42547  36.041  38.371  11.216
70233W        W42548  23.165   3.970   3.208
70234W        W42549  10.390   3.521  13.838
70235W        W42550  37.439  17.042   2.727
70236W        W42551  22.350  29.888   0.802
70237W        W42552  28.971  41.141   1.767
70238W        W42553  15.240  31.499  10.880
70239W        W42554  36.063  35.383  11.283
70240W        W42555  40.867  17.213   4.350
70241W        W42556   3.851  25.112   4.497
70242W        W42557  16.073  44.497  13.308
70243W        W42558  27.838   1.001   3.685
70244W        W42559  19.096   2.001   3.578
70245W        W42560  18.628  28.629   4.538
70246W        W42561  25.579   7.354   3.235
70247W        W42562  23.429  41.264  12.503
70248W        W42563  42.500  19.961   1.817
70249W        W42564  24.538  17.106  14.393
70250W        W42565  43.391   2.686   1.265
70251W        W42566  30.467   5.477   2.787
70252W        W42567  11.435  17.740   4.596
70253W        W42568  37.304  20.193   0.462
70254W        W42569   5.145  12.736   2.000
70255W        W42570  38.535  23.596  11.497
70256W        W42571  19.725   4.699  12.944
70257W        W42572  12.304   7.727   4.988
70258W        W42573  13.314   8.763   0.027
70259W        W42574  16.638   3.329  10.471
70260W        W42575   3.290  14.571   4.506
70261W        W42576  38.597  38.258  13.513
70262W        W42577  28.581  30.682  13.763
70263W        W42578   6.972  10.181   1.464
70264W        W42579  32.356  38.381  12.927
70265W        W42580  19.158  21.280  12.924
70266W        W42581  17.557  40.258   4.520
70267W        W42582  43.971  10.661   4.098
70268W        W42583  21.495   0.992  14.095
70269W        W42584  10.270  26.164   4.653
70270W        W42585  18.148  15.532   2.200
70271W        W42586  33.444   1.500  12.468
70272W        W42587  34.218  39.371   1.484
70273W        W42588  31.378   3.067  11.045
70274W        W42589  13.069  43.543  13.449
70275W        W42590  28.503  31.455  12.054
70276W        W42591  12.277  13.235  10.752
70277W        W42592  11.291  11.697  13.474
70278W        W42593  30.548  31.963   0.230
70279W        W42594   9.767   0.924  13.335
70280W        W42595  36.318  13.629  11.725
70281W        W42596  18.018  26.614  14.280
70282W        W42597  18.962  24.724   3.620
70283W        W42598   9.447  27.468  14.921
70284W        W42599  35.926  26.589   3.694
70285W        W42600  30.413  37.229   3.666
70286W        W42601  13.465  18.379   3.149
70287W        W42602  41.939   9.457   3.272
70288W        W42603  16.201  10.836   0.740
70289W        W42604  17.515  26.540   2.812
70290W        W42605  29.828  12.205  12.095
70291W        W42606  11.691  38.509   2.862
70292W        W42607  28.841   5.974  13.845
70293W        W42608   7.865  18.172  12.941
70294W        W42609  39.495   6.293  14.897
70295W        W42610  30.172  26.544  11.633
70296W        W42611  23.653  44.485   4.557
70297W        W42612  29.535  21.069   4.827
70298W        W42613  15.511  25.779   4.200
70299W        W42614   8.004  41.252  10.372
70300W        W42615  17.715  39.533  10.426
70301W        W42616  11.241  18.805   5.399
70302W        W42617  43.364  15.634  13.269
70303W        W42618  19.105  40.560  11.949
70304W        W42619   4.660  37.920   4.598
70305W        W42620  32.465  31.844  13.487
70306W        W42621   5.776  43.996   3.507
70307W        W42622  30.639  39.977   4.818
70308W        W42623  15.597  40.392   1.876
70309W        W42624  25.138  19.630   0.226
70310W        W42625  24.120  14.248  14.775
70311W        W42626  13.415  24.471   4.133
70312W        W42627  10.617   9.235   0.604
70313W        W42628  14.125   4.188  11.166
70314W        W42629  12.164  20.613  13.414
70315W        W42630   4.771  34.134   1.909
70316W        W42631  19.955  16.728   4.579
70317W        W42632  23.977  37.049   3.620
70318W        W42633  28.488  37.271   2.965
70319W        W42634  27.176   4.913  12.925
70320W        W42635   2.970  43.743  12.489
70321W        W42636  14.693   4.437  13.548
70322W        W42637  39.464  15.783   5.156
70323W        W42638  18.651  28.399  12.603
70324W        W42639  36.829  25.828  10.205
70325W        W42640  23.202   3.735  13.631
70326W        W42641  41.551   5.731  11.958
70327W        W42642  19.190  28.866   0.793
70328W        W42643  11.187   4.988  14.976
70329W        W42644  44.840  37.948  10.691
70330W        W42645  18.179   8.433   2.220
70331W        W42646  13.585   1.505   2.909
70332W        W42647  18.182  30.721   5.097
70333W        W42648  20.200  29.470  14.086
70334W        W42649  13.658  14.277  10.641
70335W        W42650  13.104  21.209  12.778
70336W        W42651  35.331  23.116   2.372
70337W        W42652  21.687  19.953   2.271
70338W        W42653  41.001  39.054   4.735
70339W        W42654   7.425   8.480   0.790
70340W        W42655   5.670  34.794  13.988
70341W        W42656   3.976  42.304  13.291
70342W        W42657   1.315  17.664  11.655
70343W        W42658  18.630  27.541   0.644
70344W        W42659  26.543  10.825   4.756
70345W        W42660  13.782   7.218   4.437
70346W        W42661   6.188   7.625   3.355
70347W        W42662  19.539  34.869   2.754
70348W        W42663  42.272  37.167  11.926
70349W        W42664   8.934  42.286  12.310
70350W        W42665  36.422  29.336  14.801
70351W        W42666  19.495  24.300   4.234
70352W        W42667   5.646  17.791  14.428
70353W        W42668  35.141   7.876   0.332
70354W        W42669  42.419  23.583   0.423
70355W        W42670  18.226   3.202  14.439
70356W        W42671  41.887  21.000   1.684
70357W        W42672  14.339  41.086   2.343
70358W        W42673  27.056  24.297   4.449
70359W        W42674  32.161  21.299  12.933
70360W        W42675  10.130  31.570   4.124
70361W        W42676   0.290  30.366   4.451
70362W        W42677  12.380  31.493   3.264
70363W        W42678  44.886  37.554   3.176
70364W        W42679   6.889  26.006   3.009
70365W        W42680   1.533   0.415  12.844
70366W        W42681  44.778  14.218   4.593
70367W        W42682   4.838   6.490  10.001
70368W        W42683  44.173  21.674  10.400
70369W        W42684  44.000   1.838  13.480
70370W        W42685  39.357  22.162   1.014
70371W        W42686  33.526  33.141  14.818
70372W        W42687  36.311  37.335  11.542
70373W        W42688  18.360   3.921  11.049
70374W        W42689   3.271   6.756   0.458
70375W        W42690   6.807  30.777  10.776
70376W        W42691  42.896  35.312   0.861
70377W        W42692   4.765  18.216   3.429
70378W        W42693  20.516  42.476   0.200
70379W        W42694  11.742  24.158   3.754
70380W        W42695  33.951   2.984   4.163
70381W        W42696  16.737  23.095  11.455
70382W        W42697  17.808  29.175  13.470
70383W        W42698  38.642  23.062   3.771
70384W        W42699  16.249  33.303   1.356
70385W        W42700  44.193  16.208  13.928
70386W        W42701   3.831  10.684  12.113
70387W        W42702   2.251  25.489  14.960
70388W        W42703  28.250   2.611   0.945
70389W        W42704  20.132  43.004  13.272
70390W        W42705  38.590  19.968   4.128
70391W        W42706  35.508  22.832   4.312
70392W        W42707   0.628  39.017  14.082
70393W        W42708  15.230   2.970   0.671
70394W        W42709  22.662   6.487   4.013
70395W        W42710  31.672  30.400  12.946
70396W        W42711   2.797  24.015  10.447
70397W        W42712  10.073  18.064   2.704
70398W        W42713  17.820  27.006  13.578
70399W        W42714  16.102  44.284   0.484
70400W        W42715  32.149  37.030  13.223
70401W        W42716  35.124  40.319   2.889
70402W        W42717  29.197   2.583   0.196
70403W        W42718  22.713  30.556   3.408
70404W        W42719  44.803  19.498  13.074
70405W        W42720  33.677  40.875   0.389
70406W        W42721  25.109  15.192   4.623
70407W        W42722  22.177   4.178   2.746
70408W        W42723   4.630  43.369   2.279
70409W        W42724  41.924  25.611   0.135
70410W        W42725  39.587   9.219   4.616
70411W        W42726  37.436  39.606  14.742
70412W        W42727  37.744  43.392  13.380
70413W        W42728  33.363  39.453  13.980
70414W        W42729  14.782  30.885  14.963
70415W        W42730  21.088   3.939  14.365
70416W        W42731   1.467  16.058   2.361
70417W        W42732  34.060  30.835   0.867
70418W        W42733  40.598  29.639  12.586
70419W        W42734  36.856  43.220   2.284
70420W        W42735  36.936  33.139   3.212
70421W        W42736  23.104  37.368   0.643
70422W        W42737  18.478   2.278   2.739
70423W        W42738  17.612  13.525   1.452
70424W        W42739  19.175  25.730  10.929
70425W        W42740   1.511  44.371  14.587
70426W        W42741   1.962  38.771  12.014
70427W        W42742  31.010  44.799   3.870
70428W        W42743  43.975  43.402   4.502
70429W        W42744   0.281   5.919  10.932
70430W        W42745  13.433  28.442  11.442
70431W        W42746  21.153  30.062   0.845
70432W        W42747   1.242  34.530  11.937
70433W        W42748  13.655  27.632   0.816
70434W        W42749  41.621  12.601  13.990
70435W        W42750  18.681  11.153   9.589
70436W        W42751   7.364  31.348  12.880
70437W        W42752  32.346   7.521  11.140
70438W        W42753  20.964  29.600   1.113
70439W        W42754  18.124   1.013  12.779
70440W        W42755  16.149  33.055   3.586
70441W        W42756   2.692  24.736   2.785
70442W        W42757  39.406   4.101  13.377
70443W        W42758   1.676  33.933   2.888
70444W        W42759  40.602   3.748   4.223
70445W        W42760   2.826  21.291  14.846
70446W        W42761  16.245  35.448   0.032
70447W        W42762  40.557  25.788   2.347
70448W        W42763  24.442   7.334  13.871
70449W        W42764  16.191  30.894  12.255
70450W        W42765  22.730  28.637  13.475
70451W        W42766   6.666  11.395  13.186
70452W        W42767   5.912  15.527  12.950
70453W        W42768   8.387   8.957   3.592
70454W        W42769  28.174  43.390   0.399
70455W        W42770  22.593   5.027  10.217
70456W        W42771  20.174  38.887   2.353
70457W        W42772   5.204  44.979   0.248
70458W        W42773  11.063   5.482  12.440
70459W        W42774  41.834  34.980   0.174
70460W        W42775   8.220  40.014  13.595
70461W        W42776  33.159  38.107  11.153
70462W        W42777   1.934  21.406  11.568
70463W        W42778  37.455  22.166  10.579
70464W        W42779   1.098   9.723   4.988
70465W        W42780   8.852  23.093   0.472
70466W        W42781  36.343   3.757   0.765
70467W        W42782  27.434  28.601   3.644
70468W        W42783  33.463  20.070  10.430
70469W        W42784   0.978  36.183   4.564
70470W        W42785  25.455  13.764  12.119
70471W        W42786   8.385  44.063  14.555
70472W        W42787  26.956  10.898   4.447
70473W        W42788  33.871  16.763  12.250
70474W        W42789  20.578  25.154  14.586
70475W        W42790  44.385   0.349  11.244
70476W        W42791  36.330   6.850  13.919
70477W        W42792  36.377  17.654   4.743
70478W        W42793  21.189   6.920  11.278
70479W        W42794  32.554  22.808   1.386
70480W        W42795  31.689   4.155  14.411
70481W        W42796  13.834  37.055   3.615
70482W        W42797  37.242  27.094   4.708
70483W        W42798  18.025  32.392  11.966
70484W        W42799  35.057  39.932  11.583
70485W        W42800  39.183  22.878  11.836
70486W        W42801  42.802  12.114  11.982
70487W        W42802  20.467  36.600   2.455
70488W        W42803  33.483  43.997   2.342
70489W        W42804  28.947  35.236   1.212
70490W        W42805   8.205  19.018   0.504
70491W        W42806  38.559  21.076  10.243
70492W        W42807   8.200  31.071   3.325
70493W        W42808   2.450  21.625  14.261
70494W        W42809   2.709  12.404  10.245
70495W        W42810  28.547  38.676   0.833
70496W        W42811  43.857   3.714  14.939
70497W        W42812  42.559  11.814   2.189
70498W        W42813  42.040  24.686  14.796
70499W        W42814  32.356  32.549  13.002
70500W        W42815  31.139  12.385   3.649
70501W        W42816   1.745  44.832   1.740
70502W        W42817  16.157  25.033   1.634
70503W        W42818  39.549  42.997  13.813
70504W        W42819  37.565  42.366  12.099
70505W        W42820  24.956  31.430  14.624
70506W        W42821  38.876  11.486  12.345
70507W        W42822  18.283  15.629  12.243
70508W        W42823  16.032  22.189  10.152
70509W        W42824  37.345  33.398  10.710
70510W        W42825  14.397  19.048   3.631
70511W        W42826  20.784  13.067   3.344
70512W        W42827  31.206  42.637  12.160
70513W        W42828   9.178  30.683  14.843
70514W        W42829  38.360  14.778  13.483
70515W        W42830   6.310  44.117   4.235
70516W        W42831  10.956  42.892   0.678
70517W        W42832   8.348  17.237  13.068
70518W        W42833  21.740  41.026   1.892
70519W        W42834  44.338  17.649  12.665
70520W        W42835  35.576  28.734  11.992
70521W        W42836  16.178  41.507   0.414
70522W        W42837  34.880  16.971   1.797
70523W        W42838  14.907  11.246  12.977
70524W        W42839  18.628  39.052  10.537
70525W        W42840  43.793   2.840  13.342
70526W        W42841  13.753  44.007  13.368
70527W        W42842  10.108  14.094   3.682
70528W        W42843  32.604  14.974   0.450
70529W        W42844  19.252  10.971  11.571
70530W        W42845  18.325  39.983   1.699
70531W        W42846  41.315   8.747  13.019
70532W        W42847  37.575   1.624   0.085
70533W        W42848  16.109  28.547   0.849
70534W        W42849  29.103  36.461   3.801
70535W        W42850   6.907  36.309   0.753
70536W        W42851  32.266  40.153   2.589
70537W        W42852   1.759   3.541  10.653
70538W        W42853   4.669  36.398  13.549
70539W        W42854  17.252   1.994   1.742
70540W        W42855  15.718  31.681   4.633
70541W        W42856  35.054  26.696  14.835
70542W        W42857   6.780  16.328   4.519
70543W        W42858  13.526   4.975  11.069
70544W        W42859  41.778   5.019  12.538
70545W        W42860  39.573  37.646  14.353
70546W        W42861  16.566  26.016  11.884
70547W        W42862   9.098   3.046  10.615
70548W        W42863  31.082  16.752   4.387
70549W        W42864  17.161   8.623  14.171
70550W        W42865   6.874  36.963   1.878
70551W        W42866   6.203  17.195   3.994
70552W        W42867  15.141  24.651  10.369
70553W        W42868  17.064  17.190   4.077
70554W        W42869  16.045  23.737   0.845
70555W        W42870  14.252  20.100   4.424
70556W        W42871  34.445   6.441   3.276
70557W        W42872  12.245  25.912  13.577
70558W        W42873  10.260  15.314  14.106
70559W        W42874   1.147  18.747   0.856
70560W        W42875  34.088  42.738   5.028
70561W        W42876  29.054  12.438   4.523
70562W        W42877  24.339  30.226  13.874
70563W        W42878  20.172  39.764   0.657
70564W        W42879  20.177   4.160   0.347
70565W        W42880  25.206   5.828   3.571
70566W        W42881   1.962  14.948   3.692
70567W        W42882   7.676   9.440  10.778
70568W        W42883   6.104  40.536   2.157
70569W        W42884  36.503  25.098   1.185
70570W        W42885  36.445   8.005  14.774
70571W        W42886  28.952   2.702   3.428
70572W        W42887   5.886   7.652   4.470
70573W        W42888  35.121  35.863   3.353
70574W        W42889  32.033   5.472  11.596
70575W        W42890  24.508  38.320  11.111
70576W        W42891  13.586  43.841   0.868
70577W        W42892   4.950   7.658   4.097
70578W        W42893  24.689  21.793   2.719
70579W        W42894   4.707   4.687  11.965
70580W        W42895  28.929  17.532  13.825
70581W        W42896   6.164   8.358  11.646
70582W        W42897   2.852  25.274  11.324
70583W        W42898   6.412  23.482  11.456
70584W        W42899  27.531   5.025   1.270
70585W        W42900  14.425   5.782  14.016
70586W        W42901  31.554  39.332   3.731
70587W        W42902  40.736   6.179  14.403
70588W        W42903  24.672  16.130  12.994
70589W        W42904   7.433  32.420  12.211
70590W        W42905  12.620   7.707   0.923
70591W        W42906  43.533  40.047  11.137
70592W        W42907  16.289   3.267  12.867
70593W        W42908  40.740  20.560   1.711
70594W        W42909  17.496  13.790   1.890
70595W        W42910  16.701  25.442   3.665
70596W        W42911  21.611  32.082  12.440
70597W        W42912  18.185  17.337   2.448
70598W        W42913  18.543   5.745   3.664
70599W        W42914  35.336   9.341  11.916
70600W        W42915   7.281  31.931  12.064
70601W        W42916  43.993  12.445   9.879
70602W        W42917  13.295   7.350  10.611
70603W        W42918   2.413  33.553  10.469
70604W        W42919  40.461  15.595   4.159
70605W        W42920   4.905   9.218  11.008
70606W        W42921  13.190  11.844   1.408
70607W        W42922  12.785  20.844  12.953
70608W        W42923  32.546  27.719   0.409
70609W        W42924  43.332  22.742   2.396
70610W        W42925  37.427   1.427  14.332
70611W        W42926  20.954  26.615  11.123
70612W        W42927  44.850  38.560   4.543
70613W        W42928  16.478  17.341  14.128
70614W        W42929  41.063  25.554   4.950
70615W        W42930   4.289   4.584   1.889
70616W        W42931   2.176   4.953  12.306
70617W        W42932  42.317   9.397   0.302
70618W        W42933  34.685  33.037   2.291
70619W        W42934   4.881  40.539   1.214
70620W        W42935   4.659  15.252   2.140
70621W        W42936  20.878  25.991   1.288
70622W        W42937  40.091  23.552   3.072
70623W        W42938  23.010  26.880  14.486
70624W        W42939  34.901  21.770  12.489
70625W        W42940   0.035   8.908   5.009
70626W        W42941  16.196  20.071  12.119
70627W        W42942  34.596  26.183   1.403
70628W        W42943  24.518  28.659   2.412
70629W        W42944  29.201   9.683  11.977
70630W        W42945  28.894  36.354  10.817
70631W        W42946  31.065  12.900  11.639
70632W        W42947  13.274  16.767  12.326
70633W        W42948  22.950  15.462  11.708
70634W        W42949  20.125  10.815   1.339
70635W        W42950  13.238  30.528   2.842
70636W        W42951  33.835  31.909   2.853
70637W        W42952   9.299  25.182   4.187
70638W        W42953  32.637  20.607  14.870
70639W        W42954  34.876  26.030   1.815
70640W        W42955  40.144  43.903  10.730
70641W        W42956  39.165  11.267  11.981
70642W        W42957   6.585  44.985   1.282
70643W        W42958   4.364  12.207   2.431
70644W        W42959  26.082   4.368   3.670
70645W        W42960  26.503  22.742   3.590
70646W        W42961  16.509   9.222  12.299
70647W        W42962  29.020  31.904   3.591
70648W        W42963  23.492  21.818   0.313
70649W        W42964  11.209  30.304  14.481
70650W        W42965   4.201   6.358  12.283
70651W        W42966   9.722  44.329   0.689
70652W        W42967   0.370   6.212   3.740
70653W        W42968  40.256  16.857   0.854
70654W        W42969   4.743  21.714  13.492
70655W        W42970   8.564  42.812   2.284
70656W        W42971  26.573  32.446   3.861
70657W        W42972   4.486   4.241   2.245
70658W        W42973  25.701  18.087   4.178
70659W        W42974  39.838  15.619  14.808
70660W        W42975  22.584   3.198   2.283
70661W        W42976  35.630  30.300   0.020
70662W        W42977  18.203   9.984   2.474
70663W        W42978  31.405  27.894   2.261
70664W        W42979  38.062   5.882   1.683
70665W        W42980   5.805  21.684   1.252
70666W        W42981   2.269   1.783   2.823
70667W        W42982  21.076   5.863   4.972
70668W        W42983  19.086  37.503  12.789
70669W        W42984  18.339  33.989  14.635
70670W        W42985  40.349  13.344   3.352
70671W        W42986  24.697  42.386  11.793
70672W        W42987  15.880   4.871   3.599
70673W        W42988  26.500  33.143   2.657
70674W        W42989  32.577   2.426  11.515
70675W        W42990   5.785   0.381  13.050
70676W        W42991  17.115   0.796   1.756
70677W        W42992  22.552   7.316   4.518
70678W        W42993  12.907  39.019  13.517
70679W        W42994  37.017  41.811  12.609
70680W        W42995  40.353  33.348   3.103
70681W        W42996   4.661  27.085   3.335
70682W        W42997  33.331  39.489   0.214
70683W        W42998   1.219   9.926   2.882
70684W        W42999  20.177  32.023  13.894
70685W        W43000   5.397  38.417  12.007
70686W        W43001  40.783   9.585  14.882
70687W        W43002  22.817  43.423  12.043
70688W        W43003  16.902   2.247  10.831
70689W        W43004  19.672  27.986  12.523
70690W        W43005  27.603  11.635  13.883
70691W        W43006  23.029  27.943  11.523
70692W        W43007  30.677  26.430  12.087
70693W        W43008  11.662  34.174  10.847
70694W        W43009   6.789   0.692   3.167
70695W        W43010  12.320  19.615  12.623
70696W        W43011  36.141   2.776   0.771
70697W        W43012  21.277   2.415  11.704
70698W        W43013  11.131  41.841   2.847
70699W        W43014  27.664  19.963   2.852
70700W        W43015  36.585  16.816   1.083
70701W        W43016   1.548   4.520   3.183
70702W        W43017  14.626   0.292   1.404
70703W        W43018  34.710  23.490  12.560
70704W        W43019  13.720   7.920   1.181
70705W        W43020  44.913  26.141   3.302
70706W        W43021   8.160  33.318   0.061
70707W        W43022   4.419  37.019  12.464
70708W        W43023  44.114  34.921   5.028
70709W        W43024   4.736  17.150  11.877
70710W        W43025  34.625   2.517   1.322
70711W        W43026  28.216   7.780   1.839
70712W        W43027  27.911  22.099  13.930
70713W        W43028   7.711  43.965  13.943
70714W        W43029  27.692  43.510  10.581
70715W        W43030  23.922  32.126   0.717
70716W        W43031  11.846  32.427  12.828
70717W        W43032   0.408  11.767   1.837
70718W        W43033  10.843  20.600   1.345
70719W        W43034  30.751  37.589  11.964
70720W        W43035   0.993  10.286  12.771
70721W        W43036   1.560   2.486  14.842
70722W        W43037  25.580  29.857  14.371
70723W        W43038  36.265   5.381  11.484
70724W        W43039   1.801  21.251   0.828
70725W        W43040  41.938   4.768  10.761
70726W        W43041  40.046  31.132  14.717
70727W        W43042  10.921  30.404  14.903
70728W        W43043   7.630  29.349  12.289
70729W        W43044  38.499  24.099  11.596
70730W        W43045   9.851  37.515  11.817
70731W        W43046  20.228  41.336   3.345
70732W        W43047  40.045  34.543   2.261
70733W        W43048  34.481  23.823   0.552
70734W        W43049  27.645  36.303  13.874
70735W        W43050  43.723  22.758   3.075
70736W        W43051  22.410   5.307  14.733
70737W        W43052  44.730  22.688   0.272
70738W        W43053  17.561  42.384  12.042
70739W        W43054   0.941  19.349  14.547
70740W        W43055  23.463  39.449   2.418
70741W        W43056  24.613  31.630   3.314
70742W        W43057  14.832  15.293  14.838
70743W        W43058  33.390  34.249  14.149
70744W        W43059  43.615  18.836   3.246
70745W        W43060   2.338  36.428  12.059
70746W        W43061  28.226  31.367  11.384
70747W        W43062  44.282   6.984   2.349
70748W        W43063   6.779  15.134  14.942
70749W        W43064  25.771  23.281   0.714
70750W        W43065  15.349  25.043   1.413
70751W        W43066  31.364  18.261   4.704
70752W        W43067  15.665  12.255  14.409
70753W        W43068  37.796  19.867  14.333
70754W        W43069   1.412  38.506   0.845
70755W        W43070  34.601  43.794  11.026
70756W        W43071  26.571  23.096  10.688
70757W        W43072  31.499  42.289  14.330
70758W        W43073   4.267  10.336   1.332
70759W        W43074  30.567  30.764   2.670
70760W        W43075  20.049  41.520   2.897
70761W        W43076  14.197  22.527   2.810
70762W        W43077   7.738   7.208   4.946
70763W        W43078  12.065  18.885   5.115
70764W        W43079  25.932  23.625  12.285
70765W        W43080  43.199  37.880   4.125
70766W        W43081  20.423  18.160   3.827
70767W        W43082  18.424  26.524  13.346
70768W        W43083  43.961  28.435  11.677
70769W        W43084  36.400  28.858   4.791
70770W        W43085  35.884  31.966  11.571
70771W        W43086  30.355  39.846  13.977
70772W        W43087  30.141  32.350   1.839
70773W        W43088   2.842  37.405  12.552
70774W        W43089  37.762  23.846  14.314
70775W        W43090  44.858   9.870   9.558
70776W        W43091  37.927   0.897  11.233
70777W        W43092  11.867   2.929  14.086
70778W        W43093  22.061  37.350  12.406
70779W        W43094  29.472  26.109   4.743
70780W        W43095   5.705  27.880   1.724
70781W        W43096  14.594   3.000   2.344
70782W        W43097   7.266   8.720   1.439
70783W        W43098  36.440   9.280  12.611
70784W        W43099   8.184   6.837  11.595
70785W        W43100  28.450  17.183   1.915
70786W        W43101  23.293  38.955   2.214
70787W        W43102  16.552  31.449  10.086
70788W        W43103  28.022  39.866   1.273
70789W        W43104  15.220  28.049  13.108
70790W        W43105  28.004  33.313   0.013
70791W        W43106  15.418   9.869  14.493
70792W        W43107  38.396  27.124  14.824
70793W        W43108  15.744   9.980   1.317
70794W        W43109   5.153   8.927   1.834
70795W        W43110  15.221  26.718  10.549
70796W        W43111  24.305  15.508   1.238
70797W        W43112  21.238  15.983   3.184
70798W        W43113  42.868  41.327   3.429
70799W        W43114  43.444  24.464   2.111
70800W        W43115   5.517  20.729   0.596
70801W        W43116  20.101  30.701  13.090
70802W        W43117  18.988  20.958   3.374
70803W        W43118  42.451  15.796  10.481
70804W        W43119   6.843  13.823   3.793
70805W        W43120   8.235  16.689  11.923
70806W        W43121   7.423   9.140   1.720
70807W        W43122   5.834  36.817   3.339
70808W        W43123  38.048  18.081  10.305
70809W        W43124   7.252   6.929  11.400
70810W        W43125  30.512  39.502  13.525
70811W        W43126  30.322   1.448   4.064
70812W        W43127  20.749  15.394  12.572
70813W        W43128  21.243  20.256  14.208
70814W        W43129  42.796  32.439   0.966
70815W        W43130  11.286  35.397  14.021
70816W        W43131  40.381  26.411   1.091
70817W        W43132  13.240  27.074   4.040
70818W        W43133  22.789  38.460  14.409
70819W        W43134  36.023  31.257   2.733
70820W        W43135  22.813  31.283  14.536
70821W        W43136  42.332  20.123  13.830
70822W        W43137  39.748  17.589  10.662
70823W        W43138   2.329  24.769   3.812
70824W        W43139  34.339  27.163   2.994
70825W        W43140  22.522  11.667  14.770
70826W        W43141  43.779  35.960   4.212
70827W        W43142  23.510  24.009   4.689
70828W        W43143  38.384   1.344  10.661
70829W        W43144  41.682  19.027   3.227
70830W        W43145  10.355   3.347   2.374
70831W        W43146  30.215  37.757  14.401
70832W        W43147  17.649  25.611   1.678
70833W        W43148  23.025   8.196   1.965
70834W        W43149  41.517  36.603  11.983
70835W        W43150  29.679  23.621  11.870
70836W        W43151  21.322  19.965   1.464
70837W        W43152  15.277   9.604   4.664
70838W        W43153  19.642  24.766  14.298
70839W        W43154   2.013  18.662  14.134
70840W        W43155  26.972  14.206   4.579
70841W        W43156   2.996  35.342   0.295
70842W        W43157   9.596  19.541  14.459
70843W        W43158  35.997   8.975   4.591
70844W        W43159  17.597  42.812  13.001
70845W        W43160  21.595  27.544  10.412
70846W        W43161   1.183  35.008   3.275
70847W        W43162   6.385  44.734  11.555
70848W        W43163  24.928  42.553  12.807
70849W        W43164  40.135  21.081  14.550
70850W        W43165  28.227   3.004  12.938
70851W        W43166   4.134  37.854  11.567
70852W        W43167   4.424  41.909  10.711
70853W        W43168  26.881   7.979  14.368
70854W        W43169  18.156  18.145  14.737
70855W        W43170  41.725   7.790  10.375
70856W        W43171   4.217  18.788   3.554
70857W        W43172  42.033  12.996   2.966
70858W        W43173   5.920  24.416  11.989
70859W        W43174  16.859  21.516   3.372
70860W        W43175   3.564   6.638  11.522
70861W        W43176  19.173  15.150  13.420
70862W        W43177  16.747  25.584  13.338
70863W        W43178   3.805  21.719   4.573
70864W        W43179  19.747  39.980   4.606
70865W        W43180  12.405  36.983   1.003
70866W        W43181  12.648  42.846   0.484
70867W        W43182  17.464  20.756   4.272
70868W        W43183  44.417  28.420   2.341
70869W        W43184  12.193   2.136   3.866
70870W        W43185  12.605   1.465  12.380
70871W        W43186  40.499  43.965   5.028
70872W        W43187   6.279   1.677   2.715
70873W        W43188   7.034  25.774  14.110
70874W        W43189  28.907  18.156   3.417
70875W        W43190  44.996   0.357   0.892
70876W        W43191  21.336   3.405  13.050
70877W        W43192  34.860   2.247   4.495
70878W        W43193  16.862  24.499   1.224
70879W        W43194  13.730  22.001   3.282
70880W        W43195  43.900  22.511   3.505
70881W        W43196   0.931  19.121  12.620
70882W        W43197  20.209  27.721   2.186
70883W        W43198  12.867  35.952   4.363
70884W        W43199  12.870  18.990  13.451
70885W        W43200  38.430  30.922  13.469
70886W        W43201  27.690  22.794   0.216
70887W        W43202  18.174  11.525  12.085
70888W        W43203  12.838  17.563  13.289
70889W        W43204  41.345  37.612  11.837
70890W        W43205  17.441   9.151  12.430
70891W        W43206  42.102   6.975   0.499
70892W        W43207  23.961  38.176   2.751
70893W        W43208  43.446   5.327   1.257
70894W        W43209  13.189  20.108  14.989
70895W        W43210   6.449   5.745   2.068
70896W        W43211  38.045  15.215   0.152
70897W        W43212  15.248   8.874   1.731
70898W        W43213  14.135   4.516   3.333
70899W        W43214  30.181  39.199   4.056
70900W        W43215  17.351  42.523   2.853
70901W        W43216  12.415  34.176   3.853
70902W        W43217  33.181  12.779  13.415
70903W        W43218  12.654  14.746  13.117
70904W        W43219  18.791  31.331  12.444
70905W        W43220  16.978   0.521  13.385
70906W        W43221  34.240  33.645   1.954
70907W        W43222   8.749  41.362  14.916
70908W        W43223  27.408  40.507  13.768
70909W        W43224   1.835  30.219  13.813
70910W        W43225  24.489  21.445  14.503
70911W        W43226  27.499  37.100   3.380
70912W        W43227  32.158  37.054  11.399
70913W        W43228   9.791  14.743  14.063
70914W        W43229  29.523  44.866   4.268
70915W        W43230  24.179   2.896  14.239
70916W        W43231  12.270  16.094   2.728
70917W        W43232  43.814  25.539  14.639
70918W        W43233  25.670   3.884  14.796
70919W        W43234  15.477  14.464   3.266
70920W        W43235  27.200  10.663  14.582
70921W        W43236  29.917   5.927   1.214
70922W        W43237  28.720   2.889  12.898
70923W        W43238  20.239  39.621   3.663
70924W        W43239  21.472  29.504   4.577
70925W        W43240   0.486   0.010   4.343
70926W        W43241  22.325  12.758  12.885
70927W        W43242  10.711   7.754   4.170
70928W        W43243  22.155  32.813  12.059
70929W        W43244  13.153   0.166  11.008
70930W        W43245  42.064  11.853   2.089
70931W        W43246   5.950  28.940  14.898
70932W        W43247  24.223  36.949  13.595
70933W        W43248  43.425   8.380  12.924
70934W        W43249  36.975  35.932  13.563
70935W        W43250   1.171   9.253   2.432
70936W        W43251  31.738   2.857  11.989
70937W        W43252  35.494   1.581  12.174
70938W        W43253  38.863   7.649   4.304
70939W        W43254   4.933  27.102   2.335
70940W        W43255  24.115  27.291   1.289
70941W        W43256   9.909  16.762  10.594
70942W        W43257   2.436  34.601  14.999
70943W        W43258  39.987   1.902  12.071
70944W        W43259  25.037  36.363   1.461
70945W        W43260  38.925  42.998   1.944
70946W        W43261  25.769  19.130   1.813
70947W        W43262  34.805  25.739  11.102
70948W        W43263  38.356  12.414   4.690
70949W        W43264  37.721  34.027   0.336
70950W        W43265   3.815  28.165   2.942
70951W        W43266  10.175  39.540  14.079
70952W        W43267  26.128  22.660  12.903
70953W        W43268  40.631   4.653  14.795
70954W        W43269  15.755   9.800   4.867
70955W        W43270  28.469  25.241  13.833
70956W        W43271  38.561  35.049  12.711
70957W        W43272  18.707  15.051   0.305
70958W        W43273  41.757   3.481   1.279
70959W        W43274  14.034  36.791  13.959
70960W        W43275  37.912  21.262   1.486
70961W        W43276  22.733   3.533   3.669
70962W        W43277   1.322  20.474  14.419
70963W        W43278  28.952   5.710   4.789
70964W        W43279  14.403  39.332   2.753
70965W        W43280  28.575  32.235  12.370
70966W        W43281   5.188  16.077   2.678
70967W        W43282  20.528   6.687   0.787
70968W        W43283   9.201  24.674   4.142
70969W        W43284  26.153  40.300  13.132
70970W        W43285   0.268  19.654   1.189
70971W        W43286   9.364   4.800   0.338
70972W        W43287  30.721  21.023  12.956
70973W        W43288  18.850  40.247  11.601
70974W        W43289  13.456  11.282   3.778
70975W        W43290   1.722   4.302  11.760
70976W        W43291  20.739  42.982   2.842
70977W        W43292  27.629   1.679  12.684
70978W        W43293  27.889  44.694  11.153
70979W        W43294   1.378  33.530   1.557
70980W        W43295  26.545  20.484   2.267
70981W        W43296  16.828  44.100  10.683
70982W        W43297   3.726  40.769   4.649
70983W        W43298   3.149   5.208  12.428
70984W        W43299  14.194  25.693   1.096
70985W        W43300  28.666   1.716  12.092
70986W        W43301  23.254  18.749  13.749
70987W        W43302  38.898  32.213   3.703
70988W        W43303  17.544  41.882   4.842
70989W        W43304  36.070   8.724   0.468
70990W        W43305  42.983  35.485  14.341
70991W        W43306  10.354   9.579  13.979
70992W        W43307  36.338   3.325  11.632
70993W        W43308   3.121   7.468   1.908
70994W        W43309  44.921  22.186  12.843
70995W        W43310   2.406  21.146   3.788
70996W        W43311  27.022  33.037   2.170
70997W        W43312   9.864  30.380   4.297
70998W        W43313  30.878  22.106   3.201
70999W        W43314  41.511   1.209   2.572
71000W        W43315   1.081   3.924   0.327
71001W        W43316   3.445  37.770   3.372
71002W        W43317  11.330   3.854  14.262
71003W        W43318  38.972  21.140  13.924
71004W        W43319  31.572  42.599  13.008
71005W        W43320   4.638   0.068  10.442
71006W        W43321   4.422  15.249  14.719
71007W        W43322  24.934  27.485  13.963
71008W        W43323  18.665  12.056   4.114
71009W        W43324  17.621  26.192  13.116
71010W        W43325   9.418   2.318  14.257
71011W        W43326  31.988  17.999   3.136
71012W        W43327   8.341   1.017   3.299
71013W        W43328  32.050  30.654   2.498
71014W        W43329   6.857  10.093  10.171
71015W        W43330  28.762  35.550  13.337
71016W        W43331  16.746  22.707  10.595
71017W        W43332  26.469  40.200  13.540
71018W        W43333  14.550  20.925   2.146
71019W        W43334  16.785  26.995   1.747
71020W        W43335  31.124  16.681  13.348
71021W        W43336  17.083  35.667   4.427
71022W        W43337  16.302   3.835   0.153
71023W        W43338  30.902  41.339   4.525
71024W        W43339  18.976  18.857   1.712
71025W        W43340  34.699  31.056   1.700
71026W        W43341  42.019   7.930   3.029
71027W        W43342  32.704  10.136  14.410
71028W        W43343  11.376  13.335   1.793
71029W        W43344   1.275  14.323   3.703
71030W        W43345  10.747  14.124  13.798
71031W        W43346   8.427   3.341  12.375
71032W        W43347  20.997  41.367   0.929
71033W        W43348   6.447  43.987  12.155
71034W        W43349  24.939  30.493  10.897
71035W        W43350  42.470  21.590  14.867
71036W        W43351   9.312   9.188  10.755
71037W        W43352   6.933  29.618   0.720
71038W        W43353  23.992   7.947   3.801
71039W        W43354   9.691  26.186   3.226
71040W        W43355  32.686  21.370  13.357
71041W        W43356   8.769  19.164  11.425
71042W        W43357  36.976  11.342  11.422
71043W        W43358  13.426  24.027   3.715
71044W        W43359  43.865  16.296   1.487
71045W        W43360  40.796  27.685  11.647
71046W        W43361  28.875  43.685  11.093
71047W        W43362   3.781  13.230  14.953
71048W        W43363   6.357  35.582   9.942
71049W        W43364  29.499  14.881   2.425
71050W        W43365  40.751  16.375   1.385
71051W        W43366  27.760   2.268  13.474
71052W        W43367  12.286   8.378   2.251
71053W        W43368  40.311  25.546   0.074
71054W        W43369  21.171  44.144  13.414
71055W        W43370  33.294  39.995   1.364
71056W        W43371  18.162   0.479  12.744
71057W        W43372  28.102  39.624  12.312
71058W        W43373  25.698  40.382  11.511
71059W        W43374  25.594  42.093  11.731
71060W        W43375  36.143   0.745  11.624
71061W        W43376  23.028  43.384  12.645
71062W        W43377   1.042   8.529   0.347
71063W        W43378  23.391  29.807  13.098
71064W        W43379  40.011  11.666  14.183
71065W        W43380  37.372  30.967  14.441
71066W        W43381  20.657  41.486   2.354
71067W        W43382  20.594  17.117   2.674
71068W        W43383  34.794  14.829   0.083
71069W        W43384  44.792   6.717  13.855
71070W        W43385   4.492  17.763   2.286
71071W        W43386  38.985  38.282   1.241
71072W        W43387  30.551  10.091   4.905
71073W        W43388   8.892   5.350  14.735
71074W        W43389  24.008  10.318  10.188
71075W        W43390  23.701   2.005  10.753
71076W        W43391  24.206  14.332   4.559
71077W        W43392  44.672  15.771   1.906
71078W        W43393  17.844  12.344   3.713
71079W        W43394  34.452  43.184   4.323
71080W        W43395  37.515   3.215  14.448
71081W        W43396   6.167   7.453  13.097
71082W        W43397  35.412   9.196   3.957
71083W        W43398  35.843   0.528   4.189
71084W        W43399  23.434  21.888   1.170
71085W        W43400  29.124  32.084   4.534
71086W        W43401  12.412  20.174   1.204
71087W        W43402  10.218  21.184  11.065
71088W        W43403  30.674  26.045   0.046
71089W        W43404  39.784  19.712  11.243
71090W        W43405  32.071  24.267  10.612
71091W        W43406   0.500   7.538  10.273
71092W        W43407  29.701   4.629  11.467
71093W        W43408  17.859   4.279  13.258
71094W        W43409  18.216   8.912  10.490
71095W        W43410  19.568  42.684   1.319
71096W        W43411  38.070   3.667  14.721
71097W        W43412  12.472  32.896   2.194
71098W        W43413  35.169  37.414  12.914
71099W        W43414   3.675  18.128  12.921
71100W        W43415   8.165  31.652  12.384
71101W        W43416  41.556  18.902   0.842
71102W        W43417  27.941   3.444   2.873
71103W        W43418  13.902  26.596   0.805
71104W        W43419  22.948  36.199   1.454
71105W        W43420  33.749   3.620   0.514
71106W        W43421   0.316   2.711  10.806
71107W        W43422  31.125   5.405   3.175
71108W        W43423  39.003   5.800  10.515
71109W        W43424  27.134  24.618   3.609
71110W        W43425  20.072  24.082  14.684
71111W        W43426  31.891  15.221  14.501
71112W        W43427  42.703  35.408   3.743
71113W        W43428  22.108  36.950   0.486
71114W        W43429  27.038  34.354  11.140
71115W        W43430  15.328  44.678   4.142
71116W        W43431  24.146   7.888  12.326
71117W        W43432  19.727  37.069   3.157
71118W        W43433  22.078  19.270   3.644
71119W        W43434  26.720  13.112   3.574
71120W        W43435  18.665   8.855   1.398
71121W        W43436  10.274  27.186   2.572
71122W        W43437   4.481  30.422   1.647
71123W        W43438   9.942  19.729  14.801
71124W        W43439  24.189   9.199  13.516
71125W        W43440  29.187   4.887  13.384
71126W        W43441  32.150  26.668  14.247
71127W        W43442   5.958  41.495  14.267
71128W        W43443   4.140   8.633  11.297
71129W        W43444   5.793  25.442   0.780
71130W        W43445  27.090   2.728  12.024
71131W        W43446  34.988  39.384   1.929
71132W        W43447  25.836   6.243   1.226
71133W        W43448  34.664  19.041  12.570
71134W        W43449  21.468  32.289   4.536
71135W        W43450  24.398   0.262  11.487
71136W        W43451  40.364  39.096   2.362
71137W        W43452  37.156   8.273   4.717
71138W        W43453  25.591  37.750   2.331
71139W        W43454  14.130  41.800   4.994
71140W        W43455  35.866   7.497   2.496
71141W        W43456  22.625  22.838   0.272
71142W        W43457   8.549  33.914  12.806
71143W        W43458  16.673  39.507  11.648
71144W        W43459  20.087   6.930  11.505
71145W        W43460  41.525  42.472   4.637
71146W        W43461  21.014  22.605   1.428
71147W        W43462  41.950  44.837  13.223
71148W        W43463   4.130  27.053  14.875
71149W        W43464  16.603   1.929  13.850
71150W        W43465  33.144  32.403   0.222
71151W        W43466  12.862  27.750   1.161
71152W        W43467  21.935  42.738   1.832
71153W        W43468  31.462  24.770  14.046
71154W        W43469  28.257  20.826   1.472
71155W        W43470  39.861  41.796  11.501
71156W        W43471  27.131   1.325  14.815
71157W        W43472  39.024  23.567   5.089
71158W        W43473  16.055  42.744   1.790
71159W        W43474  38.500  29.754   4.361
71160W        W43475  40.055  19.219  12.609
71161W        W43476  36.827   2.702  14.520
71162W        W43477  42.285  23.923   2.652
71163W        W43478  22.750  11.323  12.060
71164W        W43479   2.429   8.942   1.464
71165W        W43480  30.058  29.127  13.949
71166W        W43481  12.792  43.512   0.980
71167W        W43482  35.909  36.112   0.916
71168W        W43483  35.191  29.172   1.029
71169W        W43484   0.394  23.665  13.080
71170W        W43485  37.114  11.789  11.101
71171W        W43486   0.889  31.005   1.275
71172W        W43487  22.846  10.898  13.946
71173W        W43488  38.465  38.563   3.098
71174W        W43489  24.372   8.099   0.396
71175W        W43490   2.798  34.939  13.141
71176W        W43491  14.114  15.381   1.407
71177W        W43492  15.614  37.000  14.763
71178W        W43493  37.669  41.506  14.577
71179W        W43494  29.279  13.209   0.440
71180W        W43495  15.661  24.581   2.059
71181W        W43496  21.645  29.442   1.859
71182W        W43497  30.009  20.895   2.304
71183W        W43498  24.892  25.168  11.039
71184W        W43499  43.993   9.406   2.314
71185W        W43500  41.026  23.446   0.738
71186W        W43501  41.832  10.654  12.972
71187W        W43502  43.527  15.570   1.597
71188W        W43503   3.586  39.549   2.073
71189W        W43504   8.181  29.425   1.860
71190W        W43505  31.440  39.325  14.346
71191W        W43506  25.178   2.146  11.565
71192W        W43507  39.562  26.096   0.332
71193W        W43508  31.423  36.667   0.920
71194W        W43509   6.180  11.903   1.769
71195W        W43510  40.860   5.831   4.630
71196W        W43511  34.025  17.232   4.537
71197W        W43512  39.544  22.561  14.793
71198W        W43513   1.935  24.321   2.537
71199W        W43514  17.954   7.631   1.440
71200W        W43515  30.660  14.223   3.238
71201W        W43516  15.708  19.367  13.024
71202W        W43517  41.350  26.174  12.212
71203W        W43518   2.924  28.170  12.046
71204W        W43519   0.393  17.182  11.379
71205W        W43520   4.049  42.893   4.216
71206W        W43521  34.111  22.825   4.811
71207W        W43522  38.752  12.860  12.843
71208W        W43523   1.748   3.804  13.287
71209W        W43524  38.067   7.775   2.916
71210W        W43525  32.169  44.731   3.074
71211W        W43526   5.309  33.347   1.885
71212W        W43527  30.071  14.559  11.659
71213W        W43528  34.001  32.381   1.861
71214W        W43529   2.558  44.074  12.631
71215W        W43530  26.694  10.640   0.266
71216W        W43531  36.177  30.523  10.562
71217W        W43532  24.589   4.744  12.427
71218W        W43533  36.332   5.595  12.029
71219W        W43534   2.418   5.926   2.733
71220W        W43535  41.906  42.982   0.641
71221W        W43536  23.744  12.620   2.757
71222W        W43537  37.447  25.667  13.986
71223W        W43538  42.262  11.843   4.472
71224W        W43539   4.224  36.566   3.397
71225W        W43540   1.493  37.996   0.845
71226W        W43541   8.221  10.348   1.798
71227W        W43542  27.405  12.545  13.962
71228W        W43543   6.996  43.873   2.140
71229W        W43544  34.953  42.266  12.934
71230W        W43545  16.552  22.612   1.302
71231W        W43546  34.600  21.220   2.676
71232W        W43547   7.608  35.727   5.085
71233W        W43548  39.064  39.081   4.695
71234W        W43549   5.975  42.438  13.488
71235W        W43550   3.266  42.797   4.779
71236W        W43551  32.947  20.348   2.857
71237W        W43552  12.220  32.976  12.463
71238W        W43553  28.708  26.608  12.512
71239W        W43554  15.190  17.925   5.018
71240W        W43555   9.626  13.310   2.836
71241W        W43556  19.671   0.931   0.148
71242W        W43557  38.757   0.029   4.123
71243W        W43558  18.383  39.128  11.127
71244W        W43559  21.711  21.906   4.247
71245W        W43560  21.945  42.297   3.103
71246W        W43561  38.542  13.255   1.261
71247W        W43562  10.686   6.868   4.324
71248W        W43563  34.873  30.607   0.233
71249W        W43564   8.920   0.740  10.374
71250W        W43565   9.015  20.412  11.490
71251W        W43566  24.541   1.354   0.778
71252W        W43567  19.026  22.818   2.762
71253W        W43568  37.277  33.007   2.159
71254W        W43569  29.624  19.789  12.130
71255W        W43570  41.806  37.926   0.211
71256W        W43571  29.271   6.843   2.303
71257W        W43572   4.694  19.142   1.661
71258W        W43573  44.058  30.097  11.221
71259W        W43574   4.206  29.507  14.037
71260W        W43575  25.788   3.566  13.599
71261W        W43576   5.944  35.378  11.644
71262W        W43577  37.135  44.992  14.460
71263W        W43578  14.758   3.064  12.793
71264W        W43579   7.401  37.856  10.742
71265W        W43580   3.941  24.582   2.268
71266W        W43581  15.235  18.563  10.639
71267W        W43582   6.851  24.183  12.335
71268W        W43583  38.587   8.595  11.840
71269W        W43584  24.586  37.648   4.251
71270W        W43585   1.476  35.817  13.690
71271W        W43586   8.869  22.209   4.108
71272W        W43587   1.766  30.940  11.894
71273W        W43588  35.183   4.397   2.256
71274W        W43589  44.800  23.522   3.593
71275W        W43590  37.086  44.483   9.977
71276W        W43591  42.756   7.458   2.796
71277W        W43592  30.540   8.134   3.266
71278W        W43593   9.594  16.341  13.025
71279W        W43594   9.317  23.766  12.400
71280W        W43595  40.340  28.205  13.777
71281W        W43596  39.524   1.176  11.554
71282W        W43597  30.223  24.576  10.954
71283W        W43598  41.768  11.754   4.617
71284W        W43599  12.280   1.184  12.006
71285W        W43600  12.508  24.018  12.188
71286W        W43601  25.451  40.677   0.818
71287W        W43602  17.149  26.234   1.352
71288W        W43603  18.413   0.844   3.872
71289W        W43604  28.188  11.116   2.778
71290W        W43605  39.221  14.923   1.395
71291W        W43606  36.995  27.336   4.007
71292W        W43607   3.535  13.120   4.094
71293W        W43608  23.941  26.545  12.005
71294W        W43609  26.186   3.959   0.893
71295W        W43610  13.428  21.193  14.797
71296W        W43611  42.709  25.534  11.066
71297W        W43612  20.583  22.273   1.364
71298W        W43613  27.342  43.792   2.322
71299W        W43614  41.232  17.278   1.196
71300W        W43615  17.161  30.381   0.971
71301W        W43616  26.482  20.996   2.293
71302W        W43617  30.519  40.614   1.318
71303W        W43618  32.022  34.372   2.581
71304W        W43619   4.409  42.033   3.746
71305W        W43620  20.668  40.339   4.869
71306W        W43621  16.424  27.704  10.188
71307W        W43622  37.796  16.510   2.356
71308W        W43623  43.866  37.738  12.430
71309W        W43624  43.894  12.640   0.319
71310W        W43625  44.298  31.083   2.979
71311W        W43626  40.405  21.623   3.855
71312W        W43627   2.917  29.074   2.347
71313W        W43628  30.612  14.215   0.797
71314W        W43629   0.421   1.924   0.253
71315W        W43630  25.016  14.088   0.274
71316W        W43631  26.945  16.136   1.641
71317W        W43632  17.515  38.867   4.983
71318W        W43633   8.687  13.307   3.141
71319W        W43634  29.476  14.073  11.104
71320W        W43635  10.674  30.095  13.583
71321W        W43636  32.783  11.199   4.113
71322W        W43637  37.524  21.485   0.767
71323W        W43638  16.773  38.969  10.435
71324W        W43639  15.533  35.884  11.512
71325W        W43640  29.137   4.376  12.467
71326W        W43641   0.888  11.090  11.119
71327W        W43642  23.887  13.306   5.132
71328W        W43643  10.819  44.419  13.431
71329W        W43644  43.962  32.195   0.766
71330W        W43645   7.343  18.704  12.656
71331W        W43646  12.719  23.332  11.152
71332W        W43647  34.399  33.564   3.933
71333W        W43648   9.825  10.927  11.859
71334W        W43649  24.021  23.307  11.955
71335W        W43650  39.069  23.427   4.594
71336W        W43651  43.749  42.095  13.105
71337W        W43652  28.645  31.130  12.458
71338W        W43653  37.562  14.848  11.484
71339W        W43654  12.288   3.094  12.918
71340W        W43655   5.668  23.094  12.146
71341W        W43656  25.525   6.730   2.464
71342W        W43657   7.419   3.173  12.150
71343W        W43658  14.196  26.503   0.394
71344W        W43659   3.305  27.826   3.977
71345W        W43660   7.830   2.438   1.869
71346W        W43661  33.998  31.754  11.621
71347W        W43662  29.060  35.576   0.186
71348W        W43663   7.420  16.634  14.712
71349W        W43664  13.204  12.792  10.271
71350W        W43665  33.382   3.886  13.791
71351W        W43666  30.040  40.586   1.013
71352W        W43667  37.406  37.693  10.236
71353W        W43668  11.742  15.111  12.206
71354W        W43669  33.777  22.609   5.149
71355W        W43670  27.003  24.298   1.474
71356W        W43671   1.513  15.066  13.593
71357W        W43672  10.807  31.692  14.312
71358W        W43673   3.335  14.045   4.624
71359W        W43674  13.948   6.527  14.276
71360W        W43675  21.629   5.263  12.491
71361W        W43676  30.190  23.760   2.174
71362W        W43677  34.107  32.122   0.437
71363W        W43678  10.116   2.790   4.454
71364W        W43679  25.182   6.116  10.189
71365W        W43680  39.704  17.326  12.420
71366W        W43681  38.953   0.812   0.420
71367W        W43682  12.234  38.443  10.813
71368W        W43683  19.087   8.657  14.293
71369W        W43684  39.638  18.205  13.415
71370W        W43685  17.207  32.076  10.228
71371W        W43686  27.995  35.148  14.730
71372W        W43687  24.327  44.481   3.779
71373W        W43688  14.668  27.022  11.593
71374W        W43689   9.735  25.953  10.753
71375W        W43690  41.470  42.849  13.891
71376W        W43691  29.157  19.478  13.457
71377W        W43692   9.149  31.998   0.238
71378W        W43693   7.301  40.332  10.486
71379W        W43694  13.322  41.497   2.282
71380W        W43695  28.395  35.922   2.861
71381W        W43696   7.202  22.515  11.568
71382W        W43697  33.638  22.319   2.792
71383W        W43698  21.088  42.775   9.947
71384W        W43699  29.533  22.476   3.649
71385W        W43700  17.301  40.753   2.359
71386W        W43701   0.299  26.743  12.463
71387W        W43702   3.032  35.691   5.192
71388W        W43703  28.835  42.057   1.331
71389W        W43704  25.611  13.444   1.822
71390W        W43705   4.411  35.639  10.619
71391W        W43706  42.767  11.081   1.799
71392W        W43707  20.508  17.633  12.021
71393W        W43708  16.547   8.094   1.901
71394W        W43709  23.751  35.071   1.947
71395W        W43710   3.935  11.413  13.999
71396W        W43711  22.099  34.958   2.177
71397W        W43712  27.447  26.999   3.604
71398W        W43713   0.547  15.958  13.039
71399W        W43714  43.027  28.151  12.821
71400W        W43715  37.085  23.742   4.098
71401W        W43716  32.598  36.014   3.164
71402W        W43717  20.578  36.971   1.189
71403W        W43718  41.842  43.753  14.822
71404W        W43719  40.010  37.782  14.100
71405W        W43720  14.936  12.392  13.951
71406W        W43721   5.357  21.295  12.984
71407W        W43722  22.676  33.298  14.935
71408W        W43723  44.732  38.477   3.693
71409W        W43724  38.990  18.711  11.005
71410W        W43725   5.887  44.089  11.847
71411W        W43726  29.078  34.129   3.240
71412W        W43727  34.923  30.251  11.020
71413W        W43728  41.908  31.054   4.313
71414W        W43729  27.220  35.875   3.726
71415W        W43730  23.541  43.311   4.205
71416W        W43731  43.919  21.743   0.364
71417W        W43732  19.550   7.767  10.766
71418W        W43733  37.381   8.357   3.023
71419W        W43734  30.590  14.096   1.766
71420W        W43735  25.276  13.212  10.481
71421W        W43736  11.202  17.872  12.031
71422W        W43737  16.125  37.471   3.716
71423W        W43738  11.451  34.583  13.558
71424W        W43739  31.001  15.016  14.518
71425W        W43740  44.378  26.281  10.967
71426W        W43741  10.887  31.221   1.522
71427W        W43742  33.135   4.998   2.816
71428W        W43743   4.631  37.336   0.771
71429W        W43744  12.830  19.804  12.085
71430W        W43745  36.632   0.815  11.518
71431W        W43746  11.625  39.044   4.059
71432W        W43747  34.683  30.065  11.446
71433W        W43748  39.748  36.459   1.797
71434W        W43749  24.039  12.775  11.940
71435W        W43750  43.520  42.228  14.866
71436W        W43751  39.205  12.871   2.262
71437W        W43752   7.794  43.904  12.054
71438W        W43753  29.595  42.600   0.316
71439W        W43754   4.802   1.706   0.361
71440W        W43755  19.942  11.032  10.609
71441W        W43756  24.900  19.345  11.688
71442W        W43757  18.108  27.637   1.336
71443W        W43758  27.880   8.279   0.894
71444W        W43759  33.463   3.084   9.878
71445W        W43760  20.785   8.168   3.847
71446W        W43761  10.502  16.362   9.811
71447W        W43762  38.564   1.412   0.241
71448W        W43763   9.366  18.129   1.208
71449W        W43764  40.707  24.762   4.727
71450W        W43765  20.181   6.933   0.449
71451W        W43766   1.740   5.791   2.171
71452W        W43767  29.001   9.168   4.526
71453W        W43768  32.256  21.143  13.894
71454W        W43769  34.597  21.162  13.894
71455W        W43770   1.900  16.641  12.857
71456W        W43771  34.414  30.654   1.846
71457W        W43772  37.525   7.389  10.689
71458W        W43773  42.017   4.775   2.343
71459W        W43774  26.599  23.235  13.012
71460W        W43775  15.194  25.011  11.185
71461W        W43776  10.654   3.215   1.920
71462W        W43777  24.994   2.787  12.143
71463W        W43778  32.267  36.986   3.258
71464W        W43779  27.521  38.089  13.933
71465W        W43780  18.968  10.459  13.471
71466W        W43781  41.384  29.066   2.203
71467W        W43782   5.337  38.697  14.445
71468W        W43783  37.003   1.400  12.189
71469W        W43784  14.401  38.930  11.935
71470W        W43785  28.929  34.922  12.886
71471W        W43786  27.926  40.479   3.701
71472W        W43787   4.307  37.386   3.730
71473W        W43788  20.493   9.325   0.501
71474W        W43789  26.743  22.322  10.221
71475W        W43790  11.985  22.122  14.408
71476W        W43791  36.029   5.601  13.996
71477W        W43792   6.230  20.012  11.131
71478W        W43793  41.503  40.981  14.790
71479W        W43794  44.456  22.191   2.774
71480W        W43795   2.826  10.257   5.004
71481W        W43796  42.825  32.618   2.338
71482W        W43797  14.256   0.753  14.519
71483W        W43798  33.025  35.160  14.415
71484W        W43799   6.432   2.651  14.390
71485W        W43800  41.307  16.786   1.832
71486W        W43801  19.038  29.604  13.021
71487W        W43802  35.963   1.254   2.712
71488W        W43803   6.443  28.180  13.743
71489W        W43804   3.807  37.554   3.717
71490W        W43805  34.567  22.880   1.232
71491W        W43806  16.190  11.234  14.444
71492W        W43807  27.685  42.275   3.194
71493W        W43808  44.915  18.333   3.886
71494W        W43809  21.674   9.112   2.855
71495W        W43810  16.219  27.210   0.944
71496W        W43811  11.858  14.722  12.538
71497W        W43812  11.137  20.330   3.217
71498W        W43813   6.376  44.363  11.188
71499W        W43814  34.619  11.469  14.450
71500W        W43815  43.330  32.138  10.676
71501W        W43816   3.906   4.687  11.178
71502W        W43817  40.351  14.240   2.868
71503W        W43818   1.328   1.288  12.466
71504W        W43819   8.862  33.488  12.860
71505W        W43820   1.918  10.492   2.756
71506W        W43821  13.718  12.346   2.457
71507W        W43822  28.328   7.826  11.476
71508W        W43823   3.540  22.220  12.056
71509W        W43824  15.281  11.273   3.791
71510W        W43825   1.862  21.282   1.341
71511W        W43826  24.731   2.909  13.981
71512W        W43827   7.903  37.970  10.667
71513W        W43828  19.703   7.265   3.259
71514W        W43829  23.925  16.132  12.594
71515W        W43830  38.016  40.868   2.103
71516W        W43831  34.374   4.395  10.968
71517W        W43832  34.636  39.715  13.318
71518W        W43833  22.724   0.744  13.060
71519W        W43834  25.123  18.223  13.962
71520W        W43835   5.338  32.836  10.640
71521W        W43836  44.828  18.887  12.467
71522W        W43837  10.489  34.746  10.019
71523W        W43838  36.164  32.847  12.926
71524W        W43839  31.967  28.088  14.371
71525W        W43840  25.773   4.767   1.850
71526W        W43841  27.099  15.071   1.355
71527W        W43842  16.717  30.239   0.449
71528W        W43843  23.921  14.786  11.991
71529W        W43844  41.386  39.951   2.566
71530W        W43845  23.168   9.865   2.498
71531W        W43846  14.796  40.500   0.654
71532W        W43847  34.428   4.436  11.936
71533W        W43848  30.599   2.467  14.499
71534W        W43849  21.838  20.157   2.752
71535W        W43850   6.478  11.828  12.910
71536W        W43851  14.535  11.678  10.765
71537W        W43852  36.071   0.749  14.907
71538W        W43853  33.672  10.509   0.266
71539W        W43854  19.072   7.277   3.982
71540W        W43855   1.478  26.757  13.895
71541W        W43856  39.399  17.575  12.007
71542W        W43857  23.085  24.017   3.722
71543W        W43858  29.828  31.912   1.886
71544W        W43859  35.358   6.668  14.943
71545W        W43860  38.269  31.146   4.268
71546W        W43861  41.047  12.785   3.247
71547W        W43862  19.283  28.105  12.946
71548W        W43863  17.615  20.600  11.378
71549W        W43864  23.625  19.753  11.100
71550W        W43865  22.932  28.692  13.956
71551W        W43866  37.374   0.752   0.044
71552W        W43867  14.868   3.719   1.970
71553W        W43868  32.404  32.447   3.137
71554W        W43869  43.899  15.605   4.494
71555W        W43870   9.887  36.115  12.450
71556W        W43871  19.607  19.727   3.776
71557W        W43872  25.647  40.865   2.210
71558W        W43873  15.250  22.987   0.990
71559W        W43874  35.016  40.627   3.726
71560W        W43875  33.456   3.158  14.426
71561W        W43876  12.915   9.371  11.527
71562W        W43877  18.180  18.813   2.881
71563W        W43878  29.619  22.646   1.263
71564W        W43879  29.884  35.909  13.164
71565W        W43880  29.285  37.839  13.437
71566W        W43881  18.235   8.418  10.587
71567W        W43882  18.162   2.289   4.577
71568W        W43883  17.990   3.045   0.417
71569W        W43884  32.426  26.326   3.782
71570W        W43885   6.232  42.841   4.241
71571W        W43886  26.061  26.674  11.000
71572W        W43887  22.212  25.180   4.021
71573W        W43888  44.647  42.529  12.922
71574W        W43889  38.734  19.458  12.018
71575W        W43890  38.579  38.259  14.051
71576W        W43891  32.221  19.094  14.267
71577W        W43892   7.110  38.539   4.471
71578W        W43893  14.899   2.803   4.908
71579W        W43894   7.546  38.288  13.594
71580W        W43895  30.867  18.577   1.350
71581W        W43896   4.838  35.121   2.735
71582W        W43897  39.908   4.871   4.761
71583W        W43898  10.782  28.631   0.372
71584W        W43899  43.996  11.217   4.818
71585W        W43900  23.740  11.648  12.914
71586W        W43901  14.939  28.878   9.548
71587W        W43902  43.819  15.404   1.194
71588W        W43903  11.985   4.111   2.763
71589W        W43904  38.763  37.991   2.337
71590W        W43905  41.529  15.197  14.940
71591W        W43906  26.430   4.677  12.460
71592W        W43907  11.652  34.972   4.066
71593W        W43908  32.491  10.721  11.928
71594W        W43909  36.982  37.816  11.404
71595W        W43910  11.169  24.627   0.321
71596W        W43911  18.184  13.368  12.449
71597W        W43912  25.967  28.214   1.861
71598W        W43913  23.605  26.035   3.504
71599W        W43914  28.531  33.422  13.387
71600W        W43915  17.225  40.950   2.838
71601W        W43916  10.927  24.299  11.068
71602W        W43917   7.367  32.057  13.482
71603W        W43918  43.336   5.185  11.147
71604W        W43919   3.538  15.072   4.842
71605W        W43920  25.547  44.830   3.858
71606W        W43921  24.190  30.697   1.973
71607W        W43922  31.700  11.088   2.815
71608W        W43923  13.145  28.706  13.317
71609W        W43924  11.348  20.521  13.134
71610W        W43925   9.974  32.087  12.606
71611W        W43926   6.905  41.640  10.623
71612W        W43927  26.570   7.416   4.127
71613W        W43928   4.439  37.563  12.360
71614W        W43929  22.742  29.462  11.613
71615W        W43930  10.136  27.748   4.592
71616W        W43931   3.386  16.189   4.102
71617W        W43932  11.183  33.654   3.136
71618W        W43933   8.093  39.856  12.723
71619W        W43934  41.258   9.890   2.921
71620W        W43935   3.500  21.239  13.786
71621W        W43936  27.944  10.806  11.004
71622W        W43937  20.523   9.160   2.322
71623W        W43938  33.036  22.789  10.977
71624W        W43939  42.560  42.443   3.784
71625W        W43940  16.679   4.296   2.829
71626W        W43941  36.408  14.345  13.118
71627W        W43942  31.884  36.205   0.204
71628W        W43943  16.399  19.645  11.384
71629W        W43944  42.166  17.803  11.190
71630W        W43945  30.902  40.298   1.813
71631W        W43946  44.725  24.205  11.196
71632W        W43947  36.646   5.391   2.110
71633W        W43948  30.845  30.428   5.047
71634W        W43949   7.440  20.403   1.234
71635W        W43950   1.740  19.379  12.467
71636W        W43951   8.181   2.323  13.837
71637W        W43952   5.934   9.811   2.975
71638W        W43953  35.913  34.013  10.438
71639W        W43954  20.522   4.544  14.318
71640W        W43955  21.718  28.046  11.069
71641W        W43956  19.489  21.738  13.561
71642W        W43957  34.112  40.000   0.162
71643W        W43958  25.338  28.542  11.066
71644W        W43959  23.686   8.205  12.482
71645W        W43960   3.969  29.612  10.633
71646W        W43961  40.056  26.188   3.503
71647W        W43962  38.987  17.224  12.089
71648W        W43963  17.619   4.873   4.781
71649W        W43964  39.252  39.887   3.370
71650W        W43965  15.724   5.912   3.899
71651W        W43966   8.075  13.316  13.772
71652W        W43967  41.035   5.394   4.879
71653W        W43968  33.983   9.500   2.005
71654W        W43969  15.088   6.584   2.463
71655W        W43970  10.762   0.885  13.382
71656W        W43971  10.634  15.101   2.897
71657W        W43972  43.083  39.409   3.692
71658W        W43973   3.733   7.657  12.448
71659W        W43974  25.182  28.980  14.758
71660W        W43975  43.792   7.741   3.698
71661W        W43976  31.716   0.517   3.862
71662W        W43977  42.265  21.731   0.842
71663W        W43978  14.334   2.644   3.707
71664W        W43979  30.531  34.967   2.652
71665W        W43980  39.389  41.345  14.534
71666W        W43981  17.130  23.114  13.235
71667W        W43982  39.797  18.632  12.369
71668W        W43983  28.891  26.563   0.250
71669W        W43984  32.081  29.714  13.856
71670W        W43985   8.099  31.486   0.684
71671W        W43986   5.442  21.155  10.647
71672W        W43987  31.107   6.900   1.184
71673W        W43988  12.696  44.089   4.134
71674W        W43989  44.808  34.649   4.010
71675W        W43990  35.401  38.077  12.451
71676W        W43991  41.644  34.149   0.549
71677W        W43992  35.267  35.477   2.651
71678W        W43993  16.033  19.302   2.621
71679W        W43994  34.344  32.365  13.304
71680W        W43995  43.889  37.068  10.523
71681W        W43996  40.108   2.859   4.130
71682W        W43997  12.339  22.120  11.939
71683W        W43998  29.951  35.789   0.434
71684W        W43999  27.108  23.999  12.924
71685W        W44000  34.110   7.925   1.728
71686W        W44001  19.620   9.208   2.776
71687W        W44002   5.943   0.796   3.028
71688W        W44003  38.960  28.404  11.652
71689W        W44004   9.137  32.873  13.447
71690W        W44005  41.161  19.733  10.700
71691W        W44006  26.521  33.836  12.617
71692W        W44007  18.043  42.434   1.846
71693W        W44008   4.985  32.954   1.968
71694W        W44009   8.426  12.568  14.910
71695W        W44010  42.865  21.187  14.412
71696W        W44011   8.994  34.833   3.246
71697W        W44012  43.286  24.776   1.701
71698W        W44013  21.877  27.587  14.903
71699W        W44014   3.555  25.168   2.270
71700W        W44015  35.156  31.482  14.916
71701W        W44016   1.932   1.565   1.764
71702W        W44017  28.807   6.788   2.022
71703W        W44018  16.033   2.711   1.512
71704W        W44019  31.085   3.161   3.373
71705W        W44020  26.755  15.845  12.004
71706W        W44021  10.286  14.775  14.264
71707W        W44022  32.560  30.721  11.888
71708W        W44023  34.144   3.122   1.947
71709W        W44024  38.503  43.568   0.739
71710W        W44025   1.992  25.126   0.300
71711W        W44026  11.671   9.855  10.888
71712W        W44027  25.477  32.193  12.652
71713W        W44028  11.206   7.289  13.539
71714W        W44029  19.534  39.688   0.156
71715W        W44030  24.130   5.752   1.734
71716W        W44031  26.672  13.079  14.016
71717W        W44032   1.776  31.910   2.185
71718W        W44033  19.616  40.299  11.111
71719W        W44034  25.477  14.223   2.321
71720W        W44035  21.460   6.900  12.314
71721W        W44036  14.829   6.751   2.882
71722W        W44037  36.440  12.217   3.999
71723W        W44038  39.822  13.888   2.055
71724W        W44039  26.691   3.370  14.542
71725W        W44040  10.777  14.706   1.926
71726W        W44041  33.014   7.696  14.990
71727W        W44042  35.022   8.647  14.772
71728W        W44043  18.785  34.430  12.444
71729W        W44044  27.378  16.805  13.321
71730W        W44045  29.560  36.905   1.800
71731W        W44046  36.592  12.087   1.398
71732W        W44047  12.580  30.940   3.913
71733W        W44048  30.749  15.638   2.771
71734W        W44049  13.043  20.064  10.402
71735W        W44050  19.893  16.721   0.122
71736W        W44051  12.748  44.614   4.155
71737W        W44052   8.820  25.206  11.610
71738W        W44053  43.029  18.622  11.988
71739W        W44054   0.805  38.596  14.402
71740W        W44055  24.719  16.852   4.129
71741W        W44056  41.568  35.492   2.199
71742W        W44057  10.588   2.678   4.170
71743W        W44058   4.198  43.957  11.201
71744W        W44059   5.314   6.640   0.340
71745W        W44060  16.702  16.803  10.620
71746W        W44061  29.653  19.849   3.763
71747W        W44062  39.841  32.165   4.523
71748W        W44063   1.849  15.054   2.215
71749W        W44064  44.543   5.125  14.839
71750W        W44065  30.523  17.195   0.169
71751W        W44066  29.095  10.950  13.153
71752W        W44067   5.362   3.370  14.842
71753W        W44068  10.762  25.636   3.591
71754W        W44069  27.693  38.871   2.806
71755W        W44070  42.784  39.138  12.572
71756W        W44071  18.219  15.022   0.422
71757W        W44072  38.436  18.123  14.416
71758W        W44073  33.856  19.720  11.149
71759W        W44074  35.054  37.471  14.906
71760W        W44075  13.086   1.897  12.926
71761W        W44076  37.592  30.538   3.454
71762W        W44077   8.585  23.684  12.875
71763W        W44078  26.283  33.390  12.740
71764W        W44079  39.834   7.744   2.258
71765W        W44080  42.971  40.097  14.296
71766W        W44081   3.686  31.007   0.487
71767W        W44082  13.153   9.267   1.362
71768W        W44083  18.837  27.081   2.711
71769W        W44084  10.964  17.142   3.678
71770W        W44085  37.979  33.238   0.896
71771W        W44086   1.028  12.693  10.218
71772W        W44087  32.656  28.601   4.614
71773W        W44088  18.661  12.518  14.352
71774W        W44089   3.582   7.306   2.807
71775W        W44090  38.998  34.228   0.869
71776W        W44091  29.578   8.428  12.986
71777W        W44092  34.501  44.843  12.496
71778W        W44093  27.921  23.127  14.689
71779W        W44094  31.641  23.250  11.445
71780W        W44095   6.731  35.038  11.929
71781W        W44096  29.053   3.709   3.659
71782W        W44097   3.734   8.464   3.247
71783W        W44098   6.486  26.234  12.861
71784W        W44099  41.778  33.341  11.929
71785W        W44100  35.436   3.889   1.249
71786W        W44101  41.765  24.268   4.815
71787W        W44102  36.585   6.511   4.826
71788W        W44103  42.782  12.297   2.297
71789W        W44104  25.382  15.170  12.417
71790W        W44105  42.807   7.352  11.069
71791W        W44106  18.130  30.403  10.683
71792W        W44107  34.455  14.548   3.288
71793W        W44108   9.101  30.075   1.361
71794W        W44109  42.866  39.290   2.323
71795W        W44110  31.587  15.632  10.010
71796W        W44111  14.392  19.234   1.670
71797W        W44112  31.581  18.694   2.844
71798W        W44113  33.656  44.389   0.779
71799W        W44114  25.479  35.920  12.454
71800W        W44115  24.583  34.172  12.429
71801W        W44116   4.859  30.400  12.517
71802W        W44117  22.363  39.746  13.423
71803W        W44118   2.917  24.017   2.957
71804W        W44119  18.750  13.613  13.461
71805W        W44120  42.147  19.586  13.713
71806W        W44121   0.044   9.399   3.718
71807W        W44122  40.756   9.896  14.473
71808W        W44123  19.734  35.594  14.865
71809W        W44124  14.051  31.500   4.208
71810W        W44125  34.965  31.341  11.577
71811W        W44126  18.206   5.799  12.152
71812W        W44127  24.628   5.778  14.797
71813W        W44128  30.351  29.622  11.559
71814W        W44129  19.739  16.322   2.189
71815W        W44130   9.502   2.527  13.601
71816W        W44131  15.901  21.093  11.110
71817W        W44132  28.101  34.918  11.595
71818W        W44133   9.585   7.426   5.015
71819W        W44134  35.812  42.469  13.487
71820W        W44135  25.887  30.280  14.789
71821W        W44136  13.151   6.491   2.410
71822W        W44137  40.613  25.212  11.594
71823W        W44138   6.566   7.470  11.373
71824W        W44139  37.022  27.137  11.154
71825W        W44140  10.649   1.454  14.414
71826W        W44141   8.756  44.897   4.577
71827W        W44142  15.900   5.081   4.900
71828W        W44143   1.544  28.533  12.826
71829W        W44144  24.436  17.622  14.338
71830W        W44145   4.854  44.262  14.271
71831W        W44146  14.523  30.434  11.544
71832W        W44147  35.344  25.017  11.583
71833W        W44148  20.809  10.605  14.116
71834W        W44149  21.025  37.142  11.573
71835W        W44150   5.417   5.078  12.363
71836W        W44151   2.983  21.660  12.419
71837W        W44152  17.033  26.717   2.640
71838W        W44153   0.314  43.449  14.875
71839W        W44154  12.173  14.082  11.155
71840W        W44155  30.431  40.116   1.310
71841W        W44156  14.820  21.222  14.946
71842W        W44157  16.258  10.330  14.583
71843W        W44158  22.119  26.184  12.042
71844W        W44159   4.183   0.924   2.787
71845W        W44160  43.754  37.008  12.927
71846W        W44161  18.374  44.998  12.586
71847W        W44162  35.242  29.468  12.489
71848W        W44163  38.321  11.408  10.733
71849W        W44164  16.364  21.826   4.076
71850W        W44165  24.811  42.654   3.903
71851W        W44166   8.352  36.879   1.708
71852W        W44167  16.356  42.992   4.416
71853W        W44168  26.788  44.360  12.177
71854W        W44169  21.245  32.197   0.360
71855W        W44170  35.137  15.199  11.969
71856W        W44171  13.867  14.387   4.060
71857W        W44172   7.452  23.267   4.235
71858W        W44173  39.265  26.202  12.812
71859W        W44174   6.632  37.465  14.910
71860W        W44175   6.383  31.046   0.844
71861W        W44176   6.202  18.041   4.118
71862W        W44177  44.012  28.381   0.716
71863W        W44178   3.357   5.439  12.846
71864W        W44179  33.238   6.128   1.229
71865W        W44180  43.203  36.635   4.737
71866W        W44181  37.545  18.255   1.422
71867W        W44182  12.707  35.686   0.945
71868W        W44183  16.571  20.717   3.100
71869W        W44184  36.767  40.093  13.796
71870W        W44185  40.584  15.791  11.226
71871W        W44186  20.672  15.179   4.634
71872W        W44187  13.537  32.329   3.305
71873W        W44188  26.525   3.919   1.274
71874W        W44189   1.347  13.950  11.131
71875W        W44190   3.216  14.232  13.312
71876W        W44191   2.683  14.234   3.754
71877W        W44192  16.270   7.455  13.979
71878W        W44193  20.798  25.179   2.711
71879W        W44194  10.851  20.583   4.293
71880W        W44195  26.925  12.370  14.110
71881W        W44196  27.934   0.143  12.888
71882W        W44197  31.743  43.825   2.950
71883W        W44198   1.881  34.940   4.639
71884W        W44199  44.959  30.852  10.608
71885W        W44200   9.294  28.287   3.748
71886W        W44201  39.497  17.234   4.277
71887W        W44202  42.349   2.917   4.018
71888W        W44203  42.583  32.067   2.775
71889W        W44204  37.893  42.727  10.866
71890W        W44205   8.942  35.023   1.573
71891W        W44206  28.677  21.992  13.081
71892W        W44207  27.822  18.277  13.470
71893W        W44208  43.031  42.526  11.859
71894W        W44209  17.185  32.965   2.356
71895W        W44210  44.486   7.175  13.764
71896W        W44211  40.698  15.304   2.417
71897W        W44212  13.654  21.530   1.969
71898W        W44213  32.340   8.947  12.507
71899W        W44214  41.748  21.256   3.652
71900W        W44215  10.785  21.040   2.639
71901W        W44216   1.204   3.461  11.119
71902W        W44217   1.161   4.193   0.968
71903W        W44218  33.131   9.911  11.830
71904W        W44219  31.665  38.404   0.855
71905W        W44220   8.012  24.944   2.845
71906W        W44221  17.665   1.142  11.333
71907W        W44222   3.930  11.589  12.416
71908W        W44223  18.240  43.908  12.928
71909W        W44224  39.987  37.291  14.279
71910W        W44225   5.377   2.305  13.962
71911W        W44226  24.739  21.697   0.007
71912W        W44227  26.118  27.786   3.283
71913W        W44228  16.579  10.263  13.273
71914W        W44229  27.604   7.902   1.427
71915W        W44230  43.778  39.611   2.741
71916W        W44231  14.690  10.112   1.714
71917W        W44232   8.284  43.548  13.099
71918W        W44233  35.331  35.455  14.900
71919W        W44234  25.435  22.257   0.233
71920W        W44235   9.915  43.230   3.874
71921W        W44236  32.514  28.354   2.757
71922W        W44237   9.403  41.066  10.730
71923W        W44238   7.874   9.451   4.159
71924W        W44239   4.983  40.916  10.508
71925W        W44240  25.926  41.648  11.103
71926W        W44241  12.944  31.025   4.524
71927W        W44242  37.355  44.793   2.337
71928W        W44243  29.457  10.753   4.986
71929W        W44244   5.024  43.601  10.129
71930W        W44245   5.289  11.244  13.860
71931W        W44246  32.630  34.409  13.366
71932W        W44247   8.017   9.927   2.336
71933W        W44248  17.265  28.935   4.195
71934W        W44249  25.136  32.430   3.284
71935W        W44250  41.366  29.430  14.978
71936W        W44251  10.913  24.164   1.788
71937W        W44252  23.678  44.912  13.470
71938W        W44253  13.261  20.946   4.647
71939W        W44254  32.688  14.725   2.168
71940W        W44255   5.195  35.078  11.172
71941W        W44256  37.048  18.082   1.407
71942W        W44257  25.934  20.523   4.286
71943W        W44258  44.326  16.748   1.335
71944W        W44259  27.520   6.954   3.270
71945W        W44260   9.787  41.248  13.955
71946W        W44261  19.082  41.226  12.502
71947W        W44262  31.839  26.182  14.237
71948W        W44263  31.769   7.592  14.812
71949W        W44264   5.851  13.361  14.532
71950W        W44265  28.481  32.150   2.326
71951W        W44266  15.597  14.362  11.070
71952W        W44267  39.325  16.529   2.786
71953W        W44268  32.028   3.022  11.596
71954W        W44269  20.777  18.398  11.625
71955W        W44270  42.767  39.882  11.565
71956W        W44271  34.937  42.278  13.444
71957W        W44272  37.063  15.126  14.901
71958W        W44273  21.179   4.420  11.230
71959W        W44274   6.613  40.667  11.643
71960W        W44275   3.886  28.435   4.567
71961W        W44276   0.768   9.642   4.163
71962W        W44277  40.224  29.859  12.914
71963W        W44278  17.021  12.207  10.555
71964W        W44279  19.128  41.415  13.025
71965W        W44280  13.870   1.544  11.394
71966W        W44281  31.851   2.847  11.138
71967W        W44282  14.047   4.843   1.702
71968W        W44283  27.936  15.333   2.753
71969W        W44284  39.970  14.789  11.082
71970W        W44285  21.115  20.514  12.622
71971W        W44286  14.786   3.920   0.826
71972W        W44287   3.829  26.074  13.103
71973W        W44288  32.601  19.199  10.405
71974W        W44289  35.364  21.703  12.005
71975W        W44290   9.094   7.193   1.899
71976W        W44291  43.991  34.698   3.843
71977W        W44292   4.223  19.051  10.890
71978W        W44293   9.373  23.430  11.960
71979W        W44294  15.631  22.986  14.938
71980W        W44295  44.306  41.743  12.885
71981W        W44296  15.242  12.226   2.722
71982W        W44297   3.236  30.999   3.606
71983W        W44298  38.332   0.927  12.147
71984W        W44299  11.067  35.973   0.373
71985W        W44300  38.837  30.153   3.876
71986W        W44301   3.053  15.765   4.985
71987W        W44302  31.356   7.098   4.821
71988W        W44303  13.159   7.760   3.157
71989W        W44304   5.281  24.744  12.828
71990W        W44305  44.334  28.202  10.889
71991W        W44306  31.102  17.472  10.706
71992W        W44307  27.637  26.422   0.759
71993W        W44308  17.145   7.414  13.950
71994W        W44309  40.889   0.039   4.914
71995W        W44310   6.278  21.374   0.324
71996W        W44311  35.665  36.858  12.053
71997W        W44312  15.304  21.809   0.256
71998W        W44313   9.730  34.959   0.907
71999W        W44314  15.073   8.179  14.876
72000W        W44315  43.184  11.400  12.233
72001W        W44316  41.824  32.463   3.279
72002W        W44317  44.425  22.608  10.953
72003W        W44318  20.505  41.416   1.841
72004W        W44319   0.458   8.107  14.968
72005W        W44320  10.647  26.883   2.350
72006W        W44321  42.321  19.735   2.244
72007W        W44322  39.658   7.248   4.162
72008W        W44323  27.203  38.733   2.728
72009W        W44324  11.198  27.987   0.172
72010W        W44325  24.059   5.695  10.462
72011W        W44326   8.243  18.085  10.648
72012W        W44327  39.750  23.173   2.288
72013W        W44328  17.096  39.430   0.043
72014W        W44329  20.058  39.922  10.190
72015W        W44330  17.642   3.504   4.563
72016W        W44331  26.152   5.484   4.473
72017W        W44332  32.169  32.629  10.625
72018W        W44333  32.380  42.975  11.172
72019W        W44334  34.894  29.925   4.659
72020W        W44335   0.303  41.673  11.053
72021W        W44336   2.142   7.790   1.674
72022W        W44337  38.110  44.517  11.142
72023W        W44338  41.338  19.080  11.186
72024W        W44339  36.773   9.708  12.018
72025W        W44340  30.242  18.639  10.814
72026W        W44341  26.589   5.212  13.068
72027W        W44342  19.250   1.163   4.292
72028W        W44343  26.110  36.932   1.642
72029W        W44344  11.725  29.032  11.674
72030W        W44345  30.127  24.094  12.654
72031W        W44346  26.656  39.635  11.228
72032W        W44347  17.250  40.942  10.268
72033W        W44348  34.250  10.392   1.341
72034W        W44349  16.330  32.584  11.573
72035W        W44350  31.181  32.047   3.013
72036W        W44351  18.164  10.163  14.447
72037W        W44352  13.164  20.118  12.932
72038W        W44353  27.731  32.549   0.561
72039W        W44354  30.158  41.140   2.795
72040W        W44355  43.322  32.625  10.431
72041W        W44356  36.098  36.095  13.465
72042W        W44357  41.070  12.243   1.412
72043W        W44358  31.076  12.713  13.597
72044W        W44359  14.734  16.217   3.102
72045W        W44360  29.995  10.380  13.993
72046W        W44361  35.477  40.407   0.274
72047W        W44362  11.727  41.343  10.607
72048W        W44363  20.228  39.332   3.204
72049W        W44364  43.124  42.900   5.059
72050W        W44365  17.260   0.421  12.942
72051W        W44366  17.737   9.358   0.688
72052W        W44367  22.994  33.643   3.620
72053W        W44368  25.078   0.913  14.534
72054W        W44369   0.413  33.063   4.570
72055W        W44370   0.485  18.121   3.696
72056W        W44371  30.606  19.241  11.547
72057W        W44372  37.149   2.247  12.079
72058W        W44373  43.073  37.653   0.458
72059W        W44374   1.197  33.978   1.313
72060W        W44375   3.465   2.500  10.787
72061W        W44376  22.751  30.142   0.999
72062W        W44377  30.525   9.692  14.062
72063W        W44378  43.673  13.542   1.423
72064W        W44379  27.475  19.891   2.360
72065W        W44380   2.179  33.531   0.645
72066W        W44381  30.971   6.142   1.622
72067W        W44382   5.785  36.926  13.820
72068W        W44383   3.755  24.947   4.010
72069W        W44384  32.308   6.804  12.970
72070W        W44385  44.738  13.738  12.576
72071W        W44386   4.667  23.007  13.739
72072W        W44387   3.730   1.157  13.562
72073W        W44388  14.357  42.550  11.732
72074W        W44389  34.960  21.393   3.847
72075W        W44390  27.771   4.985   2.618
72076W        W44391  11.161  12.388   1.512
72077W        W44392  24.234  17.681  10.732
72078W        W44393  17.042  28.403   3.307
72079W        W44394   8.847  19.731   2.440
72080W        W44395  24.551  41.098  11.440
72081W        W44396  30.917   9.460   0.396
72082W        W44397  21.645  38.322   1.521
72083W        W44398  21.659   4.851   0.892
72084W        W44399  20.060  18.752  12.445
72085W        W44400   9.278   3.199  12.858
72086W        W44401   1.243  24.440  12.031
72087W        W44402  17.761   0.274  12.995
72088W        W44403   8.952  42.724  14.387
72089W        W44404  26.603  11.602   0.417
72090W        W44405  32.470  31.529   3.514
72091W        W44406  36.555   8.966  13.488
72092W        W44407  33.696  15.305  12.009
72093W        W44408  22.108  23.195  14.920
72094W        W44409   2.183  33.829  10.098
72095W        W44410   8.207  10.433   3.735
72096W        W44411  29.792   3.082  12.139
72097W        W44412  14.979  29.196   5.454
72098W        W44413   2.600  14.433  12.086
72099W        W44414   4.604  35.036  14.983
72100W        W44415   5.453  31.563  10.618
72101W        W44416  32.455  37.782   2.804
72102W        W44417  17.194  19.772  10.681
72103W        W44418  20.076  15.159  12.978
72104W        W44419   5.419  23.627  14.379
72105W        W44420  10.150  44.733  12.405
72106W        W44421  37.337   6.659  12.958
72107W        W44422   0.756  42.814  13.621
72108W        W44423  40.852  28.259  11.579
72109W        W44424  15.352  42.597   0.461
72110W        W44425  19.473  42.677   2.741
72111W        W44426   3.795  36.611  12.945
72112W        W44427  11.106  21.778   2.638
72113W        W44428  18.114   9.853  10.697
72114W        W44429  21.119  15.626  12.104
72115W        W44430  37.955   7.905  12.740
72116W        W44431  21.724  29.991   2.607
72117W        W44432  42.019   1.868   3.196
72118W        W44433  14.484  43.607  13.931
72119W        W44434   5.657  31.864   3.820
72120W        W44435  42.933  14.855   4.092
72121W        W44436  23.992  43.912   0.615
72122W        W44437  44.036  41.087  12.963
72123W        W44438   4.849  35.926  14.425
72124W        W44439  38.650  21.200  14.320
72125W        W44440  26.813  10.144  14.331
72126W        W44441  32.056   0.047   4.527
72127W        W44442  17.223   6.315   1.199
72128W        W44443  35.095  14.349  12.944
72129W        W44444  32.445  18.233  12.118
72130W        W44445  38.637   9.421   0.857
72131W        W44446  14.779  38.286   1.315
72132W        W44447  40.571  40.899  10.873
72133W        W44448  29.606  20.555  10.975
72134W        W44449  43.414  44.271  14.277
72135W        W44450   3.317  34.104  12.471
72136W        W44451  17.672  37.451   0.173
72137W        W44452  20.336  43.371  10.716
72138W        W44453  30.403   9.189  13.983
72139W        W44454  16.786  41.288  14.758
72140W        W44455  30.872   8.966  11.194
72141W        W44456  13.352  35.323  14.075
72142W        W44457  25.478  11.312   1.227
72143W        W44458  23.763   6.081   1.903
72144W        W44459  23.472  32.822  12.532
72145W        W44460  27.425  26.996  12.281
72146W        W44461  15.316  36.302   3.827
72147W        W44462  12.780   3.173  14.042
72148W        W44463  20.186   5.495  10.640
72149W        W44464  32.624  40.920   0.342
72150W        W44465  39.295   5.205  11.615
72151W        W44466  24.015  21.833  14.368
72152W        W44467   7.861  36.988  11.722
72153W        W44468  16.741  41.403   3.982
72154W        W44469   1.543  18.204  12.951
72155W        W44470   8.893  23.134   4.200
72156W        W44471  35.169   1.405  12.532
72157W        W44472  12.405  37.352   1.409
72158W        W44473  32.308   1.626  11.166
72159W        W44474  26.023   6.681  10.520
72160W        W44475   3.923  20.974   2.261
72161W        W44476  25.809  43.907  12.399
72162W        W44477   5.800   0.530  10.554
72163W        W44478  23.312  37.916   4.003
72164W        W44479  37.296  22.906   3.765
72165W        W44480  35.849  30.654  13.970
72166W        W44481   5.702  31.617   1.026
72167W        W44482  10.581  43.847   2.739
72168W        W44483  23.966   0.575  12.580
72169W        W44484  40.820  13.325   0.818
72170W        W44485   9.278  35.076   0.187
72171W        W44486   5.970  23.271  10.758
72172W        W44487  30.704  27.301  14.808
72173W        W44488  34.400  27.089  13.325
72174W        W44489   2.251  15.956  10.344
72175W        W44490   4.629  28.071   1.929
72176W        W44491   1.056  14.097   4.592
72177W        W44492  12.885  25.211   1.323
72178W        W44493  15.318  40.871  12.756
72179W        W44494  13.298  41.946  12.886
72180W        W44495   8.955  32.894   2.389
72181W        W44496  33.117  21.502  14.973
72182W        W44497  39.886  38.818   3.873
72183W        W44498  10.374  43.194   0.896
72184W        W44499  35.955  22.542   2.561
72185W        W44500  21.455  19.078  13.978
72186W        W44501  34.971  40.787   1.534
72187W        W44502   9.636  23.892  14.081
72188W        W44503   6.950  42.989   1.199
72189W        W44504  13.718  42.441   1.210
72190W        W44505  21.605   2.446   2.883
72191W        W44506  32.896   5.292   4.095
72192W        W44507   8.223  17.256  13.851
72193W        W44508  35.513   7.937  11.385
72194W        W44509  10.171   0.344   4.596
72195W        W44510  44.488  33.668   2.833
72196W        W44511  32.930  23.820   3.709
72197W        W44512  15.659  35.987  12.531
72198W        W44513  35.066   0.926   3.472
72199W        W44514  28.740  30.587   2.447
72200W        W44515  42.236  23.034  10.414
72201W        W44516  28.510  39.630  11.512
72202W        W44517  14.874  12.252  12.581
72203W        W44518  32.862   3.900  10.456
72204W        W44519  29.408  21.557  12.849
72205W        W44520   8.614  34.052  12.012
72206W        W44521  40.027  11.317  13.023
72207W        W44522  33.998  24.198  12.320
72208W        W44523  40.393   5.964   1.230
72209W        W44524  17.242  30.909  12.191
72210W        W44525   7.406  13.119   1.696
72211W        W44526  31.267   5.010  13.318
72212W        W44527  17.748   3.255  13.059
72213W        W44528  32.716  44.509   2.271
72214W        W44529  42.309  14.816  14.577
72215W        W44530  15.893  14.378  10.662
72216W        W44531  27.120  34.796  13.187
72217W        W44532  43.369  32.156  14.560
72218W        W44533  20.127  21.645   1.391
72219W        W44534  24.245  36.067  14.848
72220W        W44535  27.221  39.700   4.331
72221W        W44536  16.907  17.455  14.383
72222W        W44537  16.963  24.442  12.981
72223W        W44538  15.896   9.832  12.885
72224W        W44539   5.337  20.756  12.974
72225W        W44540   3.450  19.861   4.837
72226W        W44541  33.025  44.525   1.755
72227W        W44542  36.964  12.397  14.772
72228W        W44543  36.646   5.532  12.430
72229W        W44544   1.945  43.303  10.340
72230W        W44545  25.739  29.495   0.260
72231W        W44546   6.183  33.958   1.805
72232W        W44547  35.578   8.747   0.276
72233W        W44548  16.763  11.180   4.204
72234W        W44549  19.699  34.610  12.982
72235W        W44550  23.821  28.005  12.832
72236W        W44551   2.918   9.635  12.425
72237W        W44552  26.227  25.675  10.717
72238W        W44553  35.868  21.416   2.280
72239W        W44554  10.631  12.585  14.436
72240W        W44555  33.907  15.043   0.837
72241W        W44556  28.785  19.720   4.244
72242W        W44557   6.440   3.460  12.332
72243W        W44558  24.812  27.482   4.749
72244W        W44559   7.872  23.071   2.159
72245W        W44560  41.990  39.828  12.047
72246W        W44561  32.827   3.811  12.719
72247W        W44562   9.763  29.897  14.361
72248W        W44563  14.283  39.838   2.758
72249W        W44564   6.641  37.773  14.516
72250W        W44565  39.295   0.161  10.792
72251W        W44566  39.076  38.305  14.825
72252W        W44567  30.860  39.247  12.544
72253W        W44568  30.866   2.724   3.544
72254W        W44569   1.724  14.899   5.067
72255W        W44570  23.137  10.265   2.158
72256W        W44571  33.543   9.412  12.606
72257W        W44572  38.329  24.499  13.912
72258W        W44573  12.793  33.829   0.504
72259W        W44574  23.448  30.387  11.659
72260W        W44575  18.630  11.848  13.025
72261W        W44576   4.261  26.202  13.852
72262W        W44577   1.197   4.291  14.972
72263W        W44578  25.457  20.285  12.365
72264W        W44579  13.776  18.276   2.287
72265W        W44580   3.758   5.142  14.502
72266W        W44581  39.170  27.440   4.521
72267W        W44582  42.386  26.349   4.022
72268W        W44583   7.375   0.759   0.813
72269W        W44584   7.429  39.599  14.757
72270W        W44585  39.600  22.799  13.316
72271W        W44586   7.671  17.903   1.837
72272W        W44587   3.547  43.826   4.011
72273W        W44588  40.452  18.248  12.042
72274W        W44589  43.971   0.776   4.336
72275W        W44590  41.311   2.933  10.567
72276W        W44591   3.294  24.900  12.929
72277W        W44592  17.677  18.684   2.305
72278W        W44593   6.878   2.445   0.190
72279W        W44594  33.972  17.843  10.600
72280W        W44595  39.036  19.666   0.517
72281W        W44596  22.178  27.865   3.203
72282W        W44597  10.797  37.779   4.862
72283W        W44598   1.986  19.545   1.572
72284W        W44599  42.811  10.303   1.328
72285W        W44600  18.504   7.274   0.233
72286W        W44601  10.570  11.079   4.983
72287W        W44602   0.429  13.107   2.084
72288W        W44603  43.940  21.053  10.993
72289W        W44604  43.854  42.521   2.508
72290W        W44605  34.460  19.890   0.954
72291W        W44606  17.753  27.680  14.756
72292W        W44607  31.391  18.179  13.371
72293W        W44608  37.609   0.835  11.634
72294W        W44609  26.241  21.365  12.503
72295W        W44610   0.784   4.447  12.492
72296W        W44611  32.403  22.184  11.421
72297W        W44612  39.349   6.111  11.955
72298W        W44613  40.359  28.961   0.004
72299W        W44614   6.254   9.685  12.031
72300W        W44615   3.807  12.753  14.730
72301W        W44616  25.679  11.820  14.811
72302W        W44617  29.124  30.397  10.549
72303W        W44618  37.022  10.715  11.155
72304W        W44619  21.214  33.379   2.465
72305W        W44620  10.137  19.377   4.128
72306W        W44621   0.320  31.392   0.969
72307W        W44622   4.802  12.133  11.381
72308W        W44623  37.291  14.047   1.226
72309W        W44624  11.285  29.040  11.926
72310W        W44625   7.091  27.664   4.050
72311W        W44626  30.469  44.503  12.476
72312W        W44627  11.952  14.819  10.635
72313W        W44628  26.269  28.705   4.171
72314W        W44629   7.928  17.247   0.491
72315W        W44630  15.624  16.036   2.815
72316W        W44631  18.980   2.976  13.402
72317W        W44632  26.020  10.118   0.818
72318W        W44633  38.041  25.428  10.405
72319W        W44634   3.334  42.303   2.593
72320W        W44635   1.586  25.102   1.405
72321W        W44636  12.846  18.940   3.688
72322W        W44637   9.629  16.708  14.571
72323W        W44638  41.384   6.271  10.705
72324W        W44639  14.299  31.054   2.211
72325W        W44640   2.546  44.579  14.412
72326W        W44641  36.143  41.828   3.724
72327W        W44642  30.719  42.755  12.074
72328W        W44643  37.209  14.327   4.062
72329W        W44644  28.379  21.579  14.947
72330W        W44645   1.166  33.196  14.868
72331W        W44646  28.930  22.958  13.092
72332W        W44647   3.865   8.144   3.636
72333W        W44648  35.082  33.083  12.746
72334W        W44649  40.913  26.381  12.059
72335W        W44650  14.096   1.746   3.227
72336W        W44651  35.512  29.640   1.985
72337W        W44652  13.298  12.475   0.368
72338W        W44653   6.305  18.400  14.352
72339W        W44654   4.364  23.301  12.429
72340W        W44655  33.121  38.351  13.423
72341W        W44656  14.254  17.319  13.565
72342W        W44657   7.854  36.952  12.254
72343W        W44658  16.541  19.089   2.804
72344W        W44659   8.180  26.593  10.893
72345W        W44660   9.708  19.525  13.949
72346W        W44661  12.798  11.107  11.986
72347W        W44662   2.698  37.717   1.045
72348W        W44663  16.360  19.258   0.340
72349W        W44664   4.823  24.435   3.310
72350W        W44665  34.613   1.498   2.863
72351W        W44666  44.532   8.906  10.121
72352W        W44667  35.375  29.467   0.652
72353W        W44668  16.562  34.814  13.902
72354W        W44669  38.953   8.221   4.337
72355W        W44670   2.079  23.700   4.911
72356W        W44671  21.317  19.149   3.914
72357W        W44672  24.608  18.666  10.720
72358W        W44673   0.999  27.083  11.341
72359W        W44674   9.836  40.298   0.204
72360W        W44675  37.549   5.573   1.233
72361W        W44676  30.515  32.639  11.151
72362W        W44677  35.837   7.217   1.637
72363W        W44678  41.471  40.046   0.703
72364W        W44679  17.742  28.232  10.247
72365W        W44680  36.622  10.743  10.760
72366W        W44681  36.993  20.021  11.201
72367W        W44682  43.928  17.573   0.892
72368W        W44683  41.003  15.672   4.215
72369W        W44684  41.886  34.944  10.408
72370W        W44685  41.245  15.321   0.371
72371W        W44686  16.215  13.863   4.255
72372W        W44687   0.057  32.828   2.755
72373W        W44688   6.934  22.317  14.677
72374W        W44689  12.494  11.309   1.657
72375W        W44690  32.544  11.106   0.466
72376W        W44691  26.433   4.919  14.852
72377W        W44692  28.673   7.736  11.061
72378W        W44693   0.891  37.893  13.330
72379W        W44694  29.088   0.164   0.935
72380W        W44695   3.294   7.437  12.634
72381W        W44696  44.984  23.438  13.982
72382W        W44697  35.357  32.071   3.768
72383W        W44698  42.077   1.278  14.445
72384W        W44699  41.510   6.950  11.509
72385W        W44700  43.616  13.367  12.160
72386W        W44701  32.062  22.253  14.394
72387W        W44702  40.823  31.585   4.695
72388W        W44703  40.549  16.848   1.275
72389W        W44704  35.288  19.429   4.156
72390W        W44705  35.819  40.261  12.041
72391W        W44706  11.873  36.069   1.690
72392W        W44707  10.487  40.513   4.211
72393W        W44708   2.168  23.083   3.372
72394W        W44709  17.513   3.823  14.476
72395W        W44710  31.467  43.095  13.900
72396W        W44711  32.916  37.865   2.585
72397W        W44712  15.444   8.541  12.627
72398W        W44713  39.573  19.503   3.587
72399W        W44714  19.004  15.290  10.444
72400W        W44715  16.550  44.924  12.869
72401W        W44716  16.672   8.491  13.317
72402W        W44717  39.323  18.617  13.490
72403W        W44718   3.695   5.406  13.247
72404W        W44719  11.846  36.490  14.072
72405W        W44720  41.873   4.498  12.504
72406W        W44721  42.819  26.003  14.504
72407W        W44722  23.469  27.628  12.959
72408W        W44723  33.406  25.953  14.249
72409W        W44724   7.247  25.809  12.093
72410W        W44725  42.908   3.029  13.666
72411W        W44726  13.325  40.008   0.871
72412W        W44727   1.948  14.282  14.316
72413W        W44728  23.204   9.604   2.957
72414W        W44729  44.424  28.069  12.769
72415W        W44730  32.030  20.728  13.632
72416W        W44731   3.143  27.942   1.771
72417W        W44732   7.632  18.199   3.251
72418W        W44733   5.552  44.701  11.023
72419W        W44734  39.050   9.142   0.965
72420W        W44735  34.151  21.409  14.012
72421W        W44736  22.199  22.291   0.867
72422W        W44737  27.822   3.951  10.676
72423W        W44738   5.824  10.835   3.471
72424W        W44739  37.560  19.331   4.106
72425W        W44740  43.865  34.111  13.955
72426W        W44741  12.760   5.231  13.841
72427W        W44742   5.271  31.170   4.132
72428W        W44743  13.233  17.470   2.218
72429W        W44744  12.564  25.025   3.213
72430W        W44745  17.598  35.612   1.228
72431W        W44746  43.470  44.165   2.758
72432W        W44747  18.756  40.447   4.952
72433W        W44748  40.992  37.418  12.194
72434W        W44749  19.843  41.872   2.582
72435W        W44750  38.255  22.590   1.768
72436W        W44751  23.251   6.407  11.458
72437W        W44752   0.927  24.361   3.686
72438W        W44753  39.922  44.868   2.213
72439W        W44754  38.367   8.213  11.549
72440W        W44755   9.137   1.013   4.102
72441W        W44756   1.287  35.654   4.585
72442W        W44757   9.802  20.988   3.103
72443W        W44758  24.953   2.861   1.160
72444W        W44759  19.630  31.618   4.829
72445W        W44760  27.123  38.661  10.528
72446W        W44761  32.166  38.242  12.040
72447W        W44762  30.523  39.985  11.039
72448W        W44763   1.478  11.744  14.236
72449W        W44764  21.025   6.634   2.134
72450W        W44765  42.777  10.643   4.499
72451W        W44766  41.256   3.712  13.992
72452W        W44767   3.327  10.915   2.244
72453W        W44768  26.213  41.204  11.181
72454W        W44769  35.379   2.282  12.666
72455W        W44770  27.670  22.283   3.808
72456W        W44771   1.399  21.704  13.296
72457W        W44772  41.430  12.344  13.262
72458W        W44773  21.277  12.522   3.288
72459W        W44774   4.782   7.936   2.660
72460W        W44775  27.122   2.819   4.454
72461W        W44776  30.014  36.441  12.106
72462W        W44777  13.578  26.748  12.996
72463W        W44778  28.838  17.146  10.747
72464W        W44779   7.140  20.886  13.376
72465W        W44780   4.316  11.121  13.778
72466W        W44781   0.147  42.277   1.163
72467W        W44782  21.706  16.187   3.286
72468W        W44783   0.963   8.048  13.284
72469W        W44784  44.659  33.225   0.168
72470W        W44785  38.025  20.768   4.822
72471W        W44786  22.951  11.200   0.445
72472W        W44787   5.154  19.000  12.013
72473W        W44788  32.569   4.216  13.833
72474W        W44789  19.785  40.516   1.014
72475W        W44790  17.352  18.696   3.164
72476W        W44791  22.648   9.154   4.213
72477W        W44792  18.124  17.304  12.567
72478W        W44793  43.877  14.787   3.834
72479W        W44794  37.906  20.004   3.344
72480W        W44795  22.617  42.781  13.217
72481W        W44796   5.860  22.153  10.740
72482W        W44797  30.376  40.380  13.325
72483W        W44798   5.214  27.238  10.679
72484W        W44799  40.868  21.575   2.425
72485W        W44800  38.816  29.095   1.427
72486W        W44801  34.432   3.049  11.553
72487W        W44802  11.638  17.632  11.171
72488W        W44803  16.402  26.607  11.232
72489W        W44804  21.511   6.659   3.667
72490W        W44805   1.426   8.237  11.737
72491W        W44806  16.107  18.802   2.752
72492W        W44807   1.493  27.678  12.594
72493W        W44808  40.756  39.077  11.800
72494W        W44809  23.236   9.316  11.636
72495W        W44810  22.606  25.776   0.938
72496W        W44811  26.898  13.766   1.797
72497W        W44812   0.273  22.158  11.640
72498W        W44813   2.260  39.158  12.533
72499W        W44814  32.030  41.817   3.434
72500W        W44815  23.198   9.261  13.904
72501W        W44816   9.410  18.753  13.476
72502W        W44817  36.585  35.007   4.363
72503W        W44818  39.748  25.966   3.157
72504W        W44819   8.182   2.475  14.807
72505W        W44820   9.332   5.787  10.414
72506W        W44821   3.228  14.509  11.907
72507W        W44822  12.091  25.291   5.041
72508W        W44823   9.324  15.088  11.094
72509W        W44824  19.023   9.614   1.898
72510W        W44825   0.312  38.870   0.081
72511W        W44826  22.954  28.497  12.995
72512W        W44827   5.342  33.181   0.711
72513W        W44828  41.915  20.992   4.425
72514W        W44829   6.739  32.610   1.266
72515W        W44830   4.691  32.434   0.800
72516W        W44831  11.143  14.578  13.052
72517W        W44832  22.728  26.083   4.136
72518W        W44833  13.716  22.131   0.661
72519W        W44834  30.972  36.674   5.012
72520W        W44835   3.822  10.112   1.592
72521W        W44836  39.903  11.945   1.209
72522W        W44837   9.919  24.759  14.316
72523W        W44838   4.848  20.770  13.775
72524W        W44839  33.510   4.681  14.531
72525W        W44840   5.981  14.807   3.784
72526W        W44841  37.351  31.647  11.039
72527W        W44842  12.133   8.033  12.285
72528W        W44843  34.565  36.303  14.287
72529W        W44844  27.624  20.105   4.254
72530W        W44845  22.037  21.655   0.372
72531W        W44846  37.528  34.568  12.919
72532W        W44847  36.491   9.371   3.339
72533W        W44848  37.495  19.763   0.736
72534W        W44849  11.133  32.837   2.744
72535W        W44850   6.264  21.898   9.894
72536W        W44851  39.254  40.803   3.312
72537W        W44852  25.660  22.992  13.469
72538W        W44853  25.534   3.840   1.694
72539W        W44854   9.081  43.690  11.551
72540W        W44855   0.666  43.024  13.125
72541W        W44856   3.109  28.261   4.204
72542W        W44857  11.279  41.328  12.422
72543W        W44858   0.488   8.763   2.949
72544W        W44859  15.036  20.244  14.802
72545W        W44860  27.961  38.500  13.252
72546W        W44861  11.134  11.344   3.804
72547W        W44862  10.746   1.922  11.197
72548W        W44863  43.304   9.323  13.969
72549W        W44864  34.664  15.341  12.086
72550W        W44865  34.391   9.782  14.692
72551W        W44866  31.436  11.653   0.000
72552W        W44867  20.574   6.382  10.683
72553W        W44868  12.803   9.145  11.074
72554W        W44869  25.151   7.855   2.596
72555W        W44870  20.000  16.982  10.170
72556W        W44871  31.376  41.816   3.894
72557W        W44872  25.183  38.942  14.466
72558W        W44873  32.945  31.248   5.074
72559W        W44874   0.200  23.099  12.491
72560W        W44875  10.743  10.622   2.684
72561W        W44876  29.192  42.857  12.739
72562W        W44877  18.680  36.995  13.382
72563W        W44878  44.725  10.641   0.355
72564W        W44879  41.923  25.606  13.211
72565W        W44880  41.486  29.069   0.350
72566W        W44881  10.649  40.468  13.370
72567W        W44882   8.659  13.688   4.485
72568W        W44883  14.537  34.481  12.433
72569W        W44884  43.988  43.474  14.389
72570W        W44885  44.073  26.431   2.820
72571W        W44886   5.726  16.116  12.093
72572W        W44887  10.170  27.500  14.303
72573W        W44888  37.312  10.565  14.145
72574W        W44889  21.560  37.507   4.555
72575W        W44890   1.848  36.171   3.585
72576W        W44891   7.593  23.638  11.982
72577W        W44892   2.239  12.159   4.244
72578W        W44893   1.499  38.288  11.095
72579W        W44894   3.312  12.735  12.164
72580W        W44895  15.415  27.225  10.267
72581W        W44896  31.519  21.674  13.938
72582W        W44897  17.693  29.472  10.772
72583W        W44898  33.753  40.578   4.439
72584W        W44899  35.185   8.134  11.060
72585W        W44900  26.142  37.059   2.174
72586W        W44901  28.867  20.079  14.052
72587W        W44902  34.709   3.254  11.964
72588W        W44903  42.396  41.292  13.259
72589W        W44904  28.234  18.105   1.452
72590W        W44905  38.288  42.342  14.662
72591W        W44906  16.981   9.784   3.218
72592W        W44907  31.484  41.548  12.986
72593W        W44908  28.932   9.216   1.267
72594W        W44909   3.554  26.661   0.473
72595W        W44910  30.895  29.642  14.808
72596W        W44911  14.537  10.310   3.264
72597W        W44912  23.454  22.751   3.745
72598W        W44913   0.172  18.249  14.051
72599W        W44914   2.945  36.886  11.572
72600W        W44915   2.385  19.454  12.102
72601W        W44916  13.589  20.626   2.423
72602W        W44917  26.197  23.540  11.848
72603W        W44918  26.956   5.869   2.518
72604W        W44919   8.789   4.020  14.093
72605W        W44920  44.314  37.557  14.648
72606W        W44921   7.339  21.234   0.212
72607W        W44922  18.718  37.625  14.086
72608W        W44923  15.297  27.178  10.756
72609W        W44924  14.573  28.193   4.935
72610W        W44925  36.301  30.619   5.018
72611W        W44926  18.635  14.178   1.911
72612W        W44927  34.524  13.293  11.103
72613W        W44928   3.293  26.204   0.390
72614W        W44929  44.463  29.521   0.509
72615W        W44930  25.092   9.701  14.802
72616W        W44931   9.786   9.667  14.786
72617W        W44932  15.997  30.064  11.967
72618W        W44933  12.296  28.846  12.879
72619W        W44934  44.835  19.898  13.409
72620W        W44935  11.451  21.119   4.490
72621W        W44936  19.149  16.269  14.756
72622W        W44937  39.478  15.782   3.522
72623W        W44938  34.957  11.103  11.578
72624W        W44939  36.524   6.284   2.904
72625W        W44940  27.682  18.310   2.952
72626W        W44941  22.763  41.210   4.130
72627W        W44942   0.549  36.032  10.897
72628W        W44943  15.717  37.708   5.084
72629W        W44944  22.115  21.084   2.670
72630W        W44945  20.867  13.815  11.462
72631W        W44946  18.207  24.035   2.718
72632W        W44947   6.410  33.254   3.274
72633W        W44948   0.274  36.458   3.367
72634W        W44949   8.833  15.536   4.166
72635W        W44950  43.014  39.950   4.084
72636W        W44951   1.431  29.930  13.637
72637W        W44952  30.071   0.276   0.988
72638W        W44953  29.988  10.552   0.410
72639W        W44954  33.509   2.021  11.559
72640W        W44955   2.695  31.625  11.418
72641W        W44956  34.006   8.289   3.479
72642W        W44957  25.988  30.252  10.679
72643W        W44958  11.811  33.916  11.603
72644W        W44959  29.058   7.359  12.344
72645W        W44960  36.826  35.564   2.702
72646W        W44961  33.583   7.480  10.757
72647W        W44962  28.405  38.018  12.999
72648W        W44963  39.426  33.630  10.581
72649W        W44964  40.978  18.632   2.856
72650W        W44965   3.836  24.282  14.922
72651W        W44966   3.314   4.914  12.941
72652W        W44967   8.723  25.677  12.845
72653W        W44968  28.835  31.611  12.415
72654W        W44969  18.793  36.194   0.839
72655W        W44970   9.379  38.089   0.762
72656W        W44971  40.785  10.191  14.011
72657W        W44972  20.094  12.217   4.723
72658W        W44973  44.204  37.917   3.300
72659W        W44974   6.781  33.192   4.013
72660W        W44975   9.845  43.925  10.895
72661W        W44976  31.838  20.989  14.809
72662W        W44977  42.330  22.613  10.750
72663W        W44978  41.895  19.753   2.535
72664W        W44979   4.262  44.006   1.009
72665W        W44980   5.116   5.347   0.610
72666W        W44981  34.963  31.087  10.708
72667W        W44982  20.867  13.958   3.256
72668W        W44983  32.786  34.692  11.409
72669W        W44984  12.189   9.640   4.494
72670W        W44985  43.564  22.263  12.469
72671W        W44986  42.494  29.837  12.089
72672W        W44987  33.637  23.916   0.758
72673W        W44988  23.720  44.383  13.001
72674W        W44989  39.820  23.403  10.223
72675W        W44990   1.317  42.801   0.535
72676W        W44991  41.740  28.159  12.885
72677W        W44992  42.104  26.796   4.190
72678W        W44993  20.167  22.303   1.876
72679W        W44994   2.365  16.690  13.818
72680W        W44995   5.355  18.983   4.208
72681W        W44996   9.173  14.198  12.584
72682W        W44997  13.451  44.524   3.728
72683W        W44998   4.206  19.515   5.001
72684W        W44999  43.207  16.291  13.939
72685W        W45000  21.014  44.275  14.675
72686W        W45001  11.735  29.451   4.992
72687W        W45002  34.464   9.462   4.696
72688W        W45003  25.583  14.783   4.067
72689W        W45004  28.543  33.644  10.204
72690W        W45005   9.797  39.385  10.679
72691W        W45006  23.725  28.845  14.878
72692W        W45007  18.522  23.425   0.894
72693W        W45008   7.842  21.990   3.815
72694W        W45009   7.697   2.302  12.215
72695W        W45010  26.966   8.929   0.512
72696W        W45011  32.448  31.620  12.109
72697W        W45012   8.769  14.530   1.215
72698W        W45013  29.901  37.040   2.799
72699W        W45014  44.064  29.814   2.620
72700W        W45015  33.161   4.554  11.510
72701W        W45016   6.787  40.106   3.616
72702W        W45017  20.581  16.166   4.635
72703W        W45018  43.440  39.381   3.063
72704W        W45019  34.518   2.479  13.836
72705W        W45020  42.658  20.489   3.385
72706W        W45021  39.012  30.634   2.289
72707W        W45022   8.163  14.170  14.304
72708W        W45023  39.075  20.809  12.534
72709W        W45024  29.129  22.035   3.582
72710W        W45025  10.826  36.964  14.291
72711W        W45026   7.503  32.084   4.360
72712W        W45027  10.554  26.884  11.570
72713W        W45028   7.729  43.018   2.322
72714W        W45029  44.787  14.631   4.301
72715W        W45030  42.973  16.216  12.507
72716W        W45031   1.740  13.772  10.731
72717W        W45032   7.912  10.256   1.214
72718W        W45033   8.748  25.746   1.268
72719W        W45034   5.391  42.449  14.317
72720W        W45035  28.399  34.412  13.459
72721W        W45036  27.968  35.927   4.257
72722W        W45037  33.790  32.918   4.503
72723W        W45038  38.704  33.548   5.139
72724W        W45039  29.171  42.130   1.751
72725W        W45040  36.103   4.828   4.826
72726W        W45041  12.814  19.530  12.524
72727W        W45042  25.922  41.262   1.293
72728W        W45043  27.835  40.766  13.500
72729W        W45044  28.649  11.869  12.574
72730W        W45045  25.444  12.275   1.371
72731W        W45046  43.904  11.444  12.470
72732W        W45047  27.542  36.474  14.359
72733W        W45048  18.629   3.710  13.067
72734W        W45049  10.627  31.038  12.658
72735W        W45050  32.006  10.664   2.340
72736W        W45051   1.406   7.867   1.264
72737W        W45052   2.685  31.577   0.375
72738W        W45053  22.813  35.414   3.699
72739ION    NA+45054  15.598   3.292   4.680
72740ION    NA+45055   5.174  20.063   0.035
72741ION    NA+45056  14.125   9.077  11.766
72742ION    NA+45057  28.184  37.503  14.206
72743ION    NA+45058  15.461   5.858  14.902
72744ION    NA+45059  40.676  20.712  11.198
72745ION    NA+45060  28.033  30.408   0.290
72746ION    NA+45061  27.545   6.332   1.988
72747ION    NA+45062  41.982   1.313  10.741
72748ION    NA+45063  38.629  33.874  13.285
72749ION    NA+45064   1.429  11.580   4.559
72750ION    NA+45065  21.243  24.162  14.186
72751ION    NA+45066   0.402  36.037  12.378
72752ION    NA+45067  21.104  29.138   0.925
72753ION    NA+45068  11.778   3.212   2.357
72754ION    NA+45069  30.044  19.306   1.419
72755ION    NA+45070  27.739  10.890   1.770
72756ION    NA+45071   9.634  30.714   3.935
72757ION    NA+45072  28.401   5.190  13.437
72758ION    NA+45073   6.241  34.400  14.855
72759ION    NA+45074   3.715   3.417   3.209
72760ION    NA+45075  23.550  33.544  13.863
72761ION    NA+45076  26.716  15.324   3.229
72762ION    NA+45077  21.449  38.080  12.310
72763ION    NA+45078  29.418   0.030   4.756
72764ION    NA+45079  18.960   2.018  12.281
72765ION    NA+45080  33.498  25.066   3.616
72766ION    NA+45081  36.565  25.972   4.101
72767ION    NA+45082  11.503  37.801   2.749
72768ION    NA+45083  20.039   8.627   3.261
72769ION    NA+45084  29.843  44.818   3.168
72770ION    NA+45085   2.629  34.777  11.951
72771ION    NA+45086   0.199   2.740  11.304
72772ION    NA+45087   4.628  21.176  12.342
72773ION    NA+45088  19.825  31.330  10.517
72774ION    NA+45089  16.442  34.564   3.554
72775ION    NA+45090  34.791   8.988   2.051
72776ION    NA+45091  29.620  20.317  11.613
72777ION    NA+45092  42.804  24.956   3.127
72778ION    NA+45093  20.350  14.161   4.084
72779ION    NA+45094  27.238  40.208   4.416
72780ION    NA+45095   2.612  15.963   3.017
72781ION    NA+45096  33.415  41.736   0.920
72782ION    NA+45097  26.298   3.541   0.527
72783ION    NA+45098  43.554  10.006   0.120
72784ION    NA+45099  20.626  32.630  13.295
72785ION    NA+45100  42.482  12.919   0.801
72786ION    NA+45101  27.286  40.204   0.501
72787ION    NA+45102  38.527  38.750  14.190
72788ION    NA+45103  29.563  28.356  13.165
72789ION    NA+45104  17.698  34.436   1.406
72790ION    NA+45105   2.443  26.242  13.164
72791ION    NA+45106  22.242   6.823  13.314
72792ION    NA+45107   3.802  43.206   2.607
72793ION    NA+45108  24.757  31.029  14.339
72794ION    NA+45109   3.602  27.333  12.292
72795ION    NA+45110   4.287  37.421   1.293
72796ION    NA+45111   8.593  41.837   0.103
72797ION    NA+45112  22.824  18.256   1.690
72798ION    NA+45113  44.819  15.251  12.845
72799ION    NA+45114  23.462  30.738   0.135
72800ION    NA+45115  19.734  43.383   0.702
72801ION    NA+45116   0.932   6.758  10.714
72802ION    NA+45117   2.751   7.213  10.949
72803ION    NA+45118  18.941   3.285  14.104
72804ION    NA+45119  34.726  31.543  14.553
72805ION    NA+45120  16.070  31.668   2.684
72806ION    NA+45121  44.323  17.727  13.167
72807ION    NA+45122   9.364  13.641  10.203
72808ION    NA+45123  30.461  22.307   2.945
72809ION    NA+45124  39.589  27.083   1.889
72810ION    NA+45125   8.887   9.841  11.441
72811ION    NA+45126  27.634  19.548   9.803
72812ION    NA+45127   4.761  44.577  11.779
72813ION    NA+45128   2.469  39.834  13.737
72814ION    NA+45129  35.311   5.017  13.450
72815ION    NA+45130  25.767   4.513  12.904
72816ION    NA+45131  14.365  35.846   0.534
72817ION    NA+45132  16.719  16.015  11.865
72818ION    NA+45133  33.412   4.682   3.781
72819ION    NA+45134   6.836  30.364  13.520
72820ION    NA+45135   7.206  25.809   4.669
72821ION    NA+45136  34.460  20.707   3.290
72822ION    NA+45137   6.228  10.112   4.141
72823ION    NA+45138   1.382   4.743   0.186
72824ION    NA+45139   1.362   6.768   0.646
72825ION    NA+45140  35.895   7.569  14.260
72826ION    NA+45141  28.516  34.143  10.082
72827ION    NA+45142  34.095  12.243   3.650
72828ION    NA+45143  23.843   6.328  10.729
72829ION    NA+45144  41.576   6.000  11.115
72830ION    NA+45145  12.250  15.467  11.205
72831ION    NA+45146  39.773  13.699   2.549
72832ION    NA+45147   8.886   7.067  11.123
72833ION    NA+45148   9.305  16.793   4.862
72834ION    NA+45149  41.916  19.497   0.756
72835ION    NA+45150   5.339   0.042  12.485
72836ION    NA+45151  34.270  27.507  13.045
72837ION    NA+45152   8.556  30.532  13.287
72838ION    NA+45153   3.508   2.868  14.737
72839ION    NA+45154  27.455   9.325  10.706
72840ION    NA+45155  24.521  25.941  10.760
72841ION    NA+45156  37.448  10.729  12.044
72842ION    NA+45157   6.160  13.702   3.668
72843ION    NA+45158  16.554  42.632  12.844
72844ION    NA+45159  37.060  32.658   1.421
72845ION    NA+45160  21.058   9.185  10.853
72846ION    NA+45161  14.762  29.935   1.443
72847ION    NA+45162  14.723  44.555  12.384
72848ION    NA+45163  14.371  42.763  10.544
72849ION    NA+45164  27.158   0.911   4.648
72850ION    NA+45165  11.748  25.015   0.946
72851ION    NA+45166   6.137  18.654   3.244
72852ION    NA+45167  13.927   2.098   0.781
72853ION    NA+45168  13.917  39.047   3.065
72854ION    NA+45169  41.053  19.231  13.383
72855ION    NA+45170  36.472  35.861   5.145
72856ION    NA+45171  22.283  42.162  11.849
72857ION    NA+45172  20.529  31.084   3.644
72858ION    NA+45173  21.506   6.151  12.877
72859ION    NA+45174   7.426  11.617  13.383
72860ION    NA+45175  35.500  31.124  10.698
72861ION    NA+45176  37.049  15.153   4.216
72862ION    NA+45177  41.689  43.883  11.692
72863ION    NA+45178  29.127  18.366  12.947
72864ION    NA+45179  11.382  18.094  14.523
72865ION    NA+45180  21.595  41.301  12.511
72866ION    NA+45181  10.505  15.721   9.763
72867ION    NA+45182  19.660  33.502   0.929
72868ION    NA+45183   5.895  32.867  12.600
72869ION    NA+45184  19.670  15.355  10.414
72870ION    NA+45185  41.724  20.815  12.264
72871ION    NA+45186  38.620  14.323  13.392
72872ION    NA+45187  33.168  26.341  13.931
72873ION    NA+45188  42.330  39.588  12.388
72874ION    NA+45189  42.430   8.276   3.590
72875ION    NA+45190   4.712  16.108  14.803
72876ION    NA+45191  43.492  43.517  13.103
72877ION    NA+45192   9.456  16.449   0.035
72878ION    NA+45193  18.095  30.202   5.084
72879ION    NA+45194  19.712  39.608  12.301
72880ION    NA+45195  41.050  34.543   4.044
72881ION    NA+45196  16.492   2.157   0.100
72882ION    NA+45197  36.565  43.126   0.034
72883ION    NA+45198  37.631  24.985   4.680
72884ION    NA+45199  35.704  42.827   3.917
72885ION    NA+45200  32.385  32.352   0.787
72886ION    NA+45201   3.820   4.587  10.237
72887ION    NA+45202  23.224  44.976   0.787
72888ION    NA+45203   5.606  24.743   0.336
72889ION    NA+45204  30.872  13.814  10.683
72890ION    NA+45205  43.905  30.089   4.265
72891ION    NA+45206   7.617  10.868   4.377
72892ION    NA+45207  27.496  18.972   0.565
72893ION    NA+45208   2.000   5.383  14.089
72894ION    NA+45209  28.482  20.788  13.238
72895ION    NA+45210  38.133  43.400   3.615
72896ION    NA+45211  13.237  31.589  13.831
72897ION    NA+45212  15.430  13.098  10.700
72898ION    NA+45213  13.188  44.317   4.168
72899ION    NA+45214  26.691  34.016   2.252
72900ION    NA+45215  38.434  13.478  13.164
72901ION    NA+45216  13.778   6.818   2.611
72902ION    NA+45217  44.472  28.505  11.853
72903ION    NA+45218  29.505  42.774  12.084
72904ION    NA+45219  34.767   5.704  13.188
72905ION    NA+45220   5.570  17.004   3.360
72906ION    NA+45221  34.393   6.752   2.305
72907ION    NA+45222  33.349  36.558  14.872
72908ION    NA+45223  22.987  31.244  10.670
72909ION    NA+45224  28.631  17.485  14.241
72910ION    NA+45225  16.909   4.383  12.951
72911ION    NA+45226   0.207  38.307  10.604
72912ION    NA+45227   6.767  44.699   4.807
72913ION    NA+45228   1.846  36.007  14.015
72914ION    NA+45229  38.254  18.951  12.153
72915ION    NA+45230  34.674  17.004  12.541
72916ION    NA+45231  29.931  13.086   4.419
72917ION    NA+45232  10.348  29.107  10.821
72918ION    NA+45233  38.108  38.082   0.921
72919ION    NA+45234  24.905  20.002   2.713
72920ION    NA+45235  21.357   9.554   0.231
72921ION    NA+45236  10.375  11.878   1.936
72922ION    NA+45237  13.401   7.138   5.124
72923ION    NA+45238   3.152  20.729  11.325
72924ION    NA+45239  22.784  18.174  11.028
72925ION    NA+45240  11.957   5.594   2.901
72926ION    NA+45241  19.238  30.641  12.396
72927ION    NA+45242  13.652  25.198  11.277
72928ION    NA+45243  44.837  12.378   3.272
72929ION    NA+45244  41.326  38.014   4.207
72930ION    NA+45245   9.129  37.387  10.728
72931ION    NA+45246  22.695  37.613   2.387
72932ION    NA+45247   6.047   8.640   4.200
72933ION    NA+45248  39.333  28.278   4.709
72934ION    NA+45249   3.247  26.461  13.996
72935ION    NA+45250  25.041  41.603  13.493
72936ION    NA+45251  18.250  10.869  14.939
72937ION    NA+45252  22.141  17.137   1.191
72938ION    NA+45253  11.181  29.720   2.204
72939ION    NA+45254  21.084  10.272  13.524
72940ION    NA+45255   3.788  19.630   0.816
72941ION    NA+45256  43.307  21.097   0.039
72942ION    NA+45257  32.008  42.519  11.737
72943ION    NA+45258  17.081   7.171   1.849
72944ION    NA+45259  36.461  14.383  11.072
72945ION    NA+45260  24.050  22.662   0.512
72946ION    NA+45261  13.442   1.458   1.377
72947ION    NA+45262   8.075  12.135  11.190
72948ION    NA+45263  32.397  40.540   4.238
72949ION    NA+45264  32.747  16.509   3.550
72950ION    NA+45265   5.363  18.107  11.691
72951ION    NA+45266  36.291  19.164   2.590
72952ION    NA+45267  11.455  44.667  14.029
72953ION    NA+45268   1.431  43.518  10.707
72954ION    NA+45269  20.694  12.675   4.239
72955ION    NA+45270  14.818   0.323  10.916
72956ION    NA+45271  26.832  21.519   4.120
72957ION    NA+45272   9.409  18.465   3.272
72958ION    NA+45273  13.620   6.418  11.997
72959ION    NA+45274  16.715  34.113  13.096
72960ION    NA+45275  31.835  24.331  11.578
72961ION    NA+45276   9.378   6.242  12.780
72962ION    NA+45277  36.117   6.305  12.817
72963ION    NA+45278  24.531  19.525   4.205
72964ION    NA+45279  19.708  12.682  13.781
72965ION    NA+45280  33.530  28.976  11.438
72966ION    NA+45281  37.963  35.124   1.884
72967ION    NA+45282  25.544  13.609  12.608
72968ION    NA+45283   6.201  23.315   1.940
72969ION    NA+45284  39.485   6.798  13.778
72970ION    NA+45285   5.568   2.054  12.336
72971ION    NA+45286   1.198  11.705  11.939
72972ION    NA+45287  37.654  20.870  14.267
72973ION    NA+45288  31.386  33.784  13.102
72974ION    NA+45289  35.287   8.746  10.401
72975ION    NA+45290  11.472  24.422   3.114
72976ION    NA+45291  41.145  30.685   2.693
72977ION    NA+45292  18.862   4.487  11.144
72978ION    NA+45293   7.928  33.422  11.589
72979ION    NA+45294  28.038  38.420   1.633
72980ION    NA+45295   5.582  39.324  13.824
72981ION    NA+45296   1.834  42.675   2.618
72982ION    NA+45297  10.659  37.176   1.659
72983ION    NA+45298   3.491  33.144  12.237
72984ION    NA+45299  27.701  19.250  10.869
72985ION    NA+45300  30.875  28.902   3.408
72986ION    NA+45301  32.672  28.353  13.011
72987ION    NA+45302   1.360  16.623  12.801
72988ION    NA+45303  32.766  19.749  11.146
72989ION    NA+45304  11.163   2.411  13.522
72990ION    NA+45305   7.109  38.050  13.074
72991ION    NA+45306  14.533  16.176   0.665
72992ION    NA+45307  10.202  16.950  14.596
72993ION    NA+45308  30.172  37.804   2.546
72994ION    NA+45309  14.375  12.807  12.009
72995ION    NA+45310  10.788  44.887   0.325
72996ION    NA+45311  35.590  42.490   1.715
72997ION    NA+45312  41.290   6.607   0.798
72998ION    NA+45313  44.075  43.956   1.427
72999ION    NA+45314   8.917  24.523   2.582
73000ION    NA+45315  26.280  38.474   4.284
73001ION    NA+45316  34.090  32.147   2.310
73002ION    NA+45317  40.606  26.297   2.337
73003ION    NA+45318  34.366  17.414   1.161
73004ION    NA+45319  10.475  18.975   4.124
73005ION    NA+45320  20.095  32.178   1.609
73006ION    NA+45321  41.500  31.667  10.572
73007ION    NA+45322  42.356  28.283   3.219
73008ION    NA+45323  32.345  37.318   4.534
73009ION    NA+45324  31.397  10.018   4.140
73010ION    NA+45325  12.996  37.322   2.237
73011ION    NA+45326  12.979  31.970  14.606
73012ION    NA+45327  37.415  13.284  12.167
73013ION    NA+45328   3.149  28.121   3.160
73014ION    NA+45329   0.656   7.894  11.564
73015ION    NA+45330  37.609  18.762   1.462
73016ION    NA+45331  41.572  33.354   3.145
73017ION    NA+45332  12.691  13.771  13.730
73018ION    NA+45333   8.910  27.572  10.607
73019ION    NA+45334  16.221   7.744   0.335
73020ION    NA+45335  34.468  17.844  13.043
73021ION    NA+45336   3.372  24.306   4.631
73022ION    NA+45337   2.016  16.829   4.087
73023ION    NA+45338   8.930  38.616   4.785
73024ION    NA+45339  27.584  16.436  13.645
73025ION    NA+45340  43.619  44.888  11.258
73026ION    NA+45341  39.411  31.364   4.503
73027ION    NA+45342  19.599  38.086   2.290
73028ION    NA+45343  12.088  41.924   3.487
73029ION    NA+45344  18.033   5.486  14.313
73030ION    NA+45345  37.323  40.516   5.311
73031ION    NA+45346  44.631   2.607  11.968
73032ION    NA+45347  17.318  17.565   0.210
73033ION    NA+45348   4.532  29.230  12.914
73034ION    NA+45349  42.039  17.312  11.340
73035ION    NA+45350  15.858  43.325  11.521
73036ION    NA+45351  20.970  12.105   0.307
73037ION    NA+45352  30.201  10.435   1.217
73038ION    NA+45353  40.587  43.397  12.582
73039ION    NA+45354   9.436  43.608  10.785
73040ION    NA+45355  10.922   3.391  11.211
73041ION    NA+45356  29.263  13.799   4.635
73042ION    NA+45357   4.942  21.247   1.314
73043ION    NA+45358  25.098  22.482  14.828
73044ION    NA+45359  44.607  42.498   3.330
73045ION    NA+45360  34.555  34.055  14.034
73046ION    NA+45361  27.845  32.110   0.274
73047ION    NA+45362  13.260  25.134   0.896
73048ION    NA+45363  42.364  13.321   1.930
73049ION    NA+45364  25.765  10.074   1.270
73050ION    NA+45365  39.004  41.760   4.232
73051ION    NA+45366   3.799  18.017  11.245
73052ION    NA+45367   7.938  14.657   1.776
73053ION    NA+45368  29.098  38.148  12.551
73054ION    NA+45369  16.230  21.555   2.301
73055ION    NA+45370  43.528  38.509   0.297
73056ION    NA+45371  32.031  30.399   0.556
73057ION    NA+45372  41.054  16.230  12.514
73058ION    NA+45373  22.763  29.007  14.738
73059ION    NA+45374  33.858  16.450  11.375
73060ION    NA+45375  14.862  42.444  14.290
73061ION    NA+45376  41.872  42.533  12.534
73062ION    NA+45377  43.144  25.903   1.048
73063ION    NA+45378  43.977  32.020  12.482
73064ION    NA+45379  22.559  18.042  11.993
73065ION    NA+45380  29.179  22.017  12.921
73066ION    NA+45381  21.573  27.115   1.046
73067ION    NA+45382  37.907  14.710   2.913
73068ION    NA+45383  24.299  13.030   0.235
73069ION    NA+45384  31.549  43.794   2.458
73070ION    NA+45385   9.212  34.447  10.988
73071ION    NA+45386  23.620  33.899   0.702
73072ION    NA+45387   3.655  31.395  14.235
73073ION    NA+45388  31.516  23.493   2.338
73074ION    NA+45389  24.929  18.627  11.145
73075ION    NA+45390  13.949  41.532  11.814
73076ION    NA+45391  18.840  30.459  14.887
73077ION    NA+45392  33.906  19.016  11.570
73078ION    NA+45393   0.678  18.306   1.332
73079ION    NA+45394   6.886  15.152  13.589
73080ION    NA+45395  35.806   3.729   2.821
73081ION    NA+45396  15.609  12.185  13.283
73082ION    NA+45397  21.074  11.825  14.352
73083ION    NA+45398  17.780  11.266   3.134
73084ION    NA+45399  11.594  36.590   3.432
73085ION    NA+45400  28.935  34.246   2.427
73086ION    NA+45401   5.946   9.908  13.015
73087ION    NA+45402  18.632   4.898  13.526
73088ION    NA+45403  27.642   3.234  12.655
73089ION    NA+45404   7.063  32.543   3.154
73090ION    NA+45405   2.759  21.147  13.137
73091ION    NA+45406  10.727  11.238  10.825
73092ION    NA+45407  19.893   3.744  14.031
73093ION    NA+45408   0.542  33.291  11.296
73094ION    NA+45409  38.726   4.453  14.335
73095ION    NA+45410   6.670  41.241  12.827
73096ION    NA+45411  15.721  38.331   0.908
73097ION    NA+45412  31.047  38.573   1.924
73098ION    NA+45413  22.287  28.252   1.930
73099ION    NA+45414  43.813  30.422   1.197
73100ION    NA+45415  39.076  15.798   4.841
73101ION    NA+45416  17.249  39.984   2.702
73102ION    NA+45417   5.089  11.728   3.667
73103ION    NA+45418  19.373  12.334  12.688
73104ION    NA+45419   5.788   2.311   0.482
73105ION    NA+45420   5.985  25.030  10.019
73106ION    NA+45421  40.935  25.692  13.031
73107ION    NA+45422   6.389  37.826  10.525
73108ION    NA+45423  37.037  24.336   5.265
73109ION    NA+45424  35.540  37.559  13.826
73110ION    NA+45425  18.415  37.945   4.962
73111ION    NA+45426  26.503  42.900  12.279
73112ION    NA+45427   3.193  40.361   3.854
73113ION    NA+45428  14.969   8.557  12.439
73114ION    NA+45429  39.762  23.474   0.591
73115ION    NA+45430   0.335  39.083  11.221
73116ION    NA+45431  22.928  22.201  12.474
73117ION    NA+45432   8.776   5.880   3.405
73118ION    NA+45433   1.997  44.978  11.454
73119ION    NA+45434  33.452  29.091   0.741
73120ION    NA+45435   0.386  36.039   3.672
73121ION    NA+45436  36.708  15.840  13.397
73122ION    NA+45437  19.826  31.313   1.724
73123ION    NA+45438  15.678  18.415  11.466
73124ION    NA+45439  12.229  44.842   2.810
73125ION    NA+45440  42.671  30.211  13.128
73126ION    NA+45441  28.912  20.842   4.206
73127ION    NA+45442  35.023   4.339   3.655
73128ION    NA+45443  16.569  44.117   1.112
73129ION    NA+45444   1.323  25.707   0.284
73130ION    NA+45445  17.555   8.620   4.114
73131ION    NA+45446  25.851  37.087  11.307
73132ION    NA+45447   6.098   5.183  12.790
73133ION    NA+45448  14.189  43.832   2.716
73134ION    NA+45449   7.260   6.390  10.697
73135ION    NA+45450  34.008  41.422  11.361
73136ION    NA+45451  10.317  17.033  13.213
73137ION    NA+45452  33.564  29.949  12.120
73138ION    NA+45453  15.631  37.971  13.338
73139ION    NA+45454  29.683  11.362  14.148
73140ION    NA+45455   5.662  24.965   1.668
73141ION    NA+45456  22.161  16.940   3.287
73142ION    NA+45457  37.151  19.130  10.431
73143ION    NA+45458  43.044  29.932  10.795
73144ION    NA+45459   1.178  43.671  13.075
73145ION    NA+45460  15.653  24.678  11.519
73146ION    NA+45461  34.206  29.916  14.912
73147ION    NA+45462  36.830   3.401  11.738
73148ION    NA+45463  43.359   6.403  10.672
73149ION    NA+45464   2.949  13.489   1.620
73150ION    NA+45465  35.029  12.722   4.242
73151ION    NA+45466  20.327  37.985  13.245
73152ION    NA+45467  27.988  33.550   1.380
73153ION    NA+45468  13.765  17.257   2.349
73154ION    NA+45469  30.006  11.845  14.961
73155ION    NA+45470  20.755  38.305   1.726
73156ION    NA+45471  32.148  23.255   0.564
73157ION    NA+45472   5.271  12.592   2.864
73158ION    NA+45473  33.086  44.276   0.361
73159ION    NA+45474  10.279  44.071   4.050
73160ION    NA+45475  15.505  22.461   2.727
73161ION    NA+45476  39.083  14.655   4.890
73162ION    NA+45477   1.936  42.465  12.725
73163ION    NA+45478  22.149  10.146  10.765
73164ION    NA+45479  25.605  17.271   1.201
73165ION    NA+45480  16.793  21.229   0.282
73166ION    NA+45481  41.274  44.265  14.907
73167ION    NA+45482  38.762   5.155  11.574
73168ION    NA+45483  22.301   6.415   0.936
73169ION    NA+45484  14.799  30.671  13.978
73170ION    NA+45485  43.293  12.934   1.846
73171ION    NA+45486  36.432  42.132  10.999
73172ION    NA+45487  40.819  44.432  12.426
73173ION    NA+45488  31.175  17.711  12.004
73174ION    NA+45489   8.878  10.470  10.238
73175ION    NA+45490  42.051  43.415  10.657
73176ION    NA+45491  17.605  35.501  12.813
73177ION    NA+45492  10.071   8.653   2.383
73178ION    NA+45493  18.432  24.680   2.671
73179ION    NA+45494   4.197  14.651   3.670
73180ION    NA+45495  19.924  15.750   3.659
73181ION    NA+45496   3.725  15.598   0.865
73182ION    NA+45497  36.268  21.871   1.279
73183ION    NA+45498   4.004   6.183  10.953
73184ION    NA+45499  37.839  22.141   1.029
73185ION    NA+45500  22.559  43.301  13.663
73186ION    NA+45501  42.269  44.170  14.958
73187ION    NA+45502   1.022   5.792   4.405
73188ION    NA+45503  38.748  12.967   3.269
73189ION    NA+45504   2.545  22.667   4.759
73190ION    NA+45505  38.739   4.505   4.128
73191ION    NA+45506  33.472  43.504  14.241
73192ION    NA+45507  30.923  29.951  12.965
73193ION    NA+45508  27.471  35.813   4.228
73194ION    NA+45509  21.439  26.234   1.177
73195ION    NA+45510  21.197  25.735  10.738
73196ION    NA+45511  25.507   8.162  11.263
73197ION    NA+45512  34.422  23.325   1.453
73198ION    NA+45513  21.609  13.323   0.776
73199ION    NA+45514  19.241   0.714   0.396
73200ION    NA+45515  12.648   2.459   1.187
73201ION    NA+45516   5.697  29.476   4.478
73202ION    NA+45517   3.026  12.879  13.436
73203ION    NA+45518  40.905   4.368  14.398
73204ION    NA+45519  15.273  37.135   3.543
73205ION    NA+45520  29.601  31.146   3.450
73206ION    NA+45521  22.109   3.373   3.123
73207ION    NA+45522  30.659  13.755   3.578
73208ION    NA+45523  11.081   5.153   2.698
73209ION    NA+45524   0.264  17.042   2.893
73210ION    NA+45525  14.134  26.723   2.155
73211ION    NA+45526  15.378   2.143  12.285
73212ION    NA+45527  32.355  17.061   0.107
73213ION    NA+45528  30.548   6.175   1.268
73214ION    NA+45529  20.266   5.683   3.312
73215ION    NA+45530  14.661   2.033  13.168
73216ION    NA+45531  31.972  13.681  14.408
73217ION    NA+45532   5.383  39.101  12.536
73218ION    NA+45533  26.125   9.194  11.686
73219ION    NA+45534  11.645  42.996  12.252
73220ION    NA+45535   8.318  19.059  11.727
73221ION    NA+45536   8.395  14.124  12.946
73222ION    NA+45537  12.947  39.184   2.688
73223ION    NA+45538  28.495  40.694  12.778
73224ION    NA+45539  38.981  14.715   3.975
73225ION    NA+45540  18.318  25.669  14.469
73226ION    NA+45541  14.901  37.752   3.179
73227ION    NA+45542   5.830   3.343   2.183
73228ION    NA+45543  18.625  40.550  10.263
73229ION    NA+45544   7.415  17.741   4.385
73230ION    NA+45545  10.831  42.995   4.159
73231ION    NA+45546  37.498  44.240  11.754
73232ION    NA+45547  22.013   2.323   3.207
73233ION    NA+45548  34.762  28.681  13.365
73234ION    NA+45549  30.425  10.359   4.251
73235ION    NA+45550   4.409   2.893  12.137
73236ION    NA+45551  26.753  13.431  11.663
73237ION    NA+45552  17.616  31.810  11.604
73238ION    NA+45553  39.811  40.554   4.251
73239ION    NA+45554  24.973  10.181  11.548
73240ION    NA+45555  27.530  22.973   0.967
73241ION    NA+45556  36.383  19.043  13.598
73242ION    NA+45557  15.938  25.864   2.349
73243ION    NA+45558  43.437  28.453   1.675
73244ION    NA+45559  26.211  30.385  13.910
73245ION    NA+45560  41.674  22.458   5.095
73246ION    NA+45561  44.433  43.080  13.505
73247ION    NA+45562  14.579   3.942   3.114
73248ION    NA+45563  24.776  26.689   5.035
73249ION    NA+45564  40.331  21.287   1.209
73250ION    NA+45565  38.585  25.330   3.052
73251ION    NA+45566   6.519  38.727  12.967
73252ION    NA+45567  22.734  13.813   3.519
73253ION    NA+45568  12.196   0.739  14.374
73254ION    NA+45569  18.532  33.607   4.150
73255ION    NA+45570  12.415  12.873   1.187
73256ION    NA+45571  12.912  38.381  12.889
73257ION    NA+45572  11.715  31.035  12.021
73258ION    NA+45573  25.875  32.733  11.299
73259ION    NA+45574  25.894  35.785  14.088
73260ION    NA+45575   3.788   6.218   1.540
73261ION    NA+45576  11.715   1.168  13.370
73262ION    NA+45577   0.598  11.855   2.360
73263ION    NA+45578  20.853  34.989  12.646
73264ION    NA+45579  21.153  34.096  10.778
73265ION    NA+45580   4.431   9.839   3.352
73266ION    NA+45581  33.852  40.765  13.837
73267ION    NA+45582   8.082  30.622  12.411
73268ION    NA+45583  41.776  15.286   0.384
73269ION    NA+45584  44.788  19.115  14.070
73270ION    NA+45585  41.822   8.447  14.568
73271ION    NA+45586   6.923  29.064  12.087
73272ION    NA+45587  12.385  16.605  12.570
73273ION    NA+45588   0.694  37.397  13.092
73274ION    NA+45589  19.914   9.047  12.244
73275ION    NA+45590  24.386  36.580  14.880
73276ION    NA+45591  11.328  38.259   0.750
73277ION    NA+45592  18.859   6.264  10.479
73278ION    NA+45593  20.249   7.885  13.522
73279ION    NA+45594  30.247  35.878  12.787
73280ION    NA+45595  42.004  40.876   0.764
73281ION    NA+45596   9.243  17.999  10.681
73282ION    NA+45597   6.936   0.157   3.567
73283ION    NA+45598  35.683  36.540   1.306
73284ION    NA+45599  30.410  43.913   3.187
73285ION    NA+45600  33.376  24.492   3.886
73286ION    NA+45601   9.008  12.964   2.117
73287ION    NA+45602  35.290  39.387  10.875
73288ION    NA+45603  34.078  18.122   1.807
73289ION    NA+45604  27.668  14.037   3.147
73290ION    NA+45605  22.226   8.186  14.811
73291ION    NA+45606  11.492  30.834  11.019
73292ION    NA+45607  23.957   4.300  12.600
73293ION    NA+45608  43.734  31.096  13.071
73294ION    NA+45609  14.664   9.908  11.557
73295ION    NA+45610  20.827  19.147  11.012
73296ION    NA+45611  19.578   4.644  14.333
73297ION    NA+45612  42.727  15.704   3.275
73298ION    NA+45613   2.455  43.922   2.415
73299ION    NA+45614  29.904  33.852   3.264
73300ION    NA+45615  17.714  38.768   4.514
73301ION    NA+45616  17.129   2.379  11.305
73302ION    NA+45617  43.304  13.377  13.369
73303ION    NA+45618   1.360  19.861   4.782
73304ION    NA+45619   5.331  17.179  10.987
73305ION    NA+45620  34.964  22.674  12.133
73306ION    NA+45621  19.710  24.044  11.696
73307ION    NA+45622  10.495  23.636   4.454
73308ION    NA+45623   6.031  23.686  12.461
73309ION    NA+45624  18.632   1.959   3.243
73310ION    NA+45625  20.262  30.399  10.959
73311ION    NA+45626  34.421   0.493   2.778
73312ION    NA+45627  16.531  19.175  12.011
73313ION    NA+45628  37.348  28.570  13.008
73314ION    NA+45629  26.890  20.029   3.258
73315ION    NA+45630  41.381  43.991   1.114
73316ION    NA+45631  17.598  19.857  14.963
73317ION    NA+45632  13.157  27.261  10.605
73318ION    NA+45633   0.448  36.440  14.875
73319ION    NA+45634  17.514  40.386  14.837
73320ION    NA+45635   6.543   9.612   0.925
73321ION    NA+45636  18.513  20.744   3.379
73322ION    NA+45637  36.197  37.434   0.768
73323ION    NA+45638  30.895   7.725   0.696
73324ION    NA+45639  10.748   7.008  12.918
73325ION    NA+45640  31.407  17.855   1.254
73326ION    NA+45641  39.345  12.840   1.026
73327ION    NA+45642  13.386  31.232  12.356
73328ION    NA+45643  42.804  35.287  12.756
73329ION    NA+45644  29.594  40.345   2.700
73330ION    NA+45645  40.731  31.327  10.916
73331ION    NA+45646  26.346  26.505  13.409
73332ION    NA+45647  21.567  43.289  14.326
73333ION    NA+45648  13.367  19.609  14.683
73334ION    NA+45649  14.250  17.766  12.295
73335ION    NA+45650   6.864  10.975  11.815
73336ION    NA+45651  32.430  12.471   2.408
73337ION    NA+45652   0.903  33.212   4.594
73338ION    NA+45653   5.280  20.598   1.995
73339ION    NA+45654  35.312  19.288  11.566
73340ION    NA+45655  19.749   1.072  10.912
73341ION    NA+45656  41.959  40.826  12.109
73342ION    NA+45657  11.869  43.392   2.015
73343ION    NA+45658   7.956  22.685  12.221
73344ION    NA+45659   7.288  39.846  11.798
73345ION    NA+45660  40.044  37.651   0.054
73346ION    NA+45661  22.154  42.996  10.663
73347ION    NA+45662  44.447  32.025   2.055
73348ION    NA+45663   6.770  22.129   3.270
73349ION    NA+45664  35.326   5.977   3.259
73350ION    NA+45665  18.887   7.014   2.679
73351ION    NA+45666   5.563  12.745   4.500
73352ION    NA+45667  39.795  43.777  11.085
73353ION    NA+45668  29.837  40.077  11.996
73354ION    NA+45669  34.652  16.493   1.779
73355ION    NA+45670   8.925  43.144   0.414
73356ION    NA+45671  37.954  27.371   4.447
73357ION    NA+45672  28.656  19.217   4.039
73358ION    NA+45673  42.492  43.957   4.460
73359ION    NA+45674  14.589   3.463   9.758
73360ION    NA+45675  21.883  12.718   2.650
73361ION    NA+45676  28.137  15.696   4.705
73362ION    NA+45677  25.278   9.321   1.770
73363ION    NA+45678   1.038  39.116   4.034
73364ION    NA+45679   4.850  43.765   0.665
73365ION    NA+45680  19.105  28.549   9.904
73366ION    NA+45681  23.027   2.304  13.566
73367ION    NA+45682   5.314  34.145   0.285
73368ION    NA+45683  22.418  15.358  12.811
73369ION    NA+45684   3.181  26.345   4.446
73370ION    NA+45685  10.639  12.194   4.557
73371ION    NA+45686  18.006   6.508   4.161
73372ION    NA+45687  32.586  44.526  14.685
73373ION    NA+45688  34.473  34.068  12.130
73374ION    NA+45689  22.776  22.751   3.200
73375ION    NA+45690  16.993   3.755  10.291
73376ION    NA+45691   1.747  18.311   4.599
73377ION    NA+45692  37.952  36.116   0.806
73378ION    NA+45693  39.636  24.565  12.399
73379ION    NA+45694   6.602  12.083   1.552
73380ION    NA+45695  16.226  39.590  11.401
73381ION    NA+45696   7.246  37.833   2.821
73382ION    NA+45697   4.440  29.548   0.406
73383ION    NA+45698   0.451  29.573  11.957
73384ION    NA+45699  31.960  17.662  11.387
73385ION    NA+45700  37.691  40.217  13.709
73386ION    NA+45701   4.837  25.046   1.312
73387ION    NA+45702  19.173  25.410  13.905
73388ION    NA+45703  23.759  29.219  14.518
73389ION    NA+45704  11.848   5.515   4.897
73390ION    NA+45705   4.159  24.899   3.126
73391ION    NA+45706  26.699  16.833  11.933
73392ION    NA+45707  25.645   1.277   4.884
73393ION    NA+45708  28.248  33.775   2.797
73394ION    NA+45709   2.816  42.745  12.875
73395ION    NA+45710  24.704  29.357   1.808
73396ION    NA+45711  29.748  38.705   2.667
73397ION    NA+45712   2.269  22.594   3.889
73398ION    NA+45713  13.579  44.483  12.539
73399ION    NA+45714  10.522  19.135   3.138
73400ION    NA+45715   1.243  22.473   2.858
73401ION    NA+45716  19.404   6.517  11.134
73402ION    NA+45717  32.603  16.050  12.269
73403ION    NA+45718  25.319  18.501   3.456
73404ION    NA+45719  44.724   2.285   1.221
73405ION    NA+45720  28.107  44.240  11.667
73406ION    NA+45721  15.677  14.161   1.224
73407ION    NA+45722  36.369  37.203   4.458
73408ION    NA+45723  27.869  40.326  11.421
73409ION    NA+45724   0.601  19.686  13.947
73410ION    NA+45725  36.298  40.479  12.203
73411ION    NA+45726  31.412  41.417   4.507
73412ION    NA+45727  14.117   9.833   9.835
73413ION    NA+45728  19.351   1.379  11.778
73414ION    NA+45729   8.783   3.826  11.991
73415ION    NA+45730   0.985  34.005   3.663
73416ION    NA+45731   5.718  12.363   1.179
73417ION    NA+45732  29.915  20.603   0.921
73418ION    NA+45733  12.022  10.188  12.537
73419ION    NA+45734  22.972  19.267   3.747
73420ION    NA+45735  39.939  44.401  13.036
73421ION    NA+45736   5.490   9.444  14.253
73422ION    NA+45737  11.097  33.364   2.700
73423ION    NA+45738  18.206  18.608   3.768
73424ION    NA+45739   2.739   6.775  14.428
73425ION    NA+45740  24.548  38.002   0.607
73426ION    NA+45741  33.658  28.029   5.315
73427ION    NA+45742  15.441  15.480   4.942
73428ION    NA+45743  38.241  19.619   3.236
73429ION    NA+45744  12.370  41.285   0.137
73430ION    NA+45745  37.965  35.455  14.373
73431ION    NA+45746  25.510   9.753   2.992
73432ION    NA+45747  28.159  14.730   3.675
73433ION    NA+45748  33.006  39.997   2.613
73434ION    NA+45749  13.204   3.873  14.604
73435ION    NA+45750  11.185  19.204   5.079
73436ION    NA+45751   3.439   4.373   3.114
73437ION    NA+45752  37.114  27.569   0.671
73438ION    NA+45753  41.982  23.231  11.940
73439ION    NA+45754   7.780   7.856   1.912
73440ION    NA+45755  21.362  34.124  13.500
73441ION    NA+45756  11.721   8.766  14.079
73442ION    NA+45757  28.202  13.140  10.699
73443ION    NA+45758  10.051  26.177   2.744
73444ION    NA+45759   4.691  24.154  12.895
73445ION    NA+45760  42.974   8.222  10.589
73446ION    NA+45761   9.185  35.010  11.923
73447ION    NA+45762  37.928  31.616  12.839
73448ION    NA+45763  39.654   4.345  14.692
73449ION    NA+45764  24.713  33.425   3.857
73450ION    NA+45765   6.907  33.291   2.509
73451ION    NA+45766  15.390  21.562  13.255
73452ION    NA+45767  36.901  26.422  10.789
73453ION    NA+45768  14.087   0.287   1.473
73454ION    NA+45769  28.893  32.693  13.743
73455ION    NA+45770   4.675  10.134  11.222
73456ION    NA+45771  33.260  43.598  12.894
73457ION    NA+45772  10.799   8.242   3.158
73458ION    NA+45773   3.813  13.842   1.262
73459ION    NA+45774  22.744  41.293   0.472
73460ION    NA+45775  28.875  39.788   2.873
73461ION    NA+45776  10.154  23.895  13.530
73462ION    NA+45777  42.512   9.358   5.093
73463ION    NA+45778  25.615  42.081   3.867
73464ION    NA+45779   8.937   6.374   4.845
73465ION    NA+45780   5.353  26.749  13.789
73466ION    NA+45781  32.411  31.128  10.352
73467ION    NA+45782  39.191   7.241  14.935
73468ION    NA+45783   6.122  20.964   2.390
73469ION    NA+45784  43.256  18.387   0.317
73470ION    NA+45785  38.105   7.568   1.721
73471ION    NA+45786  26.415  23.061  13.680
73472ION    NA+45787  26.232  33.298  13.834
73473ION    NA+45788  42.443   6.723  11.861
73474ION    NA+45789  36.798  34.000  12.918
73475ION    NA+45790  39.425  24.009  10.271
73476ION    NA+45791  27.737  43.032  10.799
73477ION    NA+45792  11.277  24.134  14.515
73478ION    NA+45793  33.311  22.776   3.200
73479ION    NA+45794   1.944  20.068  13.849
73480ION    NA+45795  39.083  35.061  14.896
73481ION    NA+45796  20.058  30.516   2.282
73482ION    NA+45797   8.900  38.561   2.287
73483ION    NA+45798  37.230  42.333   1.260
73484ION    NA+45799  39.276  17.430   3.620
73485ION    NA+45800  13.703  30.030  14.488
73486ION    NA+45801  34.432  32.360  14.662
73487ION    NA+45802  27.020  33.200  10.045
73488ION    NA+45803  14.265  22.387   4.453
73489ION    NA+45804  22.184  39.217   4.900
73490ION    NA+45805  14.458  26.470  14.267
73491ION    NA+45806  30.477  42.579  11.012
73492ION    NA+45807  35.540  15.943  14.360
73493ION    NA+45808  15.560  24.328   4.402
73494ION    NA+45809  29.082  17.874  12.061
73495ION    NA+45810  18.897  16.099  12.508
73496ION    NA+45811  20.032   9.978  11.252
73497ION    NA+45812  21.292  11.114   0.440
73498ION    NA+45813  13.413   7.119   0.510
73499ION    NA+45814  39.193  43.881  12.982
73500ION    NA+45815  14.106  27.294  13.524
73501ION    NA+45816  36.058  23.349   1.890
73502ION    NA+45817   2.741   2.014   1.915
73503ION    NA+45818   3.474  30.506  10.772
73504ION    NA+45819   0.616  23.136  11.548
73505ION    NA+45820  34.132  42.148  13.615
73506ION    NA+45821  23.224  39.838  11.719
73507ION    NA+45822  39.709  33.428  12.870
73508ION    NA+45823  17.075  26.944  11.982
73509ION    NA+45824  13.818  16.492  11.553
73510ION    NA+45825  21.848  18.790  13.105
73511ION    NA+45826  44.271  24.055  12.095
73512ION    NA+45827  23.904  36.002   3.183
73513ION    NA+45828   1.594  27.319   0.001
73514ION    NA+45829  34.705  10.261   2.705
73515ION    NA+45830  28.686  29.158  14.568
73516ION    NA+45831  12.992  33.494   2.861
73517ION    NA+45832  22.463   1.882  11.156
73518ION    NA+45833   7.185  22.643   0.005
73519ION    NA+45834  26.187  35.992  12.571
73520ION    NA+45835  35.732  33.544   2.812
73521ION    NA+45836  22.209  24.823   1.842
73522ION    NA+45837  22.466  26.661   0.917
73523ION    NA+45838  24.108  35.294   3.965
73524ION    NA+45839  40.492  39.936   4.686
73525ION    NA+45840  21.808  14.177   3.243
73526ION    NA+45841  38.562  26.852   4.866
73527ION    NA+45842   6.027  38.861   1.733
73528ION    NA+45843   1.620  22.343   4.966
73529ION    NA+45844   0.330   2.829  14.989
73530ION    NA+45845  12.156  20.464   4.143
73531ION    NA+45846  33.933  37.847   3.235
73532ION    NA+45847  27.778  23.771   2.635
73533ION    NA+45848  31.809  16.994   0.942
73534ION    NA+45849   9.612   1.783  12.761
73535ION    NA+45850  17.822  23.670   1.671
73536ION    NA+45851  11.844  38.918  14.091
73537ION    NA+45852  19.015  28.760   2.528
73538ION    NA+45853  26.405   1.310   3.323
73539ION    NA+45854  24.485  25.118  11.426
73540ION    NA+45855  40.499  33.103   1.658
73541ION    NA+45856  24.429  23.782   1.666
73542ION    NA+45857  38.129  19.287   1.933
73543ION    NA+45858  41.502  18.965   1.357
73544ION    NA+45859  40.426  18.200   0.244
73545ION    NA+45860  13.678  21.380   3.953
73546ION    NA+45861   5.113  13.579  13.904
73547ION    NA+45862  32.500  39.886   3.293
73548ION    NA+45863  40.802  25.710  10.685
73549ION    NA+45864   1.816  36.944   4.729
73550ION    NA+45865  15.495  44.610   4.626
73551ION    NA+45866  13.385  13.229   4.593
73552ION    NA+45867  34.852   9.692  10.301
73553ION    NA+45868  23.522  13.721   1.696
73554ION    NA+45869   8.758  44.737  13.731
73555ION    NA+45870  34.238  36.266   0.837
73556ION    NA+45871   3.663  13.762  14.893
73557ION    NA+45872  36.642   6.886   1.377
73558ION    NA+45873  22.202  23.478   1.637
73559ION    NA+45874   2.859  29.598  11.971
73560ION    NA+45875   7.313  14.794   4.114
73561ION    NA+45876  32.495  14.102  11.948
73562ION    NA+45877  35.679  42.259   4.643
73563ION    NA+45878  17.751   9.238   1.476
73564ION    NA+45879  20.277  37.390   1.819
73565ION    NA+45880  42.550  35.747   2.874
73566ION    NA+45881  19.325   2.652   4.740
73567ION    NA+45882  13.201  44.192  11.091
73568ION    NA+45883  15.640   5.459   2.419
73569ION    NA+45884  21.684  38.009   0.068
73570ION    NA+45885  25.139  20.201   3.777
73571ION    NA+45886   1.239  23.342   3.064
73572ION    NA+45887  25.686  19.798  12.406
73573ION    NA+45888  11.488   5.291   3.992
73574ION    NA+45889  38.373   2.146   2.929
73575ION    NA+45890  43.823  13.715  10.931
73576ION    NA+45891  15.717  43.836   1.555
73577ION    NA+45892  24.435  28.051   1.738
73578ION    NA+45893  24.411  31.835  11.087
73579ION    NA+45894  15.350   0.852   2.392
73580ION    NA+45895   4.642  23.350  13.320
73581ION    NA+45896  37.585  30.507   2.413
73582ION    NA+45897  23.823  18.588  10.251
73583ION    NA+45898   5.961  25.400  10.948
73584ION    NA+45899  39.262   4.690   2.663
73585ION    NA+45900  37.928  16.227  14.717
73586ION    NA+45901  32.503   2.302   2.388
73587ION    NA+45902   1.841  43.050   0.423
73588ION    NA+45903  17.792  16.288  11.107
73589ION    NA+45904  33.108  24.945   1.400
73590ION    NA+45905  21.738   2.970  11.246
73591ION    NA+45906  17.844  33.777  13.318
73592ION    NA+45907  23.399  27.869   4.031
73593ION    NA+45908  29.996  42.915  12.843
73594ION    NA+45909  25.227   4.222  12.111
73595ION    NA+45910  16.823   3.997  11.251
73596ION    NA+45911  43.336   0.798  12.528
73597ION    NA+45912  27.698  21.299   3.672
73598ION    NA+45913   3.033  44.940  12.467
73599ION    NA+45914   3.413  22.655   3.134
73600ION    NA+45915   7.763  39.783  13.707
73601ION    NA+45916  22.602  33.312   3.755
73602ION    NA+45917  20.976  15.537  11.613
73603ION    NA+45918  27.949  25.133  11.302
73604ION    NA+45919  11.455  30.517   1.137
73605ION    NA+45920  10.858  26.955   3.780
73606ION    NA+45921   5.361  29.920   0.918
73607ION    NA+45922  33.371  29.996  10.111
73608ION    NA+45923   8.305   6.102   0.395
73609ION    NA+45924  36.756  30.854   3.939
73610ION    NA+45925  35.691  26.988  10.752
73611ION    NA+45926  19.047  21.284  14.427
73612ION    NA+45927  27.775  24.644   0.037
73613ION    NA+45928  10.860   1.198   1.763
73614ION    NA+45929  21.448   3.117  13.488
73615ION    NA+45930  20.674   9.827  14.554
73616ION    NA+45931   8.445  37.870   3.232
73617ION    NA+45932  10.681  38.005   2.218
73618ION    NA+45933  14.824  10.655  13.585
73619ION    NA+45934  15.546  41.322  11.297
73620ION    NA+45935  26.150   0.540   9.839
73621ION    NA+45936   6.903  11.371   2.231
73622ION    NA+45937  38.238  39.064   0.784
73623ION    NA+45938  29.605  11.713   2.245
73624ION    NA+45939  33.869  17.783  13.841
73625ION    NA+45940   3.175  18.575   1.964
73626ION    NA+45941  29.431  29.654  13.029
73627ION    NA+45942   5.018  10.347   0.565
73628ION    NA+45943  44.262  31.018   4.693
73629ION    NA+45944  11.378  20.015   0.890
73630ION    NA+45945  37.165   4.615   3.364
73631ION    NA+45946  16.795  28.976   2.477
73632ION    NA+45947  31.432  40.721  10.424
73633ION    NA+45948  40.894  28.451  10.736
73634ION    NA+45949  24.202   3.190  11.693
73635ION    NA+45950  21.392  33.601   3.981
73636ION    NA+45951   7.194  38.421   3.628
73637ION    NA+45952  25.960  39.964  13.470
73638ION    NA+45953  19.506  35.542   3.595
73639ION    NA+45954  25.414   6.615  11.386
73640ION    NA+45955  36.570  10.331  11.621
73641ION    NA+45956  37.824  25.432  13.612
73642ION    NA+45957  22.976  29.219  10.731
73643ION    NA+45958  40.004  42.344   2.181
73644ION    NA+45959  41.811   5.796  13.121
73645ION    NA+45960  14.208   1.678  13.856
73646ION    NA+45961  23.104  14.816  11.578
73647ION    NA+45962   9.680  15.743   3.177
73648ION    NA+45963  30.494  18.018   2.104
73649ION    NA+45964  26.237  26.604   2.783
73650ION    NA+45965  22.488  13.340   2.807
73651ION    NA+45966  34.109   4.863   2.723
73652ION    NA+45967  30.177   6.553  11.981
73653ION    NA+45968  10.317  14.458  13.459
73654ION    NA+45969  33.330  27.653  12.735
73655ION    NA+45970   2.784  32.373  12.935
73656ION    NA+45971  35.091  29.696  13.266
73657ION    NA+45972   0.669  14.716  11.825
73658ION    NA+45973  28.203   5.438   1.719
73659ION    NA+45974  29.033  38.092   1.372
73660ION    NA+45975  18.218  30.436  14.033
73661ION    NA+45976  23.560  35.680   4.564
73662ION    NA+45977  29.904   4.193   4.624
73663ION    NA+45978  40.568  24.309   3.626
73664ION    NA+45979   9.787  21.121   2.608
73665ION    NA+45980   5.402  22.527   0.301
73666ION    NA+45981  43.449  14.907   4.194
73667ION    NA+45982  38.347   9.475   1.731
73668ION    NA+45983   5.148   9.374   4.456
73669ION    NA+45984  36.815  43.429  12.633
73670ION    NA+45985  25.770  26.902   4.154
73671ION    NA+45986  35.730  30.894   2.930
73672ION    NA+45987   5.547  40.053   1.269
73673ION    NA+45988   4.949  26.084   3.236
73674ION    NA+45989  39.084   8.442   3.249
73675ION    NA+45990   0.955  10.258   0.766
73676ION    NA+45991  42.443  19.630   0.028
73677ION    NA+45992  38.816  23.719   2.999
73678ION    NA+45993   7.320  33.140   0.334
73679ION    NA+45994   6.931  10.729   3.597
73680ION    NA+45995  44.180  23.851   2.810
73681ION    NA+45996   2.362  22.428   2.660
73682ION    NA+45997  30.986  21.262  13.352
73683ION    NA+45998   8.839  11.628  11.589
73684ION    NA+45999  36.962  20.029  11.712
73685ION    NA+46000  37.297   1.258   0.913
73686ION    NA+46001  24.915   1.805  13.530
73687ION    NA+46002  31.394   1.774   1.244
73688ION    NA+46003   1.064   0.823  12.455
73689ION    NA+46004   8.596  40.300   0.861
73690ION    NA+46005  28.940   6.607  14.671
73691ION    NA+46006   8.400  16.177  14.088
73692ION    NA+46007  43.459  20.758  11.354
73693ION    NA+46008  22.222  33.122  14.740
73694ION    NA+46009   5.426  19.726   2.712
73695ION    NA+46010  13.488  20.605   3.349
73696ION    NA+46011  18.579   5.425  12.043
73697ION    NA+46012  29.586  11.101  13.187
73698ION    NA+46013  12.543  27.929  12.756
73699ION    NA+46014   1.692   4.406  11.217
73700ION    NA+46015  31.873  41.420   3.089
73701ION    NA+46016  32.469  41.555   1.710
73702ION    NA+46017  25.947  25.122   0.803
73703ION    NA+46018   2.305  19.595   0.676
73704ION    NA+46019  37.625  43.290  11.470
73705ION    NA+46020  43.605  40.768   0.274
73706ION    NA+46021  13.244  37.795   3.773
73707ION    NA+46022  24.956  21.365   2.697
73708ION    NA+46023  39.430   0.382  12.939
73709ION    NA+46024  15.931  27.986  14.916
73710ION    NA+46025  34.382   2.166   2.226
73711ION    NA+46026  34.802  42.899   3.491
73712ION    NA+46027   6.460  24.736  10.795
73713ION    NA+46028  13.602   9.479   3.950
73714ION    NA+46029  22.869  16.646   1.413
73715ION    NA+46030   8.106  42.761   2.562
73716ION    NA+46031  10.173  39.416   0.478
73717ION    NA+46032  40.773  36.365  12.640
73718ION    NA+46033   3.244  34.076  10.659
73719ION    NA+46034  20.594   8.870  14.227
73720ION    NA+46035  39.402  17.014  12.866
73721ION    NA+46036  17.218   1.075   4.060
73722ION    NA+46037  19.510  28.142   4.434
73723ION    NA+46038  23.625  15.994  11.139
73724ION    NA+46039  33.767  42.809  12.341
73725ION    NA+46040  22.993  27.473  11.843
73726ION    NA+46041  33.476  38.837   4.505
73727ION    NA+46042  42.546  22.733  11.198
73728ION    NA+46043  39.474  22.587  10.320
73729ION    NA+46044  23.057  35.572  14.080
73730ION    NA+46045  17.509  41.091   5.533
73731ION    NA+46046  40.469  30.422   1.868
73732ION    NA+46047  13.496  28.322  13.032
73733ION    NA+46048  15.080   8.667  11.451
73734ION    NA+46049  25.056   6.240   5.123
73735ION    NA+46050   7.438   2.675  11.940
73736ION    NA+46051   5.077  21.717  11.130
73737ION    NA+46052  26.318  26.505   1.756
73738ION    NA+46053  19.177  30.547   2.754
73739ION    NA+46054  35.803  17.085   4.318
73740ION    NA+46055  19.276  31.534  12.399
73741ION    NA+46056  41.718  25.350  10.865
73742ION    NA+46057   2.954  33.535   4.383
73743ION    NA+46058  35.596  26.406  13.009
73744ION    NA+46059  31.605  21.167   1.778
73745ION    NA+46060  38.040  10.818   4.021
73746ION    NA+46061  35.625  39.362  14.343
73747ION    NA+46062  26.088  44.539  11.921
73748ION    NA+46063  18.155   1.402   3.923
73749ION    NA+46064  20.667  24.392  14.003
73750ION    NA+46065  29.491   8.487   2.492
73751ION    NA+46066  16.744   5.758  13.437
73752ION    NA+46067  33.222  26.631  13.034
73753ION    NA+46068  27.722   8.904   0.020
73754ION    NA+46069   3.839  42.520  14.492
73755ION    NA+46070  11.342  22.246  10.927
73756ION    NA+46071  21.614  42.573  12.786
73757ION    NA+46072  23.341  32.175  10.770
73758ION    NA+46073  10.108  38.185   3.153
73759ION    NA+46074  34.179  40.318  11.018
73760ION    NA+46075  26.146  38.454   0.845
73761ION    NA+46076  20.490  18.671   3.935
73762ION    NA+46077  22.232   3.694  13.258
73763ION    NA+46078   7.934  24.996  14.917
73764ION    NA+46079  34.281  14.590  12.412
73765ION    NA+46080  21.273  37.420   1.722
73766ION    NA+46081  13.401   2.974  12.311
73767ION    NA+46082   6.630  32.360   2.271
73768ION    NA+46083  36.391  17.455  12.027
73769ION    NA+46084  33.463   7.688   2.377
73770ION    NA+46085  14.591  35.921  13.891
73771ION    NA+46086  31.035  31.904   0.046
73772ION    NA+46087  21.354   1.535   0.412
73773ION    NA+46088   1.951  16.200   2.305
73774ION    NA+46089  39.663  16.456  12.078
73775ION    NA+46090   4.192  24.689   4.104
73776ION    NA+46091  16.108  22.198  13.628
73777ION    NA+46092  37.998  32.513   4.579
73778ION    NA+46093  23.530   4.868  13.432
73779ION    NA+46094  37.582  19.276  11.322
73780ION    NA+46095   9.426  40.875   2.382
73781ION    NA+46096  19.254  24.834  11.286
73782ION    NA+46097  26.780  29.805  14.992
73783ION    NA+46098  30.046  32.327   0.022
73784ION    NA+46099  19.428  23.080  12.520
73785ION    NA+46100  34.392   5.685   1.705
73786ION    NA+46101  10.110  11.298   9.488
73787ION    NA+46102  16.244  22.791   4.388
73788ION    NA+46103  23.184   0.726   3.588
73789ION    NA+46104  19.960  42.342   3.893
73790ION    NA+46105  22.741  43.542   0.460
73791ION    NA+46106  27.575   1.101   3.178
73792ION    NA+46107  37.004   9.035  14.333
73793ION    NA+46108  34.974  21.534   1.988
73794ION    NA+46109  31.709  34.331  10.682
73795ION    NA+46110  20.248  21.338   0.543
73796ION    NA+46111   7.690  10.428   1.634
73797ION    NA+46112   9.791   7.382  13.070
73798ION    NA+46113  26.245  35.647  14.885
73799ION    NA+46114  14.280   7.614   5.088
73800ION    NA+46115   1.701  35.121   3.200
73801ION    NA+46116  30.924   7.955   2.808
73802ION    NA+46117  34.148   7.287   0.786
73803ION    NA+46118  36.803  15.512  12.457
73804ION    NA+46119  39.362  29.869   4.470
73805ION    NA+46120  32.662  13.442   2.347
73806ION    NA+46121  19.056  13.431   0.518
73807ION    NA+46122  35.722  21.220   0.946
73808ION    NA+46123  15.827  36.012   1.199
73809ION    NA+46124  44.990  39.482  12.081
73810ION    NA+46125  43.949  17.802  14.092
73811ION    NA+46126   1.807  33.819   4.647
73812ION    NA+46127   9.318  19.650   0.326
73813ION    NA+46128  26.751  30.733  11.070
73814ION    NA+46129  33.851  19.635   3.329
73815ION    NA+46130  42.032  37.077   4.877
73816ION    NA+46131  15.726  29.108  14.085
73817ION    NA+46132  18.386  29.642  11.599
73818ION    NA+46133   1.966  29.011   3.631
73819ION    NA+46134  28.035  14.363  13.105
73820ION    NA+46135  28.654  13.158   4.114
73821ION    NA+46136   8.857  26.018   3.612
73822ION    NA+46137   8.269  10.898   2.681
73823ION    NA+46138   3.504  38.707   2.946
73824ION    NA+46139   8.652  17.168  12.652
73825ION    NA+46140   9.797  37.362   2.678
73826ION    NA+46141   9.322  26.265   4.491
73827ION    NA+46142  38.752  18.411   0.958
73828ION    NA+46143  17.304  15.143  13.421
73829ION    NA+46144  42.883   4.252   0.411
73830ION    NA+46145  25.341  23.498   1.963
73831ION    NA+46146  25.428  13.322  14.952
73832ION    NA+46147  31.550  42.752  10.726
73833ION    NA+46148  40.474   7.876   1.276
73834ION    NA+46149  26.411  41.653  13.564
73835ION    NA+46150  11.213  28.048   1.333
73836ION    NA+46151  26.425  17.725  13.482
73837ION    NA+46152  36.221  27.143  13.332
73838ION    NA+46153  28.112  15.857  13.661
73839ION    NA+46154  37.079  32.756  14.851
73840ION    NA+46155   2.201  13.732   2.239
73841ION    NA+46156  38.162  13.767  10.533
73842ION    NA+46157  16.062  33.356   0.489
73843ION    NA+46158  35.018  27.131   3.772
73844ION    NA+46159  28.438  25.868   0.083
73845ION    NA+46160   6.717  30.668   1.900
73846ION    NA+46161  10.775  39.523   3.026
73847ION    NA+46162  28.980  38.331   3.264
73848ION    NA+46163  16.742  42.585  13.723
73849ION    NA+46164  33.593  14.397  13.894
73850ION    NA+46165  35.213  22.273  11.205
73851ION    NA+46166   4.349  20.395   1.690
73852ION    NA+46167  12.442  34.619  12.113
73853ION    NA+46168   3.868  12.272   3.834
73854ION    NA+46169  18.252   5.085   1.884
73855ION    NA+46170  14.315  34.618   1.841
73856ION    NA+46171  34.840  42.399   2.371
73857ION    NA+46172  21.986  11.399   2.793
73858ION    NA+46173  21.990  15.630   0.447
73859ION    NA+46174   3.829  39.395  13.697
73860ION    NA+46175  17.157  20.227  10.422
73861ION    NA+46176  39.462   3.042  10.782
73862ION    NA+46177  30.621  39.321  12.058
73863ION    NA+46178  32.483  11.037  14.593
73864ION    NA+46179  22.578  19.038  12.084
73865ION    NA+46180  24.011   6.785   0.057
73866ION    NA+46181  30.776   3.490  14.451
73867ION    NA+46182   2.697   0.525   0.394
73868ION    NA+46183  32.030  22.794   1.325
73869ION    NA+46184  35.991  25.837   0.635
73870ION    NA+46185   0.065  24.115   0.761
73871ION    NA+46186  27.026  15.250  14.928
73872ION    NA+46187  21.319  33.229  13.340
73873ION    NA+46188   6.436  37.126   4.629
73874ION    NA+46189  37.797   2.856  14.075
73875ION    NA+46190  32.160  29.959   4.690
73876ION    NA+46191  21.572  15.455  13.079
73877ION    NA+46192  31.559  31.195  14.211
73878ION    NA+46193  12.774  15.543   0.351
73879ION    NA+46194  35.939  26.893  12.084
73880ION    NA+46195   2.793   2.471  12.410
73881ION    NA+46196  35.471  24.946   3.106
73882ION    NA+46197  41.619  29.661   3.914
73883ION    NA+46198  23.905  22.331   2.330
73884ION    NA+46199  42.187  37.624  14.398
73885ION    NA+46200  11.671  13.225   0.956
73886ION    NA+46201  15.625  30.847  11.319
73887ION    NA+46202  15.722  32.419  12.526
73888ION    NA+46203   6.363  34.996  10.675
73889ION    NA+46204  16.712   4.530   1.950
73890ION    NA+46205  19.569  17.988   3.330
73891ION    NA+46206  30.703  16.196   4.056
73892ION    NA+46207   2.217  10.329  11.242
73893ION    NA+46208  38.433  39.840  11.901
73894ION    NA+46209   5.605  15.058  12.841
73895ION    NA+46210  12.569  40.518   4.909
73896ION    NA+46211  33.601  25.237  10.585
73897ION    NA+46212  17.855  28.018  12.092
73898ION    NA+46213  13.314   2.519   2.259
73899ION    NA+46214   8.826  35.009   0.789
73900ION    NA+46215   8.577   9.651  10.510
73901ION    NA+46216  41.577  24.199  14.769
73902ION    NA+46217  12.576   8.661  12.071
73903ION    NA+46218  34.862  20.655   1.248
73904ION    NA+46219  19.723  16.237   0.020
73905ION    NA+46220   4.285  28.020  14.206
73906ION    NA+46221  21.727  25.353   3.891
73907ION    NA+46222  25.886  15.596  10.745
73908ION    NA+46223  17.553  29.798   0.415
73909ION    NA+46224  39.000  33.874   0.021
73910ION    NA+46225  23.877   4.907   9.917
73911ION    NA+46226  42.543   5.281   3.899
73912ION    NA+46227  22.857  37.699   4.215
73913ION    NA+46228  15.350  18.380  13.963
73914ION    NA+46229  24.770  32.596   4.107
73915ION    NA+46230  12.562   7.497  11.266
73916ION    NA+46231  21.231  41.290  10.864
73917ION    NA+46232  14.924  12.934   0.858
73918ION    NA+46233   5.282  22.161   3.400
73919ION    NA+46234  29.485  37.382  14.010
73920ION    NA+46235   1.002  27.985   2.615
73921ION    NA+46236   1.802  19.770   4.119
73922ION    NA+46237  39.393  25.605   0.030
73923ION    NA+46238   7.903  39.702   3.729
73924ION    NA+46239  29.367  34.481   0.624
73925ION    NA+46240  32.112   7.511   2.405
73926ION    NA+46241   9.669  17.266   1.330
73927ION    NA+46242   8.313  20.253  12.277
73928ION    NA+46243  35.417  23.473   3.188
73929ION    NA+46244   2.029  15.286  14.494
73930ION    NA+46245  27.215  26.769   1.386
73931ION    NA+46246   0.410  26.001  11.952
73932ION    NA+46247  11.130  36.027   4.116
73933ION    NA+46248  12.063  15.002  13.916
73934ION    NA+46249  27.543  17.144   0.853
73935ION    NA+46250  15.066  19.131   2.962
73936ION    NA+46251  23.156  37.562   1.154
73937ION    NA+46252  37.862   4.637   3.940
73938ION    NA+46253  13.169   8.281  13.770
73939ION    NA+46254   1.580  28.321  13.629
73940ION    NA+46255  13.156  14.383   9.846
73941ION    NA+46256  34.566   8.711  14.535
73942ION    NA+46257  13.112  40.932  11.282
73943ION    NA+46258   2.060  20.505  11.759
73944ION    NA+46259  21.712  43.836   1.158
73945ION    NA+46260  38.373  27.852  10.718
73946ION    NA+46261   9.582  39.010  11.161
73947ION    NA+46262   5.971  22.153   2.152
73948ION    NA+46263  18.860  19.927   3.473
73949ION    NA+46264   1.522   0.114   3.360
73950ION    NA+46265  12.002   5.958   4.014
73951ION    NA+46266  21.812  35.810  11.941
73952ION    NA+46267  25.648  20.973  12.917
73953ION    NA+46268  20.255  25.609  14.611
73954ION    NA+46269  24.038  38.196  13.048
73955ION    NA+46270   6.240   0.703  10.782
73956ION    NA+46271   2.519  38.220   1.909
73957ION    NA+46272  34.482  41.904   4.682
73958ION    NA+46273   7.044  34.796   3.436
73959ION    NA+46274  32.402  34.972  11.763
73960ION    NA+46275   5.962  26.528  11.205
73961ION    NA+46276  32.600  34.768  10.804
73962ION    NA+46277  27.627  32.163  13.512
73963ION    NA+46278  38.622  16.599   3.351
73964ION    NA+46279  13.631  18.591   4.158
73965ION    NA+46280  15.681  31.594   1.038
73966ION    NA+46281  34.011   3.440  14.771
73967ION    NA+46282  22.157   4.318  10.695
73968ION    NA+46283  20.763  17.661   2.337
73969ION    NA+46284  11.307  33.850  11.549
73970ION    NA+46285  20.769  11.272  10.804
73971ION    NA+46286   9.011  21.239   2.141
73972ION    NA+46287  21.658  19.743  12.594
73973ION    NA+46288  26.173  21.944  14.987
73974ION    NA+46289  26.947  17.883  11.929
73975ION    NA+46290  16.074  30.673   0.494
73976ION    NA+46291  41.946   0.758  13.778
73977ION    NA+46292  41.365  25.402   4.569
73978ION    NA+46293  23.410   2.709  12.069
73979ION    NA+46294  10.615   5.936   0.842
73980ION    NA+46295   4.241  43.257   1.129
73981ION    NA+46296  17.788  41.307   0.582
73982ION    NA+46297  37.496  23.536  11.280
73983ION    NA+46298  22.892  33.426   1.733
73984ION    NA+46299  34.282   8.249   2.494
73985ION    NA+46300   9.309  25.518   0.610
73986ION    NA+46301  36.017  20.726  11.544
73987ION    NA+46302  23.407   9.498   1.556
73988ION    NA+46303  12.744  39.071   4.411
73989ION    NA+46304  19.003  40.454   4.172
73990ION    NA+46305  16.542  41.349   3.502
73991ION    NA+46306  36.156  42.792  13.307
73992ION    NA+46307   8.271  29.413   2.811
73993ION    NA+46308  28.362  38.540  13.893
73994ION    NA+46309   1.505   6.388   2.779
73995ION    NA+46310  35.048   9.652  12.550
73996ION    NA+46311  11.027  39.196  13.907
73997ION    NA+46312   8.130  34.639  12.535
73998ION    NA+46313  35.753  29.518   4.468
73999ION    NA+46314  23.786  31.411   2.614
74000ION    NA+46315  37.976   3.520  11.379
74001ION    NA+46316  18.269  31.035   4.265
74002ION    NA+46317   5.697  41.384  10.610
74003ION    NA+46318   0.529   2.533   3.999
74004ION    NA+46319  25.441  32.327  14.816
74005ION    NA+46320  19.096   3.024  14.825
74006ION    NA+46321  21.155   4.422   3.678
74007ION    NA+46322  21.763   9.083  13.446
74008ION    NA+46323  13.904  22.999   0.687
74009ION    NA+46324  17.832   3.232   1.729
74010ION    NA+46325  18.974  15.159   2.221
74011ION    NA+46326   3.471  27.025   0.948
74012ION    NA+46327   8.760  24.899   3.495
74013ION    NA+46328  44.840   6.921  14.957
74014ION    NA+46329  27.884  27.749   4.519
74015ION    NA+46330  32.483  29.599   0.162
74016ION    NA+46331   1.789  24.210   0.440
74017ION    NA+46332   1.402   0.745   0.390
74018ION    NA+46333   2.512  33.040   1.441
74019ION    NA+46334  11.074  25.504   0.391
74020ION    NA+46335  32.855  19.687   4.788
74021ION    NA+46336  26.735  21.663   2.710
74022ION    NA+46337  23.024  29.819   3.926
74023ION    NA+46338  14.817  26.432  10.759
74024ION    NA+46339   7.137  37.513  14.956
74025ION    NA+46340  16.352   2.478  12.423
74026ION    NA+46341  25.678   4.297   1.435
74027ION    NA+46342  14.916  36.474   3.050
74028ION    NA+46343   8.106  41.503   3.779
74029ION    NA+46344  42.920  36.657   0.174
74030ION    NA+46345  26.035  15.381   0.915
74031ION    NA+46346  15.267  12.567  12.417
74032ION    NA+46347  14.804  19.084   0.370
74033ION    NA+46348   5.233   1.367   3.208
74034ION    NA+46349  16.032  30.261   5.436
74035ION    NA+46350  20.777  38.235  13.993
74036ION    NA+46351  11.753  42.608   4.175
74037ION    NA+46352   4.782  30.759  14.210
74038ION    NA+46353   5.717  31.837  13.447
74039ION    NA+46354  24.505   9.766   4.656
74040ION    NA+46355  13.634   8.493  11.091
74041ION    NA+46356  28.117   4.397   0.889
74042ION    NA+46357   3.857  30.337   0.750
74043ION    NA+46358   3.460  31.245   0.888
74044ION    NA+46359  42.560   5.259   2.601
74045ION    NA+46360   0.049  37.431  12.068
74046ION    NA+46361  37.860  34.764  13.325
74047ION    NA+46362   8.908  39.774  10.768
74048ION    NA+46363  19.466  35.293  11.986
74049ION    NA+46364  44.152  19.059   1.018
74050ION    NA+46365  37.641  20.464   3.532
74051ION    NA+46366   0.719   8.807  14.145
74052ION    NA+46367   3.688  23.750  12.007
74053ION    NA+46368  15.384  26.701  14.565
74054ION    NA+46369  26.329   8.426   5.213
74055ION    NA+46370  38.124  35.892  11.936
74056ION    NA+46371  42.902  39.658   1.396
74057ION    NA+46372   4.813  23.380   2.803
74058ION    NA+46373  28.513  39.296  12.463
74059ION    NA+46374  20.918  32.400  12.367
74060ION    NA+46375  40.719   8.685  12.123
74061ION    NA+46376   7.874   2.949   1.721
74062ION    NA+46377  24.663  17.641   4.009
74063ION    NA+46378  33.097  39.424  13.541
74064ION    NA+46379  40.536  15.540   1.302
74065ION    NA+46380  21.684   2.894  14.929
74066ION    NA+46381  29.348  16.594  12.500
74067ION    NA+46382  32.577   8.340   5.128
74068ION    NA+46383  36.812   1.282  11.246
74069ION    NA+46384  24.772  27.798   2.797
74070ION    NA+46385  28.202  34.951  13.414
74071ION    NA+46386   9.247  15.683  14.427
74072ION    NA+46387  28.957  22.101  13.893
74073ION    NA+46388  29.889   4.261   2.366
74074ION    NA+46389  17.930   1.616  11.732
74075ION    NA+46390  13.534  26.042   4.811
74076ION    NA+46391  18.834  15.095   3.209
74077ION    NA+46392  37.086  11.676  14.341
74078ION    NA+46393  32.990  32.634  14.293
74079ION    NA+46394   3.173   1.216   2.003
74080ION    NA+46395  36.801  16.385  12.564
74081ION    NA+46396  38.762  14.929   1.055
74082ION    NA+46397  14.239  25.246   3.951
74083ION    NA+46398  19.213  30.125  10.746
74084ION    NA+46399   6.324   7.727  14.570
74085ION    NA+46400  41.884   8.963  13.574
74086ION    NA+46401  30.518  11.102  12.824
74087ION    NA+46402  28.336  11.252  12.886
74088ION    NA+46403   1.268   1.079   3.291
74089ION    NA+46404  35.794  31.774   4.498
74090ION    NA+46405  36.105   0.230  12.056
74091ION    NA+46406  15.661  31.746  14.497
74092ION    NA+46407  26.024  40.141   2.601
74093ION    NA+46408  42.868  35.052   0.400
74094ION    NA+46409  22.238  15.501  13.913
74095ION    NA+46410  27.930   3.905   2.646
74096ION    NA+46411  22.705  37.329  12.627
74097ION    NA+46412   9.850   2.733   1.562
74098ION    NA+46413   1.037  20.159   4.104
74099ION    NA+46414  18.215  28.638  14.341
74100ION    NA+46415   0.500  33.719   0.949
74101ION    NA+46416  29.676  25.074  14.786
74102ION    NA+46417  19.564  40.822   3.402
74103ION    NA+46418  27.303  24.162  14.437
74104ION    NA+46419  14.656  37.013   1.835
74105ION    NA+46420  34.765   2.960  14.946
74106ION    NA+46421  28.114  33.601  14.554
74107ION    NA+46422  40.085  13.550   1.610
74108ION    NA+46423  28.054  17.591   5.072
74109ION    NA+46424  19.598  10.777  14.020
74110ION    NA+46425  19.260  42.529   4.600
74111ION    NA+46426  15.462  44.172  12.096
74112ION    NA+46427  33.593  43.066   2.428
74113ION    NA+46428  22.236   0.472  10.768
74114ION    NA+46429  24.954  27.341   3.777
74115ION    NA+46430  24.878  10.713  13.686
74116ION    NA+46431  33.178   6.827   3.590
74117ION    NA+46432  19.217   2.182   0.434
74118ION    NA+46433   6.452  17.380   3.075
74119ION    NA+46434  27.176  39.222   0.187
74120ION    NA+46435  40.403  44.727   2.715
74121ION    NA+46436  18.514  43.813   1.282
74122ION    NA+46437  13.539  39.352  11.951
74123ION    NA+46438  38.114  44.834   1.839
74124ION    NA+46439   6.144  34.446  13.861
74125ION    NA+46440  35.615  27.229  14.123
74126ION    NA+46441  41.537  28.527  12.057
74127ION    NA+46442   9.865  14.921   3.718
74128ION    NA+46443  12.331  16.878  14.891
74129ION    NA+46444   6.779  23.976  11.864
74130ION    NA+46445  39.670  17.986   0.863
74131ION    NA+46446  23.818   0.417   4.167
74132ION    NA+46447  31.277  30.938   0.136
74133ION    NA+46448  42.404  18.218  12.406
74134ION    NA+46449  23.433   3.668   2.333
74135ION    NA+46450   0.568  41.659   0.213
74136ION    NA+46451  28.842   9.772  10.346
74137ION    NA+46452   9.289  40.808  12.859
74138ION    NA+46453  34.978   5.691   0.881
74139ION    NA+46454   9.243   6.238  14.362
74140ION    NA+46455  19.341  30.211   9.449
74141ION    NA+46456  32.829  40.697  10.853
74142ION    NA+46457  31.332   8.169   4.546
74143ION    NA+46458  26.179  40.779   4.170
74144ION    NA+46459  13.004   8.965   4.825
74145ION    NA+46460   1.980  42.431  11.334
74146ION    NA+46461  19.748  36.012  12.620
74147ION    NA+46462   6.494  26.892  11.789
74148ION    NA+46463  13.010  35.197  10.750
74149ION    NA+46464  43.695  26.928  14.746
74150ION    NA+46465  40.134  41.273  13.691
74151ION    NA+46466  26.767   1.067  13.531
74152ION    NA+46467  17.051  23.826   2.289
74153ION    NA+46468  36.776  27.318  10.746
74154ION    NA+46469  43.294  18.543   1.791
74155ION    NA+46470  17.284  29.253  13.482
74156ION    NA+46471   5.777  10.040   0.991
74157ION    NA+46472  29.535  31.421  14.946
74158ION    NA+46473  20.864  32.761  13.873
74159ION    NA+46474  23.608  20.756   3.744
74160ION    NA+46475  28.724  30.346   1.011
74161ION    NA+46476  12.506  42.215   4.704
74162ION    NA+46477   2.192  16.318  14.527
74163ION    NA+46478   9.402  13.891  14.772
74164ION    NA+46479  37.435  17.354   3.152
74165ION    NA+46480  43.647  39.938   2.357
74166ION    NA+46481  22.529  11.186  12.584
74167ION    NA+46482   2.440  34.914  10.966
74168ION    NA+46483  25.579  32.404  12.196
74169ION    NA+46484   8.331  23.193  13.860
74170ION    NA+46485  36.846   6.725   4.157
74171ION    NA+46486   6.907  43.399   1.901
74172ION    NA+46487  37.572  42.954   2.205
74173ION    NA+46488   8.651   0.159   2.859
74174ION    NA+46489  12.528   1.636   1.742
74175ION    NA+46490  42.295  40.914   2.124
74176ION    NA+46491  29.304  18.068   3.776
74177ION    NA+46492  34.747  41.688  11.801
74178ION    NA+46493  19.909  19.917  11.180
74179ION    NA+46494  42.821  22.285   1.123
74180ION    NA+46495  15.143  30.342  10.591
74181ION    NA+46496   7.441  25.486  14.198
74182ION    NA+46497   4.959  42.928   2.415
74183ION    NA+46498   1.847  11.652   1.678
74184ION    NA+46499   1.525   0.426  14.079
74185ION    NA+46500  27.585  11.064   4.742
74186ION    NA+46501   0.135  20.958   1.346
74187ION    NA+46502   5.907   6.322  14.060
74188ION    NA+46503  13.006  26.507  14.993
74189ION    NA+46504   7.904   7.801   4.376
74190ION    NA+46505  22.574  14.317   2.614
74191ION    NA+46506  26.834   0.803   2.576
74192ION    NA+46507   9.857  10.529   2.365
74193ION    NA+46508  38.631  31.069  12.165
74194ION    NA+46509  23.351   9.361   2.545
74195ION    NA+46510   4.402   5.802   0.049
74196ION    NA+46511   8.575   2.146  12.470
74197ION    NA+46512  21.187  29.931  12.897
74198ION    NA+46513  27.619  44.502  12.595
74199ION    NA+46514  37.357  37.827   0.311
74200ION    NA+46515  14.348  17.962   4.460
74201ION    NA+46516  29.350  37.283  11.853
74202ION    NA+46517  11.643  33.379  14.496
74203ION    NA+46518   1.702  24.196  12.488
74204ION    NA+46519  36.355  40.927   1.430
74205ION    NA+46520  38.352   8.089   3.651
74206ION    NA+46521  18.176   0.751  11.839
74207ION    NA+46522  40.257  23.135   2.253
74208ION    NA+46523  35.153  35.904  14.725
74209ION    NA+46524  11.149   6.157   2.560
74210ION    NA+46525  29.161  24.086   1.628
74211ION    NA+46526  36.823  31.451   0.231
74212ION    NA+46527   7.164  22.929   2.816
74213ION    NA+46528  16.870  16.261  13.835
74214ION    NA+46529  38.704   4.868  10.610
74215ION    NA+46530  26.258   1.358   0.848
74216ION    NA+46531  26.121  21.609   1.906
74217ION    NA+46532  33.317  26.289  14.635
74218ION    NA+46533  42.200  38.792  11.557
74219ION    NA+46534  18.675  26.247  10.636
74220ION    NA+46535  12.361   5.559  12.892
74221ION    NA+46536  33.567   5.223  14.538
74222ION    NA+46537  14.750   3.772  14.355
74223ION    NA+46538  28.585  31.232   0.422
74224ION    NA+46539   7.234  13.782  12.522
74225ION    NA+46540  26.853  41.469   5.147
74226ION    NA+46541  40.159  30.219  14.998
74227ION    NA+46542  31.186  34.212   2.399
74228ION    NA+46543  28.694  15.556  11.232
74229ION    NA+46544  32.499   4.351  10.989
74230ION    NA+46545  38.739  25.892   4.526
74231ION    NA+46546   2.334   4.609   3.807
74232ION    NA+46547   8.852  32.059   4.692
74233ION    NA+46548  42.482  39.068  14.659
74234ION    NA+46549  25.912  29.789  12.179
74235ION    NA+46550   1.370  32.709  11.242
74236ION    NA+46551  21.958  29.175   2.166
74237ION    NA+46552   6.426   1.778  14.515
74238ION    NA+46553  40.821  36.534   3.511
74239ION    NA+46554  29.462  35.559  11.509
74240ION    NA+46555   7.389  29.523   3.052
74241ION    NA+46556  25.582   5.982  14.819
74242ION    NA+46557   2.905  41.887   1.177
74243ION    NA+46558  41.996   4.507  11.212
74244ION    NA+46559  20.781  42.618   3.769
74245ION    NA+46560   3.355   1.178  12.645
74246ION    NA+46561  33.406  18.338   4.125
74247ION    NA+46562  19.549  17.691   2.375
74248ION    NA+46563  27.926  38.358  11.569
74249ION    NA+46564  31.603  17.764  14.225
74250ION    NA+46565  36.004  15.118  13.019
74251ION    NA+46566  41.429   0.343  14.853
74252ION    NA+46567  13.246  19.803   2.804
74253ION    NA+46568   0.707  11.361  12.701
74254ION    NA+46569  15.195  23.996   3.100
74255ION    NA+46570  42.206  12.641   2.646
74256ION    NA+46571  19.493  41.775   0.375
74257ION    NA+46572  34.525  34.053   2.112
74258ION    NA+46573  29.841  17.418   4.112
74259ION    NA+46574   9.485  21.158  12.582
74260ION    NA+46575   0.279  28.123  14.870
74261ION    NA+46576  12.080  33.311   2.897
74262ION    NA+46577  24.387   8.124  14.606
74263ION    NA+46578  33.956  37.864   1.689
74264ION    NA+46579   9.047  24.065   1.703
74265ION    NA+46580  43.303  17.665   3.991
74266ION    NA+46581  30.226  34.515   2.588
74267ION    NA+46582  10.158  15.025  11.551
74268ION    NA+46583  26.287  29.814   0.754
74269ION    NA+46584  43.319  44.328   1.251
74270ION    NA+46585  39.804   0.597  14.303
74271ION    NA+46586  35.408  36.164   2.204
74272ION    NA+46587  41.864  36.826   2.203
74273ION    NA+46588  33.293  39.506   3.784
74274ION    NA+46589  30.700  40.144  11.496
74275ION    NA+46590  20.536  14.328  13.108
74276ION    NA+46591  17.041  17.055  11.441
74277ION    NA+46592   3.517  23.265  13.669
74278ION    NA+46593  12.814  28.009   1.620
74279ION    NA+46594  31.534  43.793   0.696
74280ION    NA+46595  30.460  17.944  12.663
74281ION    NA+46596  13.547   5.695   1.878
74282ION    NA+46597  27.228  17.262  13.106
74283ION    NA+46598  22.337  35.994   4.115
74284ION    NA+46599  38.640  11.525  11.425
74285ION    NA+46600  42.452  20.434  14.658
74286ION    NA+46601   2.728  36.507   2.071
74287ION    NA+46602  35.939  14.215  14.757
74288ION    NA+46603   3.695   5.674  12.499
74289ION    NA+46604  17.718  22.320   4.766
74290ION    NA+46605  20.619  13.612   1.363
74291ION    NA+46606  20.788  36.749  13.935
74292ION    NA+46607   5.044   4.253  12.067
74293ION    NA+46608  16.447  31.079  11.839
74294ION    NA+46609  16.060  23.260  11.004
74295ION    NA+46610  38.055   5.826  10.674
74296ION    NA+46611   7.567  25.708  11.182
74297ION    NA+46612   5.012  13.397   4.238
74298ION    NA+46613  40.476  38.893   3.220
74299ION    NA+46614  38.337  42.187   3.120
74300ION    NA+46615  21.094  34.840   0.795
74301ION    NA+46616  24.899  29.817   0.556
74302ION    NA+46617  33.536  28.260   3.172
74303ION    NA+46618  25.590   6.320   3.293
74304ION    NA+46619  10.924  30.657  12.847
74305ION    NA+46620  15.017  28.102   4.693
74306ION    NA+46621   1.530  41.692  10.898
74307ION    NA+46622  42.588  36.298  14.000
74308ION    NA+46623   9.453  20.108   3.198
74309ION    NA+46624  27.570  44.091  13.517
74310ION    NA+46625  26.144   6.936   1.042
74311ION    NA+46626  10.001  30.493  13.195
74312ION    NA+46627   1.997  26.332   2.322
74313ION    NA+46628  40.507   2.583  13.035
74314ION    NA+46629   7.682  34.916  13.385
74315ION    NA+46630  10.510  21.062   0.041
74316ION    NA+46631   2.807  37.934  12.542
74317ION    NA+46632  25.270  38.475  12.359
74318ION    NA+46633  25.239  41.572   2.474
74319ION    NA+46634  12.205  26.380  12.100
74320ION    NA+46635  16.695  28.031  11.695
74321ION    NA+46636  44.209  31.389   1.448
74322ION    NA+46637   8.055   5.849   1.255
74323ION    NA+46638  24.220   8.100   3.329
74324ION    NA+46639   1.537  14.250  11.999
74325ION    NA+46640  43.327  43.723   2.047
74326ION    NA+46641  12.124  36.107  14.724
74327ION    NA+46642  18.759  33.605   5.124
74328ION    NA+46643  44.818  37.384  10.851
74329ION    NA+46644  29.490  24.154   3.288
74330ION    NA+46645  17.599  31.182  14.312
74331ION    NA+46646  14.215   7.151  14.845
74332ION    NA+46647   5.645  31.392   9.954
74333ION    NA+46648   1.454  13.088   0.229
74334ION    NA+46649  23.614  27.462  12.501
74335ION    NA+46650   9.101  27.790   2.215
74336ION    NA+46651  30.654  24.950  12.110
74337ION    NA+46652  23.442   0.738   0.340
74338ION    NA+46653  23.981  37.885   3.218
74339ION    NA+46654  16.028   3.127   1.177
74340ION    NA+46655  40.879  44.553  13.592
74341ION    NA+46656  42.311  41.836   1.556
74342ION    NA+46657  35.958   9.698  13.324
74343ION    NA+46658   3.178  12.202   1.361
74344ION    NA+46659  30.039  27.149   2.893
74345ION    NA+46660   0.556  43.503   0.765
74346ION    NA+46661  44.980   5.569  10.678
74347ION    NA+46662  12.538  43.619  12.104
74348ION    NA+46663  32.992   8.735   0.264
74349ION    NA+46664   5.057  17.106   1.702
74350ION    NA+46665  28.032  39.957  13.288
74351ION    NA+46666  20.994  30.476  10.120
74352ION    NA+46667  34.380  38.175   2.523
74353ION    NA+46668   9.341  14.180   4.138
74354ION    NA+46669  38.934  31.433   1.150
74355ION    NA+46670   6.612   7.208   0.385
74356ION    NA+46671  18.153  36.117  12.019
74357ION    NA+46672  18.883   5.969  14.518
74358ION    NA+46673   4.367  13.230   1.826
74359ION    NA+46674  10.637  44.179   2.351
74360ION    NA+46675  37.262  10.819   1.446
74361ION    NA+46676  28.877  32.473   1.732
74362ION    NA+46677  36.659  37.968   2.994
74363ION    NA+46678  22.747  37.336  11.712
74364ION    NA+46679  37.373  23.379   3.909
74365ION    NA+46680  12.920  27.856   2.512
74366ION    NA+46681  15.035  30.950   0.998
74367ION    NA+46682  21.026  18.695  14.455
74368ION    NA+46683  13.447  20.487   4.341
74369ION    NA+46684  11.501  19.327   3.197
74370ION    NA+46685   1.235   6.731  13.335
74371ION    NA+46686  15.559  44.715  12.908
74372ION    NA+46687  28.130   3.212   4.625
74373ION    NA+46688   5.684  27.046  11.489
74374ION    NA+46689   9.466  21.958  10.957
74375ION    NA+46690   9.286  30.318  12.638
74376ION    NA+46691   6.590  24.821   0.497
74377ION    NA+46692  22.733  18.480  13.629
74378ION    NA+46693  17.821  42.896  14.877
74379ION    NA+46694  31.975  37.071   0.202
74380ION    NA+46695  30.076  38.388   4.396
74381ION    NA+46696   7.036  25.423   0.028
74382ION    NA+46697   7.821  34.338  10.977
74383ION    NA+46698  10.271  23.539   2.781
74384ION    NA+46699   5.575  19.344  12.004
74385ION    NA+46700  42.350  31.473   0.933
74386ION    NA+46701  20.935   9.867  10.112
74387ION    NA+46702  17.840   8.826   9.796
74388ION    NA+46703  19.299  11.959  10.668
74389ION    NA+46704  37.872   5.493   2.668
74390ION    NA+46705  31.434  27.827  11.508
74391ION    NA+46706  12.853  22.001   1.285
74392ION    NA+46707  15.680  39.802  13.929
74393ION    NA+46708   0.725   2.591   2.078
74394ION    NA+46709  24.659  26.131   2.595
74395ION    NA+46710  10.736   5.125  14.736
74396ION    NA+46711  26.138  26.126   0.777
74397ION    NA+46712  25.421  21.952  13.085
74398ION    NA+46713   7.179  23.554   1.216
74399ION    NA+46714  44.296   8.755   5.631
74400ION    NA+46715  20.681   4.451   2.798
74401ION    NA+46716  28.685  39.375  13.779
74402ION    NA+46717  18.429  12.029  12.566
74403ION    NA+46718  19.130  16.832  10.968
74404ION    NA+46719  30.683  19.496   3.748
74405ION    NA+46720  23.608  32.043   4.386
74406ION    NA+46721  25.383  25.035   3.355
74407ION    NA+46722  22.660   5.826  12.840
74408ION    NA+46723   8.805  22.501  11.260
74409ION    NA+46724  27.287  23.815   1.763
74410ION    NA+46725  13.389  11.121   4.659
74411ION    NA+46726  18.622   6.996   3.542
74412ION    NA+46727  44.506  39.256   3.767
74413ION    NA+46728  11.121   7.291   3.698
74414ION    NA+46729  25.305  27.417   2.143
74415ION    NA+46730  40.001   0.285   4.485
74416ION    NA+46731  12.916  17.568   3.712
74417ION    NA+46732  39.812  37.982   1.779
74418ION    NA+46733  34.942  24.522  12.145
74419ION    NA+46734  18.472  13.296  14.717
74420ION    NA+46735  24.381   8.147   4.565
74421ION    NA+46736  29.515   8.686  11.638
74422ION    NA+46737   2.137  25.917  14.059
74423ION    NA+46738  15.737   7.072  11.728
74424ION    NA+46739  18.824  30.106   0.881
74425ION    NA+46740  37.024  44.976  10.997
74426ION    NA+46741  44.288  11.179  14.499
74427ION    NA+46742  42.446  15.595  13.402
74428ION    NA+46743  29.860  19.465  14.965
74429ION    NA+46744  15.221  20.028   3.395
74430ION    NA+46745  10.665   8.464  10.677
74431ION    NA+46746  35.877   7.633  11.205
74432ION    NA+46747  38.850  43.219  10.921
74433ION    NA+46748  10.293  36.928  11.358
74434ION    NA+46749  28.222   7.340  11.711
74435ION    NA+46750  42.255  29.145   0.761
74436ION    NA+46751  29.115  18.057   2.175
74437ION    NA+46752  29.724  32.055   3.051
74438ION    NA+46753  27.504  32.989   2.400
74439ION    NA+46754  33.248  17.310  14.670
74440ION    NA+46755   3.279  25.081  14.827
74441ION    NA+46756  30.558  34.509  12.409
74442ION    NA+46757  38.155  32.446   3.228
74443ION    NA+46758  23.135  20.135   1.451
74444ION    NA+46759   2.008   9.791  12.409
74445ION    NA+46760  44.024   8.362  10.696
74446ION    NA+46761  14.951  28.209  14.867
74447ION    NA+46762  27.264  41.000  12.628
74448ION    NA+46763  20.284  28.214  13.932
74449ION    NA+46764  39.552  26.461   3.012
74450ION    NA+46765  15.648  27.706   2.741
74451ION    NA+46766  35.135   5.202   1.465
74452ION    NA+46767  39.782   1.989   3.608
74453ION    NA+46768   2.699  15.952  12.328
74454ION    NA+46769  35.333  29.637   1.160
74455ION    NA+46770  30.586  22.338  11.248
74456ION    NA+46771  44.262  17.538   0.007
74457ION    NA+46772   3.968  32.572   4.218
74458ION    NA+46773  44.272  35.104  10.685
74459ION    NA+46774  13.819  12.068   1.736
74460ION    NA+46775  16.303  21.644  14.437
74461ION    NA+46776   8.592  43.406  12.242
74462ION    NA+46777  11.179   2.870   0.892
74463ION    NA+46778   8.692  13.269  12.460
74464ION    NA+46779   7.962   6.487   4.317
74465ION    NA+46780  44.065  20.684   0.378
74466ION    NA+46781   5.225   5.350   2.715
74467ION    NA+46782  12.123  20.679   0.821
74468ION    NA+46783  29.321   5.254  11.808
74469ION    NA+46784  40.272   0.233   0.028
74470ION    NA+46785   4.446  34.357  13.423
74471ION    NA+46786  32.218   5.164  13.184
74472ION    NA+46787  19.248   6.643   1.740
74473ION    NA+46788  33.418  37.113   1.002
74474ION    NA+46789   6.707  17.107   4.072
74475ION    NA+46790   5.297  30.361  14.968
74476ION    NA+46791   1.280  16.096  11.371
74477ION    NA+46792  41.453   7.630  14.690
74478ION    NA+46793  34.833  28.740  11.694
74479ION    NA+46794  15.107  11.103   0.064
74480ION    NA+46795  22.644  11.596   0.671
74481ION    NA+46796  44.480   0.364  14.681
74482ION    NA+46797   2.881  32.598  10.692
74483ION    NA+46798  18.806   0.937  14.677
74484ION    NA+46799   8.529   9.161  11.909
74485ION    NA+46800  23.038   3.131   3.584
74486ION    NA+46801  36.358  13.298  12.965
74487ION    NA+46802   1.162   7.290   2.396
74488ION    NA+46803  14.077  17.165  13.103
74489ION    NA+46804  38.868  31.457  13.877
74490ION    NA+46805   0.604  10.855   2.353
74491ION    NA+46806  29.664  24.986  11.933
74492ION    NA+46807  17.936  44.861  12.261
74493ION    NA+46808  44.433  40.308  11.961
74494ION    NA+46809   3.903  41.789   3.161
74495ION    NA+46810   4.142   8.338   0.154
74496ION    NA+46811  43.361  32.007   4.841
74497ION    NA+46812  24.622  24.745   2.698
74498ION    NA+46813   7.586  27.193   4.109
74499ION    NA+46814  37.038  44.370   4.607
74500ION    NA+46815  25.260  24.131  11.916
74501ION    NA+46816  37.694   4.490  14.950
74502ION    NA+46817  18.855  13.916  11.520
74503ION    NA+46818  43.473  10.734  13.927
74504ION    NA+46819   5.701  28.621   0.942
74505ION    NA+46820  28.646   7.445   4.097
74506ION    NA+46821  27.309   9.427  14.382
74507ION    NA+46822  25.703  18.045  12.072
74508ION    NA+46823  21.722   7.469   3.220
74509ION    NA+46824  44.774  30.146   1.222
74510ION    NA+46825  11.957   5.617  12.211
74511ION    NA+46826  40.541  38.135  12.069
74512ION    NA+46827   8.698  16.527   4.261
74513ION    NA+46828  20.510   5.762  13.601
74514ION    NA+46829   3.321  20.485  12.562
74515ION    NA+46830  42.968  42.589   2.827
74516ION    NA+46831   7.622  21.430  11.712
74517ION    NA+46832  40.853  43.188   3.592
74518ION    NA+46833   1.053  17.683   2.292
74519ION    NA+46834  19.802  28.130  13.001
74520ION    NA+46835   2.261  11.750  14.701
74521ION    NA+46836   2.457  14.164  14.431
74522ION    NA+46837   2.876   5.298   0.370
74523ION    NA+46838  11.085  21.399  13.627
74524ION    NA+46839  23.677  11.069   4.967
74525ION    NA+46840  20.350  43.460   1.485
74526ION    NA+46841  15.413  19.945   1.506
74527ION    NA+46842  40.903  44.168   3.786
74528ION    NA+46843   1.519   7.770  11.074
74529ION    NA+46844  24.219  28.255  12.574
74530ION    NA+46845   0.420  38.392   2.291
74531ION    NA+46846  42.792  18.830  11.590
74532ION    NA+46847  30.995   8.893  12.047
74533ION    NA+46848  41.896  42.487  11.061
74534ION    NA+46849  32.556   7.971   3.175
74535ION    NA+46850  12.290   2.377  14.344
74536ION    NA+46851  43.177  31.073   3.824
74537ION    NA+46852  21.078  39.132  11.902
74538ION    NA+46853  36.431   1.501   5.359
74539ION    NA+46854  18.060  14.963  14.635
74540ION    NA+46855  26.610  16.389   2.416
74541ION    NA+46856  13.964  26.591  10.945
74542ION    NA+46857  27.386  22.179   4.629
74543ION    NA+46858  21.651  36.058  10.657
74544ION    NA+46859   6.986   0.159   1.877
74545ION    NA+46860  31.903   7.942   1.513
74546ION    NA+46861  36.329  15.891   4.140
74547ION    NA+46862   5.148  30.850  11.218
74548ION    NA+46863  21.936   2.377  10.465
74549ION    NA+46864  32.371   4.035   4.840
74550ION    NA+46865  18.026   6.349  14.864
74551ION    NA+46866  25.127  18.684   1.891
74552ION    NA+46867  10.283   7.809   1.787
74553ION    NA+46868  26.629   5.666  12.628
74554ION    NA+46869   3.319  22.005   2.246
74555ION    NA+46870  39.991  44.774   3.625
74556ION    NA+46871  33.183   1.759   1.050
74557ION    NA+46872  43.105  19.625  12.388
74558ION    NA+46873  41.862   9.490  14.424
74559ION    NA+46874   4.964  35.536   1.424
74560ION    NA+46875  23.167   2.467   4.643
74561ION    NA+46876  10.486  15.703   3.767
74562ION    NA+46877  26.361  19.290  14.041
74563ION    NA+46878  41.802   1.738   2.706
74564ION    NA+46879  20.331  38.771  12.461
74565ION    NA+46880  14.540  35.645   3.466
74566ION    NA+46881   2.404  17.106  14.132
74567ION    NA+46882  27.036  11.693  11.298
74568ION    NA+46883  13.190  38.059  14.774
74569ION    NA+46884  39.869  41.353   2.199
74570ION    NA+46885  13.839   9.416   3.074
74571ION    NA+46886  14.715  12.194   2.794
74572ION    CL-46887  18.781   2.877  13.998
74573ION    CL-46888  39.470  31.714  11.198
74574ION    CL-46889  21.667  26.509   2.740
74575ION    CL-46890  10.638  13.182  13.414
74576ION    CL-46891  19.601   0.514   2.482
74577ION    CL-46892  21.473   1.420   0.839
74578ION    CL-46893  34.263  22.970   1.675
74579ION    CL-46894  17.637  38.556   1.495
74580ION    CL-46895  34.009  23.943  14.749
74581ION    CL-46896  26.335  39.708  13.433
74582ION    CL-46897   6.161  25.078  10.689
74583ION    CL-46898  42.248   4.979   3.733
74584ION    CL-46899  38.623  33.744   0.219
74585ION    CL-46900  28.143  41.547   4.143
74586ION    CL-46901  11.673  30.089  14.490
74587ION    CL-46902  43.708  20.898   0.190
74588ION    CL-46903  12.037   5.413  12.615
74589ION    CL-46904  25.957  39.926   4.676
74590ION    CL-46905  16.535  44.772  11.929
74591ION    CL-46906  23.460  19.824   1.386
74592ION    CL-46907  40.164  30.607  14.756
74593ION    CL-46908  26.941  37.395   4.558
74594ION    CL-46909   0.822  23.341   1.642
74595ION    CL-46910   2.443   9.306  14.436
74596ION    CL-46911   7.099  14.120  10.316
74597ION    CL-46912   7.694  15.126  12.638
74598ION    CL-46913  35.053  34.623   5.169
74599ION    CL-46914  36.080  43.591   2.187
74600ION    CL-46915  35.829  23.632   1.628
74601ION    CL-46916  22.183  18.005   4.042
74602ION    CL-46917   5.219  11.305   3.614
74603ION    CL-46918  34.186  37.707   1.339
74604ION    CL-46919  31.467  28.605   1.178
74605ION    CL-46920  37.944  19.038   1.598
74606ION    CL-46921  16.240  11.600   3.175
74607ION    CL-46922  44.663  24.280  14.506
74608ION    CL-46923  14.224  38.842   2.813
74609ION    CL-46924  42.004  23.043   0.979
74610ION    CL-46925  32.104  44.737  12.859
74611ION    CL-46926   1.765  31.834  11.945
74612ION    CL-46927  23.122  11.901   3.272
74613ION    CL-46928   1.906   6.172   2.769
74614ION    CL-46929  19.357  25.080  11.644
74615ION    CL-46930  31.677  13.345  14.431
74616ION    CL-46931  29.112  22.512  13.995
74617ION    CL-46932  19.886  36.079   1.360
74618ION    CL-46933  11.427  14.832   0.225
74619ION    CL-46934  16.387  12.662   0.478
74620ION    CL-46935  15.831  17.783  12.966
74621ION    CL-46936  35.115  19.125  11.179
74622ION    CL-46937  41.250  15.169   3.332
74623ION    CL-46938  24.260  23.351  14.449
74624ION    CL-46939  27.902  36.932   4.350
74625ION    CL-46940  25.663  32.545   0.137
74626ION    CL-46941  28.795  29.946   1.202
74627ION    CL-46942  43.025  42.365   4.663
74628ION    CL-46943   0.918  38.475   0.510
74629ION    CL-46944  34.817   8.972  13.344
74630ION    CL-46945  21.796  13.215   0.386
74631ION    CL-46946  34.069  39.408  14.477
74632ION    CL-46947  44.438  26.204  14.436
74633ION    CL-46948   5.076  32.573   0.465
74634ION    CL-46949  18.627   9.949   4.742
74635ION    CL-46950  20.558  36.130   2.723
74636ION    CL-46951  30.361  22.646  10.999
74637ION    CL-46952  43.413  33.637  10.649
74638ION    CL-46953  12.605   7.057  13.915
74639ION    CL-46954  21.604  44.990  13.627
74640ION    CL-46955  33.381  43.191  12.744
74641ION    CL-46956  31.316  28.212  11.302
74642ION    CL-46957   0.318  18.050  14.530
74643ION    CL-46958   2.105  42.101  11.056
74644ION    CL-46959  23.765  31.551   1.258
74645ION    CL-46960  34.277  24.909  14.459
74646ION    CL-46961  27.121  43.893   0.734
74647ION    CL-46962  28.417  42.052   2.771
74648ION    CL-46963  29.202  11.521   2.212
74649ION    CL-46964  39.466  16.200   1.420
74650ION    CL-46965  30.271  21.937   2.364
74651ION    CL-46966  39.312  20.584  13.834
74652ION    CL-46967  17.560  28.506   3.379
74653ION    CL-46968  11.011  21.930  10.964
74654ION    CL-46969  13.028  31.032  12.177
74655ION    CL-46970  32.659  24.179  14.456
74656ION    CL-46971  17.613   6.802  12.379
74657ION    CL-46972  23.740   6.594   2.023
74658ION    CL-46973   8.932  15.782  12.651
74659ION    CL-46974   8.776   7.781  12.142
74660ION    CL-46975  24.695  19.779   2.383
74661ION    CL-46976   4.738  12.851  11.657
74662ION    CL-46977   0.776   3.218  13.849
74663ION    CL-46978  14.917   8.345   4.555
74664ION    CL-46979  27.216  13.376   2.363
74665ION    CL-46980  18.567  33.852   0.468
74666ION    CL-46981  29.746  42.827  12.470
74667ION    CL-46982  19.738  20.730  12.570
74668ION    CL-46983  22.182   4.769   1.895
74669ION    CL-46984  30.899  42.189  13.577
74670ION    CL-46985  18.807   2.243   2.233
74671ION    CL-46986  11.810  19.062  13.523
74672ION    CL-46987  26.511  38.920  11.017
74673ION    CL-46988  31.139   7.480   0.397
74674ION    CL-46989  19.411   3.007   3.466
74675ION    CL-46990  19.827  10.798  13.625
74676ION    CL-46991  17.660  43.634  14.853
74677ION    CL-46992  40.197   1.024   2.595
74678ION    CL-46993  16.428  24.491  12.973
74679ION    CL-46994   5.816  41.591   2.738
74680ION    CL-46995  42.547  31.073   0.970
74681ION    CL-46996  41.931  20.510   1.447
74682ION    CL-46997  32.460  20.946   1.248
74683ION    CL-46998  43.401  33.070  12.073
74684ION    CL-46999  27.298   8.200  14.178
74685ION    CL-47000  16.028  43.032  11.230
74686ION    CL-47001  22.195  16.140  10.619
74687ION    CL-47002   3.974  20.555  13.353
74688ION    CL-47003  44.496   5.844  13.013
74689ION    CL-47004  21.548  40.292  11.912
74690ION    CL-47005  17.639  15.889  10.974
74691ION    CL-47006  32.105  43.857   3.899
74692ION    CL-47007  23.673   0.742  11.705
74693ION    CL-47008  41.530   7.366   1.844
74694ION    CL-47009  20.391  42.480   3.958
74695ION    CL-47010  10.669  15.725  13.585
74696ION    CL-47011  43.551  44.941   3.837
74697ION    CL-47012  44.234  22.545   2.439
74698ION    CL-47013  30.979  23.557  14.753
74699ION    CL-47014  13.868  42.630   4.629
74700ION    CL-47015  35.083  32.369  11.574
74701ION    CL-47016  44.312  13.266   2.204
74702ION    CL-47017  32.119  14.660   0.775
74703ION    CL-47018  23.359  28.258   3.800
74704ION    CL-47019  31.959  42.349   1.148
74705ION    CL-47020  32.719  40.102   2.952
74706ION    CL-47021  34.226  37.943   2.899
74707ION    CL-47022  42.295  18.096   4.111
74708ION    CL-47023   5.648   9.049  14.103
74709ION    CL-47024  12.119  28.932  14.564
74710ION    CL-47025   3.824  33.317  11.991
74711ION    CL-47026  22.727   7.733   3.245
74712ION    CL-47027  10.179   1.451  11.656
74713ION    CL-47028  15.611  41.180  12.483
74714ION    CL-47029  14.373  16.541   4.457
74715ION    CL-47030  44.278  19.407   2.419
74716ION    CL-47031   6.774  36.766  12.893
74717ION    CL-47032  29.733   0.217   3.002
74718ION    CL-47033   8.520  39.945   1.124
74719ION    CL-47034  30.580  28.705   3.696
74720ION    CL-47035  42.202  10.869  13.546
74721ION    CL-47036   3.956  14.815   4.009
74722ION    CL-47037  16.843   4.947   2.042
74723ION    CL-47038  35.942  17.752   2.895
74724ION    CL-47039  35.413  39.300  13.954
74725ION    CL-47040  16.817  12.476  10.945
74726ION    CL-47041  22.764  20.396   1.493
74727ION    CL-47042  35.711   5.743   3.322
74728ION    CL-47043  28.562  28.967  14.962
74729ION    CL-47044  16.677  31.280  11.513
74730ION    CL-47045  20.800  30.932  14.331
74731ION    CL-47046   9.743  41.759  11.772
74732ION    CL-47047  17.236  12.340  14.844
74733ION    CL-47048  19.771  34.180   1.876
74734ION    CL-47049  22.193  36.910  14.612
74735ION    CL-47050  25.962   5.836   1.587
74736ION    CL-47051  44.233  23.653   4.825
74737ION    CL-47052  36.348  11.326   2.072
74738ION    CL-47053  27.966  11.492  12.974
74739ION    CL-47054  18.333  41.819   1.408
74740ION    CL-47055  24.265  37.928   0.957
74741ION    CL-47056  22.324  44.438  11.182
74742ION    CL-47057  12.888  27.880   2.061
74743ION    CL-47058  34.276  38.367   2.121
74744ION    CL-47059  19.034   3.373  14.544
74745ION    CL-47060  36.790  15.934  12.635
74746ION    CL-47061  13.230  32.076   5.178
74747ION    CL-47062   0.023  25.493   0.264
74748ION    CL-47063  36.249  35.505  13.645
74749ION    CL-47064  15.107  27.405   3.563
74750ION    CL-47065  20.713   7.725   0.020
74751ION    CL-47066  44.327  31.712   1.749
74752ION    CL-47067  19.663  15.883   3.322
74753ION    CL-47068  37.443   1.662   1.055
74754ION    CL-47069  36.054  37.479   4.619
74755ION    CL-47070  33.391   6.717   3.216
74756ION    CL-47071  17.432  42.669  14.981
74757ION    CL-47072  43.644  24.105  13.491
74758ION    CL-47073   7.270  35.250  11.698
74759ION    CL-47074  40.792   4.797  11.227
74760ION    CL-47075  42.729  38.704  14.538
74761ION    CL-47076  11.223  43.786  11.444
74762ION    CL-47077  28.623  25.660  14.732
74763ION    CL-47078   4.494  43.561   0.900
74764ION    CL-47079  15.668  27.260   2.748
74765ION    CL-47080  35.508   7.427  11.370
74766ION    CL-47081  22.432  43.730  13.758
74767ION    CL-47082  17.984  37.558  11.098
74768ION    CL-47083   5.397  28.436  12.574
74769ION    CL-47084  40.755   2.222  13.118
74770ION    CL-47085  40.814  33.129   1.303
74771ION    CL-47086  32.230  24.542  11.610
74772ION    CL-47087  39.832  35.315  13.510
74773ION    CL-47088  36.042  44.328   2.960
74774ION    CL-47089  33.505  26.462  14.243
74775ION    CL-47090  13.359  15.494   4.015
74776ION    CL-47091  19.771  20.101   0.964
74777ION    CL-47092   3.355  20.146  14.406
74778ION    CL-47093  24.920  37.986   0.344
74779ION    CL-47094  35.908  42.291   1.960
74780ION    CL-47095   4.374  12.863  10.383
74781ION    CL-47096  10.716  37.901  12.057
74782ION    CL-47097   3.760  10.448   4.778
74783ION    CL-47098   9.287  36.967   0.012
74784ION    CL-47099  15.552   5.376   4.097
74785ION    CL-47100  40.076   0.433  14.647
74786ION    CL-47101   5.302  15.090  12.499
74787ION    CL-47102  23.146  16.617   1.774
74788ION    CL-47103  37.077  21.485  12.543
74789ION    CL-47104  39.358   4.701   1.293
74790ION    CL-47105  15.703   5.701   2.047
74791ION    CL-47106  15.738  31.848   2.438
74792ION    CL-47107  35.540  33.387  10.904
74793ION    CL-47108   7.850   2.847  10.807
74794ION    CL-47109  18.163  41.511  12.005
74795ION    CL-47110  23.222   3.711  11.934
74796ION    CL-47111  42.255   5.589   2.583
74797ION    CL-47112  29.255  40.050   2.772
74798ION    CL-47113  35.691  19.618   3.860
74799ION    CL-47114  37.801   8.443  11.128
74800ION    CL-47115  27.748  23.563   4.672
74801ION    CL-47116   7.418   0.433   0.413
74802ION    CL-47117  14.245  18.071   4.894
74803ION    CL-47118  10.930  33.747  11.775
74804ION    CL-47119  24.472  14.671   3.330
74805ION    CL-47120  43.226   0.013  11.450
74806ION    CL-47121  21.186   1.638  14.998
74807ION    CL-47122  11.904  35.470   1.302
74808ION    CL-47123  13.277  30.380   5.181
74809ION    CL-47124  33.476   9.179  13.989
74810ION    CL-47125  14.036   2.532   0.783
74811ION    CL-47126  35.932  41.587  13.844
74812ION    CL-47127  27.604  24.387  14.699
74813ION    CL-47128  37.893  39.574  10.672
74814ION    CL-47129  43.365  12.888   3.974
74815ION    CL-47130   3.692  24.469   0.879
74816ION    CL-47131   1.686  39.151  13.945
74817ION    CL-47132  34.701  43.076  10.514
74818ION    CL-47133   5.555  26.732  11.180
74819ION    CL-47134  43.318  41.255   2.749
74820ION    CL-47135  36.959  40.956  10.762
74821ION    CL-47136  30.519   6.362  12.199
74822ION    CL-47137  11.856  21.618  12.456
74823ION    CL-47138  38.983   3.208  13.233
74824ION    CL-47139   0.958  11.405  12.190
74825ION    CL-47140   7.507  38.463  12.027
74826ION    CL-47141  10.665   8.877  10.893
74827ION    CL-47142  18.572  14.894  13.097
74828ION    CL-47143  20.757  18.980   3.752
74829ION    CL-47144  34.363  41.605  11.576
74830ION    CL-47145  12.326  33.401   4.960
74831ION    CL-47146  32.101   5.445   0.180
74832ION    CL-47147  35.995  23.537  11.175
74833ION    CL-47148  44.765  16.342  11.257
74834ION    CL-47149   2.801  42.123   3.815
74835ION    CL-47150  38.092   1.618   0.296
74836ION    CL-47151  25.295  22.238   3.841
74837ION    CL-47152  26.222   9.311   3.803
74838ION    CL-47153  32.415  21.999   3.370
74839ION    CL-47154  36.440  42.469  10.689
74840ION    CL-47155   4.692  13.597   4.511
74841ION    CL-47156  14.022  24.862   3.862
74842ION    CL-47157  39.753  28.123   3.167
74843ION    CL-47158   1.202  39.973   2.739
74844ION    CL-47159  37.598  23.901  11.530
74845ION    CL-47160  26.436  30.754  14.029
74846ION    CL-47161   3.125  29.515  11.620
74847ION    CL-47162  41.464   8.365   1.339
74848ION    CL-47163  29.799  28.930   1.157
74849ION    CL-47164  37.978  17.457   1.496
74850ION    CL-47165  26.686  30.914  10.667
74851ION    CL-47166  33.499  26.217   0.058
74852ION    CL-47167   8.350   3.840   3.094
74853ION    CL-47168  33.880   5.047   9.915
74854ION    CL-47169   9.415  21.180   2.350
74855ION    CL-47170  36.284  38.213   2.925
74856ION    CL-47171  15.122  18.778   2.702
74857ION    CL-47172  20.707   4.508   1.179
74858ION    CL-47173  22.375   3.555  12.856
74859ION    CL-47174   0.204   6.488   2.380
74860ION    CL-47175  38.842  33.827   4.665
74861ION    CL-47176  27.423  27.526  10.352
74862ION    CL-47177   4.032  28.021  13.836
74863ION    CL-47178   8.320   2.828   3.771
74864ION    CL-47179  19.742   3.689   4.118
74865ION    CL-47180  13.103  21.347  14.414
74866ION    CL-47181  38.359  41.378   1.325
74867ION    CL-47182  18.017   1.177  11.814
74868ION    CL-47183  33.729  42.811  11.886
74869ION    CL-47184   1.682   1.910   2.797
74870ION    CL-47185  27.873   3.427   4.938
74871ION    CL-47186  11.966   8.631  11.716
74872ION    CL-47187  30.708  18.351   2.328
74873ION    CL-47188   8.729   9.182  13.768
74874ION    CL-47189   8.959  38.869   4.408
74875ION    CL-47190   6.635  19.009   1.413
74876ION    CL-47191  28.241  16.114   2.263
74877ION    CL-47192  16.013  36.590  14.540
74878ION    CL-47193   0.801   7.360   2.116
74879ION    CL-47194  28.562  31.037   5.131
74880ION    CL-47195  36.208  18.782   2.826
74881ION    CL-47196  23.392   4.740  14.615
74882ION    CL-47197  41.618  37.395  11.005
74883ION    CL-47198  23.048  24.198  11.577
74884ION    CL-47199  29.051   6.153  12.867
74885ION    CL-47200  34.678   4.855  12.241
74886ION    CL-47201  35.469  43.849   3.680
74887ION    CL-47202  12.168  38.599  14.117
74888ION    CL-47203  23.464  27.503   4.286
74889ION    CL-47204  11.402   7.690  13.256
74890ION    CL-47205  15.116  37.565   3.529
74891ION    CL-47206   2.343  44.353   2.372
74892ION    CL-47207  28.513  22.317   1.807
74893ION    CL-47208  31.890  21.207   2.129
74894ION    CL-47209  12.250   2.015   3.343
74895ION    CL-47210  41.363  32.504  14.333
74896ION    CL-47211  30.563  10.517   3.857
74897ION    CL-47212  32.353  42.548  13.941
74898ION    CL-47213   0.018  10.781   4.076
74899ION    CL-47214  20.995   7.328   1.353
74900ION    CL-47215  29.738   4.332   2.782
74901ION    CL-47216  24.174  32.309   2.355
74902ION    CL-47217  22.997  40.925   0.517
74903ION    CL-47218   6.008  15.035  13.057
74904ION    CL-47219  41.701  17.550  11.162
74905ION    CL-47220  14.608  32.042   3.709
74906ION    CL-47221  19.115  24.191   0.024
74907ION    CL-47222   7.373  10.182   1.834
74908ION    CL-47223  35.500  12.926  11.134
74909ION    CL-47224   8.316   9.750   4.283
74910ION    CL-47225  40.045  40.887  13.911
74911ION    CL-47226  27.916  28.122  12.904
74912ION    CL-47227  42.503  19.988  14.735
74913ION    CL-47228   2.569  32.929  10.675
74914ION    CL-47229  30.841  34.835  12.517
74915ION    CL-47230  12.070  13.191   1.191
74916ION    CL-47231   2.530  11.059   4.072
74917ION    CL-47232   0.505   5.103   9.948
74918ION    CL-47233   7.505  40.055  12.131
74919ION    CL-47234  25.770  42.570  14.488
74920ION    CL-47235  28.741   5.529  10.155
74921ION    CL-47236   7.595  40.145  14.876
74922ION    CL-47237   4.633   6.302   3.665
74923ION    CL-47238  11.854  24.666   3.177
74924ION    CL-47239  17.641   4.316  11.928
74925ION    CL-47240  39.893  17.843   1.223
74926ION    CL-47241  42.751  21.087   3.726
74927ION    CL-47242  14.405  43.812   1.269
74928ION    CL-47243  36.382  41.905  11.391
74929ION    CL-47244  31.124   5.438   5.332
74930ION    CL-47245  25.928  35.682  14.530
74931ION    CL-47246   8.911  29.070   4.098
74932ION    CL-47247  43.185  10.411  13.814
74933ION    CL-47248   9.992  40.184   5.158
74934ION    CL-47249  12.584  35.053  10.882
74935ION    CL-47250  16.778  42.637  14.175
74936ION    CL-47251  16.811  10.401  12.851
74937ION    CL-47252   7.734   1.451   2.279
74938ION    CL-47253  40.019  37.695  14.612
74939ION    CL-47254  10.106   1.997   0.356
74940ION    CL-47255  43.205  32.182   1.177
74941ION    CL-47256  12.019  34.740  12.048
74942ION    CL-47257  19.045  40.562   0.001
74943ION    CL-47258   3.605   7.439   4.207
74944ION    CL-47259  22.257   0.814   0.978
74945ION    CL-47260  42.384  36.981   3.487
74946ION    CL-47261  25.036  38.926   3.085
74947ION    CL-47262  22.558  38.931  14.527
74948ION    CL-47263  36.520  10.010   4.941
74949ION    CL-47264  15.379  39.014  10.874
74950ION    CL-47265   6.256  23.462  12.786
74951ION    CL-47266   9.641  36.586  12.451
74952ION    CL-47267  21.386  34.565  13.383
74953ION    CL-47268  30.480   7.882   2.810
74954ION    CL-47269  27.275   5.196   2.646
74955ION    CL-47270   7.457   5.618  12.960
74956ION    CL-47271   0.526  33.719  11.160
74957ION    CL-47272  10.416   8.371  10.265
74958ION    CL-47273  18.341  13.890   2.877
74959ION    CL-47274   3.941  14.064  14.719
74960ION    CL-47275  40.935  10.683  12.014
74961ION    CL-47276  29.561  41.180  14.122
74962ION    CL-47277   1.606   0.006  11.674
74963ION    CL-47278  12.276  32.068   1.917
74964ION    CL-47279  20.729  32.130   0.452
74965ION    CL-47280  15.028  12.573   0.585
74966ION    CL-47281  43.520  17.473  12.491
74967ION    CL-47282   5.445   6.637   4.352
74968ION    CL-47283  26.145  17.705  10.674
74969ION    CL-47284  44.455  43.724   1.327
74970ION    CL-47285  10.504  40.850  14.270
74971ION    CL-47286  26.716  14.886   3.319
74972ION    CL-47287   1.433  35.900  14.179
74973ION    CL-47288  33.583  26.608   1.972
74974ION    CL-47289  27.491   8.777   2.732
74975ION    CL-47290  15.130  27.705   4.517
74976ION    CL-47291  39.606  44.568   3.521
74977ION    CL-47292  28.589  34.011   2.609
74978ION    CL-47293  21.031  32.845  13.435
74979ION    CL-47294  21.217  41.595   1.333
74980ION    CL-47295   4.225  29.081   1.659
74981ION    CL-47296   9.628  18.208  10.765
74982ION    CL-47297   8.312  37.005  14.791
74983ION    CL-47298  19.379  25.924   5.136
74984ION    CL-47299   9.389  18.145  12.957
74985ION    CL-47300  15.539  40.179  12.329
74986ION    CL-47301  35.488   2.295   4.114
74987ION    CL-47302   6.749  42.909  13.430
74988ION    CL-47303  38.306   4.637   4.084
74989ION    CL-47304  18.057  34.168  13.277
74990ION    CL-47305  21.036  24.236  13.782
74991ION    CL-47306  19.290  30.220  12.226
74992ION    CL-47307   0.566  10.370   0.573
74993ION    CL-47308  34.612  22.223   0.533
74994ION    CL-47309  43.074  13.867   3.251
74995ION    CL-47310  21.082  34.690   4.568
74996ION    CL-47311  30.007  10.349   1.620
74997ION    CL-47312  24.881  15.544  14.920
74998ION    CL-47313  19.966  31.747   1.685
74999ION    CL-47314  16.462  10.363   4.535
75000ION    CL-47315  12.658  30.865   4.915
75001ION    CL-47316  12.853   8.719   1.832
75002ION    CL-47317  39.350  16.179   4.889
75003ION    CL-47318  35.585  31.421   4.325
75004ION    CL-47319  30.837  22.068  11.515
75005ION    CL-47320  19.357  35.929   3.423
75006ION    CL-47321  22.045  20.812  11.659
75007ION    CL-47322  42.473  25.947  12.963
75008ION    CL-47323  39.036   5.748   3.267
75009ION    CL-47324  43.108  33.207   1.360
75010ION    CL-47325  38.239   9.356  13.870
75011ION    CL-47326   8.608  38.464   0.505
75012ION    CL-47327  18.629  23.717  12.627
75013ION    CL-47328  22.077  33.463  14.489
75014ION    CL-47329  38.519   3.045   3.552
75015ION    CL-47330   3.825  40.852  14.996
75016ION    CL-47331  41.596  20.908  11.834
75017ION    CL-47332  24.362  27.803   3.015
75018ION    CL-47333  43.884  37.819  13.377
75019ION    CL-47334   6.022  14.006   3.369
75020ION    CL-47335  26.050  41.609  13.822
75021ION    CL-47336  19.411  39.893  12.466
75022ION    CL-47337  21.735  10.863  11.601
75023ION    CL-47338  22.886   0.522   3.312
75024ION    CL-47339   1.130   6.639   2.726
75025ION    CL-47340  44.364   9.341   9.772
75026ION    CL-47341  33.127  28.432   3.221
75027ION    CL-47342  18.145   8.763  14.515
75028ION    CL-47343   2.373  42.644  12.803
75029ION    CL-47344  44.768   9.682   0.519
75030ION    CL-47345   3.465   8.724  13.485
75031ION    CL-47346  32.192   0.726   3.798
75032ION    CL-47347  26.149  17.390   2.883
75033ION    CL-47348  17.865  15.030   0.034
75034ION    CL-47349  37.822  20.460  14.320
75035ION    CL-47350   0.900   8.039   2.843
75036ION    CL-47351  44.464  21.645  13.532
75037ION    CL-47352  33.104  38.875  10.556
75038ION    CL-47353   0.389  36.484  12.386
75039ION    CL-47354  39.995  17.611  13.711
75040ION    CL-47355  41.067  44.244   0.921
75041ION    CL-47356  19.253  35.008   1.235
75042ION    CL-47357  43.391  22.523  12.064
75043ION    CL-47358   8.161   5.967   0.807
75044ION    CL-47359  34.259  43.496  12.386
75045ION    CL-47360  13.147   7.146   1.864
75046ION    CL-47361   0.097  40.870  10.852
75047ION    CL-47362   9.797   9.393  12.646
75048ION    CL-47363  37.161  40.128   2.848
75049ION    CL-47364  24.971  33.882  14.014
75050ION    CL-47365  41.415  18.519   1.393
75051ION    CL-47366  11.269  22.276   0.356
75052ION    CL-47367  20.685  14.458   3.982
75053ION    CL-47368   1.551  42.237  12.633
75054ION    CL-47369  12.255  15.587   2.754
75055ION    CL-47370  36.320  40.246  11.813
75056ION    CL-47371  40.281  35.625   3.338
75057ION    CL-47372  44.296  39.849  14.397
75058ION    CL-47373  35.535  43.251  14.754
75059ION    CL-47374   9.216  22.275  11.194
75060ION    CL-47375  15.876  14.693  14.517
75061ION    CL-47376  15.859  38.281   9.831
75062ION    CL-47377   9.916   2.112  12.745
75063ION    CL-47378  22.062  36.276   4.324
75064ION    CL-47379  39.119  31.473   4.181
75065ION    CL-47380  38.977  12.783   2.896
75066ION    CL-47381  21.291   2.959  11.252
75067ION    CL-47382  19.543   3.053   4.832
75068ION    CL-47383  44.037  26.179  11.933
75069ION    CL-47384  42.826  42.952   0.976
75070ION    CL-47385   1.269  18.068   2.213
75071ION    CL-47386   4.231  31.121   3.624
75072ION    CL-47387   6.856  35.394   0.202
75073ION    CL-47388  19.979  40.603   9.666
75074ION    CL-47389  26.369  42.150   0.488
75075ION    CL-47390  27.606  18.167  14.843
75076ION    CL-47391  22.511  22.034  12.546
75077ION    CL-47392  13.838   4.791   2.191
75078ION    CL-47393  18.025  20.720   1.725
75079ION    CL-47394   0.281   3.224  12.940
75080ION    CL-47395   4.126   0.161  10.482
75081ION    CL-47396  22.065  25.890  11.604
75082ION    CL-47397  36.092  19.569   2.527
75083ION    CL-47398   1.632  43.803  10.410
75084ION    CL-47399  36.794  42.267   1.329
75085ION    CL-47400  28.364   2.940   4.930
75086ION    CL-47401  41.230  39.989   3.507
75087ION    CL-47402  22.750  11.579  12.507
75088ION    CL-47403   4.771  10.964   2.198
75089ION    CL-47404  17.798  34.205   1.035
75090ION    CL-47405   3.451   4.452  14.038
75091ION    CL-47406  28.989  34.997  14.849
75092ION    CL-47407   6.115  26.849  11.523
75093ION    CL-47408  28.945  34.303  10.089
75094ION    CL-47409  17.762  18.601  13.855
75095ION    CL-47410  23.197  39.826  11.274
75096ION    CL-47411  10.826  43.799  10.526
75097ION    CL-47412  37.340  29.569  13.878
75098ION    CL-47413  15.265  38.522  12.527
75099ION    CL-47414   5.336  13.064   4.268
75100ION    CL-47415  24.339  32.333  13.478
75101ION    CL-47416  38.741   8.253   3.483
75102ION    CL-47417  11.567  37.376  12.030
75103ION    CL-47418  10.921   8.099  10.823
75104ION    CL-47419  14.443   3.993   2.050
75105ION    CL-47420  33.895  29.036  11.187
75106ION    CL-47421  43.159  33.104   4.083
75107ION    CL-47422  43.291  14.690   1.959
75108ION    CL-47423   4.156   2.849  11.769
75109ION    CL-47424   5.411  10.204   0.745
75110ION    CL-47425   5.679   2.472   0.884
75111ION    CL-47426  28.266  42.859  14.173
75112ION    CL-47427  32.608  21.750   5.107
75113ION    CL-47428   6.901   4.792  10.241
75114ION    CL-47429  20.455  32.616  13.718
75115ION    CL-47430  32.912  32.521  11.239
75116ION    CL-47431  26.773  41.041  10.450
75117ION    CL-47432  24.764  21.487   2.311
75118ION    CL-47433  34.154  13.431   3.142
75119ION    CL-47434   9.116   0.572  11.323
75120ION    CL-47435  18.671  19.964   1.834
75121ION    CL-47436   4.638   6.915  11.376
75122ION    CL-47437  36.181   4.592  10.116
75123ION    CL-47438  40.577  27.481  13.045
75124ION    CL-47439   1.709  36.941   9.999
75125ION    CL-47440  11.771  36.365  14.619
75126ION    CL-47441   5.958   4.284   3.209
75127ION    CL-47442  19.011   0.695   0.005
75128ION    CL-47443  17.635  23.912  14.505
75129ION    CL-47444  23.305  41.579  11.214
75130ION    CL-47445  18.796  12.469   2.709
75131ION    CL-47446  33.327  42.029   1.259
75132ION    CL-47447  21.055   9.156   2.202
75133ION    CL-47448   8.187   0.805   4.174
75134ION    CL-47449  40.151  23.021   2.670
75135ION    CL-47450  29.508  15.901  14.289
75136ION    CL-47451  27.492  35.482   0.621
75137ION    CL-47452  12.859  17.647   3.278
75138ION    CL-47453  16.589  39.514  11.153
75139ION    CL-47454  26.414  43.222   4.121
75140ION    CL-47455  10.054  18.847   4.209
75141ION    CL-47456  24.495  18.539  11.193
75142ION    CL-47457  25.297  28.605   0.383
75143ION    CL-47458   6.795  15.083   3.221
75144ION    CL-47459  23.536  38.127   0.302
75145ION    CL-47460  38.728   0.840   1.280
75146ION    CL-47461  20.521  20.766  13.531
75147ION    CL-47462   7.227  25.460  14.600
75148ION    CL-47463  25.955  20.117  12.241
75149ION    CL-47464  24.671  20.751  12.446
75150ION    CL-47465  14.726  22.735   2.540
75151ION    CL-47466  29.563  41.578   0.113
75152ION    CL-47467  44.760  25.244  14.242
75153ION    CL-47468   0.457  44.409  13.180
75154ION    CL-47469  12.282  41.164  14.715
75155ION    CL-47470  17.834   9.483   1.843
75156ION    CL-47471   4.690   5.879  13.492
75157ION    CL-47472  26.006  37.156  11.718
75158ION    CL-47473  12.301  34.769  14.590
75159ION    CL-47474  36.759  10.823   4.159
75160ION    CL-47475   2.347  19.161  14.608
75161ION    CL-47476  37.869  16.097  11.185
75162ION    CL-47477  11.660  41.818   3.396
75163ION    CL-47478  34.696  25.815  14.385
75164ION    CL-47479   4.755  21.536   0.112
75165ION    CL-47480  35.742  22.738  14.797
75166ION    CL-47481  40.679   1.632   4.800
75167ION    CL-47482   0.772  36.951   2.226
75168ION    CL-47483  31.219   2.860  12.846
75169ION    CL-47484   7.836  27.657  12.834
75170ION    CL-47485  44.769  22.710   5.149
75171ION    CL-47486  27.235  11.345   4.634
75172ION    CL-47487  11.098  19.763  13.482
75173ION    CL-47488  24.784   1.419  13.348
75174ION    CL-47489  31.920  29.855   4.318
75175ION    CL-47490  44.215  18.651   1.187
75176ION    CL-47491  34.423  31.888  14.575
75177ION    CL-47492  42.738  16.902  11.406
75178ION    CL-47493  21.067  21.302  12.887
75179ION    CL-47494  37.020  38.731   4.133
75180ION    CL-47495  15.805  29.290   1.913
75181ION    CL-47496  32.868  28.545  13.364
75182ION    CL-47497  36.615  31.269  14.880
75183ION    CL-47498  24.214  24.904   2.829
75184ION    CL-47499  35.239   5.347   1.032
75185ION    CL-47500  14.652   6.275   1.169
75186ION    CL-47501   7.444   6.427   3.251
75187ION    CL-47502  24.246  17.693   3.856
75188ION    CL-47503   0.013  15.876   1.515
75189ION    CL-47504  18.557  13.768  11.222
75190ION    CL-47505   4.790   2.030   0.765
75191ION    CL-47506  37.997  41.011   3.576
75192ION    CL-47507  43.051  12.283  14.154
75193ION    CL-47508   5.319  23.915  10.687
75194ION    CL-47509  35.729   5.048  13.635
75195ION    CL-47510   8.298   2.032  10.438
75196ION    CL-47511  21.768  26.949   4.589
75197ION    CL-47512  18.585  28.047   0.804
75198ION    CL-47513  14.321  40.059   3.229
75199ION    CL-47514  39.070  11.991  10.368
75200ION    CL-47515  39.530  22.028   3.764
75201ION    CL-47516   0.470  30.078   2.087
75202ION    CL-47517   5.662  20.669   3.720
75203ION    CL-47518  38.464  40.822   2.712
75204ION    CL-47519  28.659   6.926   5.043
75205ION    CL-47520  15.541  34.654  13.372
75206ION    CL-47521  43.539   1.134  12.756
75207ION    CL-47522  24.063  27.684  10.111
75208ION    CL-47523  21.959   5.335   0.023
75209ION    CL-47524   2.355  21.992   2.744
75210ION    CL-47525  34.203  19.605  13.101
75211ION    CL-47526   8.170   5.465  10.939
75212ION    CL-47527  24.206  28.215   1.390
75213ION    CL-47528  42.774  36.771   0.580
75214ION    CL-47529  36.372  40.919  12.283
75215ION    CL-47530  13.438  33.541   2.951
75216ION    CL-47531  25.617   3.688   9.728
75217ION    CL-47532  39.310  33.515   2.779
75218ION    CL-47533  18.187  37.582   5.171
75219ION    CL-47534  21.795  18.910   3.871
75220ION    CL-47535  15.157  42.968  12.865
75221ION    CL-47536   3.978  27.110  12.173
75222ION    CL-47537  15.389  22.228   3.091
75223ION    CL-47538  26.757  37.612   1.743
75224ION    CL-47539   3.501  17.653  14.873
75225ION    CL-47540  30.582  28.501  10.606
75226ION    CL-47541  44.680  14.103   0.504
75227ION    CL-47542  34.651  30.002  14.935
75228ION    CL-47543  16.051  34.579   0.904
75229ION    CL-47544  19.768  10.275  11.052
75230ION    CL-47545  43.007  39.843   1.003
75231ION    CL-47546  18.006  25.525   4.008
75232ION    CL-47547  15.108  44.956   0.854
75233ION    CL-47548   3.401   6.347   5.121
75234ION    CL-47549  26.792  13.432   4.973
75235ION    CL-47550  28.864  39.534  12.322
75236ION    CL-47551  13.116  30.100   3.139
75237ION    CL-47552  11.488  34.195  11.318
75238ION    CL-47553  40.056  33.256   1.592
75239ION    CL-47554   1.540  41.276  11.071
75240ION    CL-47555  12.110  16.744  12.232
75241ION    CL-47556   4.977  40.330  12.030
75242ION    CL-47557  23.456  21.766   4.613
75243ION    CL-47558  36.512  22.255   1.284
75244ION    CL-47559  13.444  13.803  12.039
75245ION    CL-47560   3.222  27.581  12.234
75246ION    CL-47561  37.588  40.195  14.155
75247ION    CL-47562   7.602  34.691  10.805
75248ION    CL-47563  12.739  28.246   1.239
75249ION    CL-47564  30.400  40.379   1.777
75250ION    CL-47565  38.528  39.970   2.193
75251ION    CL-47566  34.903   7.124   4.001
75252ION    CL-47567  38.291  17.633  14.348
75253ION    CL-47568  41.522  23.855  14.487
75254ION    CL-47569   1.945  10.212  14.381
75255ION    CL-47570  14.222  23.937   0.397
75256ION    CL-47571  29.250  28.318  12.848
75257ION    CL-47572  19.101  32.897   1.917
75258ION    CL-47573  40.231   2.036   3.632
75259ION    CL-47574  30.072  42.432  14.084
75260ION    CL-47575   9.342   0.306  14.839
75261ION    CL-47576  40.440  28.492   3.963
75262ION    CL-47577   1.219  25.318   0.090
75263ION    CL-47578  23.333   0.336   0.527
75264ION    CL-47579   9.612  30.297  12.954
75265ION    CL-47580  34.315  10.062   2.803
75266ION    CL-47581   8.755  10.032  10.338
75267ION    CL-47582  44.874   2.578  11.580
75268ION    CL-47583  11.480  44.954  13.690
75269ION    CL-47584   4.438  41.584   2.201
75270ION    CL-47585  10.911  35.956  12.549
75271ION    CL-47586   8.986  25.504  10.876
75272ION    CL-47587  15.724  22.586  12.667
75273ION    CL-47588  26.485  13.434   1.591
75274ION    CL-47589  11.766   5.600   4.191
75275ION    CL-47590   5.639  28.705  14.485
75276ION    CL-47591  20.789  22.973  13.821
75277ION    CL-47592   6.858  38.426  13.032
75278ION    CL-47593  27.669  15.995  13.600
75279ION    CL-47594  12.552   7.570  10.818
75280ION    CL-47595  17.349  32.441   3.794
75281ION    CL-47596  44.052  33.024   4.525
75282ION    CL-47597   7.030   0.571   2.072
75283ION    CL-47598  35.414  19.746  11.632
75284ION    CL-47599  18.525  25.142  12.197
75285ION    CL-47600   7.511  31.002   4.261
75286ION    CL-47601  14.260  42.354   1.200
75287ION    CL-47602  16.566  42.522  13.288
75288ION    CL-47603  34.737  35.875  14.564
75289ION    CL-47604  19.260  16.361  12.537
75290ION    CL-47605   5.473  20.599  13.494
75291ION    CL-47606  21.052  23.422  11.588
75292ION    CL-47607   1.886  40.466   3.279
75293ION    CL-47608  22.765  37.354  12.163
75294ION    CL-47609  39.471  27.451   2.112
75295ION    CL-47610  18.893  19.471   3.445
75296ION    CL-47611   0.548  20.793   1.383
75297ION    CL-47612  25.157  22.185   1.194
75298ION    CL-47613   7.733  39.014   0.057
75299ION    CL-47614  23.364  37.293  14.777
75300ION    CL-47615  24.487  15.123  11.528
75301ION    CL-47616  25.724  44.495   1.644
75302ION    CL-47617  12.137   9.758  12.576
75303ION    CL-47618  20.670  13.244   1.612
75304ION    CL-47619   4.865  20.783   9.748
75305ION    CL-47620  20.591   6.441   4.336
75306ION    CL-47621  18.151  21.017   3.408
75307ION    CL-47622  15.203  26.436  10.993
75308ION    CL-47623  42.658  14.251   0.201
75309ION    CL-47624   4.992  26.565  13.599
75310ION    CL-47625  38.291  13.126   3.230
75311ION    CL-47626  28.187  33.040  10.899
75312ION    CL-47627  37.456   4.232  13.264
75313ION    CL-47628   7.664   7.851  13.652
75314ION    CL-47629  30.462   2.884  13.570
75315ION    CL-47630  23.735  13.180  11.943
75316ION    CL-47631  22.779  42.910  13.735
75317ION    CL-47632  28.495  39.566   2.989
75318ION    CL-47633  28.000  31.347   2.656
75319ION    CL-47634   1.693  30.564  12.509
75320ION    CL-47635  12.542  16.139   4.150
75321ION    CL-47636  42.891   3.443   4.619
75322ION    CL-47637   7.602  22.805   0.032
75323ION    CL-47638  38.587  23.468  12.834
75324ION    CL-47639  14.445  24.066  14.431
75325ION    CL-47640   3.307   0.158   4.979
75326ION    CL-47641   8.186  38.077  12.652
75327ION    CL-47642  35.974  21.517   1.205
75328ION    CL-47643  29.354  26.879   0.862
75329ION    CL-47644  26.627   3.740   0.753
75330ION    CL-47645  25.254  40.493   1.996
75331ION    CL-47646  43.631  11.537  12.048
75332ION    CL-47647  18.264  42.843  14.751
75333ION    CL-47648  29.410  28.687   2.834
75334ION    CL-47649  29.747   7.188  10.392
75335ION    CL-47650  26.347  13.268  11.552
75336ION    CL-47651  37.053  37.783   2.861
75337ION    CL-47652  30.034   9.790  14.784
75338ION    CL-47653  32.012   8.913  14.419
75339ION    CL-47654  27.528   9.114  14.662
75340ION    CL-47655  25.969  19.434  13.888
75341ION    CL-47656  10.336  24.069  10.902
75342ION    CL-47657  10.188  36.596   3.205
75343ION    CL-47658  42.246  39.330  14.948
75344ION    CL-47659  34.985   5.320  13.304
75345ION    CL-47660   5.224  43.859   0.420
75346ION    CL-47661  35.875   0.312   2.898
75347ION    CL-47662  27.755  40.261  13.460
75348ION    CL-47663  28.916  43.284   2.692
75349ION    CL-47664  32.779  41.138  10.911
75350ION    CL-47665  27.151  18.688   2.628
75351ION    CL-47666  19.546  44.331  12.898
75352ION    CL-47667   7.787  39.554  14.091
75353ION    CL-47668  13.106   4.084  14.223
75354ION    CL-47669  30.381  22.112   3.341
75355ION    CL-47670  41.169  31.455  10.807
75356ION    CL-47671  43.472   4.734  12.939
75357ION    CL-47672   4.293   3.317  13.049
75358ION    CL-47673  42.872  24.530  13.019
75359ION    CL-47674  36.074  11.276  14.855
75360ION    CL-47675  13.818  29.612  14.383
75361ION    CL-47676  34.446  32.185   2.579
75362ION    CL-47677   2.142  44.414   4.534
75363ION    CL-47678  21.750  40.517   3.341
75364ION    CL-47679  39.920   9.123  13.520
75365ION    CL-47680   5.623  43.041  11.641
75366ION    CL-47681   5.488   2.483  12.227
75367ION    CL-47682  13.286  36.310  14.970
75368ION    CL-47683  26.736  10.903  14.782
75369ION    CL-47684  40.293  31.210  10.934
75370ION    CL-47685  35.964  34.421   3.384
75371ION    CL-47686  38.845  21.993  11.885
75372ION    CL-47687  26.396  23.064  14.130
75373ION    CL-47688  23.814   5.044  13.731
75374ION    CL-47689  13.501  34.571  12.578
75375ION    CL-47690  13.600  28.579  12.680
75376ION    CL-47691  32.015  21.966  11.135
75377ION    CL-47692  30.239  17.642   2.127
75378ION    CL-47693  14.678  42.774  14.050
75379ION    CL-47694  41.841   2.827   3.243
75380ION    CL-47695  20.460  22.781   1.431
75381ION    CL-47696  34.988  27.942   0.286
75382ION    CL-47697  33.124  24.143  12.812
75383ION    CL-47698   5.178   4.461   1.727
75384ION    CL-47699   0.609  39.001   4.000
75385ION    CL-47700  32.280   1.800   4.564
75386ION    CL-47701  28.585  27.967  14.935
75387ION    CL-47702  42.947  21.347  14.909
75388ION    CL-47703  21.487  31.559  13.432
75389ION    CL-47704  29.904  18.872   1.373
75390ION    CL-47705   8.167  21.358   0.673
75391ION    CL-47706  40.506   8.445  14.374
75392ION    CL-47707  37.780   3.590  12.530
75393ION    CL-47708  17.161   6.764   0.931
75394ION    CL-47709  41.435  30.693  14.999
75395ION    CL-47710  23.974  40.098  14.431
75396ION    CL-47711  42.909  42.068  12.109
75397ION    CL-47712  37.505   4.683   0.308
75398ION    CL-47713   3.472  22.981  13.314
75399ION    CL-47714  32.035  42.179  11.435
75400ION    CL-47715  34.533  14.779  12.096
75401ION    CL-47716  39.446  30.149   2.611
75402ION    CL-47717  15.618  23.284  10.915
75403ION    CL-47718  12.622  20.064  11.143
75404ION    CL-47719  10.860  35.117   2.064
75405ION    CL-47720  28.819  19.476   0.293
75406ION    CL-47721   1.403  34.866  12.858
75407ION    CL-47722   7.502  13.519   2.670
75408ION    CL-47723  25.227  10.989  13.625
75409ION    CL-47724  10.826  26.683   4.137
75410ION    CL-47725   6.404  35.112   5.164
75411ION    CL-47726   2.429  22.606   4.313
75412ION    CL-47727   8.311  26.756  10.397
75413ION    CL-47728  43.942  38.811   1.445
75414ION    CL-47729  28.914  21.684  14.060
75415ION    CL-47730   3.493  38.300   3.133
75416ION    CL-47731  13.027  16.345  10.122
75417ION    CL-47732  27.247  40.333   4.883
75418ION    CL-47733  32.051  37.275  12.065
75419ION    CL-47734  29.602  17.781   3.970
75420ION    CL-47735   7.273  22.264  11.096
75421ION    CL-47736  13.375  22.813  11.937
75422ION    CL-47737  36.176   7.830  10.924
75423ION    CL-47738  28.977  19.261  10.919
75424ION    CL-47739  42.746   5.582   4.171
75425ION    CL-47740  32.970  30.126  14.402
75426ION    CL-47741   6.340   1.954   1.428
75427ION    CL-47742   3.226  43.006  10.744
75428ION    CL-47743  17.393  43.750   2.926
75429ION    CL-47744  28.968  17.308  14.476
75430ION    CL-47745  19.224  22.283   0.467
75431ION    CL-47746   6.216  41.857   4.077
75432ION    CL-47747  29.459  44.409  13.634
75433ION    CL-47748   3.140  36.553   1.907
75434ION    CL-47749   2.934  26.265  14.988
75435ION    CL-47750  20.058  21.297   0.946
75436ION    CL-47751  22.690  42.509   3.370
75437ION    CL-47752   7.905  37.115   3.678
75438ION    CL-47753   3.089  32.224  10.839
75439ION    CL-47754  43.059   0.520  12.296
75440ION    CL-47755   2.497  38.967   3.207
75441ION    CL-47756  34.124   5.311   2.728
75442ION    CL-47757   4.286  40.158   1.981
75443ION    CL-47758  42.759   0.943  11.441
75444ION    CL-47759  24.279  21.265   4.345
75445ION    CL-47760  38.285  41.779   2.942
75446ION    CL-47761  28.026  44.310   9.885
75447ION    CL-47762  43.700  29.919   4.632
75448ION    CL-47763  26.849  34.870   3.696
75449ION    CL-47764  11.584   2.823   2.474
75450ION    CL-47765   8.545  41.389   3.764
75451ION    CL-47766  28.469  43.255   1.799
75452ION    CL-47767   7.235   0.902  14.399
75453ION    CL-47768  28.394   7.637  11.996
75454ION    CL-47769  25.042  35.302   3.348
75455ION    CL-47770   3.761  12.797  11.904
75456ION    CL-47771  21.619  30.069  11.268
75457ION    CL-47772   2.252  36.107  13.830
75458ION    CL-47773   2.257  38.100   2.249
75459ION    CL-47774   4.394  11.368  12.486
75460ION    CL-47775   1.583  16.047  11.045
75461ION    CL-47776   6.198   9.867   1.125
75462ION    CL-47777  35.421   2.425  12.162
75463ION    CL-47778   6.358  37.857   1.617
75464ION    CL-47779  18.038  37.030   4.598
75465ION    CL-47780  22.170  13.066   2.596
75466ION    CL-47781  15.562  24.351  11.207
75467ION    CL-47782  13.298  40.909   1.047
75468ION    CL-47783  42.501   6.006  14.425
75469ION    CL-47784   6.334   7.284  13.551
75470ION    CL-47785  12.144  13.573  11.134
75471ION    CL-47786  22.737  13.605   3.110
75472ION    CL-47787  12.191  17.725   1.569
75473ION    CL-47788  44.867  42.796   3.120
75474ION    CL-47789   5.316   2.796  13.567
75475ION    CL-47790  37.060  18.330   4.020
75476ION    CL-47791  19.679   8.691  12.053
75477ION    CL-47792  11.162  18.330   3.249
75478ION    CL-47793  33.416  28.581   1.910
75479ION    CL-47794  21.224  12.759  11.133
75480ION    CL-47795  15.490  43.433   4.797
75481ION    CL-47796  18.278  36.408  10.512
75482ION    CL-47797  32.712  19.241   1.973
75483ION    CL-47798  18.837   3.375   4.407
75484ION    CL-47799  27.898  43.070   0.079
75485ION    CL-47800  35.052  18.949   1.863
75486ION    CL-47801  43.605  44.054   1.487
75487ION    CL-47802  28.130  35.143  10.097
75488ION    CL-47803  27.035   0.442   2.407
75489ION    CL-47804  17.764  36.417   0.294
75490ION    CL-47805  31.157   0.737  11.688
75491ION    CL-47806  30.035  27.528   4.714
75492ION    CL-47807   7.128  27.484  13.523
75493ION    CL-47808  12.564  41.059  12.479
75494ION    CL-47809   9.672  43.750  10.425
75495ION    CL-47810   7.858  27.755  11.331
75496ION    CL-47811  12.739  18.787  12.986
75497ION    CL-47812  28.513  17.164  12.904
75498ION    CL-47813   7.346  26.109  13.365
75499ION    CL-47814  13.520  26.512   4.856
75500ION    CL-47815  15.191  27.712  10.179
75501ION    CL-47816   9.770  28.975   0.567
75502ION    CL-47817  44.800  35.209   3.712
75503ION    CL-47818   0.894  44.708   4.235
75504ION    CL-47819   4.021  12.363   4.245
75505ION    CL-47820  36.875  13.147   2.595
75506ION    CL-47821  30.044  14.907  11.273
75507ION    CL-47822  12.300  13.718  13.516
75508ION    CL-47823  39.479   0.777  14.038
75509ION    CL-47824  25.392  34.668   0.065
75510ION    CL-47825  26.747   8.153   3.696
75511ION    CL-47826  18.631  11.298   5.168
75512ION    CL-47827  42.269  40.608   5.048
75513ION    CL-47828  30.825  32.434  13.023
75514ION    CL-47829  27.775  22.038   2.422
75515ION    CL-47830  24.547  29.579   0.693
75516ION    CL-47831  27.957  30.869  12.675
75517ION    CL-47832  34.927  16.791   2.784
75518ION    CL-47833  35.535   9.814   1.304
75519ION    CL-47834   3.041  28.481  13.029
75520ION    CL-47835  30.601   7.972   0.944
75521ION    CL-47836  17.174  38.784  11.571
75522ION    CL-47837  26.677  25.335  10.752
75523ION    CL-47838   0.935  40.454   4.095
75524ION    CL-47839   0.681   2.991   1.880
75525ION    CL-47840  23.905  29.346  14.919
75526ION    CL-47841  41.572  34.630  10.691
75527ION    CL-47842   9.979  30.622  13.648
75528ION    CL-47843  43.791   6.286   4.347
75529ION    CL-47844  20.792  26.978   2.864
75530ION    CL-47845   7.301  19.751   1.335
75531ION    CL-47846  20.146  22.105   3.358
75532ION    CL-47847  29.825  35.916  12.637
75533ION    CL-47848  41.722   8.001  14.595
75534ION    CL-47849   3.975   5.447  12.767
75535ION    CL-47850  27.053  42.377   3.417
75536ION    CL-47851  38.222  19.400  12.193
75537ION    CL-47852  44.239  25.657   0.862
75538ION    CL-47853  44.185  12.784  14.855
75539ION    CL-47854  36.803  26.864  10.764
75540ION    CL-47855  15.784   6.646  11.864
75541ION    CL-47856  41.629  44.322   2.593
75542ION    CL-47857   1.993   3.015   2.216
75543ION    CL-47858  33.969  14.585  14.046
75544ION    CL-47859   5.268  15.211   4.873
75545ION    CL-47860  19.488  26.158  12.552
75546ION    CL-47861  37.465  24.197   1.106
75547ION    CL-47862  27.141   9.770  14.131
75548ION    CL-47863  34.561  21.246   0.323
75549ION    CL-47864  41.360   1.680   2.665
75550ION    CL-47865  26.834   0.624  13.527
75551ION    CL-47866   6.477  37.464  13.910
75552ION    CL-47867   0.613   2.057   4.900
75553ION    CL-47868   2.572  37.558  14.785
75554ION    CL-47869  19.438  28.019   4.874
75555ION    CL-47870   6.566  21.177  13.471
75556ION    CL-47871  12.626   3.867   3.922
75557ION    CL-47872  18.743   6.602  12.475
75558ION    CL-47873  34.488  43.476  11.413
75559ION    CL-47874   7.821  11.875   3.153
75560ION    CL-47875   3.383   8.823   1.349
75561ION    CL-47876  22.601   0.776   2.388
75562ION    CL-47877  20.295  12.834   3.017
75563ION    CL-47878  28.177  21.113  13.210
75564ION    CL-47879  18.815  23.194   0.511
75565ION    CL-47880  11.025  41.015  12.801
75566ION    CL-47881  38.997  12.323  13.404
75567ION    CL-47882  21.426  33.588   4.430
75568ION    CL-47883  12.570  11.626   2.509
75569ION    CL-47884  42.749  26.664   2.332
75570ION    CL-47885  26.300  29.659  11.980
75571ION    CL-47886  28.026  44.168  11.234
75572ION    CL-47887  37.086   7.999  12.923
75573ION    CL-47888  37.228   1.418  11.345
75574ION    CL-47889  30.320  14.057  14.970
75575ION    CL-47890  33.803  31.673   4.198
75576ION    CL-47891  20.320   5.359  13.553
75577ION    CL-47892  32.546  22.021   0.616
75578ION    CL-47893  43.252  42.769   2.531
75579ION    CL-47894  33.319  24.724   1.726
75580ION    CL-47895  14.050  16.306   2.842
75581ION    CL-47896  44.583  40.485   0.468
75582ION    CL-47897  29.510   1.274  14.266
75583ION    CL-47898   1.402  19.943   4.307
75584ION    CL-47899  41.094  25.311  12.859
75585ION    CL-47900  36.862  13.784   1.386
75586ION    CL-47901  34.759  32.657  14.540
75587ION    CL-47902  17.575  40.071  14.527
75588ION    CL-47903  18.632  36.475  13.211
75589ION    CL-47904  17.662   7.307  14.579
75590ION    CL-47905  10.965  21.418  14.068
75591ION    CL-47906  25.479  43.938  10.925
75592ION    CL-47907  36.676  30.015  10.450
75593ION    CL-47908  21.987  15.474  12.894
75594ION    CL-47909  13.952  10.742   1.725
75595ION    CL-47910   2.976   1.627   1.986
75596ION    CL-47911  39.097  14.713   4.416
75597ION    CL-47912  37.519   4.547   3.638
75598ION    CL-47913   5.401  12.276  13.565
75599ION    CL-47914  33.754  40.329  13.843
75600ION    CL-47915   4.169  23.313   1.180
75601ION    CL-47916  35.885  26.197   1.903
75602ION    CL-47917  23.327  20.924   4.063
75603ION    CL-47918  43.445  26.227   1.148
75604ION    CL-47919  29.157  15.040   0.482
75605ION    CL-47920  30.180  18.287  12.610
75606ION    CL-47921  44.938  34.226   3.588
75607ION    CL-47922  16.540  20.258   2.753
75608ION    CL-47923  11.732  42.721  14.619
75609ION    CL-47924   1.136   1.266   5.044
75610ION    CL-47925  16.326  28.143   0.056
75611ION    CL-47926   8.709  43.252  12.644
75612ION    CL-47927  28.538  32.798  13.493
75613ION    CL-47928  31.703   7.607  13.334
75614ION    CL-47929  16.046  18.235   3.301
75615ION    CL-47930  44.291  40.902   2.396
75616ION    CL-47931   4.646   7.215   4.073
75617ION    CL-47932  15.679  24.524   4.795
75618ION    CL-47933  12.175  43.736  10.953
75619ION    CL-47934  26.932  29.035  10.462
75620ION    CL-47935  23.261  22.071  14.880
75621ION    CL-47936   9.463  27.984   2.394
75622ION    CL-47937  41.290   4.281   2.172
75623ION    CL-47938  41.737  42.868   1.326
75624ION    CL-47939   3.599  41.426  11.551
75625ION    CL-47940  40.836   4.949   2.867
75626ION    CL-47941   0.999  30.901   4.299
75627ION    CL-47942  16.960  25.589  14.611
75628ION    CL-47943  17.865   5.719  13.970
75629ION    CL-47944  15.167  20.321   1.537
75630ION    CL-47945  14.296  22.073  13.037
75631ION    CL-47946   2.689  39.386   4.126
75632ION    CL-47947  36.346   8.911   1.006
75633ION    CL-47948  38.001   7.947   1.505
75634ION    CL-47949  40.342  15.736  10.783
75635ION    CL-47950  18.033  17.304   4.731
75636ION    CL-47951   2.915  33.565   3.941
75637ION    CL-47952  20.100   9.401  12.509
75638ION    CL-47953  30.402  10.955   2.972
75639ION    CL-47954  33.525  16.391  11.085
75640ION    CL-47955   3.153   5.261  13.305
75641ION    CL-47956  20.540  25.953  14.600
75642ION    CL-47957  24.247   8.537   3.238
75643ION    CL-47958  43.106  35.760   4.875
75644ION    CL-47959  35.614  27.110   0.491
75645ION    CL-47960  13.109  17.925   5.393
75646ION    CL-47961  27.704  38.613   1.857
75647ION    CL-47962  41.045  26.301   2.260
75648ION    CL-47963  17.371  10.815   5.377
75649ION    CL-47964   3.717  12.030  10.425
75650ION    CL-47965  23.802  20.849   0.418
75651ION    CL-47966  44.263   6.735  13.902
75652ION    CL-47967  41.050   7.418  14.673
75653ION    CL-47968  27.164  40.086   3.981
75654ION    CL-47969  38.390  30.110   3.646
75655ION    CL-47970  21.207  10.485   5.009
75656ION    CL-47971  28.658  15.630  14.848
75657ION    CL-47972  15.530  14.537   1.025
75658ION    CL-47973   4.529  27.580   4.553
75659ION    CL-47974   8.241  21.379   1.706
75660ION    CL-47975  30.577  41.293   2.279
75661ION    CL-47976   1.209  16.471  12.396
75662ION    CL-47977  14.614  44.029  13.524
75663ION    CL-47978  32.986  27.506   4.096
75664ION    CL-47979  37.601  22.649  13.387
75665ION    CL-47980  39.512   6.893   1.193
75666ION    CL-47981  26.109   3.132   1.818
75667ION    CL-47982  42.706   8.259   3.944
75668ION    CL-47983  23.306   9.914   1.430
75669ION    CL-47984  24.200   7.823   4.849
75670ION    CL-47985   0.701  21.232   3.110
75671ION    CL-47986  44.016   7.343   0.562
75672ION    CL-47987  32.847  44.516   0.057
75673ION    CL-47988   8.696  29.304   2.694
75674ION    CL-47989  18.996  23.943   5.134
75675ION    CL-47990   6.861  44.772   1.667
75676ION    CL-47991   7.522   6.554   4.266
75677ION    CL-47992  22.386  29.261   2.071
75678ION    CL-47993   0.001  33.398  13.110
75679ION    CL-47994  17.140   4.718   4.942
75680ION    CL-47995  17.730  22.024   3.193
75681ION    CL-47996  19.231  31.092  12.506
75682ION    CL-47997  37.110  30.715   4.171
75683ION    CL-47998  29.427  17.800  11.787
75684ION    CL-47999  23.912  21.494  12.521
75685ION    CL-48000  25.140  43.201   3.862
75686ION    CL-48001  27.111  12.603   1.738
75687ION    CL-48002  43.830  44.534  11.072
75688ION    CL-48003   5.286  31.543   1.407
75689ION    CL-48004  40.728  16.211   2.751
75690ION    CL-48005  30.409  17.667   3.306
75691ION    CL-48006   5.160  35.896   1.600
75692ION    CL-48007   0.643  15.635   3.425
75693ION    CL-48008  18.704   6.969   3.095
75694ION    CL-48009  33.044   8.462  10.443
75695ION    CL-48010   7.333  29.906   0.917
75696ION    CL-48011   8.284  33.619   0.933
75697ION    CL-48012  18.128  36.907   3.610
75698ION    CL-48013  16.700  16.571  13.559
75699ION    CL-48014  30.364   3.476   3.856
75700ION    CL-48015  29.028   0.307   1.423
75701ION    CL-48016  24.911  19.798   5.292
75702ION    CL-48017  32.602  18.531   2.755
75703ION    CL-48018   7.426  35.937  12.971
75704ION    CL-48019  23.363  22.328  12.457
75705ION    CL-48020  43.068   8.193   1.242
75706ION    CL-48021   9.955  13.952  10.022
75707ION    CL-48022   6.363  36.312  14.450
75708ION    CL-48023  31.416   5.147  11.873
75709ION    CL-48024  24.974  21.977  13.067
75710ION    CL-48025  23.424  14.134   1.555
75711ION    CL-48026  15.164  13.281   1.055
75712ION    CL-48027  28.939  31.935  10.682
75713ION    CL-48028   5.543  37.629  11.081
75714ION    CL-48029  33.362  15.567  11.673
75715ION    CL-48030  11.932  19.282  12.555
75716ION    CL-48031  40.387   4.215  12.010
75717ION    CL-48032  14.067  22.920   1.096
75718ION    CL-48033  18.699   0.381   1.254
75719ION    CL-48034  22.206  34.060  11.617
75720ION    CL-48035  33.411  18.802  14.798
75721ION    CL-48036  14.744  38.639  11.682
75722ION    CL-48037  31.407  21.000   1.403
75723ION    CL-48038  11.440  40.455   0.770
75724ION    CL-48039  23.068  25.566   0.225
75725ION    CL-48040  42.310  16.202   1.273
75726ION    CL-48041   1.365  20.091   0.717
75727ION    CL-48042  24.135  27.180  11.190
75728ION    CL-48043  34.092  33.127   3.206
75729ION    CL-48044  32.382  17.863   3.465
75730ION    CL-48045  11.482  39.182  13.955
75731ION    CL-48046   2.862  11.155   9.927
75732ION    CL-48047  26.682  19.052  11.625
75733ION    CL-48048   5.872   2.896   2.174
75734ION    CL-48049  12.736   7.388  11.671
75735ION    CL-48050  37.280  11.151   1.756
75736ION    CL-48051   1.728  36.397  11.310
75737ION    CL-48052  31.061  28.959   2.993
75738ION    CL-48053  12.265   5.923  12.081
75739ION    CL-48054  12.009  21.828   2.833
75740ION    CL-48055  38.448  21.213   2.161
75741ION    CL-48056  25.785  16.139  14.917
75742ION    CL-48057  31.773   5.157  13.259
75743ION    CL-48058  41.507  28.455   1.735
75744ION    CL-48059  33.744  24.687   3.694
75745ION    CL-48060  14.177   9.871  13.836
75746ION    CL-48061  36.837  12.228  11.126
75747ION    CL-48062  10.548  39.521   2.639
75748ION    CL-48063  43.233  12.026  10.450
75749ION    CL-48064  22.418   4.849  14.279
75750ION    CL-48065  30.708  42.114   2.835
75751ION    CL-48066  16.264   1.939   0.416
75752ION    CL-48067  25.540  40.138  13.462
75753ION    CL-48068   2.318  12.591   1.841
75754ION    CL-48069  17.021  25.765   1.561
75755ION    CL-48070  22.165  44.989  14.454
75756ION    CL-48071  19.618  12.008   3.191
75757ION    CL-48072  38.343  36.273   5.058
75758ION    CL-48073  37.005   3.398   0.266
75759ION    CL-48074  33.623  26.400   4.902
75760ION    CL-48075  14.724  43.580   3.731
75761ION    CL-48076  30.681  36.417   1.236
75762ION    CL-48077  43.852  21.680   2.113
75763ION    CL-48078   0.924  40.965  12.758
75764ION    CL-48079  38.672  12.316   5.109
75765ION    CL-48080   7.819  29.425   2.941
75766ION    CL-48081  34.764   5.433   1.631
75767ION    CL-48082   5.855  24.092  12.362
75768ION    CL-48083  17.216   3.204   3.200
75769ION    CL-48084   7.154  35.224   3.368
75770ION    CL-48085  25.472  29.895  12.221
75771ION    CL-48086  19.259   7.356  12.958
75772ION    CL-48087  37.562  20.602  12.367
75773ION    CL-48088  42.662  19.596  12.349
75774ION    CL-48089  14.235  41.129   1.458
75775ION    CL-48090  19.193  39.078  11.930
75776ION    CL-48091  22.373  16.560  14.823
75777ION    CL-48092  23.242   9.954  11.902
75778ION    CL-48093  29.963   1.809   4.218
75779ION    CL-48094  41.046  24.426   4.911
75780ION    CL-48095  15.637  42.339   3.339
75781ION    CL-48096  37.458  34.402   3.183
75782ION    CL-48097  25.745  44.364   2.635
75783ION    CL-48098   7.340  26.090  11.121
75784ION    CL-48099  39.353   1.835   3.615
75785ION    CL-48100   6.338  28.946   2.378
75786ION    CL-48101  29.219  37.773   1.120
75787ION    CL-48102   5.978  14.565  11.201
75788ION    CL-48103  38.983  13.055   3.673
75789ION    CL-48104  23.796  35.506   4.217
75790ION    CL-48105  33.515  44.512   4.061
75791ION    CL-48106  28.401  37.054   3.464
75792ION    CL-48107  35.424  40.112   3.334
75793ION    CL-48108   0.803  44.241  11.160
75794ION    CL-48109  35.963  17.587  12.005
75795ION    CL-48110  16.004  34.514   3.471
75796ION    CL-48111  42.691  12.910  11.350
75797ION    CL-48112  43.487  42.268  14.091
75798ION    CL-48113  44.977   7.027   0.370
75799ION    CL-48114  35.508  23.210   2.841
75800ION    CL-48115  22.230  42.458   2.161
75801ION    CL-48116  36.905  43.561   3.162
75802ION    CL-48117   7.907  31.977   5.170
75803ION    CL-48118   0.859   8.508  13.829
75804ION    CL-48119  18.808  20.394   3.471
75805ION    CL-48120  34.313  12.603  11.553
75806ION    CL-48121  27.161  18.103  11.604
75807ION    CL-48122  39.748  28.090  12.939
75808ION    CL-48123  23.337  27.478  12.139
75809ION    CL-48124  33.242  29.131   3.949
75810ION    CL-48125  18.369  43.870  11.095
75811ION    CL-48126  17.554  36.078   3.707
75812ION    CL-48127   8.248  38.277  14.510
75813ION    CL-48128  36.473  43.951   1.002
75814ION    CL-48129   8.442  18.610   4.093
75815ION    CL-48130  40.462  40.435  10.215
75816ION    CL-48131  41.558  13.619   4.189
75817ION    CL-48132  36.536  43.116  11.660
75818ION    CL-48133  42.749  28.306   3.433
75819ION    CL-48134  42.491  25.199  12.300
75820ION    CL-48135  29.363  14.224  14.699
75821ION    CL-48136  31.642  36.965  14.925
75822ION    CL-48137  24.274  21.719   3.454
75823ION    CL-48138  24.113  39.314  12.066
75824ION    CL-48139   3.243  38.274  14.977
75825ION    CL-48140  30.315  19.602   1.629
75826ION    CL-48141  38.393  28.810   4.772
75827ION    CL-48142  22.674  27.123  14.187
75828ION    CL-48143   4.659  41.137   4.949
75829ION    CL-48144   1.329  22.914   2.940
75830ION    CL-48145  21.809  37.462   5.027
75831ION    CL-48146  35.622  15.280  13.188
75832ION    CL-48147  30.198  44.363   0.447
75833ION    CL-48148  38.602  32.439   3.226
75834ION    CL-48149  29.368  28.298   1.828
75835ION    CL-48150  31.423   0.267  13.366
75836ION    CL-48151  44.823  16.799   1.125
75837ION    CL-48152  34.352  30.791   4.264
75838ION    CL-48153  17.562   5.444  11.675
75839ION    CL-48154  18.656  26.686  11.599
75840ION    CL-48155  25.183   6.306  11.159
75841ION    CL-48156  41.473   0.719   0.091
75842ION    CL-48157  10.063  14.483   5.417
75843ION    CL-48158  15.980  31.782  14.806
75844ION    CL-48159  21.892  29.966   4.731
75845ION    CL-48160   4.819  44.512   2.825
75846ION    CL-48161  25.494  39.461   3.794
75847ION    CL-48162  11.189  21.478  13.189
75848ION    CL-48163   2.681  34.093   1.381
75849ION    CL-48164  23.875  21.920   2.158
75850ION    CL-48165  34.567  26.629   1.793
75851ION    CL-48166  37.758  23.176   4.008
75852ION    CL-48167   2.439   5.351  14.019
75853ION    CL-48168  33.567  21.316   1.076
75854ION    CL-48169  28.247  41.820  12.086
75855ION    CL-48170  38.720  44.968   2.659
75856ION    CL-48171   2.442   1.828   9.918
75857ION    CL-48172  24.288  43.126   1.723
75858ION    CL-48173  39.568  33.159  12.538
75859ION    CL-48174  33.509  41.390   0.637
75860ION    CL-48175  44.685  11.052  14.314
75861ION    CL-48176  25.969  10.894  12.045
75862ION    CL-48177  38.680  18.836   0.835
75863ION    CL-48178  12.993  23.733  13.496
75864ION    CL-48179  30.531   0.293   0.292
75865ION    CL-48180   3.380  23.620  13.923
75866ION    CL-48181   2.369  19.762   3.245
75867ION    CL-48182  43.250  12.463  12.059
75868ION    CL-48183  18.342  12.004   4.522
75869ION    CL-48184  15.107  22.470  14.496
75870ION    CL-48185  31.415  44.730  11.664
75871ION    CL-48186  33.642  34.063   4.703
75872ION    CL-48187  44.173   1.670  12.133
75873ION    CL-48188   7.505  16.554   1.207
75874ION    CL-48189  12.832   8.074  13.563
75875ION    CL-48190  33.775  29.783  14.886
75876ION    CL-48191  18.568  10.677   1.327
75877ION    CL-48192  18.694   5.960  10.129
75878ION    CL-48193  39.809   4.761  11.404
75879ION    CL-48194  24.277  33.891  11.598
75880ION    CL-48195  18.855  21.689  14.422
75881ION    CL-48196  41.980  14.013  13.769
75882ION    CL-48197  17.412  44.042  11.327
75883ION    CL-48198  33.823   6.883  11.982
75884ION    CL-48199  38.000  34.758   4.907
75885ION    CL-48200  29.052  26.721   3.149
75886ION    CL-48201  34.678  28.463  12.012
75887ION    CL-48202  19.357  10.761  14.408
75888ION    CL-48203  24.009  20.757   3.528
75889ION    CL-48204  35.305  20.182   2.357
75890ION    CL-48205  14.711  27.199  12.072
75891ION    CL-48206  28.429   8.713  13.772
75892ION    CL-48207   5.221  16.064  12.179
75893ION    CL-48208  15.374  31.254   1.043
75894ION    CL-48209  16.240  31.391   3.431
75895ION    CL-48210  28.370  16.186  13.838
75896ION    CL-48211   4.646  23.766  13.126
75897ION    CL-48212  13.829  28.747   5.035
75898ION    CL-48213  11.265  13.153   0.772
75899ION    CL-48214  10.134  24.822  13.260
75900ION    CL-48215  23.455  21.423   2.944
75901ION    CL-48216  27.409  18.567   0.738
75902ION    CL-48217  29.186   2.642  12.900
75903ION    CL-48218  36.473  37.359   1.110
75904ION    CL-48219  19.433  18.414   3.297
75905ION    CL-48220  38.420  18.533  12.121
75906ION    CL-48221  13.832   8.852   1.677
75907ION    CL-48222   2.898  16.344  12.237
75908ION    CL-48223  35.810  24.766   2.877
75909ION    CL-48224  37.164  30.503   2.262
75910ION    CL-48225   0.339   9.370   4.183
75911ION    CL-48226  24.419   3.179   2.302
75912ION    CL-48227  40.216  29.852   0.267
75913ION    CL-48228  37.373  24.731  10.970
75914ION    CL-48229  41.570  34.658   1.489
75915ION    CL-48230  19.921  14.000   4.108
75916ION    CL-48231  29.358  27.358  12.304
75917ION    CL-48232   3.389  37.082  12.421
75918ION    CL-48233   3.817  10.463   1.959
75919ION    CL-48234  12.143  17.131  10.670
75920ION    CL-48235  19.110   6.517  10.784
75921ION    CL-48236  35.460   0.280  14.780
75922ION    CL-48237  10.320  36.313  14.071
75923ION    CL-48238  28.052  11.194   1.667
75924ION    CL-48239  10.245  21.414  14.958
75925ION    CL-48240  13.393  34.941  10.844
75926ION    CL-48241  18.846  18.046   4.730
75927ION    CL-48242  29.911  43.878  11.618
75928ION    CL-48243  31.079   8.307  12.986
75929ION    CL-48244  32.264  23.477   9.922
75930ION    CL-48245  40.383  44.975   0.389
75931ION    CL-48246   6.889  27.834  12.564
75932ION    CL-48247  11.736   9.473   1.502
75933ION    CL-48248  36.893  33.654  12.635
75934ION    CL-48249  13.624  30.701   4.782
75935ION    CL-48250   1.852  31.588   0.764
75936ION    CL-48251  39.346  21.145  12.161
75937ION    CL-48252  42.267  37.095   4.474
75938ION    CL-48253  13.095  22.136  12.630
75939ION    CL-48254  35.321  44.939   2.154
75940ION    CL-48255  24.189  43.623  11.141
75941ION    CL-48256  32.172  42.608  12.158
75942ION    CL-48257   5.393  17.512  14.834
75943ION    CL-48258  33.442  25.533  10.878
75944ION    CL-48259  36.865  34.431  13.052
75945ION    CL-48260  35.725  42.562   4.288
75946ION    CL-48261  41.566   0.212  11.544
75947ION    CL-48262  39.812  23.416   0.152
75948ION    CL-48263   6.246  19.307  13.341
75949ION    CL-48264   8.374  34.146   2.250
75950ION    CL-48265   2.611   6.184   4.947
75951ION    CL-48266  43.438  27.928   4.521
75952ION    CL-48267  10.457  14.595   0.279
75953ION    CL-48268  33.489   0.986  14.833
75954ION    CL-48269   6.874   9.394   0.698
75955ION    CL-48270  31.536   3.656   4.253
75956ION    CL-48271  37.476   4.036   2.300
75957ION    CL-48272  28.073   3.043   0.695
75958ION    CL-48273  16.758   1.061  11.430
75959ION    CL-48274  25.119  27.656   2.500
75960ION    CL-48275  44.497  20.450   3.193
75961ION    CL-48276  41.932   9.661   2.145
75962ION    CL-48277  26.533  21.726   0.142
75963ION    CL-48278  36.841  43.298   0.340
75964ION    CL-48279   3.744  27.103   1.295
75965ION    CL-48280   2.436  15.551   3.007
75966ION    CL-48281  19.025  11.502   9.776
75967ION    CL-48282  44.992  33.747   2.166
75968ION    CL-48283  12.651  16.710  12.924
75969ION    CL-48284  23.654  43.378  13.001
75970ION    CL-48285   7.504  32.599   3.198
75971ION    CL-48286  32.487   3.108  14.249
75972ION    CL-48287   3.989  32.146  10.003
75973ION    CL-48288  18.543  16.485   3.276
75974ION    CL-48289   5.973  19.149  12.055
75975ION    CL-48290  24.186  35.231  11.465
75976ION    CL-48291  34.913   6.168   3.242
75977ION    CL-48292  29.904   4.776  10.638
75978ION    CL-48293  29.743   5.244  11.658
75979ION    CL-48294  12.658  12.529   1.012
75980ION    CL-48295  29.170  21.641   0.395
75981ION    CL-48296   7.497  39.079   1.374
75982ION    CL-48297  10.284   4.256  10.632
75983ION    CL-48298  42.579  30.649  13.207
75984ION    CL-48299  27.423  27.260  13.147
75985ION    CL-48300  44.220  35.982   3.455
75986ION    CL-48301  18.215  44.612   3.190
75987ION    CL-48302   5.781  17.691   0.949
75988ION    CL-48303   3.757  40.893   2.492
75989ION    CL-48304  22.816  31.195  13.379
75990ION    CL-48305   1.567  28.534  14.023
75991ION    CL-48306  10.202  36.563   0.032
75992ION    CL-48307  29.962  24.170   0.753
75993ION    CL-48308   5.366  24.088  14.150
75994ION    CL-48309  43.679  14.185   0.365
75995ION    CL-48310   7.079  33.600   2.236
75996ION    CL-48311  18.820  28.754   2.930
75997ION    CL-48312  19.280  16.552  11.278
75998ION    CL-48313  32.555  43.142   3.061
75999ION    CL-48314   9.659  29.559   2.878
76000ION    CL-48315  27.867  23.335   2.620
76001ION    CL-48316  36.312  42.374  13.277
76002ION    CL-48317  13.938  22.215   4.722
76003ION    CL-48318  22.639  11.981  11.238
76004ION    CL-48319  38.315  11.359  13.866
76005ION    CL-48320  14.472   1.779  13.497
76006ION    CL-48321  41.123   7.855  11.156
76007ION    CL-48322  33.124  26.445  13.438
76008ION    CL-48323  24.153  29.404  13.405
76009ION    CL-48324  23.758  33.169   2.694
76010ION    CL-48325  38.475  25.332   2.618
76011ION    CL-48326  13.082  35.655  10.409
76012ION    CL-48327  10.815  33.640   2.490
76013ION    CL-48328  21.015   8.988   3.604
76014ION    CL-48329  14.034  21.280   1.692
76015ION    CL-48330   5.255  44.888   1.332
76016ION    CL-48331  12.475  26.221   0.997
76017ION    CL-48332  22.307  10.880  12.839
76018ION    CL-48333  38.646   2.272   4.174
76019ION    CL-48334  38.575  13.902  13.236
76020ION    CL-48335  24.885  43.976   1.950
76021ION    CL-48336  28.980  40.931   0.815
76022ION    CL-48337  15.040   7.562  12.569
76023ION    CL-48338   8.523  25.949  12.030
76024ION    CL-48339  23.002  17.868  14.468
76025ION    CL-48340  16.583  35.502   5.029
76026ION    CL-48341  23.314  17.252  12.877
76027ION    CL-48342  30.379  10.531   0.807
76028ION    CL-48343  39.535  44.200  12.980
76029ION    CL-48344  27.833  44.769   2.381
76030ION    CL-48345  34.415   3.230  14.789
76031ION    CL-48346  14.857  20.241   3.250
76032ION    CL-48347  31.479  33.949  10.643
76033ION    CL-48348   9.045  16.578   4.550
76034ION    CL-48349   2.651   6.796   3.875
76035ION    CL-48350  32.650  16.925   3.686
76036ION    CL-48351  15.025  33.546   3.074
76037ION    CL-48352  40.585  32.805   2.007
76038ION    CL-48353  20.882  24.336  14.407
76039ION    CL-48354  38.987  35.489   3.590
76040ION    CL-48355  39.283   3.308   0.533
76041ION    CL-48356  39.041  31.012  10.629
76042ION    CL-48357  32.170  23.041   0.967
76043ION    CL-48358  17.630  18.337   1.874
76044ION    CL-48359  23.947  37.647   2.844
76045ION    CL-48360  21.212  40.989  11.195
76046ION    CL-48361  32.955  26.200  14.333
76047ION    CL-48362  13.739   9.486   3.513
76048ION    CL-48363  40.476  23.682  14.454
76049ION    CL-48364  12.467  13.710  12.381
76050ION    CL-48365  20.089  39.839   2.386
76051ION    CL-48366  27.589  35.897  10.370
76052ION    CL-48367  23.749  34.366  12.405
76053ION    CL-48368  35.662  21.041   0.532
76054ION    CL-48369  18.022  32.158  10.677
76055ION    CL-48370   7.868  18.585   2.638
76056ION    CL-48371  21.911  22.204  13.327
76057ION    CL-48372  22.584  12.954  11.672
76058ION    CL-48373  17.067  31.345   1.771
76059ION    CL-48374  35.069   2.706   0.172
76060ION    CL-48375  16.196  29.244  11.478
76061ION    CL-48376  43.768  15.589  12.895
76062ION    CL-48377  36.867  33.144  14.917
76063ION    CL-48378  41.290  40.490   5.215
76064ION    CL-48379  41.314  35.415   2.646
76065ION    CL-48380  35.452   7.519   1.792
76066ION    CL-48381  41.855  20.835  12.699
76067ION    CL-48382  36.138  30.769   2.785
76068ION    CL-48383  38.122  15.805  13.493
76069ION    CL-48384  41.477  35.950   0.988
76070ION    CL-48385   1.931  42.018   2.359
76071ION    CL-48386  40.447  36.603   2.312
76072ION    CL-48387  33.126  24.861   3.785
76073ION    CL-48388  31.310  11.397   3.015
76074ION    CL-48389  29.699  23.929   3.613
76075ION    CL-48390  39.853  40.774   4.641
76076ION    CL-48391  27.449   0.932  14.878
76077ION    CL-48392  20.798  12.513   0.240
76078ION    CL-48393   5.066  31.402   4.631
76079ION    CL-48394  42.899   9.871   2.288
76080ION    CL-48395  27.090  31.585  14.397
76081ION    CL-48396   9.119   1.489  10.848
76082ION    CL-48397  24.722  44.301   2.882
76083ION    CL-48398   6.066  35.472   1.597
76084ION    CL-48399   8.386  22.661  11.180
76085ION    CL-48400   9.464  32.072   1.256
76086ION    CL-48401  32.039   1.981  12.210
76087ION    CL-48402  15.171  44.463  12.315
76088ION    CL-48403   6.325  33.871  11.451
76089ION    CL-48404  28.791  29.299  14.149
76090ION    CL-48405  24.858  41.536   2.705
76091ION    CL-48406  31.134  16.139   3.955
76092ION    CL-48407  18.920   9.559  10.528
76093ION    CL-48408   4.760  23.767   3.018
76094ION    CL-48409  38.035  35.467   2.161
76095ION    CL-48410  10.221  12.292  12.017
76096ION    CL-48411  26.776   5.748   3.345
76097ION    CL-48412  23.061   3.418   2.326
76098ION    CL-48413  24.675  11.055  10.387
76099ION    CL-48414  37.165  23.286  11.095
76100ION    CL-48415  44.035  35.496   2.601
76101ION    CL-48416  30.314  13.993   3.724
76102ION    CL-48417   1.588   7.465   2.400
76103ION    CL-48418  43.928  25.653   3.279
76104ION    CL-48419  24.136   8.272  14.256
76105ION    CL-48420   1.430  12.577   2.303
76106ION    CL-48421  39.803  32.011  12.967
76107ION    CL-48422   5.672  35.159   4.490
76108ION    CL-48423   2.770  26.483   4.337
76109ION    CL-48424  15.744  38.231   2.322
76110ION    CL-48425  21.465  26.690   1.176
76111ION    CL-48426  14.898   6.151   4.161
76112ION    CL-48427  36.011  26.880   3.276
76113ION    CL-48428  21.949  27.855  10.649
76114ION    CL-48429   3.408  29.596   3.237
76115ION    CL-48430   7.823  16.471   9.745
76116ION    CL-48431   1.527  16.831  13.174
76117ION    CL-48432  29.683  19.877  14.987
76118ION    CL-48433  23.502   0.622   3.910
76119ION    CL-48434   0.465  20.840  12.945
76120ION    CL-48435  42.222  19.466   0.402
76121ION    CL-48436  29.239  38.433  14.864
76122ION    CL-48437  36.488   7.007  14.914
76123ION    CL-48438   9.716   0.282   0.768
76124ION    CL-48439  43.149  29.799   3.152
76125ION    CL-48440   0.048   1.010   2.729
76126ION    CL-48441   6.792   8.233  10.400
76127ION    CL-48442  27.294  44.126   3.626
76128ION    CL-48443  24.874  33.006   3.930
76129ION    CL-48444  26.579  38.558  12.086
76130ION    CL-48445  20.152   3.515   1.800
76131ION    CL-48446  20.277   2.420   4.376
76132ION    CL-48447  10.209  24.080  14.892
76133ION    CL-48448  11.743  22.330  10.729
76134ION    CL-48449   4.527  28.780  12.944
76135ION    CL-48450   9.925  26.298  10.402
76136ION    CL-48451  20.082   1.223  10.659
76137ION    CL-48452  25.579  30.640  11.562
76138ION    CL-48453  15.727  29.088   0.925
76139ION    CL-48454   0.465  36.455   1.379
76140ION    CL-48455  27.900  15.249   9.807
76141ION    CL-48456  37.456  10.694   1.057
76142ION    CL-48457  36.612  20.111  14.983
76143ION    CL-48458  30.326  29.282  11.175
76144ION    CL-48459  25.575  29.903  10.741
76145ION    CL-48460  29.519   6.658   2.932
76146ION    CL-48461  42.068  38.422  11.774
76147ION    CL-48462  30.524   6.889  13.071
76148ION    CL-48463   2.444  10.554  11.553
76149ION    CL-48464  15.610  26.149   3.858
76150ION    CL-48465  18.161   3.409   5.143
76151ION    CL-48466  23.251  19.687  14.302
76152ION    CL-48467   0.936  41.842   0.039
76153ION    CL-48468  26.859   0.578   4.757
76154ION    CL-48469  19.202   1.700  12.062
76155ION    CL-48470   2.724  44.411   1.241
76156ION    CL-48471  33.664  10.794  11.446
76157ION    CL-48472   1.743  42.320   4.926
76158ION    CL-48473  27.490  24.525  12.503
76159ION    CL-48474   0.893  42.254   2.791
76160ION    CL-48475  28.516  22.594   2.799
76161ION    CL-48476   8.673   0.974  14.402
76162ION    CL-48477  28.392   2.112   0.871
76163ION    CL-48478  44.041  18.262  11.876
76164ION    CL-48479  10.488  30.565  12.918
76165ION    CL-48480  37.627  43.228   2.555
76166ION    CL-48481  29.118   0.840   0.564
76167ION    CL-48482  27.723  12.853  12.171
76168ION    CL-48483   7.777  13.650   4.986
76169ION    CL-48484   7.739  41.634   4.014
76170ION    CL-48485   6.461  38.852   1.623
76171ION    CL-48486  39.582  29.377  12.649
76172ION    CL-48487   5.406  23.770   5.147
76173ION    CL-48488  15.373  15.304  12.063
76174ION    CL-48489  14.556  16.219   1.111
76175ION    CL-48490   9.442  23.856   1.743
76176ION    CL-48491  35.064  35.170   4.552
76177ION    CL-48492  34.403  26.201   0.904
76178ION    CL-48493   0.686   8.963  14.571
76179ION    CL-48494  17.492  29.428  13.126
76180ION    CL-48495   2.980  12.503   1.097
76181ION    CL-48496  40.463  34.668  14.848
76182ION    CL-48497   9.159  32.457   2.199
76183ION    CL-48498  43.550   9.812  14.714
76184ION    CL-48499  14.661  25.835   1.361
76185ION    CL-48500  10.349  12.590  14.908
76186ION    CL-48501   5.520  32.540   2.827
76187ION    CL-48502  22.638  37.269  13.071
76188ION    CL-48503  15.018  42.049  12.379
76189ION    CL-48504   9.266  25.159   0.873
76190ION    CL-48505   9.745  32.105  11.207
76191ION    CL-48506  19.539  38.854  14.757
76192ION    CL-48507   5.243  24.927   1.491
76193ION    CL-48508  44.316  29.947  11.668
76194ION    CL-48509   3.582  15.295   0.567
76195ION    CL-48510   4.011   4.442   4.035
76196ION    CL-48511  40.065   6.729  11.865
76197ION    CL-48512   7.357   9.918  12.809
76198ION    CL-48513  10.237  36.816   4.953
76199ION    CL-48514  28.500  35.750   3.769
76200ION    CL-48515  30.021   0.305   1.541
76201ION    CL-48516  10.309   4.238   0.349
76202ION    CL-48517  28.174  15.871   3.231
76203ION    CL-48518  31.214   8.262   2.646
76204ION    CL-48519  38.220  27.188   4.780
76205ION    CL-48520  35.626  22.102  11.201
76206ION    CL-48521  15.052  36.853   3.255
76207ION    CL-48522  22.538  40.339  12.901
76208ION    CL-48523  20.127  16.333  14.852
76209ION    CL-48524  34.596  40.355   2.829
76210ION    CL-48525  19.575  42.281   1.671
76211ION    CL-48526  33.620  22.198   0.362
76212ION    CL-48527  15.898  24.887  11.847
76213ION    CL-48528   2.758   4.658   3.963
76214ION    CL-48529   1.459  38.915  10.379
76215ION    CL-48530  39.784   7.258  11.064
76216ION    CL-48531  24.549  22.698  12.369
76217ION    CL-48532  24.663   8.036  14.962
76218ION    CL-48533   8.621   7.733   0.041
76219ION    CL-48534   9.407   8.237  14.609
76220ION    CL-48535  31.000  28.202   2.285
76221ION    CL-48536   5.726  35.383  12.535
76222ION    CL-48537  42.877  25.567   1.199
76223ION    CL-48538  43.267  27.041  14.680
76224ION    CL-48539   2.107  28.408  12.273
76225ION    CL-48540  42.973  29.242   3.964
76226ION    CL-48541  17.645  44.535  12.166
76227ION    CL-48542  32.549  16.760  10.304
76228ION    CL-48543   6.371  22.556  13.390
76229ION    CL-48544  12.373  25.754   5.084
76230ION    CL-48545  34.244   4.249  13.795
76231ION    CL-48546  13.295  39.474  13.023
76232ION    CL-48547  11.196  24.304   2.770
76233ION    CL-48548   6.433   5.394  12.997
76234ION    CL-48549  22.523  16.891   1.213
76235ION    CL-48550  10.469  12.264   4.979
76236ION    CL-48551   4.298  36.687  10.772
76237ION    CL-48552  13.274  44.809  12.521
76238ION    CL-48553  11.989  15.420  14.056
76239ION    CL-48554  20.308   0.993  13.088
76240ION    CL-48555  13.383  28.883  14.911
76241ION    CL-48556  36.062   3.310   1.466
76242ION    CL-48557  32.616  42.521   3.900
76243ION    CL-48558   7.713  40.095   3.827
76244ION    CL-48559  44.535   9.288  13.976
76245ION    CL-48560  11.130  42.330  13.812
76246ION    CL-48561  32.488   1.343  11.585
76247ION    CL-48562  22.540  37.583   4.522
76248ION    CL-48563  28.225  21.317   1.356
76249ION    CL-48564  36.993  37.108   2.015
76250ION    CL-48565  29.442   3.157   4.077
76251ION    CL-48566  22.384  36.890   3.604
76252ION    CL-48567  24.686  28.072  10.621
76253ION    CL-48568  24.373  34.659   2.086
76254ION    CL-48569  37.832  40.131  13.282
76255ION    CL-48570  42.740  31.914  12.705
76256ION    CL-48571  22.439   6.593   1.325
76257ION    CL-48572  11.239  29.619   4.969
76258ION    CL-48573  17.593  17.733  14.899
76259ION    CL-48574  18.092  32.794   2.417
76260ION    CL-48575  38.898  43.535  12.991
76261ION    CL-48576   3.007  43.094   3.695
76262ION    CL-48577  38.026  25.694  13.307
76263ION    CL-48578   7.120   4.683  12.851
76264ION    CL-48579   3.266  38.312  13.978
76265ION    CL-48580  29.693  23.137  13.475
76266ION    CL-48581  14.356  26.462  10.758
76267ION    CL-48582   8.075  36.760   5.096
76268ION    CL-48583  16.890  22.542  14.340
76269ION    CL-48584  40.911   4.790  12.638
76270ION    CL-48585  19.982  36.817   3.775
76271ION    CL-48586  30.672  42.049   1.632
76272ION    CL-48587  15.095  17.987   0.525
76273ION    CL-48588  21.376  33.654  13.534
76274ION    CL-48589  41.837  23.629   1.772
76275ION    CL-48590  39.640  12.058   2.676
76276ION    CL-48591  38.380   5.827   4.720
76277ION    CL-48592  27.647   1.504   2.997
76278ION    CL-48593   7.897  24.531   2.551
76279ION    CL-48594  41.792  29.697   3.503
76280ION    CL-48595  41.775  32.960   3.170
76281ION    CL-48596  32.224  19.043   1.123
76282ION    CL-48597  20.138  20.202   3.229
76283ION    CL-48598  13.896  18.254  11.110
76284ION    CL-48599   6.745  35.365  13.427
76285ION    CL-48600  27.161  13.600  11.754
76286ION    CL-48601  43.892  19.112  11.196
76287ION    CL-48602  27.573  14.898  12.038
76288ION    CL-48603   9.063  26.602  12.563
76289ION    CL-48604  14.979   3.821   2.950
76290ION    CL-48605  10.854  41.227  10.248
76291ION    CL-48606  21.784  24.907   3.898
76292ION    CL-48607  40.827  18.304   4.242
76293ION    CL-48608  11.115  16.836  12.186
76294ION    CL-48609  38.428  24.020  13.712
76295ION    CL-48610  33.590   3.380  10.849
76296ION    CL-48611  38.775  28.251   1.532
76297ION    CL-48612   1.905   4.547   3.943
76298ION    CL-48613  36.843  35.398  12.795
76299ION    CL-48614   0.029  32.548   1.423
76300ION    CL-48615   3.879   0.284   2.847
76301ION    CL-48616  35.959  19.230   1.551
76302ION    CL-48617  39.427  43.088   3.105
76303ION    CL-48618  42.997   5.362  12.009
76304ION    CL-48619   5.456  16.935   1.596
76305ION    CL-48620  17.338   2.026   2.747
76306ION    CL-48621  14.255  12.596  11.633
76307ION    CL-48622  21.215  23.775   0.400
76308ION    CL-48623   3.806  40.389   1.134
76309ION    CL-48624  24.077  25.517   0.907
76310ION    CL-48625   3.814  20.786   0.064
76311ION    CL-48626  30.073  15.163   3.125
76312ION    CL-48627  22.532  11.571   9.994
76313ION    CL-48628  24.974   4.096   3.262
76314ION    CL-48629  12.522  33.423   2.872
76315ION    CL-48630  17.881  35.808  12.978
76316ION    CL-48631  11.701  37.680   2.366
76317ION    CL-48632  22.677  21.753  10.914
76318ION    CL-48633  29.978  28.050   0.716
76319ION    CL-48634  17.684   6.861  10.820
76320ION    CL-48635   0.664  29.340  13.822
76321ION    CL-48636  21.441  16.921  14.866
76322ION    CL-48637  39.964  42.059   4.210
76323ION    CL-48638  31.223  21.211   2.874
76324ION    CL-48639  39.745  39.482  12.401
76325ION    CL-48640  18.483  36.330  12.233
76326ION    CL-48641   9.495  21.684  10.571
76327ION    CL-48642  37.112   0.847   0.881
76328ION    CL-48643  12.810  22.435   1.384
76329ION    CL-48644  29.566   2.892  10.757
76330ION    CL-48645  27.002  42.661  14.906
76331ION    CL-48646  10.130  40.799   4.472
76332ION    CL-48647  25.027   7.347   1.725
76333ION    CL-48648  34.456  28.493   4.114
76334ION    CL-48649  43.920  23.739   3.156
76335ION    CL-48650  24.698  40.714   4.964
76336ION    CL-48651  18.301  11.721   1.670
76337ION    CL-48652  30.587  40.483   4.070
76338ION    CL-48653  41.363  42.289   5.082
76339ION    CL-48654   9.054  13.413   2.178
76340ION    CL-48655  13.079  31.717  14.240
76341ION    CL-48656  30.178  32.868   1.110
76342ION    CL-48657  10.717  18.322  11.626
76343ION    CL-48658  29.884  24.058  13.135
76344ION    CL-48659  15.518  17.183   3.188
76345ION    CL-48660  11.697  26.531   2.788
76346ION    CL-48661  43.092  27.548  11.990
76347ION    CL-48662  33.066  17.301   2.666
76348ION    CL-48663   6.764  25.214   0.347
76349ION    CL-48664   2.407  39.053  12.011
76350ION    CL-48665   8.095   5.550   1.599
76351ION    CL-48666  24.987  24.557   2.497
76352ION    CL-48667  43.343  33.751   5.110
76353ION    CL-48668  43.047  11.515   5.020
76354ION    CL-48669  13.001  37.068   2.608
76355ION    CL-48670  41.668  19.323   1.106
76356ION    CL-48671  32.470   0.458   2.651
76357ION    CL-48672  37.000  41.792   2.235
76358ION    CL-48673  38.818  16.339  13.974
76359ION    CL-48674  28.146   4.959   3.927
76360ION    CL-48675  24.214  44.858   1.728
76361ION    CL-48676   2.299  16.724  14.353
76362ION    CL-48677  22.648  22.329   3.270
76363ION    CL-48678   6.722  25.535   3.191
76364ION    CL-48679  13.269  35.880   2.196
76365ION    CL-48680  42.475  21.448   2.835
76366ION    CL-48681  27.210  44.877   0.887
76367ION    CL-48682  21.248  18.020   0.211
76368ION    CL-48683  14.209  39.812   0.915
76369ION    CL-48684  18.367  12.094  14.347
76370ION    CL-48685  35.117  31.401   1.814
76371ION    CL-48686   5.977  14.290   1.837
76372ION    CL-48687   5.105  40.040   1.178
76373ION    CL-48688   3.180  26.898  13.930
76374ION    CL-48689   8.172  32.677   0.616
76375ION    CL-48690  26.493  29.806   0.348
76376ION    CL-48691  37.947  17.205  12.094
76377ION    CL-48692  28.496  38.970  13.847
76378ION    CL-48693   3.877  20.025   3.475
76379ION    CL-48694  21.160   4.573   0.289
76380ION    CL-48695  36.470  30.568   9.813
76381ION    CL-48696   8.737   9.530  11.741
76382ION    CL-48697  19.185  12.275   0.823
76383ION    CL-48698  26.400  32.984  13.560
76384ION    CL-48699  22.306  32.235  12.930
76385ION    CL-48700   5.889  29.970   2.796
76386ION    CL-48701  26.601  35.575   0.161
76387ION    CL-48702  43.735  20.900   2.727
76388ION    CL-48703  40.107  41.711  13.575
76389ION    CL-48704  33.585   9.115   3.416
76390ION    CL-48705  38.333   2.748   1.725
76391ION    CL-48706  40.558   9.689  12.117
76392ION    CL-48707  44.080  21.758  14.843
76393ION    CL-48708  36.069  25.967   0.213
76394ION    CL-48709  43.915  11.335  14.706
76395ION    CL-48710  20.499  38.096  13.657
76396ION    CL-48711  15.853  31.998  12.612
76397ION    CL-48712  12.165  12.663  13.083
76398ION    CL-48713   6.630  28.578  14.346
76399ION    CL-48714  20.550  13.881  13.125
76400ION    CL-48715  13.182  23.180   2.452
76401ION    CL-48716  14.216  13.045   0.844
76402ION    CL-48717  35.335  18.987  11.925
76403ION    CL-48718   7.801  40.010  10.783
76404ION    CL-48719   9.109  12.535   2.229
  45.00000  45.00000  15.00000
